FOO
138240
    1MOL0     O    1   6.718   6.785   6.077 -0.1327  0.0415 -0.1848
    1MOL0     C    2   6.785   6.796   5.975 -0.0729 -0.2203 -0.8476
    1MOL0     O    3   6.733   6.752   5.855  0.0523 -0.1939  0.1208
    1MOL0     C    4   6.606   6.700   5.864 -0.0830 -0.6391  0.8011
    1MOL0     C    5   6.590   6.576   5.913 -0.3087 -0.0635  0.1732
    1MOL0     C    6   6.462   6.522   5.911  0.5810 -0.1425 -0.0059
    1MOL0     C    7   6.349   6.589   5.872  0.2638 -0.6094 -0.7448
    1MOL0     O    8   6.227   6.538   5.884 -0.5929 -0.1081 -0.2015
    1MOL0     C    9   6.134   6.596   5.973  0.1883 -0.3398  0.8139
    1MOL0     C   10   5.987   6.548   5.972 -0.2239  0.4138  1.2880
    1MOL0     C   11   5.915   6.589   5.845  0.4331  0.2299 -1.3158
    1MOL0     C   12   5.756   6.588   5.854  0.9068  0.8835  0.4438
    1MOL0     C   13   5.682   6.631   5.725  1.0837  0.2435  0.0995
    1MOL0     C   14   5.538   6.668   5.764 -0.6932 -0.7528 -0.2862
    1MOL0     C   15   5.459   6.659   5.636 -0.3767  0.0578  0.2898
    1MOL0     C   16   5.312   6.710   5.653  0.3171 -0.4224 -0.3122
    1MOL0     N   17   5.294   6.848   5.708  0.9785 -0.3262 -0.0310
    1MOL0     C   18   5.195   6.890   5.795  0.0255  0.0720 -0.0432
    1MOL0     C   19   5.232   7.019   5.828 -0.1376  0.1613  0.4200
    1MOL0     C   20   5.147   7.109   5.905 -0.3183  0.3321  0.0692
    1MOL0     C   21   5.071   7.198   5.812  0.1545 -0.5953 -0.1161
    1MOL0     C   22   4.961   7.292   5.864  0.4383  0.3012  0.2049
    1MOL0     C   23   4.902   7.385   5.759  0.0060  0.3154 -0.6484
    1MOL0     O   24   4.835   7.306   5.661  0.5369 -0.5036 -0.3085
    1MOL0     C   25   4.751   7.374   5.575  0.0544  0.2695  0.8689
    1MOL0     C   26   4.613   7.357   5.580 -0.3977 -1.0917  0.2151
    1MOL0     C   27   4.530   7.427   5.486 -0.2075 -0.2611 -0.8119
    1MOL0     C   28   4.387   7.395   5.504 -0.7977  0.3576 -0.2509
    1MOL0     C   29   4.588   7.521   5.397  0.3874  0.1326 -0.2300
    1MOL0     C   30   4.506   7.597   5.301  0.5351 -0.2588  0.4546
    1MOL0     O   31   4.579   7.662   5.205  0.2620 -0.0533  0.4186
    1MOL0     C   32   4.533   7.689   5.074  0.1431 -0.4916  0.0235
    1MOL0     C   33   4.401   7.647   5.025 -0.4058  0.5649  0.0262
    1MOL0     C   34   4.367   7.680   4.894  0.5498 -0.0964 -0.1844
    1MOL0     C   35   4.445   7.752   4.813  0.4456 -0.4731 -0.0258
    1MOL0     O   36   4.403   7.807   4.688  0.1781  0.6447 -0.3477
    1MOL0     C   37   4.324   7.749   4.586 -0.0182  0.4446  0.1175
    1MOL0     C   38   4.248   7.862   4.513 -0.2715 -0.4915 -0.4926
    1MOL0     C   39   4.124   7.918   4.584 -0.2207 -0.4231  0.4408
    1MOL0     C   40   4.052   8.040   4.509 -1.0270  0.1547 -0.1039
    1MOL0     C   41   4.132   8.173   4.507 -0.6090 -0.1145  0.3069
    1MOL0     C   42   4.066   8.279   4.421 -0.8109 -0.0868  0.4633
    1MOL0     C   43   4.168   8.382   4.382  0.0846 -0.1934 -0.8902
    1MOL0     C   44   4.110   8.468   4.271  0.5063  0.0280 -0.2792
    1MOL0    Cl   45   4.253   8.558   4.225 -0.2427  0.4606 -0.4116
    1MOL0     C   46   4.563   7.799   4.854 -0.0738 -0.4698 -0.9275
    1MOL0     C   47   4.607   7.761   4.984  0.3494  0.3948 -0.1028
    1MOL0     O   48   4.386   7.612   5.312 -0.0694  0.5959  0.2987
    1MOL0     C   49   4.720   7.548   5.408  0.3453  0.4924  0.2482
    1MOL0     C   50   4.802   7.469   5.490 -0.3427 -0.5210  1.3851
    1MOL0     N   51   5.327   7.055   5.740 -0.6179  0.2315  0.0364
    1MOL0     N   52   5.371   6.956   5.669  0.0736 -0.0594  0.9101
    1MOL0     C   53   6.364   6.714   5.812  0.0134  0.6192  0.0195
    1MOL0     C   54   6.491   6.771   5.812 -0.0756 -0.2198 -0.6722
    1MOL0     C   55   6.926   6.857   5.979 -0.4075  0.5464  0.2089
    1MOL0     C   56   6.973   6.904   6.099 -0.4016  0.2385 -0.0475
    1MOL0     C   57   7.097   6.971   6.111  0.1179 -1.1916 -0.2675
    1MOL0     C   58   7.179   6.999   6.001  0.1761  0.1798 -0.0096
    1MOL0     O   59   7.299   7.060   6.026  0.1936  0.1914 -0.1468
    1MOL0     C   60   7.364   7.131   5.919  0.0966 -0.1475  0.2088
    1MOL0     C   61   7.460   7.230   5.973  0.0625  1.1036 -0.0993
    1MOL0     C   62   7.610   7.174   5.993  0.0549 -0.5751  1.2971
    1MOL0     C   63   7.702   7.279   6.049  0.6844  0.2666  1.2488
    1MOL0     C   64   7.836   7.243   6.018 -0.2761 -0.0061  0.4340
    1MOL0     C   65   7.939   7.191   5.985  0.8208  0.5895 -0.2942
    1MOL0     C   66   7.138   6.942   5.873 -0.6794 -0.3891 -0.5889
    1MOL0     C   67   7.014   6.878   5.868  0.0821  0.3212  0.7730
    1MOL0     H   68   6.683   6.532   5.950  1.5319  3.5085  0.2430
    1MOL0     H   69   6.439   6.420   5.940  0.5709  0.1550  1.0514
    1MOL0     H   70   6.173   6.582   6.074  0.4797  1.3709  0.9681
    1MOL0     H   71   6.127   6.704   5.958 -2.6273 -0.1969  2.3500
    1MOL0     H   72   5.994   6.440   5.986  1.7834  0.6718  2.7346
    1MOL0     H   73   5.932   6.592   6.056 -1.0056  0.9132  0.5290
    1MOL0     H   74   5.956   6.677   5.794  0.3795  0.4846 -0.9269
    1MOL0     H   75   5.932   6.502   5.781 -1.0312 -0.5028 -0.7738
    1MOL0     H   76   5.716   6.493   5.891 -1.6724  1.4869 -0.5459
    1MOL0     H   77   5.719   6.657   5.931 -1.2248  0.0549  0.2476
    1MOL0     H   78   5.721   6.723   5.679 -0.8228  1.8377  1.4813
    1MOL0     H   79   5.679   6.546   5.657  0.3336  0.3195  0.0294
    1MOL0     H   80   5.490   6.607   5.841 -0.3667  0.9910  1.3758
    1MOL0     H   81   5.551   6.769   5.805  4.1708  0.0348 -3.0091
    1MOL0     H   82   5.505   6.711   5.552 -2.4954  0.0088 -0.9696
    1MOL0     H   83   5.466   6.555   5.605 -2.4833  0.7910 -3.2499
    1MOL0     H   84   5.255   6.641   5.716 -1.4982  0.5578 -0.8033
    1MOL0     H   85   5.272   6.718   5.551  0.4281 -0.1812 -0.3393
    1MOL0     H   86   5.121   6.832   5.849  1.1228 -0.3628  1.0644
    1MOL0     H   87   5.078   7.043   5.958  0.5755  0.1471  1.0307
    1MOL0     H   88   5.219   7.151   5.976  2.0328 -1.2425 -1.2466
    1MOL0     H   89   5.027   7.128   5.740 -1.3827 -2.5339  2.5133
    1MOL0     H   90   5.150   7.260   5.768 -1.0687  1.8571  0.9685
    1MOL0     H   91   5.011   7.352   5.941  4.1435 -1.0581 -0.9323
    1MOL0     H   92   4.884   7.227   5.906  0.3682 -0.6682 -1.3626
    1MOL0     H   93   4.985   7.446   5.724  0.6004  0.2465  0.5935
    1MOL0     H   94   4.829   7.453   5.804 -0.9686 -0.2492 -1.3131
    1MOL0     H   95   4.571   7.306   5.666  1.3610  1.2997  2.6587
    1MOL0     H   96   4.347   7.489   5.543 -1.0051 -0.7410  2.4647
    1MOL0     H   97   4.344   7.377   5.405 -0.7058  1.5856 -0.5283
    1MOL0     H   98   4.366   7.317   5.579  0.0463  2.0169  1.7990
    1MOL0     H   99   4.324   7.595   5.082  0.7415 -3.0550 -1.4310
    1MOL0     H  100   4.270   7.656   4.852  0.8694 -1.7593 -0.0438
    1MOL0     H  101   4.400   7.720   4.512 -0.7393  1.9756 -1.2773
    1MOL0     H  102   4.257   7.670   4.622  1.3611 -0.1397  1.5558
    1MOL0     H  103   4.322   7.942   4.503  0.1227 -0.2395  3.2229
    1MOL0     H  104   4.217   7.820   4.416 -0.5325 -1.7184  0.1015
    1MOL0     H  105   4.151   7.936   4.688  0.1118  1.8968  0.0160
    1MOL0     H  106   4.060   7.830   4.595  0.8160 -0.9899  2.4131
    1MOL0     H  107   4.032   8.008   4.406  0.1619  0.7290 -0.5405
    1MOL0     H  108   3.956   8.065   4.553  0.1616  0.4125  2.4951
    1MOL0     H  109   4.236   8.157   4.479  0.8108  2.9416  3.1304
    1MOL0     H  110   4.141   8.210   4.610 -0.3822  0.7733 -0.0276
    1MOL0     H  111   4.033   8.219   4.335  1.9601 -2.5047  0.9354
    1MOL0     H  112   3.979   8.315   4.478 -0.6402 -2.3377  2.2504
    1MOL0     H  113   4.261   8.340   4.342  0.7107  1.8107 -1.6911
    1MOL0     H  114   4.188   8.446   4.468 -0.2798 -0.4983 -0.5790
    1MOL0     H  115   4.023   8.522   4.309  0.7299 -0.0943  0.4207
    1MOL0     H  116   4.064   8.421   4.184 -1.9535  0.4092  0.7328
    1MOL0     H  117   4.623   7.859   4.786  0.6175 -2.8125 -2.4831
    1MOL0     H  118   4.701   7.808   5.012 -0.2466  1.9058 -0.5760
    1MOL0     H  119   4.770   7.627   5.352 -0.3168 -0.1224 -1.2688
    1MOL0     H  120   4.908   7.493   5.492  0.2781 -2.9357  0.5352
    1MOL0     H  121   6.281   6.755   5.755 -0.6241 -0.6596 -0.0210
    1MOL0     H  122   6.510   6.861   5.755  1.1644  1.8436  2.6721
    1MOL0     H  123   6.921   6.868   6.188 -0.9371  1.9505  0.3663
    1MOL0     H  124   7.146   7.010   6.199 -0.5376 -0.7726 -0.0818
    1MOL0     H  125   7.408   7.057   5.851  0.4361 -0.9082  1.2313
    1MOL0     H  126   7.291   7.191   5.863 -0.0004 -1.3542 -1.0193
    1MOL0     H  127   7.411   7.264   6.064 -0.0281  0.4830  0.0898
    1MOL0     H  128   7.474   7.311   5.900  2.8254 -1.3331 -2.5772
    1MOL0     H  129   7.643   7.139   5.895 -1.3609  0.9281  0.2359
    1MOL0     H  130   7.614   7.085   6.057 -0.4958 -2.5308 -1.2154
    1MOL0     H  131   7.691   7.289   6.157  2.6955 -0.4293  1.5532
    1MOL0     H  132   7.675   7.378   6.011 -0.9101  0.1863  2.0957
    1MOL0     H  133   8.036   7.148   5.970  0.5200 -0.4252  0.4726
    1MOL0     H  134   7.196   6.943   5.781 -3.0087  0.0827 -2.1288
    1MOL0     H  135   6.983   6.849   5.768  0.8026  0.0052  0.6323
    2MOL0     O  136   5.105   5.741   4.953  1.0894  0.2163 -0.3109
    2MOL0     C  137   5.120   5.861   4.927 -0.1463  0.4697 -0.2352
    2MOL0     O  138   5.046   5.965   4.979 -0.5286  0.0617 -0.0643
    2MOL0     C  139   4.917   5.955   5.030 -0.1222  0.4485  0.0446
    2MOL0     C  140   4.838   5.843   5.034  0.0085  0.0177 -0.1931
    2MOL0     C  141   4.704   5.853   5.072  0.0190  0.1711  0.0369
    2MOL0     C  142   4.648   5.980   5.115 -0.4177  0.3264  0.0240
    2MOL0     O  143   4.516   5.996   5.151  0.3530 -0.4982  0.0181
    2MOL0     C  144   4.440   6.084   5.056  0.2801  0.3721  0.0496
    2MOL0     C  145   4.292   6.040   5.035 -0.0575 -0.3114  0.0668
    2MOL0     C  146   4.219   6.085   5.155  0.5067 -0.1364  0.4061
    2MOL0     C  147   4.071   6.029   5.140  0.0006  0.3678 -0.0696
    2MOL0     C  148   3.980   6.089   5.244  0.7110  0.4966 -0.3847
    2MOL0     C  149   4.000   6.028   5.377  0.6913 -0.1158 -0.4747
    2MOL0     C  150   3.880   6.058   5.466  0.8618 -0.8243 -0.0033
    2MOL0     C  151   3.742   6.006   5.420  0.1573 -0.5232  0.4799
    2MOL0     N  152   3.642   6.018   5.524  0.4837  0.6269 -0.3425
    2MOL0     C  153   3.605   5.910   5.610 -0.7540 -1.0938  0.9040
    2MOL0     C  154   3.561   5.969   5.723 -0.2607  0.1202 -0.7635
    2MOL0     C  155   3.514   5.900   5.847 -0.0129 -0.3749 -0.1282
    2MOL0     C  156   3.361   5.903   5.853  0.0973 -0.2174  1.7731
    2MOL0     C  157   3.306   5.883   5.997  0.7020  0.1478 -1.1187
    2MOL0     C  158   3.320   6.013   6.081  0.5895 -0.0395 -0.1429
    2MOL0     O  159   3.237   6.102   6.005 -0.5426 -0.1615  0.1515
    2MOL0     C  160   3.110   6.130   6.064  0.3508  0.0695 -0.0494
    2MOL0     C  161   3.041   6.036   6.152  1.2871 -1.0528  0.2055
    2MOL0     C  162   2.902   6.053   6.181 -0.0801 -0.9374  0.5425
    2MOL0     C  163   2.828   5.940   6.254 -0.1586  0.2729 -0.1844
    2MOL0     C  164   2.835   6.171   6.126 -0.4439  0.4212  0.0981
    2MOL0     C  165   2.688   6.193   6.142 -0.3155  0.5808  1.1357
    2MOL0     O  166   2.607   6.074   6.139 -0.2767 -0.7212 -0.1486
    2MOL0     C  167   2.476   6.097   6.162 -0.4383  0.9519 -0.8247
    2MOL0     C  168   2.400   6.167   6.070  0.2203  0.8151 -0.3694
    2MOL0     C  169   2.261   6.176   6.085  0.3258 -0.2096 -0.0306
    2MOL0     C  170   2.198   6.114   6.193  0.3470 -0.7341  0.4723
    2MOL0     O  171   2.060   6.116   6.202  0.8751  0.7521  0.0962
    2MOL0     C  172   2.014   6.163   6.328  0.5198 -0.1188 -0.4292
    2MOL0     C  173   2.001   6.313   6.320 -0.1690  0.3506 -0.3989
    2MOL0     C  174   1.943   6.377   6.445  0.5637  0.5976 -1.0822
    2MOL0     C  175   1.943   6.531   6.445  0.4327  0.1585  0.2822
    2MOL0     C  176   1.938   6.590   6.589 -0.5721  1.2008 -0.1724
    2MOL0     C  177   1.801   6.598   6.659 -0.8459  0.5114  0.1669
    2MOL0     C  178   1.694   6.675   6.575 -0.7522 -0.4112  1.0098
    2MOL0     C  179   1.720   6.812   6.526 -0.0302 -0.3668  0.4116
    2MOL0    Cl  180   1.587   6.870   6.433 -0.0096  0.3687 -0.1456
    2MOL0     C  181   2.275   6.051   6.293 -0.3083  0.0013 -0.4469
    2MOL0     C  182   2.413   6.044   6.278 -0.5592 -0.1882  0.6771
    2MOL0     O  183   2.643   6.308   6.168  0.0737  0.0319  0.2631
    2MOL0     C  184   2.901   6.263   6.038  0.1529 -1.3815 -0.5229
    2MOL0     C  185   3.037   6.247   6.017 -0.5271 -0.0381  0.8576
    2MOL0     N  186   3.558   6.100   5.700  0.6858 -0.1169 -0.7639
    2MOL0     N  187   3.602   6.134   5.587  0.6570  0.1403  0.1237
    2MOL0     C  188   4.737   6.089   5.135  0.0058 -0.4017 -0.8109
    2MOL0     C  189   4.864   6.072   5.089 -1.1208  0.4674 -0.1570
    2MOL0     C  190   5.252   5.896   4.860 -0.3810  0.3181 -0.8041
    2MOL0     C  191   5.292   5.819   4.740  0.1485  0.0955 -0.8568
    2MOL0     C  192   5.398   5.856   4.668  0.1168  0.3077 -0.4121
    2MOL0     C  193   5.496   5.933   4.725  0.5104 -0.3177 -0.5452
    2MOL0     O  194   5.612   5.941   4.655  0.1863 -0.4022 -1.0298
    2MOL0     C  195   5.727   5.995   4.730  0.1560 -1.3169  0.5292
    2MOL0     C  196   5.857   5.978   4.648  0.2822 -0.8844 -0.2904
    2MOL0     C  197   5.873   5.831   4.625 -0.1038 -0.1431  0.6063
    2MOL0     C  198   6.007   5.799   4.548  0.7981 -0.8281  0.7309
    2MOL0     C  199   6.054   5.664   4.577 -0.0454 -0.7780  0.4713
    2MOL0     C  200   6.094   5.552   4.590  1.3479 -0.0438 -1.3080
    2MOL0     C  201   5.462   6.005   4.833  0.8172 -0.2240 -0.7835
    2MOL0     C  202   5.338   5.996   4.906  0.4651  0.7378  0.3498
    2MOL0     H  203   4.885   5.750   5.003  1.9423 -0.1753  2.8883
    2MOL0     H  204   4.646   5.761   5.069  0.8120 -0.3497  0.3131
    2MOL0     H  205   4.448   6.188   5.089  1.9257  0.5844 -0.9290
    2MOL0     H  206   4.476   6.082   4.953  0.5681  0.6009  0.1434
    2MOL0     H  207   4.248   6.090   4.948  0.4373 -0.9525 -0.5693
    2MOL0     H  208   4.290   5.931   5.023 -0.6433 -0.1049 -2.1603
    2MOL0     H  209   4.269   6.046   5.244 -0.3248  2.6636  2.2338
    2MOL0     H  210   4.216   6.194   5.160  1.2753 -0.0979  0.0971
    2MOL0     H  211   4.040   6.055   5.039  1.0220  0.6790 -0.3189
    2MOL0     H  212   4.079   5.921   5.153  0.8994  0.5956  1.5770
    2MOL0     H  213   3.983   6.198   5.252 -1.3897  0.4850  1.7480
    2MOL0     H  214   3.879   6.065   5.211  0.6772 -5.4643  2.7666
    2MOL0     H  215   4.021   5.921   5.368  4.0736  0.3241  0.6127
    2MOL0     H  216   4.091   6.067   5.424  0.0560 -0.1671  0.8556
    2MOL0     H  217   3.899   6.024   5.568 -0.6308 -1.8056 -0.0227
    2MOL0     H  218   3.866   6.166   5.473  0.2790 -1.0053  2.6979
    2MOL0     H  219   3.745   5.898   5.403 -0.7881 -1.3061  4.2960
    2MOL0     H  220   3.710   6.047   5.324  2.3845 -1.3709 -0.6867
    2MOL0     H  221   3.624   5.803   5.604  1.4813 -0.7197  0.2543
    2MOL0     H  222   3.554   5.799   5.861  1.2188  0.3197  1.8431
    2MOL0     H  223   3.564   5.952   5.930  0.5643 -1.3498  0.1591
    2MOL0     H  224   3.321   5.837   5.775  4.6407 -1.3301  0.0878
    2MOL0     H  225   3.339   6.001   5.810 -0.0366 -1.4159 -1.0669
    2MOL0     H  226   3.361   5.806   6.051  0.0094  0.6298  0.3049
    2MOL0     H  227   3.202   5.852   5.984  1.7108 -3.0631 -2.5362
    2MOL0     H  228   3.421   6.053   6.082 -0.7158  3.5910  1.1275
    2MOL0     H  229   3.289   5.987   6.183 -1.0005 -0.4000 -0.6849
    2MOL0     H  230   3.100   5.966   6.211  0.8146 -0.0646  1.9377
    2MOL0     H  231   2.772   5.869   6.193 -0.4511  1.1742 -0.9836
    2MOL0     H  232   2.905   5.886   6.311 -1.7915  0.6958  2.6019
    2MOL0     H  233   2.752   5.978   6.322 -0.0865  1.1435 -0.5749
    2MOL0     H  234   2.444   6.205   5.978  0.1508 -0.5841 -0.9959
    2MOL0     H  235   2.203   6.231   6.011 -2.1909 -0.4848  1.6262
    2MOL0     H  236   1.915   6.132   6.361  0.0460  2.8084  1.2833
    2MOL0     H  237   2.079   6.138   6.413 -0.2999  0.4368  0.3811
    2MOL0     H  238   2.097   6.354   6.287  0.1614 -0.8178 -0.9520
    2MOL0     H  239   1.942   6.342   6.232 -0.5190  2.6538  0.5231
    2MOL0     H  240   1.987   6.334   6.536 -0.4655 -2.2646 -1.8400
    2MOL0     H  241   1.839   6.346   6.460  1.5790 -1.6310  3.0601
    2MOL0     H  242   2.037   6.562   6.399  1.0871 -0.9947  0.7878
    2MOL0     H  243   1.862   6.570   6.382 -0.3925 -3.3282 -1.0522
    2MOL0     H  244   1.984   6.688   6.579  3.8848 -0.7053 -0.8014
    2MOL0     H  245   2.001   6.522   6.648 -1.5254  0.0590 -0.4137
    2MOL0     H  246   1.769   6.497   6.686  1.5831  0.1348  1.9768
    2MOL0     H  247   1.811   6.644   6.758  1.2717 -1.4089  0.9578
    2MOL0     H  248   1.603   6.680   6.634 -1.3688  5.7867  0.1940
    2MOL0     H  249   1.673   6.603   6.495  2.8990 -2.0167  1.2973
    2MOL0     H  250   1.809   6.808   6.462 -1.2803 -1.8632 -1.3088
    2MOL0     H  251   1.752   6.874   6.611  0.8615  0.1862 -0.3132
    2MOL0     H  252   2.227   6.013   6.383 -1.2662  1.8043 -0.1407
    2MOL0     H  253   2.475   5.987   6.347  1.9180  1.5715  0.0138
    2MOL0     H  254   2.847   6.351   6.006 -0.7776 -1.2657  1.2258
    2MOL0     H  255   3.085   6.326   5.960 -0.9082  0.5834  1.3736
    2MOL0     H  256   4.700   6.190   5.153 -0.3793 -0.8197  0.9371
    2MOL0     H  257   4.934   6.154   5.077  2.4870 -2.5470 -1.8605
    2MOL0     H  258   5.235   5.733   4.705 -0.1016 -0.3533  0.5790
    2MOL0     H  259   5.415   5.810   4.571 -1.4115 -0.2019 -0.4663
    2MOL0     H  260   5.719   6.100   4.757  0.0588 -0.1975 -3.2636
    2MOL0     H  261   5.726   5.938   4.824 -2.7316 -1.0853  0.7358
    2MOL0     H  262   5.941   6.019   4.705 -2.0852  2.1528  1.3409
    2MOL0     H  263   5.859   6.038   4.557  0.8699 -0.9256 -0.3063
    2MOL0     H  264   5.798   5.797   4.553  0.9779 -0.6977 -0.3129
    2MOL0     H  265   5.870   5.774   4.719  1.6684 -0.7913  0.3179
    2MOL0     H  266   6.085   5.871   4.572  0.5708  0.5563 -2.2347
    2MOL0     H  267   5.994   5.814   4.441 -1.6600 -1.6714  0.8302
    2MOL0     H  268   6.131   5.457   4.621 -0.3595  0.2345  1.9645
    2MOL0     H  269   5.526   6.079   4.879 -0.5837  2.3037 -2.6796
    2MOL0     H  270   5.309   6.050   4.996  1.0790 -2.9552  2.9798
    3MOL0     O  271   9.477   9.295   2.253  0.2144  0.6083 -0.2375
    3MOL0     C  272   9.550   9.330   2.163  0.3038 -0.6892  0.1855
    3MOL0     O  273   9.511   9.413   2.062  0.4438  0.7161 -0.3323
    3MOL0     C  274   9.381   9.458   2.058  0.1988  0.0691 -0.6630
    3MOL0     C  275   9.348   9.596   2.046  0.9150 -0.1514  0.3182
    3MOL0     C  276   9.216   9.649   2.043 -0.0690  0.1696  0.1031
    3MOL0     C  277   9.113   9.556   2.053  0.3828 -0.1629 -0.1036
    3MOL0     O  278   8.987   9.605   2.050  0.8279 -0.6003  0.1228
    3MOL0     C  279   8.886   9.517   2.020  0.1525  0.4915  0.3802
    3MOL0     C  280   8.768   9.596   1.966 -0.1968 -0.4986 -0.5670
    3MOL0     C  281   8.723   9.706   2.065  0.2887 -0.7812 -0.3523
    3MOL0     C  282   8.630   9.659   2.184  0.9678  0.7271 -0.6421
    3MOL0     C  283   8.490   9.620   2.135  0.2281 -0.3292 -0.3520
    3MOL0     C  284   8.411   9.573   2.260  0.3317 -0.2248  0.1399
    3MOL0     C  285   8.259   9.567   2.239 -0.3241 -0.3038  0.1469
    3MOL0     C  286   8.201   9.558   2.379  0.6537  0.3306  0.4984
    3MOL0     N  287   8.068   9.509   2.392 -0.0153 -0.5882 -0.7474
    3MOL0     C  288   7.961   9.588   2.340  0.2585  0.9077  0.1265
    3MOL0     C  289   7.854   9.502   2.342 -0.2474  0.4975  0.0090
    3MOL0     C  290   7.712   9.537   2.302  1.2103 -0.1321 -0.4869
    3MOL0     C  291   7.673   9.690   2.330 -0.6976 -1.0296 -0.1887
    3MOL0     C  292   7.534   9.736   2.273  0.4823 -0.1314  0.1952
    3MOL0     C  293   7.501   9.874   2.299  0.3873  0.0489  0.0707
    3MOL0     O  294   7.367   9.909   2.251  0.2199  0.4678  0.8063
    3MOL0     C  295   7.284   9.990   2.316  0.4452  0.8713  1.1070
    3MOL0     C  296   7.161   9.989   2.244  0.0411  0.9601 -0.3476
    3MOL0     C  297   7.046  10.065   2.279 -0.0272  0.1682 -0.2432
    3MOL0     C  298   6.929  10.076   2.184 -0.1805  0.3801 -1.0307
    3MOL0     C  299   7.049  10.129   2.407 -0.3446  0.3155  0.4154
    3MOL0     C  300   6.943  10.216   2.463  0.2264 -0.5109  0.1195
    3MOL0     O  301   6.958  10.264   2.595  0.0303  0.0925 -0.1486
    3MOL0     C  302   6.862  10.344   2.649 -0.4137 -0.5136 -0.1558
    3MOL0     C  303   6.771  10.299   2.732  0.1406  1.1590  0.2556
    3MOL0     C  304   6.678  10.377   2.786  0.9999 -0.6350 -0.3041
    3MOL0     C  305   6.695  10.515   2.786  0.4488  0.1957 -0.1734
    3MOL0     O  306   6.613  10.585   2.875 -0.7146 -0.2025 -0.1153
    3MOL0     C  307   6.605  10.723   2.870 -0.4260  0.6330 -0.3252
    3MOL0     C  308   6.490  10.757   2.963 -0.2056  0.5123 -1.4445
    3MOL0     C  309   6.469  10.911   2.994 -0.4093 -0.9371  0.9111
    3MOL0     C  310   6.582  11.007   2.954  1.3242  0.5479 -0.4647
    3MOL0     C  311   6.543  11.155   2.966 -0.4362 -0.2922  0.0907
    3MOL0     C  312   6.672  11.242   2.936  0.4628 -1.0449  0.4029
    3MOL0     C  313   6.632  11.380   2.897  0.5961  0.1696 -0.1594
    3MOL0     C  314   6.739  11.484   2.935  0.6709 -0.0515  0.6709
    3MOL0    Cl  315   6.889  11.438   2.841 -0.3446 -0.1500 -0.1004
    3MOL0     C  316   6.784  10.574   2.694 -0.1272 -0.1435 -0.0354
    3MOL0     C  317   6.875  10.483   2.630  1.5213  0.2926 -0.2753
    3MOL0     O  318   6.831  10.229   2.402 -1.1714  0.5952  0.4040
    3MOL0     C  319   7.169  10.123   2.480 -1.0428  0.4487  0.7686
    3MOL0     C  320   7.289  10.060   2.434 -0.0380  0.5973 -0.5029
    3MOL0     N  321   7.904   9.375   2.380  0.1130  0.0650  0.2224
    3MOL0     N  322   8.028   9.379   2.417  0.6287  0.0396 -0.1845
    3MOL0     C  323   9.140   9.418   2.073 -0.3256  0.1901  0.5362
    3MOL0     C  324   9.267   9.369   2.057 -0.3859  0.2654  0.6413
    3MOL0     C  325   9.701   9.314   2.170 -0.4452  0.1867  0.5182
    3MOL0     C  326   9.763   9.251   2.274 -0.5856  0.2319  0.1126
    3MOL0     C  327   9.903   9.248   2.291  1.0435 -0.6318 -0.0872
    3MOL0     C  328   9.982   9.314   2.203  0.2146 -0.4871 -0.7089
    3MOL0     O  329  10.119   9.299   2.217  0.0962 -0.4335 -0.3873
    3MOL0     C  330  10.221   9.287   2.114 -0.0212  0.4660 -0.0163
    3MOL0     C  331  10.172   9.175   2.018  0.0068  0.2465  0.4336
    3MOL0     C  332  10.272   9.161   1.909  0.3188 -0.4772  1.3217
    3MOL0     C  333  10.242   9.033   1.824  0.1441  1.2349 -0.1634
    3MOL0     C  334  10.121   9.045   1.742  0.5800 -0.1881 -0.3455
    3MOL0     C  335  10.019   9.033   1.680 -0.2545  0.1838  0.1386
    3MOL0     C  336   9.928   9.374   2.094  0.3921 -0.2455  0.6117
    3MOL0     C  337   9.786   9.381   2.081  0.2048 -0.7652  0.3929
    3MOL0     H  338   9.428   9.669   2.032  0.7750 -0.1637 -0.6086
    3MOL0     H  339   9.197   9.756   2.044  1.8927  0.7243  4.9119
    3MOL0     H  340   8.912   9.447   1.940 -0.1962 -1.5164  1.9480
    3MOL0     H  341   8.863   9.463   2.113  2.0710 -1.0488  0.0272
    3MOL0     H  342   8.808   9.648   1.878 -1.2517  4.3086  1.5007
    3MOL0     H  343   8.679   9.540   1.938 -2.3090  2.3037  0.1121
    3MOL0     H  344   8.809   9.761   2.104  0.2534  0.0707 -1.4433
    3MOL0     H  345   8.683   9.785   2.001 -1.3278  0.7561  2.3468
    3MOL0     H  346   8.683   9.588   2.248 -2.8459  0.5195  2.7130
    3MOL0     H  347   8.607   9.747   2.246 -3.0387  0.6151 -1.7020
    3MOL0     H  348   8.448   9.710   2.089 -1.6085 -0.3026  1.2365
    3MOL0     H  349   8.489   9.544   2.056 -1.0746 -0.9950  0.2770
    3MOL0     H  350   8.458   9.477   2.284  1.6811  0.4108  0.1451
    3MOL0     H  351   8.431   9.643   2.342 -0.0422 -1.2496  1.1250
    3MOL0     H  352   8.223   9.652   2.181 -0.6253 -0.6310 -0.1494
    3MOL0     H  353   8.238   9.472   2.190 -0.1278  0.1734 -0.8700
    3MOL0     H  354   8.219   9.652   2.433  1.7092 -0.5749  1.7868
    3MOL0     H  355   8.261   9.482   2.431  0.5746 -0.1616 -0.1319
    3MOL0     H  356   7.970   9.693   2.312 -2.0941  1.5681  1.5637
    3MOL0     H  357   7.692   9.522   2.195  0.3701 -0.9210 -0.2219
    3MOL0     H  358   7.642   9.478   2.360  0.4186  0.1989 -1.0893
    3MOL0     H  359   7.753   9.753   2.291  0.7878 -1.9643  1.2201
    3MOL0     H  360   7.672   9.706   2.439  0.6501  1.3801 -0.4557
    3MOL0     H  361   7.454   9.672   2.310 -0.6160  1.1054  0.0447
    3MOL0     H  362   7.525   9.722   2.165  0.3050  2.2948 -0.1708
    3MOL0     H  363   7.565   9.944   2.246 -0.5112  2.6251  2.1746
    3MOL0     H  364   7.510   9.890   2.406  0.1708 -0.9286  0.2436
    3MOL0     H  365   7.166   9.921   2.160 -0.2195 -0.8706  1.0507
    3MOL0     H  366   6.967  10.049   2.085  3.1242 -1.0198  0.4498
    3MOL0     H  367   6.843  10.014   2.211  0.3905 -0.2165 -0.5390
    3MOL0     H  368   6.910  10.184   2.179  2.9580  1.1971  0.9791
    3MOL0     H  369   6.760  10.191   2.740  1.4837  0.9195 -0.7713
    3MOL0     H  370   6.591  10.330   2.832  0.6425  0.8798  0.6393
    3MOL0     H  371   6.695  10.764   2.919 -0.3243 -0.0324  0.0556
    3MOL0     H  372   6.583  10.766   2.772 -3.0241 -1.0865 -0.5796
    3MOL0     H  373   6.403  10.723   2.906  1.2545  0.3555 -3.6997
    3MOL0     H  374   6.501  10.699   3.055  1.6473 -1.5225 -2.8591
    3MOL0     H  375   6.464  10.921   3.103 -1.5299 -0.8143  0.8569
    3MOL0     H  376   6.373  10.948   2.958 -1.0618 -2.6860  0.7803
    3MOL0     H  377   6.661  10.986   3.026 -0.5656 -3.9678  0.6191
    3MOL0     H  378   6.616  10.998   2.851  0.8871  0.6004 -0.6184
    3MOL0     H  379   6.504  11.184   3.064 -0.7235  0.5931 -0.2675
    3MOL0     H  380   6.470  11.181   2.889  3.3802 -0.2209 -3.8702
    3MOL0     H  381   6.742  11.237   3.020  1.3512 -2.6381 -0.3930
    3MOL0     H  382   6.728  11.196   2.854  1.0802  1.6281 -0.7895
    3MOL0     H  383   6.536  11.407   2.943 -0.1811 -1.0514 -1.0075
    3MOL0     H  384   6.620  11.394   2.789  0.0947  0.5604 -0.0548
    3MOL0     H  385   6.744  11.481   3.044  0.6614 -1.2850  0.6506
    3MOL0     H  386   6.701  11.583   2.905  0.1941 -0.4226  0.0214
    3MOL0     H  387   6.797  10.681   2.685 -6.0740  0.9342  0.3202
    3MOL0     H  388   6.943  10.526   2.556  1.1409 -0.5821 -1.1635
    3MOL0     H  389   7.180  10.185   2.569  0.8255  1.2320  0.0428
    3MOL0     H  390   7.382  10.068   2.489 -0.7494 -1.5763  1.1721
    3MOL0     H  391   9.058   9.350   2.093 -0.3949 -0.1275 -0.7453
    3MOL0     H  392   9.283   9.262   2.065 -0.9842 -0.2658 -3.3075
    3MOL0     H  393   9.701   9.213   2.354 -0.8860 -0.0599 -0.2533
    3MOL0     H  394   9.956   9.205   2.376 -2.6398 -2.0013  1.7546
    3MOL0     H  395  10.232   9.380   2.057 -1.7613  0.0088 -1.1715
    3MOL0     H  396  10.320   9.267   2.157  2.7233  1.9920 -4.7864
    3MOL0     H  397  10.078   9.207   1.973  1.1810  1.1843 -1.4860
    3MOL0     H  398  10.171   9.076   2.065  1.4377  0.6172  1.3181
    3MOL0     H  399  10.373   9.157   1.950 -0.7484 -2.1522  4.1059
    3MOL0     H  400  10.259   9.249   1.846  1.1342 -0.9921  0.4031
    3MOL0     H  401  10.240   8.947   1.891  1.4748  2.0405  0.9881
    3MOL0     H  402  10.334   9.025   1.765 -0.7229  3.4584 -1.9711
    3MOL0     H  403   9.925   9.016   1.631 -0.2062 -0.7092  0.3324
    3MOL0     H  404   9.993   9.427   2.025 -0.4518  0.6045  0.4389
    3MOL0     H  405   9.749   9.439   1.997  1.4754 -2.0238 -1.0897
    4MOL0     O  406   6.030  11.216  10.938 -0.4765  0.1184 -0.3484
    4MOL0     C  407   6.122  11.291  10.978  0.8155  0.7527  0.7649
    4MOL0     O  408   6.109  11.382  11.079 -0.4156 -0.2163  0.0979
    4MOL0     C  409   5.978  11.419  11.126 -0.4027  0.1521 -0.6109
    4MOL0     C  410   5.964  11.450  11.258 -0.0053 -0.0458 -0.1734
    4MOL0     C  411   5.842  11.488  11.314  0.2344 -0.3107 -1.1396
    4MOL0     C  412   5.726  11.466  11.238 -0.2635 -1.0988  0.0535
    4MOL0     O  413   5.604  11.485  11.293  0.3271 -0.1832  0.2987
    4MOL0     C  414   5.587  11.549  11.420  0.0311 -0.2257 -0.1810
    4MOL0     C  415   5.445  11.605  11.413 -0.3927  0.4416 -0.0181
    4MOL0     C  416   5.413  11.675  11.547  0.7861  0.6171  0.6574
    4MOL0     C  417   5.276  11.757  11.546  0.0089  0.1375 -0.9181
    4MOL0     C  418   5.235  11.791  11.686  0.8000 -0.3415  0.8368
    4MOL0     C  419   5.130  11.905  11.709  0.5134  0.7406  0.9076
    4MOL0     C  420   4.985  11.862  11.682 -0.8090 -0.4250  0.0814
    4MOL0     C  421   4.887  11.970  11.735  0.1318  0.0115  0.2971
    4MOL0     N  422   4.750  11.916  11.750  0.8652  0.1566 -0.4160
    4MOL0     C  423   4.700  11.884  11.877  0.7784 -1.5030 -0.6985
    4MOL0     C  424   4.568  11.841  11.849  0.3258 -0.8875 -0.4932
    4MOL0     C  425   4.461  11.783  11.936  1.0983  0.7852 -0.1000
    4MOL0     C  426   4.318  11.848  11.920 -0.4219  0.3433  0.1660
    4MOL0     C  427   4.305  11.988  11.976 -0.0895  0.2892 -1.0249
    4MOL0     C  428   4.174  12.050  11.957  0.3127  0.3986  0.5356
    4MOL0     O  429   4.145  12.065  11.823  0.0302  0.6703  0.0419
    4MOL0     C  430   4.014  12.102  11.793 -0.2875 -0.2569  0.2507
    4MOL0     C  431   3.993  12.145  11.663 -0.5891 -0.2368  0.2263
    4MOL0     C  432   3.873  12.183  11.609  0.0051  1.4498 -0.2276
    4MOL0     C  433   3.887  12.236  11.468 -0.1589  0.4474 -0.1873
    4MOL0     C  434   3.757  12.182  11.687 -0.6849 -0.4403  0.1597
    4MOL0     C  435   3.625  12.233  11.639  0.4952  0.3716  0.0689
    4MOL0     O  436   3.519  12.203  11.714 -0.6921  0.1217 -0.1303
    4MOL0     C  437   3.395  12.216  11.657  0.0607 -0.3669 -0.3701
    4MOL0     C  438   3.338  12.342  11.641  0.0364  0.0507  0.3542
    4MOL0     C  439   3.206  12.350  11.584 -0.3193  0.1465  0.3445
    4MOL0     C  440   3.146  12.230  11.538 -0.3649 -0.7902  0.2981
    4MOL0     O  441   3.023  12.215  11.481 -0.4428  0.0528 -0.9504
    4MOL0     C  442   2.936  12.320  11.468 -0.9009  0.0272  0.7390
    4MOL0     C  443   2.884  12.346  11.320 -0.6816 -0.0648 -0.0097
    4MOL0     C  444   2.835  12.215  11.255 -0.8434  0.4053  0.1860
    4MOL0     C  445   2.715  12.158  11.338  0.0250  0.2068 -0.2435
    4MOL0     C  446   2.659  12.031  11.280 -0.3523 -0.1572 -0.4984
    4MOL0     C  447   2.556  11.970  11.369  0.2315 -0.1201 -0.9971
    4MOL0     C  448   2.460  11.876  11.295  0.5893  0.5391  0.8199
    4MOL0     C  449   2.325  11.840  11.357 -0.5441 -0.8451  0.0851
    4MOL0    Cl  450   2.203  11.957  11.302 -0.1509  0.0985  0.0678
    4MOL0     C  451   3.202  12.113  11.555  0.1850  0.3057  0.1614
    4MOL0     C  452   3.328  12.101  11.618  0.4138 -0.1863  0.0413
    4MOL0     O  453   3.625  12.311  11.544  0.1521 -0.0116 -0.3350
    4MOL0     C  454   3.774  12.134  11.821 -0.2943  0.3129 -0.0459
    4MOL0     C  455   3.896  12.090  11.875  0.7042  0.3069  0.0469
    4MOL0     N  456   4.545  11.848  11.715  0.2764  0.7000 -0.3232
    4MOL0     N  457   4.647  11.899  11.655 -0.9759 -0.0377  0.1110
    4MOL0     C  458   5.738  11.434  11.099  0.2135 -0.2395 -0.6341
    4MOL0     C  459   5.863  11.415  11.044 -0.2245  0.5667  0.3732
    4MOL0     C  460   6.252  11.277  10.915  0.2026 -0.8566  1.0664
    4MOL0     C  461   6.353  11.365  10.946 -0.1355  0.3162  0.3946
    4MOL0     C  462   6.468  11.361  10.881 -0.6427  0.0944  0.2377
    4MOL0     C  463   6.498  11.259  10.790  0.4026  0.4417  0.5166
    4MOL0     O  464   6.625  11.269  10.733 -0.8806  0.5692  0.5372
    4MOL0     C  465   6.667  11.170  10.646  0.7573  0.5781  0.5267
    4MOL0     C  466   6.805  11.190  10.596 -0.5992  0.3844 -0.0670
    4MOL0     C  467   6.866  11.082  10.505 -0.8949 -0.5045 -0.7573
    4MOL0     C  468   6.879  10.956  10.579  0.9012  0.1513 -0.3316
    4MOL0     C  469   6.962  10.865  10.503 -0.1818  0.3778 -0.6167
    4MOL0     C  470   7.036  10.780  10.457  0.5061  0.3481 -0.5079
    4MOL0     C  471   6.398  11.163  10.758  0.3052 -0.2061 -1.0572
    4MOL0     C  472   6.273  11.173  10.822 -0.1281 -0.9888 -0.1866
    4MOL0     H  473   6.052  11.460  11.319 -0.6226 -0.9870  0.9048
    4MOL0     H  474   5.847  11.516  11.419 -0.3971  0.5052 -1.3165
    4MOL0     H  475   5.598  11.481  11.504 -0.0511  1.1416  0.9742
    4MOL0     H  476   5.661  11.629  11.427  1.3516 -1.2714 -1.6340
    4MOL0     H  477   5.431  11.672  11.328 -5.3107  1.0438  0.9187
    4MOL0     H  478   5.373  11.522  11.406  1.2566 -1.0843  0.4709
    4MOL0     H  479   5.408  11.599  11.625  0.1569  0.1766  0.1890
    4MOL0     H  480   5.490  11.747  11.577 -0.2071  2.1015 -0.2554
    4MOL0     H  481   5.305  11.853  11.502  2.4752  0.3642  0.9583
    4MOL0     H  482   5.186  11.715  11.500  0.0359 -0.6600 -0.2680
    4MOL0     H  483   5.195  11.698  11.727 -3.1742 -0.3135 -2.3744
    4MOL0     H  484   5.324  11.821  11.743  0.2218  0.6578  1.2537
    4MOL0     H  485   5.135  11.947  11.810  0.5047 -1.2279  1.7732
    4MOL0     H  486   5.157  11.988  11.642 -3.1861  1.0571 -0.4413
    4MOL0     H  487   4.973  11.834  11.577  3.1510  1.1062 -0.9525
    4MOL0     H  488   4.967  11.772  11.741 -1.3246 -0.5399 -0.2441
    4MOL0     H  489   4.884  12.057  11.670  4.4114 -0.7289 -1.2197
    4MOL0     H  490   4.930  12.002  11.830  3.6024  1.7783 -1.6725
    4MOL0     H  491   4.747  11.882  11.975 -1.4003 -3.1801  0.3839
    4MOL0     H  492   4.454  11.678  11.908  1.5946  0.8365 -0.4166
    4MOL0     H  493   4.500  11.791  12.038 -1.9290 -0.7109  1.3287
    4MOL0     H  494   4.247  11.777  11.963 -3.9227  3.3467 -0.1509
    4MOL0     H  495   4.295  11.848  11.813  0.9663 -3.8954 -0.3136
    4MOL0     H  496   4.392  12.045  11.944  0.1267  1.1059  0.8422
    4MOL0     H  497   4.301  11.970  12.084 -2.8750 -0.7605 -1.2211
    4MOL0     H  498   4.169  12.149  12.004 -2.8200  0.9419 -0.6941
    4MOL0     H  499   4.097  11.984  11.999  0.6325  0.1790  0.7792
    4MOL0     H  500   4.087  12.135  11.610  0.6942  0.5240  2.2343
    4MOL0     H  501   3.978  12.205  11.417  0.0300  4.7343 -2.9904
    4MOL0     H  502   3.817  12.196  11.395  0.8207  2.7599 -2.5626
    4MOL0     H  503   3.890  12.345  11.463 -0.1132  0.7587  3.4986
    4MOL0     H  504   3.384  12.438  11.661 -1.0540  0.5065  0.7348
    4MOL0     H  505   3.160  12.448  11.582  1.3952  0.9736 -0.3784
    4MOL0     H  506   2.849  12.304  11.531 -0.2780 -0.8010  1.4060
    4MOL0     H  507   2.969  12.419  11.499 -0.8890  0.6359 -1.1104
    4MOL0     H  508   2.813  12.427  11.303 -1.6865 -0.8285  0.4472
    4MOL0     H  509   2.977  12.375  11.270 -0.4992  0.2988  0.5288
    4MOL0     H  510   2.914  12.140  11.238 -1.7658 -0.3508 -0.9849
    4MOL0     H  511   2.799  12.226  11.152 -2.5713 -0.3456  0.6749
    4MOL0     H  512   2.750  12.144  11.441 -0.1255 -2.1088 -0.4532
    4MOL0     H  513   2.637  12.235  11.337  0.4093  0.6801  1.9333
    4MOL0     H  514   2.742  11.961  11.268  1.7079  1.7232  1.7937
    4MOL0     H  515   2.618  12.051  11.181  1.2846  0.1081 -1.1490
    4MOL0     H  516   2.599  11.910  11.450 -1.2028  1.4024  0.9969
    4MOL0     H  517   2.508  12.048  11.429  0.8454 -1.8760  1.9690
    4MOL0     H  518   2.511  11.780  11.283  1.4924  1.2994 -2.4657
    4MOL0     H  519   2.441  11.905  11.191  2.3322  0.7716  0.5401
    4MOL0     H  520   2.336  11.846  11.465 -0.5844  4.9734  0.0535
    4MOL0     H  521   2.280  11.742  11.338 -2.3362 -0.1714  0.6720
    4MOL0     H  522   3.148  12.026  11.520  2.3416 -0.3855 -1.7166
    4MOL0     H  523   3.370  12.004  11.641  1.3357  0.2377  0.1888
    4MOL0     H  524   3.690  12.136  11.889  0.0515  2.3365  0.3850
    4MOL0     H  525   3.899  12.057  11.978 -0.6238 -3.5504 -0.9696
    4MOL0     H  526   5.647  11.442  11.040 -2.3502  1.6093  3.1609
    4MOL0     H  527   5.866  11.399  10.937  2.0395  2.8200 -0.0070
    4MOL0     H  528   6.342  11.447  11.015  2.1796 -0.9179  2.3932
    4MOL0     H  529   6.539  11.441  10.903 -0.5536 -0.3473  1.6945
    4MOL0     H  530   6.653  11.071  10.691  0.1034  0.4125 -0.0264
    4MOL0     H  531   6.589  11.159  10.570 -0.7215 -0.7749  2.1496
    4MOL0     H  532   6.875  11.204  10.680  1.2332 -1.8525 -1.1163
    4MOL0     H  533   6.807  11.283  10.540 -0.3710  0.8941  0.7688
    4MOL0     H  534   6.963  11.113  10.465 -1.4079 -1.3944 -2.8220
    4MOL0     H  535   6.789  11.076  10.428  0.7085 -0.0652 -2.4481
    4MOL0     H  536   6.783  10.906  10.596  1.4611 -0.7350  0.3187
    4MOL0     H  537   6.933  10.971  10.673  0.6801 -0.6012 -0.0760
    4MOL0     H  538   7.114  10.717  10.421  1.2616  1.9693 -1.8555
    4MOL0     H  539   6.420  11.077  10.695  0.8508 -0.9146  0.0710
    4MOL0     H  540   6.206  11.088  10.809 -0.1025 -0.8928 -0.9805
    5MOL0     O  541  10.367   7.640   5.348  0.2997 -0.0016 -0.1633
    5MOL0     C  542  10.387   7.729   5.260 -0.0944  0.4781  0.0342
    5MOL0     O  543  10.324   7.849   5.261 -0.6801 -0.2907 -0.3425
    5MOL0     C  544  10.192   7.848   5.299  0.4222 -0.2459  0.1467
    5MOL0     C  545  10.104   7.739   5.297  0.3635 -0.6628 -0.4450
    5MOL0     C  546   9.966   7.756   5.321 -0.0990  0.3714 -0.0396
    5MOL0     C  547   9.915   7.879   5.341  0.5615 -0.3229  0.0181
    5MOL0     O  548   9.776   7.902   5.358 -0.2947  0.0354 -0.3066
    5MOL0     C  549   9.686   7.818   5.438 -0.2673  0.0267 -0.5946
    5MOL0     C  550   9.623   7.916   5.535  0.3065  0.2347  0.3809
    5MOL0     C  551   9.711   7.950   5.654 -0.6397  0.4889 -1.4514
    5MOL0     C  552   9.627   7.960   5.784 -0.2231 -0.9921 -0.6235
    5MOL0     C  553   9.720   7.982   5.909 -0.0728 -0.4207  0.5358
    5MOL0     C  554   9.646   7.991   6.047 -0.3774  0.8795 -0.4284
    5MOL0     C  555   9.554   8.113   6.064  0.3091  0.1455 -0.0580
    5MOL0     C  556   9.479   8.110   6.200  0.0907  0.0895 -0.8524
    5MOL0     N  557   9.377   8.001   6.229  0.8385 -0.9316  0.8831
    5MOL0     C  558   9.308   7.942   6.131 -0.1627  0.4515 -0.1421
    5MOL0     C  559   9.229   7.851   6.198  0.4403  0.6153 -0.4419
    5MOL0     C  560   9.143   7.743   6.151  0.8723 -0.5554  0.2691
    5MOL0     C  561   9.033   7.799   6.037  0.2551 -0.1954  1.1587
    5MOL0     C  562   8.912   7.694   6.032  0.1041  0.0370 -0.1724
    5MOL0     C  563   8.789   7.764   6.093 -1.2637  0.6488 -0.2839
    5MOL0     O  564   8.756   7.889   6.034  0.2829  0.0484 -0.6376
    5MOL0     C  565   8.629   7.931   6.063 -0.5222  0.0147  0.9933
    5MOL0     C  566   8.616   8.013   6.172  0.2150 -0.4914 -1.2416
    5MOL0     C  567   8.492   8.077   6.190  0.1150 -0.1357 -0.1062
    5MOL0     C  568   8.485   8.197   6.276  1.2432  0.4271  0.9215
    5MOL0     C  569   8.379   8.033   6.118 -0.6276 -0.3966  0.0834
    5MOL0     C  570   8.243   8.084   6.138  1.0806  0.9543 -0.6681
    5MOL0     O  571   8.161   8.066   6.027 -0.5565 -0.2029 -0.4169
    5MOL0     C  572   8.018   8.064   6.032  0.1909  0.5103  0.7663
    5MOL0     C  573   7.943   8.023   6.149 -0.3299  0.1186  0.7267
    5MOL0     C  574   7.803   8.012   6.153  0.5164 -0.5951  1.6735
    5MOL0     C  575   7.728   8.036   6.030  0.1257  0.3491 -0.5526
    5MOL0     O  576   7.588   8.022   6.018  0.0992  0.8884 -0.2947
    5MOL0     C  577   7.526   7.966   6.135 -0.3716 -0.3007  0.4411
    5MOL0     C  578   7.387   7.922   6.090  0.2438 -0.0281  0.3720
    5MOL0     C  579   7.293   7.942   6.201  0.8700  0.7465 -0.8969
    5MOL0     C  580   7.161   7.857   6.169 -0.0674 -0.8811  0.0076
    5MOL0     C  581   7.071   7.850   6.299 -0.7341 -0.1951  0.6541
    5MOL0     C  582   7.018   7.982   6.345 -0.6179 -0.4361  0.2758
    5MOL0     C  583   6.952   7.969   6.481  0.6722  0.9014 -0.2158
    5MOL0     C  584   6.912   8.103   6.536 -0.1987 -0.2101 -0.4541
    5MOL0    Cl  585   6.824   8.086   6.688 -0.3791 -0.0549 -0.6319
    5MOL0     C  586   7.798   8.063   5.915  0.0102  0.8609 -0.7098
    5MOL0     C  587   7.943   8.074   5.917  0.7988  0.2683 -0.5484
    5MOL0     O  588   8.211   8.121   6.248  0.3958 -0.7815 -0.2069
    5MOL0     C  589   8.405   7.961   5.997  0.2496 -0.1035 -0.6989
    5MOL0     C  590   8.531   7.907   5.970  0.6276 -0.3754 -0.0398
    5MOL0     N  591   9.242   7.878   6.329 -0.6299 -0.4515  0.2446
    5MOL0     N  592   9.333   7.968   6.351  0.1757 -0.3557  0.4782
    5MOL0     C  593   9.993   7.994   5.323 -0.4912  1.1798  0.1207
    5MOL0     C  594  10.129   7.975   5.312 -0.7222 -0.0995  0.3061
    5MOL0     C  595  10.499   7.713   5.163 -0.5329  0.3114 -0.0534
    5MOL0     C  596  10.526   7.789   5.050 -0.5343  0.2128 -0.6782
    5MOL0     C  597  10.641   7.767   4.966  0.8636 -0.8717  0.2871
    5MOL0     C  598  10.737   7.672   5.002 -0.4955  0.0132 -0.6656
    5MOL0     O  599  10.838   7.632   4.912 -0.6330  0.2476 -0.3767
    5MOL0     C  600  10.955   7.566   4.956 -0.2204  0.6539 -0.5270
    5MOL0     C  601  11.040   7.528   4.841  0.8516 -0.4262  0.2142
    5MOL0     C  602  11.170   7.456   4.870  0.4014  0.1165  0.6503
    5MOL0     C  603  11.290   7.530   4.932  0.1223 -0.1493  0.4504
    5MOL0     C  604  11.408   7.442   4.952 -0.2201  0.2531  0.4565
    5MOL0     C  605  11.514   7.389   4.949  0.2002  0.6048 -0.1235
    5MOL0     C  606  10.726   7.604   5.122  0.3100 -0.2832 -0.4796
    5MOL0     C  607  10.605   7.623   5.201  0.1984  0.4814  0.2472
    5MOL0     H  608  10.149   7.650   5.256  0.5508 -1.0094  0.4854
    5MOL0     H  609   9.898   7.671   5.318 -1.2815  1.2232  1.3600
    5MOL0     H  610   9.613   7.761   5.380 -0.2634 -0.4177 -0.1742
    5MOL0     H  611   9.741   7.744   5.496  0.2851  1.0020  0.1471
    5MOL0     H  612   9.594   8.006   5.480 -1.0245 -0.3806  0.0419
    5MOL0     H  613   9.536   7.855   5.562 -1.3348  1.6138 -1.4526
    5MOL0     H  614   9.788   7.874   5.670 -0.4156  0.7460 -1.2962
    5MOL0     H  615   9.764   8.043   5.631 -1.6835  1.5068  0.0339
    5MOL0     H  616   9.565   8.049   5.766  2.1787  1.2766  1.5211
    5MOL0     H  617   9.580   7.862   5.795  0.2819 -0.9977  2.4737
    5MOL0     H  618   9.793   7.901   5.915 -0.2740 -1.0879 -3.1860
    5MOL0     H  619   9.776   8.074   5.887  0.7698 -0.9091  0.5797
    5MOL0     H  620   9.601   7.893   6.065  1.7043  0.1277  1.0580
    5MOL0     H  621   9.720   8.000   6.127 -0.7664  0.7806 -0.0509
    5MOL0     H  622   9.613   8.201   6.038  0.6612 -0.3856 -1.1099
    5MOL0     H  623   9.483   8.104   5.981 -0.9140  1.5731  0.7776
    5MOL0     H  624   9.427   8.206   6.201  2.5217  1.5104 -1.7939
    5MOL0     H  625   9.548   8.104   6.285 -3.4789 -2.0734  2.1951
    5MOL0     H  626   9.335   7.962   6.028  1.8236 -1.4922 -0.0747
    5MOL0     H  627   9.211   7.675   6.099 -1.0402 -2.4826  0.1488
    5MOL0     H  628   9.094   7.683   6.228 -0.7094  1.1338  0.6547
    5MOL0     H  629   9.059   7.812   5.932 -1.0352 -1.4439  0.6454
    5MOL0     H  630   9.016   7.903   6.066  2.4123  0.6681 -0.3581
    5MOL0     H  631   8.936   7.598   6.079  1.1911  0.5694  0.4072
    5MOL0     H  632   8.891   7.676   5.926  1.1615  2.6292 -0.9108
    5MOL0     H  633   8.804   7.781   6.200  0.2815 -1.7517 -0.0379
    5MOL0     H  634   8.710   7.688   6.093  1.9786 -3.0795  0.7531
    5MOL0     H  635   8.695   8.030   6.244 -1.3883 -2.8404  1.2664
    5MOL0     H  636   8.586   8.232   6.299  1.2770  0.7542  0.2877
    5MOL0     H  637   8.426   8.274   6.225  1.0483  0.6430  1.4538
    5MOL0     H  638   8.426   8.166   6.363  0.7560 -1.5600 -0.0691
    5MOL0     H  639   7.987   8.017   6.248 -2.4486  1.0144  1.7707
    5MOL0     H  640   7.749   7.999   6.246 -2.6317  1.4202  0.3028
    5MOL0     H  641   7.570   7.868   6.157 -3.6696 -2.0958 -0.3386
    5MOL0     H  642   7.519   8.037   6.218 -0.1432  0.6934 -0.3645
    5MOL0     H  643   7.361   7.958   5.990 -1.0497 -0.4804  0.5270
    5MOL0     H  644   7.387   7.815   6.068  1.1909 -0.4947  2.3978
    5MOL0     H  645   7.272   8.047   6.223 -3.7745  0.0170 -0.9332
    5MOL0     H  646   7.332   7.896   6.292 -1.4329  1.7536  0.6789
    5MOL0     H  647   7.104   7.901   6.086  0.7820 -2.3663 -1.4154
    5MOL0     H  648   7.192   7.754   6.150 -0.4713 -0.8007 -1.1172
    5MOL0     H  649   7.137   7.801   6.370  0.4793  0.2671 -0.1355
    5MOL0     H  650   6.996   7.771   6.292  0.4953 -1.2717 -1.1531
    5MOL0     H  651   7.098   8.055   6.355 -0.4957 -0.6661  1.0509
    5MOL0     H  652   6.955   8.019   6.264 -2.4323  1.4173  2.3942
    5MOL0     H  653   7.029   7.936   6.551  0.4314  3.4645  1.3543
    5MOL0     H  654   6.865   7.902   6.478  0.2053  1.5294 -1.0407
    5MOL0     H  655   6.855   8.168   6.469  1.5039  0.6660 -1.1195
    5MOL0     H  656   7.010   8.151   6.550  1.7965 -3.3263 -2.5871
    5MOL0     H  657   7.738   8.065   5.824  0.3844  1.2026 -0.9517
    5MOL0     H  658   7.988   8.113   5.827  1.7696  1.2945  0.3450
    5MOL0     H  659   8.314   7.923   5.951  0.8278 -0.9504 -1.1738
    5MOL0     H  660   8.547   7.830   5.894 -1.6554 -0.4901 -0.4625
    5MOL0     H  661   9.938   8.087   5.334  1.7514  2.3777  2.0875
    5MOL0     H  662  10.195   8.061   5.315  0.0796 -0.6387 -1.1588
    5MOL0     H  663  10.449   7.857   5.014 -1.7076 -0.9925 -0.5190
    5MOL0     H  664  10.654   7.835   4.883 -3.7523  2.8735  2.1982
    5MOL0     H  665  11.007   7.639   5.018  1.1291 -1.1591  0.5940
    5MOL0     H  666  10.933   7.478   5.018  0.8092  2.5560  2.7877
    5MOL0     H  667  11.061   7.624   4.794 -0.0199 -0.0422  0.5883
    5MOL0     H  668  10.986   7.478   4.760  0.1713  0.7364 -0.0691
    5MOL0     H  669  11.218   7.415   4.781  2.2070  0.3216  1.4769
    5MOL0     H  670  11.136   7.372   4.931  2.0812 -0.6832  0.5179
    5MOL0     H  671  11.259   7.575   5.027 -0.5176 -0.6127  0.4680
    5MOL0     H  672  11.317   7.605   4.857 -1.7432 -1.4536 -1.6506
    5MOL0     H  673  11.604   7.334   4.927 -0.8419 -0.7446 -1.2411
    5MOL0     H  674  10.810   7.545   5.157  2.0179  1.3771 -1.5630
    5MOL0     H  675  10.587   7.570   5.294  1.2811  0.2699  0.3502
    6MOL0     O  676   1.608   0.195   2.095 -0.1189  0.2028  0.9730
    6MOL0     C  677   1.671   0.136   2.009  0.6417  0.0727  0.7106
    6MOL0     O  678   1.614   0.092   1.891 -0.4026 -0.2524 -0.4532
    6MOL0     C  679   1.480   0.106   1.867 -0.4080  0.0377 -0.6924
    6MOL0     C  680   1.376   0.120   1.957 -0.0829 -0.3343  0.2401
    6MOL0     C  681   1.245   0.142   1.901  0.0528  0.0490  0.6940
    6MOL0     C  682   1.220   0.170   1.761 -0.2703 -0.0179  0.1309
    6MOL0     O  683   1.094   0.188   1.715  0.2868  0.0290  0.2873
    6MOL0     C  684   1.084   0.298   1.621 -0.4069 -0.4375  0.0945
    6MOL0     C  685   0.997   0.259   1.509  1.3738  0.2847 -0.3835
    6MOL0     C  686   1.030   0.122   1.443  0.1622 -0.6894 -0.2556
    6MOL0     C  687   0.958   0.117   1.308 -0.0050 -0.4957 -0.4059
    6MOL0     C  688   0.968  -0.022   1.235 -0.3030 -1.0550  0.6220
    6MOL0     C  689   0.912  -0.144   1.310  0.0801  0.7127  0.0337
    6MOL0     C  690   0.756  -0.130   1.346 -0.0010  0.1699  0.3570
    6MOL0     C  691   0.675  -0.092   1.219 -0.0531  0.8131  0.1919
    6MOL0     N  692   0.529  -0.067   1.244 -0.3951  0.7194  0.0597
    6MOL0     C  693   0.447  -0.170   1.295 -0.4493  0.0619 -1.3216
    6MOL0     C  694   0.331  -0.110   1.307  0.6465 -0.3785  0.2952
    6MOL0     C  695   0.202  -0.186   1.337  0.4957 -0.0257 -0.3308
    6MOL0     C  696   0.184  -0.308   1.247 -0.0101  0.2568 -0.2094
    6MOL0     C  697   0.165  -0.272   1.097 -0.3801 -0.9296  0.2639
    6MOL0     C  698   0.033  -0.194   1.072 -0.5149 -1.1097  0.2405
    6MOL0     O  699  -0.082  -0.275   1.085  0.7275  0.3722 -0.1855
    6MOL0     C  700  -0.200  -0.228   1.143 -0.2742 -0.7806 -0.5442
    6MOL0     C  701  -0.312  -0.312   1.148  0.0998 -0.1482  0.0827
    6MOL0     C  702  -0.439  -0.261   1.184  0.0137 -0.1772 -0.1766
    6MOL0     C  703  -0.550  -0.362   1.190  0.0409  0.1223 -0.0371
    6MOL0     C  704  -0.462  -0.117   1.206  0.3682  0.3803 -0.0601
    6MOL0     C  705  -0.578  -0.045   1.226  0.1074 -0.8415 -0.4548
    6MOL0     O  706  -0.571   0.096   1.254  0.2701 -0.0038  0.2662
    6MOL0     C  707  -0.661   0.188   1.294 -0.9002  0.7850 -0.2278
    6MOL0     C  708  -0.787   0.159   1.342 -1.1654  0.6017 -0.1309
    6MOL0     C  709  -0.880   0.263   1.377 -0.0004 -0.4698  0.7858
    6MOL0     C  710  -0.843   0.398   1.352  1.1119 -0.7409 -0.2260
    6MOL0     O  711  -0.932   0.500   1.392  0.0907 -0.7315  0.1918
    6MOL0     C  712  -1.073   0.478   1.369 -0.5515  0.6609  0.4152
    6MOL0     C  713  -1.155   0.611   1.389  0.7511  0.2274 -0.2382
    6MOL0     C  714  -1.296   0.586   1.365  1.0049 -0.1365 -0.6696
    6MOL0     C  715  -1.373   0.699   1.433 -0.1080  0.1187  0.6514
    6MOL0     C  716  -1.521   0.669   1.416 -0.0386 -0.2278 -1.2267
    6MOL0     C  717  -1.602   0.785   1.480 -0.5078 -0.7005 -0.6186
    6MOL0     C  718  -1.749   0.754   1.508  0.2983 -0.0765  0.0938
    6MOL0     C  719  -1.802   0.846   1.607 -0.0853  0.2307 -0.7360
    6MOL0    Cl  720  -1.976   0.807   1.645 -0.1898 -0.0860  0.0873
    6MOL0     C  721  -0.713   0.429   1.330 -0.9187 -0.0358  0.5225
    6MOL0     C  722  -0.622   0.321   1.291  0.8684 -0.1233  0.9684
    6MOL0     O  723  -0.688  -0.099   1.217  0.2139  0.5248 -0.4488
    6MOL0     C  724  -0.348  -0.045   1.202  0.8329  0.4503  0.2769
    6MOL0     C  725  -0.216  -0.093   1.182  0.2383  0.5501 -0.2433
    6MOL0     N  726   0.337   0.023   1.273  0.5610  0.0245 -0.4489
    6MOL0     N  727   0.461   0.049   1.240  0.3166  0.1013  0.8867
    6MOL0     C  728   1.339   0.158   1.680 -0.0300  0.2560 -0.3998
    6MOL0     C  729   1.464   0.108   1.731 -0.4390 -1.2549 -0.1615
    6MOL0     C  730   1.812   0.113   2.022  0.6684  0.9364  0.2584
    6MOL0     C  731   1.869   0.019   1.930  0.1942  0.6089 -0.3458
    6MOL0     C  732   2.010   0.006   1.928 -0.2717  0.4511  0.5626
    6MOL0     C  733   2.088   0.059   2.032 -0.9401 -0.3769  0.8101
    6MOL0     O  734   2.220   0.026   2.050 -0.2371 -0.3113 -0.4302
    6MOL0     C  735   2.303  -0.010   1.942 -0.6810  0.9166  0.1237
    6MOL0     C  736   2.449  -0.032   1.997  0.4092 -0.4054  0.5344
    6MOL0     C  737   2.443  -0.141   2.100  0.2680  1.9375 -0.5859
    6MOL0     C  738   2.577  -0.189   2.144  0.2282 -0.9584 -0.7709
    6MOL0     C  739   2.670  -0.081   2.196 -0.0290 -0.1254  0.4976
    6MOL0     C  740   2.754  -0.010   2.232  0.2871  0.0091 -0.4685
    6MOL0     C  741   2.030   0.144   2.121  0.1653  0.5680  0.6971
    6MOL0     C  742   1.890   0.179   2.109 -0.2586 -0.1973  0.3348
    6MOL0     H  743   1.394   0.115   2.064 -3.6955  0.5144  1.0360
    6MOL0     H  744   1.167   0.143   1.977  1.2026  1.9799  1.9388
    6MOL0     H  745   1.028   0.381   1.662 -0.7921 -0.6337 -0.0278
    6MOL0     H  746   1.181   0.333   1.584 -0.5140  1.8124  1.8151
    6MOL0     H  747   0.891   0.266   1.533  1.4908  3.6788 -0.3804
    6MOL0     H  748   0.994   0.334   1.428 -0.8799  2.6773  1.7378
    6MOL0     H  749   1.136   0.099   1.434  0.3319 -0.3273  0.7671
    6MOL0     H  750   0.987   0.045   1.507 -0.9554  0.3112  0.2421
    6MOL0     H  751   0.857   0.154   1.328 -0.2503 -1.7347  0.8010
    6MOL0     H  752   1.005   0.195   1.248 -1.0671 -0.2390 -0.9169
    6MOL0     H  753   0.915  -0.018   1.139  0.8300 -3.7905 -0.2147
    6MOL0     H  754   1.072  -0.045   1.209 -1.1580 -2.9189 -1.4706
    6MOL0     H  755   0.928  -0.232   1.248 -0.7526  0.1818  0.5431
    6MOL0     H  756   0.971  -0.159   1.401 -1.1838 -1.4656  0.5630
    6MOL0     H  757   0.716  -0.218   1.397 -0.0579 -0.4490 -0.7303
    6MOL0     H  758   0.737  -0.044   1.410 -1.6414  1.1851 -1.3939
    6MOL0     H  759   0.677  -0.175   1.148 -0.0000 -0.8337  2.0269
    6MOL0     H  760   0.713  -0.003   1.169  0.6493 -0.9389 -2.6259
    6MOL0     H  761   0.477  -0.273   1.314 -0.9983  0.0634 -0.4178
    6MOL0     H  762   0.204  -0.223   1.439 -5.3702  3.6879  1.6285
    6MOL0     H  763   0.113  -0.123   1.326 -0.1246 -0.4746  1.7024
    6MOL0     H  764   0.104  -0.373   1.284 -0.6120  0.2964 -1.3956
    6MOL0     H  765   0.265  -0.381   1.260 -0.1220  0.4109  1.6317
    6MOL0     H  766   0.173  -0.355   1.026 -0.5100 -1.7062  1.1421
    6MOL0     H  767   0.247  -0.204   1.071 -1.4352 -0.4468 -2.1400
    6MOL0     H  768   0.027  -0.158   0.968 -0.2580 -0.1403  0.5518
    6MOL0     H  769   0.034  -0.107   1.138  1.3866 -1.3634  0.5839
    6MOL0     H  770  -0.302  -0.418   1.124  0.9945 -0.2519  0.8375
    6MOL0     H  771  -0.527  -0.462   1.150 -0.4798 -0.7941  1.8231
    6MOL0     H  772  -0.580  -0.374   1.295 -1.4822 -0.4052 -0.5029
    6MOL0     H  773  -0.637  -0.327   1.134  0.9468 -1.0800 -2.3224
    6MOL0     H  774  -0.822   0.056   1.354 -0.9867  0.3686 -1.5188
    6MOL0     H  775  -0.981   0.247   1.414 -1.1857  2.5584 -0.7340
    6MOL0     H  776  -1.096   0.433   1.272  0.2017 -1.4279  1.1472
    6MOL0     H  777  -1.115   0.406   1.439 -1.4332 -1.1181 -1.8220
    6MOL0     H  778  -1.136   0.650   1.489 -3.3232  1.1473  0.3572
    6MOL0     H  779  -1.115   0.684   1.318  0.6091 -1.4534 -2.1443
    6MOL0     H  780  -1.331   0.490   1.407  0.2235  0.4073 -0.0466
    6MOL0     H  781  -1.319   0.591   1.258  2.2228  2.1138 -0.8764
    6MOL0     H  782  -1.351   0.709   1.540  0.0445 -0.3827  0.6700
    6MOL0     H  783  -1.348   0.786   1.372 -0.6001 -0.2156 -0.0324
    6MOL0     H  784  -1.549   0.588   1.484 -1.3796  3.9627  3.8877
    6MOL0     H  785  -1.546   0.656   1.311  0.5913  0.3081 -1.4461
    6MOL0     H  786  -1.550   0.823   1.568 -0.0006  0.6699 -1.4630
    6MOL0     H  787  -1.610   0.872   1.414 -3.4617 -1.5537 -1.5357
    6MOL0     H  788  -1.775   0.654   1.544 -3.6680  0.4697 -0.7855
    6MOL0     H  789  -1.801   0.773   1.414  0.4430  1.6452  0.3244
    6MOL0     H  790  -1.796   0.950   1.573 -0.1074  0.8146  0.9412
    6MOL0     H  791  -1.742   0.839   1.697  0.4285 -0.1978 -1.1054
    6MOL0     H  792  -0.687   0.534   1.317  1.5610 -0.9740 -3.8667
    6MOL0     H  793  -0.529   0.342   1.240 -1.0777  0.3139 -2.8498
    6MOL0     H  794  -0.350   0.062   1.221 -1.3999  0.6600 -0.7757
    6MOL0     H  795  -0.142  -0.013   1.179 -0.4391  1.2036 -0.0144
    6MOL0     H  796   1.331   0.164   1.572 -1.9489 -0.6254 -0.3530
    6MOL0     H  797   1.558   0.091   1.680 -0.0531  2.4702 -0.9857
    6MOL0     H  798   1.812  -0.043   1.862  4.1716 -1.9619 -1.7466
    6MOL0     H  799   2.058  -0.036   1.840 -1.8919  4.5276 -2.6242
    6MOL0     H  800   2.266  -0.104   1.899  3.8763 -1.6225  1.0140
    6MOL0     H  801   2.295   0.066   1.865  1.2560  0.8134 -0.2222
    6MOL0     H  802   2.483   0.059   2.047  2.4931 -0.5217 -0.5600
    6MOL0     H  803   2.525  -0.062   1.924 -1.3267  0.4645 -1.7481
    6MOL0     H  804   2.382  -0.221   2.057  1.3915  1.4711 -1.3705
    6MOL0     H  805   2.390  -0.115   2.191 -2.3598 -0.5575 -1.2484
    6MOL0     H  806   2.629  -0.241   2.064  1.5757 -3.2662  1.4492
    6MOL0     H  807   2.573  -0.259   2.228 -1.6283  0.3891  0.3588
    6MOL0     H  808   2.825   0.052   2.282  1.0736 -2.0683  1.1515
    6MOL0     H  809   2.086   0.200   2.196 -1.3141  2.2824  0.5809
    6MOL0     H  810   1.835   0.241   2.178  4.1246  3.3928  1.0443
    7MOL0     O  811   5.895   0.530   4.885  0.3594  0.5374 -0.5129
    7MOL0     C  812   5.869   0.407   4.911 -0.0069  0.1953  0.1257
    7MOL0     O  813   5.760   0.365   4.970  0.2963  0.0920 -0.1834
    7MOL0     C  814   5.684   0.459   5.039  0.9066  0.3010  0.5085
    7MOL0     C  815   5.735   0.580   5.103 -0.0517  0.2809 -0.4490
    7MOL0     C  816   5.652   0.666   5.171  0.2189 -0.7738 -0.8094
    7MOL0     C  817   5.510   0.644   5.176  0.3435 -0.4779  0.3273
    7MOL0     O  818   5.421   0.727   5.230  0.0849 -0.1948  0.2688
    7MOL0     C  819   5.474   0.829   5.311  0.3970  0.3613 -0.3022
    7MOL0     C  820   5.366   0.935   5.348  0.6066 -0.2308 -0.0319
    7MOL0     C  821   5.326   1.018   5.221  0.0499  0.4911 -0.1396
    7MOL0     C  822   5.177   1.029   5.191  0.3872  0.3002  0.4927
    7MOL0     C  823   5.092   1.110   5.292 -0.5049 -0.3373 -0.3379
    7MOL0     C  824   4.964   1.048   5.333 -0.1426 -0.4330  0.3478
    7MOL0     C  825   4.892   1.126   5.440 -0.6258 -0.3825 -0.3132
    7MOL0     C  826   4.846   1.030   5.552  0.1040  0.3501 -0.2646
    7MOL0     N  827   4.961   0.986   5.620  0.4471 -0.6025  0.0085
    7MOL0     C  828   5.027   1.064   5.702 -0.8127 -0.4244  0.2935
    7MOL0     C  829   5.117   0.986   5.775 -0.1795  0.8518  0.7154
    7MOL0     C  830   5.225   1.035   5.880  0.4679  0.0523  0.1306
    7MOL0     C  831   5.358   0.983   5.850 -0.6969  1.1194  0.1245
    7MOL0     C  832   5.440   1.069   5.752  0.7994 -0.3331 -0.4614
    7MOL0     C  833   5.580   1.016   5.735  0.2608 -0.0955 -0.2158
    7MOL0     O  834   5.573   0.874   5.703 -0.0826 -0.7979 -0.3336
    7MOL0     C  835   5.682   0.814   5.653 -0.7116 -0.1965 -0.8015
    7MOL0     C  836   5.652   0.686   5.628  0.5428 -0.0511  0.1453
    7MOL0     C  837   5.751   0.610   5.553  1.2055 -0.0186 -0.4693
    7MOL0     C  838   5.718   0.472   5.501  0.0949 -0.4644 -0.0205
    7MOL0     C  839   5.885   0.662   5.541 -0.3285  0.5526 -0.2971
    7MOL0     C  840   5.987   0.587   5.467  0.3984  0.8014  0.0064
    7MOL0     O  841   5.961   0.551   5.341 -0.0074  0.9251 -0.2540
    7MOL0     C  842   6.050   0.485   5.267 -1.0364  0.6526  0.3227
    7MOL0     C  843   6.171   0.530   5.218 -0.3643  0.1485 -0.3527
    7MOL0     C  844   6.258   0.461   5.134 -0.5921  0.0683 -0.2615
    7MOL0     C  845   6.217   0.328   5.102  0.6016 -0.5071  0.8777
    7MOL0     O  846   6.286   0.269   5.002 -0.2841  0.2018  0.1570
    7MOL0     C  847   6.313   0.131   5.017 -0.4516 -0.3348 -0.7357
    7MOL0     C  848   6.445   0.112   4.938 -0.5628  0.5434 -0.1190
    7MOL0     C  849   6.554   0.199   4.999 -0.0297 -0.0029 -1.0695
    7MOL0     C  850   6.685   0.197   4.918  0.3492  0.2411  0.0712
    7MOL0     C  851   6.711   0.335   4.864  0.1572  0.1810  0.2929
    7MOL0     C  852   6.841   0.346   4.783 -0.5610 -0.1707 -0.3576
    7MOL0     C  853   6.886   0.232   4.688 -0.3323  0.6694 -0.0434
    7MOL0     C  854   6.967   0.126   4.764  0.4419  0.3665  0.8415
    7MOL0    Cl  855   7.074   0.049   4.646  0.0485  0.0046 -0.0271
    7MOL0     C  856   6.102   0.271   5.157 -0.1239 -0.2397 -0.2486
    7MOL0     C  857   6.014   0.355   5.227  0.6780 -0.1121  0.8259
    7MOL0     O  858   6.099   0.591   5.517  1.3665 -0.7464 -0.1518
    7MOL0     C  859   5.910   0.795   5.575 -0.6951  0.6696 -0.5111
    7MOL0     C  860   5.807   0.866   5.631  0.2455  0.0215  0.3408
    7MOL0     N  861   5.106   0.862   5.720  0.2288 -0.1685 -0.7608
    7MOL0     N  862   5.016   0.863   5.623 -0.5145  0.7331 -0.2977
    7MOL0     C  863   5.466   0.526   5.115 -0.7121  0.2787  0.3250
    7MOL0     C  864   5.554   0.429   5.058 -0.7556  0.0227  0.0672
    7MOL0     C  865   5.947   0.304   4.833 -1.1793 -0.0959 -0.3524
    7MOL0     C  866   5.922   0.163   4.840  0.5439  0.2635 -0.7624
    7MOL0     C  867   5.994   0.074   4.767 -0.1765  0.3828  0.6852
    7MOL0     C  868   6.074   0.120   4.672  0.1890 -0.9443  0.6584
    7MOL0     O  869   6.147   0.034   4.597 -0.7467  0.5472  0.6421
    7MOL0     C  870   6.203  -0.083   4.657 -0.0798 -0.6604 -0.4804
    7MOL0     C  871   6.328  -0.104   4.567 -0.0962 -0.1225 -0.8805
    7MOL0     C  872   6.404  -0.235   4.612  0.2800  0.3531  0.1538
    7MOL0     C  873   6.522  -0.211   4.706 -0.6109 -0.1015 -0.0891
    7MOL0     C  874   6.633  -0.155   4.634  0.6234  0.0068 -0.4625
    7MOL0     C  875   6.726  -0.111   4.568  0.8246  0.5499 -0.0396
    7MOL0     C  876   6.102   0.255   4.642 -0.2719 -1.0031  0.6953
    7MOL0     C  877   6.031   0.350   4.724  0.4978  0.0250 -0.6139
    7MOL0     H  878   5.841   0.605   5.096  0.4645 -1.6012  0.0183
    7MOL0     H  879   5.691   0.758   5.211  1.3268 -0.6381 -2.1430
    7MOL0     H  880   5.523   0.783   5.398  1.1383  0.4784 -0.6527
    7MOL0     H  881   5.550   0.887   5.257  3.9606 -1.0209  2.7455
    7MOL0     H  882   5.280   0.883   5.391  0.5804  0.8759  1.3504
    7MOL0     H  883   5.395   1.005   5.427 -2.1495  4.1958 -2.5024
    7MOL0     H  884   5.369   1.117   5.239  2.8422 -0.7542  0.6429
    7MOL0     H  885   5.384   0.972   5.140  1.3292 -0.2900  1.1837
    7MOL0     H  886   5.162   1.081   5.097  0.8779  1.8015  1.2194
    7MOL0     H  887   5.141   0.925   5.190 -1.6938  0.9791  0.4045
    7MOL0     H  888   5.151   1.101   5.384  0.0584 -1.9156 -0.8198
    7MOL0     H  889   5.091   1.213   5.256  1.7986 -0.6725 -1.5311
    7MOL0     H  890   4.893   1.045   5.250  0.5816  2.2748 -0.4702
    7MOL0     H  891   4.982   0.944   5.361  0.0780 -0.4686  0.0771
    7MOL0     H  892   4.961   1.200   5.483 -0.6554  0.9501 -2.4488
    7MOL0     H  893   4.810   1.185   5.399 -0.8901 -0.0497  0.6621
    7MOL0     H  894   4.790   0.947   5.507 -2.1507  0.9356  1.3163
    7MOL0     H  895   4.774   1.064   5.627 -1.1606  1.6499 -1.9868
    7MOL0     H  896   5.001   1.168   5.716 -0.2919 -0.3852  1.0118
    7MOL0     H  897   5.221   1.144   5.881 -3.5361  0.0593  0.9153
    7MOL0     H  898   5.193   0.981   5.969  1.2005 -1.3812 -0.4441
    7MOL0     H  899   5.359   0.882   5.809  1.6199  1.6223 -1.2397
    7MOL0     H  900   5.399   0.968   5.951 -1.8067  1.5302  0.6588
    7MOL0     H  901   5.431   1.173   5.785 -0.9593 -0.6906  0.3196
    7MOL0     H  902   5.384   1.061   5.658 -0.6688  1.4582  0.1942
    7MOL0     H  903   5.640   1.032   5.825  1.4869 -0.3547 -0.9743
    7MOL0     H  904   5.619   1.064   5.645  0.3042 -3.1571 -1.9507
    7MOL0     H  905   5.555   0.638   5.639 -0.3126  1.0361 -2.1501
    7MOL0     H  906   5.666   0.419   5.581  1.8520 -0.8469  0.9299
    7MOL0     H  907   5.666   0.478   5.405 -1.1076 -1.2695  0.5593
    7MOL0     H  908   5.809   0.414   5.484  1.0131  1.5682 -2.6628
    7MOL0     H  909   6.196   0.634   5.238 -3.1955  0.5431  1.9906
    7MOL0     H  910   6.339   0.507   5.077 -0.1517 -0.8517 -0.3837
    7MOL0     H  911   6.328   0.097   5.120  0.0851 -0.6167 -0.9048
    7MOL0     H  912   6.231   0.075   4.972  0.5458 -0.1474 -2.8609
    7MOL0     H  913   6.467   0.006   4.950 -3.3055  0.1265  2.9785
    7MOL0     H  914   6.422   0.130   4.833  0.6986 -3.7378 -1.3012
    7MOL0     H  915   6.569   0.157   5.098 -0.7825  1.5829 -0.2504
    7MOL0     H  916   6.528   0.303   5.023  2.5101 -0.1290  3.3392
    7MOL0     H  917   6.771   0.178   4.982  1.7086  1.3932 -1.3269
    7MOL0     H  918   6.678   0.123   4.837 -1.9359  0.4616 -0.0123
    7MOL0     H  919   6.707   0.411   4.943  1.2265  0.5837 -0.0166
    7MOL0     H  920   6.630   0.357   4.794 -0.3737 -2.3119  0.0280
    7MOL0     H  921   6.825   0.438   4.725  0.9783  0.5629  0.3268
    7MOL0     H  922   6.922   0.376   4.850 -1.2595  4.0131 -1.0615
    7MOL0     H  923   6.948   0.280   4.611 -2.4225  1.5330 -1.2908
    7MOL0     H  924   6.793   0.198   4.641 -0.9291 -0.3977  1.8008
    7MOL0     H  925   6.905   0.058   4.822  3.5067 -0.3148  3.6419
    7MOL0     H  926   7.044   0.174   4.825  2.7196  0.3056 -1.7675
    7MOL0     H  927   6.075   0.169   5.130 -1.9094  0.1744 -0.1678
    7MOL0     H  928   5.928   0.311   5.277  1.9006  0.8177  3.9995
    7MOL0     H  929   6.009   0.838   5.569  0.4574 -1.9750 -2.4448
    7MOL0     H  930   5.838   0.967   5.658 -0.8228  0.6584 -0.7144
    7MOL0     H  931   5.365   0.491   5.133 -1.0138  1.3741  0.8424
    7MOL0     H  932   5.508   0.336   5.026 -2.5845  0.6582  0.7154
    7MOL0     H  933   5.837   0.137   4.901  1.2170  4.4322  2.3611
    7MOL0     H  934   5.979  -0.032   4.778  1.1481  0.0261 -0.5981
    7MOL0     H  935   6.228  -0.062   4.762 -0.6044 -1.0991 -0.2653
    7MOL0     H  936   6.134  -0.168   4.660 -0.6166 -0.3921  4.4450
    7MOL0     H  937   6.402  -0.024   4.567 -0.8282  0.5631  0.5023
    7MOL0     H  938   6.299  -0.101   4.461  0.9025  0.1607 -1.1562
    7MOL0     H  939   6.438  -0.287   4.522  2.5907  0.5006  0.8923
    7MOL0     H  940   6.331  -0.296   4.665 -1.9668  2.3318 -0.4663
    7MOL0     H  941   6.555  -0.308   4.745  1.7339  0.2756 -0.9588
    7MOL0     H  942   6.499  -0.145   4.790  0.3940  1.2596 -0.8396
    7MOL0     H  943   6.802  -0.071   4.503 -0.3452 -1.8409 -3.1942
    7MOL0     H  944   6.176   0.281   4.567 -0.8248  0.4217  0.6107
    7MOL0     H  945   6.049   0.455   4.701 -0.7815  0.2159 -0.8042
    8MOL0     O  946   8.214  11.295   8.158  0.7030  0.1816  0.1862
    8MOL0     C  947   8.242  11.179   8.121  0.3188 -0.5635  0.4419
    8MOL0     O  948   8.173  11.112   8.024 -0.7858 -0.5732 -1.0785
    8MOL0     C  949   8.058  11.164   7.970  0.0529  0.4373 -0.0183
    8MOL0     C  950   8.027  11.297   7.959  0.1504 -0.5110 -0.4279
    8MOL0     C  951   7.897  11.323   7.896 -0.5726 -0.8201  0.2466
    8MOL0     C  952   7.812  11.221   7.868  0.3151  0.5219 -0.9636
    8MOL0     O  953   7.688  11.242   7.811  0.5551  0.2303  0.5087
    8MOL0     C  954   7.665  11.358   7.717  0.0093 -0.1991  0.6180
    8MOL0     C  955   7.512  11.371   7.669 -0.3365  0.1961  0.0648
    8MOL0     C  956   7.407  11.337   7.778 -0.3783  0.0215  0.2739
    8MOL0     C  957   7.257  11.361   7.739 -0.1456  0.1588 -0.0301
    8MOL0     C  958   7.178  11.405   7.862 -0.3283  0.6129  0.4930
    8MOL0     C  959   7.051  11.473   7.811  0.2373 -0.5621 -0.1255
    8MOL0     C  960   6.982  11.539   7.929 -1.0244 -0.2195  0.2557
    8MOL0     C  961   6.852  11.608   7.890 -0.3045 -0.0162 -0.2246
    8MOL0     N  962   6.782  11.661   8.004  0.0259  0.6059 -0.8014
    8MOL0     C  963   6.728  11.785   8.015 -0.1114 -0.0402  0.7187
    8MOL0     C  964   6.653  11.783   8.129 -0.4414 -0.2556 -0.3696
    8MOL0     C  965   6.565  11.885   8.196  0.3799 -0.4599  0.0526
    8MOL0     C  966   6.636  11.952   8.308 -0.6831 -0.4239  0.5672
    8MOL0     C  967   6.663  11.857   8.424  0.6617  0.4267 -0.2166
    8MOL0     C  968   6.533  11.817   8.501  1.0157 -0.1593  0.8511
    8MOL0     O  969   6.561  11.710   8.589  0.1188  0.1664 -0.1778
    8MOL0     C  970   6.464  11.679   8.678  0.8247  0.0988 -0.7164
    8MOL0     C  971   6.477  11.554   8.742  0.4476 -0.2079 -0.2724
    8MOL0     C  972   6.386  11.508   8.835  0.4329  0.6544 -0.2841
    8MOL0     C  973   6.413  11.373   8.904  0.0026  1.1640  0.6580
    8MOL0     C  974   6.271  11.584   8.876  0.7469  0.0309  0.6358
    8MOL0     C  975   6.171  11.546   8.978  0.0963  0.5980  0.0467
    8MOL0     O  976   6.147  11.414   9.004  0.4960  0.0593  0.2183
    8MOL0     C  977   6.047  11.399   9.099  0.2455 -0.3377 -0.0169
    8MOL0     C  978   5.909  11.411   9.063  0.2715 -1.2593 -0.0690
    8MOL0     C  979   5.810  11.363   9.158  0.6393 -0.3364  0.5752
    8MOL0     C  980   5.848  11.335   9.285  0.2408 -0.5954 -0.4288
    8MOL0     O  981   5.760  11.315   9.391 -0.3396 -0.6090  0.7410
    8MOL0     C  982   5.621  11.353   9.390  0.6001 -0.7066 -0.0968
    8MOL0     C  983   5.542  11.293   9.515 -0.5805  0.6716  0.1615
    8MOL0     C  984   5.593  11.347   9.647  0.2597 -0.0598  0.0082
    8MOL0     C  985   5.477  11.330   9.754  0.3011  0.6375 -0.0910
    8MOL0     C  986   5.505  11.397   9.891  0.2286 -0.2108  0.0149
    8MOL0     C  987   5.472  11.546   9.873 -0.1540  0.6481 -0.6718
    8MOL0     C  988   5.489  11.629  10.004  0.6637  0.3679 -0.4509
    8MOL0     C  989   5.438  11.780   9.997 -0.4950 -0.1970 -0.3407
    8MOL0    Cl  990   5.498  11.870  10.137  0.0171  0.2403 -0.5088
    8MOL0     C  991   5.982  11.336   9.318 -0.0343  0.1508 -0.3737
    8MOL0     C  992   6.083  11.360   9.229  0.8910  0.5394  0.0071
    8MOL0     O  993   6.108  11.645   9.035 -0.2265  0.1136 -0.2892
    8MOL0     C  994   6.254  11.701   8.806 -0.3248  0.7099  0.6234
    8MOL0     C  995   6.342  11.750   8.705 -0.4444  0.5398  0.5279
    8MOL0     N  996   6.649  11.653   8.168 -0.3968  0.0184  0.2126
    8MOL0     N  997   6.728  11.579   8.100 -0.4642  0.2715  0.2518
    8MOL0     C  998   7.843  11.091   7.897  0.7249 -0.6176  0.5003
    8MOL0     C  999   7.969  11.067   7.928 -1.0276  0.2050 -0.8923
    8MOL0     C 1000   8.362  11.115   8.187 -0.5563 -0.0403  1.7855
    8MOL0     C 1001   8.396  10.978   8.157 -0.0079 -0.6172  0.6431
    8MOL0     C 1002   8.513  10.931   8.224  0.6376  0.4227 -0.6365
    8MOL0     C 1003   8.588  11.000   8.313  1.1870  0.3946 -0.6942
    8MOL0     O 1004   8.683  10.925   8.375  0.1846  0.0988  0.0272
    8MOL0     C 1005   8.783  10.980   8.451 -0.3745  0.0837 -0.3382
    8MOL0     C 1006   8.746  10.946   8.598 -0.3057 -0.9925 -0.3776
    8MOL0     C 1007   8.846  10.991   8.702  0.3530  0.4898 -1.1801
    8MOL0     C 1008   8.873  11.140   8.718 -0.0549 -0.0472 -1.2315
    8MOL0     C 1009   8.758  11.201   8.781  0.5315 -1.0471 -0.0373
    8MOL0     C 1010   8.650  11.232   8.823  0.3190  0.3315 -0.6667
    8MOL0     C 1011   8.554  11.128   8.346  0.4375 -0.4641  0.6581
    8MOL0     C 1012   8.440  11.187   8.284  0.6651  0.1793  0.0732
    8MOL0     H 1013   8.079  11.388   7.985 -0.9017  0.1944 -0.7452
    8MOL0     H 1014   7.859  11.422   7.872  0.8025  0.0987  1.6424
    8MOL0     H 1015   7.696  11.453   7.761  2.6348 -0.0697 -1.2861
    8MOL0     H 1016   7.732  11.342   7.632  0.3098  1.2381  0.5615
    8MOL0     H 1017   7.499  11.472   7.629  0.1127 -0.3264 -1.4717
    8MOL0     H 1018   7.504  11.308   7.580 -2.2037  0.1380  0.2250
    8MOL0     H 1019   7.414  11.232   7.808  1.0177 -0.1637 -0.6386
    8MOL0     H 1020   7.446  11.392   7.865  2.9486  4.1630 -3.3939
    8MOL0     H 1021   7.249  11.434   7.658 -1.4911  1.4706  1.2219
    8MOL0     H 1022   7.211  11.271   7.698  1.0071 -0.3709 -0.2133
    8MOL0     H 1023   7.140  11.317   7.915 -0.4416  2.1437  3.1090
    8MOL0     H 1024   7.232  11.465   7.936  2.7599 -0.6739 -0.5279
    8MOL0     H 1025   7.071  11.544   7.730 -2.0368 -1.1193 -1.2659
    8MOL0     H 1026   6.975  11.401   7.779 -2.9137  1.9336  1.1571
    8MOL0     H 1027   6.965  11.457   7.999 -2.0771  2.1405  2.9382
    8MOL0     H 1028   7.047  11.614   7.975  0.8551 -0.5763 -1.6585
    8MOL0     H 1029   6.785  11.536   7.843 -0.5595  0.0446  0.0402
    8MOL0     H 1030   6.875  11.692   7.825 -1.4294  0.8963  0.5177
    8MOL0     H 1031   6.734  11.876   7.956 -2.1016  0.8434  1.7686
    8MOL0     H 1032   6.532  11.962   8.125 -0.2438  1.3268  2.1602
    8MOL0     H 1033   6.471  11.839   8.226  0.5508 -1.4393 -0.8563
    8MOL0     H 1034   6.577  12.041   8.328 -0.1270 -0.0736  0.6860
    8MOL0     H 1035   6.731  11.985   8.266  1.1164 -1.8564  3.1958
    8MOL0     H 1036   6.713  11.906   8.508  0.6424 -1.1074  0.7325
    8MOL0     H 1037   6.712  11.766   8.387  1.3220  1.0131 -0.8071
    8MOL0     H 1038   6.452  11.793   8.431  1.5598  1.3937 -0.3732
    8MOL0     H 1039   6.503  11.900   8.565 -1.0325  0.6513 -1.0244
    8MOL0     H 1040   6.562  11.488   8.723  0.2730 -0.7045  0.6561
    8MOL0     H 1041   6.332  11.303   8.887  1.2792  0.0359 -1.2160
    8MOL0     H 1042   6.512  11.330   8.886 -0.3230 -0.1063  1.8008
    8MOL0     H 1043   6.411  11.386   9.012  1.4673 -1.9111  1.1576
    8MOL0     H 1044   5.882  11.437   8.961  1.4185  0.4704  0.0376
    8MOL0     H 1045   5.704  11.374   9.134  1.2217  3.5092 -1.0542
    8MOL0     H 1046   5.617  11.462   9.384  0.7348 -0.6009  1.3824
    8MOL0     H 1047   5.580  11.304   9.301  0.5570  0.7258 -0.8999
    8MOL0     H 1048   5.440  11.331   9.503 -0.2731  0.7622 -2.9480
    8MOL0     H 1049   5.541  11.184   9.519  2.7293  0.5543  3.0197
    8MOL0     H 1050   5.617  11.453   9.641 -1.3257  0.2665 -4.1951
    8MOL0     H 1051   5.685  11.294   9.673  0.7521  1.4553  1.4550
    8MOL0     H 1052   5.382  11.367   9.714  0.3451  0.9401  0.0863
    8MOL0     H 1053   5.464  11.224   9.780 -0.3780  0.8021  0.2848
    8MOL0     H 1054   5.611  11.371   9.903  0.1653 -0.8340 -0.7033
    8MOL0     H 1055   5.440  11.359   9.970 -0.6724 -1.2117 -1.1734
    8MOL0     H 1056   5.528  11.599   9.795  1.1341 -0.1689 -0.3521
    8MOL0     H 1057   5.366  11.555   9.850 -0.2048  2.1682  0.0625
    8MOL0     H 1058   5.596  11.624  10.024  0.2636 -1.3605  1.7512
    8MOL0     H 1059   5.441  11.575  10.087 -1.0593  0.9795 -0.9870
    8MOL0     H 1060   5.329  11.781   9.988 -0.5005  3.0524 -1.3551
    8MOL0     H 1061   5.474  11.824   9.904 -0.9460 -0.2116 -0.5205
    8MOL0     H 1062   6.016  11.316   9.419  2.1448 -1.5422 -1.3337
    8MOL0     H 1063   6.185  11.362   9.266 -0.5976  0.1358  4.7372
    8MOL0     H 1064   6.162  11.758   8.815 -1.0493  0.1471 -2.1686
    8MOL0     H 1065   6.314  11.849   8.671 -1.6478  0.5241  1.4102
    8MOL0     H 1066   7.769  11.012   7.887  1.4917 -1.2271 -0.4538
    8MOL0     H 1067   8.000  10.963   7.930 -1.5453  0.0517 -0.6732
    8MOL0     H 1068   8.339  10.927   8.080  1.4938 -1.9899  0.3668
    8MOL0     H 1069   8.542  10.829   8.200  0.2949  0.0248  0.5827
    8MOL0     H 1070   8.881  10.936   8.435 -1.2301 -2.4598  0.9637
    8MOL0     H 1071   8.804  11.086   8.430 -0.5458 -0.1439 -1.7226
    8MOL0     H 1072   8.750  10.837   8.605 -2.9642 -1.0217  2.6418
    8MOL0     H 1073   8.647  10.987   8.620 -0.9083 -1.7156 -1.6314
    8MOL0     H 1074   8.938  10.933   8.697  0.3255  0.0302  1.6494
    8MOL0     H 1075   8.809  10.958   8.800  1.3704  0.9334 -0.6323
    8MOL0     H 1076   8.887  11.187   8.620  1.8649 -0.4062 -1.1770
    8MOL0     H 1077   8.963  11.153   8.779 -0.1464 -0.1829 -1.0663
    8MOL0     H 1078   8.548  11.248   8.854 -0.7327 -2.8931 -2.0950
    8MOL0     H 1079   8.602  11.192   8.420 -0.6853  2.8315 -1.2594
    8MOL0     H 1080   8.408  11.283   8.324 -1.3147 -0.1014 -0.7081
    9MOL0     O 1081   0.300   3.939   5.885 -0.5523  0.9269  0.6912
    9MOL0     C 1082   0.334   3.943   5.999 -0.5977 -0.6309 -0.2721
    9MOL0     O 1083   0.265   4.014   6.096  1.0117 -0.1122  0.5000
    9MOL0     C 1084   0.141   4.069   6.059 -0.0245  0.3372 -0.1593
    9MOL0     C 1085   0.147   4.201   6.023  0.1870 -0.1178  0.1790
    9MOL0     C 1086   0.035   4.270   5.987  0.6783 -0.1208  0.6427
    9MOL0     C 1087  -0.091   4.202   5.978 -0.0110 -0.0167 -0.0502
    9MOL0     O 1088  -0.205   4.261   5.930  0.3861  0.5319 -0.2871
    9MOL0     C 1089  -0.231   4.376   6.005  0.2263  0.1963 -0.6346
    9MOL0     C 1090  -0.377   4.434   5.985 -0.2629 -0.6438 -0.2354
    9MOL0     C 1091  -0.377   4.586   5.982 -0.0566 -0.5688  0.1420
    9MOL0     C 1092  -0.524   4.630   5.985 -0.0450 -0.0657 -0.3444
    9MOL0     C 1093  -0.553   4.675   6.131 -0.3922 -0.4032 -0.7142
    9MOL0     C 1094  -0.691   4.736   6.137  0.1835  0.0266 -0.7234
    9MOL0     C 1095  -0.728   4.790   6.281  0.3017  0.1464 -0.4705
    9MOL0     C 1096  -0.668   4.924   6.297  0.0078 -0.6439 -0.1895
    9MOL0     N 1097  -0.693   4.963   6.441 -0.4087 -0.3628 -0.9920
    9MOL0     C 1098  -0.804   5.029   6.487 -0.4185  0.6395  0.5135
    9MOL0     C 1099  -0.795   5.007   6.623 -0.6654 -0.1215 -0.5402
    9MOL0     C 1100  -0.899   5.050   6.715 -0.1224  0.2862 -0.2710
    9MOL0     C 1101  -0.962   5.190   6.680  0.0515  0.0621 -0.2769
    9MOL0     C 1102  -1.083   5.181   6.582 -0.0734  0.2872 -0.5349
    9MOL0     C 1103  -1.125   5.319   6.545 -0.4518  0.0177  0.5638
    9MOL0     O 1104  -1.198   5.379   6.657 -0.3301  0.4021  0.4474
    9MOL0     C 1105  -1.328   5.412   6.636 -0.4756  0.2818 -0.3802
    9MOL0     C 1106  -1.374   5.542   6.668  0.0093  0.1176  0.4813
    9MOL0     C 1107  -1.505   5.580   6.645 -0.5385 -1.0162  0.9009
    9MOL0     C 1108  -1.552   5.721   6.688  0.3741  0.1895  0.5634
    9MOL0     C 1109  -1.593   5.491   6.571 -0.1965 -0.1642 -0.8350
    9MOL0     C 1110  -1.735   5.519   6.530  0.4468 -0.0516 -0.2013
    9MOL0     O 1111  -1.827   5.422   6.496  0.8246 -0.0735 -0.0306
    9MOL0     C 1112  -1.955   5.449   6.454  0.2297 -0.4894  0.1972
    9MOL0     C 1113  -2.056   5.380   6.523  0.6661  0.3275  0.0463
    9MOL0     C 1114  -2.192   5.412   6.508 -0.0318  0.3751  1.3963
    9MOL0     C 1115  -2.220   5.499   6.408  0.6961 -0.2948 -0.0963
    9MOL0     O 1116  -2.345   5.548   6.367 -0.0908 -0.5398  0.0770
    9MOL0     C 1117  -2.458   5.504   6.441 -0.0725 -0.2514 -0.5658
    9MOL0     C 1118  -2.565   5.601   6.393 -0.9967 -0.5988  0.2411
    9MOL0     C 1119  -2.692   5.591   6.482 -0.3787 -0.8274  0.5163
    9MOL0     C 1120  -2.818   5.655   6.422 -0.3554 -0.9457 -0.0801
    9MOL0     C 1121  -2.948   5.627   6.502 -0.4694 -0.5034  0.1919
    9MOL0     C 1122  -3.076   5.675   6.434 -0.3404  0.6877  0.5357
    9MOL0     C 1123  -3.194   5.612   6.512  0.1822 -0.0662 -0.2655
    9MOL0     C 1124  -3.324   5.682   6.481  0.6072  0.4298  0.3075
    9MOL0    Cl 1125  -3.347   5.697   6.305  0.0473 -0.0694 -0.1652
    9MOL0     C 1126  -2.121   5.563   6.335  1.0386 -0.1759 -0.0040
    9MOL0     C 1127  -1.988   5.535   6.348  0.2895 -0.4898 -1.0234
    9MOL0     O 1128  -1.766   5.643   6.534 -0.3469  0.0417 -0.2879
    9MOL0     C 1129  -1.545   5.362   6.536  0.5928 -1.2695  0.3105
    9MOL0     C 1130  -1.422   5.322   6.584 -0.6649  0.3260 -0.3810
    9MOL0     N 1131  -0.673   4.938   6.651  0.5085 -0.7249 -0.2178
    9MOL0     N 1132  -0.621   4.904   6.544  0.7801 -0.1377 -0.3332
    9MOL0     C 1133  -0.092   4.067   6.006  0.3333  0.2322 -1.0088
    9MOL0     C 1134   0.019   4.008   6.061 -0.0901  0.3154 -0.2395
    9MOL0     C 1135   0.476   3.909   6.025  0.4591  0.8727 -0.5770
    9MOL0     C 1136   0.546   3.826   5.944 -0.0788  0.1958  0.2485
    9MOL0     C 1137   0.678   3.786   5.977  0.4398 -0.2726  0.3382
    9MOL0     C 1138   0.737   3.844   6.095 -0.8584 -0.4928  0.2796
    9MOL0     O 1139   0.874   3.831   6.091 -0.2288 -0.6279 -0.3827
    9MOL0     C 1140   0.950   3.908   6.184  0.1690 -0.7055 -0.3146
    9MOL0     C 1141   1.087   3.850   6.202 -0.1263 -0.5498  0.6984
    9MOL0     C 1142   1.165   3.948   6.292  0.0630  0.2470 -0.2040
    9MOL0     C 1143   1.313   3.915   6.302  0.0109  0.8416 -0.8621
    9MOL0     C 1144   1.374   3.882   6.171  0.0297  0.0115 -0.4351
    9MOL0     C 1145   1.414   3.841   6.063  0.6147 -0.6098 -0.4320
    9MOL0     C 1146   0.677   3.948   6.162  0.8404  0.0498 -0.0734
    9MOL0     C 1147   0.543   3.972   6.134  1.1087  0.5678 -0.1913
    9MOL0     H 1148   0.246   4.245   6.032  0.1390 -0.0116  0.1921
    9MOL0     H 1149   0.040   4.374   5.960 -1.4862 -0.0823  0.1492
    9MOL0     H 1150  -0.210   4.369   6.112  2.7404  1.8184 -0.9314
    9MOL0     H 1151  -0.166   4.447   5.952 -0.8094 -0.8755 -3.5538
    9MOL0     H 1152  -0.432   4.395   5.899 -0.7343 -0.9083  0.1785
    9MOL0     H 1153  -0.430   4.402   6.075  1.9105  1.1994  1.8449
    9MOL0     H 1154  -0.319   4.627   6.065 -0.6759  0.1960  0.2106
    9MOL0     H 1155  -0.331   4.611   5.886 -1.2387  0.6550 -0.1450
    9MOL0     H 1156  -0.530   4.724   5.930 -0.0108 -0.0623 -0.3421
    9MOL0     H 1157  -0.599   4.568   5.935 -2.0340  2.0278 -0.1094
    9MOL0     H 1158  -0.548   4.589   6.198 -0.0784  0.3487  0.2453
    9MOL0     H 1159  -0.482   4.754   6.158 -1.4294  0.3576 -0.1734
    9MOL0     H 1160  -0.717   4.805   6.056 -1.3675 -0.6273 -0.8181
    9MOL0     H 1161  -0.763   4.654   6.129 -2.6154  1.8709  2.4516
    9MOL0     H 1162  -0.837   4.791   6.283  0.3071  0.1764  0.7771
    9MOL0     H 1163  -0.701   4.726   6.366  1.1619 -0.0677 -0.8949
    9MOL0     H 1164  -0.698   4.999   6.222  1.9564  2.0807  1.5637
    9MOL0     H 1165  -0.560   4.912   6.285 -0.0619  0.0362 -1.8050
    9MOL0     H 1166  -0.884   5.080   6.433 -0.0318  0.5126 -0.1825
    9MOL0     H 1167  -0.977   4.975   6.728  1.4259 -1.2199  0.7632
    9MOL0     H 1168  -0.860   5.066   6.816 -1.9453 -0.5725  0.6214
    9MOL0     H 1169  -0.879   5.249   6.640  1.8462 -2.0299  0.1776
    9MOL0     H 1170  -1.002   5.247   6.764  0.5745 -2.1251  1.5418
    9MOL0     H 1171  -1.167   5.129   6.630  1.8369  0.8908  3.9557
    9MOL0     H 1172  -1.059   5.124   6.493  2.7222 -1.5356  1.2305
    9MOL0     H 1173  -1.197   5.314   6.463  0.1249 -0.8384  0.0999
    9MOL0     H 1174  -1.043   5.388   6.524 -1.8425  1.1828 -1.3406
    9MOL0     H 1175  -1.309   5.625   6.696 -0.8231  1.5012 -1.5295
    9MOL0     H 1176  -1.561   5.789   6.603  3.1057 -2.1764 -1.8138
    9MOL0     H 1177  -1.640   5.697   6.750  1.7040 -2.5694  1.5462
    9MOL0     H 1178  -1.481   5.769   6.755 -1.2841  2.4407  0.8221
    9MOL0     H 1179  -2.033   5.310   6.604 -3.9583 -1.8886 -0.2214
    9MOL0     H 1180  -2.271   5.377   6.574 -2.3764  1.5071 -0.6427
    9MOL0     H 1181  -2.495   5.407   6.407 -0.5905  0.2436 -1.4612
    9MOL0     H 1182  -2.433   5.509   6.547  2.2062  0.9073 -1.0942
    9MOL0     H 1183  -2.523   5.702   6.392  2.0290 -1.6747 -2.5229
    9MOL0     H 1184  -2.581   5.606   6.285  0.2902 -2.5753 -0.1040
    9MOL0     H 1185  -2.672   5.659   6.565  1.8314 -0.6434 -0.0886
    9MOL0     H 1186  -2.713   5.487   6.511 -4.3836 -0.0789  0.8011
    9MOL0     H 1187  -2.821   5.764   6.415 -2.7888 -0.7586  2.4062
    9MOL0     H 1188  -2.827   5.612   6.322 -0.6030 -0.2623 -0.3517
    9MOL0     H 1189  -2.942   5.660   6.606  1.2547  2.4999 -0.7466
    9MOL0     H 1190  -2.957   5.519   6.517  0.0757 -0.7857 -1.3164
    9MOL0     H 1191  -3.080   5.784   6.435 -0.6804  0.7081 -0.7603
    9MOL0     H 1192  -3.082   5.648   6.328  0.0720  0.0341  0.6701
    9MOL0     H 1193  -3.177   5.626   6.620 -0.0529  0.3188 -0.2756
    9MOL0     H 1194  -3.207   5.505   6.493  0.1196 -0.7015  2.8005
    9MOL0     H 1195  -3.325   5.784   6.520 -0.3389  0.4807  0.1674
    9MOL0     H 1196  -3.405   5.626   6.530  0.7928 -1.0327 -1.0031
    9MOL0     H 1197  -2.153   5.637   6.262 -1.0231  0.6045  1.5970
    9MOL0     H 1198  -1.916   5.584   6.283  1.0681  0.1636  0.2792
    9MOL0     H 1199  -1.599   5.289   6.476 -0.5606 -0.6819  0.6207
    9MOL0     H 1200  -1.380   5.223   6.568 -0.8358  0.2542 -0.3933
    9MOL0     H 1201  -0.181   4.006   6.007  2.4031 -3.0561 -1.0199
    9MOL0     H 1202   0.033   3.909   6.104  1.1392  1.1982  1.4811
    9MOL0     H 1203   0.509   3.769   5.860  1.8218 -0.4507 -0.2099
    9MOL0     H 1204   0.723   3.711   5.913  1.7182  0.7843 -0.0624
    9MOL0     H 1205   0.974   4.009   6.151 -0.4306 -0.3158  0.4273
    9MOL0     H 1206   0.903   3.907   6.282 -2.4660  1.0029 -1.4446
    9MOL0     H 1207   1.127   3.837   6.101 -0.3537  1.5775  0.2828
    9MOL0     H 1208   1.084   3.750   6.246 -0.9237 -1.1263 -0.6071
    9MOL0     H 1209   1.120   3.955   6.392  3.5527  1.9742  1.4237
    9MOL0     H 1210   1.155   4.044   6.239 -4.9418  1.5882  2.4674
    9MOL0     H 1211   1.321   3.826   6.366 -2.3484  0.1019 -1.4936
    9MOL0     H 1212   1.361   3.997   6.357 -2.8580  1.4552  0.9144
    9MOL0     H 1213   1.426   3.796   5.967  5.5885  0.9594 -0.8506
    9MOL0     H 1214   0.735   4.006   6.233 -0.5401  1.0269  0.3021
    9MOL0     H 1215   0.497   4.047   6.198  3.3869  1.4465  0.4938
   10MOL0     O 1216   6.127   0.799   1.819  0.0085  0.0815  0.7739
   10MOL0     C 1217   6.211   0.810   1.907  0.0976 -0.2466 -0.4872
   10MOL0     O 1218   6.190   0.788   2.041 -0.4319 -1.0875 -0.6702
   10MOL0     C 1219   6.072   0.731   2.082 -0.3504  0.7102 -0.3438
   10MOL0     C 1220   5.992   0.791   2.180 -0.4699 -0.6494  0.2976
   10MOL0     C 1221   5.866   0.736   2.211  0.4008 -0.0892  0.3144
   10MOL0     C 1222   5.818   0.631   2.138  0.7772  0.2742  0.0395
   10MOL0     O 1223   5.698   0.577   2.186 -0.2794  0.6218  0.7843
   10MOL0     C 1224   5.643   0.476   2.096  1.0157  1.0752 -0.2531
   10MOL0     C 1225   5.506   0.444   2.156 -0.2712  0.0852  0.0547
   10MOL0     C 1226   5.413   0.378   2.056 -0.0472  0.2337 -0.0519
   10MOL0     C 1227   5.299   0.290   2.100  0.9913  0.6867  0.2310
   10MOL0     C 1228   5.154   0.339   2.088 -0.2118 -0.1035  1.0832
   10MOL0     C 1229   5.134   0.454   2.178  0.6704 -0.1257 -0.3629
   10MOL0     C 1230   4.982   0.484   2.201 -1.1142 -0.6109 -0.9051
   10MOL0     C 1231   4.914   0.534   2.081 -0.7663  0.0022 -0.1276
   10MOL0     N 1232   4.782   0.596   2.093  0.0182  0.4273  0.3624
   10MOL0     C 1233   4.748   0.721   2.152 -0.4596  0.4917 -0.3517
   10MOL0     C 1234   4.621   0.737   2.131  0.2760 -0.3544  1.6002
   10MOL0     C 1235   4.520   0.836   2.190 -0.7836  0.4953  0.5277
   10MOL0     C 1236   4.384   0.843   2.119 -0.6462  0.8348 -0.2513
   10MOL0     C 1237   4.320   0.969   2.181  0.2975  0.6190  0.5542
   10MOL0     C 1238   4.166   0.962   2.161  0.7233 -0.0411 -0.0290
   10MOL0     O 1239   4.127   0.936   2.022 -0.0250 -0.2233  0.3728
   10MOL0     C 1240   3.993   0.960   2.003  0.1118 -0.4730 -0.4413
   10MOL0     C 1241   3.949   1.098   2.002 -0.9696  0.4572 -0.2571
   10MOL0     C 1242   3.816   1.129   1.976  0.5143  0.0177  0.4320
   10MOL0     C 1243   3.797   1.275   1.936 -0.3232  0.5888 -0.0138
   10MOL0     C 1244   3.711   1.032   1.979 -0.8886  0.2620  0.5119
   10MOL0     C 1245   3.571   1.059   1.962  0.2071 -0.5377  0.4750
   10MOL0     O 1246   3.532   1.194   1.961 -0.0407  0.0069  0.5556
   10MOL0     C 1247   3.410   1.231   1.905 -0.7194 -0.3076  0.1999
   10MOL0     C 1248   3.400   1.328   1.807  0.4403  0.2065 -0.7552
   10MOL0     C 1249   3.278   1.383   1.771 -0.2955 -0.4415  0.4354
   10MOL0     C 1250   3.155   1.346   1.830 -0.8030 -0.3489  0.0891
   10MOL0     O 1251   3.030   1.399   1.820 -0.1580 -0.4674  0.0807
   10MOL0     C 1252   3.013   1.500   1.716  0.1342  0.4027 -0.3049
   10MOL0     C 1253   2.864   1.548   1.688 -0.1379  0.0724  0.4433
   10MOL0     C 1254   2.775   1.422   1.678  0.0280  1.0640 -0.1074
   10MOL0     C 1255   2.641   1.467   1.617  0.2380  0.5515 -0.7057
   10MOL0     C 1256   2.535   1.351   1.628  0.0291 -0.1293  1.1499
   10MOL0     C 1257   2.408   1.395   1.554 -0.6700  0.2328 -0.2919
   10MOL0     C 1258   2.302   1.277   1.547 -0.1245 -0.6018  0.2516
   10MOL0     C 1259   2.172   1.330   1.502  0.0860 -0.4096  0.1418
   10MOL0    Cl 1260   2.053   1.204   1.488  0.2315  0.1039 -0.5008
   10MOL0     C 1261   3.165   1.253   1.934 -0.0806 -0.0499 -0.3979
   10MOL0     C 1262   3.289   1.197   1.973 -0.3886 -0.0780  0.0011
   10MOL0     O 1263   3.494   0.967   1.945 -0.0963  1.1904 -0.4568
   10MOL0     C 1264   3.755   0.895   1.995  0.1120  0.2443 -0.6428
   10MOL0     C 1265   3.894   0.862   1.991 -0.0693 -0.6305 -0.2030
   10MOL0     N 1266   4.572   0.616   2.074 -0.9251 -0.7604 -0.2996
   10MOL0     N 1267   4.670   0.539   2.039  0.4888 -0.2402 -0.3574
   10MOL0     C 1268   5.893   0.571   2.034  0.5214  0.4874 -0.0738
   10MOL0     C 1269   6.025   0.615   2.017  0.2983  0.4180 -0.2568
   10MOL0     C 1270   6.343   0.847   1.870 -0.3807 -0.2040  0.6955
   10MOL0     C 1271   6.370   0.930   1.755 -0.5794 -0.8185 -0.5668
   10MOL0     C 1272   6.493   0.952   1.713 -0.5960 -0.8561 -0.6642
   10MOL0     C 1273   6.601   0.895   1.787  0.6519  0.6111 -0.2568
   10MOL0     O 1274   6.734   0.920   1.745 -0.6272 -0.0296 -0.6788
   10MOL0     C 1275   6.848   0.846   1.795 -1.0493  0.7327 -0.5330
   10MOL0     C 1276   6.904   0.793   1.667 -0.5741 -0.6971  0.1515
   10MOL0     C 1277   7.031   0.717   1.693 -1.3327 -0.5749  0.0113
   10MOL0     C 1278   7.105   0.656   1.569  0.2306  0.4371 -0.2650
   10MOL0     C 1279   7.098   0.741   1.455  0.3177 -0.0081 -0.2622
   10MOL0     C 1280   7.089   0.809   1.358  0.0174 -0.4547 -0.5163
   10MOL0     C 1281   6.578   0.828   1.907  0.0494 -0.1064 -0.3902
   10MOL0     C 1282   6.446   0.798   1.953 -0.3148  0.3127  0.1067
   10MOL0     H 1283   6.029   0.886   2.217  0.1832 -0.9605  0.4545
   10MOL0     H 1284   5.822   0.773   2.303  1.4708  1.1910  0.3434
   10MOL0     H 1285   5.646   0.515   1.994  1.4063 -0.0816 -0.6966
   10MOL0     H 1286   5.704   0.385   2.105  3.3574  2.6965  1.4661
   10MOL0     H 1287   5.519   0.383   2.245  1.4032  1.3063  0.7029
   10MOL0     H 1288   5.451   0.531   2.192 -2.1560 -1.0045 -0.0666
   10MOL0     H 1289   5.380   0.462   1.994  2.1869 -1.2949 -3.5990
   10MOL0     H 1290   5.472   0.316   1.989 -3.9683 -2.0309 -1.7466
   10MOL0     H 1291   5.311   0.196   2.046  1.4880  0.5768  0.5237
   10MOL0     H 1292   5.310   0.261   2.205  3.9268 -2.0246 -0.7069
   10MOL0     H 1293   5.147   0.379   1.987 -3.4764  1.9414  1.9810
   10MOL0     H 1294   5.077   0.264   2.107  0.2141 -0.4580  1.4601
   10MOL0     H 1295   5.192   0.444   2.270  0.1472 -1.1191 -0.1194
   10MOL0     H 1296   5.169   0.547   2.132 -1.6472  0.5869 -0.8067
   10MOL0     H 1297   4.929   0.395   2.237 -0.2730 -0.4088  0.9277
   10MOL0     H 1298   4.972   0.557   2.282  3.0059  1.2998 -1.8658
   10MOL0     H 1299   4.906   0.451   2.010 -2.8024  0.7418 -0.8133
   10MOL0     H 1300   4.982   0.605   2.033 -0.5969 -0.3529 -0.4184
   10MOL0     H 1301   4.803   0.806   2.191 -0.8036  0.5062  0.1003
   10MOL0     H 1302   4.505   0.809   2.295 -2.5960 -1.1282 -0.0924
   10MOL0     H 1303   4.569   0.934   2.192  1.4897 -0.2514 -4.1985
   10MOL0     H 1304   4.333   0.747   2.131  0.1474  0.4154 -0.2238
   10MOL0     H 1305   4.395   0.852   2.011 -3.4373  0.2558 -0.6611
   10MOL0     H 1306   4.349   1.062   2.132 -2.6704  0.8394 -1.0352
   10MOL0     H 1307   4.355   0.985   2.283  1.9634  3.3595 -0.3524
   10MOL0     H 1308   4.129   1.058   2.200 -1.5872 -1.1068  0.5597
   10MOL0     H 1309   4.120   0.878   2.215 -1.8593 -0.9591 -3.3483
   10MOL0     H 1310   4.026   1.172   2.016 -1.5930  0.7641  2.0804
   10MOL0     H 1311   3.771   1.334   2.024  0.1694 -1.5204  1.6426
   10MOL0     H 1312   3.884   1.321   1.889 -2.3806  3.0608 -1.6807
   10MOL0     H 1313   3.720   1.297   1.861 -0.8991  2.1503  0.9950
   10MOL0     H 1314   3.488   1.378   1.768  2.4056 -2.0430  0.4797
   10MOL0     H 1315   3.280   1.463   1.698  0.0800  1.4718  2.4085
   10MOL0     H 1316   3.070   1.588   1.748  1.3659 -1.3934  2.8029
   10MOL0     H 1317   3.064   1.463   1.626  1.5623  2.3146 -0.3613
   10MOL0     H 1318   2.828   1.601   1.777  0.5888 -0.1422  0.8815
   10MOL0     H 1319   2.870   1.621   1.607  2.3540 -1.0771 -0.5233
   10MOL0     H 1320   2.757   1.389   1.781  0.9649 -0.8617 -0.5184
   10MOL0     H 1321   2.829   1.343   1.624  1.4894 -0.1435  2.9019
   10MOL0     H 1322   2.618   1.551   1.683  1.0254  0.4745 -0.3209
   10MOL0     H 1323   2.650   1.507   1.516  0.6956 -0.5147 -1.0991
   10MOL0     H 1324   2.521   1.324   1.733  2.0911 -1.1682  1.1963
   10MOL0     H 1325   2.557   1.256   1.579 -0.7948 -0.3774  1.2361
   10MOL0     H 1326   2.368   1.487   1.598 -1.7076 -0.0101 -0.6814
   10MOL0     H 1327   2.435   1.421   1.451  4.2552 -0.1896  0.6790
   10MOL0     H 1328   2.290   1.240   1.650 -1.5018 -0.6659  0.0824
   10MOL0     H 1329   2.327   1.188   1.489 -0.9777  0.9014 -2.5872
   10MOL0     H 1330   2.182   1.390   1.412 -0.3359  1.0816  1.0527
   10MOL0     H 1331   2.118   1.398   1.568  0.6085 -0.0342  0.1877
   10MOL0     H 1332   3.074   1.235   1.990  0.6816  2.8260  2.0375
   10MOL0     H 1333   3.276   1.133   2.059 -1.0089 -0.8481 -0.6511
   10MOL0     H 1334   3.680   0.816   1.998  2.0094 -1.6387 -0.0498
   10MOL0     H 1335   3.928   0.759   1.994 -0.0459 -0.6051  1.7204
   10MOL0     H 1336   5.865   0.485   1.973 -3.2531  0.3613  1.6018
   10MOL0     H 1337   6.094   0.567   1.948  3.3589  0.2544  2.6551
   10MOL0     H 1338   6.286   0.966   1.695 -0.9082  3.0347  1.8320
   10MOL0     H 1339   6.530   1.023   1.640 -1.2074  3.6485  2.9822
   10MOL0     H 1340   6.920   0.906   1.852 -0.0645 -2.0669  1.3757
   10MOL0     H 1341   6.830   0.759   1.859 -1.1964  0.1380 -1.3652
   10MOL0     H 1342   6.937   0.868   1.595  0.0268 -0.9722  0.1323
   10MOL0     H 1343   6.825   0.733   1.621 -0.2454 -0.8747 -0.1847
   10MOL0     H 1344   7.000   0.629   1.749 -2.9419 -0.6057 -0.8586
   10MOL0     H 1345   7.105   0.775   1.748 -1.4729  2.1505 -2.4321
   10MOL0     H 1346   7.066   0.554   1.558  2.7502 -0.8062  1.3630
   10MOL0     H 1347   7.212   0.635   1.575 -0.0242 -1.2277 -0.9888
   10MOL0     H 1348   7.097   0.873   1.272  5.6089  0.0302 -0.0461
   10MOL0     H 1349   6.663   0.814   1.974 -2.4495 -0.4992  2.9240
   10MOL0     H 1350   6.423   0.748   2.046 -2.6468  1.0790  0.0109
   11MOL0     O 1351   4.472   2.001   5.110  0.7195  0.2584 -0.2923
   11MOL0     C 1352   4.579   2.064   5.108  0.4137 -0.0712  0.8186
   11MOL0     O 1353   4.592   2.203   5.098  0.4182  0.7693  0.7240
   11MOL0     C 1354   4.477   2.273   5.084  0.3398  0.2101 -0.2948
   11MOL0     C 1355   4.452   2.363   5.192  0.1688 -1.0059  0.9738
   11MOL0     C 1356   4.331   2.427   5.195  0.4219 -0.0313  1.0645
   11MOL0     C 1357   4.231   2.409   5.099 -0.2040  0.1639 -0.2193
   11MOL0     O 1358   4.106   2.462   5.123  0.0717  0.8683 -0.4831
   11MOL0     C 1359   4.002   2.413   5.040 -0.8064  0.3401  0.2535
   11MOL0     C 1360   3.875   2.462   5.105  0.5865  0.4225  0.1198
   11MOL0     C 1361   3.758   2.424   5.021 -1.0492 -0.0610 -0.5690
   11MOL0     C 1362   3.665   2.547   4.995  0.3801 -0.5056  0.7607
   11MOL0     C 1363   3.557   2.504   4.902  0.3985 -1.1526 -0.5181
   11MOL0     C 1364   3.468   2.619   4.871 -0.2496 -0.8392  0.4930
   11MOL0     C 1365   3.349   2.573   4.792  0.1259 -0.5618 -0.3458
   11MOL0     C 1366   3.238   2.676   4.780  0.1866 -0.2056  0.0934
   11MOL0     N 1367   3.151   2.644   4.664 -0.1198  0.2758 -0.2393
   11MOL0     C 1368   3.078   2.736   4.603 -0.2836 -0.3635 -0.6366
   11MOL0     C 1369   2.986   2.672   4.535  0.3758  0.6749  0.3279
   11MOL0     C 1370   2.887   2.741   4.440 -1.1581  0.4948 -0.8836
   11MOL0     C 1371   2.749   2.696   4.474  0.1803  0.0785 -0.8189
   11MOL0     C 1372   2.647   2.780   4.401 -0.1440  0.6375  0.4103
   11MOL0     C 1373   2.498   2.747   4.420  0.0652  1.0686  0.7650
   11MOL0     O 1374   2.479   2.618   4.367 -0.0372  0.0740 -0.6046
   11MOL0     C 1375   2.359   2.603   4.321 -0.4366  0.2660  0.5161
   11MOL0     C 1376   2.246   2.576   4.397  0.5518 -1.2318 -0.3651
   11MOL0     C 1377   2.116   2.563   4.343  0.6032 -0.1718  0.3528
   11MOL0     C 1378   2.001   2.550   4.436 -0.0516  0.2601 -0.2927
   11MOL0     C 1379   2.102   2.573   4.197 -0.7054 -0.3380  0.8722
   11MOL0     C 1380   1.975   2.573   4.122  0.0499 -0.0007 -0.7864
   11MOL0     O 1381   1.863   2.629   4.185 -0.4589  0.4845 -0.1351
   11MOL0     C 1382   1.737   2.565   4.180  0.3001  0.8924 -0.3450
   11MOL0     C 1383   1.707   2.426   4.215  0.4708 -0.2863  0.3855
   11MOL0     C 1384   1.574   2.381   4.204  0.1359 -0.5545 -0.1148
   11MOL0     C 1385   1.481   2.461   4.153 -0.5785 -0.6226  0.2106
   11MOL0     O 1386   1.353   2.421   4.163 -0.0098  0.2675  0.4154
   11MOL0     C 1387   1.323   2.323   4.061 -0.4968  0.8707  0.7984
   11MOL0     C 1388   1.287   2.376   3.916  0.5561 -0.2648 -0.5105
   11MOL0     C 1389   1.158   2.467   3.910 -0.4096 -0.8304  0.1823
   11MOL0     C 1390   1.076   2.445   3.781  0.1783  0.7966 -0.6810
   11MOL0     C 1391   0.955   2.540   3.785  0.5382 -0.3860  0.0568
   11MOL0     C 1392   0.995   2.676   3.743 -0.0658 -0.2657 -0.4094
   11MOL0     C 1393   0.871   2.763   3.704  0.1126  0.0583 -0.5127
   11MOL0     C 1394   0.787   2.797   3.825  0.0644 -0.3343  0.5533
   11MOL0    Cl 1395   0.876   2.885   3.952 -0.0530 -0.5466 -0.3393
   11MOL0     C 1396   1.517   2.587   4.096 -0.1077 -0.1605  0.0254
   11MOL0     C 1397   1.642   2.636   4.112  0.6023  0.4202  0.0984
   11MOL0     O 1398   1.975   2.506   4.018 -0.8144 -0.4825 -0.0410
   11MOL0     C 1399   2.218   2.579   4.118 -0.1480  0.2970 -0.0115
   11MOL0     C 1400   2.346   2.598   4.181 -0.9366  0.5267  0.3578
   11MOL0     N 1401   3.015   2.532   4.555  0.0032  1.0833 -1.0132
   11MOL0     N 1402   3.107   2.519   4.642  0.6037  0.6272 -0.3612
   11MOL0     C 1403   4.260   2.329   4.985 -0.6149  0.3069 -0.2702
   11MOL0     C 1404   4.385   2.266   4.977  0.1063 -0.0219  0.4366
   11MOL0     C 1405   4.711   1.981   5.111 -0.5104 -0.2012 -0.6583
   11MOL0     C 1406   4.723   1.846   5.148 -0.0999 -0.7495  0.6732
   11MOL0     C 1407   4.843   1.775   5.157  1.1004  0.0876  0.1395
   11MOL0     C 1408   4.965   1.838   5.121  0.4303  0.1395 -0.0676
   11MOL0     O 1409   5.085   1.775   5.119 -1.2481  0.1741 -0.7572
   11MOL0     C 1410   5.203   1.841   5.050 -0.2045  0.4000 -0.0417
   11MOL0     C 1411   5.191   1.837   4.902  1.1350 -1.0898 -0.0773
   11MOL0     C 1412   5.323   1.870   4.824 -0.4803  0.6276  0.9601
   11MOL0     C 1413   5.296   1.879   4.678 -0.2458  0.1508 -0.2583
   11MOL0     C 1414   5.296   1.758   4.600 -0.0034 -0.3094 -0.6812
   11MOL0     C 1415   5.289   1.653   4.541  0.1347  0.0062 -0.1935
   11MOL0     C 1416   4.961   1.978   5.110  0.2324 -0.5557 -0.2060
   11MOL0     C 1417   4.841   2.048   5.090  0.2593 -0.3765 -0.8770
   11MOL0     H 1418   4.518   2.363   5.277  0.6643 -1.6389  0.6004
   11MOL0     H 1419   4.314   2.491   5.281 -0.4373  0.9936  0.1670
   11MOL0     H 1420   4.001   2.469   4.947 -4.7386  2.7071  1.5027
   11MOL0     H 1421   4.009   2.304   5.027 -0.4331  0.5005 -0.9475
   11MOL0     H 1422   3.860   2.413   5.201 -2.8506 -4.3898 -2.4449
   11MOL0     H 1423   3.883   2.571   5.117  0.9005  0.4019  0.1045
   11MOL0     H 1424   3.800   2.386   4.928 -0.9866  0.4240 -0.7436
   11MOL0     H 1425   3.692   2.342   5.051 -0.9528  0.1960  0.3936
   11MOL0     H 1426   3.622   2.580   5.090 -1.9254 -2.1255  0.3653
   11MOL0     H 1427   3.719   2.633   4.954  1.2459 -1.6031 -0.5086
   11MOL0     H 1428   3.593   2.472   4.803  0.5798  0.2869 -0.9428
   11MOL0     H 1429   3.505   2.415   4.939  3.5781 -2.2661  1.7542
   11MOL0     H 1430   3.441   2.657   4.970  2.5722 -0.7718  1.3207
   11MOL0     H 1431   3.520   2.696   4.814 -2.6798 -0.1363 -0.9266
   11MOL0     H 1432   3.384   2.549   4.692 -1.3072  2.2511 -1.6233
   11MOL0     H 1433   3.305   2.480   4.830  1.3780 -1.2053 -0.4362
   11MOL0     H 1434   3.277   2.776   4.762 -2.4377  1.4965  2.8133
   11MOL0     H 1435   3.177   2.684   4.871 -1.6356 -1.8811 -0.8984
   11MOL0     H 1436   3.082   2.845   4.606 -0.1197 -0.3256 -1.7638
   11MOL0     H 1437   2.899   2.844   4.475  1.5322 -0.6404  2.0545
   11MOL0     H 1438   2.912   2.739   4.334  3.6622  1.3498 -0.0015
   11MOL0     H 1439   2.726   2.707   4.581 -1.3606 -1.7152 -0.9001
   11MOL0     H 1440   2.742   2.587   4.461  0.7777 -0.1114  0.2706
   11MOL0     H 1441   2.666   2.758   4.295  0.7177  1.1514  0.4499
   11MOL0     H 1442   2.662   2.886   4.424 -3.8185  1.7365 -1.4512
   11MOL0     H 1443   2.441   2.829   4.376 -4.3079 -1.0918  1.8347
   11MOL0     H 1444   2.463   2.732   4.523 -2.3449 -1.8114 -0.3098
   11MOL0     H 1445   2.274   2.567   4.502 -0.1220 -1.2293 -0.1774
   11MOL0     H 1446   1.927   2.629   4.419 -0.0060  1.1542  2.9999
   11MOL0     H 1447   1.951   2.456   4.411  0.6741 -0.1355 -0.2886
   11MOL0     H 1448   2.039   2.548   4.538  0.7438  1.8851 -0.5187
   11MOL0     H 1449   1.782   2.359   4.255  0.6876 -0.9351 -1.0611
   11MOL0     H 1450   1.540   2.291   4.255 -1.4369  0.9662  1.6610
   11MOL0     H 1451   1.409   2.257   4.053 -0.5501  0.7117  1.5297
   11MOL0     H 1452   1.240   2.264   4.100 -0.9063  0.5115 -0.5736
   11MOL0     H 1453   1.376   2.422   3.872  1.8892 -2.9596 -0.8272
   11MOL0     H 1454   1.267   2.299   3.841 -1.2524  0.9910 -1.3928
   11MOL0     H 1455   1.193   2.570   3.921  0.7704 -0.9673 -1.6902
   11MOL0     H 1456   1.098   2.441   3.998 -4.7938  1.6119 -1.7716
   11MOL0     H 1457   1.138   2.462   3.692  1.0360  1.7688  0.0835
   11MOL0     H 1458   1.034   2.344   3.782 -0.3697  0.9778  1.9485
   11MOL0     H 1459   0.912   2.538   3.886 -1.0491 -3.1591 -0.5883
   11MOL0     H 1460   0.874   2.499   3.724 -0.6504 -1.6248  2.3325
   11MOL0     H 1461   1.041   2.730   3.827  0.2909 -2.8982  1.2354
   11MOL0     H 1462   1.059   2.672   3.655 -1.8202 -2.5699 -1.6741
   11MOL0     H 1463   0.811   2.698   3.639  4.1020 -3.3540 -1.1750
   11MOL0     H 1464   0.909   2.853   3.653  2.2664  1.1396  2.6914
   11MOL0     H 1465   0.726   2.715   3.863 -2.7362  2.1624  1.8900
   11MOL0     H 1466   0.702   2.858   3.791 -1.6216 -3.2968 -1.0639
   11MOL0     H 1467   1.447   2.645   4.037 -0.0319 -0.5148 -0.4245
   11MOL0     H 1468   1.673   2.730   4.067  0.9644  0.6513  0.8097
   11MOL0     H 1469   2.213   2.580   4.009  1.3415 -1.5018 -0.1481
   11MOL0     H 1470   2.437   2.595   4.121 -0.9421 -0.5993  0.3705
   11MOL0     H 1471   4.192   2.312   4.902  1.6262  2.7284 -2.8015
   11MOL0     H 1472   4.414   2.206   4.891 -1.3207 -0.8036  0.4869
   11MOL0     H 1473   4.620   1.812   5.150 -0.0183 -1.3251 -1.8303
   11MOL0     H 1474   4.828   1.668   5.167 -4.8466  0.7602  1.6855
   11MOL0     H 1475   5.219   1.944   5.084  0.5571  0.7333 -1.3726
   11MOL0     H 1476   5.292   1.792   5.090 -1.1973  0.2340  2.1501
   11MOL0     H 1477   5.110   1.908   4.883  1.3400 -0.8104  0.0849
   11MOL0     H 1478   5.166   1.735   4.871 -2.6471  0.4826 -2.9778
   11MOL0     H 1479   5.402   1.794   4.833 -1.7778 -0.8604  0.3672
   11MOL0     H 1480   5.369   1.968   4.839  0.9224  0.2806 -0.6612
   11MOL0     H 1481   5.368   1.949   4.634 -0.1689 -0.5575 -1.2999
   11MOL0     H 1482   5.199   1.928   4.668  0.5815  1.5447 -2.0004
   11MOL0     H 1483   5.270   1.562   4.488 -1.1395  0.9541 -1.4857
   11MOL0     H 1484   5.041   2.046   5.081 -0.6285  1.0132  0.9500
   11MOL0     H 1485   4.846   2.153   5.062  0.1477 -0.4642 -1.2351
   12MOL0     O 1486   1.497   7.648  10.984 -0.3425 -0.3841 -0.3052
   12MOL0     C 1487   1.543   7.635  11.098  0.4517  1.2114 -0.1491
   12MOL0     O 1488   1.470   7.605  11.215  0.5822 -0.5227 -0.3157
   12MOL0     C 1489   1.337   7.617  11.228 -0.2413 -0.1295  0.4261
   12MOL0     C 1490   1.287   7.615  11.359  0.0005 -0.2587  0.4466
   12MOL0     C 1491   1.142   7.626  11.380 -0.5532  0.0974  0.4281
   12MOL0     C 1492   1.056   7.633  11.272 -0.0440  0.4957 -0.0790
   12MOL0     O 1493   0.927   7.643  11.288  0.0412 -1.5175  0.3999
   12MOL0     C 1494   0.841   7.607  11.183 -0.5340 -0.9297  0.7678
   12MOL0     C 1495   0.691   7.601  11.221 -0.3586  0.5390  0.0910
   12MOL0     C 1496   0.622   7.735  11.202  0.0984  0.6161 -0.6360
   12MOL0     C 1497   0.473   7.732  11.246 -0.5275  0.3633  0.2414
   12MOL0     C 1498   0.406   7.870  11.231 -0.3617 -1.3069  0.4505
   12MOL0     C 1499   0.277   7.864  11.309  0.6586 -0.8854 -0.0925
   12MOL0     C 1500   0.183   7.975  11.265  0.6686 -0.7359 -0.3649
   12MOL0     C 1501   0.228   8.121  11.272  0.5561 -0.0488  0.0467
   12MOL0     N 1502   0.124   8.224  11.253  0.3988  0.0063  0.2140
   12MOL0     C 1503   0.069   8.252  11.131 -0.2242  0.2530  0.0553
   12MOL0     C 1504  -0.040   8.335  11.163  0.2458  0.1893  0.9461
   12MOL0     C 1505  -0.139   8.386  11.063 -0.6093  0.6129 -0.0107
   12MOL0     C 1506  -0.083   8.520  11.009 -0.8137  0.0415 -0.0165
   12MOL0     C 1507  -0.188   8.612  10.949 -0.2987  0.3745  0.3127
   12MOL0     C 1508  -0.300   8.551  10.867  0.0403 -0.1420 -0.2977
   12MOL0     O 1509  -0.393   8.478  10.947 -0.5209  0.1321 -0.6041
   12MOL0     C 1510  -0.527   8.527  10.952 -0.5524 -0.2782 -0.3171
   12MOL0     C 1511  -0.567   8.586  11.068  0.1104 -0.2976 -0.0584
   12MOL0     C 1512  -0.692   8.650  11.083 -0.2480  0.0425 -0.4726
   12MOL0     C 1513  -0.710   8.713  11.218  0.9326 -0.6714  0.1865
   12MOL0     C 1514  -0.777   8.645  10.972  0.5135 -0.1532 -0.0664
   12MOL0     C 1515  -0.910   8.704  10.977 -0.0435  0.6506  0.6919
   12MOL0     O 1516  -0.997   8.675  10.865  0.2292  0.2067 -0.3939
   12MOL0     C 1517  -1.134   8.696  10.868 -0.4946  0.5185 -0.3112
   12MOL0     C 1518  -1.191   8.686  10.742  0.2338  0.4604  0.0751
   12MOL0     C 1519  -1.333   8.720  10.724 -0.2588  0.2761  0.2268
   12MOL0     C 1520  -1.418   8.747  10.834  0.2723 -0.8880  0.2167
   12MOL0     O 1521  -1.553   8.776  10.805  0.0612 -0.1227 -0.8032
   12MOL0     C 1522  -1.628   8.669  10.746  0.1821  0.4089  0.4313
   12MOL0     C 1523  -1.780   8.683  10.776 -0.4314  0.7607 -0.7083
   12MOL0     C 1524  -1.854   8.800  10.710 -0.6983 -0.5746 -0.0282
   12MOL0     C 1525  -2.008   8.791  10.742 -0.5604  0.0163 -0.2463
   12MOL0     C 1526  -2.053   8.808  10.889 -0.3322  1.4621 -0.0766
   12MOL0     C 1527  -2.204   8.846  10.897 -0.0547 -0.9718 -1.0342
   12MOL0     C 1528  -2.242   8.867  11.036  0.0554  0.1525  0.2023
   12MOL0     C 1529  -2.383   8.924  11.060 -0.9925 -0.8657 -0.1623
   12MOL0    Cl 1530  -2.527   8.819  11.027  0.2552 -0.6523  0.3301
   12MOL0     C 1531  -1.358   8.751  10.957  0.1290 -0.1214  0.4384
   12MOL0     C 1532  -1.227   8.717  10.974 -1.2161 -0.0752 -0.5383
   12MOL0     O 1533  -0.941   8.761  11.075 -0.2252  0.5934 -0.1232
   12MOL0     C 1534  -0.733   8.583  10.852  0.3010  0.2228  0.1878
   12MOL0     C 1535  -0.612   8.523  10.845  0.5882  0.1465  0.5891
   12MOL0     N 1536  -0.047   8.333  11.303  0.8213 -0.1191  0.0061
   12MOL0     N 1537   0.051   8.276  11.356  0.7385 -0.2334 -0.1875
   12MOL0     C 1538   1.111   7.640  11.146 -0.0443 -0.7058 -0.3784
   12MOL0     C 1539   1.249   7.628  11.122 -0.2131 -0.4721 -0.5538
   12MOL0     C 1540   1.686   7.633  11.112  0.2069  0.1808 -0.5158
   12MOL0     C 1541   1.770   7.624  10.997 -0.8143 -0.0579  0.1634
   12MOL0     C 1542   1.911   7.623  11.018  0.2403 -0.5235  0.6051
   12MOL0     C 1543   1.971   7.637  11.146  0.4119 -0.0848  0.7642
   12MOL0     O 1544   2.107   7.654  11.164  0.0183  0.9458 -1.0312
   12MOL0     C 1545   2.203   7.624  11.054  0.3097  0.2031  0.4541
   12MOL0     C 1546   2.356   7.641  11.094 -0.1414  0.4820  0.5305
   12MOL0     C 1547   2.373   7.795  11.142  0.2568  0.2985  0.4188
   12MOL0     C 1548   2.524   7.817  11.178 -0.4235  0.3498  0.1509
   12MOL0     C 1549   2.611   7.841  11.059  0.9997 -0.3380 -0.0198
   12MOL0     C 1550   2.701   7.856  10.980  0.0837 -0.2768  0.8481
   12MOL0     C 1551   1.883   7.639  11.257  0.4697  0.4072  0.1796
   12MOL0     C 1552   1.745   7.642  11.244  0.5312  0.3200  1.1316
   12MOL0     H 1553   1.367   7.608  11.432 -1.7492  2.3197  2.8681
   12MOL0     H 1554   1.092   7.621  11.476  2.5136  1.6877  2.2474
   12MOL0     H 1555   0.848   7.682  11.103  0.1689  1.3329  2.8468
   12MOL0     H 1556   0.857   7.504  11.152 -0.1940 -0.8978  0.8422
   12MOL0     H 1557   0.642   7.529  11.155 -0.5161 -0.2816  1.0845
   12MOL0     H 1558   0.676   7.557  11.320 -1.4279  0.8533  0.0759
   12MOL0     H 1559   0.667   7.809  11.269  1.0175 -1.4350  1.1386
   12MOL0     H 1560   0.633   7.765  11.098 -3.5180  0.5022 -1.1826
   12MOL0     H 1561   0.423   7.661  11.180  3.5508 -0.8273 -1.9278
   12MOL0     H 1562   0.462   7.710  11.352 -1.1794 -0.6422 -0.0184
   12MOL0     H 1563   0.464   7.950  11.277 -1.3586  0.1277 -0.6494
   12MOL0     H 1564   0.390   7.899  11.126  2.8371 -1.4731 -0.1725
   12MOL0     H 1565   0.232   7.765  11.292  1.0912 -1.0083 -0.5281
   12MOL0     H 1566   0.294   7.873  11.417 -1.4142  0.8721  0.1642
   12MOL0     H 1567   0.159   7.958  11.160  0.7311  2.1108 -0.9159
   12MOL0     H 1568   0.094   7.971  11.329 -0.2041 -0.5429 -1.5287
   12MOL0     H 1569   0.296   8.129  11.186 -1.8076  0.6245 -1.8578
   12MOL0     H 1570   0.283   8.143  11.364  2.6961  1.2710 -1.4394
   12MOL0     H 1571   0.113   8.221  11.037  2.0463  3.8685 -0.2797
   12MOL0     H 1572  -0.139   8.308  10.986  2.4969  3.8841 -3.7984
   12MOL0     H 1573  -0.234   8.388  11.117 -0.3400 -0.5344  0.5371
   12MOL0     H 1574  -0.002   8.506  10.936  1.8120 -0.5131  2.8105
   12MOL0     H 1575  -0.040   8.564  11.099 -3.7453 -0.3773  1.7062
   12MOL0     H 1576  -0.132   8.686  10.892  1.5913 -0.0241  1.5607
   12MOL0     H 1577  -0.240   8.660  11.032 -2.4946 -0.7802 -0.3085
   12MOL0     H 1578  -0.252   8.483  10.795  2.2147 -2.0164  2.6762
   12MOL0     H 1579  -0.343   8.637  10.816  0.3240  1.0202  1.3451
   12MOL0     H 1580  -0.489   8.572  11.143 -0.3298 -1.3563  0.2266
   12MOL0     H 1581  -0.809   8.688  11.257  1.0584  0.6872  1.5014
   12MOL0     H 1582  -0.642   8.662  11.286  2.5753 -0.8328 -1.5021
   12MOL0     H 1583  -0.683   8.819  11.205  1.6830 -0.9336 -0.5159
   12MOL0     H 1584  -1.123   8.663  10.661  0.7656 -4.3768  1.6040
   12MOL0     H 1585  -1.377   8.730  10.626  5.5172  2.4808 -2.5999
   12MOL0     H 1586  -1.615   8.653  10.638 -0.7021  1.8464  0.0780
   12MOL0     H 1587  -1.597   8.576  10.793 -0.7468  0.3552  0.9553
   12MOL0     H 1588  -1.833   8.592  10.745 -0.8483  1.2196 -1.3565
   12MOL0     H 1589  -1.796   8.700  10.883 -1.1896 -0.5743 -0.5889
   12MOL0     H 1590  -1.838   8.807  10.602 -1.5705 -0.9922 -0.2001
   12MOL0     H 1591  -1.822   8.896  10.751  1.9331 -0.6193 -1.7661
   12MOL0     H 1592  -2.051   8.875  10.687  0.1019  0.8928  0.5368
   12MOL0     H 1593  -2.045   8.693  10.710  5.5792 -2.2990 -1.8094
   12MOL0     H 1594  -2.001   8.887  10.945  1.9603  0.5170 -0.7510
   12MOL0     H 1595  -2.039   8.712  10.940  0.4955  0.3177 -2.3412
   12MOL0     H 1596  -2.223   8.943  10.850 -2.5288  0.2188  2.0835
   12MOL0     H 1597  -2.262   8.764  10.856 -0.1590 -2.6810  2.2279
   12MOL0     H 1598  -2.174   8.938  11.084  2.6051 -2.3920  0.6163
   12MOL0     H 1599  -2.237   8.768  11.083 -3.9190 -1.0095 -1.3640
   12MOL0     H 1600  -2.389   9.018  11.005  3.0635 -0.5696 -0.4225
   12MOL0     H 1601  -2.383   8.950  11.167  0.4342 -0.8156 -0.1545
   12MOL0     H 1602  -1.428   8.767  11.038 -2.0407  1.2947 -1.5631
   12MOL0     H 1603  -1.185   8.698  11.072 -3.5102 -5.0505 -0.1986
   12MOL0     H 1604  -0.785   8.582  10.757 -0.4221 -0.5308  0.5787
   12MOL0     H 1605  -0.582   8.477  10.752 -1.0254 -2.8679  1.4241
   12MOL0     H 1606   1.040   7.656  11.066 -1.3670 -0.0239  0.8709
   12MOL0     H 1607   1.286   7.623  11.020 -0.0131 -1.1508 -0.4548
   12MOL0     H 1608   1.733   7.625  10.895 -0.3579  0.0397 -0.0016
   12MOL0     H 1609   1.977   7.609  10.933 -0.7279  3.2442 -0.9295
   12MOL0     H 1610   2.179   7.524  11.016 -0.5732  0.6782 -0.2633
   12MOL0     H 1611   2.174   7.697  10.978  2.2015  1.6982  1.0925
   12MOL0     H 1612   2.413   7.618  11.003 -1.1589 -0.9789  0.2137
   12MOL0     H 1613   2.372   7.573  11.177 -1.6483 -0.1390  0.3612
   12MOL0     H 1614   2.306   7.820  11.225 -4.0625 -1.1828 -2.2568
   12MOL0     H 1615   2.340   7.863  11.063  0.2567  3.0275  2.6100
   12MOL0     H 1616   2.567   7.727  11.223  2.1960  1.4733  0.0576
   12MOL0     H 1617   2.536   7.894  11.255 -3.0225 -3.2150  4.6703
   12MOL0     H 1618   2.769   7.889  10.904  1.2734  0.1380  2.0636
   12MOL0     H 1619   1.918   7.647  11.360 -0.7667  0.9921  0.5772
   12MOL0     H 1620   1.692   7.650  11.338  0.2024 -0.3604  1.0122
   13MOL0     O 1621   6.760   4.210   1.732 -0.2480  0.2436  0.1851
   13MOL0     C 1622   6.820   4.117   1.786  0.1494  0.2263 -0.5012
   13MOL0     O 1623   6.767   4.017   1.862  0.0252 -0.0256 -0.0714
   13MOL0     C 1624   6.632   4.013   1.879 -0.7100 -0.2488 -0.9579
   13MOL0     C 1625   6.534   4.045   1.781 -0.0144  0.3848  0.1829
   13MOL0     C 1626   6.402   4.034   1.806  1.5148 -0.1220  0.5658
   13MOL0     C 1627   6.356   4.003   1.932 -0.4414 -0.2790 -0.6889
   13MOL0     O 1628   6.229   3.972   1.960  0.0131 -0.7854  0.1444
   13MOL0     C 1629   6.118   3.994   1.868 -0.6377 -0.7065 -0.6725
   13MOL0     C 1630   6.011   3.890   1.917  0.1382 -0.5119 -0.9111
   13MOL0     C 1631   5.873   3.912   1.862 -0.0031  0.3758 -0.5143
   13MOL0     C 1632   5.766   3.814   1.927 -0.3866 -0.3913 -0.3953
   13MOL0     C 1633   5.625   3.866   1.890  0.0454  0.3994 -0.5747
   13MOL0     C 1634   5.517   3.770   1.940 -0.3487 -0.5680 -0.2379
   13MOL0     C 1635   5.382   3.828   1.894  0.6367 -0.3239 -0.7530
   13MOL0     C 1636   5.253   3.744   1.893  0.0899 -0.5232 -0.0013
   13MOL0     N 1637   5.246   3.641   1.795 -0.2860  0.4656 -0.2837
   13MOL0     C 1638   5.279   3.514   1.832 -0.7029  0.1660  0.0434
   13MOL0     C 1639   5.275   3.440   1.718 -0.5679 -0.1997 -0.0958
   13MOL0     C 1640   5.290   3.289   1.715  0.3902 -0.3609  0.5245
   13MOL0     C 1641   5.189   3.200   1.767 -0.0138 -0.2814  0.6946
   13MOL0     C 1642   5.063   3.215   1.680 -0.1869 -0.2796  0.1133
   13MOL0     C 1643   4.959   3.105   1.720  0.3125  0.6138 -0.5047
   13MOL0     O 1644   4.843   3.095   1.633 -0.5140  0.0872 -0.0922
   13MOL0     C 1645   4.734   3.176   1.665  0.5723 -0.6130  0.2788
   13MOL0     C 1646   4.623   3.148   1.598  0.3982  0.5407 -0.6212
   13MOL0     C 1647   4.495   3.213   1.606 -0.3970 -0.1097 -1.2509
   13MOL0     C 1648   4.383   3.142   1.532 -0.0521 -0.7294 -0.1051
   13MOL0     C 1649   4.488   3.322   1.705 -0.0204  0.2992 -0.3375
   13MOL0     C 1650   4.363   3.387   1.744  0.3406 -0.2273  0.6318
   13MOL0     O 1651   4.374   3.452   1.864  0.1051  0.0704  0.6761
   13MOL0     C 1652   4.271   3.518   1.931 -0.9145  0.0512 -0.1214
   13MOL0     C 1653   4.312   3.641   1.989  0.1656  0.6626 -0.9147
   13MOL0     C 1654   4.216   3.721   2.052  0.8806 -0.0485 -0.1741
   13MOL0     C 1655   4.079   3.691   2.030 -0.2839 -0.3072 -0.4738
   13MOL0     O 1656   3.979   3.771   2.071  0.2851 -0.5291 -0.0649
   13MOL0     C 1657   3.992   3.787   2.213 -0.1914 -0.6214 -0.5651
   13MOL0     C 1658   3.898   3.900   2.255 -0.0964 -0.3174  0.0160
   13MOL0     C 1659   3.746   3.870   2.230  0.4322 -0.4957 -0.3984
   13MOL0     C 1660   3.653   3.985   2.266  0.1230  0.5361 -0.8122
   13MOL0     C 1661   3.505   3.941   2.258 -0.1475  0.7095  0.1698
   13MOL0     C 1662   3.421   4.036   2.344 -0.2305 -0.3821  0.0574
   13MOL0     C 1663   3.283   3.975   2.352  0.2881  0.2633 -0.7481
   13MOL0     C 1664   3.267   3.856   2.440  0.0979  0.3197 -0.7056
   13MOL0    Cl 1665   3.316   3.911   2.602  0.0035 -0.4056  0.1700
   13MOL0     C 1666   4.038   3.573   1.959 -0.8946  0.2741  0.0806
   13MOL0     C 1667   4.142   3.484   1.910  1.2028 -0.1026 -1.2487
   13MOL0     O 1668   4.259   3.383   1.677  0.3175 -0.1915 -0.1105
   13MOL0     C 1669   4.610   3.347   1.782 -0.7584 -0.2251  0.1140
   13MOL0     C 1670   4.732   3.284   1.755  0.2060  0.5747  0.4481
   13MOL0     N 1671   5.232   3.527   1.615 -0.1749  0.2409  0.3281
   13MOL0     N 1672   5.226   3.648   1.660  0.1327 -0.5194  0.4124
   13MOL0     C 1673   6.455   3.990   2.033 -0.0986 -0.5504  0.1011
   13MOL0     C 1674   6.593   3.994   2.006  1.0566 -0.3167 -0.7553
   13MOL0     C 1675   6.969   4.127   1.771 -0.3503  0.0694  0.6734
   13MOL0     C 1676   7.054   4.026   1.822 -0.4765 -0.0426 -0.0221
   13MOL0     C 1677   7.194   4.025   1.801  0.1611 -0.4527 -0.4857
   13MOL0     C 1678   7.262   4.133   1.744 -0.2006  0.7605 -0.7368
   13MOL0     O 1679   7.400   4.139   1.721 -0.7339 -0.3856 -0.1731
   13MOL0     C 1680   7.486   4.056   1.801 -0.5421  0.1412 -0.3020
   13MOL0     C 1681   7.624   4.073   1.736  0.2155  0.3844 -0.3693
   13MOL0     C 1682   7.631   4.027   1.589 -0.1429 -0.4710  0.5367
   13MOL0     C 1683   7.757   4.064   1.527 -0.5601 -0.8830  0.7377
   13MOL0     C 1684   7.875   4.021   1.593 -0.3298  0.4323  0.2202
   13MOL0     C 1685   7.976   4.002   1.648  0.4743 -0.5498 -0.6581
   13MOL0     C 1686   7.178   4.237   1.699  0.4942 -0.0692  0.4863
   13MOL0     C 1687   7.040   4.231   1.708 -0.0739 -0.8087 -1.0138
   13MOL0     H 1688   6.574   4.062   1.681 -1.9517 -0.1135 -0.7234
   13MOL0     H 1689   6.347   4.064   1.717  1.0075 -0.1513  0.8652
   13MOL0     H 1690   6.082   4.097   1.879 -1.5968 -1.2356  1.6369
   13MOL0     H 1691   6.141   3.967   1.764 -0.8536 -0.5595 -0.7613
   13MOL0     H 1692   6.049   3.790   1.894  0.4175 -0.7281  0.3816
   13MOL0     H 1693   6.010   3.880   2.026  1.7201 -1.7269 -0.9820
   13MOL0     H 1694   5.842   4.014   1.884  0.9933  0.7407 -0.7520
   13MOL0     H 1695   5.865   3.908   1.753  0.8674  1.7803 -0.6447
   13MOL0     H 1696   5.783   3.715   1.885 -2.6485 -0.5898 -0.9907
   13MOL0     H 1697   5.782   3.811   2.035  2.7824 -1.3401 -0.8049
   13MOL0     H 1698   5.615   3.966   1.934 -1.6687  0.1037 -0.2058
   13MOL0     H 1699   5.620   3.868   1.781  0.3530 -0.9620 -0.6363
   13MOL0     H 1700   5.545   3.673   1.899  1.7273 -0.0839 -0.0675
   13MOL0     H 1701   5.521   3.772   2.049  1.3307 -0.3180 -0.2816
   13MOL0     H 1702   5.365   3.901   1.974 -0.4912 -0.4349 -0.8760
   13MOL0     H 1703   5.400   3.883   1.802 -1.1963  0.3520 -0.7532
   13MOL0     H 1704   5.170   3.810   1.868 -0.7424 -1.4895  0.1532
   13MOL0     H 1705   5.241   3.701   1.992 -0.3080 -1.0626 -0.2776
   13MOL0     H 1706   5.316   3.473   1.926  2.1118 -0.3944 -1.2039
   13MOL0     H 1707   5.304   3.259   1.611 -0.3569 -0.8878  0.5650
   13MOL0     H 1708   5.384   3.269   1.767  0.1267 -1.4920  0.6049
   13MOL0     H 1709   5.162   3.212   1.872  1.8752  1.4793  1.0354
   13MOL0     H 1710   5.233   3.100   1.763 -0.1716 -0.3249 -0.7105
   13MOL0     H 1711   5.093   3.198   1.576  1.0082  2.8111 -0.1595
   13MOL0     H 1712   5.035   3.319   1.701 -0.1920 -0.6445  2.1546
   13MOL0     H 1713   4.935   3.120   1.825  4.1117 -0.2682  0.6384
   13MOL0     H 1714   5.013   3.011   1.704 -1.2409 -0.1521 -1.5054
   13MOL0     H 1715   4.629   3.064   1.529  3.0378  1.5813 -1.8028
   13MOL0     H 1716   4.345   3.210   1.455 -0.6202  0.5729  1.2835
   13MOL0     H 1717   4.427   3.052   1.488 -1.1410 -1.4652  0.2761
   13MOL0     H 1718   4.298   3.119   1.597 -0.6409  0.8284 -0.2707
   13MOL0     H 1719   4.419   3.657   1.976  0.3307  0.6688  0.2897
   13MOL0     H 1720   4.251   3.814   2.095 -2.5292  0.4731  1.8555
   13MOL0     H 1721   3.963   3.700   2.273 -0.8932  0.6985  1.1005
   13MOL0     H 1722   4.093   3.813   2.244 -0.2905 -2.9458  2.1370
   13MOL0     H 1723   3.916   3.918   2.362  1.0133  1.8739 -0.4699
   13MOL0     H 1724   3.936   3.989   2.203  1.6239 -2.4204 -2.5520
   13MOL0     H 1725   3.720   3.782   2.289  1.5079  0.8877  2.3361
   13MOL0     H 1726   3.735   3.848   2.124 -1.8087 -0.3976 -0.2204
   13MOL0     H 1727   3.673   4.015   2.369  2.4058  0.7910 -1.2852
   13MOL0     H 1728   3.670   4.071   2.201  0.3123  0.2679 -1.1200
   13MOL0     H 1729   3.494   3.839   2.295  0.1400  0.8326  0.5970
   13MOL0     H 1730   3.466   3.939   2.155  0.4452 -3.8097 -0.1608
   13MOL0     H 1731   3.462   4.050   2.445 -2.0085  3.1588  0.4180
   13MOL0     H 1732   3.419   4.135   2.298 -1.5776 -0.4807 -0.1292
   13MOL0     H 1733   3.242   3.963   2.251 -0.2686 -1.3797 -0.3518
   13MOL0     H 1734   3.230   4.059   2.398  0.2640  0.2105 -0.6799
   13MOL0     H 1735   3.328   3.772   2.405  1.1765  0.2658  1.1347
   13MOL0     H 1736   3.161   3.831   2.439 -0.0620  0.8295  0.6057
   13MOL0     H 1737   3.935   3.540   1.953 -1.5205  2.0740  0.3131
   13MOL0     H 1738   4.123   3.388   1.862  2.0436  0.2823 -2.3878
   13MOL0     H 1739   4.622   3.419   1.862 -1.0917  0.7792 -0.7156
   13MOL0     H 1740   4.818   3.326   1.806 -1.7776  4.2948  1.0993
   13MOL0     H 1741   6.420   3.965   2.133  3.3527 -0.0441  1.5843
   13MOL0     H 1742   6.649   3.980   2.098 -0.3662  1.2008  0.4065
   13MOL0     H 1743   7.016   3.930   1.856  1.7010 -0.5683  1.1335
   13MOL0     H 1744   7.233   3.942   1.859 -0.5358 -0.0181  0.6254
   13MOL0     H 1745   7.506   4.100   1.900  1.8473  1.6388 -1.3622
   13MOL0     H 1746   7.460   3.950   1.808  1.6931 -0.5328 -1.3906
   13MOL0     H 1747   7.694   4.017   1.799 -0.7280 -1.7114 -1.0818
   13MOL0     H 1748   7.665   4.174   1.734 -0.1698  0.6144  1.3531
   13MOL0     H 1749   7.548   4.063   1.528 -2.0152 -1.3454  2.4549
   13MOL0     H 1750   7.627   3.918   1.589  1.1378 -0.5346  1.1326
   13MOL0     H 1751   7.765   4.169   1.498  1.7600 -1.6702 -1.9527
   13MOL0     H 1752   7.747   4.012   1.431 -2.4902  0.1459  0.3213
   13MOL0     H 1753   8.072   4.003   1.697 -0.1271  0.2049  0.5331
   13MOL0     H 1754   7.247   4.311   1.660  2.0437 -1.4194  0.5228
   13MOL0     H 1755   6.982   4.314   1.669 -2.2269  1.3172  5.4356
   14MOL0     O 1756   2.263   6.845   5.208  0.2023  0.9778 -0.1756
   14MOL0     C 1757   2.310   6.767   5.127 -0.0925 -0.3051  0.0952
   14MOL0     O 1758   2.265   6.737   4.999  0.3284 -0.8578 -0.4926
   14MOL0     C 1759   2.153   6.787   4.936  0.5078 -0.3468  0.3769
   14MOL0     C 1760   2.049   6.864   4.998  0.2595 -0.0227  0.1865
   14MOL0     C 1761   1.937   6.907   4.926 -0.0601 -0.7107 -0.5083
   14MOL0     C 1762   1.920   6.881   4.787 -0.4657  0.2192 -0.6557
   14MOL0     O 1763   1.824   6.934   4.708 -0.3490  0.5882  0.3966
   14MOL0     C 1764   1.724   7.004   4.776 -0.1826 -0.7316  0.4506
   14MOL0     C 1765   1.627   7.049   4.666 -1.3995 -0.9806 -0.3627
   14MOL0     C 1766   1.536   6.947   4.608  0.5318 -0.1254  0.4303
   14MOL0     C 1767   1.409   7.018   4.574 -0.1558  0.5068  0.0888
   14MOL0     C 1768   1.305   6.919   4.509  0.6107  0.3477  0.4589
   14MOL0     C 1769   1.184   7.012   4.470  0.4447  0.1030 -0.2695
   14MOL0     C 1770   1.069   6.933   4.422  0.2926  0.2310 -0.1382
   14MOL0     C 1771   0.938   7.003   4.400  0.4417  0.9079 -0.7010
   14MOL0     N 1772   0.950   7.130   4.327 -0.1106  0.5543  0.2885
   14MOL0     C 1773   0.958   7.133   4.190 -0.9184  0.1255  0.2919
   14MOL0     C 1774   0.922   7.260   4.152 -0.5378  0.9131 -0.2874
   14MOL0     C 1775   0.935   7.305   4.006 -0.3680  0.0576 -0.5104
   14MOL0     C 1776   0.817   7.366   3.949  0.4837 -0.1387 -1.0563
   14MOL0     C 1777   0.702   7.269   3.914  0.4245 -0.0616  0.6450
   14MOL0     C 1778   0.581   7.337   3.841  0.0907 -0.0324 -0.2058
   14MOL0     O 1779   0.471   7.244   3.829 -0.5455 -0.2036  0.5271
   14MOL0     C 1780   0.356   7.288   3.768  0.0283 -0.5201  0.4312
   14MOL0     C 1781   0.263   7.185   3.743 -0.1466  0.2122  0.4832
   14MOL0     C 1782   0.156   7.205   3.657  0.1366  0.2554  0.9474
   14MOL0     C 1783   0.077   7.080   3.615 -0.5088  0.4988  0.0566
   14MOL0     C 1784   0.125   7.334   3.611  0.4640  0.1720  0.1061
   14MOL0     C 1785   0.005   7.363   3.526 -0.0132  0.5977  0.3492
   14MOL0     O 1786  -0.115   7.287   3.531 -0.2937 -0.7036 -0.8796
   14MOL0     C 1787  -0.227   7.326   3.454  0.4833  1.4565 -0.0459
   14MOL0     C 1788  -0.222   7.327   3.316  0.9497  0.5992  0.7895
   14MOL0     C 1789  -0.334   7.334   3.234  0.6468  1.2219 -0.7215
   14MOL0     C 1790  -0.454   7.356   3.296  0.5116 -0.0809  0.7364
   14MOL0     O 1791  -0.575   7.361   3.231 -0.0312 -0.9054 -0.1333
   14MOL0     C 1792  -0.583   7.396   3.094  0.2545  0.0131  0.7176
   14MOL0     C 1793  -0.722   7.460   3.063 -0.0506  0.0378  0.3291
   14MOL0     C 1794  -0.840   7.382   3.122 -0.9384 -0.8839  0.4614
   14MOL0     C 1795  -0.867   7.260   3.046  0.5569  0.3040  0.2541
   14MOL0     C 1796  -1.008   7.198   3.033  0.6133  0.1173 -0.2547
   14MOL0     C 1797  -1.122   7.304   3.024  0.3804 -0.5276 -0.0662
   14MOL0     C 1798  -1.258   7.234   2.991  0.1854  0.6160  0.0768
   14MOL0     C 1799  -1.384   7.330   2.961 -0.1142  0.3426 -0.3253
   14MOL0    Cl 1800  -1.522   7.220   2.922 -0.5817  0.7719 -0.5400
   14MOL0     C 1801  -0.457   7.369   3.435  1.0444 -0.1988 -0.1825
   14MOL0     C 1802  -0.343   7.349   3.514  0.2289 -0.5779  0.2437
   14MOL0     O 1803   0.022   7.451   3.447 -0.1552 -0.3590  0.0079
   14MOL0     C 1804   0.215   7.434   3.638 -0.2178 -0.2913 -0.7795
   14MOL0     C 1805   0.333   7.416   3.714  0.4140 -0.5935  0.9838
   14MOL0     N 1806   0.873   7.329   4.261 -1.3337 -0.2431  0.8337
   14MOL0     N 1807   0.898   7.249   4.366 -0.0501 -0.1520  0.4163
   14MOL0     C 1808   2.007   6.785   4.738 -0.2261  0.2384  0.1512
   14MOL0     C 1809   2.128   6.743   4.804 -0.0399  1.4363 -0.3834
   14MOL0     C 1810   2.418   6.685   5.175 -0.7890  0.0955  0.7883
   14MOL0     C 1811   2.442   6.648   5.311  0.4736  0.0856 -0.8168
   14MOL0     C 1812   2.560   6.577   5.349 -0.3629  0.4069  0.1691
   14MOL0     C 1813   2.647   6.530   5.246  0.5179  0.5889  0.0624
   14MOL0     O 1814   2.758   6.452   5.269 -0.5921  0.2915 -0.4228
   14MOL0     C 1815   2.802   6.423   5.405 -0.2371  0.3696  0.4462
   14MOL0     C 1816   2.928   6.341   5.396 -1.1820  0.2667  0.4119
   14MOL0     C 1817   2.888   6.192   5.356 -0.1558  0.6598  0.1651
   14MOL0     C 1818   3.002   6.098   5.373 -0.2673 -0.4936  0.1244
   14MOL0     C 1819   3.062   6.101   5.516 -0.2818 -0.5184  0.0522
   14MOL0     C 1820   3.122   6.128   5.616 -0.1564 -0.5775  0.7474
   14MOL0     C 1821   2.624   6.562   5.113 -0.0957 -0.3143 -0.0761
   14MOL0     C 1822   2.511   6.640   5.084 -0.0039 -0.1724  0.9552
   14MOL0     H 1823   2.051   6.893   5.103 -1.8604 -1.1862  0.5935
   14MOL0     H 1824   1.863   6.962   4.983 -2.6381 -3.4299 -1.0021
   14MOL0     H 1825   1.666   6.945   4.847 -0.5736 -0.5870  0.2565
   14MOL0     H 1826   1.757   7.086   4.840 -0.8119 -0.4166  0.3775
   14MOL0     H 1827   1.575   7.129   4.720  0.7862 -1.9938  3.7111
   14MOL0     H 1828   1.678   7.093   4.580  0.4991  2.2239  2.1618
   14MOL0     H 1829   1.583   6.902   4.519  2.6932  2.0363  0.3738
   14MOL0     H 1830   1.511   6.875   4.687  1.1401  2.5215  3.2064
   14MOL0     H 1831   1.362   7.057   4.665 -0.1295  3.2349 -0.9911
   14MOL0     H 1832   1.438   7.098   4.506 -2.2554 -0.2725 -1.8601
   14MOL0     H 1833   1.345   6.878   4.416 -1.6267  2.8270 -1.7668
   14MOL0     H 1834   1.283   6.843   4.585 -0.7490  0.0995 -0.1658
   14MOL0     H 1835   1.159   7.073   4.558 -0.4347  1.5195 -1.4508
   14MOL0     H 1836   1.217   7.078   4.389 -0.3140  0.9782  0.1245
   14MOL0     H 1837   1.107   6.879   4.335 -1.8359 -3.1256  0.8195
   14MOL0     H 1838   1.035   6.848   4.482 -1.3460 -1.4676 -3.2276
   14MOL0     H 1839   0.891   7.016   4.498  1.9726  1.6521 -0.0234
   14MOL0     H 1840   0.869   6.943   4.342  0.9560 -2.0142  1.4944
   14MOL0     H 1841   0.995   7.057   4.122  0.6109  1.4049 -0.3736
   14MOL0     H 1842   1.013   7.382   4.001 -1.9094  1.6017 -3.5564
   14MOL0     H 1843   0.971   7.232   3.933  3.4393  1.3012 -0.0980
   14MOL0     H 1844   0.844   7.409   3.852 -1.5439 -0.6484 -1.8983
   14MOL0     H 1845   0.787   7.451   4.012  4.7554 -0.3187  1.6159
   14MOL0     H 1846   0.659   7.211   3.996 -1.4252  1.0111  0.4798
   14MOL0     H 1847   0.744   7.201   3.839  0.6467  0.9107 -0.1400
   14MOL0     H 1848   0.620   7.370   3.744 -3.1434  2.2077 -0.9310
   14MOL0     H 1849   0.541   7.421   3.898  0.1523 -1.3015  1.7862
   14MOL0     H 1850   0.273   7.083   3.779 -2.4174 -0.1068  0.3762
   14MOL0     H 1851   0.056   7.069   3.508 -3.1072  3.3930  0.1225
   14MOL0     H 1852   0.129   6.987   3.638 -0.2689  0.7752  0.6526
   14MOL0     H 1853  -0.019   7.071   3.666  0.3351 -2.1447  1.3303
   14MOL0     H 1854  -0.130   7.306   3.263 -0.4167 -1.3843 -0.9569
   14MOL0     H 1855  -0.324   7.323   3.127  0.6489 -1.2127 -0.5454
   14MOL0     H 1856  -0.508   7.472   3.071 -1.3187  1.6478  0.7765
   14MOL0     H 1857  -0.573   7.301   3.040  2.5619  1.1731 -1.0688
   14MOL0     H 1858  -0.720   7.559   3.111 -0.1683  0.1766  0.0549
   14MOL0     H 1859  -0.733   7.486   2.957  3.5860  2.2103  0.3122
   14MOL0     H 1860  -0.924   7.452   3.116  2.0065  3.1186  1.7543
   14MOL0     H 1861  -0.813   7.361   3.226  0.1184 -0.1520  0.3494
   14MOL0     H 1862  -0.832   7.283   2.945 -1.6013  1.1765 -0.3511
   14MOL0     H 1863  -0.806   7.176   3.081 -0.9084 -1.4173 -1.1616
   14MOL0     H 1864  -1.019   7.119   3.109 -0.1403 -3.1326 -3.4703
   14MOL0     H 1865  -1.015   7.141   2.940 -1.6309  1.6578 -1.1160
   14MOL0     H 1866  -1.122   7.372   3.110  2.0498  1.6526 -1.6784
   14MOL0     H 1867  -1.101   7.360   2.933 -0.4463  0.3549  0.2697
   14MOL0     H 1868  -1.292   7.169   3.072 -2.4823  1.0720 -0.5714
   14MOL0     H 1869  -1.250   7.176   2.899 -0.5118  0.4499  0.1154
   14MOL0     H 1870  -1.368   7.392   2.872 -1.7737 -0.0633 -0.9351
   14MOL0     H 1871  -1.410   7.390   3.048  1.1514  0.4988 -0.0361
   14MOL0     H 1872  -0.546   7.376   3.497  1.9167  0.0820  1.0642
   14MOL0     H 1873  -0.365   7.363   3.619  1.4587  2.6182  0.1896
   14MOL0     H 1874   0.195   7.536   3.608 -2.5738 -0.1386  1.0212
   14MOL0     H 1875   0.394   7.500   3.745 -1.5212  0.5734  1.8010
   14MOL0     H 1876   1.994   6.758   4.633  1.0039  3.3176 -0.8907
   14MOL0     H 1877   2.195   6.672   4.758 -1.6205  0.0629 -0.6529
   14MOL0     H 1878   2.371   6.678   5.387  0.8301 -0.4292 -0.2677
   14MOL0     H 1879   2.588   6.560   5.452  1.8384 -0.7440 -0.5642
   14MOL0     H 1880   2.819   6.511   5.468 -2.8958  1.9581 -0.8783
   14MOL0     H 1881   2.722   6.364   5.450  0.7423  0.7563  2.8176
   14MOL0     H 1882   2.971   6.332   5.497 -0.0161  1.4253  0.0451
   14MOL0     H 1883   3.007   6.381   5.332 -1.6971 -1.2923 -1.2899
   14MOL0     H 1884   2.849   6.178   5.255  0.0601 -0.6417  0.2499
   14MOL0     H 1885   2.811   6.167   5.429  1.2665  1.9485  2.2429
   14MOL0     H 1886   3.082   6.116   5.301  1.0502 -1.9208  1.1562
   14MOL0     H 1887   2.978   5.991   5.367  1.2614 -0.9704  1.5462
   14MOL0     H 1888   3.158   6.154   5.713 -2.1687  1.1664  1.0886
   14MOL0     H 1889   2.687   6.531   5.030 -0.4268 -0.8137 -0.1421
   14MOL0     H 1890   2.518   6.662   4.978  4.2333  1.9591  1.4444
   15MOL0     O 1891   7.904   4.661   1.876  0.0391 -0.5842  0.0725
   15MOL0     C 1892   8.016   4.635   1.906  0.2452 -0.5494  0.1423
   15MOL0     O 1893   8.110   4.591   1.815  0.1943  0.4243 -0.6407
   15MOL0     C 1894   8.075   4.539   1.688  0.6206  0.4583 -0.1698
   15MOL0     C 1895   8.150   4.575   1.578  0.0980 -0.5102 -0.7939
   15MOL0     C 1896   8.117   4.524   1.448  0.7908  0.1712  0.6036
   15MOL0     C 1897   8.011   4.436   1.435  0.1108  0.9279  0.2527
   15MOL0     O 1898   7.964   4.380   1.320 -0.8387 -0.0661 -0.1609
   15MOL0     C 1899   8.011   4.420   1.188  0.8208 -0.3256  0.1022
   15MOL0     C 1900   7.901   4.393   1.082  0.4925 -0.4418  0.4494
   15MOL0     C 1901   7.883   4.246   1.030 -0.1850 -0.5131 -0.2972
   15MOL0     C 1902   7.835   4.156   1.140 -0.7291  0.5942  0.7194
   15MOL0     C 1903   7.759   4.017   1.102 -0.8764 -0.5598  0.1753
   15MOL0     C 1904   7.851   3.929   1.025 -0.8352  0.0432 -0.1081
   15MOL0     C 1905   7.805   3.785   1.018  0.7671 -1.3083 -0.2990
   15MOL0     C 1906   7.663   3.765   0.954 -0.0656 -0.0027 -0.0047
   15MOL0     N 1907   7.618   3.630   0.937 -0.2831  0.5553  0.7065
   15MOL0     C 1908   7.486   3.604   0.896 -0.4060  0.1976  0.5950
   15MOL0     C 1909   7.491   3.469   0.866 -0.7724 -0.4217  0.5226
   15MOL0     C 1910   7.381   3.385   0.819  0.4804 -0.6522  0.6648
   15MOL0     C 1911   7.378   3.366   0.663 -0.5822  0.0958 -0.6805
   15MOL0     C 1912   7.300   3.480   0.593 -0.4587  0.3950 -1.5265
   15MOL0     C 1913   7.146   3.475   0.598  0.5488  0.8019 -0.4044
   15MOL0     O 1914   7.078   3.592   0.540 -0.5543 -0.2940  0.5752
   15MOL0     C 1915   6.945   3.589   0.515  0.4333 -0.1683  0.5159
   15MOL0     C 1916   6.901   3.694   0.443 -0.4687  1.3428 -0.2300
   15MOL0     C 1917   6.767   3.711   0.410  0.3460  0.2326 -0.5236
   15MOL0     C 1918   6.741   3.836   0.326  0.6592 -0.1565 -0.2807
   15MOL0     C 1919   6.669   3.620   0.463 -0.1605 -0.1663 -0.4378
   15MOL0     C 1920   6.517   3.638   0.451  0.7178  0.1079 -0.8986
   15MOL0     O 1921   6.462   3.760   0.431 -0.8666  0.6121 -0.2177
   15MOL0     C 1922   6.328   3.767   0.403 -0.3712  0.3456  0.7993
   15MOL0     C 1923   6.290   3.776   0.271 -0.3311  0.9770 -0.2890
   15MOL0     C 1924   6.159   3.809   0.245  0.4291  0.6470  0.1344
   15MOL0     C 1925   6.050   3.810   0.340  0.4234 -0.1327 -0.5421
   15MOL0     O 1926   5.921   3.837   0.302  0.4093 -0.4887  0.8927
   15MOL0     C 1927   5.821   3.898   0.392  0.0349  0.1418 -0.2819
   15MOL0     C 1928   5.754   3.782   0.471 -0.1082  0.0649  0.1141
   15MOL0     C 1929   5.648   3.827   0.564 -0.3541  1.0915 -0.8597
   15MOL0     C 1930   5.596   3.723   0.669  0.5894 -0.8283 -0.0264
   15MOL0     C 1931   5.517   3.789   0.782 -0.6418 -0.8682  0.5477
   15MOL0     C 1932   5.385   3.844   0.733  0.7392 -0.1241  0.4812
   15MOL0     C 1933   5.287   3.858   0.851 -0.0909  0.0382 -0.4882
   15MOL0     C 1934   5.138   3.835   0.821 -0.6187  0.1718  0.3258
   15MOL0    Cl 1935   5.086   3.923   0.665  0.2448  0.1006 -0.1628
   15MOL0     C 1936   6.095   3.795   0.475 -0.1272 -0.3397  0.6378
   15MOL0     C 1937   6.231   3.769   0.506 -0.4322  0.6706  0.6046
   15MOL0     O 1938   6.449   3.543   0.479  1.2359  0.1255 -0.0343
   15MOL0     C 1939   6.709   3.519   0.543 -0.5028  0.1571  0.5260
   15MOL0     C 1940   6.850   3.498   0.560 -0.1330  0.0488 -0.1452
   15MOL0     N 1941   7.622   3.419   0.874  0.0271  0.1624 -0.6061
   15MOL0     N 1942   7.695   3.519   0.924  0.2534 -0.3727 -0.7595
   15MOL0     C 1943   7.937   4.414   1.545  0.4495  0.6874  0.4288
   15MOL0     C 1944   7.967   4.455   1.675  0.0272  0.7568  0.0519
   15MOL0     C 1945   8.061   4.655   2.042  0.3660  0.1793 -0.4592
   15MOL0     C 1946   8.162   4.582   2.111  0.3263  0.5236 -0.5719
   15MOL0     C 1947   8.173   4.593   2.255  0.1226  0.0002  0.6090
   15MOL0     C 1948   8.099   4.688   2.328  0.0109 -0.2353 -0.4158
   15MOL0     O 1949   8.120   4.693   2.462  0.7176 -0.3297 -0.1302
   15MOL0     C 1950   8.037   4.781   2.544  0.6381 -1.0377  0.6729
   15MOL0     C 1951   8.056   4.742   2.685  0.8224 -0.4768  0.7636
   15MOL0     C 1952   8.203   4.766   2.725  0.1868 -0.1866 -0.0081
   15MOL0     C 1953   8.217   4.833   2.863  0.5853 -0.6027  0.0638
   15MOL0     C 1954   8.356   4.880   2.883  0.2482  0.4991 -0.7286
   15MOL0     C 1955   8.473   4.905   2.888  0.9055 -0.3513  0.0926
   15MOL0     C 1956   8.008   4.770   2.258  0.3484  0.6064 -0.5973
   15MOL0     C 1957   7.988   4.751   2.121 -0.4276  0.2328 -0.1825
   15MOL0     H 1958   8.237   4.638   1.591 -0.6121  0.1091  1.4915
   15MOL0     H 1959   8.180   4.561   1.368  0.7790  0.2531  0.6316
   15MOL0     H 1960   8.039   4.526   1.200  0.1935 -0.2780  1.2597
   15MOL0     H 1961   8.103   4.369   1.159  1.6252  0.6922  0.7886
   15MOL0     H 1962   7.806   4.444   1.102  0.2682 -0.4806 -0.4574
   15MOL0     H 1963   7.929   4.435   0.985  3.0213 -3.5886 -0.3899
   15MOL0     H 1964   7.814   4.251   0.946 -1.3047 -0.1278  0.6223
   15MOL0     H 1965   7.976   4.210   0.984  0.1526 -0.7352  0.5335
   15MOL0     H 1966   7.923   4.123   1.195  0.1245 -0.5040 -1.2196
   15MOL0     H 1967   7.764   4.207   1.207 -0.9068 -0.9886  1.7870
   15MOL0     H 1968   7.722   3.975   1.196 -1.0783  0.1821  0.4350
   15MOL0     H 1969   7.676   4.051   1.040 -0.4304  0.5740  0.1717
   15MOL0     H 1970   7.851   3.963   0.921  1.0863  0.1221 -0.1219
   15MOL0     H 1971   7.953   3.927   1.067 -1.0565 -1.0295  0.3965
   15MOL0     H 1972   7.889   3.728   0.976  2.4415 -0.0676  1.2033
   15MOL0     H 1973   7.804   3.746   1.121  0.3753  1.8967  1.0090
   15MOL0     H 1974   7.658   3.818   0.858 -3.9093  0.1067  0.0757
   15MOL0     H 1975   7.585   3.805   1.019 -2.1734 -1.9744 -1.1466
   15MOL0     H 1976   7.400   3.670   0.887 -0.5376  0.0206  0.5407
   15MOL0     H 1977   7.394   3.294   0.878  4.0227  1.5843  3.6961
   15MOL0     H 1978   7.287   3.431   0.852  1.2523 -0.5635  2.8925
   15MOL0     H 1979   7.340   3.267   0.638 -1.9445  0.7645 -1.3767
   15MOL0     H 1980   7.481   3.367   0.625 -0.3970 -1.1391 -0.2381
   15MOL0     H 1981   7.327   3.458   0.489  0.0693 -4.1768 -0.6345
   15MOL0     H 1982   7.339   3.576   0.630  0.2814 -1.9198  5.0104
   15MOL0     H 1983   7.110   3.461   0.700 -1.0521 -2.6689 -1.2932
   15MOL0     H 1984   7.116   3.382   0.547 -1.6485 -0.9308  3.5892
   15MOL0     H 1985   6.976   3.767   0.414 -0.0895  1.5575  1.2010
   15MOL0     H 1986   6.823   3.857   0.258 -0.3247  0.2457 -1.3724
   15MOL0     H 1987   6.656   3.819   0.260  0.8918 -1.1247 -0.3426
   15MOL0     H 1988   6.730   3.927   0.386  0.7358 -0.3635  0.0495
   15MOL0     H 1989   6.362   3.754   0.193  0.0888  1.9980 -0.1968
   15MOL0     H 1990   6.137   3.841   0.143 -1.5856  2.3360  1.0419
   15MOL0     H 1991   5.869   3.967   0.463 -1.3246  0.4433  0.3694
   15MOL0     H 1992   5.747   3.955   0.336  0.4536  0.8129 -0.1604
   15MOL0     H 1993   5.716   3.718   0.391 -1.0900  0.5039  0.2096
   15MOL0     H 1994   5.833   3.738   0.532 -0.2861  1.0588  1.1063
   15MOL0     H 1995   5.559   3.845   0.503 -0.1061  2.2585 -0.9091
   15MOL0     H 1996   5.671   3.922   0.614  0.7250  1.9500 -2.9018
   15MOL0     H 1997   5.537   3.643   0.622  0.8172 -3.9195  4.3323
   15MOL0     H 1998   5.677   3.662   0.711  0.1805 -2.6274 -1.7060
   15MOL0     H 1999   5.563   3.873   0.835  1.1295 -1.5501  0.1552
   15MOL0     H 2000   5.493   3.708   0.851 -0.0274 -1.7871 -0.2947
   15MOL0     H 2001   5.393   3.939   0.680 -2.0937  1.3469  2.3936
   15MOL0     H 2002   5.333   3.772   0.669 -2.6877  1.9092  0.7201
   15MOL0     H 2003   5.306   3.957   0.892 -0.9830  0.0420 -0.0590
   15MOL0     H 2004   5.296   3.780   0.928  1.7030 -0.0774 -0.7564
   15MOL0     H 2005   5.082   3.880   0.904  0.7875  1.3385  0.6905
   15MOL0     H 2006   5.111   3.731   0.802  0.3091 -0.3399  1.7013
   15MOL0     H 2007   6.031   3.785   0.562 -0.2879 -0.3827  0.5145
   15MOL0     H 2008   6.244   3.758   0.613 -1.7026 -0.1865  0.6929
   15MOL0     H 2009   6.635   3.445   0.574  1.6064 -2.8608 -1.0983
   15MOL0     H 2010   6.881   3.418   0.626 -1.8920 -0.3655  0.2318
   15MOL0     H 2011   7.846   4.357   1.530 -0.1059  1.7420 -0.3186
   15MOL0     H 2012   7.905   4.413   1.754  2.3325 -1.7785  0.6630
   15MOL0     H 2013   8.222   4.508   2.058 -1.1869 -0.7558 -0.5772
   15MOL0     H 2014   8.239   4.525   2.307 -1.9031 -1.2264  1.7027
   15MOL0     H 2015   8.053   4.889   2.541 -5.0649  0.2618  2.6625
   15MOL0     H 2016   7.932   4.762   2.519  1.1918 -0.3808 -2.5284
   15MOL0     H 2017   8.033   4.637   2.708 -0.4175 -0.4072 -0.0421
   15MOL0     H 2018   7.983   4.796   2.746 -1.5257 -0.2703 -2.0404
   15MOL0     H 2019   8.249   4.829   2.648 -0.4871 -2.1259 -2.0975
   15MOL0     H 2020   8.264   4.676   2.736  1.7196  0.6974 -0.9462
   15MOL0     H 2021   8.177   4.765   2.939 -1.2608  0.8423  0.4561
   15MOL0     H 2022   8.158   4.925   2.857  1.4496 -0.0412 -0.0461
   15MOL0     H 2023   8.577   4.930   2.884  0.9178 -0.1164  1.2759
   15MOL0     H 2024   7.942   4.842   2.305  0.1577 -1.0322  1.8374
   15MOL0     H 2025   7.914   4.825   2.092  1.2336  2.8251  1.7223
   16MOL0     O 2026   8.261   1.634   3.628 -0.9620  0.3652  0.2060
   16MOL0     C 2027   8.147   1.615   3.579 -0.5267 -0.9627  0.3830
   16MOL0     O 2028   8.108   1.505   3.509 -0.4379  0.1363  0.2125
   16MOL0     C 2029   8.152   1.380   3.546 -0.4156  0.1446 -0.3111
   16MOL0     C 2030   8.155   1.280   3.451 -0.1379  0.1511  0.0741
   16MOL0     C 2031   8.208   1.149   3.471 -0.6914  0.1475 -0.0592
   16MOL0     C 2032   8.236   1.114   3.596 -0.2359 -0.4910  0.1734
   16MOL0     O 2033   8.279   0.988   3.626 -0.6275  0.4728 -0.2556
   16MOL0     C 2034   8.209   0.922   3.725  0.4036  0.9099 -0.5497
   16MOL0     C 2035   8.306   0.822   3.785 -0.1401  0.8764  0.2464
   16MOL0     C 2036   8.256   0.769   3.915 -0.6273 -0.0813 -0.8274
   16MOL0     C 2037   8.370   0.690   3.994 -0.1347 -0.3501  0.6893
   16MOL0     C 2038   8.302   0.616   4.118 -0.3894  0.3011  0.0628
   16MOL0     C 2039   8.411   0.567   4.211 -0.1202 -0.3923 -0.8621
   16MOL0     C 2040   8.337   0.522   4.342  0.1553 -0.1595 -0.3315
   16MOL0     C 2041   8.431   0.513   4.455 -0.5063  0.4460  0.4112
   16MOL0     N 2042   8.554   0.432   4.431  1.1718  0.1556 -0.2915
   16MOL0     C 2043   8.561   0.306   4.374 -0.3396  0.2773  0.0116
   16MOL0     C 2044   8.699   0.278   4.385 -0.4124  0.8462 -0.9844
   16MOL0     C 2045   8.770   0.154   4.340  0.2637  0.6673  0.0314
   16MOL0     C 2046   8.867   0.183   4.228 -0.1034 -0.3991 -0.2428
   16MOL0     C 2047   8.807   0.238   4.093  0.1895  0.6315 -1.1025
   16MOL0     C 2048   8.750   0.123   4.004  0.0171 -0.8858 -0.5291
   16MOL0     O 2049   8.690   0.161   3.878 -0.1603 -0.0980  0.3982
   16MOL0     C 2050   8.566   0.227   3.868  0.1243  1.0192  0.6149
   16MOL0     C 2051   8.535   0.272   3.739 -0.5384 -0.1196 -0.5405
   16MOL0     C 2052   8.408   0.325   3.716 -0.1242 -0.0523  0.9951
   16MOL0     C 2053   8.401   0.394   3.580 -0.2212 -0.6405  0.6463
   16MOL0     C 2054   8.313   0.336   3.824 -0.0131  0.4162  0.9930
   16MOL0     C 2055   8.185   0.393   3.799  0.1917  0.0014  0.1013
   16MOL0     O 2056   8.081   0.328   3.863 -0.3917 -0.3525  0.5045
   16MOL0     C 2057   7.967   0.404   3.865 -0.3629 -0.1200 -1.0395
   16MOL0     C 2058   7.943   0.475   3.980  0.4093  0.0588 -0.3128
   16MOL0     C 2059   7.824   0.546   3.989 -0.3126  0.4429 -0.3824
   16MOL0     C 2060   7.721   0.528   3.894 -1.2867  0.1640  0.2470
   16MOL0     O 2061   7.605   0.598   3.912 -0.7305  0.0237 -0.3105
   16MOL0     C 2062   7.481   0.556   3.859  0.4882 -0.4284  0.4298
   16MOL0     C 2063   7.357   0.631   3.921  0.5681  0.5129 -0.8641
   16MOL0     C 2064   7.229   0.546   3.886 -0.4394  0.3551 -0.3612
   16MOL0     C 2065   7.102   0.619   3.937  0.1902 -0.1812 -0.5798
   16MOL0     C 2066   6.980   0.540   3.896 -0.5304 -0.0608 -0.1194
   16MOL0     C 2067   6.852   0.595   3.970  0.3815  0.2387  0.2899
   16MOL0     C 2068   6.818   0.736   3.924  0.0680  0.0681  0.4917
   16MOL0     C 2069   6.687   0.775   3.974 -0.3411 -0.2457 -0.1492
   16MOL0    Cl 2070   6.631   0.916   3.873  0.0362  0.4711  0.5787
   16MOL0     C 2071   7.743   0.448   3.779 -0.6280  0.7102  0.6578
   16MOL0     C 2072   7.871   0.391   3.762 -0.1642 -0.7593  0.0134
   16MOL0     O 2073   8.179   0.502   3.752  0.0603 -0.3867  0.5423
   16MOL0     C 2074   8.343   0.277   3.942  0.1414  0.5259 -0.4624
   16MOL0     C 2075   8.469   0.226   3.968  0.6155  0.0031 -1.5787
   16MOL0     N 2076   8.750   0.375   4.463 -0.5840 -0.6390 -0.2071
   16MOL0     N 2077   8.668   0.468   4.493  0.8224 -0.2008  0.5705
   16MOL0     C 2078   8.232   1.212   3.705  0.7145 -0.2035  0.3107
   16MOL0     C 2079   8.193   1.344   3.676 -0.1054 -0.9038  0.1319
   16MOL0     C 2080   8.061   1.738   3.565  0.1134 -1.1324 -0.2653
   16MOL0     C 2081   7.922   1.726   3.510 -1.1171 -0.3296 -0.1970
   16MOL0     C 2082   7.846   1.846   3.489 -0.7494  0.0276  0.0662
   16MOL0     C 2083   7.891   1.973   3.529 -0.6184  0.1713 -0.3576
   16MOL0     O 2084   7.821   2.093   3.510 -1.1803  0.1220 -0.3411
   16MOL0     C 2085   7.685   2.092   3.485 -0.1469  0.0037  0.1414
   16MOL0     C 2086   7.636   2.231   3.510  0.3012  0.7543 -0.5606
   16MOL0     C 2087   7.628   2.253   3.668  0.2758 -0.5329  1.3595
   16MOL0     C 2088   7.613   2.401   3.691 -0.1939 -0.0085  0.3533
   16MOL0     C 2089   7.470   2.430   3.659  0.3965 -0.2258  0.4046
   16MOL0     C 2090   7.355   2.433   3.629  0.0727 -0.5416 -0.1872
   16MOL0     C 2091   8.018   1.981   3.590  0.6400  1.1128 -0.4240
   16MOL0     C 2092   8.098   1.866   3.616 -0.2956  0.2053 -0.4160
   16MOL0     H 2093   8.134   1.299   3.347 -0.6036  0.2889  0.1933
   16MOL0     H 2094   8.222   1.082   3.387 -0.1760  0.7485 -0.4634
   16MOL0     H 2095   8.165   0.989   3.799 -0.8560  0.9598 -1.3020
   16MOL0     H 2096   8.121   0.876   3.677  2.0189  0.6855 -3.5273
   16MOL0     H 2097   8.312   0.735   3.719  1.6280 -0.8873  2.5513
   16MOL0     H 2098   8.405   0.866   3.800 -0.8726  3.2562 -1.3161
   16MOL0     H 2099   8.219   0.851   3.976  2.5777  2.0579 -1.5058
   16MOL0     H 2100   8.165   0.709   3.904 -0.8301  0.2647 -1.0058
   16MOL0     H 2101   8.409   0.613   3.927 -4.5156 -1.4267 -0.9750
   16MOL0     H 2102   8.454   0.756   4.016 -1.3015  0.7057  2.2732
   16MOL0     H 2103   8.235   0.680   4.177 -0.6608 -0.8505  1.0618
   16MOL0     H 2104   8.248   0.531   4.076  2.0110  0.3354 -3.4824
   16MOL0     H 2105   8.467   0.485   4.165 -0.2486  0.2794 -2.2472
   16MOL0     H 2106   8.481   0.650   4.227 -1.0339  0.4605 -1.2020
   16MOL0     H 2107   8.252   0.584   4.373 -1.2296 -2.3396  0.4442
   16MOL0     H 2108   8.304   0.419   4.329  2.4913 -1.0995  0.6278
   16MOL0     H 2109   8.380   0.476   4.545  0.9715 -0.5366  0.8870
   16MOL0     H 2110   8.465   0.612   4.486 -0.4426 -0.2455  2.7977
   16MOL0     H 2111   8.486   0.255   4.314  1.1719  0.3804 -2.0788
   16MOL0     H 2112   8.820   0.113   4.428 -1.0047  1.1232  0.9918
   16MOL0     H 2113   8.699   0.079   4.304  1.3231  0.0731 -0.8949
   16MOL0     H 2114   8.925   0.091   4.215 -3.3015 -2.6565  0.3305
   16MOL0     H 2115   8.942   0.260   4.250  1.2592 -1.3153 -1.4148
   16MOL0     H 2116   8.875   0.300   4.035 -1.1707  2.1995 -1.0980
   16MOL0     H 2117   8.726   0.303   4.129 -1.1041 -2.2184  1.7279
   16MOL0     H 2118   8.683   0.054   4.056 -1.2749 -0.8450 -2.1010
   16MOL0     H 2119   8.833   0.057   3.979 -0.5340 -2.0737  0.6731
   16MOL0     H 2120   8.607   0.262   3.658 -0.6982 -2.0505 -0.4911
   16MOL0     H 2121   8.297   0.403   3.548 -0.0291  1.3096  0.4419
   16MOL0     H 2122   8.444   0.494   3.589  0.7892 -0.9600 -0.2888
   16MOL0     H 2123   8.471   0.362   3.502 -0.3289 -1.4662  0.8814
   16MOL0     H 2124   8.025   0.488   4.049  1.7704 -1.9047 -1.4475
   16MOL0     H 2125   7.809   0.601   4.081  1.0620  0.1646  0.0418
   16MOL0     H 2126   7.479   0.582   3.753  1.1397 -2.3633 -0.0771
   16MOL0     H 2127   7.459   0.449   3.864  0.8893 -0.5001  0.6794
   16MOL0     H 2128   7.368   0.653   4.027 -3.2801  0.7211 -0.3835
   16MOL0     H 2129   7.355   0.732   3.878 -0.7275  0.8017 -0.1452
   16MOL0     H 2130   7.236   0.447   3.933  0.0603 -0.6199 -2.3574
   16MOL0     H 2131   7.232   0.530   3.778  1.3975 -1.9718 -0.0724
   16MOL0     H 2132   7.105   0.638   4.045  0.4340  0.8348 -0.7626
   16MOL0     H 2133   7.102   0.715   3.885 -0.2589  2.7167  4.1106
   16MOL0     H 2134   6.991   0.437   3.934  1.7184  0.8576  1.9757
   16MOL0     H 2135   6.979   0.538   3.787  0.4896 -0.4644 -0.1355
   16MOL0     H 2136   6.776   0.520   3.947  1.4966 -0.4971 -1.2152
   16MOL0     H 2137   6.871   0.595   4.077 -1.2230  5.4278  0.8329
   16MOL0     H 2138   6.808   0.731   3.816 -0.6988  3.4052  0.3109
   16MOL0     H 2139   6.905   0.802   3.934  1.1745 -0.8501 -2.3113
   16MOL0     H 2140   6.696   0.805   4.079  0.7208 -0.5478 -0.1398
   16MOL0     H 2141   6.608   0.701   3.960 -0.0120 -0.8923  1.2792
   16MOL0     H 2142   7.680   0.463   3.692 -1.0596  1.6781  1.1122
   16MOL0     H 2143   7.898   0.336   3.672  1.2868 -0.0877  0.0099
   16MOL0     H 2144   8.277   0.286   4.028 -1.5914  0.1922 -1.7229
   16MOL0     H 2145   8.494   0.204   4.071  0.2057  3.2530 -0.6762
   16MOL0     H 2146   8.264   1.172   3.800  1.5623 -0.8509 -0.2307
   16MOL0     H 2147   8.202   1.420   3.753  3.3593 -0.4193 -0.5977
   16MOL0     H 2148   7.882   1.632   3.474 -1.5351 -0.1374 -0.2381
   16MOL0     H 2149   7.747   1.834   3.447 -0.3004 -1.5836 -0.5864
   16MOL0     H 2150   7.678   2.077   3.377  0.1052 -0.0104  0.1284
   16MOL0     H 2151   7.632   2.009   3.534  0.1131  0.1577  0.6876
   16MOL0     H 2152   7.537   2.244   3.466 -0.7926 -0.2343  1.4614
   16MOL0     H 2153   7.703   2.297   3.455 -1.2490  1.9788 -1.0295
   16MOL0     H 2154   7.722   2.227   3.718  0.6345  0.3774  1.1752
   16MOL0     H 2155   7.554   2.193   3.722 -1.6409  0.3761 -0.1399
   16MOL0     H 2156   7.676   2.446   3.614 -0.4509 -3.7544 -2.3300
   16MOL0     H 2157   7.639   2.421   3.796  0.7195 -2.1442  0.5823
   16MOL0     H 2158   7.249   2.426   3.611  0.3112 -3.3292 -0.9272
   16MOL0     H 2159   8.063   2.078   3.609 -0.7558  1.2887  2.6540
   16MOL0     H 2160   8.190   1.878   3.673  0.0788 -3.9751  0.2051
   17MOL0     O 2161  10.303   0.541   6.169  0.5243 -0.4749 -0.0553
   17MOL0     C 2162  10.366   0.554   6.272 -0.4797 -0.4221 -0.1890
   17MOL0     O 2163  10.349   0.663   6.362 -0.4387  0.0014  0.5873
   17MOL0     C 2164  10.244   0.738   6.339 -0.6675 -0.3690 -0.3745
   17MOL0     C 2165  10.257   0.854   6.252 -0.3414  0.1797 -0.5224
   17MOL0     C 2166  10.144   0.930   6.220 -0.2135  0.5786  0.0846
   17MOL0     C 2167  10.016   0.905   6.273  0.2026  0.1333  0.6621
   17MOL0     O 2168   9.919   1.004   6.250  0.5848  0.6109 -0.5429
   17MOL0     C 2169   9.816   1.027   6.344  0.9087  0.0411 -0.5771
   17MOL0     C 2170   9.710   1.120   6.290 -0.0305  0.0523  0.1054
   17MOL0     C 2171   9.581   1.116   6.375  0.0334 -0.0063 -0.3616
   17MOL0     C 2172   9.469   1.210   6.304  0.4908  0.2149  0.1058
   17MOL0     C 2173   9.342   1.218   6.382 -0.0745 -0.0609 -0.2573
   17MOL0     C 2174   9.255   1.324   6.300 -0.8253 -0.6502 -1.0315
   17MOL0     C 2175   9.106   1.323   6.341  0.3051  0.3302 -0.4618
   17MOL0     C 2176   9.024   1.422   6.250 -0.0874 -0.9825  0.1597
   17MOL0     N 2177   8.883   1.382   6.265 -0.2338  0.0718  0.8978
   17MOL0     C 2178   8.796   1.465   6.324 -0.4318  0.1582  0.5874
   17MOL0     C 2179   8.679   1.427   6.276  0.4724 -0.6329  0.9121
   17MOL0     C 2180   8.549   1.499   6.311  0.4633 -0.9019  0.4866
   17MOL0     C 2181   8.513   1.621   6.224 -0.3109  0.6083 -0.3122
   17MOL0     C 2182   8.414   1.723   6.280 -0.2142  0.1781 -0.2790
   17MOL0     C 2183   8.487   1.825   6.377 -0.1202  0.4907 -0.6906
   17MOL0     O 2184   8.397   1.853   6.490  0.0183 -0.4437 -0.4329
   17MOL0     C 2185   8.299   1.948   6.481 -0.4889 -0.0971  0.9453
   17MOL0     C 2186   8.326   2.089   6.490 -0.3842 -0.3668  0.3756
   17MOL0     C 2187   8.227   2.191   6.483 -0.1882 -0.1708 -0.0712
   17MOL0     C 2188   8.264   2.326   6.526 -0.0632  0.7592 -0.3497
   17MOL0     C 2189   8.095   2.151   6.452 -0.6837  0.4621  0.9530
   17MOL0     C 2190   7.987   2.245   6.431  1.4261  0.6231  0.7371
   17MOL0     O 2191   7.859   2.199   6.438 -0.1747 -0.1890  0.1198
   17MOL0     C 2192   7.763   2.271   6.376 -0.6848 -0.5167 -0.9371
   17MOL0     C 2193   7.674   2.357   6.439 -0.7479 -0.2539  0.8405
   17MOL0     C 2194   7.571   2.419   6.372  0.3920  0.2445  0.8966
   17MOL0     C 2195   7.551   2.400   6.232  0.1473 -0.3817 -0.1336
   17MOL0     O 2196   7.468   2.471   6.147 -0.6594  0.8399  0.1341
   17MOL0     C 2197   7.350   2.521   6.196  0.1234 -0.7225 -0.3377
   17MOL0     C 2198   7.230   2.425   6.185 -0.8764  0.2391  0.5514
   17MOL0     C 2199   7.106   2.483   6.259 -0.8426  0.3900  0.2808
   17MOL0     C 2200   6.984   2.402   6.211  0.4233 -0.1951 -0.1937
   17MOL0     C 2201   6.859   2.422   6.294 -0.2268 -0.7885  0.3817
   17MOL0     C 2202   6.735   2.356   6.238 -0.2334  0.2005  0.5814
   17MOL0     C 2203   6.621   2.386   6.328  0.5528  0.1333 -0.2847
   17MOL0     C 2204   6.502   2.291   6.315  0.5129  0.1533  1.1448
   17MOL0    Cl 2205   6.440   2.244   6.150 -0.2319  0.0963  0.1000
   17MOL0     C 2206   7.641   2.319   6.167  0.9017  0.5851 -0.5356
   17MOL0     C 2207   7.747   2.255   6.236 -0.4569  0.3035  0.8589
   17MOL0     O 2208   8.015   2.358   6.400  0.6419  0.3099  0.7566
   17MOL0     C 2209   8.068   2.017   6.437 -0.2720  0.0055 -0.5883
   17MOL0     C 2210   8.164   1.913   6.444 -0.3860 -0.1976 -0.2329
   17MOL0     N 2211   8.702   1.316   6.196  1.1956 -0.2411 -0.3097
   17MOL0     N 2212   8.827   1.291   6.179  0.1230 -0.4483  0.3649
   17MOL0     C 2213  10.006   0.791   6.362 -0.6436 -0.9710  0.4387
   17MOL0     C 2214  10.120   0.716   6.397  0.4142 -0.2553 -0.4481
   17MOL0     C 2215  10.461   0.445   6.309 -0.3988 -0.0690  0.4483
   17MOL0     C 2216  10.544   0.467   6.416 -0.6038 -0.0693 -0.5662
   17MOL0     C 2217  10.632   0.363   6.464 -0.1563  0.2561  1.3075
   17MOL0     C 2218  10.626   0.236   6.405 -0.5075  0.2171 -0.4917
   17MOL0     O 2219  10.711   0.144   6.458 -0.4323 -0.2239  0.7578
   17MOL0     C 2220  10.694   0.005   6.432 -0.4391  0.0758 -0.0096
   17MOL0     C 2221  10.567  -0.057   6.518 -0.3080  0.4203 -1.4242
   17MOL0     C 2222  10.539  -0.011   6.662 -0.5301  0.3697 -0.0875
   17MOL0     C 2223  10.437  -0.102   6.732  0.6756  1.1808 -0.1911
   17MOL0     C 2224  10.497  -0.205   6.809  0.3287  0.9578  0.1156
   17MOL0     C 2225  10.542  -0.308   6.858  0.1028 -1.1816  0.2655
   17MOL0     C 2226  10.536   0.216   6.300 -0.3572  0.2394 -0.4274
   17MOL0     C 2227  10.452   0.316   6.253 -0.1567  0.3547 -0.3114
   17MOL0     H 2228  10.353   0.885   6.211  0.0529  2.6463  1.9815
   17MOL0     H 2229  10.160   1.018   6.157 -0.8336  0.6017 -0.0423
   17MOL0     H 2230   9.755   0.939   6.362  0.3279  0.3174 -1.1432
   17MOL0     H 2231   9.860   1.063   6.438  0.0482  2.7849 -1.1251
   17MOL0     H 2232   9.746   1.223   6.297  1.7856 -0.6293  1.5325
   17MOL0     H 2233   9.684   1.100   6.186  0.7210  1.0244 -0.2851
   17MOL0     H 2234   9.539   1.015   6.377 -1.2795  0.4558 -2.1336
   17MOL0     H 2235   9.607   1.146   6.477 -2.1129 -0.9212  0.5005
   17MOL0     H 2236   9.520   1.305   6.288  2.8167 -0.9201  0.4955
   17MOL0     H 2237   9.444   1.177   6.203  1.2506  0.7062 -0.2537
   17MOL0     H 2238   9.295   1.120   6.384  1.5612 -0.8712  1.4455
   17MOL0     H 2239   9.354   1.254   6.485 -0.2144 -1.5665  0.2989
   17MOL0     H 2240   9.297   1.424   6.317  1.4203 -1.5906 -0.7168
   17MOL0     H 2241   9.266   1.304   6.193 -2.5640 -2.9017 -0.8627
   17MOL0     H 2242   9.065   1.222   6.334 -0.6528  0.7818 -1.8096
   17MOL0     H 2243   9.080   1.342   6.445 -1.1298 -3.7900  0.1531
   17MOL0     H 2244   9.057   1.409   6.146  0.7541  1.7286  0.0057
   17MOL0     H 2245   9.039   1.528   6.274 -1.2573 -0.2141 -2.1608
   17MOL0     H 2246   8.809   1.540   6.402  2.7397 -0.6941  0.9844
   17MOL0     H 2247   8.463   1.432   6.299  0.8260 -1.1362 -0.9661
   17MOL0     H 2248   8.548   1.526   6.417 -1.0814 -2.0638  0.8037
   17MOL0     H 2249   8.475   1.581   6.130  1.4924  1.4684 -1.4547
   17MOL0     H 2250   8.603   1.682   6.210  0.0907  1.1767  3.5712
   17MOL0     H 2251   8.330   1.683   6.339  0.1314  1.2229  0.9781
   17MOL0     H 2252   8.361   1.769   6.197 -1.0145 -0.7652 -0.3164
   17MOL0     H 2253   8.511   1.912   6.315 -2.2964 -0.7803 -3.5938
   17MOL0     H 2254   8.577   1.774   6.412  1.5816  1.6224 -3.1555
   17MOL0     H 2255   8.430   2.113   6.507 -0.2709  1.6429 -2.4462
   17MOL0     H 2256   8.271   2.396   6.441 -1.8719  1.7479  0.2788
   17MOL0     H 2257   8.194   2.365   6.600  0.6647  1.4877 -0.0270
   17MOL0     H 2258   8.363   2.326   6.572 -0.8925  5.0026  1.9470
   17MOL0     H 2259   7.687   2.367   6.546 -0.2864 -3.6614  1.2188
   17MOL0     H 2260   7.508   2.488   6.427 -1.4423  0.1291 -0.9395
   17MOL0     H 2261   7.358   2.557   6.299  2.0593 -1.3215 -0.2401
   17MOL0     H 2262   7.332   2.617   6.146 -0.1454  0.6251  2.1744
   17MOL0     H 2263   7.201   2.404   6.082 -2.2807 -1.2244  1.1904
   17MOL0     H 2264   7.268   2.333   6.232 -1.3640  0.9424  2.4401
   17MOL0     H 2265   7.093   2.591   6.249 -3.6586 -0.0149 -1.5640
   17MOL0     H 2266   7.127   2.460   6.364  0.7673  1.0539  0.1388
   17MOL0     H 2267   6.965   2.427   6.106 -0.8427 -2.2052 -0.4816
   17MOL0     H 2268   7.011   2.297   6.225  0.4930  0.0126  1.3968
   17MOL0     H 2269   6.840   2.529   6.292 -1.1774 -0.9255  1.2876
   17MOL0     H 2270   6.874   2.396   6.399 -3.3693 -1.0637  0.8449
   17MOL0     H 2271   6.718   2.385   6.134 -0.3208 -2.3374 -0.1689
   17MOL0     H 2272   6.746   2.248   6.229 -1.2266  0.2309 -1.9808
   17MOL0     H 2273   6.582   2.488   6.320  2.4156  0.9700  0.7912
   17MOL0     H 2274   6.644   2.363   6.433  2.4156 -0.2840 -0.7473
   17MOL0     H 2275   6.425   2.359   6.353 -0.8722 -0.7837  0.1136
   17MOL0     H 2276   6.506   2.197   6.371  1.3664 -0.3020  0.3383
   17MOL0     H 2277   7.626   2.311   6.060  0.7484  0.9064 -0.5380
   17MOL0     H 2278   7.826   2.202   6.183  1.5270  2.3456  1.6013
   17MOL0     H 2279   7.967   1.984   6.419 -0.5187 -0.0236  0.7996
   17MOL0     H 2280   8.145   1.808   6.429  1.1910 -0.4894 -0.3536
   17MOL0     H 2281   9.915   0.770   6.415 -0.3348 -1.4633  0.7799
   17MOL0     H 2282  10.095   0.641   6.471 -1.6577  1.9704  1.2915
   17MOL0     H 2283  10.542   0.562   6.469  0.9565 -0.4717  0.2871
   17MOL0     H 2284  10.701   0.393   6.542 -0.8647  0.4710  1.8613
   17MOL0     H 2285  10.678  -0.016   6.326 -3.0959  2.0412 -0.0939
   17MOL0     H 2286  10.791  -0.039   6.458  0.9942  1.7467 -2.1081
   17MOL0     H 2287  10.593  -0.163   6.520 -0.1684  0.4526  0.4475
   17MOL0     H 2288  10.468  -0.054   6.472 -1.7962  2.2160  1.5511
   17MOL0     H 2289  10.484   0.084   6.659 -2.0305 -0.4894 -1.2494
   17MOL0     H 2290  10.632  -0.014   6.720  0.9868 -1.1587 -2.4295
   17MOL0     H 2291  10.380  -0.140   6.647 -0.9548  0.9935  0.9453
   17MOL0     H 2292  10.371  -0.043   6.796 -0.0374  1.7957 -1.4539
   17MOL0     H 2293  10.582  -0.401   6.893 -1.7263 -0.6676  4.1985
   17MOL0     H 2294  10.516   0.120   6.254 -2.3771  0.8883 -1.0241
   17MOL0     H 2295  10.379   0.291   6.177 -4.4435  1.9904  2.8514
   18MOL0     O 2296   2.694  10.530   6.806 -0.0348 -0.0500 -0.7424
   18MOL0     C 2297   2.768  10.544   6.907 -0.2073  0.1227  1.3845
   18MOL0     O 2298   2.770  10.461   7.016  0.9056 -0.3276 -0.2451
   18MOL0     C 2299   2.689  10.352   7.039  0.2751 -1.0225 -0.3776
   18MOL0     C 2300   2.564  10.335   6.977 -0.1109  0.0735 -1.0608
   18MOL0     C 2301   2.496  10.216   6.995  0.6478 -0.0151 -0.3173
   18MOL0     C 2302   2.542  10.114   7.074  0.1840 -0.3582  0.5536
   18MOL0     O 2303   2.469   9.998   7.077  0.0743 -0.1440 -0.0806
   18MOL0     C 2304   2.521   9.884   7.147 -0.2329  0.0199  0.3829
   18MOL0     C 2305   2.456   9.749   7.121  0.5139 -0.2149 -0.3353
   18MOL0     C 2306   2.311   9.756   7.156 -0.0661  0.2844 -0.3294
   18MOL0     C 2307   2.276   9.780   7.302 -0.1766  0.0386 -0.6998
   18MOL0     C 2308   2.129   9.748   7.333  0.6663 -1.1971  0.5650
   18MOL0     C 2309   2.040   9.872   7.305 -0.0355 -0.2011 -0.6740
   18MOL0     C 2310   1.887   9.844   7.289 -1.0598 -0.4276  0.0004
   18MOL0     C 2311   1.804   9.814   7.417  0.2882  0.7799  0.0783
   18MOL0     N 2312   1.707   9.712   7.385 -0.3057 -0.4106 -0.0608
   18MOL0     C 2313   1.570   9.731   7.403 -0.1287 -0.1222  0.1963
   18MOL0     C 2314   1.513   9.611   7.392  0.9336  0.0245 -0.1104
   18MOL0     C 2315   1.369   9.594   7.416 -0.3497  0.7124  0.3654
   18MOL0     C 2316   1.307   9.641   7.554 -0.8621  0.1797  0.6562
   18MOL0     C 2317   1.381   9.563   7.671  0.9692 -0.1455 -0.3526
   18MOL0     C 2318   1.294   9.567   7.796 -0.4377 -0.5670 -0.2481
   18MOL0     O 2319   1.168   9.502   7.765  0.2740 -0.2360  0.0019
   18MOL0     C 2320   1.061   9.499   7.849  0.2390 -0.8588 -0.1699
   18MOL0     C 2321   1.060   9.544   7.982 -0.6432  0.4027 -0.2659
   18MOL0     C 2322   0.941   9.553   8.057  0.0315  0.4008  0.3823
   18MOL0     C 2323   0.949   9.608   8.195 -0.9584 -1.1203  0.8795
   18MOL0     C 2324   0.820   9.513   7.998 -0.6072  0.7420 -0.8899
   18MOL0     C 2325   0.694   9.526   8.062  0.5239  0.6948  0.1582
   18MOL0     O 2326   0.583   9.549   7.988  0.4119 -0.2664 -0.6427
   18MOL0     C 2327   0.457   9.557   8.048  1.4232 -0.2213 -0.6161
   18MOL0     C 2328   0.429   9.583   8.184 -0.0226  0.0105  0.2678
   18MOL0     C 2329   0.298   9.583   8.241  0.2352 -0.0754  0.1765
   18MOL0     C 2330   0.196   9.549   8.158  0.1109  0.4137 -0.5461
   18MOL0     O 2331   0.058   9.561   8.187 -0.2925  0.7275 -0.1834
   18MOL0     C 2332   0.016   9.622   8.319  0.3885 -0.5253  0.2203
   18MOL0     C 2333  -0.140   9.633   8.333 -0.4864  0.8859  0.1958
   18MOL0     C 2334  -0.197   9.486   8.323 -0.3683 -0.4733 -0.0691
   18MOL0     C 2335  -0.350   9.470   8.345  0.2055  0.0188  0.5047
   18MOL0     C 2336  -0.391   9.508   8.482  0.4104  0.1399 -0.3242
   18MOL0     C 2337  -0.520   9.446   8.528  0.4795  0.1424  0.6751
   18MOL0     C 2338  -0.518   9.289   8.546  0.1537 -0.0395  0.5847
   18MOL0     C 2339  -0.390   9.224   8.602 -0.6479  0.4739 -0.1201
   18MOL0    Cl 2340  -0.358   9.264   8.779  0.5428  0.1067  0.0125
   18MOL0     C 2341   0.218   9.518   8.018  0.3981  0.2522 -0.5119
   18MOL0     C 2342   0.357   9.525   7.966 -0.4010  0.9002 -0.6777
   18MOL0     O 2343   0.698   9.486   8.173  0.1448  0.3250  0.9591
   18MOL0     C 2344   0.824   9.455   7.867 -0.7042  0.0517  0.3904
   18MOL0     C 2345   0.944   9.447   7.795 -0.4935 -0.6675 -0.5609
   18MOL0     N 2346   1.610   9.512   7.365  0.6027  0.0300  0.0587
   18MOL0     N 2347   1.727   9.580   7.363 -0.1320  0.3725 -0.2985
   18MOL0     C 2348   2.669  10.128   7.123 -0.0731  0.0873  0.3390
   18MOL0     C 2349   2.733  10.252   7.117 -0.2571 -0.5077 -0.2821
   18MOL0     C 2350   2.839  10.672   6.923  0.5645  0.5339 -0.1362
   18MOL0     C 2351   2.915  10.696   7.038 -0.3003  0.2567  0.2608
   18MOL0     C 2352   2.992  10.809   7.046  0.5266  0.5953  0.3619
   18MOL0     C 2353   3.001  10.898   6.941  0.2163 -0.0115 -1.1342
   18MOL0     O 2354   3.075  11.013   6.940  0.0504  0.5968  0.4363
   18MOL0     C 2355   3.113  11.073   7.064  0.2332 -0.0868 -0.8842
   18MOL0     C 2356   3.172  11.211   7.043 -0.4443 -0.3025  0.2843
   18MOL0     C 2357   3.098  11.284   6.934  0.1324  0.6478  0.3851
   18MOL0     C 2358   3.159  11.419   6.890  0.6904 -1.1996 -1.2393
   18MOL0     C 2359   3.219  11.413   6.759  0.6090  0.5842 -0.0848
   18MOL0     C 2360   3.251  11.403   6.643 -0.2159  0.9377 -0.2640
   18MOL0     C 2361   2.921  10.879   6.826 -0.6477  0.2602 -0.1695
   18MOL0     C 2362   2.846  10.766   6.817  0.1722  0.0975  0.8441
   18MOL0     H 2363   2.510  10.404   6.913 -0.2442  0.8087 -0.1881
   18MOL0     H 2364   2.395  10.207   6.956 -0.2819  3.3872  1.0255
   18MOL0     H 2365   2.627   9.860   7.129  0.7463  3.2884  1.2004
   18MOL0     H 2366   2.499   9.900   7.253 -2.0112  2.1275 -0.2467
   18MOL0     H 2367   2.457   9.723   7.014 -2.0620  1.3341 -0.8425
   18MOL0     H 2368   2.502   9.669   7.178  0.6231  0.9791  1.3197
   18MOL0     H 2369   2.261   9.821   7.084  2.0356  0.0616 -2.0924
   18MOL0     H 2370   2.283   9.653   7.131  1.7424 -0.2466 -0.3664
   18MOL0     H 2371   2.333   9.714   7.368 -2.5347  0.6414  2.1725
   18MOL0     H 2372   2.301   9.880   7.338  2.0314 -1.7451  3.5021
   18MOL0     H 2373   2.092   9.669   7.268  1.4423  0.6010 -2.2561
   18MOL0     H 2374   2.128   9.721   7.439 -0.1806 -3.3311  0.0543
   18MOL0     H 2375   2.058   9.937   7.391 -0.2020  0.1812 -0.9241
   18MOL0     H 2376   2.071   9.930   7.217 -4.8786 -0.7761 -3.1052
   18MOL0     H 2377   1.844   9.931   7.238 -1.6394 -1.0736 -0.6325
   18MOL0     H 2378   1.870   9.761   7.220  1.8366 -1.4631  0.4103
   18MOL0     H 2379   1.764   9.907   7.459 -1.7891  0.8978 -1.9889
   18MOL0     H 2380   1.874   9.764   7.485  0.3719 -1.5517 -1.6109
   18MOL0     H 2381   1.531   9.828   7.430  4.0562  2.5791 -2.1392
   18MOL0     H 2382   1.311   9.637   7.333  2.8238  2.0975 -1.3107
   18MOL0     H 2383   1.363   9.485   7.426  0.2199  0.8053  2.0343
   18MOL0     H 2384   1.199   9.626   7.551 -0.9470  0.7597  0.7961
   18MOL0     H 2385   1.327   9.749   7.553  2.2640 -0.2905 -0.0028
   18MOL0     H 2386   1.472   9.622   7.685  1.2875 -0.9524  1.1741
   18MOL0     H 2387   1.403   9.458   7.651  1.4472 -0.4354  1.4974
   18MOL0     H 2388   1.276   9.669   7.832 -1.5781 -0.3822 -1.2726
   18MOL0     H 2389   1.351   9.513   7.873  0.0864  5.3490  4.2376
   18MOL0     H 2390   1.153   9.578   8.027 -0.7990 -0.6079  0.8847
   18MOL0     H 2391   0.865   9.676   8.213  1.9204  2.9097  0.6205
   18MOL0     H 2392   0.966   9.526   8.266  1.3775 -0.1479  1.5308
   18MOL0     H 2393   1.033   9.676   8.211 -0.8318 -1.4750  1.7957
   18MOL0     H 2394   0.513   9.611   8.246  1.5297 -3.7898  0.1793
   18MOL0     H 2395   0.273   9.619   8.341 -0.4344  2.8938 -0.9484
   18MOL0     H 2396   0.050   9.561   8.403 -0.0876 -0.2134  0.6434
   18MOL0     H 2397   0.062   9.720   8.332 -2.3434  0.5558  2.9537
   18MOL0     H 2398  -0.160   9.679   8.430 -0.2506  2.2792 -0.3919
   18MOL0     H 2399  -0.181   9.702   8.258 -1.3967 -0.0545 -0.1906
   18MOL0     H 2400  -0.139   9.417   8.384  0.5469 -2.0110 -2.5112
   18MOL0     H 2401  -0.173   9.455   8.221  0.8251 -1.1303  0.3938
   18MOL0     H 2402  -0.413   9.527   8.276  0.0942 -0.8099 -0.0971
   18MOL0     H 2403  -0.360   9.366   8.314  2.5831 -0.0711 -0.1520
   18MOL0     H 2404  -0.397   9.617   8.490  1.2886  0.4848 -3.2670
   18MOL0     H 2405  -0.314   9.476   8.553 -0.9401 -0.3634  0.9843
   18MOL0     H 2406  -0.542   9.498   8.622 -0.9300  1.7975 -0.5095
   18MOL0     H 2407  -0.600   9.470   8.458  0.2819  0.0760  0.8781
   18MOL0     H 2408  -0.542   9.251   8.446  2.1053  0.3895 -0.0979
   18MOL0     H 2409  -0.603   9.259   8.608 -0.8222 -1.9145 -1.5240
   18MOL0     H 2410  -0.313   9.257   8.531 -3.5595  4.5723 -1.7837
   18MOL0     H 2411  -0.407   9.116   8.596  3.8865 -0.4692  0.5282
   18MOL0     H 2412   0.136   9.501   7.950  0.3273 -0.9692 -0.1433
   18MOL0     H 2413   0.381   9.495   7.864  0.2829 -0.5661 -0.1070
   18MOL0     H 2414   0.745   9.405   7.812  2.0387 -3.1339 -1.0329
   18MOL0     H 2415   0.947   9.412   7.693 -1.1511 -0.3237 -0.7059
   18MOL0     H 2416   2.714  10.054   7.188  1.7260  0.6012 -0.2563
   18MOL0     H 2417   2.811  10.266   7.191  1.1359 -1.5069 -1.4959
   18MOL0     H 2418   2.930  10.627   7.120  0.7007 -0.8868 -0.8484
   18MOL0     H 2419   3.040  10.817   7.144 -0.0538 -3.9142  1.2151
   18MOL0     H 2420   3.028  11.080   7.132  0.5996  1.3581 -0.5389
   18MOL0     H 2421   3.176  11.004   7.123 -1.1126  2.6255  4.3793
   18MOL0     H 2422   3.277  11.203   7.013 -0.9333 -0.9658 -1.3574
   18MOL0     H 2423   3.171  11.255   7.143 -3.5660 -0.9599  0.6440
   18MOL0     H 2424   2.996  11.296   6.971 -0.1390  0.7051 -0.3590
   18MOL0     H 2425   3.086  11.221   6.846  2.5230 -0.9711  1.1258
   18MOL0     H 2426   3.213  11.457   6.977  1.0378  0.6102 -2.2084
   18MOL0     H 2427   3.078  11.491   6.877  2.0028  0.1455 -2.3013
   18MOL0     H 2428   3.295  11.390   6.547  1.5705 -0.0362  0.6315
   18MOL0     H 2429   2.913  10.946   6.740  1.1126  0.0105 -0.5777
   18MOL0     H 2430   2.795  10.739   6.726 -2.2012  1.3120  1.7248
   19MOL0     O 2431   1.855   5.215  10.981 -0.1281 -0.5475  0.1249
   19MOL0     C 2432   1.777   5.259  10.897 -0.1486  0.0662  0.1726
   19MOL0     O 2433   1.642   5.286  10.915 -0.4057 -0.0744 -0.6916
   19MOL0     C 2434   1.595   5.305  11.043  0.4608  0.3799  0.1495
   19MOL0     C 2435   1.666   5.353  11.152 -1.1336  0.0546 -1.1871
   19MOL0     C 2436   1.598   5.372  11.276 -0.2517  0.3124  1.0209
   19MOL0     C 2437   1.465   5.342  11.294 -0.1095  0.3488 -0.2199
   19MOL0     O 2438   1.421   5.354  11.424 -0.0503  0.5982  0.0808
   19MOL0     C 2439   1.292   5.302  11.459  0.2770 -0.4207  0.8498
   19MOL0     C 2440   1.276   5.288  11.618  0.8470  0.8668  0.5560
   19MOL0     C 2441   1.156   5.393  11.653 -0.2902  0.2058 -0.0148
   19MOL0     C 2442   1.133   5.404  11.805 -0.3894  0.2241  0.6409
   19MOL0     C 2443   1.098   5.275  11.877 -0.2057  0.0313  0.1424
   19MOL0     C 2444   1.090   5.290  12.025 -0.5862 -0.5655  1.3760
   19MOL0     C 2445   1.063   5.151  12.084 -0.2282 -0.5675 -0.0306
   19MOL0     C 2446   1.176   5.047  12.060  0.6808  0.4688  0.6929
   19MOL0     N 2447   1.316   5.094  12.071  0.2568 -0.3189 -0.2033
   19MOL0     C 2448   1.413   5.104  11.969 -0.0532 -0.6570 -1.1520
   19MOL0     C 2449   1.524   5.151  12.037 -0.4778  0.5669 -0.0203
   19MOL0     C 2450   1.670   5.164  11.988 -0.8821 -0.2146 -0.2717
   19MOL0     C 2451   1.719   5.088  11.863  0.6640 -0.1792  0.3923
   19MOL0     C 2452   1.654   5.148  11.736 -0.4688  0.0143  0.4481
   19MOL0     C 2453   1.645   5.046  11.619  0.5677 -0.3644 -1.0198
   19MOL0     O 2454   1.609   4.916  11.672  0.5587  0.1062  0.6467
   19MOL0     C 2455   1.479   4.893  11.700  0.8530  0.3108 -0.7975
   19MOL0     C 2456   1.375   4.924  11.614 -0.1949 -0.7178 -0.6100
   19MOL0     C 2457   1.248   4.893  11.641  0.4763 -0.5594  0.4975
   19MOL0     C 2458   1.132   4.943  11.550 -0.0802 -0.2050 -0.1465
   19MOL0     C 2459   1.220   4.824  11.762  0.2086  0.4233  0.5153
   19MOL0     C 2460   1.087   4.782  11.810  0.7136 -0.1884 -1.1453
   19MOL0     O 2461   1.071   4.772  11.944 -0.2804 -0.1687 -0.3762
   19MOL0     C 2462   0.947   4.740  11.993 -0.1185  0.4524  0.1266
   19MOL0     C 2463   0.944   4.642  12.090 -1.3050  1.0467  0.1508
   19MOL0     C 2464   0.829   4.606  12.154  0.0756 -0.2613 -0.9867
   19MOL0     C 2465   0.714   4.678  12.127 -0.2573 -0.3215 -0.6669
   19MOL0     O 2466   0.608   4.625  12.197  0.9507 -0.3474  0.3476
   19MOL0     C 2467   0.509   4.725  12.214  0.6726 -0.5415  0.8968
   19MOL0     C 2468   0.397   4.647  12.265  0.1820  0.0989 -0.0720
   19MOL0     C 2469   0.284   4.748  12.290  0.0212  0.0120 -0.1528
   19MOL0     C 2470   0.150   4.669  12.289  0.1947 -0.7816  0.1869
   19MOL0     C 2471   0.036   4.768  12.280 -0.2611  0.0036 -0.8084
   19MOL0     C 2472   0.012   4.878  12.383 -1.3059  0.0142  0.2360
   19MOL0     C 2473  -0.103   4.971  12.341  0.0007 -0.0255 -0.2177
   19MOL0     C 2474  -0.123   5.082  12.437 -0.1570 -0.2385 -0.3875
   19MOL0    Cl 2475  -0.297   5.133  12.448 -0.1188  0.1170 -0.1557
   19MOL0     C 2476   0.724   4.794  12.038  0.2327  0.3582  0.8888
   19MOL0     C 2477   0.841   4.827  11.975  0.0847  0.7866  0.7185
   19MOL0     O 2478   1.002   4.748  11.727 -0.1853  0.1806  0.7516
   19MOL0     C 2479   1.320   4.799  11.847 -0.1009  0.3053  0.0005
   19MOL0     C 2480   1.451   4.820  11.820  0.2448 -0.5280 -0.1672
   19MOL0     N 2481   1.495   5.145  12.173  0.0731  0.3186  0.0230
   19MOL0     N 2482   1.369   5.120  12.189 -0.4075 -0.3206  0.1976
   19MOL0     C 2483   1.394   5.304  11.173 -0.5804  0.9162 -0.8765
   19MOL0     C 2484   1.454   5.283  11.057  0.0240 -0.0633  0.3183
   19MOL0     C 2485   1.821   5.287  10.757 -0.2748  0.5342 -0.5394
   19MOL0     C 2486   1.937   5.357  10.735  1.1021  0.2342  0.2446
   19MOL0     C 2487   1.978   5.398  10.603 -0.9569  1.1376 -0.1278
   19MOL0     C 2488   1.907   5.359  10.492  0.2830 -0.4341 -0.3505
   19MOL0     O 2489   1.957   5.402  10.374 -0.0722  0.6055 -0.4948
   19MOL0     C 2490   1.883   5.385  10.251  0.0865 -0.1206 -0.8480
   19MOL0     C 2491   1.762   5.472  10.235  0.1407  0.2311  0.3159
   19MOL0     C 2492   1.685   5.449  10.101  0.3168  0.0189  0.3071
   19MOL0     C 2493   1.537   5.431  10.120  0.1724 -0.9823  0.0828
   19MOL0     C 2494   1.453   5.542  10.154 -0.0108  0.6145  0.0666
   19MOL0     C 2495   1.375   5.635  10.176  0.1258  1.3914  0.0202
   19MOL0     C 2496   1.790   5.285  10.518 -0.0049 -1.5363 -0.6746
   19MOL0     C 2497   1.745   5.256  10.647 -0.6414 -0.0718 -0.0409
   19MOL0     H 2498   1.768   5.389  11.152 -1.4688  1.2219  1.1947
   19MOL0     H 2499   1.657   5.410  11.358  3.7826 -2.9628 -0.0189
   19MOL0     H 2500   1.210   5.357  11.413  0.5556 -0.8731 -0.2095
   19MOL0     H 2501   1.285   5.200  11.420  0.4564  1.0334 -3.5061
   19MOL0     H 2502   1.237   5.189  11.646 -0.5042  0.2259 -3.0129
   19MOL0     H 2503   1.367   5.294  11.677 -0.7477  1.2934  3.1126
   19MOL0     H 2504   1.187   5.492  11.620  1.6015 -0.0063  0.9854
   19MOL0     H 2505   1.059   5.375  11.606  0.3941  0.6660 -1.6437
   19MOL0     H 2506   1.228   5.432  11.852 -0.8681 -0.1609  1.8688
   19MOL0     H 2507   1.064   5.488  11.816 -2.0388 -1.0972  0.7858
   19MOL0     H 2508   0.999   5.241  11.845 -0.8067  0.2969  1.6662
   19MOL0     H 2509   1.163   5.195  11.841 -0.7395  0.1232 -1.1147
   19MOL0     H 2510   1.176   5.342  12.070  0.2350  0.7336 -1.4511
   19MOL0     H 2511   0.999   5.347  12.045 -0.9823 -0.9271  0.6319
   19MOL0     H 2512   1.068   5.162  12.192  4.0201  0.5464 -0.1547
   19MOL0     H 2513   0.963   5.127  12.047 -0.1898 -1.8120  0.6277
   19MOL0     H 2514   1.162   5.013  11.957 -1.3313  0.0331  1.0617
   19MOL0     H 2515   1.167   4.963  12.129 -0.6205 -0.2218 -0.2675
   19MOL0     H 2516   1.405   5.083  11.863  2.7562  1.9842 -2.0059
   19MOL0     H 2517   1.694   5.268  11.964  1.4063 -0.6200  0.0127
   19MOL0     H 2518   1.726   5.131  12.076 -0.2012 -1.5917 -1.1763
   19MOL0     H 2519   1.707   4.980  11.876 -1.7217  0.2138  2.2923
   19MOL0     H 2520   1.826   5.110  11.869  1.7621 -4.7993  2.7815
   19MOL0     H 2521   1.716   5.236  11.719 -1.3383  0.2607 -1.7697
   19MOL0     H 2522   1.553   5.175  11.768 -0.5688 -2.9028  3.0009
   19MOL0     H 2523   1.743   5.040  11.570  1.5455  1.5733  0.5458
   19MOL0     H 2524   1.578   5.089  11.544 -0.4315  1.3217  0.7635
   19MOL0     H 2525   1.389   4.988  11.527 -0.2463  2.4599  1.5286
   19MOL0     H 2526   1.063   4.864  11.521 -0.5151  0.1058  0.0313
   19MOL0     H 2527   1.076   5.016  11.609  0.0882 -0.1092 -0.1048
   19MOL0     H 2528   1.169   4.985  11.456 -2.2082  1.3789 -0.3617
   19MOL0     H 2529   1.037   4.599  12.125 -2.7745 -2.1007  0.4668
   19MOL0     H 2530   0.829   4.527  12.228  1.1529  1.8301  1.4153
   19MOL0     H 2531   0.542   4.797  12.290  1.4742  0.2501 -0.1646
   19MOL0     H 2532   0.480   4.772  12.119  1.4084 -3.2110 -0.7459
   19MOL0     H 2533   0.366   4.565  12.200  2.5492 -1.4312  0.5953
   19MOL0     H 2534   0.429   4.599  12.358  0.0717  1.9047  0.9512
   19MOL0     H 2535   0.292   4.823  12.211  3.3316 -2.7365 -2.7266
   19MOL0     H 2536   0.306   4.793  12.387 -0.2393  0.5245 -0.3284
   19MOL0     H 2537   0.146   4.590  12.214  0.9121 -0.1825 -0.5002
   19MOL0     H 2538   0.129   4.625  12.387 -1.0457 -0.4788  0.0817
   19MOL0     H 2539  -0.053   4.705  12.269 -0.9284  0.4335  1.5095
   19MOL0     H 2540   0.061   4.808  12.182  1.8267  0.3322 -0.1822
   19MOL0     H 2541  -0.010   4.840  12.483 -0.4306 -1.0914  0.0249
   19MOL0     H 2542   0.102   4.941  12.390 -0.8603 -0.3513 -1.5801
   19MOL0     H 2543  -0.192   4.909  12.337 -0.7521  0.7805  2.0256
   19MOL0     H 2544  -0.087   5.019  12.244 -0.9282  0.3038 -0.2179
   19MOL0     H 2545  -0.055   5.165  12.417  2.7632 -2.1720  0.7372
   19MOL0     H 2546  -0.103   5.040  12.536 -1.1846  2.0019  0.8427
   19MOL0     H 2547   0.638   4.859  12.027  1.8781  2.4565 -0.5818
   19MOL0     H 2548   0.853   4.909  11.904  0.7212 -1.8959 -2.5818
   19MOL0     H 2549   1.304   4.740  11.937 -2.9114 -0.2240 -0.7377
   19MOL0     H 2550   1.531   4.807  11.892 -1.6326  4.7441  3.5250
   19MOL0     H 2551   1.286   5.295  11.183 -0.4154 -1.7086 -0.5234
   19MOL0     H 2552   1.398   5.253  10.969  1.6285 -0.4030 -0.6386
   19MOL0     H 2553   1.995   5.394  10.818 -0.6643  0.9429  1.2213
   19MOL0     H 2554   2.064   5.460  10.579 -1.8416  2.8433  0.9289
   19MOL0     H 2555   1.955   5.399  10.170  0.9987 -2.0054 -0.4354
   19MOL0     H 2556   1.844   5.283  10.241 -4.7543  1.3675  0.0930
   19MOL0     H 2557   1.789   5.578  10.238 -0.7671  0.5968 -2.4187
   19MOL0     H 2558   1.707   5.440  10.325  0.9125 -1.8337  0.1132
   19MOL0     H 2559   1.729   5.353  10.072  0.4282 -0.8160  2.9611
   19MOL0     H 2560   1.709   5.523  10.023 -0.5971 -0.0903 -0.0968
   19MOL0     H 2561   1.530   5.359  10.203  3.1361 -1.6447 -0.1317
   19MOL0     H 2562   1.494   5.384  10.031  0.9518  0.2276 -0.9570
   19MOL0     H 2563   1.328   5.725  10.209 -0.6538  0.5733  1.2224
   19MOL0     H 2564   1.725   5.263  10.434 -0.9548  1.2604 -0.7670
   19MOL0     H 2565   1.664   5.186  10.666 -0.1971 -0.2572  1.2310
   20MOL0     O 2566   2.440   5.086   6.927 -0.1943 -0.1743 -0.4638
   20MOL0     C 2567   2.532   5.168   6.933  0.0628  0.8485  0.3055
   20MOL0     O 2568   2.518   5.302   6.925  0.2223  0.0114  0.8920
   20MOL0     C 2569   2.397   5.357   6.915 -0.5795 -0.0159 -0.6588
   20MOL0     C 2570   2.371   5.427   6.797 -0.7993 -0.6802 -0.1708
   20MOL0     C 2571   2.244   5.487   6.784 -0.6008  0.2252  0.4381
   20MOL0     C 2572   2.145   5.479   6.882  0.3082  0.0529  0.5281
   20MOL0     O 2573   2.030   5.552   6.859 -0.6738  0.4964  0.1221
   20MOL0     C 2574   1.910   5.490   6.909  0.1404 -0.1957  0.3380
   20MOL0     C 2575   1.816   5.473   6.786 -0.0827 -0.0268  0.7176
   20MOL0     C 2576   1.885   5.364   6.701 -0.4066  0.2935 -0.0935
   20MOL0     C 2577   1.783   5.338   6.582 -0.4018 -0.9983  0.4921
   20MOL0     C 2578   1.787   5.427   6.460 -0.2814  0.4877  1.3478
   20MOL0     C 2579   1.702   5.363   6.351  0.1511  0.4327  0.6946
   20MOL0     C 2580   1.553   5.414   6.354 -0.3646  0.9698  0.0053
   20MOL0     C 2581   1.497   5.404   6.209  0.4113  0.6781  0.4179
   20MOL0     N 2582   1.354   5.450   6.229  0.1938 -0.0979 -1.0930
   20MOL0     C 2583   1.239   5.377   6.212 -0.0906  0.1741 -0.0260
   20MOL0     C 2584   1.140   5.457   6.249  0.2714 -0.4666  0.8565
   20MOL0     C 2585   0.995   5.431   6.251 -0.4889  0.6234  0.0540
   20MOL0     C 2586   0.940   5.457   6.399 -0.2389 -0.3112 -0.2824
   20MOL0     C 2587   0.790   5.452   6.415 -0.6419  1.0341  0.0351
   20MOL0     C 2588   0.747   5.310   6.462 -0.4718 -0.0323 -0.7048
   20MOL0     O 2589   0.619   5.277   6.413 -0.0553  0.0364 -0.5918
   20MOL0     C 2590   0.498   5.317   6.465  0.5208 -1.3808  0.5678
   20MOL0     C 2591   0.397   5.221   6.493  0.3332 -0.0333  0.1694
   20MOL0     C 2592   0.266   5.257   6.535  0.9133  0.7698 -0.2350
   20MOL0     C 2593   0.170   5.130   6.563 -0.5879 -0.7366 -0.0554
   20MOL0     C 2594   0.225   5.392   6.547  0.1627 -0.5217 -0.0612
   20MOL0     C 2595   0.088   5.440   6.593 -0.8036 -0.6711 -0.2439
   20MOL0     O 2596   0.061   5.565   6.560 -0.0027 -0.3235  0.3577
   20MOL0     C 2597  -0.064   5.620   6.607 -0.4448 -0.6380  0.3811
   20MOL0     C 2598  -0.167   5.649   6.516 -0.0609 -0.0475 -0.1842
   20MOL0     C 2599  -0.275   5.722   6.569 -0.0171 -0.5514 -0.1924
   20MOL0     C 2600  -0.282   5.771   6.702 -0.2683 -0.4779  0.1657
   20MOL0     O 2601  -0.377   5.860   6.743 -0.1123  0.3053 -0.5464
   20MOL0     C 2602  -0.454   5.935   6.645  0.2083 -0.4791 -0.4137
   20MOL0     C 2603  -0.600   5.879   6.635 -0.6549 -0.5152 -0.3358
   20MOL0     C 2604  -0.681   5.981   6.548 -0.4184 -0.0556  0.5098
   20MOL0     C 2605  -0.831   5.943   6.530 -0.0730 -0.0143 -0.5457
   20MOL0     C 2606  -0.908   6.047   6.450  0.0012  0.1639  1.2970
   20MOL0     C 2607  -1.047   6.002   6.401 -0.0782 -0.2785 -0.1189
   20MOL0     C 2608  -1.160   5.997   6.506  0.2356  0.0926 -0.1520
   20MOL0     C 2609  -1.308   5.948   6.473 -0.4624  0.2100 -0.1463
   20MOL0    Cl 2610  -1.368   6.059   6.345 -0.1779  0.3871 -0.1285
   20MOL0     C 2611  -0.178   5.732   6.783  0.6911  0.2178 -0.8467
   20MOL0     C 2612  -0.069   5.651   6.746 -0.2657 -0.7387 -0.0809
   20MOL0     O 2613   0.017   5.371   6.663 -0.5775  0.3192 -0.1275
   20MOL0     C 2614   0.328   5.487   6.507 -0.9543 -0.1337  0.2761
   20MOL0     C 2615   0.459   5.456   6.459 -0.5118 -0.8777 -0.4627
   20MOL0     N 2616   1.196   5.578   6.297 -0.3636 -0.3090  0.0157
   20MOL0     N 2617   1.319   5.573   6.269  0.5896 -0.1476 -0.2616
   20MOL0     C 2618   2.171   5.402   6.993 -0.1342  1.1723 -0.3825
   20MOL0     C 2619   2.291   5.349   7.016 -0.6476 -0.0638  0.5301
   20MOL0     C 2620   2.669   5.123   6.961 -0.2034 -0.5192  0.1117
   20MOL0     C 2621   2.776   5.214   6.961  0.8349 -0.9151 -0.5775
   20MOL0     C 2622   2.907   5.161   6.957 -0.1183  0.1045  1.1241
   20MOL0     C 2623   2.924   5.023   6.971 -0.5052 -0.7666  0.1459
   20MOL0     O 2624   3.053   4.982   6.962 -1.0456  1.0400  0.1020
   20MOL0     C 2625   3.093   4.863   6.895  0.8072  0.8388 -0.2582
   20MOL0     C 2626   3.233   4.834   6.862  0.0510  0.1109  0.6785
   20MOL0     C 2627   3.317   4.955   6.824  0.3438 -0.7979  1.0453
   20MOL0     C 2628   3.466   4.933   6.817  0.8900 -0.8661 -0.7641
   20MOL0     C 2629   3.498   4.888   6.685  0.1930 -0.3595 -0.1347
   20MOL0     C 2630   3.533   4.859   6.577 -0.1002 -1.0604  0.2527
   20MOL0     C 2631   2.820   4.937   6.975 -0.6879  0.5612  0.0873
   20MOL0     C 2632   2.693   4.984   6.969  0.3219 -0.1230  0.3381
   20MOL0     H 2633   2.438   5.416   6.712 -0.4195  2.0916 -0.3039
   20MOL0     H 2634   2.220   5.543   6.694 -2.2735  0.1245  0.8046
   20MOL0     H 2635   1.919   5.392   6.956  0.0383  0.2558  1.3243
   20MOL0     H 2636   1.848   5.548   6.977 -1.7333 -4.0754  2.2158
   20MOL0     H 2637   1.719   5.433   6.818 -0.3542  0.5464  0.6076
   20MOL0     H 2638   1.806   5.566   6.730  1.8584 -1.8357 -3.0179
   20MOL0     H 2639   1.986   5.394   6.671 -0.4857  1.8340  1.0792
   20MOL0     H 2640   1.893   5.271   6.758 -0.7090 -1.1994 -2.3751
   20MOL0     H 2641   1.801   5.238   6.543 -0.6972 -0.5499 -0.8284
   20MOL0     H 2642   1.680   5.336   6.618 -0.3920 -0.2165  0.5917
   20MOL0     H 2643   1.762   5.531   6.483  1.7578  2.1064 -2.7453
   20MOL0     H 2644   1.891   5.427   6.425 -1.1568 -0.6793 -1.5950
   20MOL0     H 2645   1.751   5.394   6.259  0.0315 -0.5103  0.3005
   20MOL0     H 2646   1.710   5.254   6.349  3.7699  0.6069 -0.6790
   20MOL0     H 2647   1.488   5.356   6.421 -3.4047  3.1509 -0.8141
   20MOL0     H 2648   1.542   5.514   6.398  1.4479  0.8277  0.8581
   20MOL0     H 2649   1.500   5.304   6.165 -0.1874  1.1881 -0.8297
   20MOL0     H 2650   1.557   5.468   6.143  1.1065 -0.9647 -0.5958
   20MOL0     H 2651   1.229   5.279   6.167  2.5635 -1.4413  2.4833
   20MOL0     H 2652   0.950   5.497   6.176  2.2470  0.0242 -2.2889
   20MOL0     H 2653   0.974   5.327   6.225 -0.8300 -0.0491  2.7286
   20MOL0     H 2654   0.957   5.564   6.415 -1.8703  0.1862 -1.5384
   20MOL0     H 2655   0.990   5.389   6.469  1.2760  1.1723  0.1336
   20MOL0     H 2656   0.733   5.465   6.322  1.4530 -1.1758 -1.6765
   20MOL0     H 2657   0.753   5.525   6.488  1.3464  0.2957  1.8576
   20MOL0     H 2658   0.732   5.322   6.570 -2.7960 -2.2061 -0.6869
   20MOL0     H 2659   0.822   5.236   6.431  0.0801  0.9761 -1.8378
   20MOL0     H 2660   0.426   5.117   6.483 -0.3932 -0.6826  3.5098
   20MOL0     H 2661   0.071   5.176   6.552 -0.2281 -0.4861 -3.5243
   20MOL0     H 2662   0.170   5.057   6.481 -0.8907  0.5304 -1.2225
   20MOL0     H 2663   0.189   5.084   6.660  0.1612  0.5149  0.4200
   20MOL0     H 2664  -0.148   5.608   6.417  1.9508  0.7933 -0.1936
   20MOL0     H 2665  -0.352   5.744   6.496 -0.5693 -2.5314 -0.2731
   20MOL0     H 2666  -0.444   6.036   6.684 -0.3941 -0.8300  0.6913
   20MOL0     H 2667  -0.419   5.942   6.541  1.9520  0.5893  0.2158
   20MOL0     H 2668  -0.601   5.773   6.607  1.1526 -0.8761  0.8233
   20MOL0     H 2669  -0.636   5.883   6.738  1.2648 -3.7072  0.5875
   20MOL0     H 2670  -0.632   5.993   6.451  1.6780  1.1318  1.6175
   20MOL0     H 2671  -0.680   6.082   6.590 -0.5014  0.2758 -0.2818
   20MOL0     H 2672  -0.837   5.849   6.475 -2.9334 -2.4085  3.3017
   20MOL0     H 2673  -0.882   5.928   6.626 -0.1999  4.9702  0.4241
   20MOL0     H 2674  -0.842   6.058   6.363 -1.3668 -0.5299  0.1397
   20MOL0     H 2675  -0.914   6.143   6.502  3.7608 -0.2384  2.8256
   20MOL0     H 2676  -1.071   6.070   6.319  0.9314  0.4244  0.1473
   20MOL0     H 2677  -1.043   5.903   6.355 -1.6299  0.2185 -1.3997
   20MOL0     H 2678  -1.177   6.098   6.545  2.1393 -0.3344  2.0170
   20MOL0     H 2679  -1.127   5.929   6.585  0.3311  1.1652  0.7491
   20MOL0     H 2680  -1.363   5.952   6.567  1.1993  0.2039  0.8608
   20MOL0     H 2681  -1.308   5.847   6.432 -1.9579 -0.2637  0.9263
   20MOL0     H 2682  -0.178   5.767   6.885 -0.0016 -2.4229  0.1511
   20MOL0     H 2683   0.002   5.626   6.825 -1.4494  0.2512  1.3607
   20MOL0     H 2684   0.303   5.591   6.495  1.9741  0.6624  0.2059
   20MOL0     H 2685   0.522   5.535   6.419  0.1879 -1.0029  0.3543
   20MOL0     H 2686   2.091   5.400   7.066  0.5446  3.2976  0.4930
   20MOL0     H 2687   2.308   5.303   7.113  0.4757  0.2966  0.5116
   20MOL0     H 2688   2.759   5.320   6.946  0.8573 -0.9852 -1.1376
   20MOL0     H 2689   2.991   5.229   6.962 -0.4909  0.5517  1.3536
   20MOL0     H 2690   3.058   4.776   6.950  2.8673  0.3440  0.3607
   20MOL0     H 2691   3.038   4.850   6.801  1.1238 -0.8554 -0.2395
   20MOL0     H 2692   3.234   4.767   6.775  0.7948 -2.5177  2.5891
   20MOL0     H 2693   3.279   4.780   6.945  1.0567  0.3765  0.3159
   20MOL0     H 2694   3.294   5.025   6.905 -1.1649  0.6047 -0.4965
   20MOL0     H 2695   3.285   5.003   6.731  1.2143 -0.1065  1.0956
   20MOL0     H 2696   3.494   4.862   6.895 -0.2700 -1.3058 -0.7203
   20MOL0     H 2697   3.521   5.026   6.829 -1.4789  0.8913 -2.4656
   20MOL0     H 2698   3.556   4.839   6.474  2.5374  3.6971 -0.3674
   20MOL0     H 2699   2.839   4.831   6.985  0.9058  0.5585 -2.2473
   20MOL0     H 2700   2.615   4.909   6.970  0.5291 -0.3429  0.2129
   21MOL0     O 2701   4.174   3.226   4.665  0.1647 -0.7059  0.1476
   21MOL0     C 2702   4.280   3.286   4.676  0.4804  0.7854 -0.0026
   21MOL0     O 2703   4.324   3.353   4.782 -0.0826 -0.1908  0.2305
   21MOL0     C 2704   4.276   3.356   4.911  0.4069  0.1333 -0.0600
   21MOL0     C 2705   4.166   3.277   4.953 -0.0013  0.0142  0.3542
   21MOL0     C 2706   4.144   3.247   5.083 -0.2338 -0.6914  0.6552
   21MOL0     C 2707   4.216   3.309   5.185  0.2066 -0.7997  0.2511
   21MOL0     O 2708   4.174   3.290   5.311  0.6737  0.5071 -0.2890
   21MOL0     C 2709   4.120   3.406   5.383  0.0324 -0.4255  0.0034
   21MOL0     C 2710   3.972   3.434   5.349 -0.0179  0.1199  1.0140
   21MOL0     C 2711   3.878   3.314   5.344  0.3922  0.5075 -0.0597
   21MOL0     C 2712   3.728   3.356   5.318 -0.5210 -0.1482  0.1830
   21MOL0     C 2713   3.638   3.236   5.298 -0.7130  0.0891  0.0544
   21MOL0     C 2714   3.496   3.258   5.266  0.5503 -0.0091 -0.1087
   21MOL0     C 2715   3.429   3.315   5.398  0.1031  0.0691 -0.2379
   21MOL0     C 2716   3.296   3.238   5.415 -0.2498 -0.3932  0.1254
   21MOL0     N 2717   3.216   3.296   5.527  0.0505  0.1736  0.4301
   21MOL0     C 2718   3.087   3.329   5.521  0.0394  0.1629  0.0431
   21MOL0     C 2719   3.049   3.337   5.656 -0.2670 -0.2178 -0.2692
   21MOL0     C 2720   2.904   3.378   5.693 -0.7549  0.2665  0.1195
   21MOL0     C 2721   2.803   3.264   5.691  0.3286 -0.6423  0.0619
   21MOL0     C 2722   2.664   3.337   5.698 -0.8162 -0.6059  1.0048
   21MOL0     C 2723   2.556   3.234   5.661  0.1208  0.2366  0.1602
   21MOL0     O 2724   2.514   3.175   5.785  0.2551  0.8847 -0.0764
   21MOL0     C 2725   2.389   3.208   5.837  0.3752 -0.6491  0.8786
   21MOL0     C 2726   2.315   3.124   5.907 -0.2992  0.3364 -0.2553
   21MOL0     C 2727   2.185   3.152   5.957  0.2320  0.9116  0.0420
   21MOL0     C 2728   2.134   3.041   6.038 -0.4635  0.1198 -0.4074
   21MOL0     C 2729   2.117   3.272   5.913 -0.0918  0.4698 -0.2314
   21MOL0     C 2730   1.985   3.297   5.969 -0.3417 -0.1587 -0.2451
   21MOL0     O 2731   1.917   3.382   5.886  0.6056  0.1374  0.9737
   21MOL0     C 2732   1.785   3.405   5.917  1.0670 -1.2259 -0.9555
   21MOL0     C 2733   1.738   3.536   5.895 -0.3775 -0.0959 -0.1866
   21MOL0     C 2734   1.610   3.566   5.930  0.5956 -0.6874  0.2920
   21MOL0     C 2735   1.515   3.465   5.960 -0.2173 -0.2099  0.1230
   21MOL0     O 2736   1.382   3.496   5.964 -0.3994 -0.1025  0.3471
   21MOL0     C 2737   1.293   3.417   5.878  0.3949 -1.1225  0.5366
   21MOL0     C 2738   1.159   3.481   5.855 -0.1394  0.1208  0.1289
   21MOL0     C 2739   1.159   3.592   5.749 -0.1157 -0.4034 -0.8582
   21MOL0     C 2740   1.021   3.667   5.751  0.3086 -0.1507 -0.0012
   21MOL0     C 2741   0.932   3.589   5.650 -0.7678  0.5707  0.3221
   21MOL0     C 2742   0.805   3.651   5.633  0.1914  0.2812  1.1806
   21MOL0     C 2743   0.709   3.571   5.555 -0.1489  0.1432  0.1972
   21MOL0     C 2744   0.565   3.636   5.552  0.2085 -0.4834 -0.2604
   21MOL0    Cl 2745   0.581   3.796   5.468  0.3426  0.0590 -0.2211
   21MOL0     C 2746   1.559   3.333   5.953 -0.7830  1.0650 -0.8630
   21MOL0     C 2747   1.691   3.302   5.937 -0.3330  0.4172 -1.1716
   21MOL0     O 2748   1.932   3.259   6.081 -0.5158  0.9229 -0.9659
   21MOL0     C 2749   2.198   3.368   5.839 -0.3111  0.3963 -1.0090
   21MOL0     C 2750   2.329   3.331   5.803 -0.2990 -0.0287  0.3746
   21MOL0     N 2751   3.156   3.307   5.739 -0.3662  0.6848  0.3204
   21MOL0     N 2752   3.248   3.277   5.656  0.3323  0.0949 -0.8101
   21MOL0     C 2753   4.325   3.394   5.148 -0.6916 -0.7224  0.0543
   21MOL0     C 2754   4.361   3.405   5.014  0.8358  0.4152 -0.0750
   21MOL0     C 2755   4.356   3.320   4.556 -0.5086  0.4997 -0.2188
   21MOL0     C 2756   4.474   3.391   4.558  0.5243 -0.3838  0.1442
   21MOL0     C 2757   4.546   3.419   4.440  0.1363 -0.7341  0.2372
   21MOL0     C 2758   4.502   3.366   4.314  0.5096 -0.1202 -1.2741
   21MOL0     O 2759   4.589   3.375   4.213 -0.0888 -0.3596 -0.3284
   21MOL0     C 2760   4.620   3.259   4.147 -1.1745 -0.2153  0.0043
   21MOL0     C 2761   4.762   3.281   4.097 -0.5645 -0.1933 -0.5434
   21MOL0     C 2762   4.862   3.335   4.206  0.3533  0.3017 -0.5155
   21MOL0     C 2763   4.917   3.225   4.282 -0.3970  0.1931 -0.3530
   21MOL0     C 2764   5.018   3.270   4.377  0.3023 -0.0897 -0.4024
   21MOL0     C 2765   5.096   3.316   4.456 -0.1767 -0.5513  0.2864
   21MOL0     C 2766   4.379   3.296   4.309  0.1418 -0.1890 -0.0935
   21MOL0     C 2767   4.310   3.275   4.426  0.8863 -0.1471  0.4960
   21MOL0     H 2768   4.107   3.218   4.884  0.4722  1.0462 -0.9950
   21MOL0     H 2769   4.055   3.193   5.113 -0.0610 -1.2163  0.2484
   21MOL0     H 2770   4.127   3.381   5.489  0.2572  0.2387  0.1491
   21MOL0     H 2771   4.177   3.498   5.368 -1.7176  0.4910 -1.4453
   21MOL0     H 2772   3.936   3.506   5.423 -0.0258 -0.5273  1.6595
   21MOL0     H 2773   3.957   3.481   5.252 -3.2600 -4.4670 -1.0531
   21MOL0     H 2774   3.917   3.243   5.270  5.4487 -0.3348  2.9552
   21MOL0     H 2775   3.884   3.260   5.439  1.4351 -1.4544 -1.1714
   21MOL0     H 2776   3.691   3.397   5.412 -1.5504 -1.2987  0.3079
   21MOL0     H 2777   3.722   3.422   5.231  1.1095  0.3910  0.4598
   21MOL0     H 2778   3.692   3.194   5.213  0.5418  0.4581  0.6459
   21MOL0     H 2779   3.641   3.160   5.377  0.2549 -0.8200 -0.8188
   21MOL0     H 2780   3.489   3.325   5.180  0.1967  1.0914  0.7518
   21MOL0     H 2781   3.448   3.164   5.239 -0.0754  0.0533  0.7358
   21MOL0     H 2782   3.493   3.299   5.485 -1.1259  0.3548  0.7374
   21MOL0     H 2783   3.417   3.422   5.382  3.5065  0.8512  1.5238
   21MOL0     H 2784   3.327   3.136   5.441  3.6346  0.7718  0.7202
   21MOL0     H 2785   3.237   3.244   5.324  0.4489 -0.1723 -0.3155
   21MOL0     H 2786   3.035   3.354   5.429  1.8029  1.1761 -0.7190
   21MOL0     H 2787   2.896   3.422   5.793  0.6767  0.4345  0.1910
   21MOL0     H 2788   2.888   3.456   5.617 -0.8780  0.3549  0.2373
   21MOL0     H 2789   2.822   3.205   5.781  0.4992  1.9525  1.8456
   21MOL0     H 2790   2.816   3.202   5.602  0.2351 -0.3879 -0.1287
   21MOL0     H 2791   2.657   3.413   5.621 -2.1320 -0.2060  1.5022
   21MOL0     H 2792   2.654   3.381   5.798  0.4115 -0.9136  1.2908
   21MOL0     H 2793   2.603   3.163   5.592  1.2537  0.2339  0.9084
   21MOL0     H 2794   2.482   3.281   5.596 -1.0667 -4.7654 -2.6234
   21MOL0     H 2795   2.368   3.031   5.924 -0.2435  0.1869 -1.2303
   21MOL0     H 2796   2.192   2.948   6.034  1.4645  1.0081  3.1361
   21MOL0     H 2797   2.141   3.074   6.141  0.4395 -2.6943  0.5262
   21MOL0     H 2798   2.032   3.017   6.004 -0.2702  0.9298 -1.6323
   21MOL0     H 2799   1.801   3.624   5.885 -0.8501  0.4082  1.0944
   21MOL0     H 2800   1.580   3.671   5.930  1.5846 -0.3666  1.9389
   21MOL0     H 2801   1.343   3.400   5.782  0.9065  0.6357  0.4546
   21MOL0     H 2802   1.261   3.323   5.924 -1.8557 -2.4813 -3.3780
   21MOL0     H 2803   1.096   3.407   5.805  0.5087 -1.1441  1.1345
   21MOL0     H 2804   1.108   3.513   5.946 -0.2354  0.4461 -0.0352
   21MOL0     H 2805   1.186   3.563   5.647  0.6293  4.5968 -2.3740
   21MOL0     H 2806   1.241   3.661   5.774 -2.9405  2.0189  2.8347
   21MOL0     H 2807   0.972   3.681   5.848 -0.4109  0.4580 -0.4432
   21MOL0     H 2808   1.038   3.767   5.710 -2.4071 -0.1031 -1.1950
   21MOL0     H 2809   0.913   3.493   5.698  0.0874  0.5635  0.6527
   21MOL0     H 2810   0.986   3.579   5.555  0.5752 -3.5973  1.3196
   21MOL0     H 2811   0.758   3.666   5.731  0.1269  0.7735  1.0777
   21MOL0     H 2812   0.826   3.754   5.602  0.0240 -0.5002 -1.7779
   21MOL0     H 2813   0.711   3.482   5.618 -2.0581 -0.1559 -0.1060
   21MOL0     H 2814   0.755   3.547   5.459 -1.1430  0.3175 -0.3390
   21MOL0     H 2815   0.519   3.638   5.651 -1.1181  2.8332 -0.8109
   21MOL0     H 2816   0.504   3.569   5.492 -1.7566 -0.0515  1.1573
   21MOL0     H 2817   1.486   3.256   5.978  0.4706  0.4962  1.3961
   21MOL0     H 2818   1.726   3.200   5.949 -0.5373  0.0873 -3.0592
   21MOL0     H 2819   2.169   3.471   5.824  0.9349  0.6428 -1.8403
   21MOL0     H 2820   2.383   3.412   5.756 -0.6345  0.2363  0.4411
   21MOL0     H 2821   4.386   3.448   5.219 -2.8279  1.5326  0.2984
   21MOL0     H 2822   4.446   3.458   4.972  2.3562 -2.7094 -1.2488
   21MOL0     H 2823   4.514   3.427   4.652 -0.8284 -0.5036  0.7875
   21MOL0     H 2824   4.648   3.456   4.443 -0.2123  0.2883 -0.2516
   21MOL0     H 2825   4.623   3.177   4.219  0.3587  0.4276  0.7325
   21MOL0     H 2826   4.551   3.229   4.068 -1.0780  0.8422 -0.4924
   21MOL0     H 2827   4.770   3.350   4.013 -0.9187  0.7081  0.1425
   21MOL0     H 2828   4.817   3.190   4.069 -0.0799 -0.4518  1.1148
   21MOL0     H 2829   4.818   3.413   4.269  1.9871 -0.3565  1.5517
   21MOL0     H 2830   4.944   3.384   4.153 -0.9060  2.6853 -0.3883
   21MOL0     H 2831   4.974   3.161   4.214  0.1093  1.9451 -1.6435
   21MOL0     H 2832   4.838   3.172   4.337 -1.0164  0.6209 -0.8181
   21MOL0     H 2833   5.183   3.346   4.510  0.6208 -0.7714 -0.8370
   21MOL0     H 2834   4.339   3.262   4.214 -2.3557  3.5578 -0.6022
   21MOL0     H 2835   4.217   3.223   4.412  1.4807 -1.1539  0.1846
   22MOL0     O 2836   2.357   5.966   4.016 -0.0441  0.0078  0.1513
   22MOL0     C 2837   2.393   6.020   4.117 -0.3087 -0.3555 -0.1663
   22MOL0     O 2838   2.310   6.061   4.217  0.5033 -0.2345  0.3620
   22MOL0     C 2839   2.174   6.060   4.190 -0.8953  0.6797  0.8454
   22MOL0     C 2840   2.106   5.935   4.170  0.2215 -0.0454  0.8513
   22MOL0     C 2841   1.969   5.934   4.159  0.2811 -0.5296 -0.2307
   22MOL0     C 2842   1.896   6.053   4.187 -0.6366  0.1045 -0.0643
   22MOL0     O 2843   1.754   6.058   4.184 -0.7178 -0.3471 -0.1042
   22MOL0     C 2844   1.682   5.945   4.143  0.0906  0.6613 -0.2600
   22MOL0     C 2845   1.533   5.961   4.165 -0.3617  0.0046 -0.3986
   22MOL0     C 2846   1.473   6.074   4.085 -0.0505  0.1759  1.2325
   22MOL0     C 2847   1.333   6.100   4.144  0.4710 -0.6881 -0.8744
   22MOL0     C 2848   1.272   6.228   4.077 -0.0972  0.2870 -0.2468
   22MOL0     C 2849   1.262   6.219   3.918 -0.5163 -0.1349  0.0430
   22MOL0     C 2850   1.179   6.102   3.883  0.1994  1.0813 -0.0308
   22MOL0     C 2851   1.144   6.108   3.741 -0.1735  0.4876 -0.0374
   22MOL0     N 2852   1.261   6.120   3.652  0.4576 -0.7089  0.5211
   22MOL0     C 2853   1.286   6.226   3.570 -0.8880 -0.5519  0.2399
   22MOL0     C 2854   1.391   6.197   3.491 -0.1177  0.1185  0.0970
   22MOL0     C 2855   1.449   6.288   3.386 -0.2149  0.1946  0.2791
   22MOL0     C 2856   1.404   6.267   3.241  0.7263  0.0067 -0.2183
   22MOL0     C 2857   1.247   6.284   3.229  0.4793  0.3542 -0.4280
   22MOL0     C 2858   1.212   6.311   3.083  0.0826  0.4571 -1.4576
   22MOL0     O 2859   1.216   6.184   3.005  0.8998  0.8975  0.0822
   22MOL0     C 2860   1.099   6.111   3.012  0.4133  1.4669 -0.8141
   22MOL0     C 2861   0.974   6.147   3.076  0.9234 -0.3832  0.7252
   22MOL0     C 2862   0.872   6.055   3.079 -0.6679  0.3125 -0.3102
   22MOL0     C 2863   0.743   6.090   3.148  0.7984 -0.0471  0.1675
   22MOL0     C 2864   0.875   5.929   3.014 -1.5106 -0.9081 -0.2425
   22MOL0     C 2865   0.772   5.827   2.999 -0.3536 -0.0426  0.0850
   22MOL0     O 2866   0.810   5.725   2.909  0.5067 -0.0673 -0.5722
   22MOL0     C 2867   0.722   5.620   2.911 -0.8635 -0.6553  0.2783
   22MOL0     C 2868   0.622   5.619   2.816 -0.5972 -0.6248  0.7268
   22MOL0     C 2869   0.529   5.520   2.816  0.2551  0.2998  0.6529
   22MOL0     C 2870   0.531   5.410   2.911  1.0238 -0.4256  0.2854
   22MOL0     O 2871   0.426   5.324   2.895  0.3367  0.6565  0.3520
   22MOL0     C 2872   0.352   5.272   3.004  0.1961 -0.5841 -0.5515
   22MOL0     C 2873   0.235   5.177   2.961 -0.0980  0.1462 -0.2668
   22MOL0     C 2874   0.151   5.131   3.084 -0.5955 -0.1988  0.3565
   22MOL0     C 2875   0.021   5.070   3.039 -0.7056  0.3412 -0.9325
   22MOL0     C 2876  -0.080   5.054   3.153  0.0623  0.4703  0.4633
   22MOL0     C 2877  -0.212   4.990   3.095 -0.6067 -0.0805 -0.1802
   22MOL0     C 2878  -0.297   4.934   3.213 -0.7002  0.7915 -0.5896
   22MOL0     C 2879  -0.427   4.887   3.168 -0.1242  0.1091  0.0184
   22MOL0    Cl 2880  -0.523   5.023   3.108  0.1767  0.2970 -0.1089
   22MOL0     C 2881   0.638   5.410   3.007  0.5725 -0.5655 -0.4241
   22MOL0     C 2882   0.732   5.516   3.006  0.1192 -0.9897  0.2844
   22MOL0     O 2883   0.660   5.850   3.040  0.3866  0.1647  0.3853
   22MOL0     C 2884   0.995   5.900   2.955  0.2579  0.1737 -0.7111
   22MOL0     C 2885   1.101   5.981   2.958  0.0145 -0.0361 -0.1474
   22MOL0     N 2886   1.432   6.065   3.520  0.9649 -0.1041 -0.0881
   22MOL0     N 2887   1.348   6.022   3.610 -0.1380  0.4782  0.6415
   22MOL0     C 2888   1.964   6.181   4.194  0.2492  0.4958  0.9011
   22MOL0     C 2889   2.104   6.181   4.208 -0.0349 -0.8251  0.8112
   22MOL0     C 2890   2.533   6.058   4.139  1.1239 -0.3836  0.5622
   22MOL0     C 2891   2.574   6.106   4.268 -0.7227  0.2942  1.2810
   22MOL0     C 2892   2.708   6.131   4.301  0.0642  0.0698  1.0265
   22MOL0     C 2893   2.806   6.098   4.210  0.1756  0.3150  0.7597
   22MOL0     O 2894   2.939   6.103   4.257 -0.6992 -0.1572  0.2962
   22MOL0     C 2895   3.045   6.044   4.190  0.0673 -0.3774 -0.3190
   22MOL0     C 2896   3.178   6.064   4.263 -0.2275  0.3439  0.0834
   22MOL0     C 2897   3.250   6.203   4.229 -0.5020 -0.3760  0.4095
   22MOL0     C 2898   3.254   6.228   4.074 -0.0070 -0.3078  0.2399
   22MOL0     C 2899   3.353   6.324   4.033  0.4067 -0.1357  0.8551
   22MOL0     C 2900   3.431   6.413   4.001  0.2488  0.8610  0.3992
   22MOL0     C 2901   2.772   6.055   4.077  0.4503 -0.1975  0.4628
   22MOL0     C 2902   2.636   6.044   4.046  0.8202  0.0480  0.4385
   22MOL0     H 2903   2.162   5.842   4.171  0.8969  0.2910 -1.0793
   22MOL0     H 2904   1.921   5.837   4.145  1.2489 -0.9042 -1.1437
   22MOL0     H 2905   1.704   5.928   4.038  0.2577  3.1997 -0.7014
   22MOL0     H 2906   1.711   5.860   4.206  3.9850  1.1882 -1.0916
   22MOL0     H 2907   1.491   5.861   4.155  2.2826 -1.4132  1.4865
   22MOL0     H 2908   1.525   5.988   4.270 -3.0746 -1.6838 -0.0826
   22MOL0     H 2909   1.544   6.157   4.095 -1.2950  1.3474  0.5953
   22MOL0     H 2910   1.471   6.046   3.980  0.6533  3.6743  0.1557
   22MOL0     H 2911   1.270   6.011   4.139  2.1740 -2.2547  2.1229
   22MOL0     H 2912   1.349   6.124   4.250 -3.7648  2.9039 -0.7808
   22MOL0     H 2913   1.168   6.239   4.110 -0.8371 -3.2444 -0.9487
   22MOL0     H 2914   1.330   6.317   4.102 -0.3671  0.4570 -0.2305
   22MOL0     H 2915   1.209   6.313   3.902  0.4272  0.2906 -0.6811
   22MOL0     H 2916   1.360   6.218   3.869 -1.0696  2.4869 -1.2457
   22MOL0     H 2917   1.239   6.012   3.903  1.5377  2.1044  0.7017
   22MOL0     H 2918   1.088   6.112   3.943 -1.3071 -0.5614 -1.9231
   22MOL0     H 2919   1.078   6.194   3.729 -1.7577 -0.8922 -1.8791
   22MOL0     H 2920   1.084   6.022   3.711 -2.3772  1.8598  0.2142
   22MOL0     H 2921   1.259   6.329   3.589  2.4880  0.8458 -1.5403
   22MOL0     H 2922   1.431   6.393   3.411  2.6142  0.5870  0.9735
   22MOL0     H 2923   1.557   6.275   3.391 -0.2378  0.4228  1.5529
   22MOL0     H 2924   1.433   6.166   3.210 -0.1366 -0.2018 -0.3894
   22MOL0     H 2925   1.463   6.340   3.185 -0.6208  3.2356  2.2542
   22MOL0     H 2926   1.220   6.368   3.294 -0.3552 -1.1042  1.1635
   22MOL0     H 2927   1.199   6.193   3.264  3.2786 -1.9781 -2.2293
   22MOL0     H 2928   1.283   6.384   3.044  0.0864  1.0162 -0.4170
   22MOL0     H 2929   1.114   6.358   3.074 -0.0815 -0.0067 -2.1853
   22MOL0     H 2930   0.961   6.240   3.130 -1.3698  0.6565 -1.4151
   22MOL0     H 2931   0.745   6.186   3.201 -2.1536 -0.4800  1.2496
   22MOL0     H 2932   0.670   6.107   3.068  0.1708  0.4653  0.8336
   22MOL0     H 2933   0.711   6.017   3.222  1.0454  0.3006  0.6197
   22MOL0     H 2934   0.621   5.707   2.752  3.0446  0.8941  2.4413
   22MOL0     H 2935   0.455   5.533   2.738  1.9606 -1.2090 -1.3314
   22MOL0     H 2936   0.426   5.208   3.053  0.0763  1.0028  1.8543
   22MOL0     H 2937   0.321   5.351   3.073  1.5652 -0.2048 -0.3385
   22MOL0     H 2938   0.175   5.227   2.884  0.3350 -0.6311 -1.1314
   22MOL0     H 2939   0.284   5.097   2.905 -1.9508  0.0230 -1.7970
   22MOL0     H 2940   0.142   5.219   3.149  4.0998  0.7690  0.1049
   22MOL0     H 2941   0.210   5.066   3.149  1.0359  1.3885  0.5693
   22MOL0     H 2942  -0.016   5.136   2.961  0.8635 -0.3321 -2.3248
   22MOL0     H 2943   0.036   4.972   2.993 -1.3205 -0.5781  0.7488
   22MOL0     H 2944  -0.096   5.157   3.184  0.7294  2.3533 -4.5000
   22MOL0     H 2945  -0.038   4.989   3.231  1.6795  0.6865 -0.1889
   22MOL0     H 2946  -0.279   5.070   3.061 -1.4043 -0.8221 -0.3956
   22MOL0     H 2947  -0.183   4.915   3.022 -1.4642 -0.6098  0.0078
   22MOL0     H 2948  -0.306   5.008   3.293 -1.7059 -0.4870  0.5256
   22MOL0     H 2949  -0.253   4.847   3.263 -0.1237  0.5349 -1.5099
   22MOL0     H 2950  -0.468   4.826   3.249 -2.0422 -0.0773 -1.0390
   22MOL0     H 2951  -0.395   4.820   3.088  1.9530  2.0784 -0.8898
   22MOL0     H 2952   0.638   5.330   3.081 -0.7860 -1.6668 -1.5693
   22MOL0     H 2953   0.805   5.506   3.086 -1.8869 -1.3803  2.1517
   22MOL0     H 2954   1.015   5.799   2.920 -0.4323  0.1372 -1.0151
   22MOL0     H 2955   1.199   5.966   2.913 -0.4449  3.3319 -2.7640
   22MOL0     H 2956   1.909   6.274   4.183  2.2169  1.4112 -4.7955
   22MOL0     H 2957   2.160   6.274   4.220  0.2216 -0.8635 -0.0261
   22MOL0     H 2958   2.507   6.125   4.351 -1.4442  2.1271  0.3276
   22MOL0     H 2959   2.739   6.160   4.401  0.4657  0.1097  0.8932
   22MOL0     H 2960   3.028   5.936   4.192 -0.6414 -0.2766  1.9531
   22MOL0     H 2961   3.062   6.066   4.084  3.1710 -2.4822 -0.3834
   22MOL0     H 2962   3.246   5.982   4.240 -0.1510  0.0735  1.2069
   22MOL0     H 2963   3.164   6.058   4.371 -0.6323 -1.7035 -0.0529
   22MOL0     H 2964   3.355   6.187   4.255  0.4587 -0.9160 -3.2768
   22MOL0     H 2965   3.199   6.284   4.282  0.6320 -0.2243  1.2989
   22MOL0     H 2966   3.155   6.262   4.044  0.2417 -0.3216 -0.6219
   22MOL0     H 2967   3.280   6.128   4.037  5.2524  0.4479  1.0671
   22MOL0     H 2968   3.517   6.477   3.996 -1.0346  2.7824  1.4160
   22MOL0     H 2969   2.855   6.043   4.008  1.1126  0.5181  1.1107
   22MOL0     H 2970   2.611   6.012   3.945 -0.4940 -2.8576  1.5893
   23MOL0     O 2971   3.532  11.056   2.790  0.0017 -0.2677  0.1803
   23MOL0     C 2972   3.605  11.020   2.876 -0.4199 -0.4858 -0.3535
   23MOL0     O 2973   3.569  10.957   2.987 -0.4045 -0.4194  0.5468
   23MOL0     C 2974   3.438  10.931   3.017 -0.3371  0.8098  0.7083
   23MOL0     C 2975   3.413  10.938   3.152  0.5014  0.5046 -0.1961
   23MOL0     C 2976   3.282  10.897   3.187 -0.2562  0.2889  0.1823
   23MOL0     C 2977   3.190  10.847   3.099  0.2734  0.2847 -0.5358
   23MOL0     O 2978   3.071  10.816   3.156  0.5358 -0.4200 -0.3114
   23MOL0     C 2979   2.965  10.746   3.079 -0.2167  0.5251 -0.6900
   23MOL0     C 2980   2.850  10.717   3.179  0.4868  0.1514  0.4311
   23MOL0     C 2981   2.883  10.602   3.279 -0.1222 -0.4850  0.1246
   23MOL0     C 2982   2.776  10.585   3.383  0.9874  0.9299  0.1960
   23MOL0     C 2983   2.810  10.476   3.479 -0.1982  0.2026 -0.3047
   23MOL0     C 2984   2.726  10.475   3.601  0.3133 -0.7716 -0.3098
   23MOL0     C 2985   2.737  10.342   3.681  0.6977  0.1643  0.7947
   23MOL0     C 2986   2.847  10.339   3.777  0.1500  0.2962 -0.1433
   23MOL0     N 2987   2.862  10.197   3.810 -0.6323 -0.1998 -0.0675
   23MOL0     C 2988   2.801  10.133   3.910  0.4598  0.0841  0.0090
   23MOL0     C 2989   2.862  10.008   3.924 -0.7307 -1.3047  0.9642
   23MOL0     C 2990   2.833   9.913   4.030  0.4252  0.4030 -0.5682
   23MOL0     C 2991   2.833   9.954   4.175  0.0635  0.5598 -0.1903
   23MOL0     C 2992   2.807   9.828   4.273 -0.3282 -0.5824 -0.1829
   23MOL0     C 2993   2.663   9.781   4.283 -0.0451 -0.2988  0.4189
   23MOL0     O 2994   2.659   9.679   4.380 -0.1319 -0.0175  0.1770
   23MOL0     C 2995   2.546   9.630   4.432 -0.4432  0.1861  0.9960
   23MOL0     C 2996   2.552   9.554   4.545 -0.4979  0.5505 -0.5767
   23MOL0     C 2997   2.441   9.505   4.609  0.2930 -0.3116  0.1728
   23MOL0     C 2998   2.459   9.416   4.727  0.2354 -0.6387  0.1645
   23MOL0     C 2999   2.307   9.534   4.558 -0.8683  0.5409  0.8927
   23MOL0     C 3000   2.177   9.481   4.598 -0.0972 -0.4936 -0.2734
   23MOL0     O 3001   2.066   9.535   4.543  1.2135  0.2287 -0.5176
   23MOL0     C 3002   1.941   9.491   4.567  0.0146 -0.3112  0.2657
   23MOL0     C 3003   1.840   9.581   4.606  0.1709  0.8794 -0.3571
   23MOL0     C 3004   1.701   9.543   4.621 -0.5645  0.0883 -0.6650
   23MOL0     C 3005   1.674   9.412   4.607 -0.2211 -0.4870  0.3559
   23MOL0     O 3006   1.542   9.378   4.624  0.4635 -0.3868 -0.2311
   23MOL0     C 3007   1.518   9.285   4.729  0.2145 -0.2718  0.6240
   23MOL0     C 3008   1.383   9.296   4.788  0.5668  0.3308  0.7661
   23MOL0     C 3009   1.255   9.275   4.690 -0.3311 -0.9134  0.0079
   23MOL0     C 3010   1.123   9.320   4.758 -0.3017 -0.0830  0.4035
   23MOL0     C 3011   0.994   9.310   4.686 -0.7771 -0.2055  0.4599
   23MOL0     C 3012   0.893   9.399   4.755  0.4497 -0.8834  0.5452
   23MOL0     C 3013   0.758   9.407   4.680 -0.2112  0.9854  0.1423
   23MOL0     C 3014   0.659   9.502   4.752  0.3821 -0.6174  0.3391
   23MOL0    Cl 3015   0.585   9.428   4.899 -0.2153 -0.2274 -0.3159
   23MOL0     C 3016   1.767   9.324   4.567 -0.0424 -0.0079 -0.1846
   23MOL0     C 3017   1.904   9.359   4.542 -0.4705  0.5397  0.4272
   23MOL0     O 3018   2.174   9.382   4.671  0.8581 -0.4581  0.2722
   23MOL0     C 3019   2.306   9.602   4.438 -0.1417 -0.2196 -0.3668
   23MOL0     C 3020   2.424   9.652   4.380 -0.3048 -0.7321  0.5909
   23MOL0     N 3021   2.962  10.002   3.828  0.6067  0.1935  0.2920
   23MOL0     N 3022   2.964  10.114   3.771  0.2908 -0.6266  0.7067
   23MOL0     C 3023   3.219  10.849   2.961  0.3770 -0.2731 -1.2714
   23MOL0     C 3024   3.345  10.886   2.918  0.1307 -0.7947 -0.1129
   23MOL0     C 3025   3.750  11.052   2.869 -0.3025 -0.4580 -0.4023
   23MOL0     C 3026   3.786  11.147   2.773 -0.2201 -0.4888 -0.4044
   23MOL0     C 3027   3.921  11.172   2.755 -0.0783 -0.9023  0.3384
   23MOL0     C 3028   4.021  11.105   2.822 -0.1769 -0.1475 -0.8310
   23MOL0     O 3029   4.156  11.128   2.801  0.9688 -0.0810  0.4297
   23MOL0     C 3030   4.189  11.121   2.660  0.1955  0.0013  0.4895
   23MOL0     C 3031   4.327  11.168   2.622  0.1252  0.7235 -0.6721
   23MOL0     C 3032   4.374  11.305   2.680  1.0151 -0.7203 -0.7160
   23MOL0     C 3033   4.409  11.313   2.829 -0.7411 -0.1007 -0.7807
   23MOL0     C 3034   4.380  11.442   2.881 -0.0518  0.4624  0.0842
   23MOL0     C 3035   4.366  11.555   2.938  0.7467  1.0256 -0.6749
   23MOL0     C 3036   3.981  11.017   2.927 -0.5498 -0.7579 -0.1530
   23MOL0     C 3037   3.843  10.987   2.948 -0.7375  0.1688  0.1943
   23MOL0     H 3038   3.483  10.970   3.228 -1.8327 -1.3474  3.0142
   23MOL0     H 3039   3.249  10.897   3.290 -2.2616 -0.7217 -0.4212
   23MOL0     H 3040   2.923  10.821   3.011  0.3934  2.8008  1.3145
   23MOL0     H 3041   3.015  10.664   3.026 -1.8075 -0.1311 -1.2237
   23MOL0     H 3042   2.822  10.806   3.235 -3.0044  0.9536 -2.2582
   23MOL0     H 3043   2.762  10.699   3.117  1.3640 -2.5335 -0.2128
   23MOL0     H 3044   2.897  10.510   3.221 -0.4460 -0.7661  0.4842
   23MOL0     H 3045   2.980  10.629   3.322  0.1128  1.1863 -1.3694
   23MOL0     H 3046   2.765  10.669   3.451 -0.8605  0.1619  0.9101
   23MOL0     H 3047   2.678  10.567   3.339  0.2435  0.0167  2.0918
   23MOL0     H 3048   2.795  10.379   3.430  1.5164  1.1233 -2.8158
   23MOL0     H 3049   2.916  10.480   3.507 -0.3033 -1.9680  0.6449
   23MOL0     H 3050   2.754  10.559   3.666  0.3979 -0.0487 -1.2504
   23MOL0     H 3051   2.621  10.491   3.573  0.8971  1.8341 -1.3361
   23MOL0     H 3052   2.648  10.347   3.743  0.8496  0.1917  1.0108
   23MOL0     H 3053   2.731  10.263   3.606  2.8682  1.0265 -0.3826
   23MOL0     H 3054   2.847  10.400   3.868 -0.9183  0.1883 -0.0604
   23MOL0     H 3055   2.937  10.370   3.723 -0.2249  2.5439  0.4386
   23MOL0     H 3056   2.734  10.168   3.988  0.5750 -1.6565  0.9595
   23MOL0     H 3057   2.730   9.893   3.999 -1.0089  3.6801  1.4888
   23MOL0     H 3058   2.898   9.826   4.020  0.0735  0.3235 -2.5472
   23MOL0     H 3059   2.773  10.042   4.195  1.9021  1.8052  0.1205
   23MOL0     H 3060   2.933   9.997   4.191  0.4468 -0.1239 -0.6437
   23MOL0     H 3061   2.839   9.857   4.374 -1.2504 -0.4412  0.0776
   23MOL0     H 3062   2.885   9.760   4.238  3.1262  3.1141 -0.3413
   23MOL0     H 3063   2.635   9.731   4.191  1.4500 -0.9414  0.2835
   23MOL0     H 3064   2.587   9.857   4.304  1.8666  1.1843  2.4302
   23MOL0     H 3065   2.653   9.535   4.582 -0.6644 -0.2823 -0.5380
   23MOL0     H 3066   2.421   9.471   4.814  0.0998 -1.2848  0.5133
   23MOL0     H 3067   2.403   9.324   4.708 -1.1843  0.3801 -0.8631
   23MOL0     H 3068   2.563   9.391   4.750  1.2275  1.9996 -1.0285
   23MOL0     H 3069   1.864   9.686   4.623  0.0287  1.1059 -1.5066
   23MOL0     H 3070   1.622   9.616   4.636 -0.3048 -0.0006  1.3784
   23MOL0     H 3071   1.531   9.191   4.674 -0.3914 -0.5529  0.9574
   23MOL0     H 3072   1.586   9.300   4.813 -1.7392  1.3030  1.9987
   23MOL0     H 3073   1.366   9.223   4.868 -0.7731  1.0145  1.1259
   23MOL0     H 3074   1.376   9.401   4.817  1.1847  1.3055 -2.2181
   23MOL0     H 3075   1.250   9.171   4.657  0.0952 -1.0980  0.5064
   23MOL0     H 3076   1.274   9.345   4.608  0.6956 -1.0391  0.1234
   23MOL0     H 3077   1.119   9.261   4.850 -1.7887 -1.5430 -0.5438
   23MOL0     H 3078   1.138   9.426   4.780  0.1850  0.4174 -2.0372
   23MOL0     H 3079   0.959   9.206   4.691  0.6729 -0.6954  1.2935
   23MOL0     H 3080   1.011   9.340   4.582 -0.0313 -0.0684  0.6158
   23MOL0     H 3081   0.888   9.358   4.857 -0.9950 -1.0881  0.4016
   23MOL0     H 3082   0.921   9.502   4.776  0.3982 -1.0204  1.3279
   23MOL0     H 3083   0.719   9.308   4.655 -0.0328  1.3289 -1.6217
   23MOL0     H 3084   0.772   9.452   4.581  0.5040  5.4406  2.0437
   23MOL0     H 3085   0.586   9.539   4.679  3.5090 -0.6583 -3.0697
   23MOL0     H 3086   0.723   9.588   4.776  1.0504 -0.4649 -1.7658
   23MOL0     H 3087   1.739   9.221   4.549  2.3815 -0.6879 -0.5180
   23MOL0     H 3088   1.975   9.293   4.495 -0.7899  0.1858  0.4329
   23MOL0     H 3089   2.215   9.640   4.394 -1.6853 -0.7295  2.1627
   23MOL0     H 3090   2.411   9.714   4.291 -1.5519  0.5115  1.5943
   23MOL0     H 3091   3.147  10.821   2.885 -1.2849 -0.6755  0.3708
   23MOL0     H 3092   3.353  10.902   2.811  3.2774  1.7962  0.3416
   23MOL0     H 3093   3.714  11.200   2.711 -0.1476  0.1201  0.0251
   23MOL0     H 3094   3.943  11.242   2.675  1.7104 -2.7083 -0.8298
   23MOL0     H 3095   4.184  11.017   2.625  3.5895 -0.9404  2.3792
   23MOL0     H 3096   4.127  11.182   2.593 -0.0263 -2.0762 -1.3115
   23MOL0     H 3097   4.316  11.175   2.513 -0.7267 -2.7635 -0.9115
   23MOL0     H 3098   4.397  11.087   2.642 -2.1794 -1.1981  0.0459
   23MOL0     H 3099   4.297  11.380   2.661  0.4674 -1.3589 -1.0882
   23MOL0     H 3100   4.464  11.327   2.621  1.4344 -1.8835 -0.5313
   23MOL0     H 3101   4.515  11.294   2.851 -0.0006  2.0674 -2.1689
   23MOL0     H 3102   4.368  11.232   2.890 -1.4523  2.7327  2.8526
   23MOL0     H 3103   4.344  11.639   3.001  0.0450 -0.2861  0.8976
   23MOL0     H 3104   4.047  10.968   2.998 -0.0968  2.3434  1.7705
   23MOL0     H 3105   3.807  10.918   3.024  1.0080  0.6854  1.5399
   24MOL0     O 3106   2.699  11.246   9.895 -0.1923  0.0814 -0.8877
   24MOL0     C 3107   2.759  11.154   9.839 -1.5939 -0.5682  0.1009
   24MOL0     O 3108   2.712  11.029   9.821 -0.0127 -0.6637 -0.3201
   24MOL0     C 3109   2.585  11.000   9.834  0.1042  0.0848 -0.7821
   24MOL0     C 3110   2.553  10.892   9.915  0.0208  0.8597  1.0674
   24MOL0     C 3111   2.416  10.857   9.931 -0.4490 -0.3637 -0.0244
   24MOL0     C 3112   2.317  10.934   9.874 -0.0140 -0.6099 -0.4665
   24MOL0     O 3113   2.180  10.899   9.883 -0.5137 -0.2642 -0.5340
   24MOL0     C 3114   2.101  10.877   9.760  0.4686  0.1074  0.4819
   24MOL0     C 3115   1.970  10.822   9.803  0.1020  0.5874  0.3448
   24MOL0     C 3116   1.890  10.941   9.861 -0.1171  0.2063  0.0064
   24MOL0     C 3117   1.750  10.881   9.903 -0.0612  0.6228 -0.0474
   24MOL0     C 3118   1.648  10.992   9.925  0.4595 -0.2047 -0.8399
   24MOL0     C 3119   1.553  10.937  10.032  0.8549  0.6201 -0.2377
   24MOL0     C 3120   1.447  11.052  10.055 -0.3379  0.4133 -0.3210
   24MOL0     C 3121   1.336  11.071   9.953  0.2787 -0.1106 -0.3780
   24MOL0     N 3122   1.199  11.063  10.005  0.2180 -0.0024  0.4831
   24MOL0     C 3123   1.117  11.175  10.022 -0.5081  0.6616  0.6956
   24MOL0     C 3124   1.011  11.135  10.092  0.2264 -0.7165 -0.7497
   24MOL0     C 3125   0.906  11.228  10.146 -0.0534 -0.5526 -0.3349
   24MOL0     C 3126   0.831  11.160  10.257  0.5173  0.4639 -0.3848
   24MOL0     C 3127   0.780  11.242  10.363 -0.2422 -0.4487  0.4868
   24MOL0     C 3128   0.675  11.347  10.316 -0.6441  1.1187 -0.4267
   24MOL0     O 3129   0.620  11.424  10.429  0.6232 -0.3973 -0.6459
   24MOL0     C 3130   0.497  11.479  10.403 -0.6749 -0.0311  0.9571
   24MOL0     C 3131   0.469  11.541  10.277  0.3593 -1.1311  0.0623
   24MOL0     C 3132   0.357  11.621  10.253 -0.2385 -0.5717  0.4818
   24MOL0     C 3133   0.348  11.697  10.121  0.8071  0.8837  0.4394
   24MOL0     C 3134   0.264  11.628  10.359 -0.3963 -0.5074  0.3884
   24MOL0     C 3135   0.147  11.722  10.355 -0.6256  0.1845 -0.4579
   24MOL0     O 3136   0.059  11.714  10.461 -0.4097  0.1887 -0.3598
   24MOL0     C 3137  -0.076  11.727  10.437 -0.1217 -0.6776  0.6116
   24MOL0     C 3138  -0.141  11.720  10.310 -0.4236  0.1535  0.1708
   24MOL0     C 3139  -0.279  11.732  10.294  0.2073  1.0184 -0.4255
   24MOL0     C 3140  -0.355  11.743  10.407  0.1660 -0.4448 -0.1801
   24MOL0     O 3141  -0.481  11.726  10.378 -0.1082 -0.1828  0.3088
   24MOL0     C 3142  -0.577  11.717  10.489  0.4572  0.2077  0.3052
   24MOL0     C 3143  -0.714  11.673  10.447  0.0894  0.3811 -0.3683
   24MOL0     C 3144  -0.786  11.782  10.364 -1.0245  0.4172  0.6194
   24MOL0     C 3145  -0.933  11.774  10.344 -0.0102 -0.2972  0.3251
   24MOL0     C 3146  -0.976  11.915  10.307 -0.5029  0.1856 -0.4485
   24MOL0     C 3147  -1.120  11.923  10.256  0.0770  0.3382  0.6731
   24MOL0     C 3148  -1.138  11.861  10.115  0.1291 -0.1739  0.0275
   24MOL0     C 3149  -1.212  11.953  10.025  0.4527 -0.4163  0.4657
   24MOL0    Cl 3150  -1.267  11.847   9.888  0.3940  0.2479  0.5961
   24MOL0     C 3151  -0.303  11.756  10.536 -0.6062 -0.2155  0.6780
   24MOL0     C 3152  -0.159  11.747  10.547  0.2355  0.4695  0.4690
   24MOL0     O 3153   0.120  11.787  10.258 -0.2330 -0.3104  0.0159
   24MOL0     C 3154   0.289  11.558  10.479  0.3888  0.9696 -0.7464
   24MOL0     C 3155   0.405  11.491  10.503  0.9024 -0.4892  0.1973
   24MOL0     N 3156   1.028  10.998  10.105 -0.1683 -0.1928  0.5222
   24MOL0     N 3157   1.134  10.951  10.047  0.0192  0.5572 -0.3961
   24MOL0     C 3158   2.348  11.042   9.792 -0.6111 -0.2787  0.5117
   24MOL0     C 3159   2.482  11.075   9.774 -1.2634 -0.4024  0.2174
   24MOL0     C 3160   2.904  11.172   9.805 -0.1300 -1.0178  0.5267
   24MOL0     C 3161   2.961  11.296   9.807 -0.7318 -0.2384 -0.3202
   24MOL0     C 3162   3.094  11.330   9.773 -0.2032 -0.0879  0.1956
   24MOL0     C 3163   3.179  11.218   9.737 -0.4047 -1.0477  0.0250
   24MOL0     O 3164   3.303  11.258   9.702 -0.2136 -0.0610  0.1029
   24MOL0     C 3165   3.383  11.176   9.617 -0.0697  0.1545  0.2224
   24MOL0     C 3166   3.521  11.248   9.586 -0.1412 -0.5623 -0.9329
   24MOL0     C 3167   3.580  11.321   9.710  0.0712 -0.1220  0.8514
   24MOL0     C 3168   3.706  11.390   9.675 -0.3750 -0.0515 -0.6829
   24MOL0     C 3169   3.820  11.308   9.652 -0.0177  0.3142  0.0441
   24MOL0     C 3170   3.907  11.230   9.670  0.2242 -0.5786 -0.0843
   24MOL0     C 3171   3.127  11.087   9.731  0.3980 -0.1555  0.1641
   24MOL0     C 3172   2.990  11.066   9.759  0.6432  0.5359  0.0186
   24MOL0     H 3173   2.630  10.831   9.962  1.8598 -0.5469 -3.3110
   24MOL0     H 3174   2.378  10.772   9.987 -2.2999  0.6449  0.3175
   24MOL0     H 3175   2.074  10.968   9.705  1.3370 -0.3817 -0.7866
   24MOL0     H 3176   2.153  10.806   9.696  2.2465  3.1355 -1.7218
   24MOL0     H 3177   1.919  10.785   9.713 -0.9116  0.8574  0.7968
   24MOL0     H 3178   1.982  10.740   9.874  1.1736 -0.7756 -1.3309
   24MOL0     H 3179   1.945  10.983   9.946 -1.5238  1.5919  0.2698
   24MOL0     H 3180   1.873  11.022   9.790 -0.6097  1.9822  2.0522
   24MOL0     H 3181   1.706  10.805   9.838  2.1273 -1.6739  0.9821
   24MOL0     H 3182   1.777  10.833   9.997  1.6170  0.3893 -0.6083
   24MOL0     H 3183   1.707  11.074   9.966 -0.3175 -0.8504  1.7858
   24MOL0     H 3184   1.604  11.025   9.831 -0.6572 -0.8898 -0.5777
   24MOL0     H 3185   1.504  10.849   9.990  0.5936  0.9754 -0.6790
   24MOL0     H 3186   1.606  10.923  10.127 -0.1035  0.4977  0.2957
   24MOL0     H 3187   1.393  11.036  10.150 -2.1546 -0.7075 -1.4788
   24MOL0     H 3188   1.512  11.140  10.055 -0.0020  0.1689 -0.0947
   24MOL0     H 3189   1.342  11.001   9.869 -1.1321 -2.0982  1.0986
   24MOL0     H 3190   1.345  11.172   9.912  1.3398  0.5319  1.3755
   24MOL0     H 3191   1.144  11.275   9.989 -1.8575  0.0925 -2.5204
   24MOL0     H 3192   0.949  11.319  10.189 -0.6554 -1.7923  3.3059
   24MOL0     H 3193   0.837  11.254  10.065 -1.9320 -0.8310  1.1026
   24MOL0     H 3194   0.895  11.092  10.314  1.7106  1.4020 -0.5748
   24MOL0     H 3195   0.742  11.102  10.228 -2.8467  2.7279  4.1305
   24MOL0     H 3196   0.867  11.291  10.408  1.0324 -0.8718 -1.4153
   24MOL0     H 3197   0.738  11.179  10.442 -0.2362  2.4365  2.9959
   24MOL0     H 3198   0.594  11.294  10.266  0.1153 -0.7279  0.2307
   24MOL0     H 3199   0.723  11.409  10.239  0.5148 -2.4411 -2.8132
   24MOL0     H 3200   0.533  11.527  10.191  1.3194 -0.0289  0.5767
   24MOL0     H 3201   0.248  11.690  10.076  0.3720  1.2173  1.3283
   24MOL0     H 3202   0.366  11.803  10.140  2.5590  0.8953 -1.0657
   24MOL0     H 3203   0.421  11.666  10.046 -1.4858  4.7844 -3.9164
   24MOL0     H 3204  -0.095  11.683  10.218 -1.5260  1.7803 -1.0952
   24MOL0     H 3205  -0.318  11.726  10.193 -2.1071 -0.7601  0.4810
   24MOL0     H 3206  -0.545  11.627  10.543  0.2180 -0.3531 -0.4609
   24MOL0     H 3207  -0.573  11.807  10.550 -0.7493 -0.3122  1.1773
   24MOL0     H 3208  -0.709  11.588  10.379 -0.7064 -2.0555  2.4181
   24MOL0     H 3209  -0.763  11.641  10.540 -1.5235 -2.2230 -2.0082
   24MOL0     H 3210  -0.741  11.792  10.265  0.2822 -0.6952  1.0675
   24MOL0     H 3211  -0.763  11.873  10.421 -3.4187  1.0759  0.6406
   24MOL0     H 3212  -0.946  11.710  10.256  3.2456 -0.7654  0.0722
   24MOL0     H 3213  -0.993  11.731  10.424  0.1005 -0.6709  0.2103
   24MOL0     H 3214  -0.904  11.958  10.237  0.4582 -1.3631 -0.4593
   24MOL0     H 3215  -0.972  11.978  10.396 -3.6940 -1.0964  0.7633
   24MOL0     H 3216  -1.191  11.885  10.331  1.1731  3.5944  3.6688
   24MOL0     H 3217  -1.144  12.030  10.252  0.2904  0.3711  0.1933
   24MOL0     H 3218  -1.194  11.767  10.117 -1.8112  0.7912 -2.7439
   24MOL0     H 3219  -1.042  11.841  10.067  0.4955 -1.3693  1.1905
   24MOL0     H 3220  -1.141  12.032  10.000  1.4115 -0.9923  1.2680
   24MOL0     H 3221  -1.307  11.983  10.071  0.6012 -4.7504  4.3850
   24MOL0     H 3222  -0.353  11.777  10.630  0.3045  0.5024  1.0156
   24MOL0     H 3223  -0.102  11.756  10.639  2.1215  0.0832 -0.6245
   24MOL0     H 3224   0.221  11.546  10.563  2.3659 -1.4172  0.6566
   24MOL0     H 3225   0.426  11.442  10.598  3.4895 -0.8746 -0.4984
   24MOL0     H 3226   2.269  11.092   9.738  0.0793  1.5558  1.1263
   24MOL0     H 3227   2.494  11.160   9.709 -0.3219 -1.4428 -1.0265
   24MOL0     H 3228   2.900  11.374   9.852 -0.6431 -1.1644  1.4985
   24MOL0     H 3229   3.130  11.433   9.772  1.8515 -0.7297  1.7819
   24MOL0     H 3230   3.396  11.077   9.661  0.1169 -1.6842 -3.5155
   24MOL0     H 3231   3.343  11.182   9.515  1.5961  1.9024 -0.3945
   24MOL0     H 3232   3.508  11.327   9.510 -1.0899 -1.8755 -2.1874
   24MOL0     H 3233   3.585  11.171   9.544  2.2242  0.1880  1.0768
   24MOL0     H 3234   3.592  11.249   9.791 -0.5394 -1.4074 -0.1751
   24MOL0     H 3235   3.509  11.401   9.736 -1.4051  0.0716 -3.1161
   24MOL0     H 3236   3.735  11.445   9.765 -0.3103 -1.4312  0.1740
   24MOL0     H 3237   3.689  11.464   9.596 -1.7370  1.2657  0.7596
   24MOL0     H 3238   3.982  11.154   9.679 -1.2497 -2.3042 -1.5866
   24MOL0     H 3239   3.181  10.996   9.703 -0.5236 -0.1361 -1.8760
   24MOL0     H 3240   2.950  10.966   9.759 -2.2145  1.5798 -0.1254
   25MOL0     O 3241   7.358   9.494   7.443 -0.3339 -0.3967  0.3595
   25MOL0     C 3242   7.405   9.531   7.332 -0.5455 -0.2062 -1.0773
   25MOL0     O 3243   7.336   9.545   7.221 -0.2094  0.0365 -0.2420
   25MOL0     C 3244   7.209   9.501   7.221  0.1787  0.6959 -0.2550
   25MOL0     C 3245   7.187   9.361   7.221 -0.5217  0.4944  0.9145
   25MOL0     C 3246   7.059   9.304   7.205  0.0361 -0.2866  0.1205
   25MOL0     C 3247   6.949   9.387   7.193  0.7565 -0.0855  0.1655
   25MOL0     O 3248   6.819   9.337   7.176 -0.2075 -0.0021  0.4290
   25MOL0     C 3249   6.808   9.248   7.063  0.6725  0.2441  0.5401
   25MOL0     C 3250   6.651   9.229   7.041 -0.1835  0.4229  0.3205
   25MOL0     C 3251   6.633   9.132   6.924 -0.0925 -1.0363 -0.2940
   25MOL0     C 3252   6.572   9.190   6.791  0.2103 -0.7257  0.7104
   25MOL0     C 3253   6.432   9.250   6.810  1.1891  1.0492 -0.9964
   25MOL0     C 3254   6.337   9.160   6.894 -0.3575  0.2667  0.5140
   25MOL0     C 3255   6.184   9.185   6.872 -0.2845  0.0492 -0.3334
   25MOL0     C 3256   6.136   9.307   6.958  0.5844 -0.9095  0.3866
   25MOL0     N 3257   6.009   9.351   6.896 -0.2333  0.0326 -0.0605
   25MOL0     C 3258   5.892   9.294   6.916  0.9193 -0.1204 -0.5200
   25MOL0     C 3259   5.807   9.358   6.837 -0.5593  1.3937  0.1038
   25MOL0     C 3260   5.655   9.335   6.829 -0.1510 -0.1683  0.0639
   25MOL0     C 3261   5.579   9.389   6.948  0.3740 -0.2150  0.3556
   25MOL0     C 3262   5.425   9.368   6.936 -0.7073  0.5724 -0.2248
   25MOL0     C 3263   5.352   9.499   6.917 -0.2301  0.0430  0.0239
   25MOL0     O 3264   5.359   9.556   6.784  0.2977 -0.4281 -0.5823
   25MOL0     C 3265   5.240   9.605   6.741  0.6889  0.3906  0.7195
   25MOL0     C 3266   5.228   9.741   6.706  0.2664 -0.3229  0.1193
   25MOL0     C 3267   5.109   9.797   6.650  0.8317 -0.5384  1.1110
   25MOL0     C 3268   5.096   9.947   6.629 -0.2297  0.4885 -0.6766
   25MOL0     C 3269   5.000   9.710   6.623 -0.2498 -0.8874  0.1932
   25MOL0     C 3270   4.869   9.749   6.557  0.1874  0.2210 -0.4105
   25MOL0     O 3271   4.837   9.679   6.447 -0.2903  0.2729  0.4172
   25MOL0     C 3272   4.731   9.723   6.383 -0.1893 -1.3661  0.0937
   25MOL0     C 3273   4.727   9.826   6.295 -0.0780 -1.0547 -0.4648
   25MOL0     C 3274   4.609   9.861   6.230 -0.4950 -1.2075  0.4620
   25MOL0     C 3275   4.487   9.806   6.264  0.0005  1.1888  0.6551
   25MOL0     O 3276   4.371   9.844   6.205 -0.2337  0.5931 -0.8292
   25MOL0     C 3277   4.354   9.931   6.097 -0.4179 -1.2071  0.2055
   25MOL0     C 3278   4.207   9.987   6.101  0.2288 -0.0306 -0.2480
   25MOL0     C 3279   4.192  10.083   5.983  0.3352  0.0447  0.1435
   25MOL0     C 3280   4.045  10.128   5.966  0.0517  0.1745 -0.2069
   25MOL0     C 3281   4.002  10.248   6.062  0.3714 -0.0921 -0.1630
   25MOL0     C 3282   3.866  10.246   6.105 -0.1665 -0.0899 -0.5008
   25MOL0     C 3283   3.843  10.372   6.194  0.0217 -0.7153  0.4770
   25MOL0     C 3284   3.703  10.394   6.238  0.1627 -0.7923  0.1233
   25MOL0    Cl 3285   3.646  10.241   6.306  0.0886  0.2469 -0.0576
   25MOL0     C 3286   4.495   9.693   6.344 -0.6058 -0.2167 -0.0868
   25MOL0     C 3287   4.613   9.645   6.404 -0.6898  0.2913  0.6017
   25MOL0     O 3288   4.818   9.851   6.590  0.1828 -0.1010 -0.0718
   25MOL0     C 3289   5.018   9.573   6.642  0.1964  0.8674 -0.4684
   25MOL0     C 3290   5.133   9.520   6.697 -1.5680 -0.1361  1.0337
   25MOL0     N 3291   5.881   9.455   6.761 -0.6940  0.3740 -0.4989
   25MOL0     N 3292   5.999   9.444   6.804 -0.0395 -0.0484  0.0559
   25MOL0     C 3293   6.967   9.530   7.219  0.2095  0.0111 -0.0101
   25MOL0     C 3294   7.096   9.582   7.224  0.2204  1.1076 -0.5987
   25MOL0     C 3295   7.552   9.547   7.347  0.3342 -0.0176  0.8609
   25MOL0     C 3296   7.633   9.552   7.240 -0.2283  0.6574 -0.6469
   25MOL0     C 3297   7.766   9.576   7.239  0.9055  0.4154 -0.2430
   25MOL0     C 3298   7.834   9.584   7.362  0.8705 -0.5646  0.7062
   25MOL0     O 3299   7.966   9.617   7.355  0.1688 -0.2140 -0.6046
   25MOL0     C 3300   8.028   9.626   7.486  0.4545  0.3099 -0.5919
   25MOL0     C 3301   8.180   9.633   7.469 -0.3649  0.2898 -0.0082
   25MOL0     C 3302   8.227   9.762   7.414 -0.2860 -0.7579 -0.1484
   25MOL0     C 3303   8.224   9.889   7.509  0.3954  0.0108 -0.3802
   25MOL0     C 3304   8.315   9.991   7.444 -0.2758  0.4357 -0.3492
   25MOL0     C 3305   8.367  10.075   7.374  0.2808 -0.3732  0.5606
   25MOL0     C 3306   7.759   9.570   7.479  0.6064  0.4345 -0.2762
   25MOL0     C 3307   7.620   9.555   7.474  0.9665 -0.3252 -0.8867
   25MOL0     H 3308   7.264   9.285   7.227 -0.6633  0.2726  0.0816
   25MOL0     H 3309   7.041   9.197   7.202 -0.4676 -0.1891 -0.9554
   25MOL0     H 3310   6.840   9.306   6.976 -1.1977  2.3547  1.1384
   25MOL0     H 3311   6.872   9.161   7.079  2.1860  1.5081  1.8827
   25MOL0     H 3312   6.589   9.187   7.120 -0.8395 -0.6477 -0.7185
   25MOL0     H 3313   6.612   9.329   7.021 -1.9713 -0.3464 -0.1626
   25MOL0     H 3314   6.725   9.078   6.899  0.4497  0.1262 -0.9063
   25MOL0     H 3315   6.565   9.050   6.947  1.7505 -2.0506  1.8744
   25MOL0     H 3316   6.620   9.280   6.753 -1.5827 -0.4463 -1.0822
   25MOL0     H 3317   6.575   9.113   6.712 -1.1100  1.2689 -1.4070
   25MOL0     H 3318   6.434   9.346   6.863  1.8789 -1.2787  3.7358
   25MOL0     H 3319   6.394   9.255   6.708  2.6311  1.8815 -1.5262
   25MOL0     H 3320   6.350   9.053   6.878 -0.9111  0.4361 -1.3592
   25MOL0     H 3321   6.357   9.177   7.000  0.2682  1.4279  0.2353
   25MOL0     H 3322   6.165   9.206   6.766 -0.4273  1.9110  0.0098
   25MOL0     H 3323   6.133   9.093   6.901 -1.5761  0.2104 -1.9446
   25MOL0     H 3324   6.197   9.395   6.938 -0.9142  0.2482  0.7463
   25MOL0     H 3325   6.136   9.285   7.065  0.0977 -4.7246 -0.2562
   25MOL0     H 3326   5.858   9.211   6.977 -1.8250  2.2352  1.4525
   25MOL0     H 3327   5.620   9.381   6.736  2.2578  2.7690  0.4586
   25MOL0     H 3328   5.654   9.226   6.823  3.9431 -0.3536  0.1236
   25MOL0     H 3329   5.604   9.496   6.951  1.7180 -0.5065  0.2726
   25MOL0     H 3330   5.604   9.346   7.046  0.7663 -0.0317  0.3369
   25MOL0     H 3331   5.396   9.337   7.037 -0.0734 -2.3542 -0.8537
   25MOL0     H 3332   5.400   9.289   6.865  0.6975 -1.0224  0.9734
   25MOL0     H 3333   5.400   9.573   6.982  1.2732 -1.7596  1.0655
   25MOL0     H 3334   5.249   9.474   6.943  0.1870 -1.8259  0.0071
   25MOL0     H 3335   5.317   9.801   6.722  0.8922 -1.8715  3.2902
   25MOL0     H 3336   5.196   9.990   6.637 -0.5870  1.3708 -0.8947
   25MOL0     H 3337   5.039   9.977   6.541 -2.7934 -0.5795  0.5118
   25MOL0     H 3338   5.049  10.001   6.712 -1.9851  0.8810 -1.8783
   25MOL0     H 3339   4.817   9.877   6.264 -1.0634  0.6505 -0.6109
   25MOL0     H 3340   4.619   9.952   6.173 -3.5525 -0.4358  0.9666
   25MOL0     H 3341   4.420  10.017   6.108  0.5039 -1.7554 -0.8429
   25MOL0     H 3342   4.378   9.876   6.005 -0.4863 -0.1759 -0.4369
   25MOL0     H 3343   4.131   9.910   6.093  1.6383 -1.3907 -1.0984
   25MOL0     H 3344   4.215  10.038   6.197  0.0752  1.9864 -1.2306
   25MOL0     H 3345   4.214  10.032   5.888 -3.0729  1.2730 -1.5035
   25MOL0     H 3346   4.260  10.168   5.994 -0.2501  0.4972  0.3216
   25MOL0     H 3347   4.023  10.165   5.865 -2.4832  1.0206  0.5892
   25MOL0     H 3348   3.973  10.045   5.964 -0.1314  0.3183  0.5015
   25MOL0     H 3349   4.026  10.344   6.015  0.3920  0.1970  0.4259
   25MOL0     H 3350   4.059  10.235   6.155  0.8208 -0.0527 -0.4275
   25MOL0     H 3351   3.794  10.251   6.023  0.6966 -1.6208 -1.3889
   25MOL0     H 3352   3.846  10.154   6.160 -0.5337 -1.2792 -2.5395
   25MOL0     H 3353   3.883  10.461   6.145  1.2304 -1.7148 -0.4316
   25MOL0     H 3354   3.908  10.351   6.279  0.4955  0.9829  0.5602
   25MOL0     H 3355   3.638  10.426   6.156 -0.1674 -0.8326  0.3692
   25MOL0     H 3356   3.706  10.476   6.310 -2.0797 -0.5952  0.0524
   25MOL0     H 3357   4.399   9.644   6.358 -1.6256  1.9633  1.2035
   25MOL0     H 3358   4.608   9.552   6.460 -0.4656 -1.2662 -1.8191
   25MOL0     H 3359   4.945   9.498   6.613  0.6450 -0.4315  1.5696
   25MOL0     H 3360   5.142   9.412   6.706  0.3806  0.1360  3.1555
   25MOL0     H 3361   6.884   9.601   7.224  1.5108  1.5614  0.5175
   25MOL0     H 3362   7.099   9.690   7.232  1.8563  1.0016  0.5579
   25MOL0     H 3363   7.586   9.533   7.143 -2.0605 -0.8162  0.4497
   25MOL0     H 3364   7.817   9.571   7.143 -0.7860 -1.6472 -1.1154
   25MOL0     H 3365   7.984   9.712   7.538  1.7661  1.2537 -0.9782
   25MOL0     H 3366   8.012   9.535   7.545 -0.9949 -0.0893 -1.5684
   25MOL0     H 3367   8.223   9.558   7.403 -1.1051  1.2370 -1.6369
   25MOL0     H 3368   8.230   9.620   7.566  0.2179  1.5411 -0.1152
   25MOL0     H 3369   8.174   9.788   7.322  2.4568  1.5336 -1.2399
   25MOL0     H 3370   8.327   9.746   7.373 -0.3691  2.4393 -1.8559
   25MOL0     H 3371   8.265   9.847   7.601 -2.5229 -1.7125  0.2350
   25MOL0     H 3372   8.124   9.925   7.533  0.9852  0.6474  1.2953
   25MOL0     H 3373   8.399  10.164   7.323  0.6166 -1.2394 -0.7814
   25MOL0     H 3374   7.811   9.565   7.574  3.5706 -1.6337 -1.8232
   25MOL0     H 3375   7.574   9.524   7.567 -0.4239  3.4677 -0.1245
   26MOL0     O 3376   3.972   8.946   9.450  0.1424  0.3302 -0.8671
   26MOL0     C 3377   4.053   8.900   9.530 -1.2019 -0.9146 -0.2163
   26MOL0     O 3378   4.031   8.789   9.608 -0.9276 -0.0642 -0.5373
   26MOL0     C 3379   3.923   8.721   9.584 -0.3310  0.7228 -0.0760
   26MOL0     C 3380   3.886   8.653   9.466 -0.1630 -0.2797 -0.6633
   26MOL0     C 3381   3.758   8.591   9.457 -0.2223 -0.9320  0.7580
   26MOL0     C 3382   3.673   8.586   9.568  0.4842  0.0204 -0.0051
   26MOL0     O 3383   3.565   8.496   9.560  0.6273  0.2755 -0.7850
   26MOL0     C 3384   3.456   8.512   9.656 -0.9622 -0.4260 -0.4524
   26MOL0     C 3385   3.357   8.401   9.649 -0.1365  0.9706 -0.4320
   26MOL0     C 3386   3.413   8.263   9.662 -0.0884  0.1632  0.5655
   26MOL0     C 3387   3.294   8.167   9.651 -0.8291  0.2531  0.3442
   26MOL0     C 3388   3.250   8.133   9.507 -0.1414 -0.2443  0.0550
   26MOL0     C 3389   3.157   8.018   9.504 -0.1459  0.4057  0.0407
   26MOL0     C 3390   3.015   8.058   9.545 -0.2419 -0.4951  0.1044
   26MOL0     C 3391   2.925   7.928   9.543 -0.0029  0.4102 -0.4590
   26MOL0     N 3392   2.783   7.964   9.564 -0.8363  0.5907 -0.0688
   26MOL0     C 3393   2.729   8.070   9.637 -0.3823  0.9474 -0.2545
   26MOL0     C 3394   2.602   8.081   9.607  0.7690 -0.3506  0.0874
   26MOL0     C 3395   2.506   8.171   9.678 -0.2660 -0.9660  0.2684
   26MOL0     C 3396   2.417   8.258   9.583 -0.0166 -0.1146  0.5989
   26MOL0     C 3397   2.330   8.179   9.488  0.8635  0.1052  0.7088
   26MOL0     C 3398   2.236   8.268   9.406 -0.1487 -0.3409  0.6493
   26MOL0     O 3399   2.138   8.342   9.488  0.4278  0.0134  0.1155
   26MOL0     C 3400   2.035   8.421   9.434  0.2959  0.8301 -0.2354
   26MOL0     C 3401   2.041   8.479   9.308  0.1620  1.2978 -0.1290
   26MOL0     C 3402   1.953   8.566   9.252  0.5988  0.6091  0.6074
   26MOL0     C 3403   1.977   8.610   9.112 -0.6503  0.3802 -0.4693
   26MOL0     C 3404   1.834   8.593   9.332  0.5617 -0.1319 -0.5768
   26MOL0     C 3405   1.724   8.675   9.277  0.4208 -0.3542  0.8656
   26MOL0     O 3406   1.665   8.755   9.371 -0.3530  0.1909  0.2256
   26MOL0     C 3407   1.572   8.846   9.336  0.7498  0.0363 -0.4928
   26MOL0     C 3408   1.585   8.950   9.233 -0.4632  0.9627 -0.1130
   26MOL0     C 3409   1.488   9.052   9.212  0.1612  0.0864 -0.7663
   26MOL0     C 3410   1.364   9.034   9.281  0.0949 -0.3264 -0.2975
   26MOL0     O 3411   1.255   9.113   9.239  1.2903  0.1184 -1.0209
   26MOL0     C 3412   1.146   9.161   9.327  0.0619 -0.2699  0.1147
   26MOL0     C 3413   1.122   9.307   9.288 -0.3038 -0.8702 -0.4953
   26MOL0     C 3414   1.042   9.377   9.400  0.9158 -0.6061 -0.3285
   26MOL0     C 3415   0.986   9.523   9.357 -0.5474  0.7784  0.9158
   26MOL0     C 3416   0.891   9.557   9.470  1.1421 -0.4055 -0.2980
   26MOL0     C 3417   0.857   9.707   9.468 -0.8307 -0.5153 -0.6684
   26MOL0     C 3418   0.740   9.733   9.377  0.0901 -0.3219  0.8908
   26MOL0     C 3419   0.687   9.885   9.372 -0.0230  0.0884 -0.1948
   26MOL0    Cl 3420   0.654   9.945   9.541  0.1299  0.0027  0.3664
   26MOL0     C 3421   1.360   8.948   9.392  0.1593 -0.5131  0.4345
   26MOL0     C 3422   1.464   8.858   9.423  0.0866 -0.2443  0.0459
   26MOL0     O 3423   1.681   8.658   9.165 -0.4534 -0.3708  0.5448
   26MOL0     C 3424   1.818   8.523   9.460  1.0153 -0.1534 -0.0785
   26MOL0     C 3425   1.915   8.437   9.512 -0.5739 -0.0871  0.3243
   26MOL0     N 3426   2.572   7.985   9.514 -0.3545 -0.2422 -0.4083
   26MOL0     N 3427   2.681   7.908   9.491 -1.0883 -0.2172 -0.4788
   26MOL0     C 3428   3.715   8.639   9.698 -0.1188  0.5051 -0.4208
   26MOL0     C 3429   3.844   8.703   9.699  0.3964 -0.4183  0.1746
   26MOL0     C 3430   4.172   8.974   9.555  0.0088 -0.3189 -0.0773
   26MOL0     C 3431   4.245   8.946   9.677 -0.2359 -0.2704 -0.3058
   26MOL0     C 3432   4.343   9.041   9.714  0.0625 -0.2222 -0.0515
   26MOL0     C 3433   4.376   9.155   9.641 -0.3094  0.3745 -0.2549
   26MOL0     O 3434   4.475   9.225   9.688  0.1682 -0.0190  0.3728
   26MOL0     C 3435   4.513   9.347   9.615  0.3755  0.1373 -0.0541
   26MOL0     C 3436   4.410   9.464   9.651 -0.3031 -0.3218  0.7349
   26MOL0     C 3437   4.501   9.590   9.647 -0.2927  0.6652  0.0667
   26MOL0     C 3438   4.454   9.719   9.702 -0.5498 -0.4093  0.9540
   26MOL0     C 3439   4.347   9.773   9.617 -0.6763 -0.8247 -0.2034
   26MOL0     C 3440   4.271   9.818   9.537  0.3178 -0.4311  1.0286
   26MOL0     C 3441   4.313   9.170   9.520 -0.0829  0.5242  0.4911
   26MOL0     C 3442   4.209   9.089   9.483  0.2352 -0.9692 -0.4035
   26MOL0     H 3443   3.953   8.672   9.382 -1.5006  0.9981 -1.4961
   26MOL0     H 3444   3.715   8.548   9.367 -2.4214  0.0958  1.2518
   26MOL0     H 3445   3.504   8.500   9.754 -1.9554 -0.8994 -0.0127
   26MOL0     H 3446   3.421   8.616   9.659 -0.5055 -0.1411 -3.0765
   26MOL0     H 3447   3.292   8.403   9.737  0.8758  1.1237  0.3166
   26MOL0     H 3448   3.299   8.409   9.556  0.2859 -1.4004 -0.9661
   26MOL0     H 3449   3.495   8.241   9.592 -0.8045 -3.3380  0.6492
   26MOL0     H 3450   3.455   8.255   9.763  0.4216 -1.6278  0.2523
   26MOL0     H 3451   3.337   8.081   9.703  0.0088  1.8453  2.4111
   26MOL0     H 3452   3.206   8.212   9.699 -1.5542  1.3016 -1.8017
   26MOL0     H 3453   3.205   8.211   9.445  0.6846 -0.8453 -1.3384
   26MOL0     H 3454   3.342   8.100   9.459 -0.0370  1.1200 -0.7237
   26MOL0     H 3455   3.157   7.963   9.410  0.1446 -0.9292  0.7891
   26MOL0     H 3456   3.204   7.938   9.563  0.1869 -1.1425 -2.1864
   26MOL0     H 3457   3.009   8.095   9.648 -0.0280  1.6971 -0.6384
   26MOL0     H 3458   2.973   8.129   9.474  2.3870 -0.4132 -1.5258
   26MOL0     H 3459   2.958   7.858   9.620  1.1702 -0.1715 -1.4574
   26MOL0     H 3460   2.936   7.878   9.447  1.3659 -0.3611  0.0699
   26MOL0     H 3461   2.780   8.139   9.703 -0.2710 -0.3289  1.0344
   26MOL0     H 3462   2.445   8.106   9.742 -0.0393 -0.8528  0.6042
   26MOL0     H 3463   2.578   8.236   9.729 -0.0344  0.5121 -1.8056
   26MOL0     H 3464   2.484   8.321   9.523  1.0815 -2.8102 -1.1776
   26MOL0     H 3465   2.352   8.318   9.647 -1.0529 -1.5200  0.9230
   26MOL0     H 3466   2.269   8.105   9.540 -3.0006  0.7221 -2.5049
   26MOL0     H 3467   2.398   8.128   9.419  2.7332  0.2931  2.3030
   26MOL0     H 3468   2.183   8.207   9.333 -0.0158 -1.4373  1.4524
   26MOL0     H 3469   2.291   8.344   9.350 -2.3871 -0.4605 -1.9259
   26MOL0     H 3470   2.132   8.459   9.252  1.4561  2.5201  1.4418
   26MOL0     H 3471   1.929   8.545   9.038  0.2807 -0.8563 -0.0254
   26MOL0     H 3472   1.930   8.707   9.097 -1.0283 -0.0092 -2.0045
   26MOL0     H 3473   2.084   8.615   9.092 -0.7308 -1.9419 -1.9157
   26MOL0     H 3474   1.660   8.941   9.155  0.0858  0.2602  0.4893
   26MOL0     H 3475   1.507   9.122   9.132  2.9809  0.9143  0.4976
   26MOL0     H 3476   1.050   9.110   9.315 -0.0851 -0.0073  0.1617
   26MOL0     H 3477   1.171   9.177   9.432  1.8734  3.4132 -0.7027
   26MOL0     H 3478   1.214   9.365   9.299  1.0646 -3.0593  0.2444
   26MOL0     H 3479   1.087   9.317   9.185 -0.5913 -2.1926 -0.5373
   26MOL0     H 3480   1.103   9.391   9.489  2.5019  0.4408 -1.5128
   26MOL0     H 3481   0.947   9.326   9.421 -0.8285  1.7235 -1.9284
   26MOL0     H 3482   1.067   9.596   9.342  1.5742 -1.2432  1.8913
   26MOL0     H 3483   0.932   9.515   9.262  1.9038 -4.1468 -0.3737
   26MOL0     H 3484   0.941   9.537   9.565  1.5273 -0.3461 -0.4834
   26MOL0     H 3485   0.799   9.499   9.477  0.5039  0.7206  1.1155
   26MOL0     H 3486   0.839   9.728   9.574 -1.9247 -0.0985 -0.9255
   26MOL0     H 3487   0.946   9.768   9.445  0.8021 -3.0456 -1.4471
   26MOL0     H 3488   0.651   9.670   9.392 -0.1692 -0.3069 -0.4832
   26MOL0     H 3489   0.772   9.716   9.274 -1.2655  3.6508 -0.3712
   26MOL0     H 3490   0.599   9.883   9.307  1.7266  0.6789 -2.7270
   26MOL0     H 3491   0.754   9.953   9.319 -0.1755  0.2724 -0.1530
   26MOL0     H 3492   1.275   8.952   9.458  1.5035  0.6807  2.1692
   26MOL0     H 3493   1.458   8.776   9.493 -1.5994  0.1725  0.4441
   26MOL0     H 3494   1.720   8.531   9.508 -0.7023 -0.4946 -3.2462
   26MOL0     H 3495   1.911   8.379   9.604 -2.3699  1.2673  1.1755
   26MOL0     H 3496   3.659   8.642   9.792  0.9237 -2.5302  0.4173
   26MOL0     H 3497   3.883   8.750   9.788 -2.2123 -2.0800  2.3437
   26MOL0     H 3498   4.233   8.850   9.727  1.8749 -0.7552 -0.6330
   26MOL0     H 3499   4.396   9.012   9.804 -1.4307  0.2394  1.0186
   26MOL0     H 3500   4.604   9.385   9.662  0.5149 -0.2625  0.0007
   26MOL0     H 3501   4.523   9.331   9.508  0.8441 -2.0366  0.2686
   26MOL0     H 3502   4.362   9.453   9.749 -1.2120  0.6948  0.4297
   26MOL0     H 3503   4.330   9.474   9.576  0.2594 -0.0294  0.1691
   26MOL0     H 3504   4.539   9.610   9.546  0.1507 -0.4265 -0.0045
   26MOL0     H 3505   4.596   9.576   9.698  0.6253  0.0708 -1.7150
   26MOL0     H 3506   4.531   9.796   9.709  1.8700 -2.8132  2.4073
   26MOL0     H 3507   4.419   9.702   9.805 -2.2959 -0.2146  0.4377
   26MOL0     H 3508   4.202   9.871   9.475 -0.5660 -1.8822  0.7388
   26MOL0     H 3509   4.346   9.242   9.445 -0.4562  1.9154  1.6284
   26MOL0     H 3510   4.136   9.126   9.412 -0.9061  0.6418  1.4827
   27MOL0     O 3511   3.721   0.090   7.512 -0.2831  0.4088  0.4315
   27MOL0     C 3512   3.798   0.000   7.531  0.1308  1.0154  1.0681
   27MOL0     O 3513   3.753  -0.136   7.547  0.4654  0.4496  0.5616
   27MOL0     C 3514   3.618  -0.164   7.526  0.6934 -0.4127 -0.7020
   27MOL0     C 3515   3.517  -0.111   7.613  0.0587 -0.3785 -0.0048
   27MOL0     C 3516   3.375  -0.127   7.595  0.2647 -0.1979 -0.4180
   27MOL0     C 3517   3.338  -0.198   7.485 -0.3451  0.2443 -0.1823
   27MOL0     O 3518   3.204  -0.228   7.455 -0.2374 -0.3850  0.0324
   27MOL0     C 3519   3.104  -0.170   7.530  0.4578  0.2924  0.2550
   27MOL0     C 3520   2.971  -0.188   7.462  0.1704 -0.0316  0.2009
   27MOL0     C 3521   2.907  -0.324   7.450 -0.8817  0.4781  0.0699
   27MOL0     C 3522   2.773  -0.316   7.388  0.7249 -0.7961 -0.0686
   27MOL0     C 3523   2.766  -0.426   7.286  0.1486  0.6309  0.1139
   27MOL0     C 3524   2.627  -0.451   7.224  0.7840 -0.3414 -0.6650
   27MOL0     C 3525   2.592  -0.337   7.120  0.4139  0.1665 -0.3181
   27MOL0     C 3526   2.658  -0.362   6.983 -0.5833  0.0962 -0.8197
   27MOL0     N 3527   2.618  -0.254   6.899  0.9498 -0.5220  0.1068
   27MOL0     C 3528   2.670  -0.128   6.895 -0.6854  0.9099  0.4895
   27MOL0     C 3529   2.611  -0.072   6.792  0.2014 -0.5770  0.7951
   27MOL0     C 3530   2.663   0.047   6.732 -0.3989  0.6191 -0.7095
   27MOL0     C 3531   2.625   0.174   6.810  0.2769  0.2819 -0.2762
   27MOL0     C 3532   2.660   0.302   6.735  1.1976 -0.1346  0.8120
   27MOL0     C 3533   2.811   0.323   6.719  0.9611  0.0745  0.8817
   27MOL0     O 3534   2.881   0.339   6.846  0.0971  0.1602 -0.2201
   27MOL0     C 3535   3.015   0.378   6.856  0.2035  0.6807  0.6176
   27MOL0     C 3536   3.077   0.384   6.973  0.0457  0.8758  0.0788
   27MOL0     C 3537   3.206   0.422   6.995 -0.4190 -0.0790 -0.5907
   27MOL0     C 3538   3.252   0.427   7.140 -0.1996  0.2862 -0.2358
   27MOL0     C 3539   3.285   0.451   6.886  0.0840 -0.0569 -0.1090
   27MOL0     C 3540   3.427   0.485   6.906  1.2254  0.0024  0.3339
   27MOL0     O 3541   3.507   0.437   6.807 -0.5476  0.2089  0.2840
   27MOL0     C 3542   3.632   0.490   6.808  1.1131  0.2937  0.1790
   27MOL0     C 3543   3.664   0.595   6.713  0.6664  0.5884  0.6098
   27MOL0     C 3544   3.794   0.637   6.711 -0.3410 -0.4632 -0.0529
   27MOL0     C 3545   3.900   0.568   6.784  0.1172 -0.4357 -0.1746
   27MOL0     O 3546   4.032   0.596   6.768  0.8689 -0.6844 -0.3840
   27MOL0     C 3547   4.070   0.729   6.733 -0.4167  0.5289  0.8537
   27MOL0     C 3548   4.180   0.767   6.824  0.1161  0.5969  0.2950
   27MOL0     C 3549   4.318   0.710   6.779  0.6998 -0.6313 -0.6351
   27MOL0     C 3550   4.444   0.752   6.868  0.9142 -0.5084 -0.0798
   27MOL0     C 3551   4.558   0.661   6.861 -0.7114 -0.8259 -0.2421
   27MOL0     C 3552   4.658   0.689   6.974  0.3579 -0.0598  1.1566
   27MOL0     C 3553   4.806   0.641   6.955  0.8945  1.2127  0.3476
   27MOL0     C 3554   4.897   0.713   7.050 -0.4329  0.1788  0.0535
   27MOL0    Cl 3555   4.858   0.681   7.225  0.0358  0.2913  0.4965
   27MOL0     C 3556   3.863   0.462   6.868 -0.0597 -0.0546  0.0735
   27MOL0     C 3557   3.735   0.423   6.872 -0.4147 -0.6937  0.1002
   27MOL0     O 3558   3.453   0.574   6.987  0.0730  0.4015 -0.2917
   27MOL0     C 3559   3.235   0.436   6.758 -0.1994 -0.0590 -0.1058
   27MOL0     C 3560   3.102   0.405   6.741  0.3522 -0.0397 -0.7808
   27MOL0     N 3561   2.505  -0.147   6.752  0.4139  0.3997  0.2539
   27MOL0     N 3562   2.508  -0.267   6.818 -0.3191 -0.7445 -0.1329
   27MOL0     C 3563   3.437  -0.239   7.386  0.2622  0.2548 -0.3038
   27MOL0     C 3564   3.579  -0.234   7.415  0.4222 -0.3399  0.3497
   27MOL0     C 3565   3.945   0.023   7.520  0.3061  0.1921 -0.4313
   27MOL0     C 3566   3.994   0.140   7.457  0.0959  0.2665  0.4006
   27MOL0     C 3567   4.130   0.178   7.475  0.0507 -0.5107 -0.5078
   27MOL0     C 3568   4.212   0.116   7.563  1.5248  0.2255  0.3503
   27MOL0     O 3569   4.343   0.153   7.578 -0.1232  0.4713 -0.6676
   27MOL0     C 3570   4.383   0.282   7.522 -0.1269  0.1457 -0.4024
   27MOL0     C 3571   4.518   0.311   7.586  1.2102 -0.1705  0.7410
   27MOL0     C 3572   4.562   0.459   7.553  0.1202 -0.6230  0.8984
   27MOL0     C 3573   4.617   0.526   7.679 -0.9714 -0.4085  0.5214
   27MOL0     C 3574   4.513   0.574   7.767 -0.1856 -0.2960  0.0437
   27MOL0     C 3575   4.423   0.606   7.845 -0.1414 -0.3585  0.3112
   27MOL0     C 3576   4.157  -0.005   7.619  0.3564 -0.2932  0.1353
   27MOL0     C 3577   4.025  -0.052   7.600 -0.8354  0.5260  0.2473
   27MOL0     H 3578   3.554  -0.060   7.701  1.1820 -1.0716 -0.0474
   27MOL0     H 3579   3.314  -0.069   7.663 -0.7295  1.1985 -2.3907
   27MOL0     H 3580   3.081  -0.212   7.629 -2.4316 -1.2892 -0.9740
   27MOL0     H 3581   3.121  -0.062   7.543  0.0814  0.7693 -2.6832
   27MOL0     H 3582   2.900  -0.118   7.507  1.0939  1.9556 -1.2406
   27MOL0     H 3583   2.979  -0.153   7.358 -0.1592 -1.5051 -0.3427
   27MOL0     H 3584   2.972  -0.385   7.387  0.8516  1.6551  0.6214
   27MOL0     H 3585   2.907  -0.387   7.539 -1.7526  2.2175  1.3619
   27MOL0     H 3586   2.700  -0.326   7.468  1.2750  0.2045  0.5852
   27MOL0     H 3587   2.762  -0.223   7.331 -0.2019 -1.2055 -0.5839
   27MOL0     H 3588   2.840  -0.406   7.209  0.4899  0.8539  0.4923
   27MOL0     H 3589   2.797  -0.523   7.327 -0.4592  1.1729  1.9731
   27MOL0     H 3590   2.609  -0.546   7.173 -3.1925 -0.9380  1.4834
   27MOL0     H 3591   2.552  -0.447   7.303  1.5436 -2.0752  0.2183
   27MOL0     H 3592   2.486  -0.346   7.093  0.1298  1.2230  0.4293
   27MOL0     H 3593   2.604  -0.242   7.171  0.6620 -0.6567  1.2306
   27MOL0     H 3594   2.616  -0.454   6.941 -0.2807 -0.8853  0.9267
   27MOL0     H 3595   2.765  -0.383   6.986 -0.9620 -2.4548 -2.6751
   27MOL0     H 3596   2.743  -0.082   6.961 -1.2434  2.6547 -0.0578
   27MOL0     H 3597   2.769   0.020   6.733 -0.7435 -0.8167 -0.5417
   27MOL0     H 3598   2.618   0.061   6.634 -3.7164  0.1849  0.6216
   27MOL0     H 3599   2.668   0.176   6.910 -1.8926  2.0749  0.6987
   27MOL0     H 3600   2.519   0.166   6.834  0.8357 -1.0557  2.0127
   27MOL0     H 3601   2.622   0.380   6.802  1.8689  0.9225 -0.0167
   27MOL0     H 3602   2.617   0.303   6.634 -0.4736  1.4714  1.4751
   27MOL0     H 3603   2.838   0.407   6.654  0.3558 -1.8253 -1.9687
   27MOL0     H 3604   2.852   0.238   6.663  1.4730  1.0579 -0.2816
   27MOL0     H 3605   3.012   0.355   7.055 -1.1602  1.3671 -0.6813
   27MOL0     H 3606   3.247   0.530   7.177 -1.8186  0.3347 -0.5073
   27MOL0     H 3607   3.176   0.373   7.197 -1.9297  0.9249 -1.8302
   27MOL0     H 3608   3.352   0.387   7.158 -0.3273  0.9183  2.1456
   27MOL0     H 3609   3.585   0.638   6.651 -0.2713 -0.3184  1.1384
   27MOL0     H 3610   3.819   0.717   6.642 -0.9929  0.8191  1.1387
   27MOL0     H 3611   4.108   0.721   6.631 -0.1384  1.2898  0.8873
   27MOL0     H 3612   3.989   0.802   6.730  1.0205  2.1771 -0.8292
   27MOL0     H 3613   4.189   0.876   6.818  0.2769  0.8361  3.2930
   27MOL0     H 3614   4.151   0.740   6.926  2.1001  2.2286  1.3651
   27MOL0     H 3615   4.338   0.747   6.678 -1.6990  0.5412 -0.7627
   27MOL0     H 3616   4.308   0.602   6.766  0.2231 -0.6153 -0.4291
   27MOL0     H 3617   4.485   0.848   6.835 -2.4223  0.3866 -2.0658
   27MOL0     H 3618   4.411   0.766   6.972 -0.2227 -3.3921  0.0447
   27MOL0     H 3619   4.604   0.656   6.762 -1.6660 -2.6684 -0.6359
   27MOL0     H 3620   4.514   0.562   6.876 -0.9713 -0.7357 -0.4040
   27MOL0     H 3621   4.662   0.797   6.990  0.1266  0.8845 -3.7204
   27MOL0     H 3622   4.611   0.651   7.065  0.5043  1.3045  1.8364
   27MOL0     H 3623   4.840   0.642   6.851 -1.7738 -0.0808 -0.6230
   27MOL0     H 3624   4.820   0.535   6.977 -1.7579 -0.0294 -3.0033
   27MOL0     H 3625   4.891   0.820   7.029 -1.3901 -0.2462 -2.0575
   27MOL0     H 3626   4.998   0.688   7.018  0.0339  0.4033  1.2903
   27MOL0     H 3627   3.932   0.402   6.927  0.0950 -0.5019 -0.5492
   27MOL0     H 3628   3.703   0.336   6.929 -1.3218  0.2082  1.0148
   27MOL0     H 3629   3.301   0.451   6.674  1.0281  0.3682  0.8967
   27MOL0     H 3630   3.078   0.372   6.640  0.9715 -1.4712 -0.4763
   27MOL0     H 3631   3.418  -0.273   7.285 -1.0379 -1.7304  0.5441
   27MOL0     H 3632   3.652  -0.272   7.345  0.7943  0.7898  0.0925
   27MOL0     H 3633   3.936   0.196   7.384  1.0720 -0.1978 -0.7660
   27MOL0     H 3634   4.165   0.264   7.419  1.4858 -0.0077  1.0793
   27MOL0     H 3635   4.398   0.261   7.416 -1.6679 -1.4595 -0.3544
   27MOL0     H 3636   4.318   0.369   7.533 -1.1693 -0.4611 -1.5667
   27MOL0     H 3637   4.583   0.234   7.544 -0.1339 -0.9798  0.0618
   27MOL0     H 3638   4.508   0.293   7.693 -0.8997 -1.9198  0.3206
   27MOL0     H 3639   4.491   0.522   7.501  2.9050  0.5746 -1.7746
   27MOL0     H 3640   4.641   0.454   7.477 -0.4217 -1.8053  0.3798
   27MOL0     H 3641   4.683   0.605   7.643 -1.7682 -0.4019 -1.0029
   27MOL0     H 3642   4.694   0.467   7.729  0.6154  1.3651  0.2785
   27MOL0     H 3643   4.344   0.619   7.916  0.0507  2.5932  0.1236
   27MOL0     H 3644   4.226  -0.060   7.681 -1.9487 -1.3072  1.9679
   27MOL0     H 3645   3.985  -0.144   7.640  0.1299  0.3439  0.8088
   28MOL0     O 3646   6.275  10.513   2.223  0.0924 -0.3256 -0.1289
   28MOL0     C 3647   6.339  10.417   2.272 -0.2208 -0.9492  0.1468
   28MOL0     O 3648   6.338  10.383   2.398 -0.0095 -0.3950  0.1292
   28MOL0     C 3649   6.276  10.458   2.491  1.0376 -0.8017  0.2946
   28MOL0     C 3650   6.147  10.512   2.484 -0.0474  0.2205  0.3875
   28MOL0     C 3651   6.083  10.562   2.601 -0.3174 -0.4304  1.1602
   28MOL0     C 3652   6.143  10.578   2.718  0.3866 -0.5616 -0.2523
   28MOL0     O 3653   6.087  10.634   2.828  0.3302 -0.0173 -0.2124
   28MOL0     C 3654   5.946  10.651   2.841  0.4494  0.4021  0.2937
   28MOL0     C 3655   5.886  10.665   2.976 -0.3011 -0.2746  0.0382
   28MOL0     C 3656   5.973  10.781   3.052 -0.5219 -0.7393 -0.0358
   28MOL0     C 3657   5.923  10.777   3.190  0.3688 -0.2102 -0.0834
   28MOL0     C 3658   5.981  10.877   3.290  1.6508 -0.1337  0.2516
   28MOL0     C 3659   6.135  10.861   3.299  0.6398  0.5405 -1.1926
   28MOL0     C 3660   6.210  10.928   3.416  1.2924  0.2791 -0.5132
   28MOL0     C 3661   6.122  11.003   3.517 -0.4930 -0.1002  0.5879
   28MOL0     N 3662   6.059  11.127   3.470  0.5126 -0.1674 -0.3404
   28MOL0     C 3663   6.115  11.240   3.433 -0.4022  0.1035 -0.4092
   28MOL0     C 3664   6.016  11.330   3.416  0.6478 -0.4743 -0.7663
   28MOL0     C 3665   6.041  11.462   3.353 -0.0658 -0.1848 -0.7432
   28MOL0     C 3666   5.952  11.514   3.228  0.4899 -0.3998  0.1913
   28MOL0     C 3667   5.825  11.589   3.271 -0.2660 -0.3955  0.1775
   28MOL0     C 3668   5.730  11.520   3.363  0.0546  0.2363 -0.7815
   28MOL0     O 3669   5.604  11.592   3.382 -0.7114  0.2599  0.4217
   28MOL0     C 3670   5.501  11.579   3.298  0.6226  1.1644  0.0322
   28MOL0     C 3671   5.395  11.671   3.314 -0.1447  0.5069 -0.2361
   28MOL0     C 3672   5.280  11.669   3.234 -0.4907  0.1053  0.0210
   28MOL0     C 3673   5.194  11.793   3.230  0.9200 -0.3613 -0.1638
   28MOL0     C 3674   5.256  11.557   3.145  0.0651  0.1151 -0.6190
   28MOL0     C 3675   5.138  11.539   3.044  0.7108  0.3211  0.1955
   28MOL0     O 3676   5.150  11.456   2.937 -0.1666 -0.9457  0.3279
   28MOL0     C 3677   5.044  11.414   2.855  0.4013  0.4706 -0.9257
   28MOL0     C 3678   4.913  11.396   2.912 -0.2206 -0.2791 -0.2910
   28MOL0     C 3679   4.814  11.344   2.828 -0.3132  0.0472 -0.3676
   28MOL0     C 3680   4.848  11.286   2.702 -0.2432 -0.8500 -0.7286
   28MOL0     O 3681   4.745  11.220   2.642 -0.2756  0.2863 -1.2233
   28MOL0     C 3682   4.774  11.149   2.521  0.2281  0.1471 -0.1986
   28MOL0     C 3683   4.654  11.084   2.466 -0.4408  0.2639 -0.0872
   28MOL0     C 3684   4.611  10.945   2.524 -0.4816 -0.1157 -0.3507
   28MOL0     C 3685   4.495  10.898   2.438 -0.0447 -0.0243  0.0667
   28MOL0     C 3686   4.453  10.755   2.477  0.3267  0.1533  0.5275
   28MOL0     C 3687   4.321  10.724   2.402  0.4139  0.2424 -0.3681
   28MOL0     C 3688   4.266  10.589   2.441 -0.1083  0.4409 -0.5941
   28MOL0     C 3689   4.179  10.598   2.576 -0.1244 -0.0360  0.1133
   28MOL0    Cl 3690   4.045  10.708   2.557 -0.1897  0.2717 -0.2187
   28MOL0     C 3691   4.979  11.303   2.650  0.2867 -0.0389 -1.0487
   28MOL0     C 3692   5.073  11.365   2.727 -0.7412  0.7093  0.4246
   28MOL0     O 3693   5.043  11.601   3.073  0.3409 -0.3365 -0.0030
   28MOL0     C 3694   5.356  11.457   3.153 -0.1047  0.1238  0.7490
   28MOL0     C 3695   5.474  11.474   3.216  0.2804  0.8496  0.4151
   28MOL0     N 3696   5.896  11.273   3.464  0.3989  0.1101  0.2677
   28MOL0     N 3697   5.924  11.145   3.486 -0.1680 -0.6226 -0.1401
   28MOL0     C 3698   6.278  10.537   2.731  0.5218  0.7332  0.4792
   28MOL0     C 3699   6.343  10.484   2.616  0.7604 -0.6808 -0.4702
   28MOL0     C 3700   6.419  10.329   2.171 -0.6527 -0.3129 -1.3014
   28MOL0     C 3701   6.518  10.240   2.213  0.5993 -0.7278 -0.9118
   28MOL0     C 3702   6.588  10.163   2.117  0.6327  0.2410  0.1098
   28MOL0     C 3703   6.567  10.174   1.978  0.1602 -0.4364  0.4116
   28MOL0     O 3704   6.619  10.079   1.891  0.0254  0.4177 -0.4512
   28MOL0     C 3705   6.575  10.071   1.753 -0.4141 -0.7382 -0.1601
   28MOL0     C 3706   6.449   9.985   1.752  0.7689  0.6960  1.2404
   28MOL0     C 3707   6.398   9.952   1.610 -0.2637 -0.1498  0.0321
   28MOL0     C 3708   6.314  10.066   1.563  0.8837  0.6410  0.1824
   28MOL0     C 3709   6.262  10.061   1.431  0.3573  0.2297  0.0142
   28MOL0     C 3710   6.188  10.042   1.338  0.4951 -0.4446 -0.4428
   28MOL0     C 3711   6.469  10.262   1.936 -0.0375  0.4292  0.1596
   28MOL0     C 3712   6.400  10.337   2.030 -0.1856 -1.0074 -0.5725
   28MOL0     H 3713   6.091  10.495   2.393 -0.0837 -1.1009  0.6300
   28MOL0     H 3714   5.982  10.594   2.578 -0.6322 -2.1078  0.0013
   28MOL0     H 3715   5.925  10.746   2.790  0.6162  1.1240  1.5242
   28MOL0     H 3716   5.904  10.566   2.786 -1.6132  2.4756 -1.6157
   28MOL0     H 3717   5.779  10.687   2.973 -0.5233 -1.3457 -0.5143
   28MOL0     H 3718   5.912  10.579   3.039  1.9210  1.9879  2.4890
   28MOL0     H 3719   6.081  10.763   3.052 -0.5174 -0.7113  0.8691
   28MOL0     H 3720   5.949  10.875   3.002 -4.1204 -0.8627  1.2105
   28MOL0     H 3721   5.815  10.794   3.200  0.3296  0.9884 -2.0880
   28MOL0     H 3722   5.944  10.675   3.223  0.6512 -0.2954 -0.5217
   28MOL0     H 3723   5.950  10.979   3.264  0.7250 -0.2978  0.6718
   28MOL0     H 3724   5.929  10.854   3.383  1.0905 -0.8879 -0.2301
   28MOL0     H 3725   6.165  10.756   3.304  2.9327  1.1800  2.5255
   28MOL0     H 3726   6.170  10.895   3.201 -0.7392  1.7407 -1.2963
   28MOL0     H 3727   6.277  10.855   3.462  1.9300  1.1928  0.0414
   28MOL0     H 3728   6.279  11.000   3.369 -0.3382  1.7553 -0.7565
   28MOL0     H 3729   6.182  11.016   3.608  0.6305  0.5430 -0.2253
   28MOL0     H 3730   6.039  10.943   3.556 -0.2978  1.4505  3.6910
   28MOL0     H 3731   6.217  11.246   3.396 -1.0722 -0.3908 -2.4961
   28MOL0     H 3732   6.039  11.545   3.424  3.5156 -0.7548  0.2193
   28MOL0     H 3733   6.144  11.458   3.316  0.8458 -0.9161  1.6805
   28MOL0     H 3734   5.925  11.428   3.166 -0.2605  1.3829 -2.0953
   28MOL0     H 3735   6.012  11.576   3.160  1.8267 -0.5416  1.1999
   28MOL0     H 3736   5.768  11.614   3.181  2.9983 -0.1534 -2.0198
   28MOL0     H 3737   5.844  11.687   3.316 -2.0008  0.4880 -0.9128
   28MOL0     H 3738   5.785  11.515   3.457  1.9215  1.8994 -1.6984
   28MOL0     H 3739   5.702  11.420   3.328 -0.1195 -0.2463  0.6898
   28MOL0     H 3740   5.412  11.748   3.388  2.0666 -1.3772  1.3578
   28MOL0     H 3741   5.229  11.864   3.305  1.3174 -0.8683  0.1382
   28MOL0     H 3742   5.176  11.831   3.129 -2.9580 -3.6777 -0.9724
   28MOL0     H 3743   5.099  11.757   3.269  0.3357 -1.4781 -2.4122
   28MOL0     H 3744   4.912  11.432   3.014  1.5261 -1.9934  0.3837
   28MOL0     H 3745   4.720  11.331   2.881  1.2034  0.4119  2.6137
   28MOL0     H 3746   4.815  11.209   2.438 -2.6049 -0.6788 -2.3524
   28MOL0     H 3747   4.853  11.077   2.543  1.9314  2.0434  0.2470
   28MOL0     H 3748   4.568  11.151   2.476 -0.9261  0.2300 -3.0336
   28MOL0     H 3749   4.684  11.064   2.363  0.6030 -0.8489  0.4099
   28MOL0     H 3750   4.590  10.952   2.631 -1.7081  0.7788 -0.6305
   28MOL0     H 3751   4.686  10.867   2.507 -1.0811 -0.3253 -2.3211
   28MOL0     H 3752   4.408  10.958   2.467  2.7131  3.9457  0.7834
   28MOL0     H 3753   4.509  10.914   2.331  4.2676 -0.0217  0.4695
   28MOL0     H 3754   4.439  10.762   2.586  2.6532  1.0391  0.8343
   28MOL0     H 3755   4.536  10.688   2.454  0.3497  0.2283  0.3925
   28MOL0     H 3756   4.245  10.801   2.413  0.4267  0.2416 -0.2773
   28MOL0     H 3757   4.352  10.725   2.297  2.6892  1.7600  0.2482
   28MOL0     H 3758   4.349  10.520   2.458 -1.2765 -0.3869  2.2156
   28MOL0     H 3759   4.207  10.548   2.359 -0.9893 -1.4343  0.8911
   28MOL0     H 3760   4.238  10.632   2.662  1.6511  2.0372 -1.7687
   28MOL0     H 3761   4.145  10.497   2.599 -0.9200  0.0000 -0.8179
   28MOL0     H 3762   5.000  11.277   2.546 -2.4964  0.7982 -1.9224
   28MOL0     H 3763   5.179  11.370   2.705 -0.5010 -0.7394  1.1471
   28MOL0     H 3764   5.339  11.361   3.106  1.7831 -0.2274  0.7095
   28MOL0     H 3765   5.548  11.395   3.208  1.7983  2.3078 -0.5438
   28MOL0     H 3766   6.327  10.550   2.826  0.2369  1.2156  0.5628
   28MOL0     H 3767   6.449  10.460   2.624  1.4647  2.4815  2.0025
   28MOL0     H 3768   6.550  10.237   2.317 -0.6381  1.5829 -0.3975
   28MOL0     H 3769   6.653  10.087   2.158 -0.7497 -2.0570 -1.6696
   28MOL0     H 3770   6.567  10.163   1.694  0.7512  0.4086  1.3910
   28MOL0     H 3771   6.654  10.032   1.689  1.8588  5.2325 -1.6032
   28MOL0     H 3772   6.372  10.036   1.811  0.2011  1.3423 -0.0362
   28MOL0     H 3773   6.467   9.890   1.804 -0.8861 -1.2339 -1.4026
   28MOL0     H 3774   6.333   9.864   1.613 -0.0113 -0.3154  1.9741
   28MOL0     H 3775   6.485   9.918   1.553 -0.3674 -0.3363 -0.0137
   28MOL0     H 3776   6.366  10.162   1.568  2.7245 -0.2747 -0.6623
   28MOL0     H 3777   6.226  10.067   1.629  2.0176 -0.8469  1.7939
   28MOL0     H 3778   6.122  10.033   1.254  0.9615 -1.3475 -0.7233
   28MOL0     H 3779   6.437  10.288   1.836 -2.5125  0.5228  0.8929
   28MOL0     H 3780   6.323  10.395   1.980 -2.6922 -3.0211  0.6606
   29MOL0     O 3781   5.353   3.143   8.316  0.2530  0.5401  0.2320
   29MOL0     C 3782   5.446   3.115   8.386 -0.3921  0.3396 -0.1129
   29MOL0     O 3783   5.475   2.988   8.434 -0.8232  0.2735  0.9148
   29MOL0     C 3784   5.373   2.905   8.449  0.0540 -0.6247  0.4404
   29MOL0     C 3785   5.254   2.939   8.517 -1.0273 -0.0478 -0.5962
   29MOL0     C 3786   5.148   2.847   8.534  0.3398  0.1372  0.0897
   29MOL0     C 3787   5.168   2.730   8.477 -0.1625 -0.0523  0.1932
   29MOL0     O 3788   5.055   2.651   8.500  0.0554  0.1702  0.2373
   29MOL0     C 3789   5.060   2.508   8.473 -0.2056 -0.4326  0.7554
   29MOL0     C 3790   4.924   2.442   8.482 -0.3395 -0.0041 -0.0662
   29MOL0     C 3791   4.931   2.288   8.487  0.5447 -0.3938  0.2233
   29MOL0     C 3792   5.039   2.221   8.574  0.3505  0.4172 -0.0842
   29MOL0     C 3793   5.015   2.071   8.588  0.3822 -0.3748 -0.5246
   29MOL0     C 3794   5.116   2.013   8.688 -0.4934 -0.8129 -0.6330
   29MOL0     C 3795   5.097   1.869   8.704  0.2899  0.9736 -0.3658
   29MOL0     C 3796   4.972   1.834   8.785 -0.8248 -0.4188 -0.8130
   29MOL0     N 3797   4.928   1.702   8.760  0.4337 -0.3556  0.9010
   29MOL0     C 3798   4.831   1.660   8.671 -0.5777 -0.1646  1.3945
   29MOL0     C 3799   4.836   1.521   8.679 -0.5631 -0.6715  0.3890
   29MOL0     C 3800   4.733   1.428   8.620  0.5316 -0.1519 -0.3538
   29MOL0     C 3801   4.609   1.432   8.707  0.2795  0.1695 -0.0361
   29MOL0     C 3802   4.511   1.345   8.627  0.2467 -0.0630  0.9277
   29MOL0     C 3803   4.375   1.315   8.688 -0.9282  0.2847 -0.6365
   29MOL0     O 3804   4.307   1.230   8.596 -1.0574  0.6763  0.9378
   29MOL0     C 3805   4.173   1.224   8.610  0.0209 -1.1293  0.4444
   29MOL0     C 3806   4.102   1.269   8.725 -0.2569 -0.4612  0.0898
   29MOL0     C 3807   3.961   1.264   8.726 -0.0092  0.0395  0.0461
   29MOL0     C 3808   3.895   1.306   8.855  0.4597  0.3835 -1.2695
   29MOL0     C 3809   3.891   1.227   8.615 -1.1904  0.3526  0.7112
   29MOL0     C 3810   3.744   1.225   8.603  0.8943  0.5337  0.4657
   29MOL0     O 3811   3.697   1.206   8.475 -0.3315 -0.6438  0.3326
   29MOL0     C 3812   3.566   1.185   8.446  0.1280 -0.4692 -1.1296
   29MOL0     C 3813   3.455   1.157   8.517 -0.4073  0.3578 -1.1542
   29MOL0     C 3814   3.330   1.131   8.459  0.7397 -0.6555 -0.4621
   29MOL0     C 3815   3.317   1.130   8.321  0.4067 -0.2925 -0.3409
   29MOL0     O 3816   3.190   1.117   8.267  0.5117 -0.5790  0.6539
   29MOL0     C 3817   3.181   1.111   8.120  0.5537 -0.6836 -0.0688
   29MOL0     C 3818   3.028   1.115   8.081 -0.0963 -0.2014 -0.3184
   29MOL0     C 3819   2.953   1.001   8.152  0.9991  0.1391  0.9021
   29MOL0     C 3820   2.806   0.997   8.088  0.1500  0.0306 -0.2922
   29MOL0     C 3821   2.720   0.879   8.150  0.5884  0.5204 -0.0346
   29MOL0     C 3822   2.576   0.872   8.089  0.2561 -0.1972  0.6287
   29MOL0     C 3823   2.474   0.997   8.098 -0.2782  0.5789  0.1040
   29MOL0     C 3824   2.357   1.011   7.999  0.1402 -0.1234 -0.7553
   29MOL0    Cl 3825   2.311   0.851   7.926  0.0169  0.2058  0.1511
   29MOL0     C 3826   3.433   1.159   8.243  0.4136  0.9944  0.7867
   29MOL0     C 3827   3.553   1.186   8.306  0.2170  0.1173 -0.5826
   29MOL0     O 3828   3.664   1.238   8.698 -0.0365  0.1725 -0.5029
   29MOL0     C 3829   3.963   1.189   8.504 -1.1963 -1.0143  0.9363
   29MOL0     C 3830   4.100   1.187   8.500  0.1050  0.6699  1.1282
   29MOL0     N 3831   4.940   1.485   8.766 -0.8167  0.2513  0.0239
   29MOL0     N 3832   5.002   1.594   8.806 -0.0113 -0.1966  0.3936
   29MOL0     C 3833   5.293   2.693   8.410 -0.0796 -0.0186 -0.4149
   29MOL0     C 3834   5.387   2.785   8.396  0.2293  0.1918  0.0316
   29MOL0     C 3835   5.566   3.200   8.378  0.8353  0.9901 -0.2027
   29MOL0     C 3836   5.694   3.150   8.376 -0.5299  0.2579 -0.2772
   29MOL0     C 3837   5.805   3.234   8.359 -0.4871 -0.7050 -0.6398
   29MOL0     C 3838   5.784   3.378   8.358 -0.5955 -0.4359  1.3809
   29MOL0     O 3839   5.886   3.464   8.344  0.1739 -0.6837  1.1012
   29MOL0     C 3840   5.995   3.428   8.247  0.2755 -0.2514  1.0823
   29MOL0     C 3841   6.113   3.510   8.279  1.0578 -0.6948 -0.4265
   29MOL0     C 3842   6.186   3.453   8.412 -0.0463  0.3909  0.3894
   29MOL0     C 3843   6.273   3.324   8.395 -0.5012 -0.2895  0.3271
   29MOL0     C 3844   6.370   3.348   8.292 -0.8155 -0.1127 -0.4196
   29MOL0     C 3845   6.449   3.372   8.209 -0.4444 -1.3934 -0.6488
   29MOL0     C 3846   5.654   3.436   8.368 -0.4043 -0.3205 -0.2021
   29MOL0     C 3847   5.549   3.338   8.378  0.5107  1.0447 -0.3718
   29MOL0     H 3848   5.241   3.036   8.565  0.7332 -0.0803  0.0093
   29MOL0     H 3849   5.055   2.861   8.587  0.1080 -1.5098  0.1731
   29MOL0     H 3850   5.096   2.490   8.371  0.3508  0.1489  0.8493
   29MOL0     H 3851   5.127   2.474   8.552  0.8901  1.2403  0.5854
   29MOL0     H 3852   4.861   2.476   8.565  0.3822 -0.6438  0.7576
   29MOL0     H 3853   4.871   2.483   8.396  2.2420 -1.8549 -2.7043
   29MOL0     H 3854   4.832   2.256   8.520  1.0289 -3.3015 -0.8710
   29MOL0     H 3855   4.935   2.265   8.380  1.4568  2.8950 -0.5922
   29MOL0     H 3856   5.140   2.248   8.542 -0.3157  1.3185 -1.4941
   29MOL0     H 3857   5.027   2.263   8.674 -1.1068  0.1679 -0.1359
   29MOL0     H 3858   4.915   2.043   8.624  0.3772 -0.8152 -0.8715
   29MOL0     H 3859   5.029   2.020   8.493 -2.5787  0.3236 -1.4371
   29MOL0     H 3860   5.214   2.027   8.640 -0.8545 -0.3187 -1.2468
   29MOL0     H 3861   5.125   2.071   8.780 -1.0426 -0.4086 -0.8273
   29MOL0     H 3862   5.092   1.816   8.608 -0.0654 -0.4667  0.4301
   29MOL0     H 3863   5.184   1.828   8.755  1.7154  1.1150 -2.5516
   29MOL0     H 3864   4.885   1.888   8.746  0.3274  0.4223 -2.3237
   29MOL0     H 3865   4.982   1.845   8.893 -1.5881 -1.1149 -0.6632
   29MOL0     H 3866   4.751   1.722   8.631  1.0857 -0.0222 -2.0819
   29MOL0     H 3867   4.714   1.461   8.518 -1.7039 -1.0909 -0.3036
   29MOL0     H 3868   4.783   1.330   8.612  2.0926  0.5932 -0.0772
   29MOL0     H 3869   4.558   1.528   8.723 -1.3336 -1.0392  2.7078
   29MOL0     H 3870   4.623   1.379   8.801 -3.0386 -1.5718 -0.3787
   29MOL0     H 3871   4.552   1.244   8.614  0.4759  0.2639 -1.3023
   29MOL0     H 3872   4.497   1.391   8.528 -1.5347  1.1130  1.6637
   29MOL0     H 3873   4.325   1.413   8.693  0.2546  0.8398  2.2089
   29MOL0     H 3874   4.398   1.269   8.784  2.0568  0.0998 -1.3410
   29MOL0     H 3875   4.140   1.331   8.805 -2.8184  0.3398  0.7768
   29MOL0     H 3876   3.818   1.234   8.886  1.0409 -1.3716 -3.5880
   29MOL0     H 3877   3.965   1.311   8.938 -0.9414 -0.0468 -0.0097
   29MOL0     H 3878   3.850   1.404   8.841  2.6282  1.4353 -1.2083
   29MOL0     H 3879   3.458   1.166   8.626  1.1273 -1.7440 -0.9675
   29MOL0     H 3880   3.244   1.121   8.525  0.9689  0.7816  0.0892
   29MOL0     H 3881   3.228   1.201   8.080 -0.9572 -1.0910 -3.0009
   29MOL0     H 3882   3.232   1.026   8.074 -1.1214 -1.5348 -0.4274
   29MOL0     H 3883   2.993   1.217   8.096  1.8325  0.4795 -0.2067
   29MOL0     H 3884   3.021   1.099   7.973  1.3947 -1.2692 -0.2884
   29MOL0     H 3885   2.938   1.023   8.258  0.3320  0.9129  0.6627
   29MOL0     H 3886   3.004   0.907   8.131 -0.7712 -0.0746 -3.4515
   29MOL0     H 3887   2.752   1.091   8.105 -2.6971 -1.8570  2.0508
   29MOL0     H 3888   2.816   0.984   7.980 -3.2508 -1.2090 -0.5606
   29MOL0     H 3889   2.718   0.909   8.256  2.7076  2.2823 -0.4194
   29MOL0     H 3890   2.777   0.788   8.130  1.5836  1.2129 -0.4912
   29MOL0     H 3891   2.603   0.861   7.984 -1.7254 -2.5329  0.2780
   29MOL0     H 3892   2.520   0.786   8.128  0.0218 -0.1255  0.4482
   29MOL0     H 3893   2.536   1.087   8.090  3.0366 -1.4300  1.2137
   29MOL0     H 3894   2.431   0.989   8.199 -0.4904 -0.6805 -0.0625
   29MOL0     H 3895   2.396   1.071   7.916 -0.6054 -2.1387 -2.6652
   29MOL0     H 3896   2.271   1.062   8.042  1.9209  3.2371 -0.8768
   29MOL0     H 3897   3.450   1.180   8.138 -0.8611  0.8652  0.5290
   29MOL0     H 3898   3.642   1.190   8.245  0.4562 -0.9287 -0.3130
   29MOL0     H 3899   3.910   1.148   8.419 -0.1071 -2.0988  0.7488
   29MOL0     H 3900   4.157   1.167   8.410 -1.7442 -0.0602  0.0562
   29MOL0     H 3901   5.310   2.599   8.359  2.3704 -1.3663  2.5870
   29MOL0     H 3902   5.482   2.746   8.362  0.5293  0.3389  0.6899
   29MOL0     H 3903   5.714   3.043   8.385 -1.8531  0.0048 -0.1675
   29MOL0     H 3904   5.899   3.181   8.347  1.1854  1.7808  0.4319
   29MOL0     H 3905   6.027   3.324   8.244 -0.8106 -0.7591 -4.5004
   29MOL0     H 3906   5.954   3.449   8.148 -3.1880 -2.6986  1.8140
   29MOL0     H 3907   6.080   3.611   8.306 -0.9332 -1.7593  1.3668
   29MOL0     H 3908   6.178   3.517   8.191  0.1172 -0.0150 -1.0914
   29MOL0     H 3909   6.108   3.443   8.489 -1.7118 -1.6881 -1.4420
   29MOL0     H 3910   6.245   3.536   8.454 -0.2882  0.6261  0.2681
   29MOL0     H 3911   6.209   3.242   8.363  0.5949 -0.4903 -1.4839
   29MOL0     H 3912   6.313   3.295   8.493 -2.9954  0.8487  1.7791
   29MOL0     H 3913   6.527   3.415   8.150 -0.3314  1.1736  1.1910
   29MOL0     H 3914   5.643   3.544   8.375 -2.7706 -0.5884  1.3751
   29MOL0     H 3915   5.448   3.366   8.407  1.0513  0.5638  2.2486
   30MOL0     O 3916   9.294   0.376   8.554  0.5344 -0.2579 -0.1343
   30MOL0     C 3917   9.299   0.481   8.493 -0.0333  0.5331  0.6154
   30MOL0     O 3918   9.395   0.575   8.497 -0.0380  0.5378 -0.0984
   30MOL0     C 3919   9.502   0.539   8.576  0.1104 -0.1134  0.5110
   30MOL0     C 3920   9.539   0.600   8.695 -0.2458 -0.4871  0.4217
   30MOL0     C 3921   9.654   0.552   8.770  0.3997 -1.2963  0.4273
   30MOL0     C 3922   9.731   0.448   8.725 -0.0924 -0.3654  0.8188
   30MOL0     O 3923   9.838   0.392   8.795  0.0233  0.1963 -0.2842
   30MOL0     C 3924   9.842   0.406   8.931 -0.7319  1.1553  0.0453
   30MOL0     C 3925   9.975   0.342   8.994  0.0019  0.4985  0.9717
   30MOL0     C 3926   9.961   0.187   8.998  0.2210  0.6023  0.7950
   30MOL0     C 3927  10.056   0.137   9.099 -0.2662 -0.0491  0.5310
   30MOL0     C 3928  10.198   0.129   9.054  0.1772  0.7420 -0.2166
   30MOL0     C 3929  10.297   0.093   9.169 -1.0330  0.4686  0.1805
   30MOL0     C 3930  10.442   0.108   9.120 -0.1721 -0.2848  0.4277
   30MOL0     C 3931  10.544   0.111   9.240  0.6037 -0.3094  0.6986
   30MOL0     N 3932  10.688   0.124   9.197  0.1904  0.1284 -0.6919
   30MOL0     C 3933  10.790   0.090   9.294 -0.5887 -0.5586  0.9669
   30MOL0     C 3934  10.903   0.126   9.225  0.1898  0.8421  0.1263
   30MOL0     C 3935  11.042   0.119   9.280  0.0574  0.7736 -0.5269
   30MOL0     C 3936  11.079  -0.023   9.331  0.7871  0.9985  0.9427
   30MOL0     C 3937  11.212  -0.028   9.387 -0.1632 -0.0909  1.0381
   30MOL0     C 3938  11.206   0.022   9.528  0.1547  0.2236  0.5830
   30MOL0     O 3939  11.111  -0.055   9.606 -0.7648  0.5068  0.5504
   30MOL0     C 3940  11.145  -0.179   9.665  0.2045  0.3701 -1.5616
   30MOL0     C 3941  11.271  -0.242   9.667 -0.1058  0.4897  0.4467
   30MOL0     C 3942  11.290  -0.372   9.701  0.3554  0.6566  0.0445
   30MOL0     C 3943  11.429  -0.438   9.684  0.2714  0.0096 -0.6125
   30MOL0     C 3944  11.184  -0.433   9.788  0.3739  0.3032  0.3941
   30MOL0     C 3945  11.185  -0.568   9.863 -0.5643  0.8533  0.8399
   30MOL0     O 3946  11.096  -0.588   9.964  0.2233 -0.1426 -0.0468
   30MOL0     C 3947  11.111  -0.670  10.062 -0.1012  0.4535 -0.3453
   30MOL0     C 3948  10.992  -0.735  10.096  0.6052 -0.0762  0.6242
   30MOL0     C 3949  10.986  -0.828  10.200  0.2141  0.0074 -0.5543
   30MOL0     C 3950  11.104  -0.873  10.267 -0.2357  0.4130 -0.1656
   30MOL0     O 3951  11.114  -0.962  10.369 -0.8013 -0.1509 -0.5623
   30MOL0     C 3952  10.994  -0.991  10.449 -0.2052 -0.8311 -0.1551
   30MOL0     C 3953  11.027  -0.933  10.590  0.0095 -0.0742 -0.2265
   30MOL0     C 3954  11.133  -1.018  10.663 -0.3931 -0.2621  0.1907
   30MOL0     C 3955  11.136  -0.998  10.818  0.3792  0.2575 -1.3083
   30MOL0     C 3956  11.242  -1.089  10.870 -1.0095 -0.2092 -0.1288
   30MOL0     C 3957  11.367  -1.017  10.914 -0.9822  0.3263  0.1012
   30MOL0     C 3958  11.471  -1.121  10.963 -0.2014 -0.6311 -0.8879
   30MOL0     C 3959  11.597  -1.061  11.010  0.8275 -0.2380 -0.9148
   30MOL0    Cl 3960  11.584  -0.937  11.143  0.0691  0.6528  0.1228
   30MOL0     C 3961  11.222  -0.822  10.219 -0.8541 -0.3718 -0.0845
   30MOL0     C 3962  11.229  -0.718  10.125  0.0483 -0.1856  0.4019
   30MOL0     O 3963  11.277  -0.647   9.832 -0.6496 -0.4474  0.2246
   30MOL0     C 3964  11.062  -0.361   9.797  0.2750  0.0147  0.0760
   30MOL0     C 3965  11.042  -0.234   9.741  0.7367  0.0118  1.0039
   30MOL0     N 3966  10.864   0.191   9.107  0.4697 -0.0665  1.2534
   30MOL0     N 3967  10.740   0.181   9.085 -0.4334  0.9214  0.1301
   30MOL0     C 3968   9.698   0.393   8.605 -0.6070  0.3599 -0.0866
   30MOL0     C 3969   9.587   0.437   8.529  0.1738  0.3998 -0.8608
   30MOL0     C 3970   9.196   0.496   8.386  0.6290  0.2086  0.1037
   30MOL0     C 3971   9.074   0.427   8.386 -0.0568  0.8513 -0.3220
   30MOL0     C 3972   8.976   0.439   8.289 -0.1191 -0.2308  0.8013
   30MOL0     C 3973   8.993   0.532   8.185  1.0404 -0.8228 -0.3054
   30MOL0     O 3974   8.892   0.566   8.097  0.8961  0.1693  0.1373
   30MOL0     C 3975   8.776   0.631   8.149  0.8977 -0.1447  0.1679
   30MOL0     C 3976   8.814   0.784   8.150 -0.1633 -0.4647  0.1318
   30MOL0     C 3977   8.820   0.840   8.291 -0.3349  0.2328 -0.3205
   30MOL0     C 3978   8.773   0.983   8.295 -0.3843  0.1256  0.5113
   30MOL0     C 3979   8.624   0.977   8.301  0.1160 -0.0635  1.1732
   30MOL0     C 3980   8.505   0.962   8.317 -0.9391  0.8255  0.0055
   30MOL0     C 3981   9.104   0.614   8.189  0.3514  0.1007 -0.2143
   30MOL0     C 3982   9.210   0.587   8.281  0.2028  0.4719 -0.6239
   30MOL0     H 3983   9.489   0.690   8.730 -1.6154  0.3682 -3.2588
   30MOL0     H 3984   9.680   0.616   8.853 -0.0365  0.1593 -0.5247
   30MOL0     H 3985   9.842   0.510   8.964 -0.7561  0.2331  3.3350
   30MOL0     H 3986   9.750   0.367   8.977 -0.5330  0.1668 -0.3722
   30MOL0     H 3987  10.056   0.382   8.932 -1.9330  1.7352 -0.8929
   30MOL0     H 3988   9.987   0.384   9.094 -0.1007  2.0226  0.3718
   30MOL0     H 3989   9.858   0.166   9.029 -0.5999  0.7229 -1.6199
   30MOL0     H 3990   9.972   0.128   8.907 -0.4556 -0.6214  1.4878
   30MOL0     H 3991  10.038   0.199   9.187  1.0532 -1.4037  1.8231
   30MOL0     H 3992  10.022   0.040   9.137 -1.3646  0.1148 -0.0029
   30MOL0     H 3993  10.209   0.050   8.979 -3.4866  0.2281 -0.3652
   30MOL0     H 3994  10.204   0.229   9.011  0.3470  1.4284  1.3349
   30MOL0     H 3995  10.289   0.164   9.252 -2.5866 -1.1796  1.5255
   30MOL0     H 3996  10.266  -0.001   9.215  1.7001  0.1521  1.5198
   30MOL0     H 3997  10.461   0.027   9.048  2.3650  0.7077 -0.1365
   30MOL0     H 3998  10.456   0.196   9.057 -2.1607 -1.6515 -2.1223
   30MOL0     H 3999  10.522   0.014   9.286  1.0503  0.4480  2.5648
   30MOL0     H 4000  10.513   0.190   9.308 -1.2745 -1.0211  0.7334
   30MOL0     H 4001  10.789   0.055   9.396  1.6622  2.9917  2.3988
   30MOL0     H 4002  11.103   0.133   9.190 -0.8386 -0.3951 -1.3419
   30MOL0     H 4003  11.060   0.188   9.363  0.9919  0.3506 -0.3690
   30MOL0     H 4004  11.085  -0.090   9.245 -0.2131  0.6975  1.0978
   30MOL0     H 4005  10.998  -0.056   9.396  2.6203 -0.1883  2.7326
   30MOL0     H 4006  11.288   0.031   9.334  1.5265 -0.4682  2.9492
   30MOL0     H 4007  11.247  -0.131   9.392  0.7728  0.0623 -1.1163
   30MOL0     H 4008  11.184   0.129   9.526  3.7237  1.1592  2.1859
   30MOL0     H 4009  11.307   0.023   9.570  0.8186  1.8201 -0.8918
   30MOL0     H 4010  11.362  -0.201   9.625  1.4737 -2.2344  0.9510
   30MOL0     H 4011  11.497  -0.360   9.648 -0.5420  0.4551 -1.2066
   30MOL0     H 4012  11.466  -0.478   9.779  1.0734  2.9266  0.4005
   30MOL0     H 4013  11.436  -0.511   9.602  3.3173 -0.6201  0.0523
   30MOL0     H 4014  10.902  -0.710  10.040 -0.4393 -1.2130  1.7228
   30MOL0     H 4015  10.886  -0.855  10.231  0.7263 -0.7403  0.4770
   30MOL0     H 4016  10.908  -0.934  10.412  0.9282  3.6137  3.2098
   30MOL0     H 4017  10.966  -1.096  10.459  1.7847 -1.2246  2.1657
   30MOL0     H 4018  11.057  -0.828  10.574 -0.2560 -0.0019 -0.2474
   30MOL0     H 4019  10.933  -0.930  10.645  0.2445  1.5879  0.1301
   30MOL0     H 4020  11.235  -0.989  10.639 -0.6948 -1.1606 -2.4108
   30MOL0     H 4021  11.120  -1.121  10.630 -1.1623 -0.9373  2.3803
   30MOL0     H 4022  11.162  -0.893  10.834  2.5294 -0.1536 -1.7910
   30MOL0     H 4023  11.033  -1.018  10.851 -0.2875  2.6754 -1.7242
   30MOL0     H 4024  11.262  -1.169  10.799 -0.7734 -1.6420  1.4839
   30MOL0     H 4025  11.207  -1.146  10.957 -1.0642 -0.0283 -0.0321
   30MOL0     H 4026  11.412  -0.979  10.822 -2.4929 -2.4752 -1.9319
   30MOL0     H 4027  11.363  -0.936  10.988 -0.0451 -0.8980  1.5564
   30MOL0     H 4028  11.490  -1.196  10.886 -1.5726 -1.2562 -0.6619
   30MOL0     H 4029  11.419  -1.169  11.047 -0.1210  0.0043 -0.4650
   30MOL0     H 4030  11.645  -1.010  10.926 -2.3616 -1.0549 -3.3923
   30MOL0     H 4031  11.661  -1.141  11.049  1.5291  1.4006  1.5572
   30MOL0     H 4032  11.311  -0.849  10.274 -0.8935  0.9890  0.7007
   30MOL0     H 4033  11.326  -0.669  10.115 -0.2156  0.1508 -0.6044
   30MOL0     H 4034  10.978  -0.407   9.847  0.5846 -1.5570 -0.7750
   30MOL0     H 4035  10.947  -0.182   9.754 -0.6508 -1.7728 -1.3517
   30MOL0     H 4036   9.768   0.317   8.573 -1.4112 -1.0053  1.2799
   30MOL0     H 4037   9.563   0.394   8.432 -1.3254 -1.2141  0.1495
   30MOL0     H 4038   9.061   0.350   8.462 -1.3928  1.0098 -0.3720
   30MOL0     H 4039   8.897   0.365   8.284 -1.0643  0.6589  2.0299
   30MOL0     H 4040   8.686   0.613   8.090 -1.0952  1.4688  2.4907
   30MOL0     H 4041   8.760   0.600   8.253  0.1726 -0.9878 -0.1846
   30MOL0     H 4042   8.736   0.841   8.100 -1.5767 -1.8999  0.6250
   30MOL0     H 4043   8.913   0.806   8.109 -0.1774  2.5163  1.4794
   30MOL0     H 4044   8.924   0.822   8.319 -0.1751  0.5182 -0.7361
   30MOL0     H 4045   8.760   0.781   8.362 -0.7560  0.6938 -0.2859
   30MOL0     H 4046   8.821   1.037   8.213  1.9463 -0.2936  1.5078
   30MOL0     H 4047   8.797   1.037   8.388 -0.4578  1.2334 -0.0920
   30MOL0     H 4048   8.401   0.940   8.329 -1.1738  1.8120 -0.1089
   30MOL0     H 4049   9.098   0.699   8.122 -1.9630  0.0992 -0.0959
   30MOL0     H 4050   9.302   0.644   8.271  0.3826  0.5444  1.1155
   31MOL0     O 4051  10.372   6.937  10.612 -0.0874  0.0011 -0.5498
   31MOL0     C 4052  10.400   7.004  10.511 -0.5372  0.0335 -0.4918
   31MOL0     O 4053  10.520   7.004  10.447  0.1552  0.3363  0.3490
   31MOL0     C 4054  10.617   6.909  10.479 -1.1283  0.2351  0.2359
   31MOL0     C 4055  10.659   6.811  10.389  0.7123 -0.4602  0.1382
   31MOL0     C 4056  10.755   6.716  10.418  0.3475 -1.0074 -0.1176
   31MOL0     C 4057  10.819   6.721  10.539 -0.0093  0.3796  0.0606
   31MOL0     O 4058  10.927   6.647  10.583 -0.1099 -0.8020 -0.1441
   31MOL0     C 4059  10.990   6.559  10.486  0.3952 -1.1351  0.2820
   31MOL0     C 4060  11.122   6.523  10.551 -1.2381 -0.6575  0.3927
   31MOL0     C 4061  11.113   6.414  10.660  0.2742 -0.5269 -0.5295
   31MOL0     C 4062  11.082   6.272  10.611 -1.2431 -0.4617  0.8194
   31MOL0     C 4063  11.002   6.188  10.705  0.8591  0.0730  0.3102
   31MOL0     C 4064  10.854   6.228  10.718 -0.2624  0.6277  1.1668
   31MOL0     C 4065  10.784   6.148  10.818  0.2328  0.3925  0.0671
   31MOL0     C 4066  10.659   6.226  10.855 -0.0262 -0.4697 -0.1010
   31MOL0     N 4067  10.557   6.264  10.752  0.1082 -0.3971 -0.0217
   31MOL0     C 4068  10.542   6.390  10.706  0.1367  0.6563  0.4166
   31MOL0     C 4069  10.497   6.386  10.580 -0.2092  0.3533 -0.2737
   31MOL0     C 4070  10.475   6.501  10.491  0.2300 -0.4184 -0.3789
   31MOL0     C 4071  10.398   6.615  10.559 -0.6872  0.3128 -0.3531
   31MOL0     C 4072  10.259   6.561  10.609 -0.4885 -0.1977  0.2635
   31MOL0     C 4073  10.165   6.682  10.628 -0.9284 -0.4043 -1.0690
   31MOL0     O 4074  10.046   6.618  10.680  0.2054 -0.1264 -0.5679
   31MOL0     C 4075   9.940   6.696  10.721 -0.6369  0.2869  0.4344
   31MOL0     C 4076   9.937   6.835  10.693  0.4743 -0.1013 -0.3291
   31MOL0     C 4077   9.827   6.918  10.725  0.5616  0.6174  0.1323
   31MOL0     C 4078   9.827   7.068  10.682 -0.6488  0.3920 -0.3591
   31MOL0     C 4079   9.708   6.862  10.787  0.4964  0.3669  0.6321
   31MOL0     C 4080   9.571   6.915  10.827  0.4053  0.4245 -0.2776
   31MOL0     O 4081   9.490   6.837  10.901  0.1901 -0.3235  0.3334
   31MOL0     C 4082   9.359   6.873  10.909  0.4428 -1.1900  0.3670
   31MOL0     C 4083   9.266   6.809  10.831  1.4464  0.9787  0.6623
   31MOL0     C 4084   9.122   6.836  10.849  0.1548 -0.1040 -0.0146
   31MOL0     C 4085   9.083   6.943  10.925 -0.4986 -0.6732  0.6006
   31MOL0     O 4086   8.961   6.988  10.940 -0.0086  0.3296 -0.4013
   31MOL0     C 4087   8.852   6.927  10.875 -0.7579 -0.2331  0.1653
   31MOL0     C 4088   8.735   7.017  10.899 -0.9194 -0.6463 -0.8792
   31MOL0     C 4089   8.613   6.967  10.823 -0.5280  0.1219  0.8158
   31MOL0     C 4090   8.493   7.053  10.834 -0.3166  0.5698 -0.0409
   31MOL0     C 4091   8.374   7.021  10.743  0.0522  0.1562  0.2330
   31MOL0     C 4092   8.292   6.914  10.810 -0.2829 -0.9682 -0.0272
   31MOL0     C 4093   8.174   6.861  10.729 -0.0282  0.0913 -0.1997
   31MOL0     C 4094   8.070   6.786  10.813  0.2578  0.6231  0.4515
   31MOL0    Cl 4095   8.137   6.656  10.917 -0.2067 -0.5737 -0.0739
   31MOL0     C 4096   9.184   7.008  11.004  0.4547  0.0823  0.0963
   31MOL0     C 4097   9.319   6.967  11.010  1.0471  0.0066  0.5206
   31MOL0     O 4098   9.543   7.028  10.792 -0.1552  0.3316  0.2315
   31MOL0     C 4099   9.724   6.721  10.824  1.2866  0.3120  0.3590
   31MOL0     C 4100   9.829   6.642  10.781 -0.1934  0.1523  0.4328
   31MOL0     N 4101  10.478   6.252  10.551 -0.9867  1.0400 -0.3176
   31MOL0     N 4102  10.506   6.177  10.655  0.5988  0.2292 -0.7081
   31MOL0     C 4103  10.783   6.826  10.625 -1.0763  0.5062  0.5280
   31MOL0     C 4104  10.680   6.913  10.598  0.5085 -0.2159 -0.0367
   31MOL0     C 4105  10.296   7.085  10.443 -0.3594 -0.2195 -0.7091
   31MOL0     C 4106  10.186   7.139  10.517 -0.8326  0.2234 -0.4302
   31MOL0     C 4107  10.077   7.179  10.450  0.3531  0.6433 -0.7998
   31MOL0     C 4108  10.059   7.178  10.317 -0.1782  0.6841  0.5967
   31MOL0     O 4109   9.942   7.203  10.246  0.2969  0.6337 -0.0380
   31MOL0     C 4110   9.838   7.274  10.315  0.6959  0.0977  0.4748
   31MOL0     C 4111   9.734   7.297  10.207 -0.4211  0.2859 -0.3936
   31MOL0     C 4112   9.597   7.362  10.252 -0.4723 -0.8177  0.1542
   31MOL0     C 4113   9.622   7.510  10.310  0.1825  0.7910 -0.4950
   31MOL0     C 4114   9.499   7.556  10.368 -0.5008 -0.2867  0.2226
   31MOL0     C 4115   9.387   7.574  10.398  0.6627 -0.2182  0.0463
   31MOL0     C 4116  10.171   7.127  10.247 -0.3982  0.2206  0.8957
   31MOL0     C 4117  10.288   7.077  10.306  0.0705 -0.2233  0.2043
   31MOL0     H 4118  10.613   6.801  10.292  1.0268 -1.2032  0.0605
   31MOL0     H 4119  10.782   6.644  10.342  2.1209 -0.9352  0.3893
   31MOL0     H 4120  10.934   6.468  10.462 -2.9728  0.8995 -0.2540
   31MOL0     H 4121  11.015   6.618  10.398  2.7479 -0.2871  1.4444
   31MOL0     H 4122  11.190   6.493  10.471 -0.6756  1.6621 -0.0970
   31MOL0     H 4123  11.167   6.611  10.598  2.8033 -2.4042  0.1218
   31MOL0     H 4124  11.208   6.416  10.715  2.2511  0.5053 -3.6749
   31MOL0     H 4125  11.041   6.459  10.728  0.1636 -1.3025 -0.1168
   31MOL0     H 4126  11.017   6.266  10.523 -3.6717 -2.1094  2.5796
   31MOL0     H 4127  11.179   6.226  10.592 -2.0572 -2.3298  0.9099
   31MOL0     H 4128  11.007   6.083  10.675  0.6995 -0.1995  1.2149
   31MOL0     H 4129  11.041   6.194  10.807 -1.7177  2.8324  1.3064
   31MOL0     H 4130  10.835   6.335  10.732 -1.4326  0.9855 -2.1690
   31MOL0     H 4131  10.815   6.219  10.616  0.9542 -1.7333  0.8373
   31MOL0     H 4132  10.755   6.051  10.775  3.5328 -0.0193 -1.5682
   31MOL0     H 4133  10.852   6.130  10.901  2.9367 -0.0488 -2.0881
   31MOL0     H 4134  10.691   6.314  10.911  0.6071  0.0899 -1.3070
   31MOL0     H 4135  10.602   6.163  10.924 -0.4602 -1.6787 -1.5274
   31MOL0     H 4136  10.553   6.481  10.764  0.4119  0.1116  1.2222
   31MOL0     H 4137  10.571   6.540  10.457  0.3884 -1.1499 -0.7993
   31MOL0     H 4138  10.422   6.469  10.401  1.7609  2.0185 -2.2918
   31MOL0     H 4139  10.392   6.695  10.485  1.2754  0.1300 -0.7637
   31MOL0     H 4140  10.451   6.654  10.647 -0.6580 -1.6198  0.5516
   31MOL0     H 4141  10.285   6.533  10.711  1.8748 -0.6783 -0.4032
   31MOL0     H 4142  10.213   6.485  10.544 -1.2161 -0.2886  0.8735
   31MOL0     H 4143  10.148   6.734  10.533 -1.7984  1.1084 -0.1245
   31MOL0     H 4144  10.213   6.747  10.701 -2.9882  0.5460 -0.4886
   31MOL0     H 4145  10.024   6.891  10.658 -1.3105  3.3770  0.2926
   31MOL0     H 4146   9.851   7.070  10.576  0.1985 -1.6899 -0.2461
   31MOL0     H 4147   9.734   7.122  10.700 -1.9139 -1.6314 -0.4844
   31MOL0     H 4148   9.907   7.116  10.739 -0.5739  2.3075 -1.9975
   31MOL0     H 4149   9.301   6.734  10.760  0.7898  1.7945 -0.5677
   31MOL0     H 4150   9.050   6.772  10.799 -0.7003  0.4166  0.5320
   31MOL0     H 4151   8.877   6.926  10.768 -0.5922 -1.6594  0.2055
   31MOL0     H 4152   8.824   6.826  10.904 -0.7899 -0.7431 -1.5073
   31MOL0     H 4153   8.707   7.022  11.004 -3.0002 -0.6588 -1.3876
   31MOL0     H 4154   8.774   7.112  10.862  0.1095 -1.4667 -1.9635
   31MOL0     H 4155   8.588   6.866  10.857 -0.1564 -0.5549 -0.8391
   31MOL0     H 4156   8.647   6.951  10.720 -2.2242  0.9174  0.0903
   31MOL0     H 4157   8.457   7.047  10.937 -1.9828  0.9803 -0.5610
   31MOL0     H 4158   8.515   7.160  10.826  2.7986  0.1346  1.1748
   31MOL0     H 4159   8.392   6.981  10.643 -0.2817  1.4367 -0.3539
   31MOL0     H 4160   8.301   7.102  10.737  0.6116  0.6172 -0.4749
   31MOL0     H 4161   8.357   6.834  10.848 -0.8273 -0.8814  1.1270
   31MOL0     H 4162   8.262   6.958  10.906  1.4909 -1.1777  0.6612
   31MOL0     H 4163   8.213   6.789  10.657 -0.0926 -0.0972 -0.0454
   31MOL0     H 4164   8.138   6.952  10.680  2.7724  1.0065 -0.7198
   31MOL0     H 4165   8.003   6.736  10.742 -1.4734  3.3752 -0.0420
   31MOL0     H 4166   8.024   6.865  10.873  1.3923 -0.5485  3.0122
   31MOL0     H 4167   9.155   7.093  11.066  0.3358 -0.8474  1.3512
   31MOL0     H 4168   9.402   7.016  11.059 -0.3247  0.6066  2.3227
   31MOL0     H 4169   9.644   6.660  10.865  1.8389 -0.7585 -0.1246
   31MOL0     H 4170   9.826   6.535  10.796 -2.5429  0.1556  0.3051
   31MOL0     H 4171  10.836   6.839  10.718 -0.3492 -1.7976  0.4941
   31MOL0     H 4172  10.658   6.993  10.668  0.2476  0.0105 -0.3777
   31MOL0     H 4173  10.188   7.126  10.624  2.8876  1.4188 -0.2119
   31MOL0     H 4174   9.987   7.213  10.501 -0.1457  0.1429 -1.3232
   31MOL0     H 4175   9.797   7.223  10.402  0.8787 -0.8997 -0.0166
   31MOL0     H 4176   9.883   7.370  10.342  1.7909 -0.9978  2.8301
   31MOL0     H 4177   9.718   7.197  10.166  1.9999 -0.9449  1.3735
   31MOL0     H 4178   9.776   7.357  10.125  3.0795  0.0150  1.0269
   31MOL0     H 4179   9.555   7.291  10.324  1.2185 -0.1255  1.9165
   31MOL0     H 4180   9.534   7.362  10.162 -0.2803  0.0737  0.0124
   31MOL0     H 4181   9.653   7.578  10.230 -0.4314  0.8419 -0.6924
   31MOL0     H 4182   9.693   7.505  10.393 -0.4898 -0.0312  0.0562
   31MOL0     H 4183   9.291   7.589  10.443  0.9092  0.2817  0.4116
   31MOL0     H 4184  10.163   7.114  10.139 -2.0796 -1.6321  1.1839
   31MOL0     H 4185  10.359   7.016  10.251 -0.1843  1.3014 -1.9777
   32MOL0     O 4186  11.214   5.580   8.051 -0.5096 -0.0939 -0.7807
   32MOL0     C 4187  11.215   5.557   7.929  0.6209 -0.6064 -1.1421
   32MOL0     O 4188  11.100   5.531   7.858  0.5468  0.8245 -0.0489
   32MOL0     C 4189  10.974   5.561   7.914 -0.9484  0.8989  1.0005
   32MOL0     C 4190  10.932   5.507   8.042 -0.5785 -0.2919  0.4547
   32MOL0     C 4191  10.822   5.565   8.099 -0.2721  0.8650 -0.7145
   32MOL0     C 4192  10.743   5.649   8.030  0.7703 -0.5193 -0.0664
   32MOL0     O 4193  10.641   5.700   8.098 -0.2299  0.6258  0.0821
   32MOL0     C 4194  10.587   5.833   8.068  0.5399  1.1379 -0.0866
   32MOL0     C 4195  10.455   5.841   8.147  0.9894  0.6722 -0.3531
   32MOL0     C 4196  10.331   5.757   8.109 -0.2945  0.0898  0.9476
   32MOL0     C 4197  10.200   5.815   8.156 -0.4368  0.1835  0.4750
   32MOL0     C 4198  10.205   5.840   8.307 -0.0646  0.4613 -0.1646
   32MOL0     C 4199  10.070   5.890   8.350  0.3038 -0.0645 -0.2752
   32MOL0     C 4200  10.052   5.885   8.507  0.5993 -0.2353  0.1312
   32MOL0     C 4201   9.925   5.953   8.549 -0.0277  0.0455  0.6145
   32MOL0     N 4202   9.914   5.947   8.701 -0.1973 -1.0799  0.2124
   32MOL0     C 4203   9.809   5.919   8.782 -0.1922 -0.9399  0.2402
   32MOL0     C 4204   9.851   5.945   8.913  0.5440  0.5282  0.2532
   32MOL0     C 4205   9.788   5.900   9.039  0.3478 -0.2541 -0.3426
   32MOL0     C 4206   9.639   5.926   9.024  0.3642  0.7413 -0.6825
   32MOL0     C 4207   9.599   6.070   9.017 -0.5115  0.0531  0.5635
   32MOL0     C 4208   9.455   6.079   9.009  0.1455  0.0938 -1.4826
   32MOL0     O 4209   9.392   6.097   9.143 -0.4983 -0.2637 -0.1666
   32MOL0     C 4210   9.260   6.106   9.160 -0.2067 -0.2729  0.4545
   32MOL0     C 4211   9.208   6.116   9.288  0.2304  0.1290  0.8948
   32MOL0     C 4212   9.071   6.129   9.311 -0.1466  0.6121 -0.2266
   32MOL0     C 4213   9.024   6.146   9.451 -0.0752 -0.7957  0.4719
   32MOL0     C 4214   8.980   6.113   9.208  0.1080 -0.4652 -0.2573
   32MOL0     C 4215   8.830   6.092   9.223 -0.0551  0.4302 -0.8439
   32MOL0     O 4216   8.797   5.998   9.327  0.1500 -0.3129  0.3079
   32MOL0     C 4217   8.665   6.006   9.369 -0.4318  0.1468 -0.2874
   32MOL0     C 4218   8.593   5.892   9.390 -0.7804 -0.9331 -0.3966
   32MOL0     C 4219   8.460   5.893   9.427 -0.3251 -0.3214  0.3905
   32MOL0     C 4220   8.395   6.009   9.450 -0.5476  0.5247 -0.4485
   32MOL0     O 4221   8.262   6.001   9.477  0.1564  0.2845 -0.2639
   32MOL0     C 4222   8.177   5.994   9.352  0.3266 -0.0063 -0.5154
   32MOL0     C 4223   8.099   6.116   9.317  0.9208 -0.2012 -0.2004
   32MOL0     C 4224   8.022   6.190   9.423  0.4410 -0.0562  0.0549
   32MOL0     C 4225   7.930   6.091   9.495 -0.5174  0.7745 -0.0839
   32MOL0     C 4226   7.832   6.182   9.569  0.3040  0.4482 -0.5275
   32MOL0     C 4227   7.884   6.261   9.683  0.2248 -0.0879 -0.8525
   32MOL0     C 4228   7.932   6.181   9.807  0.2024  0.0987 -0.2475
   32MOL0     C 4229   7.903   6.253   9.944 -0.4370 -0.0397 -0.4735
   32MOL0    Cl 4230   8.023   6.382  10.000 -0.3813  0.0363  0.2308
   32MOL0     C 4231   8.473   6.131   9.445 -0.1781 -0.9848 -0.5785
   32MOL0     C 4232   8.604   6.132   9.398 -0.3590  0.3546 -0.0794
   32MOL0     O 4233   8.759   6.131   9.132  0.7496  0.1470  0.0962
   32MOL0     C 4234   9.033   6.098   9.087  0.1986 -0.8070  0.1841
   32MOL0     C 4235   9.166   6.101   9.061  0.5128  0.1892  0.7547
   32MOL0     N 4236   9.978   5.984   8.905 -0.0190  1.0737  0.2297
   32MOL0     N 4237  10.013   5.979   8.783 -0.8106  0.6220  0.4977
   32MOL0     C 4238  10.776   5.694   7.904 -0.3981 -0.9283 -0.9492
   32MOL0     C 4239  10.896   5.654   7.848 -0.3681 -0.6164  0.5624
   32MOL0     C 4240  11.344   5.540   7.860 -0.1445  0.7103  0.2165
   32MOL0     C 4241  11.461   5.494   7.922  0.4213 -0.1372  0.3737
   32MOL0     C 4242  11.573   5.468   7.847 -0.5012  0.6308  0.3740
   32MOL0     C 4243  11.582   5.501   7.713  0.6893  1.1001 -0.1299
   32MOL0     O 4244  11.687   5.476   7.633  0.2736  0.6256 -1.2448
   32MOL0     C 4245  11.820   5.486   7.692 -0.3159  0.0330  0.0699
   32MOL0     C 4246  11.851   5.623   7.747 -0.2271 -0.7965  0.6147
   32MOL0     C 4247  11.880   5.727   7.635 -0.3415  0.9666  0.7704
   32MOL0     C 4248  11.873   5.857   7.689  0.5330 -0.1424  0.2795
   32MOL0     C 4249  11.981   5.891   7.779  0.3703  0.0422 -0.4318
   32MOL0     C 4250  12.072   5.905   7.859  0.6566  0.1204 -0.0657
   32MOL0     C 4251  11.466   5.555   7.655 -0.3826  0.9147 -0.4913
   32MOL0     C 4252  11.351   5.571   7.726  1.0822 -0.3696  0.5656
   32MOL0     H 4253  11.004   5.442   8.091  0.1232  0.3069  0.2314
   32MOL0     H 4254  10.789   5.528   8.196 -0.8936  0.9457 -0.8886
   32MOL0     H 4255  10.651   5.909   8.114 -0.7171  0.3517  3.1853
   32MOL0     H 4256  10.578   5.853   7.960 -0.8548  0.5542 -0.0991
   32MOL0     H 4257  10.487   5.818   8.249  0.0386  2.3081  0.3392
   32MOL0     H 4258  10.416   5.943   8.148  0.3222  0.4174  0.7570
   32MOL0     H 4259  10.332   5.758   8.000 -2.0201  1.9430  0.8919
   32MOL0     H 4260  10.344   5.655   8.145  0.7307 -0.8815 -1.8884
   32MOL0     H 4261  10.176   5.912   8.111  1.8708  1.1326  1.1374
   32MOL0     H 4262  10.123   5.742   8.129  2.1382 -1.3903 -3.6255
   32MOL0     H 4263  10.228   5.742   8.350  3.0378  1.0133 -0.3143
   32MOL0     H 4264  10.280   5.913   8.339 -0.7795  0.8460  0.6867
   32MOL0     H 4265  10.053   5.993   8.318 -0.2087  0.5203  1.7655
   32MOL0     H 4266   9.996   5.819   8.312  0.8609  0.2225 -1.9973
   32MOL0     H 4267  10.041   5.780   8.534  0.6864 -0.5525 -1.0187
   32MOL0     H 4268  10.144   5.929   8.549  2.2596 -2.7274 -0.6769
   32MOL0     H 4269   9.838   5.911   8.498  0.1344  3.2849 -2.7639
   32MOL0     H 4270   9.909   6.059   8.525 -3.2264 -0.2596  0.9511
   32MOL0     H 4271   9.716   5.875   8.747 -1.6162 -0.0614  2.6640
   32MOL0     H 4272   9.804   5.793   9.051 -0.0978 -0.0252  3.9172
   32MOL0     H 4273   9.821   5.949   9.132  2.3747  0.6111 -1.4399
   32MOL0     H 4274   9.599   5.878   9.114 -0.2394  1.5999 -0.4784
   32MOL0     H 4275   9.605   5.863   8.941  0.5348 -0.4006  0.0857
   32MOL0     H 4276   9.647   6.110   8.928 -1.4804 -3.5431 -1.8066
   32MOL0     H 4277   9.624   6.128   9.107 -1.9166  0.0883  0.9669
   32MOL0     H 4278   9.411   5.992   8.959 -0.7608 -0.8276  0.8076
   32MOL0     H 4279   9.438   6.166   8.945  0.3918  0.8745 -0.5129
   32MOL0     H 4280   9.283   6.120   9.366  0.1344 -0.1566  1.0041
   32MOL0     H 4281   8.923   6.189   9.455 -0.2397 -1.2533  1.8758
   32MOL0     H 4282   9.031   6.051   9.505  0.7365 -1.2736 -0.4554
   32MOL0     H 4283   9.078   6.224   9.505 -0.1512  0.4890 -1.2360
   32MOL0     H 4284   8.644   5.797   9.378  1.7684  0.6042 -3.3937
   32MOL0     H 4285   8.402   5.802   9.438 -1.0590  0.2073  0.9677
   32MOL0     H 4286   8.227   5.958   9.261 -0.0775 -2.0285  0.0027
   32MOL0     H 4287   8.117   5.904   9.373  0.9963 -0.2106  0.5533
   32MOL0     H 4288   8.165   6.187   9.266  0.7893 -0.5793 -0.9257
   32MOL0     H 4289   8.034   6.080   9.236 -0.8379 -0.0315  1.0754
   32MOL0     H 4290   7.960   6.268   9.378 -1.9730 -1.5450  0.6089
   32MOL0     H 4291   8.092   6.239   9.492 -1.3387  0.5435  1.5443
   32MOL0     H 4292   7.872   6.037   9.419  0.3212 -1.2830  0.6477
   32MOL0     H 4293   7.990   6.024   9.557 -0.9605  0.7895  0.3657
   32MOL0     H 4294   7.751   6.121   9.610  1.8027 -0.2684  1.5172
   32MOL0     H 4295   7.784   6.250   9.497 -1.9195  1.4762  1.7512
   32MOL0     H 4296   7.965   6.324   9.648  1.2117 -0.2954  0.9285
   32MOL0     H 4297   7.806   6.332   9.711  0.2822  0.4027 -1.9087
   32MOL0     H 4298   8.034   6.143   9.793  0.7901  1.9204 -1.1421
   32MOL0     H 4299   7.867   6.093   9.804  2.2846 -1.5712 -4.4670
   32MOL0     H 4300   7.906   6.171  10.015 -0.2673  0.5383  0.1993
   32MOL0     H 4301   7.799   6.286   9.938 -0.2772  0.3953 -0.9896
   32MOL0     H 4302   8.425   6.216   9.493  0.1812 -1.7068  1.1009
   32MOL0     H 4303   8.672   6.216   9.388  1.0375 -0.4236  2.1657
   32MOL0     H 4304   8.962   6.084   9.005  1.4372 -0.2698 -1.0176
   32MOL0     H 4305   9.187   6.075   8.958 -2.6043 -1.5500  0.4335
   32MOL0     H 4306  10.722   5.775   7.857 -2.7956 -1.0126  1.4130
   32MOL0     H 4307  10.934   5.718   7.769 -0.6931  0.5412  1.3180
   32MOL0     H 4308  11.456   5.469   8.028 -0.5819  0.8998  0.5858
   32MOL0     H 4309  11.658   5.424   7.899 -1.3578 -0.4026  0.9466
   32MOL0     H 4310  11.834   5.405   7.764 -3.1284 -1.7569 -1.2128
   32MOL0     H 4311  11.897   5.468   7.617 -0.7192  1.4189 -0.7082
   32MOL0     H 4312  11.941   5.617   7.810  0.4509  0.8908 -0.1259
   32MOL0     H 4313  11.765   5.657   7.804 -0.5936  1.2464 -1.0280
   32MOL0     H 4314  11.800   5.724   7.560  1.6644 -0.7156 -1.4557
   32MOL0     H 4315  11.978   5.708   7.592 -1.2593  1.6903 -1.8393
   32MOL0     H 4316  11.770   5.875   7.724 -0.8366 -1.0730 -2.8878
   32MOL0     H 4317  11.889   5.923   7.603 -1.7136  0.6493  0.4028
   32MOL0     H 4318  12.145   5.925   7.935  0.6754  1.8424 -0.4866
   32MOL0     H 4319  11.463   5.572   7.548 -0.1643  0.2685 -0.6036
   32MOL0     H 4320  11.265   5.619   7.679  0.3411 -0.7092  1.5553
   33MOL0     O 4321   5.086   8.072   6.885  0.5631 -0.1648 -0.9170
   33MOL0     C 4322   5.071   8.185   6.938  0.7006  0.0533  0.6035
   33MOL0     O 4323   4.948   8.246   6.961  0.2814 -0.3747 -0.5444
   33MOL0     C 4324   4.827   8.179   6.932 -1.0698  0.7274  0.3328
   33MOL0     C 4325   4.722   8.233   7.007 -0.3816  0.2242 -0.2216
   33MOL0     C 4326   4.587   8.191   6.987  0.0653  0.6546  0.1168
   33MOL0     C 4327   4.556   8.093   6.893 -0.4104 -0.0262 -0.5627
   33MOL0     O 4328   4.421   8.060   6.892  0.4035  0.7874 -0.3020
   33MOL0     C 4329   4.389   7.938   6.823 -0.6115 -1.1329  0.0207
   33MOL0     C 4330   4.243   7.900   6.856 -0.3191  0.1356 -0.5963
   33MOL0     C 4331   4.178   7.788   6.777 -0.7883  0.0430  0.0761
   33MOL0     C 4332   4.019   7.789   6.789 -0.6408 -0.5783 -0.5371
   33MOL0     C 4333   3.978   7.644   6.836  0.9023  0.3912  0.1293
   33MOL0     C 4334   3.967   7.544   6.722  1.3975  0.6421  0.6920
   33MOL0     C 4335   3.922   7.412   6.774 -0.3962  0.3711 -0.1457
   33MOL0     C 4336   3.907   7.296   6.664 -0.6806 -0.6603 -0.5442
   33MOL0     N 4337   3.836   7.176   6.719 -0.9600 -0.6097 -0.3798
   33MOL0     C 4338   3.854   7.131   6.854  0.8074 -0.3735  1.0921
   33MOL0     C 4339   3.753   7.047   6.874 -0.0447  0.3321  0.2112
   33MOL0     C 4340   3.721   7.000   7.012  0.2213 -0.4155 -0.2731
   33MOL0     C 4341   3.816   6.896   7.064 -0.1393  0.0156  0.0710
   33MOL0     C 4342   3.797   6.867   7.212 -0.4681  0.2954 -0.0976
   33MOL0     C 4343   3.926   6.788   7.262 -0.1434 -1.1753  0.4950
   33MOL0     O 4344   4.029   6.895   7.288  0.2417  0.4528  0.6879
   33MOL0     C 4345   4.157   6.862   7.320  0.6300  1.6620 -0.8949
   33MOL0     C 4346   4.190   6.742   7.384  0.8738  0.4991 -0.2870
   33MOL0     C 4347   4.328   6.705   7.401 -0.0098 -0.2483  0.1475
   33MOL0     C 4348   4.356   6.573   7.472  0.2603 -0.2384  0.8726
   33MOL0     C 4349   4.426   6.806   7.362  0.9369 -0.0297 -1.2969
   33MOL0     C 4350   4.574   6.776   7.365 -0.8616 -0.1552  0.6503
   33MOL0     O 4351   4.660   6.853   7.446  0.1248 -0.8829  0.1197
   33MOL0     C 4352   4.794   6.828   7.434  0.3115 -0.0072  0.1094
   33MOL0     C 4353   4.855   6.789   7.314  0.0347  0.0585 -0.4858
   33MOL0     C 4354   4.992   6.758   7.311  0.3246 -0.4046  0.5269
   33MOL0     C 4355   5.066   6.785   7.421 -0.1737  0.2380 -0.4727
   33MOL0     O 4356   5.201   6.767   7.414  0.0321 -0.3082  0.9054
   33MOL0     C 4357   5.269   6.736   7.535 -0.3569 -0.1513  0.0114
   33MOL0     C 4358   5.414   6.698   7.500 -0.8203 -0.5264  0.0947
   33MOL0     C 4359   5.428   6.572   7.408 -0.0400 -1.1499 -0.1600
   33MOL0     C 4360   5.557   6.496   7.424  0.5585 -0.2830 -0.3504
   33MOL0     C 4361   5.681   6.577   7.404 -0.5112 -0.4107 -0.0698
   33MOL0     C 4362   5.806   6.501   7.345  0.0749  0.3134 -0.4619
   33MOL0     C 4363   5.936   6.590   7.351  0.6949  0.3968 -0.7746
   33MOL0     C 4364   6.054   6.505   7.297 -0.9092 -0.3807  0.3133
   33MOL0    Cl 4365   6.036   6.400   7.148 -0.0194  0.0020  0.0987
   33MOL0     C 4366   5.002   6.811   7.544  0.5869 -0.1708 -0.1787
   33MOL0     C 4367   4.864   6.830   7.548  0.7016  1.1987 -0.5176
   33MOL0     O 4368   4.599   6.663   7.312 -0.2167 -0.8214  0.6320
   33MOL0     C 4369   4.388   6.930   7.304 -0.0980 -0.6691 -0.4401
   33MOL0     C 4370   4.247   6.953   7.277  0.1021  0.4223  0.7641
   33MOL0     N 4371   3.687   7.032   6.756  0.1213 -0.0420 -0.5235
   33MOL0     N 4372   3.731   7.115   6.662  1.0627 -0.3615  0.1455
   33MOL0     C 4373   4.663   8.037   6.812  0.7405  0.8856  0.5187
   33MOL0     C 4374   4.792   8.083   6.830 -0.2105  0.8166  0.1843
   33MOL0     C 4375   5.184   8.273   6.966  0.5495 -0.2631 -0.9199
   33MOL0     C 4376   5.167   8.397   7.043  0.1776  0.7635 -0.0071
   33MOL0     C 4377   5.284   8.477   7.066  0.3972  0.4332 -1.0475
   33MOL0     C 4378   5.415   8.449   7.031  0.0507 -0.1935 -0.0693
   33MOL0     O 4379   5.518   8.535   7.063 -0.2090  0.2723 -0.1854
   33MOL0     C 4380   5.648   8.480   7.059 -0.3248 -0.0716 -0.2153
   33MOL0     C 4381   5.738   8.547   7.169  0.7155  0.9220  0.6253
   33MOL0     C 4382   5.856   8.456   7.207 -0.6017  0.2221 -0.5897
   33MOL0     C 4383   5.912   8.484   7.340 -0.0026  0.3906 -0.0602
   33MOL0     C 4384   5.996   8.608   7.346  0.2010 -0.5058  0.1736
   33MOL0     C 4385   6.066   8.706   7.361  0.2224  0.2142  0.8574
   33MOL0     C 4386   5.430   8.327   6.961  0.4306 -0.5545 -0.2207
   33MOL0     C 4387   5.324   8.237   6.932 -0.4065  0.5033 -0.5015
   33MOL0     H 4388   4.745   8.316   7.073  0.1446  1.0668 -1.4232
   33MOL0     H 4389   4.524   8.231   7.066 -0.8004 -0.8652  0.2293
   33MOL0     H 4390   4.385   7.948   6.714 -2.4250 -2.3452 -0.0520
   33MOL0     H 4391   4.454   7.855   6.852 -0.0182 -0.3259  1.0762
   33MOL0     H 4392   4.246   7.879   6.963  3.8804 -1.9341 -0.8798
   33MOL0     H 4393   4.188   7.990   6.826  1.2496  1.6598  0.8703
   33MOL0     H 4394   4.199   7.793   6.670  0.0133  2.8694  0.2939
   33MOL0     H 4395   4.210   7.691   6.817 -0.7843 -0.3117 -0.7685
   33MOL0     H 4396   4.003   7.865   6.865 -1.2105 -1.1207 -0.1019
   33MOL0     H 4397   3.964   7.811   6.696 -0.5061 -2.2176 -1.0372
   33MOL0     H 4398   4.049   7.605   6.909  2.3237  1.5056 -0.6025
   33MOL0     H 4399   3.882   7.648   6.888  0.9183  2.1781  0.0908
   33MOL0     H 4400   3.888   7.581   6.657 -0.2882  0.1955  2.3855
   33MOL0     H 4401   4.057   7.536   6.661  0.3953  0.3057 -0.8016
   33MOL0     H 4402   4.002   7.382   6.842  0.7973  2.5523 -0.4768
   33MOL0     H 4403   3.823   7.418   6.820 -0.9826  2.4965 -1.5152
   33MOL0     H 4404   4.008   7.279   6.626  0.3810  0.8093  1.4398
   33MOL0     H 4405   3.854   7.324   6.572 -0.8901 -0.8866 -0.4926
   33MOL0     H 4406   3.919   7.168   6.932  3.6819  0.0799 -1.3452
   33MOL0     H 4407   3.720   7.090   7.075  1.6435 -1.4543  1.3238
   33MOL0     H 4408   3.619   6.962   7.002 -0.2541  1.0175 -1.1789
   33MOL0     H 4409   3.916   6.926   7.031  0.3348 -1.2701  0.2838
   33MOL0     H 4410   3.802   6.809   6.998  3.5490 -0.5528 -0.1574
   33MOL0     H 4411   3.712   6.800   7.227 -1.1193  1.3392  1.0322
   33MOL0     H 4412   3.794   6.962   7.266  3.0810  0.7033 -0.3735
   33MOL0     H 4413   3.956   6.709   7.193 -1.5565 -1.0573 -0.2685
   33MOL0     H 4414   3.901   6.740   7.357  1.2755 -0.5744  1.2016
   33MOL0     H 4415   4.116   6.677   7.429 -0.5570  2.3565  0.1788
   33MOL0     H 4416   4.390   6.572   7.576  4.5972  0.1663 -0.3695
   33MOL0     H 4417   4.274   6.501   7.461  1.9538 -2.3506  1.3314
   33MOL0     H 4418   4.432   6.513   7.421 -1.0788 -2.2046  1.0539
   33MOL0     H 4419   4.795   6.766   7.227  2.4790  0.2458 -2.3342
   33MOL0     H 4420   5.035   6.719   7.219 -2.6173 -0.1616 -1.0765
   33MOL0     H 4421   5.271   6.822   7.603 -4.2533  2.5553 -2.8369
   33MOL0     H 4422   5.225   6.651   7.589  0.7404 -0.1261  0.9925
   33MOL0     H 4423   5.463   6.786   7.459  1.9038 -0.6910  2.6393
   33MOL0     H 4424   5.457   6.677   7.599  1.9038 -0.4939 -1.0120
   33MOL0     H 4425   5.431   6.611   7.306  2.5297  0.4775  0.4467
   33MOL0     H 4426   5.339   6.512   7.429  0.1996 -1.6214 -0.4752
   33MOL0     H 4427   5.555   6.446   7.521 -2.8767 -0.4443 -0.3765
   33MOL0     H 4428   5.560   6.423   7.343  0.8907 -1.1663  0.4505
   33MOL0     H 4429   5.721   6.612   7.499  1.0080 -0.3327 -0.7003
   33MOL0     H 4430   5.664   6.675   7.358 -1.1357 -0.0852  0.8369
   33MOL0     H 4431   5.824   6.403   7.392  0.8119  0.3613 -0.6384
   33MOL0     H 4432   5.783   6.480   7.240  0.5302  0.5064 -0.5990
   33MOL0     H 4433   5.955   6.634   7.450  0.6499 -2.3119  0.5154
   33MOL0     H 4434   5.913   6.675   7.287  0.1127  0.1616 -0.8785
   33MOL0     H 4435   6.082   6.449   7.387 -1.7009 -0.9883  0.1927
   33MOL0     H 4436   6.138   6.573   7.277 -1.2547 -0.2053 -0.5916
   33MOL0     H 4437   5.065   6.821   7.631 -0.3498 -0.3216  0.5354
   33MOL0     H 4438   4.804   6.853   7.636  2.3373  1.8682  0.4674
   33MOL0     H 4439   4.468   6.997   7.275  0.4753 -1.1498  0.0294
   33MOL0     H 4440   4.207   7.035   7.218  1.6028  0.2755 -0.5412
   33MOL0     H 4441   4.631   7.964   6.739 -1.2807  3.0631 -0.8953
   33MOL0     H 4442   4.866   8.054   6.756 -0.1847 -0.4350  0.6844
   33MOL0     H 4443   5.068   8.432   7.071  0.2505  0.2172  0.9658
   33MOL0     H 4444   5.258   8.566   7.123 -1.1366  0.7531 -2.1907
   33MOL0     H 4445   5.640   8.372   7.075  3.1685 -0.6586 -1.4923
   33MOL0     H 4446   5.690   8.513   6.963  0.7318  1.9083  0.8821
   33MOL0     H 4447   5.671   8.587   7.246 -3.4526  0.5661 -2.4674
   33MOL0     H 4448   5.782   8.641   7.133 -0.1493  2.3155  2.9872
   33MOL0     H 4449   5.937   8.467   7.134 -2.1009  2.8349 -2.0047
   33MOL0     H 4450   5.839   8.349   7.197  3.9414 -0.7641  0.0573
   33MOL0     H 4451   5.968   8.402   7.387 -0.6243  0.5179  0.9461
   33MOL0     H 4452   5.828   8.492   7.409  1.7528  0.2285  2.2408
   33MOL0     H 4453   6.132   8.787   7.383  1.7372 -1.0472  1.1431
   33MOL0     H 4454   5.530   8.305   6.926  0.7831 -0.1788  0.5507
   33MOL0     H 4455   5.347   8.146   6.879  0.2123 -0.1421  0.8201
   34MOL0     O 4456   6.657   3.449   0.214  0.3395 -0.7376  1.3555
   34MOL0     C 4457   6.688   3.378   0.117  0.0458 -0.5568 -0.0142
   34MOL0     O 4458   6.610   3.350   0.008 -0.3443 -1.1832  0.1156
   34MOL0     C 4459   6.476   3.392   0.002  0.7047 -0.7523  0.4178
   34MOL0     C 4460   6.397   3.426   0.111  0.7298 -0.1837 -0.3472
   34MOL0     C 4461   6.259   3.448   0.099  0.4516  0.0223  0.2449
   34MOL0     C 4462   6.194   3.448  -0.028  0.1057 -0.3924 -0.3008
   34MOL0     O 4463   6.064   3.479  -0.040 -0.9121 -0.2838  0.3988
   34MOL0     C 4464   5.984   3.442   0.070  0.2648  0.6744 -0.1224
   34MOL0     C 4465   5.848   3.418   0.001  0.9443 -0.2539 -0.5359
   34MOL0     C 4466   5.747   3.359   0.100 -0.9311 -0.4002  0.8813
   34MOL0     C 4467   5.613   3.333   0.021 -0.4448 -0.5482 -0.4882
   34MOL0     C 4468   5.510   3.258   0.105 -0.7732 -0.1045  0.2345
   34MOL0     C 4469   5.372   3.212   0.040 -0.2817  0.0575 -0.5025
   34MOL0     C 4470   5.259   3.174   0.137  0.1522  0.7449  0.3084
   34MOL0     C 4471   5.137   3.111   0.070 -0.4904 -0.2435  0.1722
   34MOL0     N 4472   5.027   3.087   0.163 -0.1883 -1.0570  0.5271
   34MOL0     C 4473   5.022   3.023   0.282  0.2496  0.4217  0.3829
   34MOL0     C 4474   4.893   3.032   0.325  0.0848 -0.1279  1.0988
   34MOL0     C 4475   4.841   2.993   0.461  0.3515 -0.2659 -0.3847
   34MOL0     C 4476   4.954   2.915   0.549  0.2803 -0.7735 -0.1697
   34MOL0     C 4477   4.991   2.784   0.479 -0.7383 -0.0262 -0.1338
   34MOL0     C 4478   5.125   2.728   0.529  0.5555 -0.2453 -0.4919
   34MOL0     O 4479   5.234   2.796   0.465 -0.5542 -0.4202  0.2829
   34MOL0     C 4480   5.362   2.775   0.510 -0.1066  0.5567  0.4003
   34MOL0     C 4481   5.458   2.846   0.447  0.3586 -0.8387 -0.5825
   34MOL0     C 4482   5.589   2.830   0.469  0.8758  0.6737 -0.0035
   34MOL0     C 4483   5.681   2.916   0.387 -0.5882 -0.1187 -0.1280
   34MOL0     C 4484   5.630   2.749   0.590 -0.1557 -0.2401 -0.3435
   34MOL0     C 4485   5.768   2.736   0.646 -0.4559  0.6759  0.9660
   34MOL0     O 4486   5.793   2.625   0.721  0.4439 -0.6738 -0.5741
   34MOL0     C 4487   5.920   2.616   0.790  0.1114  0.4507  0.1142
   34MOL0     C 4488   5.947   2.653   0.917  0.1261 -0.7726 -0.8777
   34MOL0     C 4489   6.070   2.641   0.971 -0.4972  0.2221  0.1797
   34MOL0     C 4490   6.179   2.604   0.896 -0.7340 -0.3816 -0.6623
   34MOL0     O 4491   6.307   2.611   0.956  0.1479  0.0772  0.1756
   34MOL0     C 4492   6.425   2.618   0.874 -0.2220  0.0774  0.8660
   34MOL0     C 4493   6.548   2.604   0.965  0.7241  0.7114 -0.1039
   34MOL0     C 4494   6.544   2.461   1.028  0.4267  0.2317 -0.5309
   34MOL0     C 4495   6.647   2.435   1.141 -0.3297  0.0930 -0.3727
   34MOL0     C 4496   6.616   2.294   1.218 -0.4109 -0.3584 -0.8232
   34MOL0     C 4497   6.746   2.246   1.296  0.0950  0.1251  0.0096
   34MOL0     C 4498   6.768   2.301   1.437 -0.2875  0.0646 -0.1123
   34MOL0     C 4499   6.630   2.311   1.513 -0.5414 -0.7018 -0.3111
   34MOL0    Cl 4500   6.680   2.333   1.683  0.1159 -0.1480  0.0452
   34MOL0     C 4501   6.159   2.566   0.764 -0.9814 -0.5775 -0.3582
   34MOL0     C 4502   6.028   2.565   0.712  1.2722 -0.2042  0.7256
   34MOL0     O 4503   5.855   2.815   0.613 -0.1040 -0.0223 -0.1084
   34MOL0     C 4504   5.539   2.665   0.638  0.5004  0.0759 -1.3148
   34MOL0     C 4505   5.404   2.684   0.609 -0.4098  0.8853 -0.2733
   34MOL0     N 4506   4.824   3.119   0.235  0.8305 -0.3768 -0.2582
   34MOL0     N 4507   4.904   3.140   0.137 -0.0537  0.6193  0.6791
   34MOL0     C 4508   6.265   3.418  -0.138 -1.2677 -1.2031 -0.6891
   34MOL0     C 4509   6.409   3.393  -0.124  0.4452  0.3672 -0.4557
   34MOL0     C 4510   6.827   3.317   0.120  0.1565 -0.0674  0.5659
   34MOL0     C 4511   6.926   3.337   0.222 -0.1588  0.8989 -0.8788
   34MOL0     C 4512   7.057   3.275   0.218 -0.2410  0.2270  0.2260
   34MOL0     C 4513   7.092   3.201   0.107 -0.1723 -0.5737  0.3805
   34MOL0     O 4514   7.213   3.137   0.101 -0.4462 -0.3673 -0.2218
   34MOL0     C 4515   7.239   3.054  -0.016 -0.4299 -0.1748  0.1889
   34MOL0     C 4516   7.388   3.027  -0.020  0.0475 -0.3903  1.0236
   34MOL0     C 4517   7.445   2.991   0.120 -0.1287 -1.6438 -0.5075
   34MOL0     C 4518   7.471   2.841   0.137  0.2082 -0.8840 -0.0258
   34MOL0     C 4519   7.566   2.790   0.041  0.2685  0.4066 -0.2948
   34MOL0     C 4520   7.626   2.757  -0.058  0.2575 -0.0745 -0.0054
   34MOL0     C 4521   6.993   3.186   0.006  0.4458 -0.4595 -0.3541
   34MOL0     C 4522   6.869   3.241   0.012 -0.1340 -1.0213  0.6330
   34MOL0     H 4523   6.426   3.434   0.215 -0.7846 -2.5639  0.3480
   34MOL0     H 4524   6.204   3.483   0.185 -1.3749  0.9950 -1.2673
   34MOL0     H 4525   6.012   3.349   0.121 -0.9157  1.0747  1.3359
   34MOL0     H 4526   5.968   3.511   0.153 -2.5522 -0.4553  0.3853
   34MOL0     H 4527   5.815   3.513  -0.041  2.1932  0.8105  0.7514
   34MOL0     H 4528   5.869   3.344  -0.077  0.2906 -2.1914  1.0416
   34MOL0     H 4529   5.779   3.269   0.153  1.0357 -0.4490 -0.2801
   34MOL0     H 4530   5.738   3.429   0.183  3.2884 -0.0886  1.2698
   34MOL0     H 4531   5.570   3.433   0.011  0.2299 -0.3323 -1.3791
   34MOL0     H 4532   5.633   3.274  -0.069 -0.1139 -2.0111  0.5025
   34MOL0     H 4533   5.554   3.164   0.138 -1.7802 -0.2554  1.1891
   34MOL0     H 4534   5.480   3.321   0.190 -0.6274 -0.8638  0.8557
   34MOL0     H 4535   5.335   3.285  -0.033 -2.1320 -1.2733 -0.9748
   34MOL0     H 4536   5.393   3.122  -0.017 -1.1040 -1.2153  1.1248
   34MOL0     H 4537   5.295   3.102   0.211 -1.8947  0.3992  1.0464
   34MOL0     H 4538   5.231   3.258   0.202 -0.5610  1.0063 -0.3115
   34MOL0     H 4539   5.176   3.014   0.038  1.4242 -0.2599  2.2745
   34MOL0     H 4540   5.105   3.168  -0.018  1.0294 -1.6224 -1.3590
   34MOL0     H 4541   5.110   2.978   0.327  0.8231 -0.9518 -1.9344
   34MOL0     H 4542   4.815   3.085   0.514 -1.1635 -0.4355 -0.7879
   34MOL0     H 4543   4.753   2.929   0.458  0.7913 -0.9872  1.1500
   34MOL0     H 4544   4.911   2.893   0.647 -0.3533  3.7678  0.7879
   34MOL0     H 4545   5.048   2.968   0.567  1.6549 -3.2738  0.5320
   34MOL0     H 4546   4.998   2.796   0.371 -1.9780 -1.3929 -0.4025
   34MOL0     H 4547   4.912   2.711   0.499  0.4230 -0.8638  1.5877
   34MOL0     H 4548   5.123   2.621   0.506  1.0975 -0.2733 -0.4271
   34MOL0     H 4549   5.125   2.748   0.636 -0.7260  0.8872 -0.6686
   34MOL0     H 4550   5.412   2.901   0.367  1.1992 -1.7283 -1.7099
   34MOL0     H 4551   5.740   2.847   0.326  0.9115  2.1337 -1.3621
   34MOL0     H 4552   5.639   2.988   0.317 -0.5371 -0.7531 -0.8208
   34MOL0     H 4553   5.751   2.974   0.448  1.2185 -1.5375 -0.7345
   34MOL0     H 4554   5.868   2.687   0.983 -0.8824 -2.6413 -1.0583
   34MOL0     H 4555   6.083   2.673   1.073  0.6374 -0.9707  0.4432
   34MOL0     H 4556   6.430   2.549   0.790  1.6180  2.6155 -1.2969
   34MOL0     H 4557   6.424   2.720   0.835 -1.2811  0.6825  2.3631
   34MOL0     H 4558   6.633   2.616   0.897  1.4966  1.0260  0.8955
   34MOL0     H 4559   6.545   2.675   1.047  1.8964 -0.6890  1.2144
   34MOL0     H 4560   6.561   2.385   0.951 -1.2847 -2.5711  1.6867
   34MOL0     H 4561   6.444   2.448   1.070  0.3134 -0.4938 -1.0191
   34MOL0     H 4562   6.745   2.449   1.095  0.6784  1.7648  2.0316
   34MOL0     H 4563   6.650   2.520   1.211  1.4209 -0.0398 -0.2501
   34MOL0     H 4564   6.580   2.217   1.149 -2.9957  1.4131 -1.6296
   34MOL0     H 4565   6.528   2.305   1.282 -0.7517  4.3273 -1.7297
   34MOL0     H 4566   6.733   2.138   1.307 -0.6388  0.3976  2.4971
   34MOL0     H 4567   6.826   2.262   1.224 -0.2913  0.9824 -0.2354
   34MOL0     H 4568   6.819   2.397   1.428 -1.9894  1.0907  0.8871
   34MOL0     H 4569   6.837   2.235   1.491  2.6649  1.9114 -1.3518
   34MOL0     H 4570   6.572   2.220   1.497 -1.7228  0.4024 -2.9098
   34MOL0     H 4571   6.566   2.392   1.478  2.0644  0.8221 -1.8375
   34MOL0     H 4572   6.244   2.533   0.705 -1.0310  1.3164 -1.5787
   34MOL0     H 4573   6.015   2.549   0.605  1.2426  0.5341  0.6088
   34MOL0     H 4574   5.563   2.583   0.704 -0.6449  3.2007  3.4289
   34MOL0     H 4575   5.315   2.652   0.662 -1.8021  1.5509 -2.1346
   34MOL0     H 4576   6.214   3.417  -0.233 -2.3642  1.5568 -0.2151
   34MOL0     H 4577   6.460   3.345  -0.206  0.9628  0.7431 -0.3577
   34MOL0     H 4578   6.892   3.383   0.315  1.3459 -0.5087  0.4365
   34MOL0     H 4579   7.124   3.279   0.303  2.2996 -1.1535 -1.5679
   34MOL0     H 4580   7.185   2.959  -0.015  1.1610 -1.1109  0.3727
   34MOL0     H 4581   7.212   3.109  -0.106 -0.1334 -0.6319 -0.1813
   34MOL0     H 4582   7.433   3.121  -0.051 -2.6297  0.1077 -1.9469
   34MOL0     H 4583   7.406   2.954  -0.100  1.2552  1.0764 -0.0999
   34MOL0     H 4584   7.383   3.027   0.203  0.0113 -0.9344 -0.7104
   34MOL0     H 4585   7.545   3.033   0.134 -0.9758 -0.0018  0.9742
   34MOL0     H 4586   7.371   2.797   0.139 -1.5041  2.7016 -0.3773
   34MOL0     H 4587   7.525   2.826   0.231  0.6838 -0.6433 -0.2572
   34MOL0     H 4588   7.684   2.741  -0.146  1.6291  0.7925  0.7071
   34MOL0     H 4589   7.004   3.120  -0.079  1.3437 -3.1743  1.7169
   34MOL0     H 4590   6.815   3.232  -0.082 -1.4277 -2.6527  1.4882
   35MOL0     O 4591   7.735  11.320   6.544  0.2242  0.4764 -0.0864
   35MOL0     C 4592   7.789  11.218   6.503  0.2348  0.4871  0.2405
   35MOL0     O 4593   7.717  11.098   6.473 -0.0445 -0.1404 -0.1825
   35MOL0     C 4594   7.591  11.078   6.522  0.8663  0.0102 -0.0409
   35MOL0     C 4595   7.505  11.156   6.607 -0.5247 -0.2544  0.3175
   35MOL0     C 4596   7.376  11.113   6.637 -0.5524  0.3899  0.6760
   35MOL0     C 4597   7.322  11.001   6.582 -0.6889  0.1812 -0.0179
   35MOL0     O 4598   7.200  10.956   6.622 -0.3984 -0.1139  0.0128
   35MOL0     C 4599   7.089  11.033   6.574 -0.0458  0.0136  1.2041
   35MOL0     C 4600   6.996  11.070   6.683 -0.2796 -0.2387 -0.1258
   35MOL0     C 4601   6.860  11.113   6.631  0.1028 -0.6492  0.4296
   35MOL0     C 4602   6.752  11.090   6.739  1.0623  0.1852  0.6999
   35MOL0     C 4603   6.607  11.128   6.692  0.0946 -0.1794  0.6573
   35MOL0     C 4604   6.499  11.065   6.780 -1.1312  0.6501 -0.1633
   35MOL0     C 4605   6.360  11.101   6.744  0.1812 -0.8215 -0.0307
   35MOL0     C 4606   6.278  10.997   6.817 -0.0832 -0.5102 -0.1033
   35MOL0     N 4607   6.137  11.035   6.814  0.2001  0.6570 -0.2795
   35MOL0     C 4608   6.084  11.116   6.723  0.3540  0.8056  0.2178
   35MOL0     C 4609   5.952  11.087   6.729 -0.1080 -0.0440 -0.3173
   35MOL0     C 4610   5.846  11.143   6.644  0.0191  0.2031  0.5064
   35MOL0     C 4611   5.717  11.144   6.717 -0.4718 -0.3804  0.7108
   35MOL0     C 4612   5.613  11.215   6.622 -0.0772  0.6470 -0.3898
   35MOL0     C 4613   5.471  11.216   6.683 -0.3319 -0.2777  0.1371
   35MOL0     O 4614   5.397  11.316   6.625  0.4311 -0.0011  0.6972
   35MOL0     C 4615   5.266  11.302   6.675  0.6390 -0.2923  0.4708
   35MOL0     C 4616   5.189  11.178   6.656  0.2865  0.0978  0.3104
   35MOL0     C 4617   5.058  11.159   6.704  1.0066 -0.5533  0.2310
   35MOL0     C 4618   4.976  11.041   6.651 -0.2454  0.1070 -0.6532
   35MOL0     C 4619   5.003  11.274   6.776 -0.4863 -0.2671  0.5752
   35MOL0     C 4620   4.866  11.287   6.840 -0.4149 -0.3053 -0.5302
   35MOL0     O 4621   4.790  11.177   6.831  0.6705  0.6666  0.2406
   35MOL0     C 4622   4.680  11.158   6.914 -0.7091  0.5419 -0.1250
   35MOL0     C 4623   4.596  11.054   6.873 -0.0645 -0.0510 -0.0269
   35MOL0     C 4624   4.476  11.022   6.927  0.8557 -0.4968 -0.8041
   35MOL0     C 4625   4.433  11.101   7.039  0.0064 -0.4581 -0.2619
   35MOL0     O 4626   4.320  11.078   7.103 -0.2376 -0.5142  0.2140
   35MOL0     C 4627   4.232  10.989   7.037 -0.1326  0.1770  0.2789
   35MOL0     C 4628   4.108  10.978   7.118  0.2387 -0.3385  0.2708
   35MOL0     C 4629   3.993  10.955   7.021  0.2358 -0.5422 -0.2585
   35MOL0     C 4630   3.870  10.901   7.095 -0.4003 -0.0187 -0.0576
   35MOL0     C 4631   3.752  10.898   6.990  0.3227  0.0407 -0.1647
   35MOL0     C 4632   3.615  10.850   7.057 -0.0818 -0.3079 -0.4064
   35MOL0     C 4633   3.515  10.839   6.951 -0.6007 -0.4524  0.3425
   35MOL0     C 4634   3.416  10.739   6.990  0.6354  0.3660  0.1709
   35MOL0    Cl 4635   3.470  10.574   6.962  0.0815 -0.4256 -0.4362
   35MOL0     C 4636   4.524  11.203   7.082  1.1104  0.8431  0.0835
   35MOL0     C 4637   4.639  11.230   7.022 -0.4518  0.8110  0.4874
   35MOL0     O 4638   4.825  11.399   6.880  1.0267  0.3463 -0.2963
   35MOL0     C 4639   5.072  11.399   6.772  0.1614  1.1680  0.0359
   35MOL0     C 4640   5.203  11.410   6.731 -0.2553  0.1024  0.8091
   35MOL0     N 4641   5.938  10.980   6.824  0.1498  0.1855  0.0232
   35MOL0     N 4642   6.044  10.962   6.888 -0.7755  0.0281  0.4537
   35MOL0     C 4643   7.396  10.927   6.500 -0.2502  0.7556  0.1284
   35MOL0     C 4644   7.524  10.961   6.469 -0.4063 -0.3423 -0.5261
   35MOL0     C 4645   7.933  11.211   6.485  0.6307 -0.0907 -0.4729
   35MOL0     C 4646   8.009  11.320   6.508 -1.2149  0.0373 -0.6604
   35MOL0     C 4647   8.152  11.322   6.488  0.8959 -0.0157  0.7451
   35MOL0     C 4648   8.219  11.195   6.478 -0.3434 -0.7430  0.1971
   35MOL0     O 4649   8.354  11.190   6.452 -0.2893  0.4977 -0.1350
   35MOL0     C 4650   8.418  11.060   6.466 -0.5730  0.4143  0.0026
   35MOL0     C 4651   8.416  11.018   6.615  0.1178 -0.1616 -0.2698
   35MOL0     C 4652   8.519  10.907   6.646  0.8157  0.0458 -0.2273
   35MOL0     C 4653   8.668  10.939   6.620 -0.7831  0.5590  0.9137
   35MOL0     C 4654   8.718  11.043   6.724 -0.4417  0.4879  0.0237
   35MOL0     C 4655   8.760  11.114   6.808  1.0769 -0.4240  0.6885
   35MOL0     C 4656   8.129  11.082   6.456  0.3170  0.9403 -0.5481
   35MOL0     C 4657   7.991  11.088   6.457  0.5822 -0.4286  1.1990
   35MOL0     H 4658   7.535  11.253   6.646 -1.4822  0.6133 -0.9796
   35MOL0     H 4659   7.308  11.164   6.705 -3.6005 -0.8690 -1.2404
   35MOL0     H 4660   7.110  11.120   6.512  0.7867 -2.0966 -1.6844
   35MOL0     H 4661   7.032  10.965   6.510  4.2144 -0.5260 -2.5249
   35MOL0     H 4662   6.985  10.988   6.754  1.1459 -0.9360 -0.6673
   35MOL0     H 4663   7.038  11.157   6.734  0.7720  0.1212 -1.5185
   35MOL0     H 4664   6.864  11.216   6.592 -0.2274 -0.8090 -0.0330
   35MOL0     H 4665   6.831  11.049   6.547 -0.9014  1.1687 -0.6770
   35MOL0     H 4666   6.764  10.983   6.760  2.7388  0.0907 -0.4886
   35MOL0     H 4667   6.770  11.133   6.838 -1.1393 -0.3783  1.4043
   35MOL0     H 4668   6.589  11.235   6.691 -0.9678 -0.3504 -0.5159
   35MOL0     H 4669   6.579  11.102   6.589 -2.9872  2.5081  0.6585
   35MOL0     H 4670   6.507  10.956   6.774 -3.9264  0.4323 -1.7122
   35MOL0     H 4671   6.520  11.086   6.885 -0.7700 -0.1257 -0.0753
   35MOL0     H 4672   6.326  11.192   6.794 -1.9713 -2.0901  0.9944
   35MOL0     H 4673   6.350  11.098   6.636 -0.9741  1.1212 -0.0145
   35MOL0     H 4674   6.314  10.978   6.918  2.1680  0.0598 -0.7452
   35MOL0     H 4675   6.293  10.901   6.766  2.1078 -0.1336 -0.2694
   35MOL0     H 4676   6.137  11.188   6.662 -1.4004  1.7557 -0.2648
   35MOL0     H 4677   5.864  11.247   6.617 -1.2594  0.5123  0.7889
   35MOL0     H 4678   5.842  11.079   6.556 -3.3408  1.4071 -0.3738
   35MOL0     H 4679   5.722  11.199   6.811 -3.2657  1.1515  0.0640
   35MOL0     H 4680   5.680  11.044   6.741 -0.2943 -0.4780  0.5875
   35MOL0     H 4681   5.605  11.158   6.530 -0.6212  0.4855 -0.2487
   35MOL0     H 4682   5.642  11.317   6.592  2.4951 -0.0721 -0.5621
   35MOL0     H 4683   5.471  11.244   6.788 -0.3638 -0.2198  0.1220
   35MOL0     H 4684   5.422  11.119   6.676 -1.5249  0.3071  0.0795
   35MOL0     H 4685   5.234  11.093   6.606  0.3171  0.0822  0.3636
   35MOL0     H 4686   5.021  10.992   6.564  0.0819 -1.6494  0.4553
   35MOL0     H 4687   4.956  10.962   6.724  1.5794  0.3092  0.1171
   35MOL0     H 4688   4.887  11.089   6.608 -1.4128  0.5108  2.0062
   35MOL0     H 4689   4.629  11.016   6.776  1.9005  1.6926 -0.1138
   35MOL0     H 4690   4.413  10.944   6.886  0.0972  0.9278 -2.4669
   35MOL0     H 4691   4.208  11.041   6.944  0.3892  0.5301  0.3395
   35MOL0     H 4692   4.263  10.887   7.015 -1.0929 -0.2817  0.9605
   35MOL0     H 4693   4.112  10.903   7.198 -0.6736 -0.3173  0.3541
   35MOL0     H 4694   4.085  11.070   7.172  0.2646 -1.8428  3.0377
   35MOL0     H 4695   4.019  10.892   6.936  0.3991 -0.3837 -0.3272
   35MOL0     H 4696   3.961  11.046   6.969  0.5686 -0.5156 -0.4211
   35MOL0     H 4697   3.888  10.801   7.135 -0.2882  0.4736  1.1535
   35MOL0     H 4698   3.844  10.965   7.179 -0.3890 -1.4883  1.0942
   35MOL0     H 4699   3.781  10.829   6.910  3.2234 -1.4426  2.0062
   35MOL0     H 4700   3.731  10.995   6.943  1.2626 -0.0563 -0.8187
   35MOL0     H 4701   3.631  10.748   7.095 -1.6621 -0.3512  0.2108
   35MOL0     H 4702   3.588  10.913   7.142  1.5752 -0.8763  0.6010
   35MOL0     H 4703   3.552  10.801   6.856  0.4152  0.2059  0.4610
   35MOL0     H 4704   3.475  10.941   6.946  0.4644  0.0257  1.1975
   35MOL0     H 4705   3.319  10.764   6.945  0.4231 -1.6990 -0.5896
   35MOL0     H 4706   3.390  10.769   7.093  3.1874 -0.2305  1.0469
   35MOL0     H 4707   4.495  11.259   7.170 -0.4842 -0.2262  0.2909
   35MOL0     H 4708   4.697  11.309   7.070  0.3724  1.3583 -1.2875
   35MOL0     H 4709   5.023  11.491   6.799 -3.0654 -0.5784  0.6071
   35MOL0     H 4710   5.258  11.503   6.725 -0.4729  0.2720  1.3206
   35MOL0     H 4711   7.354  10.834   6.463  0.6311  0.7945 -1.0152
   35MOL0     H 4712   7.567  10.891   6.398  1.7016 -0.3342  0.6607
   35MOL0     H 4713   7.965  11.409   6.551  0.9812  2.7520 -3.5047
   35MOL0     H 4714   8.203  11.414   6.514  1.7406  0.5899 -2.5888
   35MOL0     H 4715   8.372  10.985   6.400  0.3960 -1.1869  1.0739
   35MOL0     H 4716   8.522  11.085   6.442 -0.8535  1.2484 -0.3724
   35MOL0     H 4717   8.314  10.984   6.635 -0.3800  1.2228 -0.3821
   35MOL0     H 4718   8.423  11.112   6.670  1.9256  1.9170 -3.6843
   35MOL0     H 4719   8.499  10.822   6.580  0.0982 -0.2207  0.3236
   35MOL0     H 4720   8.497  10.880   6.749 -1.1752 -2.3371 -1.1775
   35MOL0     H 4721   8.688  10.981   6.521 -2.5093  0.7720  0.6269
   35MOL0     H 4722   8.712  10.839   6.615 -1.9181  0.0458  0.9743
   35MOL0     H 4723   8.777  11.164   6.902  0.6951  0.6072  0.2232
   35MOL0     H 4724   8.165  10.980   6.447 -1.1591  0.5379 -2.5896
   35MOL0     H 4725   7.929  11.000   6.446  0.7083 -0.3853  0.0840
   36MOL0     O 4726   0.033   8.910  10.415 -0.5123 -0.4060  0.2222
   36MOL0     C 4727   0.050   8.948  10.527 -0.6878  0.6829  0.5433
   36MOL0     O 4728  -0.042   9.020  10.601  0.0238  0.8550 -0.0308
   36MOL0     C 4729  -0.166   9.058  10.538 -0.2581 -0.1930  1.6563
   36MOL0     C 4730  -0.166   9.163  10.446 -0.0825  0.6163 -0.4652
   36MOL0     C 4731  -0.287   9.215  10.398 -1.0072  0.0384  0.2491
   36MOL0     C 4732  -0.409   9.153  10.440  0.0211  0.8552  0.5037
   36MOL0     O 4733  -0.520   9.211  10.392  0.1631 -0.3935 -0.4881
   36MOL0     C 4734  -0.630   9.229  10.480 -0.3891 -0.6666  0.1576
   36MOL0     C 4735  -0.745   9.291  10.402  0.3223  1.0436  0.0711
   36MOL0     C 4736  -0.879   9.291  10.475 -0.1426  0.6232  0.2426
   36MOL0     C 4737  -0.881   9.397  10.590  0.7687  0.9441 -0.0902
   36MOL0     C 4738  -1.022   9.424  10.639 -0.6705 -0.5776 -0.9017
   36MOL0     C 4739  -1.029   9.507  10.764 -0.2337 -0.1555  0.1327
   36MOL0     C 4740  -1.179   9.524  10.807 -0.1664 -0.4511 -0.2641
   36MOL0     C 4741  -1.177   9.631  10.918 -0.5897  0.1888 -0.4638
   36MOL0     N 4742  -1.313   9.646  10.978  0.2333 -0.1900 -0.1016
   36MOL0     C 4743  -1.397   9.549  11.037  0.3598  0.2065 -0.3747
   36MOL0     C 4744  -1.511   9.621  11.057  0.8890  0.5413 -0.5138
   36MOL0     C 4745  -1.627   9.546  11.121 -0.3915  0.2526 -0.0222
   36MOL0     C 4746  -1.601   9.523  11.274  0.5434 -0.2846  0.4555
   36MOL0     C 4747  -1.694   9.426  11.333  0.2543  0.8355 -1.0472
   36MOL0     C 4748  -1.625   9.351  11.447 -0.0735 -0.1196  0.1077
   36MOL0     O 4749  -1.699   9.232  11.477 -0.6881  0.1685  0.0756
   36MOL0     C 4750  -1.836   9.244  11.500  0.6291  0.1019 -0.0465
   36MOL0     C 4751  -1.927   9.176  11.422  1.1089 -0.2486 -0.3413
   36MOL0     C 4752  -2.063   9.214  11.439  0.4251  0.6673 -0.3867
   36MOL0     C 4753  -2.151   9.121  11.368  0.3328  0.3092 -0.1963
   36MOL0     C 4754  -2.101   9.318  11.519 -0.8599 -0.1147 -0.3992
   36MOL0     C 4755  -2.240   9.365  11.526 -0.6425  0.3712  0.3050
   36MOL0     O 4756  -2.314   9.363  11.411  0.5436  0.1960  0.3982
   36MOL0     C 4757  -2.451   9.373  11.424 -0.1432 -0.1971  1.1121
   36MOL0     C 4758  -2.501   9.495  11.447 -0.1502 -0.1704 -0.0544
   36MOL0     C 4759  -2.637   9.512  11.462 -0.0117 -0.1390 -0.4576
   36MOL0     C 4760  -2.724   9.404  11.460 -0.4649  0.9726  1.2680
   36MOL0     O 4761  -2.862   9.424  11.480 -0.4822  0.6854 -0.6667
   36MOL0     C 4762  -2.913   9.558  11.497  0.0779  0.3746  0.3618
   36MOL0     C 4763  -3.069   9.539  11.509  0.5115 -0.8622 -0.3780
   36MOL0     C 4764  -3.138   9.675  11.498 -0.4075  0.6736  0.0992
   36MOL0     C 4765  -3.290   9.663  11.504 -0.7396 -0.2625  0.2279
   36MOL0     C 4766  -3.350   9.799  11.488  1.1229  0.1898 -0.1298
   36MOL0     C 4767  -3.501   9.823  11.503  0.2640 -0.9971 -0.0939
   36MOL0     C 4768  -3.559   9.764  11.628 -1.2524 -0.0819  0.6614
   36MOL0     C 4769  -3.709   9.804  11.649 -0.2050 -0.6349 -0.2701
   36MOL0    Cl 4770  -3.825   9.712  11.551 -0.3907  0.0367  0.4089
   36MOL0     C 4771  -2.670   9.277  11.436  0.6504 -0.0992 -1.1362
   36MOL0     C 4772  -2.536   9.263  11.413 -1.0210 -0.1613 -0.5203
   36MOL0     O 4773  -2.279   9.404  11.635 -0.8944  0.0292 -0.5870
   36MOL0     C 4774  -2.003   9.387  11.592  0.2868  0.1794 -0.5534
   36MOL0     C 4775  -1.869   9.349  11.591 -0.2437  0.2901 -0.4763
   36MOL0     N 4776  -1.493   9.754  11.037  0.3107 -0.0485  0.4520
   36MOL0     N 4777  -1.366   9.769  11.003 -1.0386 -0.3816 -0.0537
   36MOL0     C 4778  -0.411   9.030  10.511  0.3275  0.4538 -0.4032
   36MOL0     C 4779  -0.287   8.990  10.573  0.2973  0.2845  0.2380
   36MOL0     C 4780   0.190   8.961  10.569 -0.3325 -0.3962 -0.1998
   36MOL0     C 4781   0.230   8.963  10.701 -0.2258 -0.6277 -0.3599
   36MOL0     C 4782   0.366   8.976  10.732 -0.0749  0.8480 -0.8990
   36MOL0     C 4783   0.468   8.970  10.631  0.3700  0.3774 -0.3289
   36MOL0     O 4784   0.591   8.962  10.689  0.0034 -0.2718  0.3227
   36MOL0     C 4785   0.709   8.943  10.612 -0.0520  0.4148 -0.3320
   36MOL0     C 4786   0.813   8.883  10.712  0.0605 -0.4822 -0.6574
   36MOL0     C 4787   0.932   8.845  10.631 -0.4315  0.6642 -0.7313
   36MOL0     C 4788   1.049   8.780  10.691 -0.3909 -1.0203  0.0882
   36MOL0     C 4789   1.021   8.672  10.786 -0.6409 -0.2993  0.4538
   36MOL0     C 4790   1.028   8.584  10.865  1.0556 -0.2673  0.7411
   36MOL0     C 4791   0.432   8.980  10.498  0.3766  0.3033 -0.2973
   36MOL0     C 4792   0.295   8.970  10.470 -0.2130  0.5895 -0.3958
   36MOL0     H 4793  -0.072   9.214  10.428 -0.2768  0.9190 -0.6397
   36MOL0     H 4794  -0.307   9.298  10.332 -4.4776  0.2425  1.3479
   36MOL0     H 4795  -0.667   9.129  10.503 -2.0886 -0.4257 -1.3151
   36MOL0     H 4796  -0.597   9.285  10.568  1.2710 -1.6404  0.1943
   36MOL0     H 4797  -0.729   9.388  10.353 -2.3614  1.1680 -0.6972
   36MOL0     H 4798  -0.759   9.218  10.321  1.0398 -1.5902  2.1888
   36MOL0     H 4799  -0.955   9.314  10.399 -0.6193  1.2297  0.8849
   36MOL0     H 4800  -0.903   9.192  10.514  1.9025  1.3698  3.8424
   36MOL0     H 4801  -0.822   9.363  10.676  1.8969  1.2545 -0.7201
   36MOL0     H 4802  -0.843   9.491  10.550  2.0888 -0.1033 -1.4025
   36MOL0     H 4803  -1.086   9.473  10.565 -0.2623  1.5443  0.0770
   36MOL0     H 4804  -1.064   9.324  10.655  0.6955 -1.5737 -3.1118
   36MOL0     H 4805  -0.971   9.466  10.847 -1.2957  0.7861  1.3906
   36MOL0     H 4806  -0.981   9.604  10.748 -0.9057  0.9593  3.8938
   36MOL0     H 4807  -1.242   9.558  10.724  1.1202  3.7914  0.2839
   36MOL0     H 4808  -1.211   9.429  10.851 -2.1302  0.1360 -0.3464
   36MOL0     H 4809  -1.166   9.728  10.870 -0.6017  0.4948  0.1390
   36MOL0     H 4810  -1.101   9.605  10.993  0.4353  1.5650 -0.9988
   36MOL0     H 4811  -1.368   9.447  11.063  0.4634  0.7173  1.7288
   36MOL0     H 4812  -1.722   9.598  11.109  0.7287  2.4232 -0.0344
   36MOL0     H 4813  -1.650   9.450  11.074 -0.5404 -0.3685  1.2689
   36MOL0     H 4814  -1.597   9.620  11.324 -0.0584  0.5470 -1.0415
   36MOL0     H 4815  -1.499   9.485  11.287  1.1422 -0.1034 -2.8360
   36MOL0     H 4816  -1.715   9.348  11.260  1.3067  2.1348 -2.8444
   36MOL0     H 4817  -1.787   9.470  11.368  1.6905  0.8639  3.2557
   36MOL0     H 4818  -1.621   9.406  11.541 -0.9527  0.8445 -0.4076
   36MOL0     H 4819  -1.527   9.309  11.423 -0.7590 -2.3121  0.8780
   36MOL0     H 4820  -1.900   9.103  11.346  0.3747 -1.6683  0.7083
   36MOL0     H 4821  -2.232   9.164  11.307 -0.2370 -0.7569 -0.2200
   36MOL0     H 4822  -2.100   9.053  11.299  3.0809  0.9809  1.0761
   36MOL0     H 4823  -2.196   9.059  11.446  0.3168 -0.2752 -0.6586
   36MOL0     H 4824  -2.443   9.584  11.468 -3.0860  1.7803  0.4339
   36MOL0     H 4825  -2.669   9.614  11.485  1.1266 -0.1144  1.1804
   36MOL0     H 4826  -2.877   9.611  11.586 -0.1915  2.7102 -0.8497
   36MOL0     H 4827  -2.898   9.617  11.406  0.6329 -0.2432  0.0427
   36MOL0     H 4828  -3.108   9.480  11.425  1.5674  0.6144 -1.9623
   36MOL0     H 4829  -3.100   9.492  11.603  0.1394  1.9497  0.9791
   36MOL0     H 4830  -3.114   9.710  11.397  1.6918 -1.3691 -0.2026
   36MOL0     H 4831  -3.097   9.745  11.570 -0.8940  0.6626  0.3911
   36MOL0     H 4832  -3.328   9.584  11.439  0.4537 -0.3160 -0.4277
   36MOL0     H 4833  -3.329   9.630  11.601 -2.0200 -1.4301 -0.6373
   36MOL0     H 4834  -3.319   9.855  11.399 -0.8031  2.7481  0.6809
   36MOL0     H 4835  -3.307   9.852  11.573 -0.8437 -2.1384  2.4890
   36MOL0     H 4836  -3.512   9.931  11.516  0.2439 -0.6743 -2.3330
   36MOL0     H 4837  -3.564   9.789  11.420 -1.8123 -0.2335  1.0828
   36MOL0     H 4838  -3.494   9.817  11.699  0.4487 -0.6496 -0.4248
   36MOL0     H 4839  -3.544   9.656  11.634  0.1875  0.0523 -0.1773
   36MOL0     H 4840  -3.715   9.913  11.643 -0.0476 -0.6577 -0.9264
   36MOL0     H 4841  -3.735   9.762  11.746  0.5915 -4.7795 -1.6540
   36MOL0     H 4842  -2.737   9.192  11.428  0.2152 -0.1391  1.7711
   36MOL0     H 4843  -2.493   9.165  11.397 -1.9174 -1.2804  3.0276
   36MOL0     H 4844  -2.041   9.472  11.647 -1.1337 -0.5642 -0.3324
   36MOL0     H 4845  -1.797   9.400  11.654 -0.9186  0.3797  0.2255
   36MOL0     H 4846  -0.511   8.992  10.531 -0.2145  1.1341 -1.6584
   36MOL0     H 4847  -0.282   8.913  10.649 -0.2030  0.0185  0.0018
   36MOL0     H 4848   0.148   8.949  10.772 -1.3013 -1.4922 -1.7298
   36MOL0     H 4849   0.391   8.960  10.837 -2.1208  0.8182 -0.3722
   36MOL0     H 4850   0.689   8.865  10.538 -1.9462 -1.3450  1.8828
   36MOL0     H 4851   0.733   9.042  10.570  1.2022 -0.4064 -1.6261
   36MOL0     H 4852   0.789   8.788  10.760  1.6497  0.1303  1.4975
   36MOL0     H 4853   0.837   8.955  10.791 -3.0936 -1.6360  1.5476
   36MOL0     H 4854   0.971   8.936  10.584 -0.6449  0.9673 -0.3259
   36MOL0     H 4855   0.890   8.786  10.549 -1.5579  0.6442 -0.1602
   36MOL0     H 4856   1.100   8.852  10.756  2.5579 -0.3488 -2.6840
   36MOL0     H 4857   1.116   8.740  10.614 -2.2281 -2.0548 -1.0563
   36MOL0     H 4858   1.030   8.508  10.940 -0.1452 -3.1795 -1.9717
   36MOL0     H 4859   0.509   8.995  10.423 -1.3308  1.6317 -1.8605
   36MOL0     H 4860   0.264   8.969  10.366 -0.8264 -0.7332 -0.2188
   37MOL0     O 4861   8.143   8.401   8.118  0.0508  0.0111  0.7870
   37MOL0     C 4862   8.217   8.490   8.067  0.4977 -0.2288 -0.5858
   37MOL0     O 4863   8.187   8.564   7.965  0.4197 -0.1623 -0.6090
   37MOL0     C 4864   8.066   8.550   7.902  0.2772 -0.4607  0.0242
   37MOL0     C 4865   8.021   8.427   7.845  0.0917  0.5085  0.4004
   37MOL0     C 4866   7.889   8.416   7.804 -0.5898  0.5260 -0.5932
   37MOL0     C 4867   7.807   8.526   7.802 -0.3031  0.3514  0.6562
   37MOL0     O 4868   7.675   8.520   7.750  0.1935 -0.1590 -0.0703
   37MOL0     C 4869   7.626   8.615   7.657  0.7753  0.5304 -0.1272
   37MOL0     C 4870   7.477   8.597   7.660  0.0456  0.1584 -0.6873
   37MOL0     C 4871   7.400   8.693   7.570  0.6880 -0.4865 -0.7333
   37MOL0     C 4872   7.248   8.655   7.563 -0.5506  0.2682 -0.8324
   37MOL0     C 4873   7.225   8.524   7.492 -0.2475 -0.0274  0.0695
   37MOL0     C 4874   7.077   8.505   7.458  0.7315  0.0370  0.5652
   37MOL0     C 4875   6.997   8.478   7.592 -0.7691 -0.6881  0.1667
   37MOL0     C 4876   6.848   8.456   7.558  0.2693 -0.4214 -0.0788
   37MOL0     N 4877   6.768   8.406   7.678 -0.2119 -0.3167 -0.5579
   37MOL0     C 4878   6.761   8.471   7.801 -0.0483 -0.0686  1.0531
   37MOL0     C 4879   6.685   8.387   7.871 -0.0324 -0.2386 -0.3493
   37MOL0     C 4880   6.662   8.427   8.015  0.2011 -0.2287  0.1565
   37MOL0     C 4881   6.756   8.347   8.112  0.5936  0.6014  0.4844
   37MOL0     C 4882   6.723   8.400   8.250  0.1791  0.9686  0.3161
   37MOL0     C 4883   6.648   8.285   8.327 -0.6982 -0.1557  0.5005
   37MOL0     O 4884   6.635   8.316   8.460  0.1234 -0.0862 -0.1581
   37MOL0     C 4885   6.536   8.269   8.538 -0.4805  0.6452  0.6080
   37MOL0     C 4886   6.528   8.314   8.664 -0.6737  0.6774  0.2229
   37MOL0     C 4887   6.421   8.289   8.747  0.3615  0.3752  0.3349
   37MOL0     C 4888   6.414   8.354   8.885 -0.0043  0.6189 -0.5064
   37MOL0     C 4889   6.302   8.215   8.692 -0.4480 -0.2131 -0.0221
   37MOL0     C 4890   6.166   8.212   8.768  0.2646 -0.6539 -0.8615
   37MOL0     O 4891   6.161   8.236   8.905  0.3302  0.4271 -0.3326
   37MOL0     C 4892   6.055   8.191   8.983  0.0771 -0.5011  1.3994
   37MOL0     C 4893   6.021   8.275   9.085 -0.6584  0.1605 -0.0550
   37MOL0     C 4894   5.914   8.244   9.164 -0.0559  0.4626 -0.1378
   37MOL0     C 4895   5.831   8.132   9.131  1.2540  0.5538 -1.0332
   37MOL0     O 4896   5.719   8.116   9.214  0.4639 -0.1169 -0.3047
   37MOL0     C 4897   5.602   8.053   9.158  0.7005  0.3877 -0.2217
   37MOL0     C 4898   5.501   8.035   9.270 -0.3279 -0.4249  0.3133
   37MOL0     C 4899   5.369   7.959   9.241 -0.0866  0.1695  0.4853
   37MOL0     C 4900   5.251   8.050   9.210 -0.8919 -0.1088 -0.5562
   37MOL0     C 4901   5.124   7.972   9.195  0.1424 -0.2020 -0.1982
   37MOL0     C 4902   5.080   7.878   9.312  0.4338 -0.5042 -0.5076
   37MOL0     C 4903   4.929   7.855   9.295 -0.4647 -0.0450  0.5502
   37MOL0     C 4904   4.888   7.773   9.403 -0.3779  0.2391  0.0320
   37MOL0    Cl 4905   4.713   7.821   9.426 -0.0560 -0.1010  0.2866
   37MOL0     C 4906   5.864   8.046   9.030 -0.5406 -0.4526 -0.7565
   37MOL0     C 4907   5.974   8.077   8.952  0.0018  0.0580  0.0872
   37MOL0     O 4908   6.066   8.173   8.706  0.0025  0.1431 -0.1521
   37MOL0     C 4909   6.314   8.171   8.559  0.4157 -0.1910 -0.2802
   37MOL0     C 4910   6.430   8.188   8.483  0.1751 -0.7184 -0.4247
   37MOL0     N 4911   6.632   8.292   7.782  0.3036 -0.3115 -0.3662
   37MOL0     N 4912   6.684   8.311   7.671  0.3754  0.2579  0.1689
   37MOL0     C 4913   7.855   8.653   7.831 -0.0773 -0.4639 -0.4359
   37MOL0     C 4914   7.985   8.662   7.879 -0.2856  0.0450 -0.2336
   37MOL0     C 4915   8.358   8.497   8.129  0.9482 -0.0043 -0.6951
   37MOL0     C 4916   8.401   8.378   8.191 -0.6020 -1.1872 -0.5956
   37MOL0     C 4917   8.522   8.378   8.261  0.5253 -0.7003 -0.2564
   37MOL0     C 4918   8.610   8.488   8.257  0.5618  0.7964 -0.2972
   37MOL0     O 4919   8.726   8.492   8.325 -0.0524 -0.0021  0.8495
   37MOL0     C 4920   8.762   8.406   8.435  0.4072 -0.5540  0.8171
   37MOL0     C 4921   8.912   8.399   8.431  0.1352  0.0055  0.0893
   37MOL0     C 4922   8.975   8.531   8.492  0.0770 -0.5459 -0.0418
   37MOL0     C 4923   9.122   8.543   8.458 -0.0700  0.5703 -0.1364
   37MOL0     C 4924   9.202   8.487   8.561 -0.3635  0.5723  0.1239
   37MOL0     C 4925   9.272   8.451   8.652  0.5499 -0.3458  0.6257
   37MOL0     C 4926   8.568   8.593   8.178 -0.3964 -0.2119 -0.3579
   37MOL0     C 4927   8.444   8.602   8.119  0.4698  0.4059 -0.9769
   37MOL0     H 4928   8.080   8.338   7.862  0.7343  0.6043 -1.1470
   37MOL0     H 4929   7.842   8.319   7.789 -0.2136  0.6768 -3.1531
   37MOL0     H 4930   7.646   8.721   7.679 -0.6688  0.6804  0.5890
   37MOL0     H 4931   7.664   8.598   7.556 -2.8320  0.8965 -1.6904
   37MOL0     H 4932   7.459   8.495   7.625  2.1772  0.1788 -2.0267
   37MOL0     H 4933   7.448   8.605   7.766  1.2186 -0.7489 -0.2736
   37MOL0     H 4934   7.398   8.795   7.611  0.8201 -1.4851  1.9673
   37MOL0     H 4935   7.434   8.698   7.466 -1.7536 -1.8804 -1.6636
   37MOL0     H 4936   7.219   8.659   7.669  2.2574  1.7387 -0.0053
   37MOL0     H 4937   7.195   8.733   7.509  1.7270  2.0393 -0.6828
   37MOL0     H 4938   7.285   8.526   7.401  3.5451 -1.0832  2.3315
   37MOL0     H 4939   7.255   8.437   7.551  2.3904  0.4859 -0.3839
   37MOL0     H 4940   7.041   8.594   7.404  0.6998 -1.1078 -1.3832
   37MOL0     H 4941   7.068   8.418   7.392 -0.1866 -0.6917  1.6114
   37MOL0     H 4942   7.031   8.378   7.620  0.4465 -0.0995  0.8599
   37MOL0     H 4943   7.002   8.554   7.669  0.8184  2.1207 -2.4901
   37MOL0     H 4944   6.815   8.381   7.485 -3.6075 -1.1874  2.1598
   37MOL0     H 4945   6.808   8.550   7.518 -0.9025 -1.4969 -1.5451
   37MOL0     H 4946   6.826   8.548   7.840  0.9815  0.4774 -1.4855
   37MOL0     H 4947   6.694   8.529   8.040  2.2588 -1.0352  1.0447
   37MOL0     H 4948   6.555   8.419   8.040  0.1761  1.1091  0.5683
   37MOL0     H 4949   6.864   8.362   8.097  0.3984  1.7318  0.0634
   37MOL0     H 4950   6.726   8.244   8.095  0.8691  0.8517 -2.0365
   37MOL0     H 4951   6.650   8.481   8.244 -2.4487 -1.3290 -0.8686
   37MOL0     H 4952   6.812   8.434   8.304 -0.0843  2.0055  0.1308
   37MOL0     H 4953   6.699   8.188   8.323  1.3455  0.8602  0.2479
   37MOL0     H 4954   6.549   8.272   8.282 -0.7602 -2.0583  1.0892
   37MOL0     H 4955   6.610   8.377   8.697 -1.9028  1.3668  2.1462
   37MOL0     H 4956   6.395   8.275   8.958 -1.5471  1.6145  0.2468
   37MOL0     H 4957   6.509   8.400   8.911  1.5120 -1.7410 -1.5014
   37MOL0     H 4958   6.324   8.415   8.899 -0.6758 -1.0382  4.2824
   37MOL0     H 4959   6.086   8.358   9.111  1.1865 -1.4383  0.7542
   37MOL0     H 4960   5.880   8.301   9.250 -0.8486  1.0736 -0.8425
   37MOL0     H 4961   5.555   8.111   9.079  0.2796 -0.9341 -0.9676
   37MOL0     H 4962   5.612   7.954   9.112  0.0875  1.1802 -2.1502
   37MOL0     H 4963   5.550   7.991   9.358 -1.0976 -1.6658  0.1462
   37MOL0     H 4964   5.474   8.134   9.308 -2.5546 -1.8888  2.8903
   37MOL0     H 4965   5.344   7.900   9.330  3.6531  0.2215  1.7480
   37MOL0     H 4966   5.393   7.905   9.148 -1.2278  1.5160 -0.6357
   37MOL0     H 4967   5.238   8.122   9.291  0.9341  0.9771 -1.1744
   37MOL0     H 4968   5.272   8.107   9.119  1.5540  2.1389  1.2470
   37MOL0     H 4969   5.133   7.917   9.101 -1.4114  1.9975 -1.7470
   37MOL0     H 4970   5.050   8.052   9.185 -0.7932 -1.0400 -0.1823
   37MOL0     H 4971   5.133   7.783   9.314  0.2598 -0.6007  1.9654
   37MOL0     H 4972   5.096   7.926   9.409 -0.4328  1.9439 -1.4958
   37MOL0     H 4973   4.894   7.799   9.207 -2.1186 -0.6102  1.5176
   37MOL0     H 4974   4.877   7.951   9.300 -1.7056 -0.7294  1.5204
   37MOL0     H 4975   4.955   7.793   9.488 -1.0129  2.2954  0.0859
   37MOL0     H 4976   4.888   7.665   9.381 -0.4592  0.2126  0.1597
   37MOL0     H 4977   5.797   7.964   9.007 -2.6993  1.1647 -0.5242
   37MOL0     H 4978   6.007   8.020   8.866  3.3504  1.8805 -0.0057
   37MOL0     H 4979   6.225   8.128   8.513 -0.2667 -1.9990  2.5192
   37MOL0     H 4980   6.449   8.131   8.392  2.8578 -1.7860  0.6857
   37MOL0     H 4981   7.799   8.746   7.820  2.1693  0.9423 -0.6761
   37MOL0     H 4982   8.032   8.757   7.901 -3.0037  1.7529 -1.3992
   37MOL0     H 4983   8.333   8.294   8.197 -2.7170  0.5054  3.1185
   37MOL0     H 4984   8.544   8.285   8.312  0.5287 -0.5379  0.0359
   37MOL0     H 4985   8.729   8.458   8.526  1.6561 -1.7747  2.0130
   37MOL0     H 4986   8.713   8.308   8.431 -0.0982 -0.2710 -0.5893
   37MOL0     H 4987   8.929   8.396   8.323 -0.7375  3.2673 -0.2199
   37MOL0     H 4988   8.939   8.312   8.492 -0.3481 -0.8516 -0.8810
   37MOL0     H 4989   8.959   8.526   8.600 -0.8694  0.7703 -0.1075
   37MOL0     H 4990   8.930   8.624   8.458  2.7101  0.1523 -2.0005
   37MOL0     H 4991   9.152   8.649   8.453  1.2920  0.2873  1.1513
   37MOL0     H 4992   9.155   8.489   8.369  1.4302 -2.1321  1.9304
   37MOL0     H 4993   9.346   8.414   8.720  1.7302  1.8098  0.6089
   37MOL0     H 4994   8.634   8.679   8.167 -0.6426  0.0515  0.2051
   37MOL0     H 4995   8.411   8.697   8.078 -0.8506  0.5415  0.2889
   38MOL0     O 4996  11.348   7.002  10.907  0.2584  0.1327  0.0815
   38MOL0     C 4997  11.307   6.895  10.863 -0.2686 -0.2165 -0.0781
   38MOL0     O 4998  11.202   6.878  10.777 -0.0685 -0.3103  0.3032
   38MOL0     C 4999  11.128   6.986  10.738 -0.5473  0.0295 -0.1417
   38MOL0     C 5000  11.102   7.029  10.607 -0.1308  0.0452 -0.4288
   38MOL0     C 5001  11.000   7.122  10.584 -0.8265 -0.5042 -0.1128
   38MOL0     C 5002  10.933   7.178  10.689  0.6808 -0.3316  0.2751
   38MOL0     O 5003  10.838   7.271  10.656 -0.3401 -0.5530  0.7946
   38MOL0     C 5004  10.745   7.322  10.756  0.0115 -0.0183 -0.0546
   38MOL0     C 5005  10.652   7.421  10.694  0.6520  0.0673  0.0161
   38MOL0     C 5006  10.563   7.364  10.579 -0.1112 -0.8715  0.2051
   38MOL0     C 5007  10.499   7.484  10.506 -0.0389 -0.1632 -0.0851
   38MOL0     C 5008  10.400   7.443  10.392  0.6611  0.3301 -1.0816
   38MOL0     C 5009  10.352   7.556  10.310  0.2494 -0.6666  0.0889
   38MOL0     C 5010  10.242   7.645  10.370 -0.1463 -0.0378  0.7379
   38MOL0     C 5011  10.109   7.583  10.342  0.5643  0.1002  0.0395
   38MOL0     N 5012  10.005   7.667  10.401 -0.0001  1.3835  0.2059
   38MOL0     C 5013   9.947   7.778  10.354 -0.4096  0.1971 -1.4766
   38MOL0     C 5014   9.845   7.810  10.442 -0.1153 -0.0367  0.3130
   38MOL0     C 5015   9.767   7.932  10.423  0.4161 -0.4567  0.0125
   38MOL0     C 5016   9.698   7.927  10.288  0.7284  0.1091  0.0629
   38MOL0     C 5017   9.569   8.030  10.288 -0.3522 -0.4582 -0.7035
   38MOL0     C 5018   9.495   8.018  10.153 -0.1740  0.2136  0.1594
   38MOL0     O 5019   9.410   8.135  10.123 -0.0053  0.0842  0.3425
   38MOL0     C 5020   9.283   8.101  10.074  0.0998  1.3323  0.0732
   38MOL0     C 5021   9.248   7.980  10.012 -0.0147  0.7090  0.3234
   38MOL0     C 5022   9.117   7.961   9.952 -0.3311 -1.1064 -0.7029
   38MOL0     C 5023   9.095   7.834   9.862  0.2480 -0.3567 -0.1598
   38MOL0     C 5024   9.016   8.059   9.986 -0.5008  0.9097  0.7309
   38MOL0     C 5025   8.868   8.059   9.937  0.3598  0.7886  0.3814
   38MOL0     O 5026   8.794   8.168   9.961 -0.0298  0.3346  0.4703
   38MOL0     C 5027   8.676   8.165   9.889 -0.6588 -0.1872 -0.3808
   38MOL0     C 5028   8.684   8.218   9.762 -0.9045 -0.2782  0.1967
   38MOL0     C 5029   8.572   8.217   9.683  0.0524  0.1205 -0.2314
   38MOL0     C 5030   8.453   8.170   9.733  0.1297  1.8781  0.3150
   38MOL0     O 5031   8.333   8.188   9.676 -0.0556 -0.0818  0.3101
   38MOL0     C 5032   8.334   8.262   9.546 -0.4453  0.7643  0.1300
   38MOL0     C 5033   8.185   8.266   9.487 -0.0170  0.3493  1.0899
   38MOL0     C 5034   8.127   8.134   9.462 -0.0554  0.5847  0.0240
   38MOL0     C 5035   7.977   8.143   9.422 -0.1923  0.3324 -0.3864
   38MOL0     C 5036   7.935   8.013   9.351 -0.0024 -0.2653 -1.0074
   38MOL0     C 5037   7.785   7.994   9.343  0.1876  0.3478  0.8778
   38MOL0     C 5038   7.749   7.928   9.207  0.7066  0.2206  0.0425
   38MOL0     C 5039   7.610   7.868   9.218 -0.0936 -0.6334  0.4976
   38MOL0    Cl 5040   7.530   7.849   9.058  0.0361  0.2550  0.0228
   38MOL0     C 5041   8.446   8.110   9.861  0.6708 -0.7216 -0.1413
   38MOL0     C 5042   8.559   8.100   9.933 -0.2639 -0.2235 -0.1907
   38MOL0     O 5043   8.834   7.965   9.863  0.3658  0.0451  0.0970
   38MOL0     C 5044   9.056   8.166  10.061 -0.6556 -0.4195  1.0010
   38MOL0     C 5045   9.182   8.193  10.096  0.5969  0.2723  0.0171
   38MOL0     N 5046   9.837   7.706  10.540 -0.6319 -0.0128  0.5176
   38MOL0     N 5047   9.934   7.627  10.516  0.5341  0.1615 -0.6829
   38MOL0     C 5048  10.960   7.141  10.819 -1.2384  0.6024 -0.6880
   38MOL0     C 5049  11.047   7.039  10.840  1.2461  1.0815 -0.6257
   38MOL0     C 5050  11.395   6.777  10.890  0.2547 -0.3388  0.1112
   38MOL0     C 5051  11.339   6.652  10.887  0.1693  0.4088  0.1101
   38MOL0     C 5052  11.433   6.549  10.906 -0.3183 -0.3364 -0.2430
   38MOL0     C 5053  11.561   6.575  10.947 -0.5085 -0.7148 -0.7909
   38MOL0     O 5054  11.642   6.466  10.980  0.0801 -0.0110 -0.4118
   38MOL0     C 5055  11.667   6.360  10.878 -0.2150 -0.7404 -0.3245
   38MOL0     C 5056  11.726   6.241  10.954  0.4825  0.1176  0.5244
   38MOL0     C 5057  11.633   6.156  11.044 -0.3804 -0.3662 -0.6389
   38MOL0     C 5058  11.535   6.055  10.971 -0.9454  0.1440 -0.5576
   38MOL0     C 5059  11.421   6.117  10.904 -0.0462 -0.0001 -0.3968
   38MOL0     C 5060  11.322   6.155  10.848 -0.1859 -0.6423 -0.1515
   38MOL0     C 5061  11.617   6.701  10.950 -0.3240 -1.4558  0.3892
   38MOL0     C 5062  11.536   6.807  10.919  0.0828  0.0970  0.1342
   38MOL0     H 5063  11.152   6.980  10.524  1.1917 -1.2483  1.0634
   38MOL0     H 5064  10.977   7.150  10.481 -0.6701  0.5171  0.1209
   38MOL0     H 5065  10.696   7.236  10.803  1.9478 -0.2314  1.7722
   38MOL0     H 5066  10.808   7.373  10.830  2.3115 -0.4931 -1.5519
   38MOL0     H 5067  10.583   7.459  10.770 -1.5295 -1.5778 -1.0209
   38MOL0     H 5068  10.703   7.515  10.670  1.7694  0.2073  2.5873
   38MOL0     H 5069  10.623   7.316  10.500 -3.0737  0.0542 -2.8265
   38MOL0     H 5070  10.480   7.301  10.613 -1.5594 -1.1924 -3.4621
   38MOL0     H 5071  10.433   7.539  10.574  1.6517  0.7136  0.9225
   38MOL0     H 5072  10.579   7.551  10.474  1.0837 -1.9039 -1.0695
   38MOL0     H 5073  10.453   7.380  10.320  1.5788  1.6572 -1.6073
   38MOL0     H 5074  10.321   7.375  10.427 -0.9892  2.5569 -0.2246
   38MOL0     H 5075  10.437   7.620  10.284 -0.6916  0.3633 -0.5548
   38MOL0     H 5076  10.316   7.521  10.213  1.5001  1.5153 -1.2452
   38MOL0     H 5077  10.258   7.661  10.477 -0.2054 -2.3185  1.1436
   38MOL0     H 5078  10.250   7.740  10.317  1.4345 -0.5516 -0.0185
   38MOL0     H 5079  10.099   7.485  10.389  1.5511  1.6524  3.8180
   38MOL0     H 5080  10.098   7.580  10.233 -0.9678 -2.6124  0.1894
   38MOL0     H 5081   9.961   7.836  10.264 -4.8168  1.4187 -1.6073
   38MOL0     H 5082   9.697   7.948  10.505 -0.6281  1.5610 -1.2080
   38MOL0     H 5083   9.834   8.019  10.426 -1.2828  0.8738  0.8281
   38MOL0     H 5084   9.669   7.822  10.275  2.3553 -0.4781  0.8894
   38MOL0     H 5085   9.766   7.946  10.205  0.3864 -0.6072 -0.3922
   38MOL0     H 5086   9.609   8.131  10.302  0.4800 -0.7750 -0.8010
   38MOL0     H 5087   9.507   7.998  10.372 -0.7506 -2.5271 -1.7216
   38MOL0     H 5088   9.431   7.930  10.166  1.6311 -1.4611 -1.6051
   38MOL0     H 5089   9.561   8.005  10.067 -0.6452 -0.5604 -0.0940
   38MOL0     H 5090   9.326   7.908   9.988 -0.2117  1.1612 -1.9483
   38MOL0     H 5091   9.191   7.787   9.842  0.4751  0.9882 -2.6274
   38MOL0     H 5092   9.020   7.769   9.908  0.4434 -0.8916 -0.5860
   38MOL0     H 5093   9.057   7.881   9.771  1.0183  2.9809  1.0972
   38MOL0     H 5094   8.780   8.252   9.722 -0.6043 -0.9188  0.3523
   38MOL0     H 5095   8.580   8.261   9.584 -0.8161  0.4030 -0.1812
   38MOL0     H 5096   8.359   8.368   9.553 -1.7187  1.1407 -0.6240
   38MOL0     H 5097   8.398   8.215   9.472 -0.6678  0.3130  0.2168
   38MOL0     H 5098   8.124   8.311   9.566  1.2991  0.1475  2.2652
   38MOL0     H 5099   8.180   8.338   9.405  2.9309  1.7884  2.0104
   38MOL0     H 5100   8.137   8.067   9.548  0.8436 -1.3059 -1.4999
   38MOL0     H 5101   8.172   8.076   9.381 -0.5563 -3.2834  2.3089
   38MOL0     H 5102   7.912   8.168   9.507  1.4628 -0.8397  1.2938
   38MOL0     H 5103   7.951   8.227   9.357  0.9556  1.6770  0.8389
   38MOL0     H 5104   7.975   7.924   9.402  1.4243  0.8688 -0.0406
   38MOL0     H 5105   7.982   8.019   9.253 -1.9527 -0.5977 -1.9959
   38MOL0     H 5106   7.755   7.935   9.430  2.3921  0.4623  1.7737
   38MOL0     H 5107   7.737   8.092   9.355 -1.2075  0.0288 -1.3884
   38MOL0     H 5108   7.826   7.856   9.176 -0.2055 -0.2199 -1.2804
   38MOL0     H 5109   7.735   8.007   9.133 -1.3928  1.7726  1.9467
   38MOL0     H 5110   7.552   7.941   9.276 -3.3059 -1.3719 -1.5811
   38MOL0     H 5111   7.620   7.780   9.281  2.6424 -0.9675 -0.2507
   38MOL0     H 5112   8.366   8.040   9.884  0.7094 -0.3750  1.1283
   38MOL0     H 5113   8.558   8.043  10.026 -0.8039  0.2263  0.0862
   38MOL0     H 5114   8.986   8.248  10.074 -0.7163  0.5110 -3.3953
   38MOL0     H 5115   9.199   8.289  10.144 -0.9554  0.2389  0.6828
   38MOL0     H 5116  10.918   7.196  10.903  1.7827  1.1295  0.6363
   38MOL0     H 5117  11.067   7.001  10.940 -1.1885  1.4362  0.0703
   38MOL0     H 5118  11.234   6.627  10.879  0.6390 -2.2548  1.0380
   38MOL0     H 5119  11.404   6.445  10.892  0.9727 -0.4608 -2.5070
   38MOL0     H 5120  11.579   6.323  10.825 -0.7557 -1.2128  0.8817
   38MOL0     H 5121  11.744   6.403  10.813 -0.8065  1.8690  0.6136
   38MOL0     H 5122  11.811   6.268  11.017  1.0165 -1.7936  0.6789
   38MOL0     H 5123  11.754   6.175  10.871 -1.2647  0.5195 -0.4367
   38MOL0     H 5124  11.573   6.226  11.103  1.5013  2.0235 -1.3656
   38MOL0     H 5125  11.692   6.095  11.113 -1.8413 -1.8722 -0.6687
   38MOL0     H 5126  11.499   5.985  11.047  0.1906 -0.5168 -0.6135
   38MOL0     H 5127  11.598   6.003  10.899 -3.1968 -2.2496 -0.9448
   38MOL0     H 5128  11.243   6.201  10.793  0.4610  1.0974  0.2880
   38MOL0     H 5129  11.718   6.707  10.990 -0.2677 -4.0558  0.7588
   38MOL0     H 5130  11.572   6.908  10.936 -2.7374  1.0456  1.1388
   39MOL0     O 5131   3.170  10.768  10.671 -0.2114  0.5664  0.4536
   39MOL0     C 5132   3.221  10.873  10.663  0.5529 -0.1829 -1.2915
   39MOL0     O 5133   3.159  10.991  10.684 -0.4783  0.0360 -0.4004
   39MOL0     C 5134   3.022  11.011  10.692 -0.1079 -0.0887  0.5118
   39MOL0     C 5135   2.968  11.144  10.707 -0.4246 -1.0759  0.0897
   39MOL0     C 5136   2.830  11.173  10.721  0.3235 -0.3411  0.4769
   39MOL0     C 5137   2.735  11.071  10.710 -0.4505 -0.6593  0.0754
   39MOL0     O 5138   2.603  11.106  10.720 -0.2771 -0.0239 -0.8238
   39MOL0     C 5139   2.521  11.041  10.619 -1.0916  0.0366 -0.7686
   39MOL0     C 5140   2.394  11.132  10.604  0.1386 -0.1057 -0.3805
   39MOL0     C 5141   2.308  11.160  10.724  0.7200  0.9959 -1.0845
   39MOL0     C 5142   2.251  11.031  10.789 -0.4566 -0.1089  0.3021
   39MOL0     C 5143   2.165  11.053  10.905 -0.4654  0.7511  0.5476
   39MOL0     C 5144   2.038  11.133  10.875 -0.7668  0.2895 -0.2861
   39MOL0     C 5145   1.934  11.132  10.992 -0.1045  0.1100 -0.6973
   39MOL0     C 5146   1.868  10.995  11.012 -0.0279  0.0511 -1.4831
   39MOL0     N 5147   1.774  10.979  11.131 -0.0173 -0.2690 -0.6040
   39MOL0     C 5148   1.633  10.973  11.126  0.3725 -0.4132  1.2042
   39MOL0     C 5149   1.589  10.982  11.252 -0.0293 -0.4138 -0.3666
   39MOL0     C 5150   1.445  10.975  11.298  0.1233  0.3776  0.1365
   39MOL0     C 5151   1.421  10.842  11.354 -0.0943 -0.7969  0.0015
   39MOL0     C 5152   1.267  10.817  11.354 -1.1303  0.3450 -1.4935
   39MOL0     C 5153   1.226  10.687  11.430  0.8149 -1.1942  1.3127
   39MOL0     O 5154   1.148  10.609  11.342  0.1959  0.1665 -0.1758
   39MOL0     C 5155   1.119  10.480  11.380 -0.2550 -0.8759  0.1616
   39MOL0     C 5156   1.211  10.401  11.453  0.5932  1.1142  0.5701
   39MOL0     C 5157   1.173  10.271  11.493 -0.4942  0.9186 -0.6445
   39MOL0     C 5158   1.276  10.203  11.579 -0.2703 -0.0346 -0.0152
   39MOL0     C 5159   1.040  10.219  11.463 -0.5983  0.5370  0.0745
   39MOL0     C 5160   0.989  10.096  11.504  0.1572 -0.9071  0.7579
   39MOL0     O 5161   1.075   9.993  11.515 -0.8216 -0.2392 -0.4462
   39MOL0     C 5162   1.030   9.869  11.545 -0.0691  0.0054  0.0351
   39MOL0     C 5163   1.012   9.828  11.674 -0.7809 -0.2970  0.3626
   39MOL0     C 5164   0.956   9.698  11.705  0.1612 -0.3080 -0.1725
   39MOL0     C 5165   0.942   9.604  11.601  0.1722 -0.3617  0.4429
   39MOL0     O 5166   0.898   9.478  11.631 -0.1826 -0.7304  0.4241
   39MOL0     C 5167   0.902   9.369  11.532  0.0748  0.1977 -0.6813
   39MOL0     C 5168   1.052   9.316  11.527  0.2417  0.3434  0.1141
   39MOL0     C 5169   1.080   9.189  11.443 -0.4902  0.0992  0.1782
   39MOL0     C 5170   1.071   9.226  11.296 -0.4892  0.0656  0.3995
   39MOL0     C 5171   1.095   9.103  11.207 -0.1319  0.6107  0.0636
   39MOL0     C 5172   0.982   8.998  11.234 -0.1159  0.4907  0.1289
   39MOL0     C 5173   0.985   8.889  11.130 -0.5024 -0.4432 -0.0757
   39MOL0     C 5174   0.856   8.806  11.131  0.0718  0.6692 -0.1379
   39MOL0    Cl 5175   0.715   8.874  11.033 -0.0178 -0.3199  0.0676
   39MOL0     C 5176   0.963   9.647  11.471  0.4218 -0.4534 -0.4258
   39MOL0     C 5177   1.000   9.778  11.447  0.2100 -0.2711  0.5560
   39MOL0     O 5178   0.868  10.094  11.525  0.7189 -0.2974 -0.1701
   39MOL0     C 5179   0.956  10.303  11.386 -0.1595 -1.4325 -0.4937
   39MOL0     C 5180   0.995  10.432  11.339  0.2660 -0.0511 -0.1090
   39MOL0     N 5181   1.704  10.997  11.332  0.0292 -0.8067 -0.2491
   39MOL0     N 5182   1.813  11.000  11.263  1.4730  0.1724 -0.1250
   39MOL0     C 5183   2.785  10.936  10.707  0.4327 -0.1156 -0.2591
   39MOL0     C 5184   2.923  10.909  10.695  0.3862  0.0987  0.6741
   39MOL0     C 5185   3.362  10.885  10.638  0.0103  0.6555 -0.2715
   39MOL0     C 5186   3.450  10.777  10.653 -0.1364 -0.3533 -0.1255
   39MOL0     C 5187   3.583  10.787  10.626 -0.5069  0.2187  0.6240
   39MOL0     C 5188   3.637  10.908  10.572  0.3149  0.3518 -0.3681
   39MOL0     O 5189   3.772  10.911  10.561  0.1913 -0.0748 -0.4263
   39MOL0     C 5190   3.837  11.022  10.497  0.6781 -0.8080 -0.4362
   39MOL0     C 5191   3.993  11.004  10.463  0.7313  0.2850 -0.6171
   39MOL0     C 5192   4.057  11.148  10.434  0.1677 -0.3899 -0.3515
   39MOL0     C 5193   4.167  11.153  10.331 -0.5303 -0.2380  1.1034
   39MOL0     C 5194   4.247  11.277  10.332  0.4980 -0.2083 -0.2744
   39MOL0     C 5195   4.296  11.383  10.345  0.4778 -1.5699 -1.3570
   39MOL0     C 5196   3.546  11.017  10.550 -0.2575  0.3849  0.2719
   39MOL0     C 5197   3.415  11.003  10.588 -0.4017  0.4438 -0.1382
   39MOL0     H 5198   3.029  11.233  10.701  0.6026 -1.8231 -1.3939
   39MOL0     H 5199   2.789  11.272  10.739  1.1164 -0.4764  3.5588
   39MOL0     H 5200   2.586  11.034  10.531 -0.6607  1.3886 -0.5722
   39MOL0     H 5201   2.498  10.938  10.650 -0.7618  1.0085  3.2115
   39MOL0     H 5202   2.436  11.221  10.556  1.4038  0.2494  1.2923
   39MOL0     H 5203   2.330  11.078  10.533 -0.3350  1.3699 -1.1082
   39MOL0     H 5204   2.358  11.226  10.795  2.7464  2.3699 -3.6009
   39MOL0     H 5205   2.219  11.215  10.690 -1.4661 -1.8061 -0.2377
   39MOL0     H 5206   2.185  10.984  10.715  0.3372  1.0576 -1.2139
   39MOL0     H 5207   2.335  10.971  10.824 -0.5514 -1.2255 -1.2353
   39MOL0     H 5208   2.153  10.951  10.943  3.9459  0.3520  1.5013
   39MOL0     H 5209   2.220  11.113  10.979  0.0357  1.8305 -0.6608
   39MOL0     H 5210   2.063  11.238  10.856 -1.8663  0.8877  1.2899
   39MOL0     H 5211   1.996  11.089  10.785  0.5708 -3.9256  0.9135
   39MOL0     H 5212   1.975  11.186  11.078  2.9453  0.2655 -2.1032
   39MOL0     H 5213   1.849  11.197  10.967 -0.3357  1.0385  2.1697
   39MOL0     H 5214   1.928  10.904  11.013 -0.4031 -0.2287  1.2779
   39MOL0     H 5215   1.799  10.977  10.929 -1.3784 -1.9917 -0.0250
   39MOL0     H 5216   1.566  10.953  11.043  0.5990  0.2034  0.8609
   39MOL0     H 5217   1.425  11.055  11.369  0.7588  0.6036  0.0623
   39MOL0     H 5218   1.382  10.987  11.209 -2.8589  1.8066  2.2602
   39MOL0     H 5219   1.465  10.824  11.452 -3.4488  0.5576  1.9157
   39MOL0     H 5220   1.466  10.766  11.289 -0.7687  0.5812 -2.1777
   39MOL0     H 5221   1.241  10.818  11.247  0.8544  0.8595 -2.0223
   39MOL0     H 5222   1.216  10.898  11.406  0.4541 -0.3139  1.2407
   39MOL0     H 5223   1.182  10.713  11.526  2.0896  1.0285  1.3734
   39MOL0     H 5224   1.323  10.638  11.447  1.7364  0.1974  0.3621
   39MOL0     H 5225   1.312  10.433  11.475  1.5913  0.3635 -2.4089
   39MOL0     H 5226   1.371  10.257  11.571 -2.5564  4.0984 -2.6947
   39MOL0     H 5227   1.238  10.196  11.682 -0.1654  0.2028  0.0382
   39MOL0     H 5228   1.289  10.098  11.551  0.3731  0.0879 -0.1972
   39MOL0     H 5229   1.028   9.900  11.754 -1.3296 -0.9335  1.0677
   39MOL0     H 5230   0.914   9.673  11.802 -2.4453 -1.2031 -1.4475
   39MOL0     H 5231   0.838   9.287  11.564  1.7501 -0.8591  0.0967
   39MOL0     H 5232   0.857   9.403  11.438 -0.4500 -0.3536 -0.6300
   39MOL0     H 5233   1.121   9.394  11.492 -0.3358  0.9608  0.3185
   39MOL0     H 5234   1.078   9.282  11.628  1.3091  0.8425  0.0258
   39MOL0     H 5235   0.999   9.123  11.478 -0.8035  0.7763  0.7428
   39MOL0     H 5236   1.178   9.151  11.473 -0.6798  1.0453  2.1883
   39MOL0     H 5237   0.975   9.276  11.280  0.0944  1.0217 -0.1916
   39MOL0     H 5238   1.148   9.299  11.271 -1.4609  1.0675  0.2394
   39MOL0     H 5239   1.194   9.059  11.223  0.1105  0.6384 -1.2599
   39MOL0     H 5240   1.106   9.132  11.102  0.7219  2.2220  0.5575
   39MOL0     H 5241   1.009   8.942  11.325 -0.5796 -0.0139 -0.0449
   39MOL0     H 5242   0.886   9.049  11.238 -0.3182  0.2074 -0.9747
   39MOL0     H 5243   1.076   8.830  11.145 -0.2056 -0.3516 -1.3723
   39MOL0     H 5244   0.997   8.938  11.033 -0.9531 -1.0646 -0.4515
   39MOL0     H 5245   0.830   8.801  11.237 -0.4869  0.3960 -0.2839
   39MOL0     H 5246   0.876   8.705  11.095 -3.4757  0.2095 -1.2560
   39MOL0     H 5247   0.942   9.585  11.385 -1.0036 -1.1908  0.4135
   39MOL0     H 5248   1.002   9.807  11.343  2.9703 -1.0850  0.3221
   39MOL0     H 5249   0.857  10.276  11.352 -0.5342 -0.6858 -0.0428
   39MOL0     H 5250   0.934  10.500  11.280 -1.5047 -1.0869  0.4369
   39MOL0     H 5251   2.715  10.857  10.734  2.3934 -1.3157  1.5712
   39MOL0     H 5252   2.951  10.804  10.698  0.6151 -0.0172 -2.6446
   39MOL0     H 5253   3.409  10.692  10.706 -2.3521  1.6360  1.5845
   39MOL0     H 5254   3.642  10.699  10.652  3.4682  2.3890 -0.1218
   39MOL0     H 5255   3.772  11.055  10.415 -1.4838 -0.3512  1.3514
   39MOL0     H 5256   3.822  11.100  10.572 -0.6486  1.7978 -3.1724
   39MOL0     H 5257   4.000  10.942  10.373 -1.0215 -3.9821  1.8909
   39MOL0     H 5258   4.043  10.954  10.546 -0.4343  0.3641  0.1594
   39MOL0     H 5259   4.090  11.194  10.527  3.7421 -1.9111 -0.7005
   39MOL0     H 5260   3.978  11.217  10.402 -2.8259 -2.5830  1.7862
   39MOL0     H 5261   4.119  11.151  10.233  3.5401  5.5833 -1.5985
   39MOL0     H 5262   4.227  11.062  10.337  2.8680  1.8742  2.0854
   39MOL0     H 5263   4.337  11.482  10.353 -0.2997 -1.1421 -2.4579
   39MOL0     H 5264   3.578  11.113  10.511 -0.6848 -0.4992 -2.4666
   39MOL0     H 5265   3.355  11.092  10.574 -0.8929  0.4182  1.6841
   40MOL0     O 5266   8.627   8.515   6.791  0.2993  0.1092  0.1152
   40MOL0     C 5267   8.718   8.443   6.753  0.8389  1.0313  0.3527
   40MOL0     O 5268   8.702   8.319   6.704 -0.6165  0.2062  0.2106
   40MOL0     C 5269   8.574   8.269   6.694  0.9426 -0.5646  0.1496
   40MOL0     C 5270   8.469   8.331   6.625  0.1885  0.2362  0.2559
   40MOL0     C 5271   8.340   8.272   6.612 -0.7300 -0.0802  0.1167
   40MOL0     C 5272   8.318   8.147   6.656 -0.5515  0.3051 -1.0612
   40MOL0     O 5273   8.190   8.092   6.620 -0.3229 -0.9892  0.0212
   40MOL0     C 5274   8.191   7.949   6.603  0.6697 -1.0503  0.0463
   40MOL0     C 5275   8.072   7.899   6.522  0.0327 -0.8128  0.6313
   40MOL0     C 5276   7.945   7.899   6.612 -0.8672 -0.8515 -0.6487
   40MOL0     C 5277   7.823   7.913   6.532  1.0180  0.5553  0.1084
   40MOL0     C 5278   7.699   7.915   6.634 -0.7799  0.0074  0.6077
   40MOL0     C 5279   7.563   7.938   6.556  0.2081 -0.3661  0.0577
   40MOL0     C 5280   7.448   7.943   6.657  1.6187  0.0991  0.0500
   40MOL0     C 5281   7.402   8.070   6.712 -0.3660 -0.5298  0.0135
   40MOL0     N 5282   7.389   8.173   6.604  0.4092  0.0401  0.1275
   40MOL0     C 5283   7.466   8.292   6.587 -1.0981  0.0946  0.6903
   40MOL0     C 5284   7.408   8.351   6.479  0.4893  0.2132  0.8439
   40MOL0     C 5285   7.460   8.465   6.386  0.3274 -0.8824  0.7952
   40MOL0     C 5286   7.464   8.422   6.241 -0.5070 -0.3384 -0.6880
   40MOL0     C 5287   7.599   8.396   6.180 -1.3340  0.5812  0.0336
   40MOL0     C 5288   7.595   8.346   6.038  0.2020  0.1668  0.2362
   40MOL0     O 5289   7.564   8.463   5.961  0.3884 -0.0763  0.5430
   40MOL0     C 5290   7.659   8.514   5.873 -0.1160 -0.1702  0.8369
   40MOL0     C 5291   7.715   8.429   5.773 -0.5379 -0.4077  0.1802
   40MOL0     C 5292   7.825   8.475   5.698 -0.4430  0.5407  0.1800
   40MOL0     C 5293   7.889   8.373   5.605 -0.2652  0.4686 -0.5839
   40MOL0     C 5294   7.865   8.610   5.705  0.8201 -0.1107 -0.7094
   40MOL0     C 5295   7.961   8.675   5.611 -0.2810  0.2374  0.3550
   40MOL0     O 5296   8.054   8.767   5.664  0.1409  0.5395  0.8359
   40MOL0     C 5297   8.167   8.812   5.599  0.2742 -0.2988 -0.8972
   40MOL0     C 5298   8.241   8.743   5.517  0.1825 -0.3835  0.8453
   40MOL0     C 5299   8.353   8.787   5.452 -0.2413  0.1596 -0.6236
   40MOL0     C 5300   8.395   8.917   5.471  0.6662 -0.7569 -0.1426
   40MOL0     O 5301   8.498   8.991   5.410  0.4143 -0.4652 -0.3951
   40MOL0     C 5302   8.613   8.917   5.367  0.1104  0.1069  0.2135
   40MOL0     C 5303   8.587   8.906   5.214 -0.2901  0.5801  0.5710
   40MOL0     C 5304   8.652   8.791   5.149  0.3446  0.5310  0.1942
   40MOL0     C 5305   8.801   8.812   5.147 -0.5407  0.5957 -0.5969
   40MOL0     C 5306   8.882   8.703   5.068  0.6276 -0.9635 -0.0162
   40MOL0     C 5307   8.874   8.708   4.912  1.5202 -0.0789 -0.1938
   40MOL0     C 5308   8.945   8.600   4.841 -0.8049  0.0253  0.2839
   40MOL0     C 5309   8.997   8.632   4.710 -0.0552  0.0660 -0.2917
   40MOL0    Cl 5310   9.040   8.478   4.627  0.1363  0.2970  0.1759
   40MOL0     C 5311   8.319   8.997   5.557 -1.2017  0.0266  0.0958
   40MOL0     C 5312   8.207   8.945   5.623  0.0640  0.6566 -0.3733
   40MOL0     O 5313   7.961   8.632   5.495  0.1907 -0.7796 -0.0520
   40MOL0     C 5314   7.807   8.690   5.809  0.3653  0.8726  0.9288
   40MOL0     C 5315   7.707   8.643   5.887 -0.1118  1.0531  0.7078
   40MOL0     N 5316   7.301   8.271   6.438 -0.4358 -0.2273 -0.0977
   40MOL0     N 5317   7.287   8.175   6.517  0.3791 -0.1747  0.5650
   40MOL0     C 5318   8.426   8.080   6.723  0.7690 -0.2421  0.6777
   40MOL0     C 5319   8.547   8.144   6.749  0.2669  0.0861 -0.3191
   40MOL0     C 5320   8.856   8.478   6.787 -0.3075  0.4050  0.0339
   40MOL0     C 5321   8.960   8.378   6.805  0.7870  0.2584 -0.9022
   40MOL0     C 5322   9.085   8.411   6.842  0.5862 -0.6439  1.0031
   40MOL0     C 5323   9.119   8.550   6.867  0.2691  1.1864  0.0967
   40MOL0     O 5324   9.247   8.587   6.914  0.7597 -0.4597 -0.0330
   40MOL0     C 5325   9.309   8.497   7.010 -0.5062 -0.2069  0.2109
   40MOL0     C 5326   9.424   8.576   7.068 -0.5286  0.0620 -0.3370
   40MOL0     C 5327   9.512   8.663   6.977  0.2931  0.0433  0.1382
   40MOL0     C 5328   9.578   8.577   6.867  0.8365 -0.2023 -0.3738
   40MOL0     C 5329   9.657   8.656   6.767 -0.1709 -0.2056  0.1777
   40MOL0     C 5330   9.719   8.725   6.685  0.9752 -0.8917 -1.5769
   40MOL0     C 5331   9.021   8.645   6.838  0.2784  0.1960  0.2313
   40MOL0     C 5332   8.890   8.612   6.803 -0.5099 -0.0680 -0.3264
   40MOL0     H 5333   8.474   8.434   6.590  0.1242 -0.3764 -1.6662
   40MOL0     H 5334   8.259   8.322   6.561 -0.3118 -0.2023 -0.6853
   40MOL0     H 5335   8.286   7.916   6.559  1.5624  0.5876  0.6509
   40MOL0     H 5336   8.183   7.911   6.705  1.5966 -0.0804  0.4932
   40MOL0     H 5337   8.064   7.965   6.435  1.6366  1.0213  1.7944
   40MOL0     H 5338   8.094   7.797   6.490 -1.2610 -0.6218 -0.9983
   40MOL0     H 5339   7.937   7.801   6.661  2.3080 -1.2939 -0.8180
   40MOL0     H 5340   7.954   7.979   6.687 -0.5367 -2.1926  0.8032
   40MOL0     H 5341   7.821   8.005   6.473 -0.5499 -1.9150 -4.2045
   40MOL0     H 5342   7.811   7.823   6.469 -0.2408  0.7423  0.0697
   40MOL0     H 5343   7.685   7.819   6.685 -0.5210  1.0486  2.7650
   40MOL0     H 5344   7.717   7.981   6.719  2.2626  0.2044 -0.0623
   40MOL0     H 5345   7.561   8.026   6.491 -1.5428  1.5108  2.4887
   40MOL0     H 5346   7.545   7.854   6.488  1.0809  0.9760 -1.9297
   40MOL0     H 5347   7.354   7.903   6.617  0.7357  2.3598 -0.2593
   40MOL0     H 5348   7.464   7.874   6.741 -1.5070  0.1165  0.7846
   40MOL0     H 5349   7.482   8.099   6.782  1.7104 -3.4885 -0.9361
   40MOL0     H 5350   7.301   8.056   6.752 -0.0500 -3.5927  0.0367
   40MOL0     H 5351   7.555   8.322   6.641  1.3592 -1.7768 -2.0497
   40MOL0     H 5352   7.403   8.558   6.396  0.0511 -1.0641  0.9476
   40MOL0     H 5353   7.561   8.486   6.421  1.2186 -2.6276 -0.5426
   40MOL0     H 5354   7.403   8.492   6.183 -1.7184 -0.5565  0.2870
   40MOL0     H 5355   7.420   8.324   6.222  1.8680 -1.3063 -1.6447
   40MOL0     H 5356   7.657   8.320   6.232 -0.8306 -0.9332 -2.5361
   40MOL0     H 5357   7.650   8.493   6.181 -2.9045  1.4931 -1.8610
   40MOL0     H 5358   7.506   8.284   6.022 -1.9812  2.7070  1.5648
   40MOL0     H 5359   7.689   8.310   5.998 -0.9721  0.3281 -2.9498
   40MOL0     H 5360   7.677   8.328   5.767  0.5380 -0.8207  0.1701
   40MOL0     H 5361   7.998   8.371   5.612 -0.3510 -1.5787  1.1928
   40MOL0     H 5362   7.869   8.272   5.641  1.8438  0.7846  1.7904
   40MOL0     H 5363   7.860   8.390   5.501  0.5174  2.9996 -0.4498
   40MOL0     H 5364   8.204   8.643   5.497  1.6513 -0.7787 -0.0207
   40MOL0     H 5365   8.416   8.736   5.380 -0.2117  1.1523 -1.3263
   40MOL0     H 5366   8.709   8.968   5.379  1.6356 -2.1666 -1.4629
   40MOL0     H 5367   8.620   8.825   5.426 -0.3726  0.9733  1.6662
   40MOL0     H 5368   8.481   8.884   5.198 -0.1735  0.1125  0.4318
   40MOL0     H 5369   8.604   9.001   5.162 -1.3437 -0.4282 -1.7488
   40MOL0     H 5370   8.612   8.775   5.048  2.0955 -2.5938 -0.1498
   40MOL0     H 5371   8.631   8.694   5.196 -2.0542 -0.1426 -2.0157
   40MOL0     H 5372   8.824   8.901   5.086  1.4328 -1.5616 -3.2707
   40MOL0     H 5373   8.850   8.829   5.243  1.6369 -2.8956 -0.8988
   40MOL0     H 5374   8.855   8.604   5.105 -1.1957 -1.0977 -1.5478
   40MOL0     H 5375   8.985   8.732   5.093  0.1629  0.0063  0.8482
   40MOL0     H 5376   8.772   8.712   4.874  1.3319  2.1512  0.3838
   40MOL0     H 5377   8.916   8.804   4.881 -0.8167  0.5355 -1.7368
   40MOL0     H 5378   8.884   8.512   4.817  1.5872 -1.7122  0.1781
   40MOL0     H 5379   9.025   8.560   4.904 -0.6083  0.1386  0.1069
   40MOL0     H 5380   9.094   8.684   4.710 -0.0900  0.1597 -1.7411
   40MOL0     H 5381   8.934   8.694   4.646 -1.6323 -0.0075  1.1196
   40MOL0     H 5382   8.344   9.102   5.574 -0.8153 -0.0141 -0.1871
   40MOL0     H 5383   8.159   9.013   5.693  0.8005  1.5862 -0.7598
   40MOL0     H 5384   7.840   8.792   5.828 -1.2837  1.1942  2.2506
   40MOL0     H 5385   7.677   8.703   5.972 -0.6998  1.3780  0.2855
   40MOL0     H 5386   8.424   7.974   6.746 -0.3767 -1.5463 -4.1397
   40MOL0     H 5387   8.635   8.095   6.791  1.7612  1.3945 -1.7562
   40MOL0     H 5388   8.945   8.271   6.801  1.6617  0.0782  0.2439
   40MOL0     H 5389   9.155   8.329   6.847  0.2254 -0.9023  1.8756
   40MOL0     H 5390   9.229   8.467   7.078 -2.4961  0.1316 -1.8805
   40MOL0     H 5391   9.347   8.412   6.953 -2.0642 -1.0705  0.4075
   40MOL0     H 5392   9.481   8.508   7.132 -3.4025  1.8357  4.6347
   40MOL0     H 5393   9.369   8.629   7.146 -0.6752 -2.0570  1.0561
   40MOL0     H 5394   9.586   8.724   7.029  2.8674 -2.1915 -0.6616
   40MOL0     H 5395   9.444   8.722   6.915  0.5125 -0.7882 -0.9258
   40MOL0     H 5396   9.504   8.521   6.809 -0.4171  0.0475  0.9430
   40MOL0     H 5397   9.640   8.498   6.912 -0.5908  0.1022  2.3791
   40MOL0     H 5398   9.783   8.781   6.619  2.2288 -1.1166 -0.5764
   40MOL0     H 5399   9.047   8.750   6.852  0.9889  0.5390 -2.8122
   40MOL0     H 5400   8.815   8.689   6.786 -0.2978 -0.2782 -2.5354
   41MOL0     O 5401   2.889   8.159  10.374  0.2178 -0.6441  0.0230
   41MOL0     C 5402   2.926   8.243  10.452 -0.5443  0.2783 -0.7594
   41MOL0     O 5403   2.850   8.295  10.552 -0.6227  0.1055  0.0265
   41MOL0     C 5404   2.727   8.250  10.568  0.0398  0.4540  0.1779
   41MOL0     C 5405   2.615   8.322  10.533 -0.6647  0.3851  0.2785
   41MOL0     C 5406   2.490   8.269  10.570  0.2427 -0.4208 -0.3936
   41MOL0     C 5407   2.472   8.133  10.621 -0.2626  0.5306 -0.2956
   41MOL0     O 5408   2.350   8.082  10.649 -0.4406  1.1560  0.0402
   41MOL0     C 5409   2.260   8.160  10.719 -0.0117 -0.7214 -0.0060
   41MOL0     C 5410   2.159   8.052  10.766  0.5139 -0.0944 -1.2095
   41MOL0     C 5411   2.029   8.130  10.812  0.1747  0.5999 -0.1721
   41MOL0     C 5412   1.957   8.052  10.926 -0.1847 -0.0990  0.0998
   41MOL0     C 5413   1.815   8.102  10.940  0.3840 -0.1674  0.0640
   41MOL0     C 5414   1.724   8.013  11.036  0.4896  0.5003  0.0701
   41MOL0     C 5415   1.584   8.068  11.033 -0.3606  0.1750 -0.2167
   41MOL0     C 5416   1.510   8.019  10.915 -0.1977 -0.2074 -0.3025
   41MOL0     N 5417   1.365   8.045  10.922 -0.5120 -0.3569  0.8637
   41MOL0     C 5418   1.273   7.965  10.977  0.3858  1.2962  0.2502
   41MOL0     C 5419   1.160   8.027  10.937  0.0905  0.5589 -0.4459
   41MOL0     C 5420   1.032   7.971  10.975 -0.3209 -1.1731 -0.4474
   41MOL0     C 5421   0.998   7.853  10.882  0.1702 -1.0231  1.6707
   41MOL0     C 5422   0.957   7.897  10.742 -0.3765  0.9734  0.5225
   41MOL0     C 5423   0.832   7.977  10.745 -0.2535  0.1337 -0.3295
   41MOL0     O 5424   0.734   7.895  10.808  0.3204 -0.2975  0.1393
   41MOL0     C 5425   0.600   7.937  10.778  0.0644  0.8065  0.3695
   41MOL0     C 5426   0.499   7.849  10.813 -0.4062 -0.2359  0.6707
   41MOL0     C 5427   0.360   7.880  10.802 -1.3653 -0.7902  0.4375
   41MOL0     C 5428   0.258   7.784  10.858  0.0981  0.3464 -0.1225
   41MOL0     C 5429   0.319   8.007  10.751 -0.4690 -0.5260  0.3002
   41MOL0     C 5430   0.181   8.059  10.730  0.7234  0.1331  0.1857
   41MOL0     O 5431   0.075   7.973  10.726  0.3393  0.3859  0.2892
   41MOL0     C 5432  -0.050   8.017  10.695 -0.1426 -0.1463  0.4837
   41MOL0     C 5433  -0.151   7.963  10.773  0.3630  0.8086 -0.9378
   41MOL0     C 5434  -0.285   7.994  10.751  0.1946  0.3865  0.9035
   41MOL0     C 5435  -0.320   8.066  10.643 -0.3746  0.0400 -0.1818
   41MOL0     O 5436  -0.446   8.108  10.618  0.0871 -0.9701 -0.0192
   41MOL0     C 5437  -0.549   8.009  10.603  0.0469 -0.5038  0.1189
   41MOL0     C 5438  -0.676   8.084  10.613  1.3524  0.0773 -0.0350
   41MOL0     C 5439  -0.784   8.000  10.531 -0.2490 -0.9450 -0.2780
   41MOL0     C 5440  -0.928   8.066  10.560  1.0696 -0.1632  0.3281
   41MOL0     C 5441  -1.034   8.031  10.464  0.5777 -0.9034  0.1342
   41MOL0     C 5442  -1.139   8.145  10.463 -0.7723  0.1642  0.6021
   41MOL0     C 5443  -1.225   8.131  10.344  0.8628 -0.0802  0.9453
   41MOL0     C 5444  -1.348   8.226  10.367 -0.3378  0.5152  0.6155
   41MOL0    Cl 5445  -1.449   8.229  10.229  0.2456  0.1516  0.2683
   41MOL0     C 5446  -0.221   8.124  10.559 -0.1664 -0.6586 -0.2097
   41MOL0     C 5447  -0.090   8.101  10.587 -0.2254  0.1813 -0.5625
   41MOL0     O 5448   0.171   8.179  10.718 -0.3418  0.5943 -0.2901
   41MOL0     C 5449   0.423   8.090  10.709 -0.2768  0.5637  1.2268
   41MOL0     C 5450   0.552   8.051  10.724 -0.0420 -0.3010  0.8459
   41MOL0     N 5451   1.170   8.135  10.859  0.1568 -0.0800 -0.2570
   41MOL0     N 5452   1.297   8.148  10.853 -0.6453  0.5792 -0.0014
   41MOL0     C 5453   2.586   8.060  10.646 -0.2375  0.0970 -0.9071
   41MOL0     C 5454   2.717   8.120  10.621  0.2049  0.6167  1.1641
   41MOL0     C 5455   3.071   8.282  10.445 -0.3973 -0.2757  0.0791
   41MOL0     C 5456   3.161   8.221  10.355 -0.1343 -1.2627  0.2720
   41MOL0     C 5457   3.297   8.257  10.355  0.3698 -0.0415 -0.0925
   41MOL0     C 5458   3.355   8.352  10.447 -0.1070 -0.6871  0.2693
   41MOL0     O 5459   3.483   8.377  10.468 -0.3310  0.7553  0.0946
   41MOL0     C 5460   3.569   8.353  10.354  0.0345  0.3192  0.7842
   41MOL0     C 5461   3.696   8.395  10.411  0.0659 -0.0641  0.6346
   41MOL0     C 5462   3.807   8.332  10.320 -0.4830  0.7746  0.2070
   41MOL0     C 5463   3.943   8.372  10.371 -0.0273  0.5827 -0.4240
   41MOL0     C 5464   3.949   8.506  10.437 -0.1656 -0.4211  0.6337
   41MOL0     C 5465   3.954   8.624  10.465  0.5985 -0.1951  1.2843
   41MOL0     C 5466   3.258   8.415  10.532 -0.7336 -0.5925 -0.0386
   41MOL0     C 5467   3.126   8.380  10.530 -1.0207 -0.1296 -0.3373
   41MOL0     H 5468   2.619   8.415  10.476 -2.2312 -1.6397 -3.5174
   41MOL0     H 5469   2.397   8.323  10.562  1.4426  2.4072  2.6261
   41MOL0     H 5470   2.304   8.226  10.794  0.0095  0.9726 -1.4349
   41MOL0     H 5471   2.206   8.225  10.649  0.9083  2.2068  1.8267
   41MOL0     H 5472   2.137   7.974  10.693  0.6037  0.4965 -1.8823
   41MOL0     H 5473   2.201   7.987  10.844  2.1325 -2.9896 -4.2578
   41MOL0     H 5474   2.040   8.231  10.851 -0.6846 -0.2246  2.4001
   41MOL0     H 5475   1.965   8.135  10.723  2.7529 -0.7243 -2.2536
   41MOL0     H 5476   1.950   7.945  10.901 -1.5627  0.4937 -2.3509
   41MOL0     H 5477   2.014   8.064  11.019  1.9427 -2.7654 -0.7088
   41MOL0     H 5478   1.825   8.202  10.984  3.5318 -0.2820 -0.1271
   41MOL0     H 5479   1.771   8.106  10.840  0.0857 -1.2580  0.1455
   41MOL0     H 5480   1.728   7.907  11.008 -2.0489  0.1302  0.8070
   41MOL0     H 5481   1.767   8.020  11.136  1.3150  1.3280 -0.3283
   41MOL0     H 5482   1.527   8.031  11.119  0.8715  3.4503  2.2333
   41MOL0     H 5483   1.588   8.176  11.046  2.2827  0.2481 -1.0904
   41MOL0     H 5484   1.531   7.911  10.914  4.3982  0.4554 -2.7072
   41MOL0     H 5485   1.554   8.067  10.828 -3.6913 -0.0529 -2.1614
   41MOL0     H 5486   1.285   7.876  11.038 -0.0231  1.9919  1.3782
   41MOL0     H 5487   1.032   7.938  11.079 -1.0372 -1.8446 -0.6526
   41MOL0     H 5488   0.955   8.047  10.970 -1.5145 -2.4080 -1.7507
   41MOL0     H 5489   0.926   7.784  10.927 -1.7721 -0.7847 -0.7944
   41MOL0     H 5490   1.087   7.790  10.868  0.3546 -0.7964  1.8245
   41MOL0     H 5491   0.938   7.807  10.684 -1.6440  0.5676  1.5157
   41MOL0     H 5492   1.034   7.952  10.687 -1.1178  0.0626 -1.5421
   41MOL0     H 5493   0.794   8.005  10.646  0.4141  1.4609 -0.2421
   41MOL0     H 5494   0.841   8.069  10.804 -0.8019 -0.6140  0.9425
   41MOL0     H 5495   0.532   7.763  10.871  0.9818 -0.2737 -0.1401
   41MOL0     H 5496   0.198   7.839  10.930 -2.5873 -0.4066 -1.6561
   41MOL0     H 5497   0.196   7.731  10.785 -0.1420  4.5907 -3.4236
   41MOL0     H 5498   0.316   7.713  10.919 -1.0367 -0.5498 -0.0562
   41MOL0     H 5499  -0.134   7.883  10.844  1.1852  0.0433 -1.9518
   41MOL0     H 5500  -0.362   7.951  10.814  0.4134  1.0789  1.6570
   41MOL0     H 5501  -0.530   7.957  10.509 -0.4044  0.5179 -0.5574
   41MOL0     H 5502  -0.546   7.930  10.679 -2.2984 -1.1396 -0.3859
   41MOL0     H 5503  -0.708   8.096  10.717 -2.9924 -0.2650 -1.1581
   41MOL0     H 5504  -0.674   8.182  10.565 -2.7937  2.1419  3.3052
   41MOL0     H 5505  -0.789   7.896  10.567  0.8380 -0.9553 -0.1311
   41MOL0     H 5506  -0.747   8.013  10.430  1.2749  0.6114  0.4413
   41MOL0     H 5507  -0.956   8.038  10.661  1.7480  0.6234  0.7480
   41MOL0     H 5508  -0.913   8.174  10.549 -1.7999  0.5460  2.2502
   41MOL0     H 5509  -1.076   7.931  10.480  1.5179 -1.2731  0.3597
   41MOL0     H 5510  -0.988   8.025  10.365 -1.1452  0.5782 -0.8260
   41MOL0     H 5511  -1.195   8.140  10.556 -1.5944  2.0453  0.2492
   41MOL0     H 5512  -1.099   8.246  10.474 -0.4367  0.3793 -1.8394
   41MOL0     H 5513  -1.269   8.033  10.324  1.0382  0.3518 -1.9862
   41MOL0     H 5514  -1.172   8.159  10.253 -0.7893  0.1312  0.0128
   41MOL0     H 5515  -1.310   8.328  10.384  0.4324  0.2434  0.5688
   41MOL0     H 5516  -1.395   8.187  10.458  1.3294 -3.8483 -0.1524
   41MOL0     H 5517  -0.252   8.190  10.479 -2.0917 -2.2520 -0.8682
   41MOL0     H 5518  -0.015   8.159  10.535 -1.6451  3.1144  0.4404
   41MOL0     H 5519   0.406   8.189  10.669  1.9451  0.6542  0.3767
   41MOL0     H 5520   0.628   8.122  10.692 -0.3905 -1.2533 -2.4182
   41MOL0     H 5521   2.573   7.957  10.680 -4.8876  0.7549  0.0033
   41MOL0     H 5522   2.803   8.058  10.643  1.0883  1.5370  0.4107
   41MOL0     H 5523   3.138   8.146  10.280 -1.0522  0.0510 -0.7997
   41MOL0     H 5524   3.363   8.197  10.293 -0.4555 -0.5308 -0.5166
   41MOL0     H 5525   3.576   8.248  10.325 -0.3752  0.8043 -1.1696
   41MOL0     H 5526   3.545   8.418  10.269 -1.2763 -1.0188  0.0901
   41MOL0     H 5527   3.701   8.365  10.516 -3.3979  0.6363  1.1216
   41MOL0     H 5528   3.693   8.504  10.401 -1.7846 -0.2870 -3.2510
   41MOL0     H 5529   3.793   8.378  10.222  1.7831  2.8899  0.7843
   41MOL0     H 5530   3.806   8.223  10.310  1.0497  0.6715  0.8577
   41MOL0     H 5531   4.015   8.388  10.290  1.4326 -1.9114  0.2968
   41MOL0     H 5532   3.994   8.297  10.431 -1.1944  0.3517  0.3040
   41MOL0     H 5533   3.937   8.717  10.516 -1.0295 -0.6410  1.6297
   41MOL0     H 5534   3.300   8.480  10.608  1.0964 -2.0486  0.2741
   41MOL0     H 5535   3.065   8.432  10.603 -1.3231  0.8062 -1.2413
   42MOL0     O 5536   1.796   5.750   5.669  0.2456 -0.3157  0.4204
   42MOL0     C 5537   1.766   5.725   5.553  0.0959 -0.7390  0.1812
   42MOL0     O 5538   1.677   5.797   5.472 -0.6006 -0.7014  0.3292
   42MOL0     C 5539   1.590   5.888   5.530 -0.1558  0.9674  0.3184
   42MOL0     C 5540   1.637   6.005   5.592 -0.5285  0.3051 -0.3072
   42MOL0     C 5541   1.543   6.086   5.651  0.0078  0.4477 -0.5211
   42MOL0     C 5542   1.408   6.046   5.670 -0.0417 -0.2136  0.7756
   42MOL0     O 5543   1.317   6.123   5.737  0.7850  0.6569 -0.4631
   42MOL0     C 5544   1.337   6.264   5.728 -0.2785  0.9230  0.3177
   42MOL0     C 5545   1.236   6.338   5.816  0.4141 -0.2445  0.0185
   42MOL0     C 5546   1.088   6.315   5.773 -1.0319 -0.3164  0.7288
   42MOL0     C 5547   1.016   6.191   5.841  0.0047 -0.3632 -0.5896
   42MOL0     C 5548   0.873   6.181   5.779 -0.6394  0.4107 -1.1479
   42MOL0     C 5549   0.870   6.058   5.687 -0.0373  0.3397  0.0515
   42MOL0     C 5550   0.750   6.053   5.592 -0.7317 -0.5148  0.8879
   42MOL0     C 5551   0.626   5.981   5.652 -0.0041  0.3992  0.0087
   42MOL0     N 5552   0.546   6.066   5.743 -0.7132 -0.5206 -0.0251
   42MOL0     C 5553   0.459   6.166   5.692 -0.3179 -0.4687 -0.7091
   42MOL0     C 5554   0.392   6.204   5.801  0.1058 -0.6057 -0.5234
   42MOL0     C 5555   0.304   6.322   5.806  0.2041 -0.3714  0.2231
   42MOL0     C 5556   0.156   6.274   5.804  0.0432 -0.7202 -0.2425
   42MOL0     C 5557   0.100   6.216   5.938 -0.4043 -0.4036  0.0204
   42MOL0     C 5558  -0.020   6.139   5.908  0.2935  0.2674 -0.0757
   42MOL0     O 5559  -0.136   6.226   5.893  0.4356  0.0093  0.6848
   42MOL0     C 5560  -0.253   6.190   5.827 -0.7502  0.4355 -1.1631
   42MOL0     C 5561  -0.354   6.286   5.830  0.4981  0.7014  0.4926
   42MOL0     C 5562  -0.473   6.273   5.754 -0.9610  0.2594 -0.3208
   42MOL0     C 5563  -0.574   6.381   5.743 -0.6802 -0.2218  0.1557
   42MOL0     C 5564  -0.482   6.150   5.677 -0.5058 -0.3975 -0.6971
   42MOL0     C 5565  -0.601   6.131   5.603  0.0614  1.1261 -0.2944
   42MOL0     O 5566  -0.723   6.117   5.669 -0.4904 -0.2474  0.4887
   42MOL0     C 5567  -0.845   6.128   5.597  0.1778  0.1471  0.5623
   42MOL0     C 5568  -0.864   6.085   5.460  0.0533  0.0862 -0.1720
   42MOL0     C 5569  -0.988   6.108   5.397 -1.1346  0.4930  0.5633
   42MOL0     C 5570  -1.101   6.159   5.468  0.3789  0.3457 -0.6154
   42MOL0     O 5571  -1.231   6.158   5.412 -0.1275 -0.3772 -0.1385
   42MOL0     C 5572  -1.242   6.246   5.298 -0.4783 -0.3776  0.0896
   42MOL0     C 5573  -1.381   6.323   5.299 -0.1197  0.0519  0.3126
   42MOL0     C 5574  -1.499   6.222   5.301 -0.3827 -0.0223  0.8243
   42MOL0     C 5575  -1.619   6.280   5.223 -0.3843 -0.6926 -0.8725
   42MOL0     C 5576  -1.733   6.182   5.242  0.2473  0.0795 -0.0476
   42MOL0     C 5577  -1.862   6.216   5.154  0.1240  0.2194 -0.8066
   42MOL0     C 5578  -1.920   6.356   5.181  0.1744  0.2381 -0.2523
   42MOL0     C 5579  -2.055   6.372   5.097 -0.5934  0.5070  0.2776
   42MOL0    Cl 5580  -2.003   6.404   4.921  0.1705  0.3073 -0.1488
   42MOL0     C 5581  -1.086   6.197   5.598  0.2177 -0.0687  0.4512
   42MOL0     C 5582  -0.956   6.186   5.659  0.1423  1.0670  0.8571
   42MOL0     O 5583  -0.578   6.111   5.481 -0.4416  0.4817  0.0052
   42MOL0     C 5584  -0.375   6.056   5.671  0.9118 -0.1346 -0.3945
   42MOL0     C 5585  -0.265   6.076   5.757  0.4583  0.2605  0.7431
   42MOL0     N 5586   0.432   6.128   5.911  0.8450 -0.1051  0.0003
   42MOL0     N 5587   0.530   6.051   5.873  0.5523 -0.1945 -0.1983
   42MOL0     C 5588   1.373   5.925   5.616  0.1426 -0.2859  0.6819
   42MOL0     C 5589   1.460   5.847   5.540 -0.5514 -0.1517  0.3752
   42MOL0     C 5590   1.823   5.599   5.496 -0.4006 -0.5702 -0.3739
   42MOL0     C 5591   1.861   5.491   5.581 -0.2587 -0.3993  0.5987
   42MOL0     C 5592   1.914   5.370   5.528  0.8613 -0.2911  0.0554
   42MOL0     C 5593   1.918   5.350   5.388  0.8089 -0.0204 -0.3816
   42MOL0     O 5594   1.940   5.228   5.328  1.1978  0.3093 -0.2285
   42MOL0     C 5595   1.974   5.235   5.190 -1.3285  0.7835 -0.8069
   42MOL0     C 5596   2.048   5.110   5.160 -0.2291  0.2144  0.0465
   42MOL0     C 5597   2.178   5.087   5.236  0.2857 -0.4930 -0.1307
   42MOL0     C 5598   2.239   4.951   5.182  0.1521 -0.8752 -1.1729
   42MOL0     C 5599   2.359   4.912   5.252 -0.2938 -0.0868 -0.2999
   42MOL0     C 5600   2.450   4.872   5.322 -0.8150 -0.4494 -0.3303
   42MOL0     C 5601   1.891   5.472   5.310 -0.0461  1.0317  0.7615
   42MOL0     C 5602   1.847   5.591   5.367 -0.0182 -0.2301  0.9609
   42MOL0     H 5603   1.744   6.026   5.587 -0.6319  0.8307 -0.4149
   42MOL0     H 5604   1.584   6.179   5.689  0.0800  0.5674 -0.8899
   42MOL0     H 5605   1.437   6.297   5.759  1.0680 -0.0286 -2.5979
   42MOL0     H 5606   1.329   6.288   5.621 -2.2611 -0.6535  0.0513
   42MOL0     H 5607   1.258   6.317   5.920 -0.0937  2.1610  0.6912
   42MOL0     H 5608   1.256   6.446   5.809  1.5323 -0.4395  0.0669
   42MOL0     H 5609   1.029   6.403   5.800 -2.0260 -1.1001  1.1542
   42MOL0     H 5610   1.096   6.292   5.666  3.6557 -3.6381  1.4612
   42MOL0     H 5611   1.070   6.097   5.824  0.8744 -0.9299  4.1328
   42MOL0     H 5612   1.006   6.214   5.947  3.3546 -0.0419 -0.2501
   42MOL0     H 5613   0.806   6.169   5.865 -0.8482  1.0338 -1.2233
   42MOL0     H 5614   0.837   6.272   5.731 -1.9200  0.6529  0.1876
   42MOL0     H 5615   0.955   6.057   5.618 -1.4647 -1.6103 -1.8208
   42MOL0     H 5616   0.873   5.962   5.739 -0.9654 -1.2385 -2.6343
   42MOL0     H 5617   0.717   6.152   5.559  1.7687  0.1641  0.2365
   42MOL0     H 5618   0.779   5.995   5.504  2.2697  2.1286 -0.0702
   42MOL0     H 5619   0.661   5.882   5.681 -0.2020  0.0256 -0.9959
   42MOL0     H 5620   0.560   5.949   5.571 -1.2328  1.3724  0.5898
   42MOL0     H 5621   0.437   6.213   5.597  0.5119 -1.7996 -1.5977
   42MOL0     H 5622   0.322   6.378   5.899 -1.7389  1.7779 -0.6114
   42MOL0     H 5623   0.327   6.385   5.720  1.3464 -0.5634  0.3611
   42MOL0     H 5624   0.135   6.207   5.721 -3.1825 -0.6476  0.3827
   42MOL0     H 5625   0.094   6.357   5.770  1.6643  0.0552 -1.4684
   42MOL0     H 5626   0.075   6.291   6.014  1.3300  0.6632 -0.4056
   42MOL0     H 5627   0.163   6.142   5.987 -3.5516 -3.4784 -0.1743
   42MOL0     H 5628  -0.052   6.078   5.994  2.2759 -1.7118 -0.6585
   42MOL0     H 5629  -0.001   6.074   5.822  0.6948  0.0083  0.2080
   42MOL0     H 5630  -0.341   6.360   5.908  0.8871 -0.7069  1.8108
   42MOL0     H 5631  -0.648   6.360   5.821 -0.0971 -2.3006  0.2059
   42MOL0     H 5632  -0.527   6.478   5.764  0.6639 -0.5273 -1.2785
   42MOL0     H 5633  -0.616   6.389   5.643  1.1064  1.9359 -0.5198
   42MOL0     H 5634  -0.789   6.046   5.392  2.1632  0.4166  1.8482
   42MOL0     H 5635  -0.997   6.079   5.293  2.7572 -1.1900  0.5091
   42MOL0     H 5636  -1.158   6.315   5.290 -0.7238 -0.0728  0.1249
   42MOL0     H 5637  -1.233   6.182   5.210 -0.9756  0.0197 -0.2556
   42MOL0     H 5638  -1.393   6.389   5.385 -0.1334  0.1600  0.2278
   42MOL0     H 5639  -1.381   6.384   5.208 -1.4922 -0.1088  0.1749
   42MOL0     H 5640  -1.529   6.194   5.402 -0.5350 -1.6905  0.3501
   42MOL0     H 5641  -1.476   6.126   5.253 -5.3844 -0.6717 -0.8439
   42MOL0     H 5642  -1.640   6.377   5.269  0.6889 -0.2316 -1.3274
   42MOL0     H 5643  -1.583   6.302   5.122  1.2540  1.7298  0.1410
   42MOL0     H 5644  -1.754   6.178   5.349 -1.9305 -0.2781 -0.4266
   42MOL0     H 5645  -1.695   6.081   5.226  0.2100 -0.2916  1.9536
   42MOL0     H 5646  -1.851   6.200   5.046 -0.9632  1.4151 -1.1226
   42MOL0     H 5647  -1.937   6.146   5.191  0.7725 -0.6306 -1.0711
   42MOL0     H 5648  -1.850   6.437   5.159 -0.1757  0.8915  0.9607
   42MOL0     H 5649  -1.949   6.365   5.286 -0.2626  2.2666 -0.5051
   42MOL0     H 5650  -2.103   6.461   5.140 -1.0622  0.7890 -0.8005
   42MOL0     H 5651  -2.109   6.278   5.107 -0.5644  0.3130 -1.2592
   42MOL0     H 5652  -1.172   6.233   5.653  0.6277 -1.7428  2.3267
   42MOL0     H 5653  -0.941   6.212   5.763  1.8544  0.3469  0.8151
   42MOL0     H 5654  -0.386   5.963   5.616 -0.2586 -1.1147  1.4108
   42MOL0     H 5655  -0.187   6.001   5.753 -0.9450 -1.3182  1.3719
   42MOL0     H 5656   1.269   5.893   5.626 -0.8060  1.9429 -1.0905
   42MOL0     H 5657   1.432   5.754   5.492  3.5098 -1.8813  0.9304
   42MOL0     H 5658   1.851   5.496   5.689 -1.5230 -2.5838  0.6250
   42MOL0     H 5659   1.929   5.280   5.587 -0.6340 -1.1999 -0.8758
   42MOL0     H 5660   1.891   5.238   5.119 -1.3014  0.3640 -0.8540
   42MOL0     H 5661   2.035   5.325   5.173 -2.2087  1.3237 -1.1748
   42MOL0     H 5662   2.078   5.100   5.055 -1.7302  1.8494 -0.6067
   42MOL0     H 5663   1.978   5.029   5.183  0.0996  0.1802  0.9657
   42MOL0     H 5664   2.169   5.093   5.345  0.6919 -1.8592  0.0021
   42MOL0     H 5665   2.255   5.161   5.214 -2.6713  2.3840 -1.5674
   42MOL0     H 5666   2.273   4.956   5.078  0.8154 -2.2527 -1.0473
   42MOL0     H 5667   2.159   4.876   5.186 -0.8537  0.2069  1.2100
   42MOL0     H 5668   2.540   4.849   5.375  1.6043  0.7985 -3.5971
   42MOL0     H 5669   1.893   5.477   5.201 -1.6959  1.0766  0.7098
   42MOL0     H 5670   1.841   5.676   5.300 -1.3309  1.0541  2.6156
   43MOL0     O 5671   0.987   0.628  10.955  0.3082  0.7016  0.5105
   43MOL0     C 5672   0.993   0.687  11.057  1.2720 -0.3698  0.1106
   43MOL0     O 5673   0.892   0.711  11.144  0.6898 -0.5717 -0.3971
   43MOL0     C 5674   0.765   0.656  11.136 -0.0952  0.6948  0.0697
   43MOL0     C 5675   0.699   0.596  11.027  0.2537 -0.4790  0.7791
   43MOL0     C 5676   0.568   0.545  11.046  0.2760  0.8146  0.5066
   43MOL0     C 5677   0.496   0.558  11.163  0.0549  0.2000  0.3309
   43MOL0     O 5678   0.370   0.507  11.188 -0.5994 -0.3209 -0.7254
   43MOL0     C 5679   0.273   0.556  11.096 -0.2025  0.1205 -0.2146
   43MOL0     C 5680   0.186   0.433  11.043 -0.4196  0.2145  0.4433
   43MOL0     C 5681   0.094   0.381  11.162 -1.0028  0.1608  0.1800
   43MOL0     C 5682  -0.006   0.269  11.123  0.2040  0.9467  0.5035
   43MOL0     C 5683  -0.091   0.227  11.232  0.1691 -0.9099  0.2920
   43MOL0     C 5684  -0.166   0.342  11.316  0.2598  0.3189  0.8833
   43MOL0     C 5685  -0.313   0.296  11.362 -0.7072  0.5167 -0.4836
   43MOL0     C 5686  -0.405   0.268  11.247  0.4668 -0.4595 -0.0091
   43MOL0     N 5687  -0.534   0.220  11.285 -0.1782  0.7651  0.5046
   43MOL0     C 5688  -0.579   0.088  11.245 -0.2104  0.9191 -0.5763
   43MOL0     C 5689  -0.711   0.088  11.302  0.0165 -0.5260 -0.2192
   43MOL0     C 5690  -0.809  -0.026  11.269  0.6789  0.2139 -0.6608
   43MOL0     C 5691  -0.912  -0.048  11.370  0.7048 -0.3961  0.0301
   43MOL0     C 5692  -1.027  -0.129  11.309 -0.5837 -0.2267 -0.4815
   43MOL0     C 5693  -1.127  -0.166  11.414 -0.0519  0.1799 -1.0771
   43MOL0     O 5694  -1.244  -0.233  11.366 -0.6826 -0.2168 -0.4450
   43MOL0     C 5695  -1.372  -0.177  11.366 -0.1913  0.0736 -0.7512
   43MOL0     C 5696  -1.415  -0.088  11.457 -1.4055 -0.4456  0.3978
   43MOL0     C 5697  -1.546  -0.033  11.458  0.4021  0.1077  0.1226
   43MOL0     C 5698  -1.577   0.043  11.579 -0.1110 -0.1394 -0.7221
   43MOL0     C 5699  -1.638  -0.064  11.350 -0.8172 -0.1360  0.4243
   43MOL0     C 5700  -1.775  -0.003  11.336  0.4070 -0.0770  0.1851
   43MOL0     O 5701  -1.869  -0.089  11.267 -0.3825  0.3150 -0.2570
   43MOL0     C 5702  -1.996  -0.044  11.239 -0.5265  0.4931 -0.1063
   43MOL0     C 5703  -2.107  -0.124  11.250 -0.2876 -0.1192 -0.5305
   43MOL0     C 5704  -2.238  -0.080  11.225 -0.0182 -0.7903 -0.0581
   43MOL0     C 5705  -2.254   0.052  11.182  0.9143  0.4117 -0.1401
   43MOL0     O 5706  -2.382   0.088  11.140 -0.9350  0.7715 -0.6749
   43MOL0     C 5707  -2.431   0.216  11.162 -0.4014 -0.8120 -0.4825
   43MOL0     C 5708  -2.582   0.213  11.162  0.4511 -0.1710 -1.2229
   43MOL0     C 5709  -2.633   0.349  11.191 -0.3305 -0.3778  0.2476
   43MOL0     C 5710  -2.779   0.353  11.196  0.6396 -1.0294 -0.3448
   43MOL0     C 5711  -2.829   0.355  11.054  0.8810 -0.0324 -0.1803
   43MOL0     C 5712  -2.901   0.489  11.032  0.6516  0.4579 -0.4725
   43MOL0     C 5713  -2.809   0.595  10.986  0.5409 -0.6278  0.0221
   43MOL0     C 5714  -2.845   0.726  11.041  0.8121  0.0393 -0.6329
   43MOL0    Cl 5715  -3.014   0.780  11.008  0.2260  0.2707 -0.2894
   43MOL0     C 5716  -2.153   0.140  11.165  0.1759 -0.0666  0.4318
   43MOL0     C 5717  -2.022   0.086  11.192  0.6641 -0.5862  0.4905
   43MOL0     O 5718  -1.799   0.117  11.363 -0.2261  0.0933  0.2609
   43MOL0     C 5719  -1.584  -0.145  11.246 -0.4693 -0.6681  0.0814
   43MOL0     C 5720  -1.452  -0.209  11.261  0.4165 -0.6838 -0.5965
   43MOL0     N 5721  -0.729   0.205  11.374 -0.5754 -0.2897  0.1838
   43MOL0     N 5722  -0.626   0.284  11.360 -0.1888 -0.2841 -0.1148
   43MOL0     C 5723   0.560   0.636  11.262 -0.6847  0.3401  0.4427
   43MOL0     C 5724   0.689   0.681  11.245 -0.3533 -0.4436  0.0502
   43MOL0     C 5725   1.124   0.713  11.114 -0.2830 -0.1008  0.0910
   43MOL0     C 5726   1.241   0.706  11.029  0.2257 -0.2017 -0.3498
   43MOL0     C 5727   1.364   0.726  11.084 -0.7401 -0.2377 -0.2220
   43MOL0     C 5728   1.375   0.758  11.220 -0.4991  0.6455 -0.1068
   43MOL0     O 5729   1.493   0.793  11.281 -0.7662 -0.4495 -0.3785
   43MOL0     C 5730   1.561   0.904  11.227  0.1107 -0.7008  0.2031
   43MOL0     C 5731   1.711   0.881  11.194 -0.0570  0.7010  0.7989
   43MOL0     C 5732   1.721   0.763  11.103  0.1278  0.1371 -0.0642
   43MOL0     C 5733   1.867   0.731  11.088 -0.4483  0.1702  1.1196
   43MOL0     C 5734   1.913   0.638  10.984  0.7209  0.1954  0.5701
   43MOL0     C 5735   1.948   0.569  10.892 -0.0665 -0.0893 -0.0012
   43MOL0     C 5736   1.263   0.778  11.296 -1.2427  0.2707 -0.0526
   43MOL0     C 5737   1.144   0.757  11.246  0.4057  0.2252 -0.6581
   43MOL0     H 5738   0.756   0.569  10.939 -0.8284 -1.4830  0.3488
   43MOL0     H 5739   0.521   0.500  10.959  0.5056 -0.9482  1.2476
   43MOL0     H 5740   0.193   0.621  11.134  1.7772  1.6876  1.4859
   43MOL0     H 5741   0.315   0.609  11.011  0.3928  0.2484  0.1587
   43MOL0     H 5742   0.120   0.463  10.961 -1.5740  0.7071  1.5014
   43MOL0     H 5743   0.262   0.361  11.012  1.6076  2.8083 -0.9769
   43MOL0     H 5744   0.159   0.343  11.241  0.0083  0.6198 -0.4056
   43MOL0     H 5745   0.043   0.467  11.207 -1.0132  0.2141  0.0656
   43MOL0     H 5746  -0.074   0.308  11.047 -0.8783  1.7995  1.8506
   43MOL0     H 5747   0.046   0.181  11.086 -2.0294  0.8071 -2.7096
   43MOL0     H 5748  -0.156   0.146  11.198 -2.5452  1.2289  0.0638
   43MOL0     H 5749  -0.030   0.178  11.309 -0.3997 -0.3408  1.1157
   43MOL0     H 5750  -0.113   0.377  11.404  1.1347  1.9007 -0.2339
   43MOL0     H 5751  -0.184   0.434  11.260 -4.7469 -0.5160  0.5948
   43MOL0     H 5752  -0.300   0.198  11.410  0.2141  0.6758 -0.3766
   43MOL0     H 5753  -0.358   0.373  11.425  2.6237  2.6238 -0.4178
   43MOL0     H 5754  -0.355   0.186  11.194 -2.7977 -2.6913  0.0726
   43MOL0     H 5755  -0.406   0.359  11.187  1.3186 -2.0943 -2.6875
   43MOL0     H 5756  -0.519   0.011  11.198 -0.3666  0.1642  0.4334
   43MOL0     H 5757  -0.856  -0.002  11.173 -0.4025 -2.7319 -0.9610
   43MOL0     H 5758  -0.750  -0.116  11.246  0.3636 -0.2374  0.2663
   43MOL0     H 5759  -0.941   0.052  11.405  1.9677 -1.0649  3.4407
   43MOL0     H 5760  -0.859  -0.103  11.448 -0.2180 -0.0214  0.9485
   43MOL0     H 5761  -0.995  -0.222  11.260 -1.4046 -0.1924 -1.0949
   43MOL0     H 5762  -1.078  -0.082  11.225 -1.7145 -1.8350 -0.7510
   43MOL0     H 5763  -1.146  -0.072  11.467 -1.8506  0.1590 -1.6087
   43MOL0     H 5764  -1.079  -0.242  11.477  0.9953 -0.5277 -2.6662
   43MOL0     H 5765  -1.349  -0.061  11.540 -3.2903  0.1277  1.7879
   43MOL0     H 5766  -1.509   0.126  11.599  1.3512 -1.2314 -1.0099
   43MOL0     H 5767  -1.681   0.079  11.581 -0.7056 -1.5707 -2.7002
   43MOL0     H 5768  -1.577  -0.026  11.664 -0.7456  0.4679 -0.2207
   43MOL0     H 5769  -2.091  -0.226  11.284 -0.4920  0.3465  1.0590
   43MOL0     H 5770  -2.326  -0.144  11.233 -0.9193 -0.0827 -3.0911
   43MOL0     H 5771  -2.401   0.260  11.257 -3.4533  0.9186 -0.2320
   43MOL0     H 5772  -2.393   0.290  11.091  0.1431  1.9004  2.4263
   43MOL0     H 5773  -2.609   0.182  11.061  0.5728 -1.6508 -0.8098
   43MOL0     H 5774  -2.624   0.138  11.230 -1.4494  1.9239  0.0803
   43MOL0     H 5775  -2.589   0.425  11.126  0.1370 -0.7440  0.1252
   43MOL0     H 5776  -2.593   0.361  11.292 -0.7442 -1.6767  0.5898
   43MOL0     H 5777  -2.815   0.264  11.249 -1.2682  1.3112  2.5571
   43MOL0     H 5778  -2.806   0.441  11.254 -0.8143 -0.4956 -1.7661
   43MOL0     H 5779  -2.902   0.277  11.034 -0.2353  0.9908 -0.2611
   43MOL0     H 5780  -2.750   0.355  10.979 -0.1494  1.5769 -1.3374
   43MOL0     H 5781  -2.977   0.480  10.954  0.4458 -2.2414 -0.0469
   43MOL0     H 5782  -2.955   0.519  11.122  0.4014  1.3484 -0.9121
   43MOL0     H 5783  -2.799   0.585  10.877  0.0936 -1.7836  0.0770
   43MOL0     H 5784  -2.708   0.571  11.020  0.0270 -1.1108  1.2608
   43MOL0     H 5785  -2.780   0.794  10.986 -1.1808 -0.1787 -3.4926
   43MOL0     H 5786  -2.834   0.727  11.150 -0.4129  0.9889 -0.4999
   43MOL0     H 5787  -2.163   0.238  11.121 -0.9228 -0.4913 -0.3236
   43MOL0     H 5788  -1.943   0.157  11.169 -1.3235  1.3710 -0.7586
   43MOL0     H 5789  -1.645  -0.186  11.166  1.4447 -2.2887 -0.6314
   43MOL0     H 5790  -1.414  -0.279  11.187  1.2328 -2.0426  1.0289
   43MOL0     H 5791   0.507   0.653  11.356  1.3967  0.1225  1.7193
   43MOL0     H 5792   0.741   0.739  11.320 -0.3576 -2.3767  1.6122
   43MOL0     H 5793   1.236   0.681  10.924 -0.0328  1.8681 -0.8639
   43MOL0     H 5794   1.459   0.714  11.032 -0.2525 -2.0393  0.9771
   43MOL0     H 5795   1.515   0.943  11.136  2.0304 -2.9688 -1.8774
   43MOL0     H 5796   1.559   0.986  11.300  0.2637 -0.7411  0.2526
   43MOL0     H 5797   1.772   0.862  11.282  1.9773 -1.2385 -0.8931
   43MOL0     H 5798   1.763   0.968  11.153  3.4853 -0.0757  3.1468
   43MOL0     H 5799   1.662   0.765  11.011 -0.3873  0.7738  0.2693
   43MOL0     H 5800   1.683   0.683  11.167  0.3860 -2.4746 -2.9176
   43MOL0     H 5801   1.903   0.686  11.181 -2.1821  0.0403  1.7534
   43MOL0     H 5802   1.924   0.823  11.072  2.5202 -1.6127  0.7774
   43MOL0     H 5803   1.978   0.509  10.809 -0.6026 -0.4727  0.0830
   43MOL0     H 5804   1.274   0.812  11.398  0.8586  0.7563 -0.3881
   43MOL0     H 5805   1.053   0.777  11.302 -0.4290  0.6560 -2.1078
   44MOL0     O 5806   2.017  10.094   1.033  0.1584  0.4272  0.1312
   44MOL0     C 5807   1.974  10.190   0.966 -0.0120 -0.1499 -1.7434
   44MOL0     O 5808   2.049  10.259   0.885 -0.7705 -0.2808  0.5300
   44MOL0     C 5809   2.180  10.232   0.864 -0.8786 -0.2956  0.3810
   44MOL0     C 5810   2.229  10.109   0.825 -0.6176 -0.8073  0.3964
   44MOL0     C 5811   2.371  10.081   0.825  0.6515  0.0958 -0.3203
   44MOL0     C 5812   2.463  10.187   0.848  0.4136  0.7617  0.5039
   44MOL0     O 5813   2.598  10.180   0.837  0.0737 -0.5969 -0.1218
   44MOL0     C 5814   2.666  10.054   0.813 -0.8245  0.4164  0.7137
   44MOL0     C 5815   2.816  10.082   0.815 -1.3453  0.5688  0.2840
   44MOL0     C 5816   2.855  10.163   0.938 -0.0062  0.2873 -0.7398
   44MOL0     C 5817   3.011  10.187   0.946  0.4316 -0.3461 -0.3638
   44MOL0     C 5818   3.050  10.210   1.097  0.6277  0.2349  0.8318
   44MOL0     C 5819   3.203  10.221   1.105 -0.1321  0.4399  0.1225
   44MOL0     C 5820   3.254  10.358   1.061 -0.3775 -0.1608 -0.5357
   44MOL0     C 5821   3.207  10.483   1.141 -0.0729 -0.3264 -0.7643
   44MOL0     N 5822   3.251  10.601   1.079  0.1231 -0.5258 -0.5192
   44MOL0     C 5823   3.386  10.636   1.053 -0.3225 -0.3071 -0.1683
   44MOL0     C 5824   3.373  10.746   0.969  0.3076  0.4536 -0.7428
   44MOL0     C 5825   3.490  10.831   0.910  0.3253  1.1806 -0.6451
   44MOL0     C 5826   3.500  10.807   0.755 -0.2930  0.2135  0.1227
   44MOL0     C 5827   3.406  10.897   0.676  0.0576 -1.1700  0.1162
   44MOL0     C 5828   3.431  10.910   0.522  0.1363 -0.4759 -0.7491
   44MOL0     O 5829   3.555  10.984   0.492  0.6436  0.2361  0.4191
   44MOL0     C 5830   3.680  10.919   0.475 -0.1629  0.0481  1.0654
   44MOL0     C 5831   3.802  10.995   0.456  0.1000 -0.1769  0.1908
   44MOL0     C 5832   3.928  10.936   0.458  0.1344  0.0509  0.6056
   44MOL0     C 5833   4.045  11.038   0.471 -0.0150 -0.5533  0.3415
   44MOL0     C 5834   3.937  10.795   0.457 -0.2351 -0.8237 -0.4102
   44MOL0     C 5835   4.060  10.715   0.458 -0.0580  0.6040  1.0255
   44MOL0     O 5836   4.168  10.785   0.406  0.7891  0.7064  0.1422
   44MOL0     C 5837   4.279  10.721   0.352  1.0680  0.0033 -0.7706
   44MOL0     C 5838   4.280  10.608   0.271  0.5899 -0.4316  0.1335
   44MOL0     C 5839   4.404  10.553   0.245  0.0964  0.0813  0.3270
   44MOL0     C 5840   4.522  10.607   0.293 -0.3422  0.1912 -1.0505
   44MOL0     O 5841   4.640  10.537   0.273  0.1720 -0.2870 -1.0320
   44MOL0     C 5842   4.768  10.606   0.259 -0.4447  0.8407 -0.9561
   44MOL0     C 5843   4.889  10.519   0.217 -0.1956 -0.7281  0.1416
   44MOL0     C 5844   4.879  10.470   0.069 -0.6479 -0.4165  0.6740
   44MOL0     C 5845   4.951  10.571  -0.015  0.7701  0.1180 -0.3166
   44MOL0     C 5846   4.950  10.535  -0.162  0.5215  0.3719 -1.0329
   44MOL0     C 5847   4.808  10.561  -0.226  0.4229 -0.2119 -0.3220
   44MOL0     C 5848   4.779  10.468  -0.348  0.9345  0.3580 -0.8017
   44MOL0     C 5849   4.727  10.341  -0.284 -0.4310 -0.4114  0.6646
   44MOL0    Cl 5850   4.641  10.247  -0.412  0.5308 -0.3584 -0.0953
   44MOL0     C 5851   4.516  10.729   0.364 -1.4816  0.9091  0.6223
   44MOL0     C 5852   4.396  10.784   0.392 -0.1954  0.2115  0.2735
   44MOL0     O 5853   4.062  10.597   0.493 -0.1106  0.0240 -0.3001
   44MOL0     C 5854   3.821  10.716   0.456 -0.1316  0.3995 -1.5375
   44MOL0     C 5855   3.700  10.777   0.474 -0.0913 -0.6731  0.0737
   44MOL0     N 5856   3.234  10.783   0.971 -0.1844  0.2254  0.1317
   44MOL0     N 5857   3.165  10.694   1.033 -0.0882 -0.5636  0.1008
   44MOL0     C 5858   2.417  10.312   0.881  1.0460 -0.1908 -0.4417
   44MOL0     C 5859   2.274  10.336   0.891 -0.5481 -0.2532 -0.3262
   44MOL0     C 5860   1.831  10.230   0.975 -0.1700  0.3868  0.2935
   44MOL0     C 5861   1.749  10.161   1.067  0.5676 -0.1905  0.2575
   44MOL0     C 5862   1.609  10.194   1.066  0.3479  0.6265  1.0284
   44MOL0     C 5863   1.561  10.276   0.962 -0.1048  0.6783  0.0787
   44MOL0     O 5864   1.424  10.311   0.963 -0.8999  0.1264 -0.0415
   44MOL0     C 5865   1.334  10.230   1.031 -0.2714 -0.5892  0.3270
   44MOL0     C 5866   1.186  10.281   1.011 -0.3795  0.3649  0.0988
   44MOL0     C 5867   1.099  10.260   1.138 -0.9891 -0.2330 -0.6279
   44MOL0     C 5868   1.034  10.119   1.149 -0.1129 -0.0179 -0.5838
   44MOL0     C 5869   0.938  10.095   1.050  1.3841  0.6841 -0.2545
   44MOL0     C 5870   0.847  10.076   0.962  0.3173  0.5670 -0.3209
   44MOL0     C 5871   1.640  10.335   0.868  0.0496  0.5950  0.8409
   44MOL0     C 5872   1.779  10.313   0.874 -0.8881  0.6616 -0.6568
   44MOL0     H 5873   2.162  10.027   0.802 -3.2439  1.4461 -0.5656
   44MOL0     H 5874   2.392   9.978   0.795 -2.0884 -1.3001  2.0187
   44MOL0     H 5875   2.648   9.979   0.891 -2.5045  1.0719  1.0074
   44MOL0     H 5876   2.641  10.012   0.716  0.1260  3.4155 -0.9522
   44MOL0     H 5877   2.867   9.985   0.814  1.0071  1.7250 -0.4027
   44MOL0     H 5878   2.845  10.134   0.723  1.1398 -2.5795 -0.8987
   44MOL0     H 5879   2.798  10.255   0.950 -2.0590 -0.9336 -0.6946
   44MOL0     H 5880   2.821  10.109   1.027  1.6304 -0.1452 -0.3349
   44MOL0     H 5881   3.065  10.103   0.903 -0.7160 -0.4313 -1.7279
   44MOL0     H 5882   3.040  10.274   0.885 -1.0873  1.3239  1.1519
   44MOL0     H 5883   3.006  10.298   1.146  0.5802 -0.9172  3.0042
   44MOL0     H 5884   3.022  10.122   1.156 -1.8720  0.5263  0.1887
   44MOL0     H 5885   3.234  10.209   1.209  1.7089 -1.2184 -0.5440
   44MOL0     H 5886   3.243  10.137   1.047 -1.6167 -0.4273  0.2975
   44MOL0     H 5887   3.363  10.348   1.069 -0.1709 -0.4404 -3.0061
   44MOL0     H 5888   3.240  10.381   0.956 -0.1673  1.2258 -0.2747
   44MOL0     H 5889   3.244  10.486   1.243  1.6619  1.8650 -1.3899
   44MOL0     H 5890   3.098  10.481   1.150  0.0861  0.6887  3.0424
   44MOL0     H 5891   3.480  10.588   1.078  0.5585  2.0986  1.5070
   44MOL0     H 5892   3.476  10.938   0.930  1.2198  0.9242  1.6677
   44MOL0     H 5893   3.580  10.789   0.956 -0.2081  0.7957  0.0831
   44MOL0     H 5894   3.470  10.707   0.722 -4.9445  1.6043 -0.5988
   44MOL0     H 5895   3.603  10.823   0.724  0.3854 -2.5024  0.7025
   44MOL0     H 5896   3.422  11.000   0.708 -0.5832 -0.8177 -0.6449
   44MOL0     H 5897   3.300  10.879   0.699 -0.0868 -2.6137 -1.4835
   44MOL0     H 5898   3.336  10.952   0.486 -1.4031 -1.2950  2.0680
   44MOL0     H 5899   3.438  10.811   0.475  1.4165 -0.3704 -0.8093
   44MOL0     H 5900   3.786  11.100   0.480  0.6726 -0.2870  1.1072
   44MOL0     H 5901   4.009  11.137   0.503  0.6715  0.3292 -1.4982
   44MOL0     H 5902   4.116  10.990   0.539  2.1337  0.3160 -1.1666
   44MOL0     H 5903   4.085  11.052   0.370 -1.3003  2.3719  0.1137
   44MOL0     H 5904   4.192  10.558   0.231  0.3029 -0.8227  1.2368
   44MOL0     H 5905   4.407  10.465   0.181  0.0990 -0.2241  0.7456
   44MOL0     H 5906   4.754  10.695   0.197 -1.6102  1.1097 -0.3427
   44MOL0     H 5907   4.798  10.653   0.353 -0.2105 -0.9871 -0.0714
   44MOL0     H 5908   4.982  10.576   0.226  1.1857 -2.8865  0.2560
   44MOL0     H 5909   4.902  10.440   0.291 -1.7965  0.8239  2.2009
   44MOL0     H 5910   4.780  10.450   0.027  0.3477 -1.9229 -1.0895
   44MOL0     H 5911   4.936  10.378   0.056  0.5139  0.4486 -0.7387
   44MOL0     H 5912   4.893  10.663  -0.003  0.6868  0.9775 -5.4077
   44MOL0     H 5913   5.053  10.569   0.024  0.5808  0.7479  0.2273
   44MOL0     H 5914   4.976  10.429  -0.169  1.6518  0.6111 -0.6927
   44MOL0     H 5915   5.027  10.588  -0.218  0.2837  2.0772  0.1775
   44MOL0     H 5916   4.734  10.543  -0.148 -1.0653 -0.6697 -1.7644
   44MOL0     H 5917   4.804  10.666  -0.254  0.8813 -0.1179 -0.0392
   44MOL0     H 5918   4.864  10.454  -0.415  1.1254  1.5843 -0.8306
   44MOL0     H 5919   4.697  10.504  -0.411  1.8668  0.7839 -1.8076
   44MOL0     H 5920   4.647  10.361  -0.212 -1.9442  2.1861 -1.5214
   44MOL0     H 5921   4.811  10.290  -0.238 -0.5857 -0.7988  0.5209
   44MOL0     H 5922   4.607  10.775   0.402 -1.9524  1.6299  0.9049
   44MOL0     H 5923   4.387  10.874   0.452 -0.2002  0.4512 -0.0803
   44MOL0     H 5924   3.820  10.608   0.450  1.5440  0.3104 -0.7800
   44MOL0     H 5925   3.613  10.713   0.487 -0.5437  0.4150  3.2600
   44MOL0     H 5926   2.487  10.394   0.894  1.9202 -0.7969 -1.1971
   44MOL0     H 5927   2.237  10.434   0.923  0.9295 -0.4437  2.2499
   44MOL0     H 5928   1.791  10.090   1.138 -1.3370 -0.1401  1.4938
   44MOL0     H 5929   1.539  10.160   1.141  0.0286  0.4540  0.6598
   44MOL0     H 5930   1.351  10.128   0.994  2.6245  0.1157 -0.5297
   44MOL0     H 5931   1.350  10.234   1.139 -3.2499  0.3486  0.8240
   44MOL0     H 5932   1.143  10.225   0.927 -0.6789 -0.4671  0.7955
   44MOL0     H 5933   1.187  10.388   0.993 -3.4540  0.4911  0.0858
   44MOL0     H 5934   1.016  10.331   1.141  0.4321  1.6161 -2.3541
   44MOL0     H 5935   1.171  10.266   1.221  0.7905  0.3493 -2.1479
   44MOL0     H 5936   0.974  10.131   1.239 -1.5458  2.5365 -1.7772
   44MOL0     H 5937   1.102  10.038   1.177 -0.8692 -1.9814 -3.7808
   44MOL0     H 5938   0.773  10.047   0.890  0.9325 -2.0134 -0.0347
   44MOL0     H 5939   1.606  10.399   0.788 -4.8724 -1.7705  0.6497
   44MOL0     H 5940   1.853  10.362   0.813  1.2605 -1.6856 -0.0996
   45MOL0     O 5941   6.739   4.196   6.900  0.0020 -0.6692 -0.5628
   45MOL0     C 5942   6.810   4.196   7.006  0.1070 -0.0114 -0.6228
   45MOL0     O 5943   6.757   4.202   7.128 -0.1587  0.0016 -0.0761
   45MOL0     C 5944   6.622   4.206   7.141  0.0551  0.3533  0.3577
   45MOL0     C 5945   6.554   4.089   7.127  0.5306 -0.3828  0.3802
   45MOL0     C 5946   6.418   4.089   7.137 -1.4114  0.6693 -0.0238
   45MOL0     C 5947   6.349   4.206   7.164  0.0510  0.1824  0.5633
   45MOL0     O 5948   6.212   4.185   7.172 -0.3827 -0.8778  0.4359
   45MOL0     C 5949   6.132   4.286   7.107 -0.7604 -0.0846  0.0884
   45MOL0     C 5950   5.984   4.251   7.086 -0.0168 -1.0334  0.5898
   45MOL0     C 5951   5.911   4.359   6.989  0.1539 -0.1958  0.1575
   45MOL0     C 5952   5.758   4.331   6.994 -0.1986  0.1586 -0.3862
   45MOL0     C 5953   5.671   4.431   6.921 -0.0032 -0.3314  0.3906
   45MOL0     C 5954   5.523   4.411   6.937 -0.2691 -0.8692 -0.4186
   45MOL0     C 5955   5.463   4.318   6.831  0.1047 -0.0277  0.1062
   45MOL0     C 5956   5.319   4.270   6.859  0.3561 -0.6329  0.4419
   45MOL0     N 5957   5.212   4.372   6.857  0.6875  0.1251  0.1731
   45MOL0     C 5958   5.120   4.386   6.959 -0.2978  0.1183  0.4191
   45MOL0     C 5959   5.033   4.482   6.915  0.4850 -0.6976  0.4210
   45MOL0     C 5960   4.910   4.538   6.989 -0.7078  0.1905  0.5867
   45MOL0     C 5961   4.769   4.504   6.924  1.1334  0.9574  0.7448
   45MOL0     C 5962   4.749   4.343   6.928 -0.1671 -0.1008  0.8045
   45MOL0     C 5963   4.630   4.289   6.845 -0.5121 -0.3377 -0.9470
   45MOL0     O 5964   4.500   4.338   6.885 -0.4188  0.0827 -0.1598
   45MOL0     C 5965   4.391   4.307   6.807 -0.7129  0.7682  0.2937
   45MOL0     C 5966   4.280   4.385   6.822 -0.2151 -0.0319  0.3553
   45MOL0     C 5967   4.169   4.361   6.741 -0.4802  0.7216 -0.5030
   45MOL0     C 5968   4.069   4.473   6.749  0.0531  1.1286 -0.2630
   45MOL0     C 5969   4.164   4.260   6.644  0.3307  0.4723 -0.2812
   45MOL0     C 5970   4.063   4.252   6.544  0.1814  0.6075  0.8460
   45MOL0     O 5971   4.100   4.274   6.410 -0.1137 -0.2484  0.4087
   45MOL0     C 5972   4.038   4.189   6.328 -0.2896  0.0310  0.7287
   45MOL0     C 5973   3.939   4.246   6.245 -0.1042  0.3781  0.7912
   45MOL0     C 5974   3.875   4.171   6.146  0.7236 -0.6182 -0.5964
   45MOL0     C 5975   3.905   4.036   6.115 -0.9313 -0.2451 -0.3778
   45MOL0     O 5976   3.826   3.967   6.025 -0.5148  0.0915  0.3752
   45MOL0     C 5977   3.843   3.826   6.039  0.1706  0.0024 -0.0639
   45MOL0     C 5978   3.756   3.764   5.931  1.2022 -0.7966  0.0201
   45MOL0     C 5979   3.606   3.754   5.967 -0.9546  0.4428  0.7320
   45MOL0     C 5980   3.565   3.611   6.021 -0.4089  0.0408  0.0595
   45MOL0     C 5981   3.409   3.592   6.040 -0.7741  0.1782  0.1720
   45MOL0     C 5982   3.374   3.443   6.050 -0.5494 -0.3021  0.0173
   45MOL0     C 5983   3.226   3.409   6.098 -0.2776  0.6735 -0.2433
   45MOL0     C 5984   3.181   3.463   6.228  0.0035 -0.1626  0.5454
   45MOL0    Cl 5985   3.288   3.430   6.361 -0.6321 -0.5832  0.6830
   45MOL0     C 5986   4.017   3.985   6.187 -0.4744 -0.3601 -0.2149
   45MOL0     C 5987   4.081   4.058   6.290 -1.1061  0.2293 -0.4496
   45MOL0     O 5988   3.945   4.233   6.583  0.7425  0.1687  0.2200
   45MOL0     C 5989   4.272   4.172   6.644 -0.3247  0.3842  0.5642
   45MOL0     C 5990   4.381   4.199   6.717  0.5926  0.1403  0.0556
   45MOL0     N 5991   5.079   4.528   6.791 -0.4031  0.3154 -0.2990
   45MOL0     N 5992   5.184   4.464   6.759  0.6192  0.6321 -0.2610
   45MOL0     C 5993   6.413   4.328   7.194 -0.7005  0.5365  0.1950
   45MOL0     C 5994   6.558   4.327   7.181 -0.0558 -0.5806 -0.3748
   45MOL0     C 5995   6.955   4.184   6.997 -0.1849 -0.1675  0.1574
   45MOL0     C 5996   7.011   4.123   6.883  0.5478  0.0386 -0.0252
   45MOL0     C 5997   7.145   4.119   6.861 -0.1695  0.0922 -1.6203
   45MOL0     C 5998   7.233   4.177   6.957 -0.0023 -0.5580  0.9304
   45MOL0     O 5999   7.364   4.191   6.939  0.0147 -0.5252  0.4959
   45MOL0     C 6000   7.425   4.133   6.821 -0.4073 -1.2512  0.0492
   45MOL0     C 6001   7.565   4.093   6.856  0.3640  0.3280  0.5333
   45MOL0     C 6002   7.663   4.209   6.866  0.7473  0.1162 -0.5301
   45MOL0     C 6003   7.685   4.265   6.722 -0.0260  0.6922  0.3835
   45MOL0     C 6004   7.801   4.359   6.732  0.7343 -0.4491  1.1944
   45MOL0     C 6005   7.892   4.439   6.754 -0.2940  0.2154  0.0498
   45MOL0     C 6006   7.181   4.229   7.081 -1.0500 -0.4296 -0.1393
   45MOL0     C 6007   7.041   4.233   7.095 -0.4027 -0.4741 -0.0304
   45MOL0     H 6008   6.591   3.991   7.095  0.0260 -0.0226 -1.4525
   45MOL0     H 6009   6.355   4.003   7.116  1.4922 -1.2891 -1.3853
   45MOL0     H 6010   6.141   4.373   7.173  2.8963 -0.6956  0.6130
   45MOL0     H 6011   6.169   4.299   7.005 -3.2565 -3.7904 -1.4737
   45MOL0     H 6012   5.966   4.153   7.041 -1.3979 -1.1997  1.4622
   45MOL0     H 6013   5.936   4.258   7.183 -1.9793  1.1328 -0.4283
   45MOL0     H 6014   5.933   4.462   7.019 -2.2078  0.1470  0.9341
   45MOL0     H 6015   5.943   4.341   6.886  1.4856 -2.2156  0.8664
   45MOL0     H 6016   5.748   4.232   6.947  3.4766 -2.5128  3.6236
   45MOL0     H 6017   5.725   4.332   7.098  0.5367 -0.0981 -0.1439
   45MOL0     H 6018   5.686   4.535   6.951 -0.3477 -0.6621  1.7834
   45MOL0     H 6019   5.687   4.430   6.813  1.3530  1.8179  0.5000
   45MOL0     H 6020   5.503   4.372   7.037 -0.9601 -1.7204 -0.8848
   45MOL0     H 6021   5.470   4.506   6.921 -1.5581 -1.1201  1.9211
   45MOL0     H 6022   5.451   4.382   6.743 -0.4401  4.9607  3.4209
   45MOL0     H 6023   5.537   4.239   6.815 -0.3052 -0.1188 -1.5948
   45MOL0     H 6024   5.324   4.227   6.960 -1.3509  0.3386  0.9821
   45MOL0     H 6025   5.286   4.195   6.786 -1.1118 -0.1754  0.5941
   45MOL0     H 6026   5.117   4.339   7.057  0.2266 -1.1422 -0.1652
   45MOL0     H 6027   4.908   4.517   7.096 -2.8745  1.8631  0.9402
   45MOL0     H 6028   4.923   4.647   6.983 -1.1605  0.3373  1.9216
   45MOL0     H 6029   4.746   4.549   6.826 -3.4630  3.2331  2.5787
   45MOL0     H 6030   4.699   4.549   6.995 -1.1556 -0.6185 -0.4029
   45MOL0     H 6031   4.738   4.305   7.029 -0.6506 -3.1176 -0.2937
   45MOL0     H 6032   4.848   4.310   6.895  0.1110  1.1846  0.2813
   45MOL0     H 6033   4.630   4.180   6.843  1.9151 -0.4448  0.7600
   45MOL0     H 6034   4.632   4.322   6.741 -1.8093  2.6149 -0.1422
   45MOL0     H 6035   4.297   4.466   6.892 -0.5632  0.8797 -0.5914
   45MOL0     H 6036   4.108   4.574   6.766 -2.8813  1.9682  2.3708
   45MOL0     H 6037   4.002   4.482   6.662 -2.3804 -1.4982  1.1458
   45MOL0     H 6038   3.998   4.448   6.829  0.1642  3.4187  0.6342
   45MOL0     H 6039   3.899   4.346   6.260  2.7967  1.5590  1.4332
   45MOL0     H 6040   3.789   4.212   6.094 -0.7998 -0.7701  1.6266
   45MOL0     H 6041   3.946   3.820   6.004  0.8166  1.6664  1.3989
   45MOL0     H 6042   3.826   3.782   6.138  2.5621 -2.0509 -0.4781
   45MOL0     H 6043   3.772   3.830   5.846  1.1937 -0.8177  0.0020
   45MOL0     H 6044   3.796   3.666   5.905  0.6532 -0.7290 -1.1675
   45MOL0     H 6045   3.542   3.785   5.884 -1.0873 -0.6763  0.4038
   45MOL0     H 6046   3.592   3.821   6.052 -0.2963 -0.6056  1.6946
   45MOL0     H 6047   3.612   3.530   5.965  2.2720  1.2259  0.4582
   45MOL0     H 6048   3.607   3.605   6.122 -1.1014 -2.0682  0.2702
   45MOL0     H 6049   3.353   3.638   5.959  0.0105 -0.4573 -0.7631
   45MOL0     H 6050   3.383   3.633   6.137 -1.2117 -0.6909  0.4363
   45MOL0     H 6051   3.388   3.398   5.951  2.4009  2.0114 -0.7797
   45MOL0     H 6052   3.446   3.393   6.116  0.2673 -1.1596 -1.4663
   45MOL0     H 6053   3.208   3.301   6.102 -1.6089  0.9145  0.7667
   45MOL0     H 6054   3.166   3.454   6.019  0.7380 -0.2936 -1.6118
   45MOL0     H 6055   3.083   3.419   6.248  0.6326 -1.9409 -0.1220
   45MOL0     H 6056   3.164   3.571   6.222  1.8904  0.1589  0.2710
   45MOL0     H 6057   4.052   3.885   6.166 -0.9843 -0.8439  1.1464
   45MOL0     H 6058   4.155   4.003   6.348 -2.6344 -3.4039 -1.6413
   45MOL0     H 6059   4.262   4.097   6.565  2.7316 -0.3499  0.7413
   45MOL0     H 6060   4.466   4.131   6.711  0.6655 -0.0367  2.1682
   45MOL0     H 6061   6.374   4.419   7.238  1.0043  2.2140 -1.5786
   45MOL0     H 6062   6.613   4.411   7.225 -0.9083 -0.6306  0.8348
   45MOL0     H 6063   6.950   4.081   6.804  2.7581 -3.0808 -0.2239
   45MOL0     H 6064   7.180   4.069   6.771  2.3757 -0.2074 -0.5507
   45MOL0     H 6065   7.374   4.041   6.789 -2.4409 -0.6286  1.3286
   45MOL0     H 6066   7.427   4.206   6.739  0.7900 -0.3747  0.8322
   45MOL0     H 6067   7.604   4.023   6.781  0.0686 -0.9787  1.5566
   45MOL0     H 6068   7.574   4.040   6.951 -0.4772  1.3215  1.1948
   45MOL0     H 6069   7.753   4.169   6.914 -0.1323 -0.3531  0.7839
   45MOL0     H 6070   7.636   4.283   6.941  1.8888  0.2212 -0.1976
   45MOL0     H 6071   7.599   4.321   6.685  1.0607  1.3077 -1.3113
   45MOL0     H 6072   7.716   4.186   6.653  0.9956  0.8031  0.6823
   45MOL0     H 6073   7.985   4.488   6.776  1.1997 -2.5931  0.5515
   45MOL0     H 6074   7.248   4.277   7.152  0.6746  0.9682 -2.5577
   45MOL0     H 6075   7.003   4.297   7.174  1.6122  1.9778 -0.8921
   46MOL0     O 6076  10.559   7.252   2.111  0.4974  0.0366  0.1572
   46MOL0     C 6077  10.629   7.207   2.021 -0.0727  0.6399  0.6254
   46MOL0     O 6078  10.580   7.178   1.906 -0.6687 -0.0913  0.4541
   46MOL0     C 6079  10.444   7.193   1.888  0.6738  0.8322 -0.3774
   46MOL0     C 6080  10.386   7.320   1.864  0.5829 -0.0629 -0.6383
   46MOL0     C 6081  10.250   7.332   1.862  0.0320  0.1845 -0.2049
   46MOL0     C 6082  10.159   7.224   1.883 -0.9811 -0.2767 -0.6716
   46MOL0     O 6083  10.022   7.233   1.896  0.1804 -0.3349 -0.9740
   46MOL0     C 6084   9.960   7.346   1.842  0.0233 -0.8013 -0.7475
   46MOL0     C 6085   9.810   7.306   1.829 -0.1931 -0.8665  0.6769
   46MOL0     C 6086   9.724   7.405   1.902 -0.4209 -0.6846  0.8733
   46MOL0     C 6087   9.577   7.367   1.862 -0.8324 -0.0227 -0.6735
   46MOL0     C 6088   9.473   7.477   1.934 -0.9113  0.1638 -0.2958
   46MOL0     C 6089   9.435   7.425   2.072 -0.5111  0.3342 -0.0130
   46MOL0     C 6090   9.369   7.531   2.157  0.2720  0.2502  0.5519
   46MOL0     C 6091   9.361   7.485   2.299 -0.5873  0.2160 -0.3121
   46MOL0     N 6092   9.283   7.366   2.319  0.1965  0.7522  0.6783
   46MOL0     C 6093   9.144   7.372   2.292 -0.8626  0.0848  0.0174
   46MOL0     C 6094   9.107   7.241   2.324 -0.2439 -0.4851 -0.3569
   46MOL0     C 6095   8.969   7.185   2.325  0.0707  0.7267  0.5445
   46MOL0     C 6096   8.866   7.299   2.303 -0.6915  0.4213  0.9934
   46MOL0     C 6097   8.723   7.252   2.308 -0.3007  0.6637 -0.6647
   46MOL0     C 6098   8.662   7.250   2.449  0.4237  0.0080 -0.2519
   46MOL0     O 6099   8.745   7.169   2.541 -0.3778 -0.7361  0.4887
   46MOL0     C 6100   8.718   7.036   2.564 -0.6335 -0.3410  0.1981
   46MOL0     C 6101   8.828   6.960   2.597 -1.6341  0.6189 -0.4972
   46MOL0     C 6102   8.820   6.819   2.616 -1.5277 -0.6417  0.7352
   46MOL0     C 6103   8.946   6.752   2.676  0.0704 -0.3141 -0.1260
   46MOL0     C 6104   8.697   6.753   2.606 -0.5412  0.3307  0.4191
   46MOL0     C 6105   8.675   6.609   2.624 -0.4598  0.2921 -0.2910
   46MOL0     O 6106   8.576   6.551   2.700  0.0569 -0.1138  0.3175
   46MOL0     C 6107   8.506   6.617   2.795  0.1605  0.1138 -0.6757
   46MOL0     C 6108   8.560   6.665   2.913 -0.5108 -0.2892 -0.3826
   46MOL0     C 6109   8.490   6.729   3.014  0.3391 -0.2221 -0.8273
   46MOL0     C 6110   8.351   6.749   2.990  0.1820 -0.5498  0.1159
   46MOL0     O 6111   8.279   6.823   3.084 -0.3587 -0.0427 -0.5263
   46MOL0     C 6112   8.139   6.833   3.070  0.4300  0.2752  0.3785
   46MOL0     C 6113   8.075   6.911   3.185 -0.9361 -0.1556  0.6065
   46MOL0     C 6114   7.930   6.882   3.197 -0.3474 -0.2476 -0.0672
   46MOL0     C 6115   7.845   6.895   3.070 -0.0659 -0.6128  0.1200
   46MOL0     C 6116   7.691   6.892   3.085 -0.6843 -0.4364  0.3700
   46MOL0     C 6117   7.630   6.756   3.123  0.3315  0.4387 -0.4702
   46MOL0     C 6118   7.482   6.762   3.152 -1.0003 -0.1994 -0.1220
   46MOL0     C 6119   7.403   6.742   3.014 -1.0131  0.1845 -0.5614
   46MOL0    Cl 6120   7.376   6.558   2.967 -0.0403 -0.0983  0.3183
   46MOL0     C 6121   8.295   6.701   2.873 -0.2521 -0.4274  0.3581
   46MOL0     C 6122   8.371   6.643   2.777  0.0693 -0.1281 -0.1462
   46MOL0     O 6123   8.762   6.538   2.568  0.2541 -0.7500  0.2088
   46MOL0     C 6124   8.587   6.832   2.567 -0.3030  0.4319  0.3840
   46MOL0     C 6125   8.596   6.971   2.542  0.5945 -0.8131 -0.1669
   46MOL0     N 6126   9.223   7.167   2.361 -0.2526 -0.3882  0.2069
   46MOL0     N 6127   9.324   7.244   2.358  0.3824  0.3728  0.2684
   46MOL0     C 6128  10.217   7.100   1.904 -0.1415 -0.4455 -0.0772
   46MOL0     C 6129  10.359   7.091   1.905  0.4214  0.1346  0.1154
   46MOL0     C 6130  10.774   7.190   2.045  0.1480  0.1563 -0.0750
   46MOL0     C 6131  10.854   7.120   1.945  0.7433 -0.8748  1.0037
   46MOL0     C 6132  10.981   7.092   1.974  0.3362  0.4902  0.6292
   46MOL0     C 6133  11.048   7.121   2.094  0.0261 -0.7830 -0.1146
   46MOL0     O 6134  11.170   7.093   2.120  0.0275 -0.0751  0.3847
   46MOL0     C 6135  11.261   7.044   2.008 -0.5420  0.9320 -0.4529
   46MOL0     C 6136  11.401   7.016   2.069  0.1613  0.1900 -0.0772
   46MOL0     C 6137  11.389   6.922   2.193 -0.5429 -0.3487 -0.5652
   46MOL0     C 6138  11.527   6.889   2.256  0.6631  0.3749  0.3245
   46MOL0     C 6139  11.614   6.827   2.156  0.7260 -0.1920 -0.3678
   46MOL0     C 6140  11.674   6.756   2.080 -0.2202 -0.5929 -0.8670
   46MOL0     C 6141  10.970   7.189   2.189 -0.4314  0.2024 -0.1082
   46MOL0     C 6142  10.835   7.231   2.159 -0.1450 -0.2135  0.1295
   46MOL0     H 6143  10.452   7.406   1.864  2.3323 -1.2919  1.8050
   46MOL0     H 6144  10.206   7.432   1.860  0.1169  0.2591  0.8781
   46MOL0     H 6145   9.958   7.439   1.900  0.5613 -0.5262 -1.1542
   46MOL0     H 6146  10.001   7.378   1.745 -0.7473  0.9181 -0.5587
   46MOL0     H 6147   9.785   7.312   1.722 -2.0350 -0.2245  1.1198
   46MOL0     H 6148   9.782   7.206   1.864 -0.9313 -0.1466  2.2105
   46MOL0     H 6149   9.746   7.409   2.010 -0.0608  0.2691  0.7807
   46MOL0     H 6150   9.746   7.504   1.862 -2.4245 -1.2752 -2.0179
   46MOL0     H 6151   9.571   7.350   1.754  2.0055  0.6277 -1.0002
   46MOL0     H 6152   9.558   7.272   1.914  0.0112 -0.7726 -1.7054
   46MOL0     H 6153   9.529   7.570   1.945  0.4126 -0.7436  1.0509
   46MOL0     H 6154   9.392   7.502   1.865 -0.2302  1.0984 -0.7834
   46MOL0     H 6155   9.365   7.342   2.057 -0.7923  0.1190  2.2369
   46MOL0     H 6156   9.527   7.393   2.120 -2.4718 -1.6140  2.7394
   46MOL0     H 6157   9.410   7.633   2.152 -1.8973  1.4317  3.6587
   46MOL0     H 6158   9.269   7.540   2.114  1.3012  0.0988 -2.0955
   46MOL0     H 6159   9.310   7.563   2.356  0.1004 -0.9482  2.0134
   46MOL0     H 6160   9.465   7.477   2.333 -0.8783  0.6631  0.7166
   46MOL0     H 6161   9.090   7.458   2.256  1.1436 -0.4731 -5.1810
   46MOL0     H 6162   8.964   7.104   2.252  0.2617 -0.8723  2.2581
   46MOL0     H 6163   8.950   7.129   2.417 -1.0334 -1.3435 -0.8664
   46MOL0     H 6164   8.879   7.345   2.205  0.7673  0.7768  1.3282
   46MOL0     H 6165   8.886   7.381   2.372 -1.3594  2.3366 -0.9845
   46MOL0     H 6166   8.724   7.153   2.261 -1.8003  0.0360  0.5574
   46MOL0     H 6167   8.664   7.318   2.243  0.7534  0.9033 -1.4114
   46MOL0     H 6168   8.561   7.212   2.436 -0.0203  1.5574 -1.6108
   46MOL0     H 6169   8.653   7.353   2.487 -2.5662 -1.0791  2.4097
   46MOL0     H 6170   8.923   7.012   2.597 -2.5476  2.4245 -1.8820
   46MOL0     H 6171   8.989   6.685   2.602  1.2177  1.8096 -1.4875
   46MOL0     H 6172   9.024   6.825   2.700  1.0419 -1.6699  0.9207
   46MOL0     H 6173   8.926   6.687   2.762  0.2589 -1.5435 -0.9937
   46MOL0     H 6174   8.660   6.629   2.934 -0.5792  0.0266  0.5187
   46MOL0     H 6175   8.538   6.757   3.107  3.2755 -1.0136 -1.9933
   46MOL0     H 6176   8.107   6.873   2.974 -0.5367 -0.2663  0.4683
   46MOL0     H 6177   8.099   6.732   3.077  3.3658 -1.2217 -1.9312
   46MOL0     H 6178   8.134   6.897   3.276 -0.2372  0.1941  0.2120
   46MOL0     H 6179   8.091   7.018   3.166  0.5986 -0.7431 -1.7520
   46MOL0     H 6180   7.890   6.952   3.272  1.3687  1.8213 -0.9654
   46MOL0     H 6181   7.910   6.784   3.242 -1.3643  1.1188  2.7480
   46MOL0     H 6182   7.878   6.992   3.033  1.4342 -1.4083 -0.7377
   46MOL0     H 6183   7.866   6.808   3.007 -2.5041 -0.8635 -0.4784
   46MOL0     H 6184   7.658   6.938   2.992 -1.2647  0.4776  1.0090
   46MOL0     H 6185   7.665   6.960   3.167 -2.8143  0.3343 -0.8757
   46MOL0     H 6186   7.655   6.690   3.040  0.2868  0.2512 -0.3372
   46MOL0     H 6187   7.682   6.714   3.210 -0.8301 -0.8713 -0.3601
   46MOL0     H 6188   7.451   6.860   3.190 -1.0923  0.5945 -2.0773
   46MOL0     H 6189   7.465   6.687   3.229  0.6388 -0.1525  0.3252
   46MOL0     H 6190   7.453   6.788   2.929 -0.4323 -2.6172 -1.8703
   46MOL0     H 6191   7.303   6.786   3.020 -1.8197 -1.6446  0.1427
   46MOL0     H 6192   8.190   6.720   2.853 -1.4499 -4.6668  1.4385
   46MOL0     H 6193   8.327   6.610   2.683 -3.2445 -0.4587  1.3680
   46MOL0     H 6194   8.491   6.784   2.549 -0.8635  2.0365 -1.3155
   46MOL0     H 6195   8.511   7.027   2.505  0.6489 -0.8328 -0.3258
   46MOL0     H 6196  10.157   7.009   1.915 -2.3085  1.0520  1.3960
   46MOL0     H 6197  10.403   6.993   1.922  1.2803  0.4298 -0.3232
   46MOL0     H 6198  10.811   7.113   1.845 -1.3787  5.2261  1.0837
   46MOL0     H 6199  11.030   7.042   1.891 -0.9883 -0.0440  0.1388
   46MOL0     H 6200  11.220   6.957   1.955  0.7627  0.8103 -1.3135
   46MOL0     H 6201  11.270   7.116   1.927 -0.5994  1.5456  0.0817
   46MOL0     H 6202  11.438   7.113   2.104 -1.0513  0.7159 -0.2071
   46MOL0     H 6203  11.465   6.966   1.995  0.6280  0.1475  0.3442
   46MOL0     H 6204  11.338   6.836   2.150  0.9156 -0.5637 -1.9416
   46MOL0     H 6205  11.326   6.965   2.271  1.4238  1.6120  0.0521
   46MOL0     H 6206  11.517   6.827   2.345  4.3180 -1.2394 -0.2114
   46MOL0     H 6207  11.578   6.983   2.279  3.2154 -0.2689 -2.1913
   46MOL0     H 6208  11.732   6.694   2.015  1.0786  1.2536 -1.5751
   46MOL0     H 6209  11.017   7.222   2.281 -0.1714 -1.8439  0.5367
   46MOL0     H 6210  10.790   7.277   2.246  0.7994  0.1719  0.4303
   47MOL0     O 6211   3.274   3.569   4.784  0.2083  0.1449 -0.0019
   47MOL0     C 6212   3.225   3.679   4.751 -0.8263 -0.0289  0.1311
   47MOL0     O 6213   3.281   3.776   4.678 -0.2234 -0.3429 -0.2751
   47MOL0     C 6214   3.405   3.749   4.624 -0.2083 -0.3777  0.5286
   47MOL0     C 6215   3.507   3.833   4.643  0.1855 -1.1739 -0.0836
   47MOL0     C 6216   3.633   3.827   4.571 -0.0177  0.5768  0.0515
   47MOL0     C 6217   3.655   3.717   4.483  0.0831  0.8508  0.6835
   47MOL0     O 6218   3.779   3.719   4.416 -0.0050  0.2522  0.7520
   47MOL0     C 6219   3.831   3.604   4.338 -0.3234  0.1192 -0.6612
   47MOL0     C 6220   3.955   3.657   4.273  0.1923 -0.1218  0.5971
   47MOL0     C 6221   4.050   3.560   4.197  0.1576  0.1833  0.0512
   47MOL0     C 6222   4.190   3.618   4.187  0.2501 -0.4050 -0.6937
   47MOL0     C 6223   4.285   3.549   4.080 -0.8660  0.2244  0.4957
   47MOL0     C 6224   4.260   3.593   3.935 -0.5094  0.3044 -0.6135
   47MOL0     C 6225   4.365   3.525   3.840  0.4288 -0.4315 -0.2856
   47MOL0     C 6226   4.426   3.631   3.736 -0.4057  1.1379  0.4659
   47MOL0     N 6227   4.339   3.663   3.626 -1.3240 -0.8459  0.1815
   47MOL0     C 6228   4.217   3.727   3.633 -0.5514 -0.0318 -0.1757
   47MOL0     C 6229   4.175   3.736   3.505  1.1713 -0.2355 -0.6339
   47MOL0     C 6230   4.040   3.793   3.458 -0.6678  0.7755  0.2299
   47MOL0     C 6231   3.917   3.771   3.543  0.3405 -0.4002 -0.2163
   47MOL0     C 6232   3.796   3.805   3.445 -0.4731 -0.3490  0.4699
   47MOL0     C 6233   3.663   3.746   3.504  0.6022 -0.2118 -0.3005
   47MOL0     O 6234   3.555   3.758   3.410 -0.2329  0.3470  0.9316
   47MOL0     C 6235   3.422   3.752   3.452  0.0861  0.2385  0.6329
   47MOL0     C 6236   3.383   3.710   3.577  1.2383  0.3087 -0.9691
   47MOL0     C 6237   3.240   3.692   3.612 -1.0162  0.5245 -0.2109
   47MOL0     C 6238   3.209   3.654   3.756  0.2244 -0.4006  0.1535
   47MOL0     C 6239   3.143   3.697   3.508 -0.0163  0.1381 -0.2791
   47MOL0     C 6240   2.996   3.660   3.531 -1.0758 -1.0458 -0.0677
   47MOL0     O 6241   2.924   3.685   3.414  0.2696 -0.3678  0.4057
   47MOL0     C 6242   2.799   3.683   3.439  0.5627 -0.0101 -0.2703
   47MOL0     C 6243   2.730   3.800   3.444 -0.2749 -0.5379  0.5521
   47MOL0     C 6244   2.597   3.807   3.491  0.4034  0.3610 -0.3727
   47MOL0     C 6245   2.526   3.691   3.536 -0.0603  1.1079  0.6358
   47MOL0     O 6246   2.404   3.689   3.594  0.2781 -0.4055 -0.0855
   47MOL0     C 6247   2.327   3.813   3.627  0.0050 -0.1944 -0.2202
   47MOL0     C 6248   2.206   3.773   3.721 -0.8748  0.5695  0.3221
   47MOL0     C 6249   2.115   3.886   3.739  0.6954  0.5300 -0.2549
   47MOL0     C 6250   2.024   3.920   3.620 -0.0345  0.3577  0.5074
   47MOL0     C 6251   1.966   4.061   3.618  0.2652 -0.4684  0.1139
   47MOL0     C 6252   1.910   4.113   3.479 -1.1375 -0.2142 -0.4152
   47MOL0     C 6253   2.035   4.127   3.385  0.6867  1.4355  0.3788
   47MOL0     C 6254   2.104   4.268   3.377  0.2377  0.2356  0.5438
   47MOL0    Cl 6255   2.242   4.285   3.269 -0.1970 -0.3281 -0.2570
   47MOL0     C 6256   2.594   3.574   3.529  0.4945  0.0231  0.1579
   47MOL0     C 6257   2.729   3.568   3.476 -0.3650  0.1507  0.1347
   47MOL0     O 6258   2.953   3.611   3.637  0.0957 -1.0423 -0.1881
   47MOL0     C 6259   3.184   3.746   3.383 -0.8768  0.7920 -0.5805
   47MOL0     C 6260   3.319   3.773   3.353  0.5190 -0.1449  0.6928
   47MOL0     N 6261   4.273   3.674   3.418  0.4892 -0.1085 -1.0001
   47MOL0     N 6262   4.370   3.632   3.492  0.0526 -0.1500 -0.2853
   47MOL0     C 6263   3.547   3.623   4.471  0.4897 -0.2788  0.3998
   47MOL0     C 6264   3.424   3.639   4.537  0.1880 -0.3138 -0.2557
   47MOL0     C 6265   3.083   3.696   4.789 -0.8280 -0.3934  0.0391
   47MOL0     C 6266   3.036   3.829   4.809  0.9164  0.2010  0.2877
   47MOL0     C 6267   2.903   3.848   4.856 -0.6234  0.1732  0.1912
   47MOL0     C 6268   2.809   3.740   4.861 -0.7787 -0.7795  0.3867
   47MOL0     O 6269   2.686   3.760   4.914 -0.2366 -0.3965  0.2488
   47MOL0     C 6270   2.645   3.897   4.940  0.9458 -0.3513  0.5640
   47MOL0     C 6271   2.488   3.916   4.954 -0.2242  0.2519  1.0363
   47MOL0     C 6272   2.462   4.071   4.922 -0.5991 -0.2839 -0.2490
   47MOL0     C 6273   2.319   4.116   4.959  0.4639 -0.1875 -0.0967
   47MOL0     C 6274   2.309   4.114   5.104 -0.0944 -0.4230 -0.9666
   47MOL0     C 6275   2.283   4.121   5.228 -0.3223  0.4944 -0.5239
   47MOL0     C 6276   2.861   3.613   4.835 -0.2952 -0.1161  0.3814
   47MOL0     C 6277   2.996   3.591   4.802  0.2776 -0.0579  0.3634
   47MOL0     H 6278   3.492   3.923   4.702  1.3655 -0.7738 -0.3608
   47MOL0     H 6279   3.715   3.897   4.580 -0.8726  1.5979 -0.0011
   47MOL0     H 6280   3.867   3.525   4.405  0.5582  1.1991  0.1739
   47MOL0     H 6281   3.756   3.569   4.266 -0.8330  0.2271 -0.1860
   47MOL0     H 6282   3.939   3.739   4.203  0.3916 -0.2524  0.3964
   47MOL0     H 6283   4.018   3.685   4.359  0.5945 -0.7188  0.5121
   47MOL0     H 6284   4.071   3.467   4.251 -1.2957  0.3250  0.9051
   47MOL0     H 6285   3.996   3.518   4.112 -1.1166 -0.2558  1.0504
   47MOL0     H 6286   4.183   3.720   4.149 -1.2402 -0.9022 -1.8739
   47MOL0     H 6287   4.248   3.617   4.279  1.5020 -3.1785 -1.4065
   47MOL0     H 6288   4.386   3.580   4.111 -0.6682 -1.7492  2.0067
   47MOL0     H 6289   4.279   3.441   4.090 -1.8172 -0.0671 -2.3012
   47MOL0     H 6290   4.156   3.578   3.906 -0.6948  2.8780 -1.5802
   47MOL0     H 6291   4.252   3.702   3.943  2.2995  0.5387  0.1974
   47MOL0     H 6292   4.446   3.490   3.905 -0.1577  0.2982  0.8683
   47MOL0     H 6293   4.320   3.433   3.801 -0.9225  0.0472  0.0576
   47MOL0     H 6294   4.517   3.599   3.685 -0.6288 -0.8851  1.2545
   47MOL0     H 6295   4.456   3.724   3.787 -1.3233  1.6925  0.0285
   47MOL0     H 6296   4.164   3.770   3.718 -1.1215 -1.0412 -0.0009
   47MOL0     H 6297   4.062   3.900   3.450  1.0902  0.9038  4.3167
   47MOL0     H 6298   4.023   3.761   3.354 -1.3409  0.4080  0.4471
   47MOL0     H 6299   3.927   3.827   3.637  1.8925 -0.8804 -0.0711
   47MOL0     H 6300   3.908   3.665   3.569 -2.0585 -0.8241 -2.4028
   47MOL0     H 6301   3.827   3.763   3.349  0.3930  0.7344  0.2502
   47MOL0     H 6302   3.797   3.914   3.439 -0.6874 -0.3272  0.7895
   47MOL0     H 6303   3.640   3.803   3.594 -1.8935 -0.5480 -0.6396
   47MOL0     H 6304   3.678   3.640   3.524  0.5834  0.1958  2.1215
   47MOL0     H 6305   3.457   3.695   3.656 -0.9088  0.6588  1.2168
   47MOL0     H 6306   3.112   3.697   3.783  0.0385 -1.3625  1.1056
   47MOL0     H 6307   3.203   3.545   3.760 -0.3352 -0.3870 -0.2014
   47MOL0     H 6308   3.292   3.687   3.819  1.4538 -3.2406  0.1948
   47MOL0     H 6309   2.780   3.891   3.412  0.6671 -1.9839 -2.5046
   47MOL0     H 6310   2.555   3.905   3.511 -0.5834 -0.5427  2.5632
   47MOL0     H 6311   2.392   3.883   3.680  3.6343 -2.8501 -0.8241
   47MOL0     H 6312   2.291   3.858   3.534  2.5003  0.3174 -1.0079
   47MOL0     H 6313   2.148   3.687   3.687  1.3867 -0.4815 -1.1057
   47MOL0     H 6314   2.255   3.743   3.815 -1.8934  0.9749  0.9979
   47MOL0     H 6315   2.169   3.975   3.773  2.0537 -1.2138  2.4619
   47MOL0     H 6316   2.048   3.866   3.823  1.3396  0.8297  0.3410
   47MOL0     H 6317   2.090   3.899   3.536  0.2904  1.6207  0.4300
   47MOL0     H 6318   1.942   3.848   3.615  0.5248 -0.1882 -2.4387
   47MOL0     H 6319   2.045   4.130   3.648  3.0541 -2.0932 -2.8668
   47MOL0     H 6320   1.890   4.070   3.696  0.5206 -1.1914  0.4486
   47MOL0     H 6321   1.828   4.048   3.448 -0.9442 -0.3545 -0.6375
   47MOL0     H 6322   1.871   4.215   3.490 -1.3123 -0.1736 -1.3395
   47MOL0     H 6323   1.996   4.099   3.287 -0.7350 -2.4909  1.8699
   47MOL0     H 6324   2.113   4.051   3.397  0.9981  1.6836 -0.0673
   47MOL0     H 6325   2.144   4.311   3.469  3.0942  2.5027 -1.5735
   47MOL0     H 6326   2.026   4.337   3.343 -1.7225 -0.7193  2.7628
   47MOL0     H 6327   2.548   3.480   3.557  0.4946  0.1653  0.6448
   47MOL0     H 6328   2.779   3.471   3.474  0.0753  0.3611  0.8835
   47MOL0     H 6329   3.117   3.764   3.300 -1.4454 -0.8768 -0.5207
   47MOL0     H 6330   3.356   3.803   3.256  1.4370  1.1470  1.3983
   47MOL0     H 6331   3.557   3.541   4.401  0.3548  0.8261 -0.9687
   47MOL0     H 6332   3.347   3.563   4.539 -1.8165  1.5297 -1.6547
   47MOL0     H 6333   3.110   3.908   4.804  3.1836 -1.8756 -1.5049
   47MOL0     H 6334   2.875   3.950   4.881  0.6866  0.6008 -0.0189
   47MOL0     H 6335   2.703   3.941   5.022  1.5634  2.4777 -1.2414
   47MOL0     H 6336   2.667   3.951   4.847  1.9797 -0.2363  0.8678
   47MOL0     H 6337   2.469   3.895   5.060  2.2426  0.5409  1.6017
   47MOL0     H 6338   2.438   3.850   4.883  2.6827 -1.6748  0.6483
   47MOL0     H 6339   2.475   4.096   4.816  2.1356  1.5547  0.3813
   47MOL0     H 6340   2.538   4.130   4.976 -0.7494  1.8358 -2.1931
   47MOL0     H 6341   2.243   4.045   4.925 -2.4440  0.9839  3.2776
   47MOL0     H 6342   2.298   4.216   4.921  0.1947 -0.5784 -1.0095
   47MOL0     H 6343   2.254   4.121   5.331  0.7045 -1.1760 -0.1906
   47MOL0     H 6344   2.807   3.519   4.837  0.3570 -0.4803  2.1502
   47MOL0     H 6345   3.044   3.495   4.784  0.2859  0.0324 -0.0944
   48MOL0     O 6346   8.780   5.203   8.311  0.4875  0.4060  0.1091
   48MOL0     C 6347   8.856   5.123   8.348 -0.2539  0.5397 -0.3144
   48MOL0     O 6348   8.830   4.997   8.401 -0.1883 -0.3925 -1.1128
   48MOL0     C 6349   8.697   4.960   8.375  0.4596  0.0365 -1.0525
   48MOL0     C 6350   8.642   4.949   8.247 -0.8042  1.0499  0.3314
   48MOL0     C 6351   8.512   4.900   8.228  0.0082  0.1653 -1.3408
   48MOL0     C 6352   8.449   4.839   8.341 -0.8088  0.0753 -0.1603
   48MOL0     O 6353   8.327   4.776   8.322  0.8850 -0.0257  0.2016
   48MOL0     C 6354   8.339   4.646   8.265  0.1797 -0.5918 -0.6659
   48MOL0     C 6355   8.220   4.587   8.204  0.3649  0.1428  0.6739
   48MOL0     C 6356   8.146   4.666   8.101  0.9615 -0.1398 -0.0181
   48MOL0     C 6357   8.013   4.604   8.070 -0.1364  0.2569 -0.6638
   48MOL0     C 6358   7.956   4.685   7.964 -0.2757  0.1108  0.1357
   48MOL0     C 6359   7.828   4.629   7.901  0.1979  0.0376  0.8200
   48MOL0     C 6360   7.721   4.578   8.001  0.0996  0.1312  0.5911
   48MOL0     C 6361   7.591   4.543   7.934  0.4854 -0.3835  0.3835
   48MOL0     N 6362   7.581   4.404   7.889  0.5956 -0.3972  0.6958
   48MOL0     C 6363   7.542   4.297   7.960  0.5727  0.0658  0.4784
   48MOL0     C 6364   7.527   4.199   7.867 -0.3357  0.8875 -0.0750
   48MOL0     C 6365   7.477   4.055   7.889 -0.5029  0.1260 -0.8493
   48MOL0     C 6366   7.335   4.056   7.945 -0.0260  0.2202 -0.0924
   48MOL0     C 6367   7.244   4.121   7.844  0.3570 -0.3447  0.2237
   48MOL0     C 6368   7.091   4.104   7.864  0.4765 -0.3423 -0.5262
   48MOL0     O 6369   7.044   3.968   7.880 -0.2073  0.2860 -1.2860
   48MOL0     C 6370   6.915   3.935   7.898  0.4824 -0.1329 -0.3848
   48MOL0     C 6371   6.879   3.802   7.873  0.5756  0.2273 -0.3195
   48MOL0     C 6372   6.748   3.747   7.886  0.0254 -0.7634 -0.1869
   48MOL0     C 6373   6.735   3.601   7.871 -0.5304 -0.4736 -0.2213
   48MOL0     C 6374   6.638   3.834   7.911 -1.1261 -0.0324 -0.3103
   48MOL0     C 6375   6.497   3.801   7.928 -0.8167 -0.8660  0.6442
   48MOL0     O 6376   6.403   3.900   7.906  1.0363 -0.3205  0.0124
   48MOL0     C 6377   6.267   3.875   7.928  0.0622 -0.0792  0.3369
   48MOL0     C 6378   6.187   3.943   7.834 -0.2237  0.5959  0.3970
   48MOL0     C 6379   6.046   3.930   7.857 -0.2978 -0.2416  0.0411
   48MOL0     C 6380   5.994   3.852   7.955 -0.4709 -0.5638 -0.4664
   48MOL0     O 6381   5.862   3.813   7.946  0.5980  0.0727 -0.0367
   48MOL0     C 6382   5.781   3.827   8.061 -0.3347 -0.8223 -0.4049
   48MOL0     C 6383   5.637   3.866   8.024  0.9745 -0.0397 -0.3309
   48MOL0     C 6384   5.618   3.988   7.934  0.9953 -0.9657 -0.1379
   48MOL0     C 6385   5.594   4.103   8.024 -0.8981 -0.3585  0.0038
   48MOL0     C 6386   5.718   4.158   8.105 -0.0012  0.3345  0.8141
   48MOL0     C 6387   5.679   4.264   8.201 -0.5962 -0.9157 -0.2211
   48MOL0     C 6388   5.576   4.224   8.300  0.0975  0.1475  0.7685
   48MOL0     C 6389   5.574   4.297   8.426 -0.0178  0.0002 -0.0536
   48MOL0    Cl 6390   5.728   4.284   8.517  0.2925  0.2236 -0.1324
   48MOL0     C 6391   6.077   3.784   8.047  0.3767 -0.4158 -0.6013
   48MOL0     C 6392   6.211   3.809   8.032  0.4650 -0.1429 -1.4932
   48MOL0     O 6393   6.466   3.685   7.950 -0.0286  0.7892 -0.1080
   48MOL0     C 6394   6.674   3.966   7.942  0.1304  0.5519 -0.3138
   48MOL0     C 6395   6.802   4.015   7.925 -0.7178  0.0892 -0.3248
   48MOL0     N 6396   7.591   4.242   7.751  0.7167  0.0558 -0.1828
   48MOL0     N 6397   7.630   4.359   7.773 -0.0473 -0.7400 -0.3621
   48MOL0     C 6398   8.503   4.844   8.465  0.3977 -0.3584 -1.1584
   48MOL0     C 6399   8.622   4.919   8.484  0.4647  0.6213 -0.2824
   48MOL0     C 6400   8.996   5.178   8.343 -0.5122 -0.2449 -0.0900
   48MOL0     C 6401   9.037   5.264   8.235 -0.0232  0.5295 -0.0347
   48MOL0     C 6402   9.167   5.299   8.212 -0.4057 -0.1281 -0.4236
   48MOL0     C 6403   9.268   5.254   8.291 -0.7276 -0.4660  0.1203
   48MOL0     O 6404   9.395   5.287   8.242 -0.0729  0.6119  0.2698
   48MOL0     C 6405   9.517   5.237   8.299  0.3541  0.3357  0.2950
   48MOL0     C 6406   9.651   5.305   8.252 -0.2902 -0.2140  0.1556
   48MOL0     C 6407   9.697   5.241   8.118 -1.0931  0.0753  0.3785
   48MOL0     C 6408   9.824   5.293   8.059 -1.1121  0.2137  0.0443
   48MOL0     C 6409   9.938   5.249   8.141  0.3897  0.4493 -0.3818
   48MOL0     C 6410  10.022   5.230   8.229 -0.2448 -0.0884 -0.0445
   48MOL0     C 6411   9.236   5.158   8.390  0.5720 -0.3865 -0.4356
   48MOL0     C 6412   9.098   5.125   8.418  0.1780 -0.0357 -0.4234
   48MOL0     H 6413   8.714   4.967   8.168 -0.0748  0.3101  0.8108
   48MOL0     H 6414   8.457   4.879   8.137 -1.6979 -2.6100  0.1699
   48MOL0     H 6415   8.417   4.645   8.188 -0.3582  3.0389 -1.4423
   48MOL0     H 6416   8.366   4.583   8.350 -1.1320  0.6835  0.7349
   48MOL0     H 6417   8.252   4.496   8.152 -0.9750 -2.4491  3.9735
   48MOL0     H 6418   8.148   4.553   8.280 -1.1218  1.0873 -0.2508
   48MOL0     H 6419   8.135   4.760   8.156  2.6162 -0.0791  0.2529
   48MOL0     H 6420   8.202   4.701   8.014 -0.2020 -0.4152 -0.8960
   48MOL0     H 6421   8.020   4.498   8.042 -0.0748  0.5478 -1.8011
   48MOL0     H 6422   7.952   4.612   8.161  4.1853  0.7611  2.5278
   48MOL0     H 6423   7.928   4.784   8.003 -0.8874  1.6126 -3.6605
   48MOL0     H 6424   8.025   4.700   7.880 -1.2384 -0.2503 -0.7444
   48MOL0     H 6425   7.788   4.703   7.831 -1.8838 -2.3804 -0.7209
   48MOL0     H 6426   7.860   4.549   7.833 -1.1510 -1.1138  1.5081
   48MOL0     H 6427   7.767   4.484   8.033 -0.3212 -1.0652 -2.0635
   48MOL0     H 6428   7.709   4.656   8.077 -0.6558  2.0757 -1.4039
   48MOL0     H 6429   7.559   4.611   7.854  0.2051 -1.1626 -0.1794
   48MOL0     H 6430   7.517   4.553   8.014  0.4979  0.0894  0.3382
   48MOL0     H 6431   7.501   4.295   8.061 -0.5816  2.1366  0.1197
   48MOL0     H 6432   7.481   3.992   7.800 -1.0300 -1.5900  0.2964
   48MOL0     H 6433   7.536   4.011   7.969  1.2615  1.1927 -1.4992
   48MOL0     H 6434   7.326   4.105   8.042 -0.3046  0.6297 -0.3202
   48MOL0     H 6435   7.310   3.949   7.951 -1.0530  0.3919 -0.9552
   48MOL0     H 6436   7.270   4.070   7.750  1.1779  1.2343 -0.4462
   48MOL0     H 6437   7.277   4.225   7.831  1.3341 -0.9198 -2.9502
   48MOL0     H 6438   7.041   4.144   7.775  0.3195  1.0832  0.1714
   48MOL0     H 6439   7.068   4.166   7.952 -1.0452 -1.2058 -0.2810
   48MOL0     H 6440   6.961   3.736   7.845  1.6830  1.3595  0.1455
   48MOL0     H 6441   6.721   3.543   7.964 -0.3132 -1.0186 -0.5230
   48MOL0     H 6442   6.660   3.574   7.796 -1.3121 -0.3629  0.4940
   48MOL0     H 6443   6.827   3.557   7.831  0.4066 -0.5371  1.8313
   48MOL0     H 6444   6.239   3.993   7.753 -1.6945  0.4040 -0.7053
   48MOL0     H 6445   5.977   3.983   7.792 -1.6233 -1.7071  0.1999
   48MOL0     H 6446   5.790   3.738   8.124  2.4078 -1.4124 -1.4863
   48MOL0     H 6447   5.832   3.899   8.126 -0.2441 -0.9434 -0.3419
   48MOL0     H 6448   5.595   3.787   7.961 -2.4344  3.1668 -2.5058
   48MOL0     H 6449   5.582   3.856   8.118  2.8434 -2.7691  0.5692
   48MOL0     H 6450   5.531   3.969   7.871  1.6334 -0.5109 -1.1806
   48MOL0     H 6451   5.699   4.017   7.866  0.9441  3.8427  1.4398
   48MOL0     H 6452   5.559   4.183   7.957  1.9943  0.6788 -0.4191
   48MOL0     H 6453   5.517   4.073   8.096  1.1048 -2.0346  1.5657
   48MOL0     H 6454   5.796   4.190   8.035  0.1699 -1.1776  0.2795
   48MOL0     H 6455   5.758   4.077   8.166  0.1822  0.5072  0.9234
   48MOL0     H 6456   5.768   4.295   8.256 -1.1965  1.5616 -0.5063
   48MOL0     H 6457   5.643   4.351   8.144  0.0021 -0.2598  0.3795
   48MOL0     H 6458   5.586   4.116   8.318  1.4077  0.2170  0.5940
   48MOL0     H 6459   5.483   4.232   8.244 -0.6691 -0.5090  1.9123
   48MOL0     H 6460   5.489   4.250   8.476  1.6213 -3.4886 -0.3022
   48MOL0     H 6461   5.548   4.401   8.404 -0.0116 -0.5468 -3.1734
   48MOL0     H 6462   6.038   3.710   8.116 -1.5665 -0.0224 -1.2041
   48MOL0     H 6463   6.273   3.774   8.113 -0.2952  0.3508 -0.6844
   48MOL0     H 6464   6.603   4.042   7.977 -0.3719 -0.2686  0.5031
   48MOL0     H 6465   6.814   4.119   7.954 -2.2713  0.1202  0.3005
   48MOL0     H 6466   8.448   4.801   8.548 -0.5966  3.0506  0.0886
   48MOL0     H 6467   8.667   4.913   8.583  0.3235 -0.8982 -0.2848
   48MOL0     H 6468   8.954   5.294   8.171 -0.0853  0.7095  0.1272
   48MOL0     H 6469   9.185   5.363   8.125 -1.4477  1.3102  0.3663
   48MOL0     H 6470   9.502   5.254   8.406 -0.8450 -1.0595  0.3720
   48MOL0     H 6471   9.521   5.130   8.278  1.6320  0.4459 -0.1035
   48MOL0     H 6472   9.732   5.289   8.325 -0.6932 -0.1929  0.6145
   48MOL0     H 6473   9.639   5.413   8.238  1.6384 -0.2638 -2.6336
   48MOL0     H 6474   9.623   5.256   8.039 -1.2551 -2.0481  0.0823
   48MOL0     H 6475   9.720   5.137   8.142  3.4719  0.9575  0.6985
   48MOL0     H 6476   9.810   5.399   8.036  1.3492  0.2514 -1.6486
   48MOL0     H 6477   9.838   5.242   7.964 -0.5762 -2.8156  1.6303
   48MOL0     H 6478  10.083   5.199   8.311  0.1996 -2.7230 -1.2615
   48MOL0     H 6479   9.310   5.104   8.447 -2.0178 -2.2194  1.4389
   48MOL0     H 6480   9.079   5.058   8.501  1.1733  3.0222  2.4686
   49MOL0     O 6481   9.803   0.561   2.589  0.6758  0.3542  0.0808
   49MOL0     C 6482   9.809   0.479   2.679 -0.5848  0.6637 -0.5970
   49MOL0     O 6483   9.701   0.421   2.753 -0.6695  0.0811 -0.4328
   49MOL0     C 6484   9.575   0.467   2.755 -0.8186  0.7339  0.9028
   49MOL0     C 6485   9.477   0.369   2.777 -0.6354  0.4321  0.2681
   49MOL0     C 6486   9.339   0.396   2.762 -0.2510 -0.2284  0.0448
   49MOL0     C 6487   9.303   0.531   2.736  0.0592  0.2391 -0.3830
   49MOL0     O 6488   9.175   0.579   2.719 -0.2691 -0.8573 -0.3438
   49MOL0     C 6489   9.066   0.513   2.781 -0.3015  0.1967 -0.5368
   49MOL0     C 6490   8.973   0.444   2.672 -1.0229 -0.2667 -0.4991
   49MOL0     C 6491   8.932   0.537   2.558 -0.6364  0.1668  0.1508
   49MOL0     C 6492   8.835   0.467   2.458 -0.2381 -0.2415  0.5305
   49MOL0     C 6493   8.690   0.448   2.516 -0.1955  0.3681  0.4409
   49MOL0     C 6494   8.587   0.421   2.407  0.2775 -0.7160 -0.4759
   49MOL0     C 6495   8.442   0.431   2.449 -0.8342  0.2063  0.4456
   49MOL0     C 6496   8.374   0.448   2.315  0.3251 -0.6022 -0.2677
   49MOL0     N 6497   8.233   0.466   2.342  0.2954  0.1092  0.2340
   49MOL0     C 6498   8.137   0.377   2.292  0.2798  0.2458 -0.2605
   49MOL0     C 6499   8.015   0.420   2.334  0.3471 -1.4152  0.2203
   49MOL0     C 6500   7.879   0.373   2.290 -1.2346  0.8573 -0.5757
   49MOL0     C 6501   7.823   0.270   2.401  0.0754  0.0439 -0.3609
   49MOL0     C 6502   7.821   0.339   2.545 -0.4010  0.0208  0.0854
   49MOL0     C 6503   7.750   0.471   2.550  0.0661  0.3267 -0.1871
   49MOL0     O 6504   7.616   0.450   2.502  0.6703  0.0581  1.0660
   49MOL0     C 6505   7.531   0.555   2.507  0.5332  0.0723 -0.3226
   49MOL0     C 6506   7.557   0.684   2.561 -0.0074  0.3432 -1.1129
   49MOL0     C 6507   7.473   0.787   2.580  0.2533 -0.0017  0.0051
   49MOL0     C 6508   7.514   0.904   2.654 -1.2136 -0.7099 -0.6687
   49MOL0     C 6509   7.340   0.761   2.534  0.2791  0.8363 -0.4714
   49MOL0     C 6510   7.238   0.871   2.526  1.0732  1.3264  0.8477
   49MOL0     O 6511   7.110   0.827   2.512  0.2701  0.3172 -0.5388
   49MOL0     C 6512   7.008   0.914   2.565  0.2300  0.2892  0.3680
   49MOL0     C 6513   6.872   0.883   2.529 -0.4243  0.1988  0.5564
   49MOL0     C 6514   6.766   0.968   2.559  0.0235 -0.6583  0.0344
   49MOL0     C 6515   6.779   1.072   2.660 -0.2673  0.1886  0.2768
   49MOL0     O 6516   6.672   1.152   2.689  0.5624 -1.0328  0.0100
   49MOL0     C 6517   6.700   1.286   2.741  0.6470  0.1110  0.5120
   49MOL0     C 6518   6.677   1.278   2.889  0.1993  0.4574 -0.6226
   49MOL0     C 6519   6.691   1.423   2.958 -0.2270  0.5761 -0.4506
   49MOL0     C 6520   6.640   1.441   3.107 -0.5438 -0.3807  0.1638
   49MOL0     C 6521   6.672   1.590   3.140  0.0422  0.3677  0.0378
   49MOL0     C 6522   6.648   1.628   3.285  0.0741 -0.8755 -0.9518
   49MOL0     C 6523   6.710   1.769   3.334 -0.1849 -0.2604 -0.0217
   49MOL0     C 6524   6.850   1.752   3.391  0.0836  0.5226  0.1742
   49MOL0    Cl 6525   6.941   1.905   3.393  0.1912 -0.1841  0.0415
   49MOL0     C 6526   6.910   1.085   2.699  0.1587 -0.1033 -0.0304
   49MOL0     C 6527   7.020   1.007   2.663  0.5539 -0.2916  0.6532
   49MOL0     O 6528   7.271   0.983   2.543 -0.7917 -0.3655  1.2081
   49MOL0     C 6529   7.307   0.637   2.474  0.2432  1.3967 -0.8593
   49MOL0     C 6530   7.400   0.532   2.454  0.6480  0.1853 -0.3525
   49MOL0     N 6531   8.047   0.527   2.419  0.2554 -0.5222  0.5819
   49MOL0     N 6532   8.175   0.550   2.433 -0.4000  0.3391  1.0859
   49MOL0     C 6533   9.403   0.634   2.743 -0.2698  0.4294 -0.7705
   49MOL0     C 6534   9.534   0.602   2.747 -0.8321  0.3455  0.5832
   49MOL0     C 6535   9.942   0.423   2.709  0.0243 -1.5414  0.4479
   49MOL0     C 6536  10.051   0.461   2.631 -0.0081 -0.3927  0.6000
   49MOL0     C 6537  10.178   0.418   2.676 -0.7584  0.6639  0.6703
   49MOL0     C 6538  10.195   0.344   2.789 -0.1182  0.2746 -0.9191
   49MOL0     O 6539  10.317   0.294   2.844  0.6597 -0.0468 -0.3342
   49MOL0     C 6540  10.434   0.367   2.819 -0.6071  0.8040  0.5329
   49MOL0     C 6541  10.549   0.265   2.782 -1.3032 -0.6668 -0.5260
   49MOL0     C 6542  10.594   0.202   2.912  0.2895  0.4665 -0.6332
   49MOL0     C 6543  10.714   0.115   2.893 -0.2584 -0.3958 -0.3602
   49MOL0     C 6544  10.759   0.057   3.027 -0.1294 -0.3630  0.0910
   49MOL0     C 6545  10.801   0.003   3.124 -0.0992  0.1532 -0.3100
   49MOL0     C 6546  10.085   0.304   2.861 -1.2170  0.7032  0.1086
   49MOL0     C 6547   9.959   0.354   2.826 -0.4635 -0.2882  0.3497
   49MOL0     H 6548   9.511   0.267   2.794 -0.9118  0.2751 -0.1070
   49MOL0     H 6549   9.269   0.314   2.772 -0.7667 -0.4788 -3.8084
   49MOL0     H 6550   9.089   0.437   2.856 -2.8240  1.1823  1.3647
   49MOL0     H 6551   9.003   0.588   2.828 -0.9432  1.4476 -3.2198
   49MOL0     H 6552   9.020   0.348   2.649  3.1412  1.5328 -0.4290
   49MOL0     H 6553   8.882   0.420   2.728  0.3617 -1.5057  1.3782
   49MOL0     H 6554   8.882   0.623   2.604 -0.9790 -0.6166  1.2963
   49MOL0     H 6555   9.022   0.571   2.507  0.8101  0.9452  2.9882
   49MOL0     H 6556   8.830   0.532   2.370 -0.1727 -0.4316  0.3862
   49MOL0     H 6557   8.863   0.365   2.433 -1.8152 -0.8486  1.0704
   49MOL0     H 6558   8.691   0.372   2.595  0.8654 -1.8646 -1.5783
   49MOL0     H 6559   8.661   0.544   2.559  1.9528  0.2379  2.3317
   49MOL0     H 6560   8.604   0.491   2.325  2.9773 -1.1711 -0.3765
   49MOL0     H 6561   8.608   0.319   2.373  2.1598 -0.7435  0.6493
   49MOL0     H 6562   8.410   0.349   2.514  2.5687 -2.5854 -1.0922
   49MOL0     H 6563   8.437   0.525   2.504  0.6070  2.0416 -2.3401
   49MOL0     H 6564   8.389   0.364   2.247 -2.8331 -3.3000  2.0090
   49MOL0     H 6565   8.407   0.536   2.259  2.2500 -2.0243 -1.4926
   49MOL0     H 6566   8.128   0.297   2.220 -1.9057 -1.2970  1.5891
   49MOL0     H 6567   7.820   0.464   2.279  0.4812  2.0400 -0.5253
   49MOL0     H 6568   7.882   0.316   2.197 -1.3587 -1.7278  0.9188
   49MOL0     H 6569   7.878   0.175   2.396 -2.0796 -1.2756 -0.5976
   49MOL0     H 6570   7.722   0.238   2.370  1.3788 -1.2580 -3.7236
   49MOL0     H 6571   7.919   0.342   2.593 -1.8913 -1.7178  3.5633
   49MOL0     H 6572   7.763   0.272   2.609  0.4799 -0.0175  0.8680
   49MOL0     H 6573   7.805   0.552   2.501 -1.6427  0.5774 -1.7840
   49MOL0     H 6574   7.750   0.484   2.659  0.5509 -2.5995  0.2529
   49MOL0     H 6575   7.661   0.706   2.582 -0.1761  1.5827 -1.4902
   49MOL0     H 6576   7.620   0.881   2.665 -1.6208 -3.1571 -1.2690
   49MOL0     H 6577   7.523   0.998   2.599  1.8899 -0.6597 -0.2710
   49MOL0     H 6578   7.458   0.923   2.746  0.7598  2.4957  0.0445
   49MOL0     H 6579   6.847   0.800   2.463 -2.5415 -0.9173  2.6081
   49MOL0     H 6580   6.677   0.976   2.496  2.0868  0.8571 -2.9405
   49MOL0     H 6581   6.803   1.311   2.712  0.6611 -1.4770 -0.9879
   49MOL0     H 6582   6.642   1.367   2.698  1.5321  0.5401  0.1157
   49MOL0     H 6583   6.579   1.241   2.919  0.9700 -1.9328 -0.8488
   49MOL0     H 6584   6.757   1.220   2.936 -1.0733 -0.8531 -0.0094
   49MOL0     H 6585   6.634   1.496   2.900  0.5841  0.2785 -1.6804
   49MOL0     H 6586   6.794   1.459   2.952 -0.4705  1.6434  1.1959
   49MOL0     H 6587   6.532   1.432   3.123 -0.2777  0.5440  3.0141
   49MOL0     H 6588   6.690   1.367   3.171 -0.8096  0.0376  0.8731
   49MOL0     H 6589   6.606   1.654   3.080 -0.8545 -0.2182  0.3732
   49MOL0     H 6590   6.776   1.612   3.115  0.6881 -1.4356  0.9973
   49MOL0     H 6591   6.542   1.630   3.311  0.1348 -0.7380 -0.7117
   49MOL0     H 6592   6.699   1.559   3.352  1.5059  1.5242  0.6004
   49MOL0     H 6593   6.655   1.815   3.417 -2.7654 -0.3725 -1.5810
   49MOL0     H 6594   6.704   1.844   3.255  1.3316  0.6353  0.6586
   49MOL0     H 6595   6.910   1.685   3.329 -1.3947 -0.6138 -0.0968
   49MOL0     H 6596   6.855   1.724   3.497 -1.2972 -0.5897 -0.0271
   49MOL0     H 6597   6.929   1.164   2.772  1.3818 -0.2426 -0.1735
   49MOL0     H 6598   7.120   1.024   2.700  0.5815 -3.0516  2.1066
   49MOL0     H 6599   7.205   0.628   2.438 -0.0913 -0.0346  0.3591
   49MOL0     H 6600   7.377   0.439   2.402 -0.0612  0.0550  0.1753
   49MOL0     H 6601   9.372   0.736   2.722 -0.0136  0.8349  0.7020
   49MOL0     H 6602   9.614   0.676   2.740  0.7977 -1.3180  0.8897
   49MOL0     H 6603  10.043   0.522   2.542  1.7309 -2.4554 -1.0654
   49MOL0     H 6604  10.263   0.460   2.624 -0.7108  0.9124  0.9453
   49MOL0     H 6605  10.433   0.436   2.734  1.1666 -0.1427 -0.3141
   49MOL0     H 6606  10.466   0.432   2.901  0.7691  2.8773 -1.5222
   49MOL0     H 6607  10.635   0.312   2.733  2.2483 -1.6724  3.9769
   49MOL0     H 6608  10.510   0.183   2.721 -0.9732 -0.7496 -0.6293
   49MOL0     H 6609  10.506   0.161   2.963  0.0579  2.8971  1.1213
   49MOL0     H 6610  10.622   0.282   2.982  1.1302  0.6803 -1.2062
   49MOL0     H 6611  10.797   0.165   2.841 -1.7450  0.8563 -1.6466
   49MOL0     H 6612  10.694   0.041   2.815 -1.0655  0.2112 -0.7390
   49MOL0     H 6613  10.827  -0.031   3.222  0.8749  0.6462 -0.3836
   49MOL0     H 6614  10.097   0.250   2.955 -1.0282  0.8762  0.1844
   49MOL0     H 6615   9.875   0.335   2.891  0.3692 -3.2965  0.7165
   50MOL0     O 6616  10.540  10.222   2.796 -0.1112  0.2426  0.6177
   50MOL0     C 6617  10.609  10.223   2.897  0.1633 -0.1437 -0.1243
   50MOL0     O 6618  10.563  10.211   3.019 -0.1813  0.7850 -0.6349
   50MOL0     C 6619  10.432  10.179   3.054 -1.3531 -0.5478 -0.1475
   50MOL0     C 6620  10.325  10.246   3.005 -0.6976  1.1451 -0.3307
   50MOL0     C 6621  10.196  10.191   3.031  0.0932 -0.3543 -1.1629
   50MOL0     C 6622  10.176  10.082   3.120  0.9074 -0.1950  0.2289
   50MOL0     O 6623  10.053  10.026   3.145 -0.0194  0.1686 -0.2461
   50MOL0     C 6624   9.929  10.094   3.116 -0.1529  0.5003 -0.8934
   50MOL0     C 6625   9.806  10.007   3.159 -0.2745 -0.4696 -0.4830
   50MOL0     C 6626   9.802  10.019   3.309  0.5221  0.5474 -0.9874
   50MOL0     C 6627   9.689   9.922   3.371 -0.7828  0.6682 -0.3372
   50MOL0     C 6628   9.554   9.955   3.316  0.0794  0.2614  0.0742
   50MOL0     C 6629   9.441   9.888   3.392  0.8828  0.0087  1.0844
   50MOL0     C 6630   9.308   9.947   3.354  0.9909 -0.2831  0.2280
   50MOL0     C 6631   9.178   9.865   3.415 -0.9024 -0.5225  0.8991
   50MOL0     N 6632   9.152   9.894   3.554 -0.4438 -0.1190 -0.7891
   50MOL0     C 6633   9.103  10.016   3.604  1.0130  0.0006  0.9333
   50MOL0     C 6634   9.075  10.005   3.732  0.7384 -0.0463 -0.3314
   50MOL0     C 6635   9.017  10.107   3.830 -0.1472  0.4116  0.6076
   50MOL0     C 6636   8.861  10.134   3.824 -0.7714 -0.0419 -0.3050
   50MOL0     C 6637   8.766  10.037   3.891 -0.0735 -1.0605  0.9802
   50MOL0     C 6638   8.631  10.045   3.827 -0.2895 -0.3619  0.1052
   50MOL0     O 6639   8.537   9.943   3.866 -0.0598  0.2729  0.6350
   50MOL0     C 6640   8.414   9.946   3.805 -0.3531 -1.4768  0.0014
   50MOL0     C 6641   8.369  10.027   3.707 -0.2338  0.4209  0.8553
   50MOL0     C 6642   8.229  10.016   3.669  0.3818  0.2104  0.0337
   50MOL0     C 6643   8.198  10.118   3.563 -0.9214  0.2328  0.1541
   50MOL0     C 6644   8.133   9.926   3.730  0.4599  0.4703 -0.9504
   50MOL0     C 6645   7.991   9.914   3.704 -0.3818 -0.1513  0.0402
   50MOL0     O 6646   7.925   9.809   3.767  0.1184  0.0467  0.2364
   50MOL0     C 6647   7.787   9.799   3.765  0.1399  1.2164  0.3810
   50MOL0     C 6648   7.701   9.913   3.762  0.2925 -0.1917  0.6604
   50MOL0     C 6649   7.563   9.909   3.754  0.1146 -0.3255 -0.8841
   50MOL0     C 6650   7.502   9.785   3.754  0.0332 -0.1014  0.1360
   50MOL0     O 6651   7.362   9.771   3.757  0.3880  0.1772 -0.3368
   50MOL0     C 6652   7.290   9.865   3.835 -0.0464  0.3500 -0.5019
   50MOL0     C 6653   7.160   9.800   3.888 -0.3929 -0.1361 -0.3458
   50MOL0     C 6654   7.078   9.891   3.984 -0.3276 -0.1984 -0.1541
   50MOL0     C 6655   7.023  10.017   3.917 -0.2645 -0.1240 -0.0950
   50MOL0     C 6656   6.885  10.066   3.975 -0.2377  1.0865 -0.2340
   50MOL0     C 6657   6.765   9.970   3.954 -0.0642  0.1951 -0.4187
   50MOL0     C 6658   6.647  10.003   4.036 -0.5898  0.1811  1.0453
   50MOL0     C 6659   6.516   9.938   3.971  0.3812 -0.5948  0.9230
   50MOL0    Cl 6660   6.491   9.966   3.801 -0.6197 -0.2880  0.2145
   50MOL0     C 6661   7.584   9.670   3.762  0.1015 -0.0361 -0.2162
   50MOL0     C 6662   7.722   9.672   3.772  0.6335 -0.6132  0.4149
   50MOL0     O 6663   7.946   9.994   3.617 -0.1143  0.5594 -0.6088
   50MOL0     C 6664   8.191   9.844   3.829 -0.0703 -0.1718  0.0958
   50MOL0     C 6665   8.326   9.860   3.867 -0.0312  0.0080  0.8082
   50MOL0     N 6666   9.131   9.874   3.767  0.0868 -0.1432 -0.2045
   50MOL0     N 6667   9.176   9.813   3.664 -0.1015  0.2065 -0.5409
   50MOL0     C 6668  10.294  10.020   3.156 -1.0479  0.0312 -1.1527
   50MOL0     C 6669  10.419  10.063   3.128 -0.5338 -0.8736  0.6670
   50MOL0     C 6670  10.750  10.233   2.868 -0.1468 -0.5451 -0.1858
   50MOL0     C 6671  10.800  10.165   2.761  0.6824 -0.5634  0.2210
   50MOL0     C 6672  10.927  10.202   2.708  0.2355  0.3120  0.5526
   50MOL0     C 6673  11.011  10.293   2.778  0.0770  0.4909 -0.2106
   50MOL0     O 6674  11.148  10.319   2.765 -0.2196 -0.4893  1.0207
   50MOL0     C 6675  11.223  10.244   2.660 -0.8904 -0.5037  0.3735
   50MOL0     C 6676  11.350  10.318   2.625 -0.1922 -0.7159 -1.9306
   50MOL0     C 6677  11.408  10.262   2.497 -0.1478  0.0052  0.5459
   50MOL0     C 6678  11.550  10.302   2.496 -0.3312  1.1263 -0.4890
   50MOL0     C 6679  11.635  10.225   2.401  0.1403 -0.0481  0.0639
   50MOL0     C 6680  11.711  10.189   2.307  0.1972 -0.6644  0.5207
   50MOL0     C 6681  10.955  10.356   2.888  0.4514  0.1965  0.0566
   50MOL0     C 6682  10.826  10.332   2.930 -0.0676  0.3870 -0.6865
   50MOL0     H 6683  10.334  10.333   2.941  1.0761 -0.0414 -1.7905
   50MOL0     H 6684  10.109  10.245   2.993  1.6367  2.2235 -1.2546
   50MOL0     H 6685   9.927  10.181   3.183  0.0488 -0.2037  0.0451
   50MOL0     H 6686   9.928  10.130   3.013  3.4939 -1.1818 -1.6819
   50MOL0     H 6687   9.726  10.057   3.105 -0.4838  2.3824  2.2058
   50MOL0     H 6688   9.807   9.906   3.118 -0.7132 -0.1891 -1.1929
   50MOL0     H 6689   9.897   9.998   3.359  0.1175  1.4774  0.2285
   50MOL0     H 6690   9.777  10.121   3.338 -2.6396 -0.6148  1.0327
   50MOL0     H 6691   9.710   9.817   3.352 -0.6061 -0.0396  3.1633
   50MOL0     H 6692   9.677   9.930   3.479  1.1298  1.2679 -0.1271
   50MOL0     H 6693   9.538  10.063   3.319  3.9893  1.0796 -1.9821
   50MOL0     H 6694   9.557   9.930   3.210  2.8487  1.2546 -0.1663
   50MOL0     H 6695   9.439   9.783   3.361 -1.7095 -0.1132  1.4989
   50MOL0     H 6696   9.434   9.900   3.500 -1.6977 -0.9106  1.0863
   50MOL0     H 6697   9.305  10.051   3.388  0.1355 -0.5508  1.0202
   50MOL0     H 6698   9.300   9.939   3.245  0.0189 -0.2676  0.2950
   50MOL0     H 6699   9.203   9.759   3.405  0.3953 -0.1338 -0.3226
   50MOL0     H 6700   9.088   9.883   3.356  0.4647 -1.1046 -1.5090
   50MOL0     H 6701   9.066  10.098   3.542  0.8198 -0.2635  0.7004
   50MOL0     H 6702   9.047  10.069   3.929 -0.4908  0.7805  0.8578
   50MOL0     H 6703   9.068  10.200   3.803  1.6281 -0.6837 -0.0345
   50MOL0     H 6704   8.846  10.147   3.717  0.5842  0.7579 -0.4176
   50MOL0     H 6705   8.838  10.232   3.868 -0.0470  0.5000 -1.1132
   50MOL0     H 6706   8.743  10.077   3.990 -0.2412  2.4503 -0.3239
   50MOL0     H 6707   8.800   9.933   3.898 -0.7582 -1.3257  0.5141
   50MOL0     H 6708   8.653  10.043   3.720  1.8555  4.2338  0.2243
   50MOL0     H 6709   8.579  10.141   3.841  1.5719  0.7222 -0.0215
   50MOL0     H 6710   8.445  10.083   3.654  0.9719 -3.3127 -1.7699
   50MOL0     H 6711   8.133  10.093   3.479  3.7513  0.5776 -4.0581
   50MOL0     H 6712   8.154  10.210   3.603 -1.1679  1.9328 -3.5977
   50MOL0     H 6713   8.292  10.134   3.508 -1.4934 -3.2097 -2.1540
   50MOL0     H 6714   7.740  10.015   3.762  0.5331 -0.2853  0.5390
   50MOL0     H 6715   7.501   9.997   3.764 -0.8970 -0.7319 -3.0764
   50MOL0     H 6716   7.353   9.896   3.918  2.8250 -1.6094 -1.7916
   50MOL0     H 6717   7.276   9.953   3.771 -2.9029 -0.3936 -1.0532
   50MOL0     H 6718   7.099   9.762   3.806 -0.0292 -1.3996 -0.0514
   50MOL0     H 6719   7.195   9.722   3.956 -1.8722  1.1353  1.9979
   50MOL0     H 6720   7.148   9.915   4.064  1.0103 -2.1965 -0.6500
   50MOL0     H 6721   7.005   9.834   4.042  0.6648  1.5656  3.0926
   50MOL0     H 6722   7.097  10.095   3.897 -2.2679  2.0129  0.3492
   50MOL0     H 6723   6.986   9.992   3.817  1.1668  0.3016 -0.7414
   50MOL0     H 6724   6.845  10.155   3.925 -0.2715  1.6324  0.7404
   50MOL0     H 6725   6.899  10.098   4.079  3.4327  1.3164 -0.6603
   50MOL0     H 6726   6.745   9.955   3.848  0.3235 -0.5135 -0.3983
   50MOL0     H 6727   6.798   9.876   3.998 -1.5157  1.4766  3.9637
   50MOL0     H 6728   6.640  10.112   4.040  0.9220  0.3687 -0.2890
   50MOL0     H 6729   6.655   9.957   4.135 -0.7500 -0.7749  0.6255
   50MOL0     H 6730   6.425   9.959   4.027  0.8103 -1.4979  1.9891
   50MOL0     H 6731   6.525   9.830   3.975 -3.8360 -1.1288  0.8075
   50MOL0     H 6732   7.529   9.577   3.764 -1.0446  0.6335  0.6849
   50MOL0     H 6733   7.774   9.577   3.772 -0.6643 -1.6064 -4.2860
   50MOL0     H 6734   8.143   9.765   3.885  1.8745 -1.3531  0.2039
   50MOL0     H 6735   8.360   9.786   3.939  0.9010  1.4940  1.9563
   50MOL0     H 6736  10.294   9.919   3.195  0.3416  1.2331  2.3359
   50MOL0     H 6737  10.515  10.026   3.164  1.0449  0.2129 -2.1302
   50MOL0     H 6738  10.737  10.096   2.706  1.9728 -2.7868  1.3851
   50MOL0     H 6739  10.955  10.160   2.612  0.1047  1.1332  0.1443
   50MOL0     H 6740  11.263  10.153   2.706 -0.4918  0.4248  1.9534
   50MOL0     H 6741  11.166  10.239   2.567  1.5231  2.4115 -1.4624
   50MOL0     H 6742  11.413  10.303   2.713 -1.8789  0.0876 -0.5079
   50MOL0     H 6743  11.323  10.423   2.617 -1.8021 -0.6992  1.8135
   50MOL0     H 6744  11.352  10.312   2.418 -3.1902 -1.6942  1.4447
   50MOL0     H 6745  11.389  10.154   2.488 -1.4539  0.2008  0.7247
   50MOL0     H 6746  11.589  10.276   2.594 -3.7704 -0.0692  0.7093
   50MOL0     H 6747  11.561  10.410   2.480 -0.6117  1.5234  1.7781
   50MOL0     H 6748  11.776  10.168   2.225 -1.9199 -2.9569 -0.6877
   50MOL0     H 6749  11.023  10.415   2.948 -0.5547 -0.3158  1.7690
   50MOL0     H 6750  10.793  10.376   3.024 -1.5796 -1.6980 -0.1558
   51MOL0     O 6751   1.689   2.396   8.053 -0.3788 -0.2171 -0.3402
   51MOL0     C 6752   1.702   2.516   8.089  0.0950  0.9266  0.5093
   51MOL0     O 6753   1.596   2.611   8.085  0.0246 -0.5437  0.2133
   51MOL0     C 6754   1.472   2.549   8.086 -0.1915  0.4663  0.4732
   51MOL0     C 6755   1.429   2.445   8.166  0.2641 -0.0829 -0.4331
   51MOL0     C 6756   1.309   2.386   8.149  0.1298 -0.0870 -0.0858
   51MOL0     C 6757   1.230   2.429   8.039 -0.3059  0.1506  0.5655
   51MOL0     O 6758   1.095   2.395   8.027 -0.5559 -0.2390 -0.5869
   51MOL0     C 6759   1.024   2.391   8.153  0.0784  0.0452  0.0141
   51MOL0     C 6760   0.877   2.421   8.114  0.2286  0.8383 -0.1668
   51MOL0     C 6761   0.850   2.560   8.069 -0.2109  0.0128 -0.3228
   51MOL0     C 6762   0.792   2.554   7.928  0.1219 -0.3047 -0.2987
   51MOL0     C 6763   0.787   2.686   7.853 -0.6369  0.3020  1.0041
   51MOL0     C 6764   0.750   2.809   7.932  0.0898  0.5754 -0.2544
   51MOL0     C 6765   0.616   2.812   8.004 -0.5199 -0.2604  0.1002
   51MOL0     C 6766   0.502   2.813   7.900  0.6667 -0.4957  0.3946
   51MOL0     N 6767   0.487   2.922   7.811 -0.2489  0.3869  0.0648
   51MOL0     C 6768   0.405   3.035   7.839 -0.3794  0.4871  0.4348
   51MOL0     C 6769   0.432   3.123   7.736 -0.8695  0.0342 -0.2189
   51MOL0     C 6770   0.362   3.248   7.705 -0.5766 -0.4619  0.1057
   51MOL0     C 6771   0.242   3.235   7.620  0.2668  0.5862 -0.6050
   51MOL0     C 6772   0.127   3.167   7.700  1.7598  0.6992 -0.7994
   51MOL0     C 6773  -0.009   3.192   7.630 -0.1999 -0.2476  0.8187
   51MOL0     O 6774  -0.062   3.317   7.673 -0.1049  0.1354  0.0659
   51MOL0     C 6775  -0.197   3.337   7.631  0.7802  0.3113 -0.7350
   51MOL0     C 6776  -0.247   3.459   7.669 -0.1527  0.8629 -0.0962
   51MOL0     C 6777  -0.381   3.494   7.650  0.9953  0.2531  0.0051
   51MOL0     C 6778  -0.422   3.626   7.702  0.0837 -0.7954  0.1238
   51MOL0     C 6779  -0.461   3.402   7.589  0.5527  0.0638 -0.6792
   51MOL0     C 6780  -0.600   3.444   7.555  0.3580 -0.3498 -0.9742
   51MOL0     O 6781  -0.695   3.349   7.591  0.1482 -0.4322 -0.3758
   51MOL0     C 6782  -0.823   3.360   7.543  0.6873 -0.1619  1.2479
   51MOL0     C 6783  -0.870   3.253   7.461 -0.0381  0.6347  0.2378
   51MOL0     C 6784  -1.007   3.248   7.418  0.3806 -0.0124 -0.1069
   51MOL0     C 6785  -1.091   3.352   7.457 -0.3791 -0.4252  0.3044
   51MOL0     O 6786  -1.214   3.354   7.398  0.1477  0.5373 -0.6327
   51MOL0     C 6787  -1.277   3.475   7.341 -0.4440 -0.5250 -0.1344
   51MOL0     C 6788  -1.389   3.516   7.442  0.0099  0.6859  0.9029
   51MOL0     C 6789  -1.445   3.655   7.409 -0.8890 -0.4059 -0.3795
   51MOL0     C 6790  -1.583   3.665   7.465  0.0349  0.2339  0.3580
   51MOL0     C 6791  -1.588   3.685   7.614 -0.4967  0.0790  0.2318
   51MOL0     C 6792  -1.721   3.717   7.676 -0.2728 -0.1159 -0.7399
   51MOL0     C 6793  -1.705   3.709   7.823  0.1081 -0.2126  0.8397
   51MOL0     C 6794  -1.604   3.807   7.890  0.1292 -0.3347 -0.0586
   51MOL0    Cl 6795  -1.614   3.979   7.822 -0.1045 -0.2120  0.2753
   51MOL0     C 6796  -1.038   3.462   7.533  0.5947  1.0406  0.0251
   51MOL0     C 6797  -0.910   3.461   7.581 -0.2108 -0.2337 -0.5478
   51MOL0     O 6798  -0.629   3.546   7.492 -0.3787 -0.2577 -1.0004
   51MOL0     C 6799  -0.413   3.277   7.553  0.3753 -0.3441 -0.5378
   51MOL0     C 6800  -0.277   3.248   7.556  0.3886 -0.8877  0.3229
   51MOL0     N 6801   0.531   3.066   7.654 -0.0093 -0.6421  0.0655
   51MOL0     N 6802   0.559   2.947   7.701  0.2168 -0.3617  0.5880
   51MOL0     C 6803   1.273   2.532   7.962 -0.1705  0.8198  0.1437
   51MOL0     C 6804   1.393   2.593   7.984 -0.0494  0.8097  0.6981
   51MOL0     C 6805   1.836   2.563   8.114 -1.9286 -0.6230  0.3266
   51MOL0     C 6806   1.853   2.707   8.092 -0.0869  0.4888 -0.1949
   51MOL0     C 6807   1.974   2.767   8.094 -0.2623 -0.8274  0.0640
   51MOL0     C 6808   2.091   2.682   8.098 -0.0375  0.1168 -0.6961
   51MOL0     O 6809   2.218   2.726   8.099 -0.4207  0.0934  0.3015
   51MOL0     C 6810   2.270   2.765   8.223  0.1984  0.3787 -0.7631
   51MOL0     C 6811   2.364   2.891   8.202 -0.1564  1.0182 -0.1726
   51MOL0     C 6812   2.317   2.993   8.102 -0.6886  0.0757  0.5264
   51MOL0     C 6813   2.400   3.117   8.107 -0.7913  0.3901  0.2112
   51MOL0     C 6814   2.335   3.229   8.052 -0.4686  0.7185  1.0427
   51MOL0     C 6815   2.276   3.323   8.004  0.9600 -1.1503 -0.5000
   51MOL0     C 6816   2.079   2.543   8.126  0.0244  0.3335 -0.3248
   51MOL0     C 6817   1.951   2.486   8.139 -0.2658  0.1257  0.8375
   51MOL0     H 6818   1.499   2.411   8.242  2.5605  2.7719 -1.0648
   51MOL0     H 6819   1.289   2.292   8.199  4.0859 -1.6406 -1.0133
   51MOL0     H 6820   1.025   2.295   8.205 -2.7544  1.5026  3.1931
   51MOL0     H 6821   1.064   2.457   8.231 -2.5124 -0.3655  1.8210
   51MOL0     H 6822   0.835   2.347   8.045  1.1069 -1.6483  1.8225
   51MOL0     H 6823   0.820   2.406   8.206  1.1580  0.9861  0.4484
   51MOL0     H 6824   0.769   2.600   8.131 -2.0716 -1.8813 -1.3981
   51MOL0     H 6825   0.942   2.620   8.071  0.8875 -1.5308 -1.7753
   51MOL0     H 6826   0.846   2.480   7.869 -0.7265  0.4677 -2.1110
   51MOL0     H 6827   0.689   2.527   7.951  0.6225 -2.0407  0.0600
   51MOL0     H 6828   0.886   2.690   7.807 -1.2362 -1.3288 -0.5402
   51MOL0     H 6829   0.712   2.682   7.773 -1.5657  1.8545  1.7421
   51MOL0     H 6830   0.835   2.825   7.999 -0.5380 -1.3398  1.0826
   51MOL0     H 6831   0.741   2.887   7.856 -1.8739 -1.0806 -1.8218
   51MOL0     H 6832   0.613   2.728   8.074 -1.5342 -1.2460 -1.0745
   51MOL0     H 6833   0.618   2.902   8.066  0.2971  0.4441 -0.9194
   51MOL0     H 6834   0.406   2.816   7.952  0.9209 -0.0712  0.8598
   51MOL0     H 6835   0.511   2.713   7.857  4.5949 -0.4820  0.8245
   51MOL0     H 6836   0.328   3.044   7.915 -2.7198 -2.5629 -1.3298
   51MOL0     H 6837   0.331   3.296   7.798 -0.2035  0.5527 -0.2680
   51MOL0     H 6838   0.433   3.317   7.658  0.6527  0.9412  3.6742
   51MOL0     H 6839   0.259   3.181   7.526 -3.6793 -1.3872 -0.4042
   51MOL0     H 6840   0.209   3.334   7.587  0.6171  2.8163  4.8133
   51MOL0     H 6841   0.115   3.202   7.803 -2.4053  1.4058 -1.3221
   51MOL0     H 6842   0.140   3.059   7.709  2.7093  1.0039  3.1869
   51MOL0     H 6843  -0.074   3.107   7.656  0.5733 -0.5687  1.7859
   51MOL0     H 6844   0.006   3.195   7.522 -1.4834 -0.5501  0.6194
   51MOL0     H 6845  -0.178   3.520   7.726 -1.6848  1.7667  0.8548
   51MOL0     H 6846  -0.340   3.682   7.746 -0.9108 -1.4572  3.0365
   51MOL0     H 6847  -0.459   3.689   7.620 -1.9513  0.3516  1.8283
   51MOL0     H 6848  -0.505   3.622   7.774 -1.4155 -0.3256 -1.5018
   51MOL0     H 6849  -0.792   3.187   7.425 -0.8946  0.6840 -1.7903
   51MOL0     H 6850  -1.053   3.180   7.348  1.4881  0.9049 -1.7935
   51MOL0     H 6851  -1.204   3.557   7.338  0.2762 -1.1465  0.0476
   51MOL0     H 6852  -1.327   3.459   7.245 -2.8663  0.4337  0.8800
   51MOL0     H 6853  -1.467   3.440   7.436  0.1986  0.4751  1.0908
   51MOL0     H 6854  -1.347   3.511   7.543  0.0246  1.2327  0.9255
   51MOL0     H 6855  -1.433   3.689   7.305  1.1127 -0.7230 -0.2841
   51MOL0     H 6856  -1.377   3.717   7.468 -2.7317  0.4615  0.9138
   51MOL0     H 6857  -1.630   3.756   7.425 -3.2282 -1.0176  1.0108
   51MOL0     H 6858  -1.645   3.579   7.438  0.3612  0.4516 -1.1440
   51MOL0     H 6859  -1.521   3.766   7.646  0.0298  0.4643 -1.7488
   51MOL0     H 6860  -1.550   3.591   7.655 -0.2820  1.2380  2.9381
   51MOL0     H 6861  -1.746   3.818   7.641  0.2165  0.2647 -0.0329
   51MOL0     H 6862  -1.802   3.651   7.644 -1.7378  1.5584 -0.6743
   51MOL0     H 6863  -1.678   3.604   7.841  3.0007 -0.2223 -2.4274
   51MOL0     H 6864  -1.801   3.726   7.873 -0.4906  0.6153 -0.5373
   51MOL0     H 6865  -1.501   3.775   7.873 -0.0479 -2.6229  2.4668
   51MOL0     H 6866  -1.631   3.801   7.996 -4.2070  0.7066 -0.9392
   51MOL0     H 6867  -1.105   3.537   7.572 -1.0041  0.5601 -1.6608
   51MOL0     H 6868  -0.878   3.544   7.643 -2.4144 -1.4071  2.3875
   51MOL0     H 6869  -0.483   3.209   7.507 -1.8397  0.6947  1.1307
   51MOL0     H 6870  -0.255   3.156   7.503  1.5382 -0.6403  0.3465
   51MOL0     H 6871   1.208   2.571   7.884  0.4154 -0.5423 -1.0766
   51MOL0     H 6872   1.423   2.666   7.909  0.2616 -0.9862 -1.0324
   51MOL0     H 6873   1.772   2.779   8.084  0.7420  1.5115  0.3941
   51MOL0     H 6874   1.976   2.873   8.073 -1.2672 -1.3009 -2.9077
   51MOL0     H 6875   2.194   2.800   8.294 -0.6248  0.1554 -1.5075
   51MOL0     H 6876   2.320   2.681   8.272 -0.9817 -0.8653 -1.6145
   51MOL0     H 6877   2.461   2.854   8.168 -0.8597 -0.7705 -0.3473
   51MOL0     H 6878   2.372   2.940   8.299  0.7787  0.3238  0.1160
   51MOL0     H 6879   2.216   3.011   8.139  0.4530  4.4826  2.0798
   51MOL0     H 6880   2.311   2.950   8.002 -2.9708 -0.3551  0.8187
   51MOL0     H 6881   2.488   3.101   8.044 -0.5159  1.8923  0.1671
   51MOL0     H 6882   2.426   3.150   8.208 -1.1036  2.3055 -0.2874
   51MOL0     H 6883   2.214   3.407   7.982  2.0913 -0.9867 -3.4791
   51MOL0     H 6884   2.162   2.474   8.144 -2.4049 -1.7763  5.1610
   51MOL0     H 6885   1.937   2.381   8.163  2.3940 -0.8675 -1.3706
   52MOL0     O 6886   9.710   4.468   2.920  0.4935  0.7148  0.2130
   52MOL0     C 6887   9.759   4.570   2.972  1.2065 -0.9535 -0.0202
   52MOL0     O 6888   9.690   4.655   3.051  0.4734  0.2193  0.9042
   52MOL0     C 6889   9.557   4.660   3.042  0.1948 -0.0043 -0.1416
   52MOL0     C 6890   9.486   4.657   2.920 -0.0004  0.7195 -0.1156
   52MOL0     C 6891   9.346   4.655   2.931 -0.5614 -0.3999 -0.3911
   52MOL0     C 6892   9.285   4.668   3.050 -0.3372  0.2234 -0.7718
   52MOL0     O 6893   9.150   4.664   3.042 -0.2075 -0.4135  0.2624
   52MOL0     C 6894   9.077   4.709   3.153  0.8976  0.1217  0.1761
   52MOL0     C 6895   8.929   4.745   3.139 -0.2544  0.4486 -0.4089
   52MOL0     C 6896   8.844   4.629   3.086  0.3903  0.0347  0.0856
   52MOL0     C 6897   8.708   4.661   3.050 -0.0691 -0.3123  0.0265
   52MOL0     C 6898   8.628   4.533   3.023 -0.2863  0.0305  0.4262
   52MOL0     C 6899   8.495   4.548   2.948  0.0557  0.2501 -0.7545
   52MOL0     C 6900   8.439   4.410   2.936  0.2382  0.2841  0.6856
   52MOL0     C 6901   8.416   4.325   3.062 -0.5743 -0.6198 -0.2068
   52MOL0     N 6902   8.313   4.373   3.161  0.6984 -0.1584  0.3300
   52MOL0     C 6903   8.229   4.282   3.224 -1.0393 -0.0986  0.5459
   52MOL0     C 6904   8.149   4.352   3.304 -0.3220 -1.2733 -0.7203
   52MOL0     C 6905   8.044   4.289   3.394  0.0660  0.5064  0.1365
   52MOL0     C 6906   8.073   4.323   3.545  0.4094  0.1381 -0.5577
   52MOL0     C 6907   7.966   4.272   3.639 -0.9605 -0.3117  0.1231
   52MOL0     C 6908   7.971   4.346   3.766  0.4784  0.0047 -0.2868
   52MOL0     O 6909   7.853   4.307   3.843  0.4249  0.9713  0.3813
   52MOL0     C 6910   7.720   4.317   3.810  0.4616  0.1230  0.3440
   52MOL0     C 6911   7.626   4.261   3.890  0.3089 -0.1105 -0.4312
   52MOL0     C 6912   7.488   4.256   3.848 -0.0238 -1.0480 -0.7817
   52MOL0     C 6913   7.399   4.203   3.957  0.2169  0.3580  0.1161
   52MOL0     C 6914   7.443   4.330   3.735 -0.4184 -1.0584 -0.4139
   52MOL0     C 6915   7.308   4.344   3.690 -0.1498 -0.9657 -0.0016
   52MOL0     O 6916   7.289   4.421   3.582  0.0572 -0.0489  0.0793
   52MOL0     C 6917   7.163   4.418   3.524  0.5206 -0.0436 -0.5029
   52MOL0     C 6918   7.105   4.310   3.466  0.1766  0.8873 -0.1778
   52MOL0     C 6919   6.975   4.324   3.405 -0.1461 -0.1007 -0.6890
   52MOL0     C 6920   6.910   4.446   3.392  0.1168  0.7047 -0.9128
   52MOL0     O 6921   6.779   4.461   3.341 -0.2774 -0.1730  0.0631
   52MOL0     C 6922   6.704   4.346   3.301  0.0391 -0.0804  0.0048
   52MOL0     C 6923   6.575   4.394   3.228 -0.1795 -0.7003 -0.2802
   52MOL0     C 6924   6.503   4.264   3.181  1.1496 -1.8037 -0.1293
   52MOL0     C 6925   6.401   4.299   3.070 -0.9581 -0.5616 -0.2708
   52MOL0     C 6926   6.281   4.374   3.127 -0.8794 -0.5475 -0.2717
   52MOL0     C 6927   6.167   4.396   3.021  0.2629  0.8545 -0.1740
   52MOL0     C 6928   6.207   4.506   2.920 -0.8347 -1.0999  0.4290
   52MOL0     C 6929   6.090   4.537   2.829  0.0936  0.3163 -0.2439
   52MOL0    Cl 6930   6.157   4.651   2.713 -0.0283 -0.5143 -0.3491
   52MOL0     C 6931   6.974   4.562   3.440  0.3188  0.6242  0.6215
   52MOL0     C 6932   7.098   4.541   3.513  0.0820  0.4538  0.5835
   52MOL0     O 6933   7.222   4.280   3.751 -0.0363 -1.5553  0.7927
   52MOL0     C 6934   7.538   4.407   3.665 -0.6155  0.6682  0.7318
   52MOL0     C 6935   7.672   4.391   3.700  0.2756 -0.1359  0.6928
   52MOL0     N 6936   8.160   4.492   3.272 -0.6220 -0.3118 -0.4327
   52MOL0     N 6937   8.259   4.498   3.187 -0.6454 -0.4952  0.0617
   52MOL0     C 6938   9.360   4.671   3.167 -0.3117 -0.0770 -0.5282
   52MOL0     C 6939   9.496   4.663   3.170  0.6415  0.4547 -0.0441
   52MOL0     C 6940   9.902   4.603   2.964  0.1542 -0.6809 -0.6234
   52MOL0     C 6941   9.986   4.523   2.888 -0.0931  0.3895  0.3915
   52MOL0     C 6942  10.126   4.538   2.891  0.6621 -0.1825  0.0928
   52MOL0     C 6943  10.184   4.629   2.977 -0.2748 -0.1951 -0.5822
   52MOL0     O 6944  10.317   4.659   2.986  0.0436  0.0989  0.0106
   52MOL0     C 6945  10.408   4.562   2.932  0.3553 -0.0872 -0.7791
   52MOL0     C 6946  10.553   4.609   2.957 -0.1057  0.5557 -0.2055
   52MOL0     C 6947  10.586   4.598   3.111  0.7473 -0.7248 -0.0640
   52MOL0     C 6948  10.518   4.701   3.204  0.1707  0.2025  0.4303
   52MOL0     C 6949  10.592   4.722   3.327 -0.3256 -0.9100  0.7628
   52MOL0     C 6950  10.639   4.741   3.440  0.4354 -0.0672  0.0987
   52MOL0     C 6951  10.100   4.715   3.048 -0.0082 -0.0796  0.2249
   52MOL0     C 6952   9.965   4.700   3.045  0.0446  0.2148  0.0474
   52MOL0     H 6953   9.532   4.656   2.822 -0.2660 -0.7216 -0.2376
   52MOL0     H 6954   9.291   4.657   2.838 -3.8413 -4.3257  1.1317
   52MOL0     H 6955   9.093   4.632   3.229  1.6182 -1.4398 -1.5009
   52MOL0     H 6956   9.126   4.793   3.204  1.3719 -0.5942  0.9396
   52MOL0     H 6957   8.905   4.775   3.241  2.9158 -2.4167  1.3548
   52MOL0     H 6958   8.922   4.841   3.085 -0.6006  1.2062  0.9454
   52MOL0     H 6959   8.891   4.590   2.995 -1.8695  1.0330 -1.6046
   52MOL0     H 6960   8.842   4.558   3.169  0.2051  1.4099  1.2879
   52MOL0     H 6961   8.652   4.722   3.121  2.0222  0.4103  1.1233
   52MOL0     H 6962   8.711   4.710   2.952  3.2649 -2.6074 -1.2390
   52MOL0     H 6963   8.698   4.478   2.959  0.1356  0.8736  0.1545
   52MOL0     H 6964   8.615   4.472   3.113  3.1056 -1.2461  0.2348
   52MOL0     H 6965   8.432   4.614   3.010 -2.9461 -3.6824  0.7765
   52MOL0     H 6966   8.513   4.595   2.851  1.4016  2.4212  0.4618
   52MOL0     H 6967   8.340   4.424   2.891  1.0539  0.3790 -1.1512
   52MOL0     H 6968   8.512   4.356   2.875 -0.2898  0.7865 -0.4129
   52MOL0     H 6969   8.504   4.306   3.124 -1.8270  0.7407  2.0928
   52MOL0     H 6970   8.388   4.224   3.029  2.3621 -1.3500 -0.7478
   52MOL0     H 6971   8.229   4.174   3.234 -2.5707 -0.2666 -0.7620
   52MOL0     H 6972   7.948   4.326   3.358 -0.4230  0.5648  1.4492
   52MOL0     H 6973   8.056   4.181   3.385  5.1671  0.9035 -0.7247
   52MOL0     H 6974   8.075   4.432   3.556 -2.6647  0.2813 -0.3949
   52MOL0     H 6975   8.171   4.288   3.576  0.0929  0.1933  0.5736
   52MOL0     H 6976   7.982   4.165   3.655 -2.6756 -0.3655  1.9145
   52MOL0     H 6977   7.872   4.283   3.585 -1.6129 -0.7979  1.1230
   52MOL0     H 6978   7.972   4.454   3.751 -0.6349  0.1412  0.4829
   52MOL0     H 6979   8.063   4.332   3.823  0.2100 -1.6461 -0.2091
   52MOL0     H 6980   7.652   4.214   3.984  2.0896  1.8938  0.1437
   52MOL0     H 6981   7.357   4.107   3.926  1.0978  0.1468 -0.4581
   52MOL0     H 6982   7.444   4.188   4.056 -2.1844 -3.7259  0.8256
   52MOL0     H 6983   7.317   4.272   3.978 -1.7485 -1.6486 -0.5886
   52MOL0     H 6984   7.160   4.219   3.488 -0.2634  0.6083 -0.2256
   52MOL0     H 6985   6.926   4.230   3.384 -1.1828 -0.2589  2.0692
   52MOL0     H 6986   6.763   4.281   3.235 -1.2217 -0.8887 -0.3737
   52MOL0     H 6987   6.686   4.301   3.399 -1.4116  1.3281  0.4230
   52MOL0     H 6988   6.517   4.449   3.302  0.2830  0.3816 -0.7028
   52MOL0     H 6989   6.598   4.462   3.146 -1.1803 -0.2649 -0.2154
   52MOL0     H 6990   6.436   4.234   3.261 -2.2678  0.5351 -1.8564
   52MOL0     H 6991   6.573   4.185   3.151 -0.0837 -1.7011 -3.8689
   52MOL0     H 6992   6.446   4.362   2.992  2.0965 -0.8627  1.1191
   52MOL0     H 6993   6.367   4.206   3.023 -0.5351 -0.4342 -0.8371
   52MOL0     H 6994   6.322   4.468   3.165 -0.1589 -0.1688 -1.8889
   52MOL0     H 6995   6.228   4.321   3.206  1.8337 -2.9386  0.1215
   52MOL0     H 6996   6.135   4.299   2.980  0.4041  0.8829 -0.3520
   52MOL0     H 6997   6.076   4.430   3.072 -1.6734 -2.6891 -0.9165
   52MOL0     H 6998   6.289   4.490   2.849 -0.8721 -0.1507  0.1548
   52MOL0     H 6999   6.224   4.595   2.981 -4.4985 -0.7590  1.2149
   52MOL0     H 7000   6.003   4.579   2.880 -0.9747 -0.9092 -1.0063
   52MOL0     H 7001   6.059   4.440   2.789  2.3952 -2.0232  3.0917
   52MOL0     H 7002   6.934   4.662   3.432  1.2569  0.9497 -0.0773
   52MOL0     H 7003   7.145   4.618   3.574 -0.2864  0.7178  0.5408
   52MOL0     H 7004   7.519   4.467   3.576  0.6557 -0.3106 -0.2553
   52MOL0     H 7005   7.734   4.453   3.636 -3.6293  1.4735 -1.9381
   52MOL0     H 7006   9.303   4.658   3.258  0.3210 -2.5986 -0.4250
   52MOL0     H 7007   9.550   4.667   3.264 -0.5345 -1.4876  0.7616
   52MOL0     H 7008   9.943   4.436   2.838  2.0038 -0.2119 -0.4609
   52MOL0     H 7009  10.181   4.469   2.829  0.2556 -1.4684  1.1107
   52MOL0     H 7010  10.399   4.462   2.977 -0.3127 -0.6438 -2.1133
   52MOL0     H 7011  10.389   4.552   2.825 -0.1268  1.3910 -0.8528
   52MOL0     H 7012  10.554   4.715   2.928 -1.6013  1.1367  1.6542
   52MOL0     H 7013  10.624   4.549   2.899  0.6560  0.9478  0.3025
   52MOL0     H 7014  10.694   4.610   3.124  0.4408  1.3192  1.0062
   52MOL0     H 7015  10.565   4.495   3.143 -4.1442  0.6530  2.1151
   52MOL0     H 7016  10.417   4.677   3.239 -0.4077  1.5082 -0.2502
   52MOL0     H 7017  10.500   4.793   3.147 -0.4361 -1.0044 -1.4059
   52MOL0     H 7018  10.690   4.759   3.533  1.3293  0.0191 -0.3984
   52MOL0     H 7019  10.145   4.791   3.110  0.1377  0.9175 -1.0637
   52MOL0     H 7020   9.908   4.769   3.106 -2.2115 -2.2596  0.9701
   53MOL0     O 7021   7.314   1.914   4.015 -1.0146 -0.3785  0.5567
   53MOL0     C 7022   7.378   1.916   3.917  0.6947 -0.7607  0.2425
   53MOL0     O 7023   7.327   1.954   3.794  0.0080 -0.1219 -1.2208
   53MOL0     C 7024   7.198   2.007   3.788 -0.7004  0.0597 -0.2031
   53MOL0     C 7025   7.167   2.135   3.833  0.2772  0.0523 -0.5639
   53MOL0     C 7026   7.035   2.188   3.821 -0.3487  0.7503  0.0677
   53MOL0     C 7027   6.931   2.099   3.776  0.6158 -0.1166 -0.8688
   53MOL0     O 7028   6.796   2.141   3.780 -0.7383 -0.7215 -0.5638
   53MOL0     C 7029   6.737   2.155   3.642 -0.6271 -0.8671  0.0259
   53MOL0     C 7030   6.639   2.040   3.601 -0.2062  0.6558 -0.5981
   53MOL0     C 7031   6.498   2.051   3.661  0.6422  0.2677  0.0819
   53MOL0     C 7032   6.411   2.144   3.578  0.3801  0.3774 -0.4279
   53MOL0     C 7033   6.271   2.156   3.648 -0.5482 -0.4969 -0.1724
   53MOL0     C 7034   6.164   2.208   3.549 -0.3334  0.3250 -0.3088
   53MOL0     C 7035   6.032   2.203   3.619  0.6548 -0.1833  0.0738
   53MOL0     C 7036   5.935   2.265   3.517 -0.1011 -0.0543 -0.3675
   53MOL0     N 7037   5.792   2.258   3.549 -0.1435 -0.1916 -0.6209
   53MOL0     C 7038   5.746   2.315   3.661  0.7960  0.5529 -0.4090
   53MOL0     C 7039   5.610   2.343   3.639  0.1197 -0.3514  0.7703
   53MOL0     C 7040   5.512   2.425   3.722 -0.4164 -0.0170 -1.3790
   53MOL0     C 7041   5.533   2.412   3.872 -0.4027 -0.7011  0.0389
   53MOL0     C 7042   5.455   2.517   3.944  0.2194 -1.5955  0.2946
   53MOL0     C 7043   5.495   2.515   4.091 -0.4917  0.1908  1.0252
   53MOL0     O 7044   5.436   2.615   4.172 -0.6034  0.2120 -0.5452
   53MOL0     C 7045   5.304   2.623   4.199 -1.1560 -0.5650 -1.3374
   53MOL0     C 7046   5.280   2.742   4.260  0.0591  0.3943  1.0660
   53MOL0     C 7047   5.150   2.790   4.285 -0.5996  0.6062  0.3595
   53MOL0     C 7048   5.139   2.924   4.345  0.6532  0.0775 -0.6403
   53MOL0     C 7049   5.039   2.711   4.241 -0.2924 -0.0722 -0.2622
   53MOL0     C 7050   4.897   2.752   4.260 -0.8569 -0.2057  0.7692
   53MOL0     O 7051   4.859   2.880   4.243 -0.1188  0.7083 -0.4246
   53MOL0     C 7052   4.735   2.905   4.215 -0.5384 -0.1350 -0.3235
   53MOL0     C 7053   4.693   2.878   4.087 -0.1239  0.1539 -0.0697
   53MOL0     C 7054   4.557   2.895   4.059  0.0323  0.1979  0.0887
   53MOL0     C 7055   4.465   2.929   4.155 -0.6728 -0.0036 -0.1637
   53MOL0     O 7056   4.331   2.946   4.136 -0.2275 -0.9951 -0.4895
   53MOL0     C 7057   4.253   2.924   4.021  0.8010 -0.1286  0.0207
   53MOL0     C 7058   4.176   3.039   3.960 -0.0480 -0.0433 -0.5777
   53MOL0     C 7059   4.077   3.090   4.061  0.0481  0.3268  0.1466
   53MOL0     C 7060   4.024   3.225   4.013 -0.6064  0.1697 -0.5247
   53MOL0     C 7061   3.887   3.209   3.947 -0.2972  0.2725 -0.5856
   53MOL0     C 7062   3.834   3.349   3.897  0.3452 -0.3357 -0.7336
   53MOL0     C 7063   3.698   3.326   3.821  0.5803 -0.0997  0.6532
   53MOL0     C 7064   3.576   3.332   3.910 -0.0158 -0.3326  0.0419
   53MOL0    Cl 7065   3.588   3.486   3.998  0.2849  0.3637  0.2678
   53MOL0     C 7066   4.505   2.953   4.285 -0.6015 -0.6331 -0.4439
   53MOL0     C 7067   4.645   2.936   4.322  0.6005  0.0222  1.3272
   53MOL0     O 7068   4.821   2.659   4.291 -0.2339 -0.3961 -0.0013
   53MOL0     C 7069   5.070   2.584   4.183 -0.7120  0.3223  0.0149
   53MOL0     C 7070   5.206   2.531   4.173  0.1993 -0.4557  0.1865
   53MOL0     N 7071   5.583   2.278   3.513  0.0925  0.0842 -0.9285
   53MOL0     N 7072   5.693   2.232   3.466  0.4654  0.3688  0.1803
   53MOL0     C 7073   6.966   1.975   3.741 -1.0220 -0.2395 -0.7853
   53MOL0     C 7074   7.096   1.929   3.738  0.2327 -0.3052  0.6960
   53MOL0     C 7075   7.519   1.870   3.936  0.2074 -0.7270  1.2290
   53MOL0     C 7076   7.564   1.814   4.055  0.6828 -0.6596  0.3857
   53MOL0     C 7077   7.698   1.786   4.069  0.9278  0.7456 -1.6889
   53MOL0     C 7078   7.784   1.785   3.957 -0.2473 -0.1653 -0.2894
   53MOL0     O 7079   7.912   1.744   3.965 -0.5413  1.2400  0.6731
   53MOL0     C 7080   7.983   1.715   4.089 -0.8529  0.2077  0.7121
   53MOL0     C 7081   8.127   1.660   4.042  0.7351  0.6539 -0.1428
   53MOL0     C 7082   8.219   1.761   3.975 -0.8129 -0.1708  0.6630
   53MOL0     C 7083   8.264   1.876   4.076  0.4992 -0.4058  0.9285
   53MOL0     C 7084   8.347   1.980   4.007  0.0364  0.8836  0.5656
   53MOL0     C 7085   8.408   2.078   3.956  0.5958 -0.0458  0.1373
   53MOL0     C 7086   7.737   1.829   3.836  0.5595  0.1727  0.6458
   53MOL0     C 7087   7.604   1.869   3.825  0.0478  0.1360  0.3173
   53MOL0     H 7088   7.252   2.193   3.869  0.8810  0.1166 -2.0040
   53MOL0     H 7089   7.005   2.285   3.858  1.2273  0.8464  1.2037
   53MOL0     H 7090   6.685   2.252   3.647  1.5989  0.3476  1.5019
   53MOL0     H 7091   6.813   2.169   3.565 -1.7287 -0.2831 -1.0036
   53MOL0     H 7092   6.639   2.039   3.492 -0.3157  2.8993 -0.6461
   53MOL0     H 7093   6.683   1.941   3.618  1.2210  1.3639  0.0135
   53MOL0     H 7094   6.450   1.952   3.659  0.4958  0.3464 -1.7137
   53MOL0     H 7095   6.505   2.085   3.765 -0.4752 -1.4228  0.7696
   53MOL0     H 7096   6.461   2.239   3.555  0.0336  1.1384  1.7583
   53MOL0     H 7097   6.393   2.100   3.479  0.3547  0.6116 -0.5297
   53MOL0     H 7098   6.234   2.061   3.687 -1.9975 -0.7710 -2.0867
   53MOL0     H 7099   6.281   2.214   3.741 -0.7429  0.3751 -0.6836
   53MOL0     H 7100   6.185   2.309   3.511 -1.8586  0.6271 -0.4001
   53MOL0     H 7101   6.163   2.147   3.458 -0.7155  0.1325 -0.1759
   53MOL0     H 7102   6.006   2.101   3.647  3.4697 -0.9747  0.1448
   53MOL0     H 7103   6.043   2.262   3.710  1.2975  0.8952 -0.6651
   53MOL0     H 7104   5.936   2.210   3.422 -2.0120 -0.4313 -0.1977
   53MOL0     H 7105   5.951   2.372   3.503  0.4449 -0.0743  0.0538
   53MOL0     H 7106   5.810   2.362   3.735  2.7277  0.5816 -2.0155
   53MOL0     H 7107   5.516   2.530   3.692  1.3581  0.1901 -0.4917
   53MOL0     H 7108   5.411   2.388   3.701 -1.4554  1.4788  0.6911
   53MOL0     H 7109   5.639   2.421   3.899 -1.0112  3.1687  1.7451
   53MOL0     H 7110   5.502   2.314   3.909  1.5523 -0.8636  1.4163
   53MOL0     H 7111   5.347   2.504   3.927  0.1860 -1.4916  0.4289
   53MOL0     H 7112   5.478   2.620   3.916  2.2587 -1.4814  2.1099
   53MOL0     H 7113   5.605   2.515   4.094 -0.3142  0.6825 -2.2638
   53MOL0     H 7114   5.482   2.413   4.129 -0.0549 -1.0201 -1.8010
   53MOL0     H 7115   5.364   2.808   4.282 -1.4609  3.3098 -1.0544
   53MOL0     H 7116   5.145   3.007   4.273 -1.5280  0.5841 -0.3086
   53MOL0     H 7117   5.044   2.939   4.397  1.2960 -0.2631  0.6855
   53MOL0     H 7118   5.224   2.941   4.412  0.8076 -1.2338 -0.4855
   53MOL0     H 7119   4.773   2.868   4.015  1.2292 -2.0335  1.5875
   53MOL0     H 7120   4.536   2.875   3.954 -2.5839 -1.6169  0.8736
   53MOL0     H 7121   4.311   2.880   3.939  3.1109 -1.9325  2.4373
   53MOL0     H 7122   4.175   2.852   4.051  1.8374 -0.4928  1.9957
   53MOL0     H 7123   4.244   3.115   3.919 -0.7746  0.5630 -0.6682
   53MOL0     H 7124   4.127   2.997   3.872 -0.8070 -0.6697  0.1304
   53MOL0     H 7125   4.122   3.103   4.160 -0.3503  2.3443  0.0953
   53MOL0     H 7126   3.985   3.031   4.073 -1.0745  1.5943 -1.7937
   53MOL0     H 7127   3.997   3.273   4.107 -5.4036  1.0149 -2.0409
   53MOL0     H 7128   4.105   3.281   3.965  1.6104 -1.8175  0.7048
   53MOL0     H 7129   3.813   3.159   4.011  0.6138 -0.7072 -0.2646
   53MOL0     H 7130   3.895   3.145   3.858  1.2923  1.4870 -1.3773
   53MOL0     H 7131   3.837   3.424   3.976  0.6884  2.1876 -3.0211
   53MOL0     H 7132   3.902   3.377   3.816 -1.2987  1.6441 -1.5040
   53MOL0     H 7133   3.696   3.231   3.766 -0.2777 -2.4469  4.3598
   53MOL0     H 7134   3.692   3.411   3.752 -1.8403 -1.0544 -0.4273
   53MOL0     H 7135   3.575   3.241   3.970  1.8726 -1.7988 -2.0126
   53MOL0     H 7136   3.490   3.340   3.842  1.2799  0.5113 -1.5896
   53MOL0     H 7137   4.436   2.970   4.367  1.5145  1.6844  0.9943
   53MOL0     H 7138   4.686   2.943   4.422  1.3274 -1.6455  1.1766
   53MOL0     H 7139   4.996   2.521   4.135  0.3683 -1.3859  0.5156
   53MOL0     H 7140   5.220   2.432   4.132  1.6839  0.2941 -1.2409
   53MOL0     H 7141   6.895   1.901   3.707 -1.2359 -1.2209  1.6126
   53MOL0     H 7142   7.114   1.827   3.706  0.8762 -0.0127  0.0903
   53MOL0     H 7143   7.502   1.824   4.144  1.1903  1.2915  0.5842
   53MOL0     H 7144   7.738   1.769   4.168  1.6293 -1.1143 -2.2472
   53MOL0     H 7145   8.000   1.802   4.153 -0.5337 -0.4036  1.4823
   53MOL0     H 7146   7.924   1.639   4.143 -1.8851  0.6265  0.1995
   53MOL0     H 7147   8.112   1.587   3.962  1.2445  1.2660 -0.8094
   53MOL0     H 7148   8.185   1.610   4.119 -1.8391  1.9610  2.8836
   53MOL0     H 7149   8.168   1.796   3.885 -1.6310  1.5971  1.7662
   53MOL0     H 7150   8.308   1.708   3.939  0.3382  1.5771  0.8432
   53MOL0     H 7151   8.316   1.826   4.157 -0.8558 -3.2385  0.1784
   53MOL0     H 7152   8.179   1.928   4.123  1.5263 -0.3771  2.8722
   53MOL0     H 7153   8.448   2.166   3.911 -1.1755  1.4689  1.3313
   53MOL0     H 7154   7.794   1.813   3.745  0.1704 -1.2084  0.6227
   53MOL0     H 7155   7.570   1.904   3.728 -0.6906 -0.6104  0.2914
   54MOL0     O 7156   7.813   5.240   5.676  0.1967 -0.0450  0.0843
   54MOL0     C 7157   7.837   5.349   5.625  0.1020 -0.3555 -0.6471
   54MOL0     O 7158   7.741   5.448   5.603 -0.4013 -0.0933 -0.0546
   54MOL0     C 7159   7.610   5.437   5.646 -1.5079 -0.3104 -0.3220
   54MOL0     C 7160   7.574   5.404   5.779  0.3147  0.0610 -0.3982
   54MOL0     C 7161   7.439   5.396   5.811 -0.4438  0.2450  0.1640
   54MOL0     C 7162   7.332   5.416   5.717 -0.7703  0.5694 -1.0567
   54MOL0     O 7163   7.201   5.406   5.755  0.6419 -0.4928 -0.0033
   54MOL0     C 7164   7.103   5.392   5.652  0.1133 -0.3285  0.0242
   54MOL0     C 7165   6.976   5.403   5.742  0.7782 -0.0545 -0.3381
   54MOL0     C 7166   6.853   5.416   5.656 -0.3752  0.0521 -0.4457
   54MOL0     C 7167   6.848   5.312   5.540  0.2068  0.1745 -0.3297
   54MOL0     C 7168   6.706   5.312   5.483 -0.4836 -0.1540 -0.3921
   54MOL0     C 7169   6.658   5.170   5.466 -0.2055 -0.4928 -0.5997
   54MOL0     C 7170   6.728   5.093   5.348  0.0899 -0.3563 -0.5479
   54MOL0     C 7171   6.696   4.941   5.361  0.0823 -0.5862  0.5104
   54MOL0     N 7172   6.559   4.919   5.408 -0.1906 -0.1829 -0.0058
   54MOL0     C 7173   6.527   4.880   5.537  0.4779 -0.1690  0.0961
   54MOL0     C 7174   6.396   4.856   5.530 -0.8366  0.9139  0.1501
   54MOL0     C 7175   6.300   4.793   5.630  0.1218 -0.1804 -0.0713
   54MOL0     C 7176   6.342   4.649   5.683  0.4690 -0.5024  0.4352
   54MOL0     C 7177   6.259   4.598   5.804 -0.1127 -0.3527  0.0350
   54MOL0     C 7178   6.111   4.614   5.780  0.0217 -0.8269  0.0676
   54MOL0     O 7179   6.053   4.564   5.898 -0.1339 -0.7018 -0.6471
   54MOL0     C 7180   5.916   4.572   5.924 -0.7834 -0.1506 -0.3753
   54MOL0     C 7181   5.885   4.549   6.059  0.2342  0.6114 -0.1965
   54MOL0     C 7182   5.751   4.565   6.104  1.3873  0.2925 -0.5492
   54MOL0     C 7183   5.737   4.548   6.253  0.0661  0.1492 -0.6668
   54MOL0     C 7184   5.645   4.587   6.012  0.1831  0.3184  1.0897
   54MOL0     C 7185   5.492   4.595   6.037 -0.7659  0.2943  0.1922
   54MOL0     O 7186   5.444   4.528   6.146  0.2747  0.0507 -0.0034
   54MOL0     C 7187   5.310   4.521   6.141  0.2124 -0.7836  0.1648
   54MOL0     C 7188   5.243   4.437   6.049  0.0726  0.1232 -0.1228
   54MOL0     C 7189   5.107   4.461   6.050  1.0156  0.9597 -0.3825
   54MOL0     C 7190   5.034   4.529   6.145 -0.9446  0.7887  0.9018
   54MOL0     O 7191   4.901   4.531   6.143  0.0443  0.4365 -0.3335
   54MOL0     C 7192   4.843   4.551   6.016 -0.1314 -0.1639 -0.0070
   54MOL0     C 7193   4.704   4.586   6.051 -0.0100  1.1819  1.7360
   54MOL0     C 7194   4.632   4.619   5.916 -0.4656  0.4596 -0.1321
   54MOL0     C 7195   4.484   4.636   5.936  0.1890 -0.2813  0.7202
   54MOL0     C 7196   4.422   4.635   5.791 -0.8795 -0.8293 -0.0599
   54MOL0     C 7197   4.268   4.619   5.795 -0.2805  0.0991  0.3629
   54MOL0     C 7198   4.224   4.475   5.851  0.0833  1.0212  0.2558
   54MOL0     C 7199   4.164   4.377   5.738  0.4646 -1.0928  0.0681
   54MOL0    Cl 7200   4.265   4.324   5.593 -0.0108  0.2777 -0.1813
   54MOL0     C 7201   5.102   4.603   6.239 -0.6664 -0.3007  0.4981
   54MOL0     C 7202   5.237   4.598   6.239 -1.4702 -0.4427 -0.4319
   54MOL0     O 7203   5.424   4.647   5.946  0.0626  0.2363 -0.1170
   54MOL0     C 7204   5.690   4.630   5.886  0.4447  0.1117  0.4570
   54MOL0     C 7205   5.817   4.623   5.841  0.0722 -1.3728  0.2034
   54MOL0     N 7206   6.354   4.884   5.399 -0.4596  0.5684 -0.1633
   54MOL0     N 7207   6.451   4.919   5.330  0.1140 -0.0254  0.1486
   54MOL0     C 7208   7.370   5.467   5.594 -0.7132 -0.3332 -0.5792
   54MOL0     C 7209   7.512   5.467   5.560  0.4469 -0.4000 -0.3565
   54MOL0     C 7210   7.976   5.383   5.574 -0.1634 -0.6289  0.1198
   54MOL0     C 7211   8.089   5.315   5.626 -0.2766 -0.4014  0.3776
   54MOL0     C 7212   8.220   5.336   5.573  1.0143 -0.5107 -0.3624
   54MOL0     C 7213   8.226   5.422   5.458  0.8369 -0.2019  0.0510
   54MOL0     O 7214   8.347   5.440   5.394  0.5860  0.3480 -0.9890
   54MOL0     C 7215   8.472   5.389   5.453  0.2244 -0.2349  0.2395
   54MOL0     C 7216   8.587   5.440   5.361 -0.2433  0.4125 -0.3045
   54MOL0     C 7217   8.601   5.364   5.219  0.2071 -0.9861 -0.4664
   54MOL0     C 7218   8.721   5.413   5.141 -0.3764 -0.0902 -0.0818
   54MOL0     C 7219   8.855   5.411   5.205 -0.3093  0.2736 -0.3076
   54MOL0     C 7220   8.961   5.404   5.261 -0.0539 -0.3836  0.1525
   54MOL0     C 7221   8.115   5.484   5.407 -0.1875 -0.1812  0.4115
   54MOL0     C 7222   7.994   5.484   5.476  0.7706 -0.0123  0.0324
   54MOL0     H 7223   7.642   5.390   5.862 -0.7684  3.0261  1.1371
   54MOL0     H 7224   7.412   5.375   5.914  1.1213 -1.6503  0.2426
   54MOL0     H 7225   7.114   5.469   5.574  1.5186 -0.7955 -0.2701
   54MOL0     H 7226   7.109   5.295   5.602  4.3507 -1.0338  1.5552
   54MOL0     H 7227   6.956   5.312   5.800 -2.6419  0.6473 -0.1755
   54MOL0     H 7228   6.983   5.493   5.803  1.6071  0.4334 -1.1361
   54MOL0     H 7229   6.770   5.406   5.727  0.9697  1.0486  1.3668
   54MOL0     H 7230   6.839   5.517   5.617 -0.4226 -0.6495 -2.3474
   54MOL0     H 7231   6.923   5.339   5.465 -1.9749 -0.7940 -3.0541
   54MOL0     H 7232   6.889   5.219   5.581  2.7866  1.5079  0.3310
   54MOL0     H 7233   6.643   5.365   5.556  1.2302  0.6190  0.5889
   54MOL0     H 7234   6.709   5.378   5.396  4.0185  1.9341  1.0604
   54MOL0     H 7235   6.667   5.121   5.563  0.6997  0.0420 -0.4004
   54MOL0     H 7236   6.555   5.169   5.430 -1.3020 -0.1337  2.2452
   54MOL0     H 7237   6.683   5.137   5.258 -5.5981  2.7542  3.1721
   54MOL0     H 7238   6.836   5.109   5.344 -0.2209  2.2402 -0.6828
   54MOL0     H 7239   6.772   4.899   5.427  0.4791 -0.9907 -0.1979
   54MOL0     H 7240   6.715   4.893   5.265 -3.3667 -0.4507 -0.3773
   54MOL0     H 7241   6.600   4.863   5.616 -0.5367  0.1507  1.1454
   54MOL0     H 7242   6.297   4.861   5.715 -3.5489 -0.0618 -0.1329
   54MOL0     H 7243   6.199   4.795   5.587 -0.5696 -1.2658  1.4158
   54MOL0     H 7244   6.443   4.649   5.725  0.6138 -2.1574  0.1886
   54MOL0     H 7245   6.344   4.582   5.596  1.3963 -0.2170  0.2229
   54MOL0     H 7246   6.284   4.661   5.891 -0.4063  2.0748 -1.5408
   54MOL0     H 7247   6.276   4.496   5.841  2.5130  0.3406  0.9640
   54MOL0     H 7248   6.073   4.553   5.698  0.3076  0.6446 -1.2258
   54MOL0     H 7249   6.080   4.719   5.772 -0.7077 -0.8710  1.8499
   54MOL0     H 7250   5.961   4.522   6.131 -0.8219  1.0667  1.1275
   54MOL0     H 7251   5.722   4.442   6.278  0.5840  0.7577  2.6154
   54MOL0     H 7252   5.828   4.584   6.301 -0.6501  0.6019  0.3765
   54MOL0     H 7253   5.652   4.606   6.288  2.1650  1.5485  2.5331
   54MOL0     H 7254   5.303   4.363   5.997 -0.0985 -0.7305  0.8632
   54MOL0     H 7255   5.045   4.394   5.991  2.7873  0.2852 -1.5539
   54MOL0     H 7256   4.905   4.634   5.982  0.8679  0.8107  3.8097
   54MOL0     H 7257   4.838   4.464   5.950 -0.3583  0.0841 -0.3228
   54MOL0     H 7258   4.649   4.507   6.103 -2.8979 -0.3604 -2.9748
   54MOL0     H 7259   4.715   4.677   6.110  1.9517  1.3048  1.2340
   54MOL0     H 7260   4.644   4.531   5.853  1.7151 -1.2525  2.4445
   54MOL0     H 7261   4.672   4.708   5.869  0.2346 -0.1981 -0.7944
   54MOL0     H 7262   4.443   4.550   5.989  0.2276 -2.0116 -1.8784
   54MOL0     H 7263   4.470   4.731   5.989  4.4077  1.1838 -0.3702
   54MOL0     H 7264   4.468   4.546   5.747  2.4647  1.1739 -0.9408
   54MOL0     H 7265   4.456   4.726   5.741  1.6592 -1.0478  1.0951
   54MOL0     H 7266   4.220   4.698   5.853 -2.5669 -1.8508  1.2977
   54MOL0     H 7267   4.235   4.621   5.690  1.8743  0.0802 -0.3720
   54MOL0     H 7268   4.138   4.488   5.918 -0.3534  1.5624 -0.4058
   54MOL0     H 7269   4.303   4.418   5.902 -1.6653 -3.5475 -1.6087
   54MOL0     H 7270   4.071   4.421   5.700  1.3734  1.7700  0.9012
   54MOL0     H 7271   4.138   4.287   5.795  1.4907  0.1102  2.5399
   54MOL0     H 7272   5.037   4.644   6.316 -0.3345 -0.9564  1.1355
   54MOL0     H 7273   5.307   4.654   6.300  2.0688 -3.9084 -0.9017
   54MOL0     H 7274   5.622   4.662   5.807  2.1869  1.9621 -0.3828
   54MOL0     H 7275   5.855   4.660   5.746  1.9241 -3.4765  0.0247
   54MOL0     H 7276   7.307   5.512   5.518  2.7243  2.8164 -1.8804
   54MOL0     H 7277   7.540   5.517   5.468  0.4271  0.1710 -0.0534
   54MOL0     H 7278   8.074   5.236   5.700 -1.1641 -0.7471 -0.1529
   54MOL0     H 7279   8.302   5.279   5.616  0.0285 -2.2063 -0.6745
   54MOL0     H 7280   8.480   5.437   5.551 -0.4528  1.3368 -0.4318
   54MOL0     H 7281   8.464   5.280   5.463 -5.0255 -0.3476 -1.8826
   54MOL0     H 7282   8.668   5.424   5.433 -1.3290 -1.7297  0.5346
   54MOL0     H 7283   8.577   5.547   5.343 -1.9713  0.5549  1.0953
   54MOL0     H 7284   8.509   5.385   5.164  2.0124  0.9711 -3.0051
   54MOL0     H 7285   8.617   5.260   5.248  0.8430 -1.0076 -0.8830
   54MOL0     H 7286   8.704   5.518   5.113  0.9656  0.3688  0.7007
   54MOL0     H 7287   8.729   5.367   5.042  0.0858 -0.4438  0.1208
   54MOL0     H 7288   9.054   5.414   5.313 -0.8466 -0.2421  1.6044
   54MOL0     H 7289   8.137   5.539   5.317 -1.7297  0.4387  0.3960
   54MOL0     H 7290   7.915   5.543   5.431 -1.0999 -1.3772  1.3772
   55MOL0     O 7291   8.929   5.047   4.944 -0.6529 -0.4754 -0.7051
   55MOL0     C 7292   8.901   4.931   4.977 -0.0682  0.2002 -0.5997
   55MOL0     O 7293   8.792   4.893   5.059  0.1771 -0.0116  0.0008
   55MOL0     C 7294   8.666   4.950   5.042  0.0176  1.0935 -0.7476
   55MOL0     C 7295   8.631   5.054   4.965  0.7532  0.3303 -0.0275
   55MOL0     C 7296   8.501   5.105   4.981  0.4798  0.1133  0.0829
   55MOL0     C 7297   8.410   5.049   5.071  0.2069  0.0230  0.1754
   55MOL0     O 7298   8.281   5.095   5.091 -0.0197  0.2342 -0.2532
   55MOL0     C 7299   8.214   5.189   5.002  0.0768  0.0337  0.6533
   55MOL0     C 7300   8.103   5.249   5.082  0.6721 -0.0316  0.6447
   55MOL0     C 7301   7.999   5.142   5.116 -0.1797  0.2297  0.3691
   55MOL0     C 7302   7.874   5.211   5.188 -0.9968  0.4114 -0.2948
   55MOL0     C 7303   7.764   5.115   5.230 -0.0509  0.1935  0.2443
   55MOL0     C 7304   7.655   5.188   5.305  0.7406  0.6458  0.4739
   55MOL0     C 7305   7.539   5.094   5.327 -0.2812 -0.2903 -0.4012
   55MOL0     C 7306   7.437   5.162   5.421 -0.6399  0.3316  0.4252
   55MOL0     N 7307   7.320   5.071   5.441 -0.2181 -0.4619 -0.4781
   55MOL0     C 7308   7.277   5.036   5.571 -0.8772  0.3378 -1.0726
   55MOL0     C 7309   7.154   4.981   5.546  0.0022 -0.2335 -0.6689
   55MOL0     C 7310   7.054   4.926   5.645 -0.6155  0.7955  0.5741
   55MOL0     C 7311   7.043   4.993   5.783 -0.3165  0.4131  0.1515
   55MOL0     C 7312   6.928   4.935   5.867 -0.4764  0.4780  0.2004
   55MOL0     C 7313   6.794   5.004   5.834  0.6018 -0.2735  0.4045
   55MOL0     O 7314   6.687   4.942   5.908  0.3205 -0.5064  0.0731
   55MOL0     C 7315   6.563   5.001   5.902 -0.6159  0.3736 -0.3899
   55MOL0     C 7316   6.527   5.120   5.842  0.9908 -0.0319 -0.4729
   55MOL0     C 7317   6.394   5.169   5.836 -0.0110  0.7231  0.3860
   55MOL0     C 7318   6.386   5.306   5.768 -0.2388 -0.0660  0.5813
   55MOL0     C 7319   6.291   5.111   5.913 -0.0446 -0.1453  0.1430
   55MOL0     C 7320   6.157   5.167   5.932  0.4476  0.1667 -0.4547
   55MOL0     O 7321   6.082   5.084   6.005  0.1183 -0.5320 -0.1242
   55MOL0     C 7322   5.948   5.090   5.990  0.4319  0.0016  0.1493
   55MOL0     C 7323   5.895   5.022   5.875 -0.5535 -0.2739 -0.0736
   55MOL0     C 7324   5.758   5.029   5.845 -0.1022 -0.5840  0.4469
   55MOL0     C 7325   5.670   5.102   5.932  0.1713 -0.5061  0.4997
   55MOL0     O 7326   5.533   5.096   5.913 -0.0971  0.2738 -0.7440
   55MOL0     C 7327   5.442   5.173   5.998 -0.5487  0.0700 -0.7801
   55MOL0     C 7328   5.296   5.115   5.960  0.9186 -0.0961 -0.3537
   55MOL0     C 7329   5.194   5.183   6.057 -0.0254 -0.0966  0.0025
   55MOL0     C 7330   5.050   5.162   6.005 -0.5678  0.5142 -0.7972
   55MOL0     C 7331   4.982   5.030   6.052  0.1751  0.1695 -0.9132
   55MOL0     C 7332   4.838   4.995   6.016 -0.2055  0.8219  0.3564
   55MOL0     C 7333   4.737   5.109   6.045 -0.5557  0.0978 -0.5547
   55MOL0     C 7334   4.595   5.067   6.055  0.6740  0.6090 -0.1000
   55MOL0    Cl 7335   4.533   5.010   5.886 -0.1357 -0.0867 -0.4800
   55MOL0     C 7336   5.726   5.164   6.047  0.0040  0.0209 -0.0592
   55MOL0     C 7337   5.860   5.159   6.079 -0.4351  0.5035 -0.4753
   55MOL0     O 7338   6.112   5.271   5.879 -0.3513  0.3465 -0.1105
   55MOL0     C 7339   6.338   4.994   5.974  0.1862 -0.1800 -1.0791
   55MOL0     C 7340   6.459   4.933   5.958 -1.0295 -0.4226 -0.5050
   55MOL0     N 7341   7.125   4.993   5.410 -0.1923  0.0074  0.1504
   55MOL0     N 7342   7.236   5.028   5.349  0.7524 -0.1033  0.3048
   55MOL0     C 7343   8.451   4.946   5.148 -0.0535 -0.8871 -0.8306
   55MOL0     C 7344   8.576   4.902   5.147  0.0809  0.3521 -0.3990
   55MOL0     C 7345   8.996   4.822   4.933  0.6764  0.2447 -0.1068
   55MOL0     C 7346   8.982   4.698   5.007 -0.0781  0.8048 -0.2707
   55MOL0     C 7347   9.071   4.589   4.986  1.0092 -0.3484  0.9083
   55MOL0     C 7348   9.166   4.604   4.887 -0.2460  0.3164 -1.2520
   55MOL0     O 7349   9.228   4.493   4.844 -0.0539 -0.0805  0.4142
   55MOL0     C 7350   9.336   4.494   4.750  0.6723  0.6108 -0.1894
   55MOL0     C 7351   9.387   4.346   4.748 -0.0690 -0.8727  0.1220
   55MOL0     C 7352   9.275   4.241   4.702 -0.1600  0.3420  0.4449
   55MOL0     C 7353   9.277   4.233   4.545  0.3634  0.8018 -0.5350
   55MOL0     C 7354   9.195   4.339   4.486  0.4019  0.2745  0.6554
   55MOL0     C 7355   9.136   4.419   4.409  0.2601  0.9035  0.3686
   55MOL0     C 7356   9.181   4.723   4.809 -0.8020 -0.7774 -0.4734
   55MOL0     C 7357   9.098   4.834   4.838  0.5651  0.7599 -0.4493
   55MOL0     H 7358   8.704   5.095   4.897  1.4000 -1.3367 -0.3743
   55MOL0     H 7359   8.461   5.183   4.917 -0.6767  0.1048  0.7581
   55MOL0     H 7360   8.278   5.272   4.974  0.7975 -1.4910 -2.7864
   55MOL0     H 7361   8.170   5.146   4.911  0.2344  0.5321  0.3403
   55MOL0     H 7362   8.140   5.282   5.179  2.3235 -1.7178  0.6580
   55MOL0     H 7363   8.058   5.336   5.034  1.0445  0.6501  1.5270
   55MOL0     H 7364   7.968   5.074   5.036 -1.6483 -1.4371  2.2417
   55MOL0     H 7365   8.043   5.081   5.196  1.9638  0.4793 -0.5651
   55MOL0     H 7366   7.903   5.263   5.280  0.5445  1.5184 -1.3558
   55MOL0     H 7367   7.840   5.290   5.121 -0.5634  1.0090  0.1668
   55MOL0     H 7368   7.728   5.060   5.142  2.7667 -0.0776 -0.8538
   55MOL0     H 7369   7.807   5.046   5.302 -1.6300  0.1699  1.2099
   55MOL0     H 7370   7.695   5.235   5.395 -0.0816  2.4870 -0.0787
   55MOL0     H 7371   7.613   5.268   5.244  0.9669 -0.5139 -1.2875
   55MOL0     H 7372   7.488   5.068   5.233  1.2195 -1.7278 -0.8835
   55MOL0     H 7373   7.569   4.996   5.365  0.2113  0.3607  0.9407
   55MOL0     H 7374   7.392   5.245   5.365 -1.8434  0.5219  1.6316
   55MOL0     H 7375   7.492   5.198   5.509  1.4790  1.8945 -1.4072
   55MOL0     H 7376   7.332   5.030   5.664 -2.2095  3.3565  0.0543
   55MOL0     H 7377   6.957   4.932   5.595 -0.7461 -1.2536  0.5041
   55MOL0     H 7378   7.077   4.821   5.665  0.2887  0.6600 -1.0554
   55MOL0     H 7379   7.036   5.101   5.765 -1.6025  0.3515  0.2079
   55MOL0     H 7380   7.130   4.971   5.845  0.3872  2.6172  0.0340
   55MOL0     H 7381   6.953   4.943   5.973 -0.4316 -0.7676  0.3019
   55MOL0     H 7382   6.914   4.828   5.847 -1.4492  0.8040 -1.0229
   55MOL0     H 7383   6.772   4.993   5.727  0.5884 -0.6344  0.4422
   55MOL0     H 7384   6.789   5.113   5.841 -0.4105 -0.0951 -2.0294
   55MOL0     H 7385   6.597   5.172   5.777 -1.1977 -1.2014 -4.0768
   55MOL0     H 7386   6.329   5.296   5.675 -0.5269 -0.2564  0.7757
   55MOL0     H 7387   6.336   5.382   5.829  1.3420  0.5889  1.1209
   55MOL0     H 7388   6.482   5.354   5.747 -1.6217  2.0937 -1.3288
   55MOL0     H 7389   5.969   4.983   5.807 -0.1980 -0.6913  0.5395
   55MOL0     H 7390   5.718   4.995   5.750 -2.6365  0.8088  0.9109
   55MOL0     H 7391   5.463   5.146   6.102  0.3308 -2.3179 -1.5210
   55MOL0     H 7392   5.446   5.280   5.977  0.9942 -0.0790 -1.4154
   55MOL0     H 7393   5.273   5.155   5.861  1.7597  0.6081 -0.2762
   55MOL0     H 7394   5.308   5.006   5.960  2.5035  0.0617 -0.1858
   55MOL0     H 7395   5.206   5.291   6.070 -0.2734  0.1012 -1.3210
   55MOL0     H 7396   5.187   5.132   6.154 -1.9418 -1.9604 -1.0138
   55MOL0     H 7397   4.986   5.240   6.048  0.4971  0.8690  0.1920
   55MOL0     H 7398   5.059   5.176   5.897 -0.0491  2.2129 -0.5607
   55MOL0     H 7399   4.996   5.040   6.160  2.0396  2.2887 -1.2569
   55MOL0     H 7400   5.048   4.954   6.010  1.9179  2.3880 -2.4350
   55MOL0     H 7401   4.842   4.977   5.908  0.8224  0.0991  0.4979
   55MOL0     H 7402   4.811   4.910   6.080 -2.3756  1.8416  0.8872
   55MOL0     H 7403   4.744   5.188   5.970  2.4562 -2.1130 -2.8651
   55MOL0     H 7404   4.764   5.170   6.132 -1.3282 -1.1637  0.6185
   55MOL0     H 7405   4.541   5.152   6.099  0.6893  0.6266 -0.1156
   55MOL0     H 7406   4.586   4.978   6.117  3.6929 -0.6351 -1.2432
   55MOL0     H 7407   5.657   5.213   6.115 -1.5164 -1.8243 -0.1960
   55MOL0     H 7408   5.885   5.207   6.173  0.0422 -0.7262  0.0460
   55MOL0     H 7409   6.274   4.937   6.039  2.9449 -0.9017  1.1904
   55MOL0     H 7410   6.486   4.839   6.007  0.3446  0.3762  0.3569
   55MOL0     H 7411   8.379   4.898   5.213  1.9694 -0.8999  1.5133
   55MOL0     H 7412   8.614   4.832   5.220 -4.7810 -1.5015  0.6652
   55MOL0     H 7413   8.902   4.689   5.079  0.0659 -0.5084 -0.2620
   55MOL0     H 7414   9.082   4.498   5.044  0.2804  0.0913  1.7667
   55MOL0     H 7415   9.302   4.525   4.651  1.9882  0.7424 -0.6174
   55MOL0     H 7416   9.415   4.564   4.780  0.8905  0.5361 -0.5920
   55MOL0     H 7417   9.404   4.317   4.852 -0.0012 -2.3378 -0.2751
   55MOL0     H 7418   9.484   4.340   4.697  0.2595  0.8814  0.4657
   55MOL0     H 7419   9.177   4.266   4.743 -0.8120  0.8314 -1.2944
   55MOL0     H 7420   9.297   4.143   4.745 -0.3349  0.1883  0.1920
   55MOL0     H 7421   9.226   4.143   4.511  0.1426  0.4393  0.6930
   55MOL0     H 7422   9.384   4.229   4.525  1.2152 -0.8021  3.4312
   55MOL0     H 7423   9.088   4.474   4.331 -2.2979 -0.7355  0.6374
   55MOL0     H 7424   9.259   4.732   4.735  2.9198  1.5591  3.2378
   55MOL0     H 7425   9.116   4.924   4.779  1.1100  1.3420  0.5800
   56MOL0     O 7426   9.230   3.223   8.138  0.2882 -0.4985 -0.1354
   56MOL0     C 7427   9.171   3.322   8.184  0.0717  0.1096 -0.2794
   56MOL0     O 7428   9.229   3.438   8.225 -0.1091 -0.4105 -0.4689
   56MOL0     C 7429   9.366   3.432   8.238 -0.4781  0.3620  1.3666
   56MOL0     C 7430   9.423   3.414   8.362  0.3025 -0.2902 -0.2441
   56MOL0     C 7431   9.564   3.422   8.380  0.6135 -0.7655 -0.2155
   56MOL0     C 7432   9.654   3.439   8.275  0.0471 -0.0075  0.2954
   56MOL0     O 7433   9.789   3.449   8.285  0.2270  0.1712  0.4934
   56MOL0     C 7434   9.832   3.468   8.418 -0.5113  0.2107  0.5015
   56MOL0     C 7435   9.980   3.499   8.401  0.0361  1.2601  0.0374
   56MOL0     C 7436  10.057   3.483   8.526  0.6626 -0.4623 -0.1748
   56MOL0     C 7437  10.202   3.493   8.500 -1.4422  0.1742 -0.4435
   56MOL0     C 7438  10.292   3.511   8.631  0.8057 -0.8534 -0.6764
   56MOL0     C 7439  10.431   3.568   8.612 -0.1994  0.2331 -0.6136
   56MOL0     C 7440  10.505   3.580   8.745 -0.1527 -0.5365  0.3827
   56MOL0     C 7441  10.635   3.644   8.725 -0.1863 -0.9849 -0.2928
   56MOL0     N 7442  10.732   3.621   8.831  0.6381 -0.0702  0.7708
   56MOL0     C 7443  10.715   3.633   8.966 -0.5398  0.1750  0.0751
   56MOL0     C 7444  10.842   3.619   9.009  0.5989 -0.4273  0.0874
   56MOL0     C 7445  10.886   3.633   9.152  0.1643 -0.0068 -0.3835
   56MOL0     C 7446  10.911   3.486   9.216 -0.2963 -0.0039 -0.1661
   56MOL0     C 7447  11.052   3.441   9.182 -0.8582 -0.2819 -0.2278
   56MOL0     C 7448  11.069   3.308   9.247 -1.0242 -0.3329 -0.0974
   56MOL0     O 7449  11.078   3.320   9.391 -0.0072 -0.3074 -0.0060
   56MOL0     C 7450  10.982   3.250   9.462  0.2163  0.1870  0.6897
   56MOL0     C 7451  10.934   3.117   9.436  0.1480  0.1787  0.4908
   56MOL0     C 7452  10.862   3.046   9.525  0.1981  0.4319 -0.7022
   56MOL0     C 7453  10.832   2.896   9.495 -0.2035 -0.6631  0.8400
   56MOL0     C 7454  10.822   3.109   9.649  0.2980  1.2475 -0.1407
   56MOL0     C 7455  10.729   3.059   9.756 -1.1140 -0.2323  1.7044
   56MOL0     O 7456  10.664   3.157   9.831  0.6419 -0.2738 -0.1075
   56MOL0     C 7457  10.589   3.110   9.937 -0.5079 -0.0753  0.7810
   56MOL0     C 7458  10.658   3.080  10.062  0.3751  0.1283 -0.0582
   56MOL0     C 7459  10.582   3.065  10.177  0.1425 -0.0820  1.5283
   56MOL0     C 7460  10.441   3.072  10.170  0.7065 -0.2746 -0.3148
   56MOL0     O 7461  10.356   3.045  10.273  0.1190  0.0189  1.3108
   56MOL0     C 7462  10.356   2.909  10.321  0.5439  0.3496  0.1416
   56MOL0     C 7463  10.234   2.837  10.262 -0.5301 -0.0792 -0.1954
   56MOL0     C 7464  10.111   2.864  10.331 -0.5204  0.2961  0.4219
   56MOL0     C 7465   9.985   2.804  10.262 -0.1475  0.5905  0.1503
   56MOL0     C 7466   9.863   2.855  10.346 -0.2135 -0.5406  0.0579
   56MOL0     C 7467   9.737   2.775  10.310 -0.1280 -0.3423  0.1395
   56MOL0     C 7468   9.620   2.800  10.412 -0.4752  0.5861 -0.4481
   56MOL0     C 7469   9.500   2.717  10.384  0.5388  0.4658 -0.3499
   56MOL0    Cl 7470   9.363   2.778  10.479 -0.4719 -0.1821  0.3346
   56MOL0     C 7471  10.381   3.110  10.051  0.3693  1.3750 -0.4680
   56MOL0     C 7472  10.457   3.136   9.941  0.3074 -0.6333  0.3443
   56MOL0     O 7473  10.703   2.942   9.755  0.6494 -0.7514  0.2314
   56MOL0     C 7474  10.861   3.239   9.665 -0.0174  0.6186  0.6414
   56MOL0     C 7475  10.939   3.310   9.576 -0.2951  0.1985 -0.0913
   56MOL0     N 7476  10.931   3.598   8.906 -0.5971 -0.4498 -0.6691
   56MOL0     N 7477  10.860   3.602   8.800  0.3455  0.6369 -0.8426
   56MOL0     C 7478   9.595   3.474   8.152 -0.5642  0.2730  0.1639
   56MOL0     C 7479   9.458   3.472   8.128  0.2438  0.9846  0.5096
   56MOL0     C 7480   9.024   3.308   8.195 -0.4363 -0.4389  0.5200
   56MOL0     C 7481   8.946   3.403   8.263  0.9506 -1.0714 -0.5321
   56MOL0     C 7482   8.802   3.402   8.263 -0.3922 -0.5343 -1.4098
   56MOL0     C 7483   8.739   3.291   8.204  0.8310 -0.8093  0.1236
   56MOL0     O 7484   8.599   3.288   8.201  0.3334  0.0501 -1.6062
   56MOL0     C 7485   8.547   3.382   8.109  0.3327 -0.3961  0.8399
   56MOL0     C 7486   8.569   3.345   7.962 -0.5343 -0.5122 -0.8502
   56MOL0     C 7487   8.497   3.415   7.844 -0.1827  0.4382  0.5081
   56MOL0     C 7488   8.572   3.377   7.708  0.4235  0.6281 -0.0169
   56MOL0     C 7489   8.704   3.426   7.717 -0.3240  0.8594  0.8563
   56MOL0     C 7490   8.813   3.481   7.714  0.0567 -0.1008 -0.0510
   56MOL0     C 7491   8.817   3.192   8.135  0.5198 -0.3407  0.3316
   56MOL0     C 7492   8.953   3.205   8.129  0.3487 -0.6603  0.3949
   56MOL0     H 7493   9.352   3.406   8.444  0.4176  0.3819 -0.0733
   56MOL0     H 7494   9.600   3.407   8.481 -0.3956 -0.3751  0.2195
   56MOL0     H 7495   9.781   3.555   8.461 -2.0130  0.1544 -1.0738
   56MOL0     H 7496   9.804   3.379   8.476 -1.3430 -0.6473 -1.1526
   56MOL0     H 7497  10.019   3.421   8.335 -0.5070 -0.1483  1.3154
   56MOL0     H 7498   9.996   3.588   8.340  5.6259 -0.3209 -1.4545
   56MOL0     H 7499  10.026   3.558   8.599  1.7318  0.8905 -1.0603
   56MOL0     H 7500  10.042   3.378   8.556  0.4190  0.0789  1.7121
   56MOL0     H 7501  10.245   3.400   8.461 -2.6007  0.1422 -1.7341
   56MOL0     H 7502  10.231   3.577   8.437  2.4928 -1.5360 -1.2370
   56MOL0     H 7503  10.242   3.591   8.686  3.2870 -0.1235  0.6972
   56MOL0     H 7504  10.307   3.421   8.692  3.3834 -1.0752 -1.4781
   56MOL0     H 7505  10.489   3.509   8.541  1.4137  1.6844 -0.5707
   56MOL0     H 7506  10.403   3.663   8.566 -0.1639 -0.7284 -2.7517
   56MOL0     H 7507  10.437   3.639   8.807  0.4379  0.0465  0.4886
   56MOL0     H 7508  10.526   3.482   8.789 -2.3395 -1.0870  0.3048
   56MOL0     H 7509  10.612   3.751   8.722  1.5165 -0.5973 -0.5699
   56MOL0     H 7510  10.671   3.623   8.624  1.3115 -1.2593  0.2642
   56MOL0     H 7511  10.629   3.655   9.028 -1.5632 -2.9514 -0.0873
   56MOL0     H 7512  10.974   3.696   9.166  0.2487  0.3130 -2.1436
   56MOL0     H 7513  10.801   3.681   9.201  1.5041  1.0885  0.9391
   56MOL0     H 7514  10.838   3.417   9.174 -0.4771 -1.1748  1.9342
   56MOL0     H 7515  10.907   3.489   9.326  0.0860  0.7262 -0.1647
   56MOL0     H 7516  11.125   3.515   9.216 -0.1592 -0.2867 -1.6478
   56MOL0     H 7517  11.066   3.440   9.073  1.1228 -0.6308 -0.0034
   56MOL0     H 7518  11.166   3.264   9.221 -0.1482 -1.2725  4.0159
   56MOL0     H 7519  10.994   3.246   9.197 -1.7278  0.2037  0.2645
   56MOL0     H 7520  10.949   3.076   9.337 -1.4611  0.5850  0.0487
   56MOL0     H 7521  10.820   2.829   9.581  0.5211 -1.9773 -0.0259
   56MOL0     H 7522  10.733   2.890   9.449  0.4679 -0.9365 -0.6537
   56MOL0     H 7523  10.912   2.853   9.433 -0.9725 -1.1019  0.1225
   56MOL0     H 7524  10.765   3.073  10.051  0.1198 -0.5159 -3.2821
   56MOL0     H 7525  10.625   3.040  10.274  1.8246 -0.7991  0.6344
   56MOL0     H 7526  10.456   2.870  10.300  1.3069  0.5751  3.0311
   56MOL0     H 7527  10.339   2.928  10.427 -0.3130  3.3528 -0.4258
   56MOL0     H 7528  10.217   2.882  10.164 -1.3915  1.6063  0.6877
   56MOL0     H 7529  10.246   2.729  10.248 -2.4683 -0.0928 -2.3991
   56MOL0     H 7530  10.096   2.972  10.341  0.1694  0.7813 -2.9203
   56MOL0     H 7531  10.117   2.824  10.433 -1.4359  3.5008  1.8969
   56MOL0     H 7532   9.971   2.839  10.160  0.6149 -2.1312 -0.9648
   56MOL0     H 7533   9.975   2.696  10.277 -1.6002  0.9142  1.8344
   56MOL0     H 7534   9.857   2.960  10.315  0.8559 -0.4823  0.0117
   56MOL0     H 7535   9.890   2.839  10.450 -5.1441 -1.1007  1.5293
   56MOL0     H 7536   9.706   2.809  10.211 -2.6674  1.5129  1.4829
   56MOL0     H 7537   9.749   2.666  10.300  0.4412 -0.3124  0.4723
   56MOL0     H 7538   9.589   2.904  10.402 -2.4353 -0.0986 -2.4622
   56MOL0     H 7539   9.651   2.780  10.515 -0.3006  2.1892 -0.1667
   56MOL0     H 7540   9.533   2.620  10.422  0.5195  1.1662  1.5792
   56MOL0     H 7541   9.463   2.720  10.281 -0.5332  0.7266  0.0303
   56MOL0     H 7542  10.274   3.130  10.053  0.1126  0.0611  0.0713
   56MOL0     H 7543  10.406   3.162   9.849  3.8971  1.3586 -1.3191
   56MOL0     H 7544  10.846   3.302   9.753  1.4638 -0.0563  1.4066
   56MOL0     H 7545  10.974   3.410   9.600  2.8603 -0.9671  0.6973
   56MOL0     H 7546   9.660   3.511   8.074  0.6658  2.5518  2.1237
   56MOL0     H 7547   9.415   3.490   8.030  2.8681 -0.3257 -0.9891
   56MOL0     H 7548   8.981   3.499   8.299 -0.7836 -1.1614  1.5932
   56MOL0     H 7549   8.746   3.480   8.313 -0.1656 -1.2783  0.0553
   56MOL0     H 7550   8.438   3.384   8.119  0.3124 -1.9036  1.2219
   56MOL0     H 7551   8.590   3.481   8.124  3.6186 -1.5237 -0.4218
   56MOL0     H 7552   8.541   3.239   7.962  0.1040 -0.8007  2.6248
   56MOL0     H 7553   8.677   3.343   7.940 -0.0780 -2.2038  1.1898
   56MOL0     H 7554   8.494   3.523   7.861 -1.5238  0.4347  0.3878
   56MOL0     H 7555   8.393   3.383   7.837 -0.4503  1.0598  1.3863
   56MOL0     H 7556   8.517   3.427   7.628  0.9002 -2.7147 -2.6216
   56MOL0     H 7557   8.569   3.272   7.681 -2.0117  0.5185  0.4857
   56MOL0     H 7558   8.907   3.532   7.709  0.7155 -1.4204 -2.6216
   56MOL0     H 7559   8.766   3.109   8.088 -2.8351  2.4345 -1.4372
   56MOL0     H 7560   9.011   3.128   8.079 -0.8819 -0.4835 -1.3798
   57MOL0     O 7561   6.933   3.585   4.574 -0.2131  0.1601 -0.1615
   57MOL0     C 7562   7.028   3.525   4.514 -0.0084 -0.1213  0.4265
   57MOL0     O 7563   7.019   3.461   4.396 -0.3604  0.6355 -0.3948
   57MOL0     C 7564   6.896   3.446   4.340 -0.4191 -0.2542  1.0353
   57MOL0     C 7565   6.804   3.346   4.377 -0.1563 -0.3393 -0.0511
   57MOL0     C 7566   6.675   3.329   4.313  0.2578 -0.0330  0.0179
   57MOL0     C 7567   6.644   3.419   4.214  0.5729  0.1164 -0.8403
   57MOL0     O 7568   6.527   3.429   4.156 -0.0328  0.4936 -0.0899
   57MOL0     C 7569   6.515   3.380   4.023  0.4799  0.7385 -0.7742
   57MOL0     C 7570   6.368   3.359   3.989  0.2275 -0.0406 -0.4082
   57MOL0     C 7571   6.314   3.488   3.933  0.7893  0.0906  0.2355
   57MOL0     C 7572   6.163   3.499   3.957 -0.3307 -0.7410 -0.7633
   57MOL0     C 7573   6.100   3.635   3.922  0.4669 -0.1823  0.0520
   57MOL0     C 7574   5.946   3.643   3.928 -0.4879 -0.5893 -0.0160
   57MOL0     C 7575   5.868   3.518   3.892 -0.5718 -0.8296  0.5016
   57MOL0     C 7576   5.733   3.549   3.839  0.8810  0.0798 -0.5714
   57MOL0     N 7577   5.653   3.447   3.774 -0.0732 -0.4335  0.5174
   57MOL0     C 7578   5.705   3.325   3.739  0.4348 -0.5118  0.6667
   57MOL0     C 7579   5.611   3.272   3.664 -0.5118  0.0701  0.8593
   57MOL0     C 7580   5.627   3.146   3.596 -0.4505  0.0024  0.3017
   57MOL0     C 7581   5.522   3.059   3.668  0.8781 -0.2390 -0.5577
   57MOL0     C 7582   5.489   2.918   3.611 -0.8586 -0.0949 -0.1503
   57MOL0     C 7583   5.607   2.823   3.625 -0.0860  0.0310  0.5126
   57MOL0     O 7584   5.621   2.776   3.759 -0.5937 -0.3969 -0.2431
   57MOL0     C 7585   5.729   2.695   3.792  1.0773  0.4296  0.2004
   57MOL0     C 7586   5.761   2.675   3.925 -0.1480 -0.5731 -0.2271
   57MOL0     C 7587   5.873   2.602   3.970 -0.0541  0.0159 -0.3720
   57MOL0     C 7588   5.885   2.581   4.107 -0.0181  0.3432 -0.4174
   57MOL0     C 7589   5.976   2.562   3.871  0.4202 -0.9469 -0.5462
   57MOL0     C 7590   6.107   2.501   3.915  0.3549  0.5522  0.7508
   57MOL0     O 7591   6.144   2.488   4.048 -0.5250 -0.6288 -0.2426
   57MOL0     C 7592   6.276   2.448   4.070  0.4414 -0.1441  0.2145
   57MOL0     C 7593   6.330   2.323   4.033 -0.8114 -0.5790  0.9592
   57MOL0     C 7594   6.469   2.292   4.060 -0.8698  0.1517  0.0164
   57MOL0     C 7595   6.541   2.394   4.131 -0.3359 -0.8252  0.4451
   57MOL0     O 7596   6.671   2.375   4.160 -0.1502  0.3851 -0.9914
   57MOL0     C 7597   6.740   2.268   4.084  0.0636 -0.5916 -0.0071
   57MOL0     C 7598   6.865   2.267   4.171 -0.4838  0.5304  0.8552
   57MOL0     C 7599   6.957   2.383   4.144 -0.0346  1.0436  0.2071
   57MOL0     C 7600   7.095   2.387   4.216  1.0960 -0.7806  0.4646
   57MOL0     C 7601   7.173   2.494   4.138  0.4453 -0.1797 -0.5251
   57MOL0     C 7602   7.293   2.557   4.204  0.4377 -0.1957 -0.9447
   57MOL0     C 7603   7.405   2.462   4.256  0.5282  0.2562  0.4849
   57MOL0     C 7604   7.489   2.410   4.138  0.3641  0.1881  0.0821
   57MOL0    Cl 7605   7.412   2.267   4.064 -0.0075  0.3507  0.1524
   57MOL0     C 7606   6.487   2.514   4.179 -0.2849 -0.4433  0.6604
   57MOL0     C 7607   6.354   2.533   4.149 -0.4107 -0.3639 -0.8024
   57MOL0     O 7608   6.181   2.467   3.823  0.0821 -0.2428  0.5625
   57MOL0     C 7609   5.943   2.586   3.738  0.2711  0.4818  0.3065
   57MOL0     C 7610   5.825   2.647   3.700  0.2895 -0.1602  0.6125
   57MOL0     N 7611   5.504   3.354   3.658 -0.4471 -0.5645  0.1607
   57MOL0     N 7612   5.531   3.470   3.710  0.4053  0.0740 -0.7506
   57MOL0     C 7613   6.736   3.512   4.163  0.2016 -0.5041  0.1414
   57MOL0     C 7614   6.863   3.522   4.229 -0.1066  0.0750 -0.0504
   57MOL0     C 7615   7.161   3.538   4.569 -0.4782 -0.7061 -0.4270
   57MOL0     C 7616   7.275   3.480   4.515 -0.7449 -0.5509 -0.0061
   57MOL0     C 7617   7.403   3.504   4.565  0.5135  0.2752  0.2181
   57MOL0     C 7618   7.418   3.595   4.669  0.3016 -0.0781  0.8431
   57MOL0     O 7619   7.546   3.625   4.720  0.1886 -0.3337 -0.2998
   57MOL0     C 7620   7.644   3.666   4.628  0.5641  0.2448  0.3113
   57MOL0     C 7621   7.750   3.553   4.603 -0.5943  0.3486  0.5454
   57MOL0     C 7622   7.832   3.531   4.729 -0.9002 -0.8048  0.8268
   57MOL0     C 7623   7.908   3.656   4.776  0.4207  0.4978  0.7112
   57MOL0     C 7624   8.026   3.636   4.863 -0.0641 -0.2920  0.5173
   57MOL0     C 7625   8.126   3.639   4.939 -0.2610 -0.1166 -0.2823
   57MOL0     C 7626   7.305   3.645   4.733 -0.2537 -0.0546 -0.2894
   57MOL0     C 7627   7.182   3.623   4.683 -0.4834 -0.3432 -0.9042
   57MOL0     H 7628   6.839   3.278   4.454 -0.2545 -1.7285 -1.1976
   57MOL0     H 7629   6.609   3.247   4.337  1.0569 -0.0980  2.1746
   57MOL0     H 7630   6.564   3.438   3.943 -0.1710  0.2672 -1.5305
   57MOL0     H 7631   6.561   3.282   4.012  3.0005  2.0044 -2.7708
   57MOL0     H 7632   6.363   3.285   3.909 -0.2653  0.2951 -0.6942
   57MOL0     H 7633   6.313   3.321   4.075  0.0669  1.4155  0.1641
   57MOL0     H 7634   6.362   3.573   3.982  2.4856 -0.8619  0.2923
   57MOL0     H 7635   6.333   3.500   3.826  0.6984 -0.4005  0.1608
   57MOL0     H 7636   6.118   3.418   3.899 -1.7774 -2.0826  2.0130
   57MOL0     H 7637   6.145   3.479   4.063  1.8560  0.5621 -0.0763
   57MOL0     H 7638   6.137   3.714   3.988  0.4419  0.8905 -1.1789
   57MOL0     H 7639   6.128   3.649   3.818  0.6852 -0.8824  0.0126
   57MOL0     H 7640   5.918   3.664   4.031 -3.5966 -1.8804 -0.4858
   57MOL0     H 7641   5.916   3.727   3.864  1.5935  0.0578 -0.2404
   57MOL0     H 7642   5.916   3.475   3.804 -2.1474  0.3161 -0.9723
   57MOL0     H 7643   5.879   3.451   3.979  0.8503  1.1569  1.9356
   57MOL0     H 7644   5.741   3.630   3.766  1.8380 -0.2105 -0.8000
   57MOL0     H 7645   5.670   3.588   3.920  1.3880  0.6167 -0.4327
   57MOL0     H 7646   5.805   3.291   3.762  1.8211  0.7143 -2.8979
   57MOL0     H 7647   5.613   3.144   3.487  1.0855  0.5532  0.0652
   57MOL0     H 7648   5.728   3.105   3.596 -0.1269  0.7630  1.0219
   57MOL0     H 7649   5.427   3.113   3.660  1.4066  0.9734  0.9778
   57MOL0     H 7650   5.533   3.049   3.776  0.4646 -0.2744 -0.5139
   57MOL0     H 7651   5.463   2.921   3.505  0.1194  0.8526 -0.3792
   57MOL0     H 7652   5.395   2.885   3.657  0.0887  0.3585  2.2486
   57MOL0     H 7653   5.697   2.875   3.591 -0.1864 -0.4686 -0.5523
   57MOL0     H 7654   5.591   2.737   3.559  1.9129 -0.1833  0.2515
   57MOL0     H 7655   5.689   2.717   3.994 -2.8091 -4.8864  0.0157
   57MOL0     H 7656   5.965   2.641   4.151 -0.7601 -0.5212  2.2786
   57MOL0     H 7657   5.789   2.592   4.157 -1.2343  0.8242 -2.6964
   57MOL0     H 7658   5.918   2.478   4.121  0.8729  0.3352 -2.2587
   57MOL0     H 7659   6.255   2.260   3.987 -0.7220 -0.3393  0.4773
   57MOL0     H 7660   6.512   2.198   4.027  2.6462  0.5751  2.8275
   57MOL0     H 7661   6.692   2.171   4.066 -2.1141  0.3024  0.6035
   57MOL0     H 7662   6.759   2.314   3.987  1.3894  4.0922  2.1923
   57MOL0     H 7663   6.834   2.255   4.275 -5.0384 -3.2266 -0.5540
   57MOL0     H 7664   6.910   2.171   4.144 -0.8556  0.5470  0.1435
   57MOL0     H 7665   6.913   2.479   4.173 -1.0776  0.0159  2.2637
   57MOL0     H 7666   6.977   2.394   4.037 -0.5566  1.4366  0.1450
   57MOL0     H 7667   7.081   2.404   4.323 -0.8983 -1.5201  0.3532
   57MOL0     H 7668   7.160   2.300   4.199  1.8773  0.1357 -1.6356
   57MOL0     H 7669   7.113   2.585   4.126  1.2848  0.7950  2.1118
   57MOL0     H 7670   7.191   2.441   4.044 -1.1234 -2.7474  0.4880
   57MOL0     H 7671   7.340   2.626   4.133 -0.4500 -2.5221 -4.0141
   57MOL0     H 7672   7.265   2.616   4.292  2.2555  1.3188 -1.3031
   57MOL0     H 7673   7.370   2.373   4.311 -1.4047  3.0859  4.3068
   57MOL0     H 7674   7.470   2.525   4.318  2.9603 -2.1474  0.5863
   57MOL0     H 7675   7.584   2.377   4.182  0.4864 -1.5859 -1.4100
   57MOL0     H 7676   7.518   2.493   4.073 -2.7489  0.3201 -1.2910
   57MOL0     H 7677   6.552   2.582   4.233  1.2146 -1.0688 -0.2854
   57MOL0     H 7678   6.313   2.619   4.202  2.0893 -0.2930  1.1848
   57MOL0     H 7679   6.020   2.558   3.667  0.5843  4.1463 -1.0057
   57MOL0     H 7680   5.805   2.659   3.594  2.9910 -0.8376 -0.0493
   57MOL0     H 7681   6.711   3.577   4.080 -0.5402  1.4930  1.8249
   57MOL0     H 7682   6.934   3.599   4.202  0.4232 -0.0539  0.9360
   57MOL0     H 7683   7.263   3.414   4.429 -0.3163 -0.0226 -0.4767
   57MOL0     H 7684   7.492   3.464   4.516 -0.6257  0.0764 -1.7760
   57MOL0     H 7685   7.597   3.688   4.531 -2.0402 -2.0735  0.9171
   57MOL0     H 7686   7.696   3.753   4.669 -1.4705  0.3323  3.0114
   57MOL0     H 7687   7.809   3.591   4.520 -0.9300  1.2055  0.6915
   57MOL0     H 7688   7.714   3.453   4.575 -1.5428  0.9318 -0.3936
   57MOL0     H 7689   7.897   3.443   4.725  0.9311  0.5157 -0.0739
   57MOL0     H 7690   7.768   3.512   4.816 -0.0994  1.5373  2.0215
   57MOL0     H 7691   7.837   3.732   4.810 -1.7693  0.5320 -3.3564
   57MOL0     H 7692   7.955   3.693   4.684 -0.1297 -3.3896 -1.3605
   57MOL0     H 7693   8.216   3.628   4.996 -1.0461 -0.6753  0.8810
   57MOL0     H 7694   7.307   3.705   4.823 -3.0010 -1.7717  1.0344
   57MOL0     H 7695   7.098   3.667   4.736  0.4231 -1.6562  1.8194
   58MOL0     O 7696   3.877  10.283   5.244 -0.4471 -0.5322 -0.5238
   58MOL0     C 7697   3.824  10.368   5.172 -0.4789 -0.6840 -0.3557
   58MOL0     O 7698   3.698  10.416   5.175 -0.1315 -0.4038  0.4879
   58MOL0     C 7699   3.610  10.378   5.269 -0.0083 -0.3642  0.3675
   58MOL0     C 7700   3.580  10.248   5.288 -0.7118 -0.1012 -0.4531
   58MOL0     C 7701   3.484  10.210   5.378 -0.7514  0.8919  0.0212
   58MOL0     C 7702   3.421  10.305   5.463  0.1349 -0.1695  0.4667
   58MOL0     O 7703   3.334  10.261   5.572 -0.3383 -0.3199  0.0666
   58MOL0     C 7704   3.216  10.194   5.537  0.3028  0.5100  0.2813
   58MOL0     C 7705   3.120  10.193   5.648  0.2170 -0.0595 -0.7605
   58MOL0     C 7706   2.995  10.106   5.621  0.4388 -0.7249  0.3307
   58MOL0     C 7707   2.870  10.192   5.651  0.5260 -0.0629 -0.2662
   58MOL0     C 7708   2.740  10.120   5.666 -0.1813 -0.3209 -0.3035
   58MOL0     C 7709   2.611  10.214   5.662 -0.8584  0.3029 -0.5224
   58MOL0     C 7710   2.491  10.122   5.658 -0.7411 -0.3731  0.3934
   58MOL0     C 7711   2.358  10.190   5.672 -0.6604  0.9024  0.6999
   58MOL0     N 7712   2.253  10.094   5.663 -0.3709 -0.0800 -0.8245
   58MOL0     C 7713   2.113  10.119   5.671  0.4398 -0.9468 -0.0467
   58MOL0     C 7714   2.055   9.995   5.663 -0.5653  0.0906  0.6073
   58MOL0     C 7715   1.904   9.976   5.676  0.1137 -0.2838  0.6202
   58MOL0     C 7716   1.868  10.002   5.810  0.7261  0.2663 -1.5186
   58MOL0     C 7717   1.719   9.973   5.839  0.3849  0.0802  0.2831
   58MOL0     C 7718   1.625  10.094   5.793  0.0916  0.7664 -0.5340
   58MOL0     O 7719   1.516  10.070   5.880 -0.6274  0.5633 -0.1653
   58MOL0     C 7720   1.433  10.173   5.907  0.0875 -0.0568 -0.0068
   58MOL0     C 7721   1.450  10.300   5.864  0.5331 -0.5935  0.3307
   58MOL0     C 7722   1.350  10.397   5.882  0.3675 -0.2025 -0.5372
   58MOL0     C 7723   1.378  10.526   5.812 -0.3942 -0.1252 -0.0725
   58MOL0     C 7724   1.222  10.373   5.951 -0.0581  0.1308  0.1012
   58MOL0     C 7725   1.127  10.487   5.982 -0.2099  0.1632 -0.5885
   58MOL0     O 7726   1.177  10.606   5.997  0.7704 -0.7242  0.0668
   58MOL0     C 7727   1.096  10.717   6.033  0.1994  0.4312 -0.4877
   58MOL0     C 7728   0.956  10.727   6.054  0.1038  0.0913  0.1158
   58MOL0     C 7729   0.898  10.847   6.086  0.0089  0.0835 -0.1292
   58MOL0     C 7730   0.975  10.965   6.092  0.0891 -0.5184  0.1229
   58MOL0     O 7731   0.920  11.088   6.108  0.5227  0.5461  0.2711
   58MOL0     C 7732   0.992  11.209   6.076 -0.2036 -0.0904  0.1340
   58MOL0     C 7733   0.886  11.319   6.071 -0.6337  0.2557  0.1404
   58MOL0     C 7734   0.773  11.289   5.978  0.2825  2.1598  0.5931
   58MOL0     C 7735   0.699  11.412   5.945  0.3192  0.4764  0.5336
   58MOL0     C 7736   0.572  11.388   5.860 -0.2818 -0.4570  0.4345
   58MOL0     C 7737   0.505  11.526   5.850 -0.0358 -0.0660 -0.4637
   58MOL0     C 7738   0.354  11.511   5.823 -1.1265 -0.7706  0.8291
   58MOL0     C 7739   0.283  11.652   5.824  0.7341  0.2721  0.1867
   58MOL0    Cl 7740   0.108  11.624   5.769 -0.4510 -0.2525 -0.2717
   58MOL0     C 7741   1.107  10.951   6.086 -0.8026  0.2805  0.1632
   58MOL0     C 7742   1.168  10.831   6.049  0.1150  0.0056  0.6335
   58MOL0     O 7743   1.014  10.439   5.998 -0.5524  0.2102 -0.5320
   58MOL0     C 7744   1.199  10.231   5.981 -0.4659 -0.5156 -0.5503
   58MOL0     C 7745   1.312  10.142   5.969  0.5174 -0.3485 -0.1297
   58MOL0     N 7746   2.154   9.898   5.669  0.3509  0.0715  0.1933
   58MOL0     N 7747   2.269   9.956   5.679 -0.7939  0.5845  0.6457
   58MOL0     C 7748   3.446  10.439   5.437 -0.1778 -0.9493 -1.0936
   58MOL0     C 7749   3.536  10.474   5.339 -0.2098  0.8180 -0.8808
   58MOL0     C 7750   3.917  10.436   5.082 -0.3870  0.4213  0.3010
   58MOL0     C 7751   4.062  10.429   5.097  0.6414 -0.5814 -0.2676
   58MOL0     C 7752   4.142  10.499   5.010  0.5060  0.9702  0.1722
   58MOL0     C 7753   4.094  10.569   4.903 -0.4938 -0.4852 -0.7066
   58MOL0     O 7754   4.187  10.618   4.815  0.5691 -0.2904 -0.2122
   58MOL0     C 7755   4.157  10.725   4.723 -0.0724  0.8975 -0.2454
   58MOL0     C 7756   4.124  10.661   4.585 -1.0543 -0.0176 -0.3109
   58MOL0     C 7757   4.031  10.756   4.506 -0.0522  0.2499 -0.9712
   58MOL0     C 7758   4.046  10.758   4.360 -0.1691  0.2204  0.7210
   58MOL0     C 7759   4.009  10.625   4.308 -0.1806  0.4181  0.6152
   58MOL0     C 7760   3.995  10.520   4.252 -0.1929  0.3857 -0.0207
   58MOL0     C 7761   3.952  10.574   4.886 -0.9605 -0.3663 -0.0699
   58MOL0     C 7762   3.862  10.513   4.976 -0.0940  0.1325 -0.3907
   58MOL0     H 7763   3.632  10.168   5.238  0.4038 -0.2269  0.8552
   58MOL0     H 7764   3.472  10.103   5.390  2.2647  0.2999 -1.3538
   58MOL0     H 7765   3.177  10.237   5.444  0.5071  2.5651  1.1027
   58MOL0     H 7766   3.228  10.086   5.524 -0.5053  0.5853 -1.3343
   58MOL0     H 7767   3.170  10.164   5.741  0.4084 -1.7676 -1.3651
   58MOL0     H 7768   3.092  10.297   5.665  0.0586 -0.4019  1.4232
   58MOL0     H 7769   2.991  10.073   5.517 -1.1534  0.7019 -0.1084
   58MOL0     H 7770   2.983  10.023   5.691 -1.0745 -0.4188  0.4713
   58MOL0     H 7771   2.883  10.257   5.738  1.1306 -1.3685  0.6395
   58MOL0     H 7772   2.853  10.258   5.565 -1.2700 -0.8646 -0.5728
   58MOL0     H 7773   2.734  10.041   5.591  2.1489  1.6546 -2.7931
   58MOL0     H 7774   2.739  10.066   5.760 -0.3137  1.1700  0.5918
   58MOL0     H 7775   2.599  10.278   5.750  0.9392 -0.0174  0.0122
   58MOL0     H 7776   2.625  10.286   5.581  0.2636  1.5078  0.6722
   58MOL0     H 7777   2.490  10.061   5.567  1.5384 -0.6395  0.4879
   58MOL0     H 7778   2.500  10.050   5.740 -4.2779 -4.2394 -2.2094
   58MOL0     H 7779   2.347  10.279   5.608 -0.4795  0.1918 -0.3379
   58MOL0     H 7780   2.345  10.226   5.775  1.2678  1.1109  0.9090
   58MOL0     H 7781   2.052  10.209   5.670 -2.2405 -2.6277 -2.1573
   58MOL0     H 7782   1.862  10.046   5.604 -1.4523 -1.7363  0.0630
   58MOL0     H 7783   1.884   9.874   5.643  0.3462  0.4401 -1.9739
   58MOL0     H 7784   1.898  10.098   5.853 -0.8199 -1.0556  3.2133
   58MOL0     H 7785   1.920   9.931   5.876  1.9464  2.3983 -0.0510
   58MOL0     H 7786   1.712   9.959   5.947  3.7753 -1.4014  0.4135
   58MOL0     H 7787   1.695   9.875   5.797 -0.7030  0.3378  0.2604
   58MOL0     H 7788   1.596  10.077   5.689 -1.3628  1.0471 -0.1940
   58MOL0     H 7789   1.680  10.187   5.806  0.5049  0.1166  3.7847
   58MOL0     H 7790   1.539  10.328   5.809 -0.0407  0.7811  0.0779
   58MOL0     H 7791   1.291  10.565   5.758 -0.3380  0.6702  0.3981
   58MOL0     H 7792   1.412  10.600   5.885 -0.9655  0.3132 -0.2429
   58MOL0     H 7793   1.457  10.515   5.737 -1.3152  1.2202 -1.2762
   58MOL0     H 7794   0.891  10.641   6.042  0.5658 -0.1506 -0.7480
   58MOL0     H 7795   0.791  10.851   6.106  0.1728 -3.1369  2.2566
   58MOL0     H 7796   1.066  11.234   6.153  1.2425 -1.5658 -0.7089
   58MOL0     H 7797   1.047  11.207   5.982  2.7464 -1.4978  1.7434
   58MOL0     H 7798   0.848  11.335   6.172  0.2719  4.1486  0.0043
   58MOL0     H 7799   0.929  11.410   6.029 -2.6146  0.4703 -1.5798
   58MOL0     H 7800   0.706  11.221   6.031  1.5924  1.8939  1.9512
   58MOL0     H 7801   0.810  11.235   5.890  0.7345  2.1231  0.8030
   58MOL0     H 7802   0.681  11.457   6.043  0.5481  0.2144  0.6927
   58MOL0     H 7803   0.764  11.476   5.884 -1.5057  0.3895 -1.6674
   58MOL0     H 7804   0.507  11.303   5.880 -0.0557 -0.7803 -0.1916
   58MOL0     H 7805   0.606  11.362   5.760 -0.2868  0.6230  0.1333
   58MOL0     H 7806   0.512  11.584   5.942 -0.8523  0.1572 -0.5302
   58MOL0     H 7807   0.543  11.590   5.769  0.0001  1.4402  0.7012
   58MOL0     H 7808   0.318  11.453   5.909  1.8631 -2.1589  1.2675
   58MOL0     H 7809   0.322  11.465   5.729 -0.0326  1.1737 -0.5607
   58MOL0     H 7810   0.320  11.717   5.745  0.0270  0.1056 -0.2891
   58MOL0     H 7811   0.285  11.702   5.921 -0.7731 -2.4599  1.7681
   58MOL0     H 7812   1.167  11.041   6.083 -0.6716  0.1807 -1.8654
   58MOL0     H 7813   1.276  10.828   6.033  0.1218  1.0435  0.4282
   58MOL0     H 7814   1.117  10.198   6.044 -0.5236 -0.6612 -0.7024
   58MOL0     H 7815   1.297  10.046   6.018 -2.7789  0.2670  0.2541
   58MOL0     H 7816   3.393  10.507   5.503  1.4073 -0.8496  0.1535
   58MOL0     H 7817   3.546  10.580   5.318  2.6661  0.8467  0.1438
   58MOL0     H 7818   4.106  10.372   5.178 -0.9148 -1.7221 -0.1704
   58MOL0     H 7819   4.250  10.500   5.017  0.6982 -1.1683 -1.2613
   58MOL0     H 7820   4.083  10.799   4.753 -1.1753 -0.8292  1.5270
   58MOL0     H 7821   4.244  10.787   4.699 -0.4223  1.2756 -0.5414
   58MOL0     H 7822   4.076  10.563   4.592 -0.1260 -0.6627 -2.0649
   58MOL0     H 7823   4.218  10.651   4.529  0.4057  1.4973  1.6992
   58MOL0     H 7824   4.050  10.858   4.539 -0.0773  0.2277 -0.8850
   58MOL0     H 7825   3.926  10.736   4.531 -0.2790 -1.0841 -2.7612
   58MOL0     H 7826   4.151  10.772   4.331 -0.1663 -1.6337 -0.2830
   58MOL0     H 7827   3.980  10.833   4.315  1.0331  1.2596  0.5984
   58MOL0     H 7828   3.991  10.425   4.203 -3.3689  0.1191  0.5169
   58MOL0     H 7829   3.914  10.640   4.808 -0.7495  0.1079  0.2222
   58MOL0     H 7830   3.756  10.530   4.960 -0.3702 -0.9697  0.2033
   59MOL0     O 7831   3.195   2.236  10.953 -0.2497 -0.8623  0.3114
   59MOL0     C 7832   3.272   2.249  11.055  0.7626 -0.6866 -1.1247
   59MOL0     O 7833   3.224   2.254  11.188 -0.0675  0.0869 -0.6173
   59MOL0     C 7834   3.091   2.230  11.205 -0.2733 -0.2374 -0.4426
   59MOL0     C 7835   2.992   2.331  11.197 -0.0998  0.0235  0.5834
   59MOL0     C 7836   2.858   2.299  11.211 -0.1745 -0.0585  0.0968
   59MOL0     C 7837   2.808   2.162  11.232 -0.6975 -0.7520  0.5105
   59MOL0     O 7838   2.673   2.136  11.246  0.8166  0.0773 -0.3531
   59MOL0     C 7839   2.628   2.003  11.222 -0.3526  0.8718  0.3595
   59MOL0     C 7840   2.482   1.982  11.189 -0.0577 -0.0956  0.3483
   59MOL0     C 7841   2.422   2.080  11.080  0.2201 -0.1165 -0.2556
   59MOL0     C 7842   2.274   2.050  11.052 -0.4505 -0.2997  0.2153
   59MOL0     C 7843   2.199   2.150  10.955 -0.0844 -0.8041 -0.1142
   59MOL0     C 7844   2.069   2.093  10.903 -0.0275  0.1705 -0.0120
   59MOL0     C 7845   2.004   2.171  10.789 -0.2450  1.1445  0.0639
   59MOL0     C 7846   1.963   2.304  10.836  0.3127  0.0524  0.2437
   59MOL0     N 7847   1.923   2.368  10.708  0.9000 -0.1088 -0.4170
   59MOL0     C 7848   2.006   2.420  10.606 -0.2049  1.4427  0.2499
   59MOL0     C 7849   1.927   2.466  10.507  0.2370 -0.3257 -0.0939
   59MOL0     C 7850   1.964   2.524  10.378  0.6535  0.4600 -0.3152
   59MOL0     C 7851   1.990   2.666  10.372 -0.2319  0.0467  0.6467
   59MOL0     C 7852   1.873   2.758  10.347  0.4582 -0.3839  0.4318
   59MOL0     C 7853   1.840   2.757  10.193  0.3663 -0.1763  0.1513
   59MOL0     O 7854   1.754   2.865  10.162  0.0526  0.3291 -0.2039
   59MOL0     C 7855   1.700   2.884  10.037 -0.0914  0.7457 -0.5825
   59MOL0     C 7856   1.617   2.995  10.040  0.3600 -0.4673 -0.5447
   59MOL0     C 7857   1.550   3.041   9.927  0.1057  0.4220 -0.4363
   59MOL0     C 7858   1.456   3.152   9.926  0.1293  0.2929 -0.5253
   59MOL0     C 7859   1.568   2.960   9.806  0.0814 -0.0026 -0.7012
   59MOL0     C 7860   1.518   3.007   9.683  0.3649  0.7276  0.6644
   59MOL0     O 7861   1.558   3.125   9.626  0.4324  0.5344 -0.8071
   59MOL0     C 7862   1.481   3.160   9.518 -0.7571  0.5055 -0.0664
   59MOL0     C 7863   1.354   3.208   9.533 -0.3227  0.6823 -0.4290
   59MOL0     C 7864   1.278   3.231   9.423 -1.4957 -0.6358  0.3566
   59MOL0     C 7865   1.333   3.203   9.299  0.1303 -0.4494 -0.2186
   59MOL0     O 7866   1.239   3.209   9.201  0.5713  0.0285 -0.0171
   59MOL0     C 7867   1.279   3.173   9.068 -0.1217 -0.2939 -0.2966
   59MOL0     C 7868   1.181   3.211   8.953  0.5788  0.5887  0.1761
   59MOL0     C 7869   1.076   3.098   8.934  0.9968  0.7674 -0.4483
   59MOL0     C 7870   0.995   3.096   8.813 -0.0687 -0.0483  0.1627
   59MOL0     C 7871   0.880   2.994   8.801  0.8951  0.7926 -0.2982
   59MOL0     C 7872   0.825   2.991   8.653  0.1295 -0.5843  0.3117
   59MOL0     C 7873   0.753   2.864   8.625 -0.3658  0.7953  0.4914
   59MOL0     C 7874   0.668   2.876   8.492 -0.2888  1.0068  0.2595
   59MOL0    Cl 7875   0.759   2.861   8.338 -0.2984  0.3190 -0.1484
   59MOL0     C 7876   1.461   3.166   9.287  0.0701  0.2191  0.3268
   59MOL0     C 7877   1.543   3.150   9.396 -0.6080  0.5703 -0.4487
   59MOL0     O 7878   1.445   2.924   9.625  0.2879  0.1122 -0.0707
   59MOL0     C 7879   1.650   2.858   9.802 -0.2980  0.1053 -0.1947
   59MOL0     C 7880   1.716   2.814   9.918 -0.3819 -0.0205 -1.0150
   59MOL0     N 7881   1.795   2.441  10.534 -0.0258  0.1546 -0.8166
   59MOL0     N 7882   1.797   2.389  10.660  0.5812  0.4776  0.6039
   59MOL0     C 7883   2.909   2.063  11.246 -0.3476  0.6911 -0.5562
   59MOL0     C 7884   3.046   2.101  11.235 -0.8157 -0.7126  0.1592
   59MOL0     C 7885   3.413   2.299  11.035  0.5489  0.6900 -0.3994
   59MOL0     C 7886   3.470   2.310  10.909  0.5641  0.4603 -1.3299
   59MOL0     C 7887   3.613   2.336  10.896  0.5020 -0.2663  0.0232
   59MOL0     C 7888   3.693   2.376  11.004  0.5566  0.6208 -0.4040
   59MOL0     O 7889   3.829   2.392  11.003 -0.3580 -0.0963 -0.5101
   59MOL0     C 7890   3.899   2.377  10.878 -0.1556 -0.4363 -0.3288
   59MOL0     C 7891   4.039   2.431  10.881  0.3682 -0.1223  0.0868
   59MOL0     C 7892   4.046   2.587  10.872 -0.2627 -0.1465  0.4313
   59MOL0     C 7893   4.185   2.642  10.894 -0.1165 -0.9588 -0.1563
   59MOL0     C 7894   4.188   2.790  10.883  0.3824  0.6354  0.0077
   59MOL0     C 7895   4.198   2.901  10.838  0.3126 -0.1899  0.4015
   59MOL0     C 7896   3.625   2.375  11.130 -0.7275  0.0012  0.2035
   59MOL0     C 7897   3.496   2.334  11.145  0.4302  0.8942  0.1587
   59MOL0     H 7898   3.015   2.432  11.164  0.2860 -0.7383 -1.6359
   59MOL0     H 7899   2.792   2.384  11.200  0.3146  0.3039 -0.0554
   59MOL0     H 7900   2.682   1.971  11.132  2.2673 -1.5511  2.6040
   59MOL0     H 7901   2.668   1.928  11.290  1.9287  0.0470 -1.7103
   59MOL0     H 7902   2.462   1.878  11.161 -3.3739  0.3688  0.5640
   59MOL0     H 7903   2.430   1.992  11.285 -3.0408  0.9316 -1.2528
   59MOL0     H 7904   2.424   2.186  11.108 -2.0826  0.3646 -1.6304
   59MOL0     H 7905   2.487   2.074  10.993  0.4118  3.1268 -0.4696
   59MOL0     H 7906   2.260   1.954  11.002 -1.9644 -0.7285  1.3986
   59MOL0     H 7907   2.221   2.050  11.148  3.2302 -1.0383  2.4541
   59MOL0     H 7908   2.186   2.244  11.011 -1.9813 -0.1812 -1.4953
   59MOL0     H 7909   2.275   2.169  10.879  1.3290  3.7796  2.0447
   59MOL0     H 7910   2.086   1.994  10.860 -3.7811 -0.1805 -1.0924
   59MOL0     H 7911   2.000   2.073  10.986 -0.8125  0.5586 -0.5516
   59MOL0     H 7912   2.079   2.175  10.710 -1.5093  2.0609 -1.1465
   59MOL0     H 7913   1.919   2.112  10.754 -0.2104  1.1585 -0.0440
   59MOL0     H 7914   2.049   2.351  10.883 -0.4374 -0.5988  2.3518
   59MOL0     H 7915   1.874   2.303  10.899 -2.2859 -3.2525 -2.9922
   59MOL0     H 7916   2.113   2.440  10.612  0.4067 -1.3425  0.0107
   59MOL0     H 7917   2.042   2.461  10.334  0.6308  0.7147 -0.7326
   59MOL0     H 7918   1.876   2.504  10.316  0.6269 -0.6626  0.0800
   59MOL0     H 7919   2.055   2.692  10.288  0.0307 -0.2096  0.7655
   59MOL0     H 7920   2.040   2.696  10.465  1.1665  2.1636 -0.7269
   59MOL0     H 7921   1.896   2.854  10.394 -2.9510  0.3580  0.8864
   59MOL0     H 7922   1.789   2.725  10.409 -0.5994  1.3366 -0.0012
   59MOL0     H 7923   1.796   2.657  10.180  0.8557 -0.1927 -1.8130
   59MOL0     H 7924   1.932   2.759  10.133  0.5966 -0.4681  0.4849
   59MOL0     H 7925   1.610   3.036  10.140 -2.9900 -4.9961  1.4264
   59MOL0     H 7926   1.416   3.167  10.026  1.8610 -3.1268  0.8245
   59MOL0     H 7927   1.511   3.244   9.900 -0.5701  0.3005 -2.1135
   59MOL0     H 7928   1.378   3.134   9.852  0.1680  1.1647 -0.7903
   59MOL0     H 7929   1.306   3.232   9.627  0.1429  2.0457 -0.5213
   59MOL0     H 7930   1.180   3.277   9.436  0.0347  2.9388  0.4105
   59MOL0     H 7931   1.379   3.217   9.055  0.6575 -0.9435  2.6457
   59MOL0     H 7932   1.289   3.065   9.054 -3.9236 -0.5352 -2.4568
   59MOL0     H 7933   1.140   3.310   8.974  0.5593  0.7967 -0.8107
   59MOL0     H 7934   1.242   3.219   8.863  0.9017 -0.7043  0.2648
   59MOL0     H 7935   1.000   3.098   9.013 -0.1685  0.5206 -1.5271
   59MOL0     H 7936   1.137   3.008   8.943  0.3339  0.3569 -0.0182
   59MOL0     H 7937   0.940   3.191   8.810 -0.4253 -0.2148  1.0326
   59MOL0     H 7938   1.064   3.100   8.729  1.4472  3.1610  1.3608
   59MOL0     H 7939   0.799   3.015   8.871 -0.9530  2.9843 -2.8895
   59MOL0     H 7940   0.907   2.894   8.836  0.5724  1.6903  2.8289
   59MOL0     H 7941   0.761   3.078   8.637  1.8574  0.5494 -0.8403
   59MOL0     H 7942   0.917   3.001   8.593 -0.3658  0.8264 -0.2404
   59MOL0     H 7943   0.679   2.851   8.705  1.5928  2.0433  2.6375
   59MOL0     H 7944   0.821   2.779   8.618 -0.6009  0.5466  1.1109
   59MOL0     H 7945   0.610   2.968   8.489 -1.7708  0.0730 -2.1476
   59MOL0     H 7946   0.594   2.796   8.486 -1.9010  2.4099  0.8166
   59MOL0     H 7947   1.511   3.170   9.191 -0.7173  0.4049 -0.0861
   59MOL0     H 7948   1.643   3.111   9.385 -2.0005 -3.0518 -1.9538
   59MOL0     H 7949   1.671   2.805   9.710  2.0990  0.2861  0.1774
   59MOL0     H 7950   1.781   2.728   9.909 -0.1686 -0.1820  1.3511
   59MOL0     H 7951   2.895   1.959  11.273  0.9314  0.8215  0.7828
   59MOL0     H 7952   3.115   2.020  11.257  2.1062  1.2421 -1.2149
   59MOL0     H 7953   3.409   2.300  10.821 -1.4614  0.5568  0.0072
   59MOL0     H 7954   3.650   2.342  10.794 -0.1639 -2.2883 -0.3708
   59MOL0     H 7955   3.900   2.271  10.852  1.4865 -0.0443 -2.0645
   59MOL0     H 7956   3.841   2.433  10.804  0.2251 -0.4264 -0.6208
   59MOL0     H 7957   4.087   2.400  10.788 -1.0404  1.4962 -1.2545
   59MOL0     H 7958   4.091   2.385  10.965  2.0878  0.8290 -0.4059
   59MOL0     H 7959   3.994   2.635  10.955 -0.0989 -0.1982  0.5650
   59MOL0     H 7960   4.012   2.602  10.770  3.1883 -3.2032 -1.4256
   59MOL0     H 7961   4.257   2.610  10.818  0.3786  0.3424 -0.2651
   59MOL0     H 7962   4.225   2.613  10.992  3.3058  1.5066 -0.6448
   59MOL0     H 7963   4.194   3.002  10.803  0.8625  0.2007  1.4256
   59MOL0     H 7964   3.680   2.396  11.221 -3.3144  2.8550  1.2752
   59MOL0     H 7965   3.453   2.322  11.244 -1.2290  1.9561 -0.3778
   60MOL0     O 7966   6.874   7.515   4.619  0.3981 -0.5797  0.3145
   60MOL0     C 7967   6.815   7.582   4.706  0.6248 -0.0634  0.0316
   60MOL0     O 7968   6.727   7.687   4.687  0.7066 -0.0413 -0.7972
   60MOL0     C 7969   6.705   7.721   4.557  0.9313 -0.1156  0.2303
   60MOL0     C 7970   6.719   7.851   4.509 -0.1719 -0.0885  0.4001
   60MOL0     C 7971   6.701   7.889   4.376  0.3080  0.5509 -0.2783
   60MOL0     C 7972   6.652   7.787   4.284  1.2298 -0.5704 -0.4319
   60MOL0     O 7973   6.625   7.809   4.154  0.5646 -0.2584 -1.0866
   60MOL0     C 7974   6.591   7.946   4.112  0.2331  0.2035 -0.1986
   60MOL0     C 7975   6.542   7.956   3.967 -0.2002  0.5077 -0.3586
   60MOL0     C 7976   6.433   7.853   3.938  0.5546  0.3600  0.1954
   60MOL0     C 7977   6.395   7.839   3.791 -0.4192  0.0330 -0.1312
   60MOL0     C 7978   6.284   7.737   3.773  0.1150  0.4921  0.5615
   60MOL0     C 7979   6.206   7.768   3.643 -0.7514  0.2429 -0.3241
   60MOL0     C 7980   6.285   7.779   3.508  0.1330  0.7520  0.5212
   60MOL0     C 7981   6.182   7.772   3.385  0.3384 -0.2321  0.4292
   60MOL0     N 7982   6.254   7.779   3.257 -0.0882 -0.2181 -0.3096
   60MOL0     C 7983   6.252   7.694   3.148 -0.7337 -0.1418 -0.3818
   60MOL0     C 7984   6.358   7.734   3.070 -0.3237 -0.2142 -0.4582
   60MOL0     C 7985   6.392   7.658   2.947 -0.6668 -0.1550 -0.5553
   60MOL0     C 7986   6.369   7.741   2.815 -0.4899  1.1902 -0.0295
   60MOL0     C 7987   6.234   7.814   2.816 -1.2617  0.0527 -1.1075
   60MOL0     C 7988   6.212   7.905   2.699  0.2112 -0.3521 -0.6172
   60MOL0     O 7989   6.194   7.833   2.577 -0.1227 -0.4000 -0.2303
   60MOL0     C 7990   6.064   7.781   2.547 -1.1823 -0.0468 -0.9795
   60MOL0     C 7991   6.062   7.690   2.451  0.6728  0.0673  0.3753
   60MOL0     C 7992   5.945   7.626   2.406  0.7172 -0.1920 -0.5533
   60MOL0     C 7993   5.963   7.509   2.310 -0.3681 -0.2698 -0.2985
   60MOL0     C 7994   5.817   7.664   2.472  0.0803  0.3281 -0.1048
   60MOL0     C 7995   5.687   7.602   2.435 -0.1770  0.1278  0.1333
   60MOL0     O 7996   5.663   7.470   2.465  0.0003 -0.1800 -0.0733
   60MOL0     C 7997   5.538   7.428   2.432 -0.4882 -0.1314 -0.0653
   60MOL0     C 7998   5.432   7.443   2.511  0.6476  0.2463  0.4503
   60MOL0     C 7999   5.304   7.387   2.482 -0.0026  0.4839  0.1872
   60MOL0     C 8000   5.287   7.303   2.367 -0.8167 -0.4925 -0.2200
   60MOL0     O 8001   5.166   7.246   2.347  0.1124  0.4561 -0.5343
   60MOL0     C 8002   5.166   7.142   2.254 -0.3559 -0.0421 -0.1210
   60MOL0     C 8003   5.033   7.064   2.258 -0.2796 -0.2432  0.5211
   60MOL0     C 8004   4.918   7.140   2.195  0.1271  0.9264 -0.6771
   60MOL0     C 8005   4.792   7.043   2.195 -0.6037 -0.3571  0.2429
   60MOL0     C 8006   4.672   7.102   2.108 -0.8275  0.2294 -0.3756
   60MOL0     C 8007   4.552   7.004   2.091 -0.7454  0.1501  0.5697
   60MOL0     C 8008   4.452   6.998   2.204  0.2457 -1.0421 -0.1889
   60MOL0     C 8009   4.382   6.865   2.205  0.4879  0.4124 -0.2186
   60MOL0    Cl 8010   4.298   6.832   2.049 -0.4440 -0.0723  0.4666
   60MOL0     C 8011   5.400   7.291   2.280 -0.3463  0.4894 -0.8080
   60MOL0     C 8012   5.526   7.354   2.316  0.0981 -0.1771 -0.4945
   60MOL0     O 8013   5.606   7.684   2.393  0.4850  0.7813 -0.2978
   60MOL0     C 8014   5.820   7.764   2.571 -0.8355 -0.2408  0.4714
   60MOL0     C 8015   5.941   7.825   2.603  0.9494 -0.0954  0.4562
   60MOL0     N 8016   6.426   7.839   3.126  0.2322 -0.4148 -0.8123
   60MOL0     N 8017   6.354   7.877   3.231  1.0501 -0.2120 -0.0082
   60MOL0     C 8018   6.644   7.652   4.327 -0.0983  0.6103 -0.4486
   60MOL0     C 8019   6.660   7.624   4.465  0.3931 -0.3641  0.6828
   60MOL0     C 8020   6.853   7.551   4.844 -0.0789  0.0296  1.1534
   60MOL0     C 8021   6.937   7.441   4.857 -0.5117 -0.3920  0.1302
   60MOL0     C 8022   6.985   7.407   4.986  0.3056  1.0916  0.1339
   60MOL0     C 8023   6.937   7.490   5.093 -0.2344  0.1374  0.0530
   60MOL0     O 8024   6.969   7.493   5.222  0.3741 -0.7041 -0.2988
   60MOL0     C 8025   6.930   7.378   5.299  0.7346  0.0834  0.3006
   60MOL0     C 8026   7.047   7.298   5.350  1.0826 -0.3117 -0.2325
   60MOL0     C 8027   7.173   7.362   5.413 -0.2035 -0.0468  0.3812
   60MOL0     C 8028   7.136   7.456   5.524  0.2626  0.2075  0.3053
   60MOL0     C 8029   7.093   7.383   5.637  0.7212  0.1945 -0.4031
   60MOL0     C 8030   7.070   7.322   5.740  0.3303 -0.1507  0.1471
   60MOL0     C 8031   6.862   7.598   5.069 -0.4100  0.5435 -0.3196
   60MOL0     C 8032   6.820   7.635   4.948 -0.3762  0.2849 -0.0860
   60MOL0     H 8033   6.747   7.932   4.575 -1.0753  2.3092 -1.9946
   60MOL0     H 8034   6.720   7.995   4.360  1.5556  0.4532  0.4707
   60MOL0     H 8035   6.508   7.986   4.171  0.5008  2.4130 -1.2221
   60MOL0     H 8036   6.673   8.014   4.135  0.4712 -0.7546  2.0549
   60MOL0     H 8037   6.500   8.056   3.949  1.7305  1.2985 -0.6335
   60MOL0     H 8038   6.626   7.946   3.899 -0.2512  3.0121 -0.9085
   60MOL0     H 8039   6.455   7.755   3.982  1.8168  1.1173  1.3263
   60MOL0     H 8040   6.341   7.882   3.990  0.7517 -0.8495  1.3071
   60MOL0     H 8041   6.371   7.939   3.754 -3.2125  0.3821  2.3343
   60MOL0     H 8042   6.486   7.823   3.732  0.1436 -0.3962  0.8169
   60MOL0     H 8043   6.323   7.635   3.766 -2.6612 -0.5692 -2.2071
   60MOL0     H 8044   6.214   7.728   3.857  1.0321 -3.3864  1.1025
   60MOL0     H 8045   6.133   7.687   3.633 -0.0478 -1.5248  5.2668
   60MOL0     H 8046   6.147   7.859   3.659  0.5423  0.8650  1.1220
   60MOL0     H 8047   6.339   7.873   3.497  0.7086  0.2770 -0.9267
   60MOL0     H 8048   6.357   7.699   3.494 -0.1054  0.3887  1.2990
   60MOL0     H 8049   6.113   7.856   3.393  0.5944 -0.0876  1.1777
   60MOL0     H 8050   6.128   7.676   3.385  1.0455 -0.6694 -1.1121
   60MOL0     H 8051   6.184   7.612   3.127 -1.3449 -0.0752  1.2053
   60MOL0     H 8052   6.490   7.609   2.947 -1.6965 -2.5025  1.8789
   60MOL0     H 8053   6.323   7.573   2.943 -0.8333 -0.0157 -0.6360
   60MOL0     H 8054   6.354   7.671   2.733 -0.2792  1.6531 -0.4712
   60MOL0     H 8055   6.453   7.805   2.785  2.3486 -1.9879  0.6035
   60MOL0     H 8056   6.226   7.885   2.899 -3.2160  0.1793 -1.3681
   60MOL0     H 8057   6.148   7.748   2.820 -2.2419  1.2201 -2.2466
   60MOL0     H 8058   6.304   7.964   2.692  1.4897 -2.1970 -0.2340
   60MOL0     H 8059   6.117   7.953   2.724 -1.6737 -3.3844 -1.4338
   60MOL0     H 8060   6.158   7.663   2.409  0.4305  1.6339 -1.2726
   60MOL0     H 8061   5.885   7.433   2.320 -0.6790  0.2469  1.4158
   60MOL0     H 8062   5.945   7.535   2.205  0.2766 -1.4188 -0.7211
   60MOL0     H 8063   6.061   7.465   2.334 -1.9583 -4.4477 -0.5045
   60MOL0     H 8064   5.442   7.510   2.595  1.5652  0.2070  0.3774
   60MOL0     H 8065   5.215   7.404   2.541 -0.7516  1.8659 -1.2558
   60MOL0     H 8066   5.171   7.175   2.149 -0.1904  1.4118  0.3207
   60MOL0     H 8067   5.248   7.079   2.289  0.6410  0.9889 -0.5295
   60MOL0     H 8068   5.053   6.970   2.207  0.0936  0.5278 -0.7905
   60MOL0     H 8069   5.005   7.053   2.364 -2.3572  2.4153  0.3592
   60MOL0     H 8070   4.935   7.180   2.095 -4.6433 -0.3497 -2.2969
   60MOL0     H 8071   4.899   7.223   2.265  1.9687  0.2274  0.7315
   60MOL0     H 8072   4.822   6.948   2.150 -2.5453 -1.7034  1.6085
   60MOL0     H 8073   4.758   7.013   2.294 -0.1451  0.1331  0.5500
   60MOL0     H 8074   4.710   7.128   2.009  1.3610 -0.8770  0.1041
   60MOL0     H 8075   4.634   7.201   2.135 -1.2088  1.6687 -5.1945
   60MOL0     H 8076   4.502   7.034   1.998  1.4195  1.4862 -0.2641
   60MOL0     H 8077   4.589   6.903   2.070  2.4725  1.0390  1.3476
   60MOL0     H 8078   4.382   7.079   2.186  0.2085 -1.4913 -2.3727
   60MOL0     H 8079   4.504   7.000   2.301 -1.3742 -0.7560  0.7012
   60MOL0     H 8080   4.310   6.858   2.287  0.2825  1.3584 -0.3013
   60MOL0     H 8081   4.455   6.785   2.215  0.5794 -0.0141 -3.4341
   60MOL0     H 8082   5.403   7.229   2.191  0.3948 -0.7587  0.0723
   60MOL0     H 8083   5.616   7.343   2.255  0.8056 -0.4992  0.5808
   60MOL0     H 8084   5.737   7.800   2.631 -1.1915  0.5118 -0.4302
   60MOL0     H 8085   5.928   7.897   2.684 -2.3942 -2.9574  2.7739
   60MOL0     H 8086   6.627   7.572   4.256 -1.0881 -0.1457  0.6000
   60MOL0     H 8087   6.647   7.524   4.505  1.4750 -1.0052 -0.4855
   60MOL0     H 8088   6.972   7.376   4.778 -0.8520 -0.4148 -0.0027
   60MOL0     H 8089   7.066   7.340   5.012 -0.8443 -0.2369  0.4042
   60MOL0     H 8090   6.873   7.406   5.388 -0.0943  1.0259 -0.4953
   60MOL0     H 8091   6.866   7.312   5.239  0.3979  0.0825  0.6539
   60MOL0     H 8092   7.078   7.239   5.263 -5.2731 -3.3323 -1.0457
   60MOL0     H 8093   7.006   7.227   5.422 -3.9429  0.8872 -1.5330
   60MOL0     H 8094   7.222   7.418   5.332 -0.7593  1.5019  1.0713
   60MOL0     H 8095   7.238   7.284   5.452  0.0122 -0.3767 -0.5990
   60MOL0     H 8096   7.056   7.526   5.500  0.4013  1.3453  2.7924
   60MOL0     H 8097   7.224   7.516   5.548 -0.5898  1.7064 -0.1809
   60MOL0     H 8098   7.055   7.274   5.834 -0.7788  0.7771  0.4628
   60MOL0     H 8099   6.845   7.658   5.158  0.2653  0.4020 -0.0921
   60MOL0     H 8100   6.772   7.728   4.918  1.2239 -0.2346 -5.2472
   61MOL0     O 8101   4.391   6.103  10.844 -0.3662  0.2685 -0.0244
   61MOL0     C 8102   4.461   6.166  10.918  1.1105  0.2774  0.0786
   61MOL0     O 8103   4.443   6.176  11.055  0.0364 -0.0288 -0.1752
   61MOL0     C 8104   4.339   6.106  11.117  0.6081  0.0935 -0.0687
   61MOL0     C 8105   4.284   6.157  11.235  0.1480 -0.7557  0.4203
   61MOL0     C 8106   4.180   6.091  11.307 -0.2881  0.1986  1.4758
   61MOL0     C 8107   4.123   5.967  11.251  0.5814 -0.4214  0.1525
   61MOL0     O 8108   4.006   5.912  11.286  0.2957  0.1799 -0.0664
   61MOL0     C 8109   3.910   6.012  11.341 -0.2168  0.8690 -0.2117
   61MOL0     C 8110   3.776   5.949  11.384  0.4038  0.1419 -0.1660
   61MOL0     C 8111   3.677   6.051  11.445  0.0387 -1.1992  0.7465
   61MOL0     C 8112   3.655   6.194  11.373 -1.1876 -1.1361  0.4502
   61MOL0     C 8113   3.586   6.188  11.232  0.5606  0.3313 -0.3130
   61MOL0     C 8114   3.546   6.329  11.190 -0.0491  0.6009  0.6308
   61MOL0     C 8115   3.660   6.425  11.150 -0.3010  0.7589  0.7101
   61MOL0     C 8116   3.616   6.544  11.067  0.0312  0.5132  0.0770
   61MOL0     N 8117   3.519   6.633  11.126 -0.0382 -0.0740  0.2305
   61MOL0     C 8118   3.390   6.632  11.108 -0.5647  0.7920  0.0445
   61MOL0     C 8119   3.347   6.740  11.179  0.8796 -0.6464 -0.2780
   61MOL0     C 8120   3.213   6.794  11.210 -0.4430 -0.5675  0.5584
   61MOL0     C 8121   3.118   6.762  11.102 -0.3187 -0.3656 -0.8099
   61MOL0     C 8122   2.978   6.822  11.137  0.6493 -0.2825  0.1929
   61MOL0     C 8123   2.882   6.824  11.011  0.4348  0.6269 -0.3310
   61MOL0     O 8124   2.861   6.691  10.972  0.9066  0.0607 -0.4844
   61MOL0     C 8125   2.727   6.662  10.953  1.0598  0.4637  0.2381
   61MOL0     C 8126   2.686   6.535  10.986  0.4897  0.7046 -0.3754
   61MOL0     C 8127   2.560   6.484  10.966 -0.8562 -0.7929  0.1149
   61MOL0     C 8128   2.542   6.343  11.018 -0.4123 -0.1145  0.4917
   61MOL0     C 8129   2.462   6.578  10.903  0.4143  0.1227 -0.8195
   61MOL0     C 8130   2.323   6.537  10.879  0.8878  0.0126  0.4632
   61MOL0     O 8131   2.289   6.406  10.907 -0.4798 -0.1710 -0.0345
   61MOL0     C 8132   2.166   6.344  10.897  0.4589 -0.2709 -0.8810
   61MOL0     C 8133   2.147   6.222  10.976  0.5777 -0.5647 -0.3865
   61MOL0     C 8134   2.024   6.148  10.970 -0.6515 -0.3408 -0.9371
   61MOL0     C 8135   1.929   6.173  10.877 -0.3510  0.1446 -0.2184
   61MOL0     O 8136   1.827   6.092  10.876  0.2194 -0.6260  0.0299
   61MOL0     C 8137   1.711   6.132  10.789  0.5770  0.8135  0.1909
   61MOL0     C 8138   1.580   6.114  10.855 -0.0908  0.1630  0.2343
   61MOL0     C 8139   1.471   6.168  10.774  0.7116 -0.6205 -0.2455
   61MOL0     C 8140   1.344   6.178  10.857 -0.7556 -1.1707  0.0422
   61MOL0     C 8141   1.245   6.272  10.797  0.0801  0.0797  0.6587
   61MOL0     C 8142   1.099   6.230  10.834  0.1515 -0.4916  0.2367
   61MOL0     C 8143   1.057   6.269  10.974  1.1103  0.5414 -0.1457
   61MOL0     C 8144   0.906   6.273  10.990  1.3170  0.1926 -0.1230
   61MOL0    Cl 8145   0.825   6.405  10.907  0.1843 -0.0164 -0.2554
   61MOL0     C 8146   1.962   6.279  10.783  0.0329 -0.9972 -1.1302
   61MOL0     C 8147   2.074   6.369  10.806  0.6270  0.2313  0.2662
   61MOL0     O 8148   2.247   6.616  10.827 -0.1225  0.0799 -0.4422
   61MOL0     C 8149   2.501   6.708  10.867  0.2418  0.4385 -0.2276
   61MOL0     C 8150   2.631   6.755  10.889 -0.7544  0.2180 -0.6910
   61MOL0     N 8151   3.454   6.804  11.227 -1.0986 -0.2948 -0.4867
   61MOL0     N 8152   3.555   6.743  11.194 -0.4679  0.1647 -0.9183
   61MOL0     C 8153   4.180   5.910  11.141 -0.5913 -0.3679 -0.4738
   61MOL0     C 8154   4.282   5.982  11.075 -0.3970  0.7865  1.1117
   61MOL0     C 8155   4.580   6.240  10.866  0.4385  0.4988 -0.5814
   61MOL0     C 8156   4.609   6.229  10.734 -1.5365  0.4128 -0.5405
   61MOL0     C 8157   4.721   6.298  10.682 -0.6037  0.3342 -0.7257
   61MOL0     C 8158   4.812   6.355  10.769 -0.2685 -0.7677 -0.3906
   61MOL0     O 8159   4.928   6.416  10.728  0.1220 -0.0391 -0.0167
   61MOL0     C 8160   5.044   6.333  10.753  0.7203  0.1125  0.5962
   61MOL0     C 8161   5.051   6.222  10.649 -0.3722 -0.6251  0.6632
   61MOL0     C 8162   5.064   6.291  10.511  0.4298 -0.0675  0.1387
   61MOL0     C 8163   5.196   6.258  10.444  0.4501 -0.4211  0.1450
   61MOL0     C 8164   5.221   6.360  10.339  0.3487  0.1521  1.1785
   61MOL0     C 8165   5.249   6.425  10.243  0.4196  0.0229 -0.4545
   61MOL0     C 8166   4.771   6.374  10.903 -0.1014 -1.0243  0.2479
   61MOL0     C 8167   4.658   6.317  10.948  0.0922  0.5598  0.4314
   61MOL0     H 8168   4.318   6.250  11.281  0.4197 -1.1279  0.9941
   61MOL0     H 8169   4.144   6.154  11.389 -1.2448  2.0337 -0.2618
   61MOL0     H 8170   3.953   6.054  11.433  1.1982  2.8011 -1.6719
   61MOL0     H 8171   3.898   6.089  11.265 -0.7408  1.1570  0.1580
   61MOL0     H 8172   3.733   5.907  11.292  0.6297  1.5625 -0.9566
   61MOL0     H 8173   3.779   5.867  11.456 -3.2910  0.4259  0.4855
   61MOL0     H 8174   3.576   6.009  11.439  0.3026 -1.6118 -1.6419
   61MOL0     H 8175   3.698   6.059  11.552 -0.0608  1.2598  0.6370
   61MOL0     H 8176   3.593   6.256  11.438 -0.3981  0.7413 -0.5334
   61MOL0     H 8177   3.753   6.240  11.361 -1.8961  0.3220  0.0255
   61MOL0     H 8178   3.653   6.140  11.160  0.5330 -0.9487  0.4992
   61MOL0     H 8179   3.494   6.129  11.226  0.5518  0.4785 -2.5861
   61MOL0     H 8180   3.482   6.314  11.102  1.2914  1.2906 -0.5060
   61MOL0     H 8181   3.480   6.387  11.255  0.5830  1.7012  0.3152
   61MOL0     H 8182   3.716   6.464  11.236  0.8745 -0.2895  0.4593
   61MOL0     H 8183   3.730   6.367  11.089 -2.8375 -0.5156 -1.1560
   61MOL0     H 8184   3.573   6.506  10.973 -2.5002  1.3558  0.8026
   61MOL0     H 8185   3.703   6.608  11.048 -2.2303  3.3978 -1.4690
   61MOL0     H 8186   3.324   6.558  11.063 -1.5892  0.9679  1.2144
   61MOL0     H 8187   3.185   6.745  11.304  1.9233 -2.7942  0.2046
   61MOL0     H 8188   3.216   6.900  11.234 -1.0852 -0.0656 -1.3800
   61MOL0     H 8189   3.115   6.653  11.094  1.2481 -0.4803 -0.1515
   61MOL0     H 8190   3.156   6.812  11.012  0.8670  1.3666  0.5844
   61MOL0     H 8191   2.985   6.920  11.183  0.5105 -0.3161  0.2854
   61MOL0     H 8192   2.931   6.764  11.217 -2.1306 -2.0669 -2.4706
   61MOL0     H 8193   2.935   6.871  10.928  2.4209  0.5235  0.8063
   61MOL0     H 8194   2.793   6.883  11.036 -1.6694 -2.9439  1.3539
   61MOL0     H 8195   2.761   6.483  11.045 -1.3477  0.4827  1.8935
   61MOL0     H 8196   2.465   6.344  11.096 -1.0057 -1.0444 -0.0576
   61MOL0     H 8197   2.510   6.267  10.947 -1.5522 -0.6746  1.5620
   61MOL0     H 8198   2.634   6.306  11.064  1.1281 -0.5700 -2.6846
   61MOL0     H 8199   2.228   6.194  11.043 -0.6944 -2.9342  0.3009
   61MOL0     H 8200   2.001   6.081  11.052  2.1180  0.6015  0.7284
   61MOL0     H 8201   1.723   6.237  10.762  0.5341  0.4405 -1.3504
   61MOL0     H 8202   1.718   6.081  10.693 -0.3880  3.0178 -1.1395
   61MOL0     H 8203   1.569   6.009  10.883 -0.1050  0.0725 -0.1033
   61MOL0     H 8204   1.584   6.175  10.946  1.1257  0.4210  0.0195
   61MOL0     H 8205   1.466   6.098  10.690  0.0479 -2.5994  1.3458
   61MOL0     H 8206   1.502   6.265  10.736  3.7399 -0.7791  1.5364
   61MOL0     H 8207   1.304   6.076  10.863  1.8302 -2.4280 -1.9772
   61MOL0     H 8208   1.368   6.203  10.961 -1.0931 -2.0408  0.3387
   61MOL0     H 8209   1.259   6.277  10.689 -2.1257  0.1484  0.3165
   61MOL0     H 8210   1.267   6.375  10.826  0.2356  0.4093 -0.5763
   61MOL0     H 8211   1.023   6.271  10.768  2.0496  0.8193 -1.2614
   61MOL0     H 8212   1.096   6.121  10.822  1.8659 -0.9879  3.2124
   61MOL0     H 8213   1.096   6.369  10.995 -2.1932  1.8166  0.5050
   61MOL0     H 8214   1.094   6.194  11.044 -1.6444 -3.2502 -2.3953
   61MOL0     H 8215   0.873   6.276  11.094 -0.3189 -0.3603 -0.5954
   61MOL0     H 8216   0.853   6.183  10.956  0.5535  1.0220 -1.1689
   61MOL0     H 8217   1.901   6.309  10.699  0.3248  0.7308 -0.7715
   61MOL0     H 8218   2.081   6.447  10.730 -2.2040 -1.9370 -2.4819
   61MOL0     H 8219   2.439   6.785  10.821 -2.1821 -2.2040 -1.6611
   61MOL0     H 8220   2.659   6.856  10.862  1.9205 -0.2623 -0.0342
   61MOL0     H 8221   4.127   5.829  11.092  0.1685 -1.1820  0.0138
   61MOL0     H 8222   4.326   5.923  10.996 -1.6332  0.5397  0.5819
   61MOL0     H 8223   4.558   6.174  10.655  0.3631  1.6064 -2.7111
   61MOL0     H 8224   4.753   6.290  10.578  2.5277 -0.1880  0.1746
   61MOL0     H 8225   5.133   6.395  10.748 -0.3931  1.6918 -1.4456
   61MOL0     H 8226   5.032   6.283  10.849  0.9682  3.4871  2.5181
   61MOL0     H 8227   4.967   6.152  10.654 -0.8883 -0.2308 -1.3104
   61MOL0     H 8228   5.151   6.181  10.664 -0.1706 -1.6495 -2.5937
   61MOL0     H 8229   5.041   6.398  10.513  2.9090  0.5659 -1.3009
   61MOL0     H 8230   4.984   6.241  10.455 -0.8412  0.2249  1.6230
   61MOL0     H 8231   5.192   6.156  10.406 -1.3815 -0.7015  1.0107
   61MOL0     H 8232   5.277   6.267  10.516  0.6994 -0.2274 -0.1540
   61MOL0     H 8233   5.264   6.480  10.152  0.5177  2.1387  0.7682
   61MOL0     H 8234   4.819   6.449  10.964 -0.3970 -0.4645 -0.2030
   61MOL0     H 8235   4.628   6.333  11.052  1.4775  1.3980  0.7219
   62MOL0     O 8236   8.023   5.574   8.132 -0.0078 -0.1304  0.1445
   62MOL0     C 8237   8.068   5.641   8.219 -0.4052  0.2233  0.7424
   62MOL0     O 8238   7.995   5.696   8.321  0.7167 -0.1450 -0.6226
   62MOL0     C 8239   7.860   5.665   8.318  0.0496 -0.9461  0.4794
   62MOL0     C 8240   7.807   5.568   8.402  0.2606  0.3177  0.2885
   62MOL0     C 8241   7.663   5.535   8.405  0.5584  0.0848  0.4120
   62MOL0     C 8242   7.575   5.604   8.319  0.2222 -0.7364  0.5870
   62MOL0     O 8243   7.437   5.568   8.328  0.3891 -0.3723 -0.3778
   62MOL0     C 8244   7.375   5.561   8.205 -1.3451 -0.3868  0.4921
   62MOL0     C 8245   7.235   5.526   8.234  0.4411  0.3768 -0.4528
   62MOL0     C 8246   7.143   5.557   8.118  0.3081 -0.2926  0.0227
   62MOL0     C 8247   7.007   5.486   8.133 -0.2964 -0.4273  0.1225
   62MOL0     C 8248   6.915   5.522   8.022 -0.1393  0.3426 -0.0321
   62MOL0     C 8249   6.787   5.449   8.031  0.2782 -0.0845  1.2413
   62MOL0     C 8250   6.785   5.300   7.986 -0.0656  0.0561  0.3250
   62MOL0     C 8251   6.653   5.252   7.925  0.6517 -0.2806 -0.1318
   62MOL0     N 8252   6.548   5.271   8.029 -0.0295 -0.0956  0.6852
   62MOL0     C 8253   6.509   5.175   8.121 -0.1340 -0.0900 -0.0488
   62MOL0     C 8254   6.406   5.228   8.191 -0.3367  0.0546 -0.1185
   62MOL0     C 8255   6.315   5.175   8.293 -0.2256 -0.2363  0.3233
   62MOL0     C 8256   6.225   5.057   8.236  0.3170 -0.8294 -0.1609
   62MOL0     C 8257   6.097   5.120   8.180 -0.1742 -0.2525  0.3584
   62MOL0     C 8258   5.997   5.028   8.119  0.2122  0.2874 -0.6330
   62MOL0     O 8259   5.986   4.899   8.173  0.7578 -0.5005  0.3530
   62MOL0     C 8260   5.913   4.870   8.282  0.1917  0.1900  0.1063
   62MOL0     C 8261   5.803   4.940   8.332  0.0727 -0.0161  0.3475
   62MOL0     C 8262   5.726   4.883   8.437 -0.2818  0.6357 -0.6861
   62MOL0     C 8263   5.615   4.968   8.493  0.3975 -0.0865  0.4670
   62MOL0     C 8264   5.758   4.748   8.474 -0.0129 -0.3708 -0.5686
   62MOL0     C 8265   5.667   4.680   8.565  0.8129  0.9901 -0.7715
   62MOL0     O 8266   5.539   4.661   8.519  0.1593  0.1281  0.1251
   62MOL0     C 8267   5.427   4.611   8.591 -0.8388 -1.2026 -0.1560
   62MOL0     C 8268   5.422   4.557   8.716  0.7534 -0.3800  0.1103
   62MOL0     C 8269   5.297   4.509   8.769 -0.4055 -0.0263 -0.6063
   62MOL0     C 8270   5.177   4.516   8.694 -0.0391  0.1896 -0.4960
   62MOL0     O 8271   5.059   4.478   8.749  0.6446 -0.3056 -0.1605
   62MOL0     C 8272   4.971   4.394   8.669 -1.1782 -0.1963 -0.0807
   62MOL0     C 8273   4.826   4.438   8.689 -0.5764  0.5518 -0.5255
   62MOL0     C 8274   4.723   4.338   8.633  0.6523  0.0683  0.2525
   62MOL0     C 8275   4.590   4.399   8.610  0.4393 -0.5485 -0.5201
   62MOL0     C 8276   4.490   4.296   8.546  0.0651 -0.6580  0.0240
   62MOL0     C 8277   4.392   4.367   8.455  0.5174 -0.8741  0.2353
   62MOL0     C 8278   4.276   4.279   8.409 -1.0650 -0.4411 -0.4908
   62MOL0     C 8279   4.171   4.361   8.340  0.8879  0.0917 -0.7254
   62MOL0    Cl 8280   4.008   4.272   8.360 -0.2597 -0.6609  0.2681
   62MOL0     C 8281   5.188   4.568   8.569 -0.4374  0.0778  0.0096
   62MOL0     C 8282   5.310   4.600   8.511 -0.0738  0.2039 -0.8811
   62MOL0     O 8283   5.716   4.616   8.660  0.3351  0.0338 -0.3623
   62MOL0     C 8284   5.868   4.683   8.433  0.6242  0.6894  0.1208
   62MOL0     C 8285   5.945   4.747   8.340 -0.0249 -0.4819 -0.0240
   62MOL0     N 8286   6.382   5.361   8.144 -0.0820  0.0226  1.4659
   62MOL0     N 8287   6.465   5.383   8.040 -0.2232  0.9391 -0.4884
   62MOL0     C 8288   7.627   5.698   8.231  0.0272 -0.7322 -0.3128
   62MOL0     C 8289   7.761   5.731   8.235 -0.1393 -0.0402  1.3197
   62MOL0     C 8290   8.215   5.660   8.205 -0.9448  0.1368 -0.5337
   62MOL0     C 8291   8.281   5.674   8.088 -0.3272 -0.4687  0.4834
   62MOL0     C 8292   8.424   5.709   8.077 -0.0110 -0.4625  0.2422
   62MOL0     C 8293   8.492   5.737   8.196  0.5675 -0.4700  0.5872
   62MOL0     O 8294   8.625   5.776   8.205 -0.0400  0.4478  0.4257
   62MOL0     C 8295   8.692   5.795   8.078  0.0676 -0.9771 -1.4595
   62MOL0     C 8296   8.823   5.861   8.115 -0.1794  0.9812  0.1288
   62MOL0     C 8297   8.929   5.755   8.157 -0.0181 -0.0437  0.0847
   62MOL0     C 8298   9.070   5.814   8.155  0.0861 -0.1595  1.1021
   62MOL0     C 8299   9.178   5.714   8.171  0.7430 -0.5410 -1.1782
   62MOL0     C 8300   9.267   5.641   8.194 -0.1005  0.0912  0.4889
   62MOL0     C 8301   8.423   5.738   8.313  0.6623  0.8683 -0.0430
   62MOL0     C 8302   8.284   5.697   8.320 -0.1107  0.8301 -0.3395
   62MOL0     H 8303   7.869   5.502   8.462 -1.8574 -1.4509  0.6721
   62MOL0     H 8304   7.628   5.450   8.462  0.7768  1.0881  2.0830
   62MOL0     H 8305   7.380   5.659   8.157  2.2571 -0.7401 -0.1369
   62MOL0     H 8306   7.424   5.485   8.143  1.9596  2.4971 -0.7321
   62MOL0     H 8307   7.228   5.421   8.264 -0.1250  0.6790  0.5555
   62MOL0     H 8308   7.187   5.570   8.322  0.9000 -0.2034  0.0963
   62MOL0     H 8309   7.129   5.664   8.103  0.3267 -0.5068 -1.6629
   62MOL0     H 8310   7.202   5.512   8.038  1.6484 -0.0935  0.8706
   62MOL0     H 8311   7.023   5.379   8.144  1.6952 -0.0432  1.7201
   62MOL0     H 8312   6.954   5.523   8.222  0.5468  0.8193  0.1416
   62MOL0     H 8313   6.886   5.627   8.036 -1.5608 -0.0700  0.2121
   62MOL0     H 8314   6.962   5.505   7.925  1.9030  1.2307  0.7290
   62MOL0     H 8315   6.746   5.458   8.132 -0.6010  0.8654  0.8253
   62MOL0     H 8316   6.710   5.497   7.970 -1.4669 -2.6390  1.2927
   62MOL0     H 8317   6.871   5.283   7.920  2.0044 -0.5271  2.9766
   62MOL0     H 8318   6.806   5.242   8.076 -2.1156 -0.8353  0.2853
   62MOL0     H 8319   6.657   5.147   7.896  0.1003 -0.1592 -0.6702
   62MOL0     H 8320   6.640   5.323   7.843  3.8302 -0.1714 -0.6689
   62MOL0     H 8321   6.546   5.073   8.117 -1.0809 -0.4192 -0.9909
   62MOL0     H 8322   6.383   5.128   8.365 -0.3366  1.3625  1.5354
   62MOL0     H 8323   6.255   5.254   8.340 -0.0845 -0.0540  0.1999
   62MOL0     H 8324   6.204   4.993   8.322 -0.4263  0.7895  0.9044
   62MOL0     H 8325   6.282   5.000   8.162 -0.4170 -1.4953 -0.2159
   62MOL0     H 8326   6.125   5.189   8.100 -2.4992 -1.0648 -1.2449
   62MOL0     H 8327   6.056   5.171   8.267  1.6978 -0.8517  1.6767
   62MOL0     H 8328   6.033   5.020   8.016  1.2532 -0.6397 -0.2036
   62MOL0     H 8329   5.905   5.089   8.122 -0.4213 -0.6320  2.4516
   62MOL0     H 8330   5.772   5.037   8.294 -1.4082  0.1375  1.8146
   62MOL0     H 8331   5.644   5.019   8.585 -2.2118  0.0117  1.2987
   62MOL0     H 8332   5.561   5.032   8.423 -0.4197 -1.2714 -0.0057
   62MOL0     H 8333   5.530   4.903   8.515  0.5578 -0.9437 -1.2482
   62MOL0     H 8334   5.510   4.543   8.777 -0.6066 -1.8246  1.8814
   62MOL0     H 8335   5.293   4.475   8.872  0.4094  0.3900 -0.4308
   62MOL0     H 8336   5.005   4.402   8.565  1.9490 -0.8591  0.7775
   62MOL0     H 8337   4.993   4.293   8.703 -0.0617  0.4955  1.3862
   62MOL0     H 8338   4.814   4.467   8.794 -0.2856 -0.1095 -0.3072
   62MOL0     H 8339   4.820   4.530   8.629  1.2939  0.1074 -1.4888
   62MOL0     H 8340   4.708   4.252   8.700  0.0894 -1.1928 -1.4069
   62MOL0     H 8341   4.757   4.288   8.542 -1.6084  2.1475 -1.8944
   62MOL0     H 8342   4.545   4.438   8.702 -0.9793 -1.1994 -0.9073
   62MOL0     H 8343   4.597   4.487   8.546 -0.0254  0.4864  0.7978
   62MOL0     H 8344   4.433   4.241   8.622  0.7010 -0.0202  0.9857
   62MOL0     H 8345   4.541   4.218   8.488 -2.2872 -1.4952 -1.0163
   62MOL0     H 8346   4.352   4.452   8.509 -0.1897 -0.0118 -1.5612
   62MOL0     H 8347   4.442   4.409   8.367 -2.7756  2.1892 -0.3699
   62MOL0     H 8348   4.237   4.225   8.496  0.5610 -3.6642 -1.6084
   62MOL0     H 8349   4.317   4.201   8.344  0.5257  1.9676 -2.5899
   62MOL0     H 8350   4.202   4.363   8.235  3.1640  1.6570 -0.1155
   62MOL0     H 8351   4.169   4.464   8.376  0.9195  0.0190 -0.5172
   62MOL0     H 8352   5.101   4.570   8.504 -0.1139 -1.8866 -0.5598
   62MOL0     H 8353   5.307   4.634   8.408 -1.1620  1.0957 -0.5693
   62MOL0     H 8354   5.898   4.586   8.471  2.1107  0.8686 -0.4817
   62MOL0     H 8355   6.039   4.704   8.307  2.0106  2.0587  1.9995
   62MOL0     H 8356   7.570   5.770   8.173  0.8657  0.2636  0.0582
   62MOL0     H 8357   7.800   5.817   8.181 -1.0589 -0.4918 -0.1199
   62MOL0     H 8358   8.222   5.661   7.998  2.7920  0.9341 -1.9726
   62MOL0     H 8359   8.463   5.717   7.976 -1.5049  1.5888 -0.2335
   62MOL0     H 8360   8.706   5.709   8.012  1.6117 -0.4216 -1.9123
   62MOL0     H 8361   8.628   5.862   8.020 -2.8049 -2.5928 -0.3089
   62MOL0     H 8362   8.811   5.934   8.196 -1.0321  1.4807 -0.4426
   62MOL0     H 8363   8.861   5.920   8.032 -1.9020  0.7231 -0.8792
   62MOL0     H 8364   8.919   5.670   8.089 -1.9332  0.6747 -0.6025
   62MOL0     H 8365   8.926   5.712   8.257  1.6885 -0.2982  0.0561
   62MOL0     H 8366   9.087   5.904   8.214  0.0543  0.8836 -0.4287
   62MOL0     H 8367   9.067   5.842   8.049 -0.4562 -2.2578  0.5084
   62MOL0     H 8368   9.357   5.584   8.210  0.2821 -0.0206 -1.7324
   62MOL0     H 8369   8.481   5.768   8.400  2.0547 -0.1600 -0.5750
   62MOL0     H 8370   8.245   5.698   8.421  1.1211 -0.9524  0.2113
   63MOL0     O 8371   6.933   5.158   8.423 -0.5132 -0.4194 -0.4021
   63MOL0     C 8372   6.946   5.262   8.482 -0.3403 -0.3191  0.6406
   63MOL0     O 8373   7.057   5.302   8.554 -0.1689 -0.1389  0.2572
   63MOL0     C 8374   7.180   5.239   8.544 -0.1834 -0.3820  0.2781
   63MOL0     C 8375   7.254   5.224   8.663  0.3924  0.6549 -0.7423
   63MOL0     C 8376   7.374   5.162   8.651 -0.6329  1.1530 -0.2586
   63MOL0     C 8377   7.422   5.110   8.527  0.8402  0.1688  0.1311
   63MOL0     O 8378   7.526   5.018   8.521  0.2381 -0.6571 -0.0120
   63MOL0     C 8379   7.639   5.041   8.603 -0.2801 -0.3091 -0.2753
   63MOL0     C 8380   7.751   4.945   8.540 -0.7150 -0.2989 -0.8969
   63MOL0     C 8381   7.883   5.023   8.547 -0.7677  0.3760  0.4691
   63MOL0     C 8382   7.996   4.937   8.502 -0.1106  0.0370  0.3220
   63MOL0     C 8383   8.117   5.023   8.492  0.6724  0.1765 -0.1096
   63MOL0     C 8384   8.124   5.110   8.372 -0.0784 -0.2573  0.5783
   63MOL0     C 8385   8.250   5.197   8.364 -0.7496  0.6282  0.0006
   63MOL0     C 8386   8.240   5.297   8.470 -0.5660 -0.8877  0.3415
   63MOL0     N 8387   8.353   5.397   8.483  0.0943 -0.6412 -0.2719
   63MOL0     C 8388   8.484   5.385   8.438  1.0659  0.2732  0.4194
   63MOL0     C 8389   8.554   5.477   8.504  0.3994 -0.9014 -0.0727
   63MOL0     C 8390   8.700   5.506   8.500  1.2758  1.0478 -0.4496
   63MOL0     C 8391   8.756   5.466   8.636  0.5291  0.3795  0.7473
   63MOL0     C 8392   8.826   5.330   8.628  0.1878 -0.2605 -0.2651
   63MOL0     C 8393   8.922   5.301   8.746  0.2880 -0.1808  0.5214
   63MOL0     O 8394   9.031   5.392   8.738  0.0376  0.0326  0.0425
   63MOL0     C 8395   9.156   5.340   8.757  0.0110  0.1240  0.2488
   63MOL0     C 8396   9.187   5.236   8.851 -0.2599 -0.2013  0.2442
   63MOL0     C 8397   9.318   5.182   8.848  0.0474  0.6545  0.7323
   63MOL0     C 8398   9.334   5.075   8.953 -0.0463  0.3502 -0.3887
   63MOL0     C 8399   9.420   5.226   8.753  0.6585  0.5993  0.3679
   63MOL0     C 8400   9.557   5.160   8.747  0.2525  0.2613 -0.3098
   63MOL0     O 8401   9.615   5.186   8.626  0.7167  0.2745  0.2816
   63MOL0     C 8402   9.727   5.128   8.599  0.2338 -0.6091  0.1952
   63MOL0     C 8403   9.736   5.010   8.515  0.4717  0.4469  0.2221
   63MOL0     C 8404   9.866   4.966   8.481  0.7821 -0.2397 -0.5115
   63MOL0     C 8405   9.983   5.030   8.523  0.4394  0.4564  1.3452
   63MOL0     O 8406  10.112   4.997   8.489  0.1696 -0.1730 -0.7038
   63MOL0     C 8407  10.129   4.898   8.382  0.2403  0.8222 -0.6209
   63MOL0     C 8408  10.273   4.886   8.333 -0.5242  0.4755  1.2093
   63MOL0     C 8409  10.296   4.771   8.238  0.3405  0.0409  0.4263
   63MOL0     C 8410  10.443   4.754   8.201  0.6608  0.1899 -0.6919
   63MOL0     C 8411  10.467   4.689   8.066  0.6624 -0.2269 -0.4735
   63MOL0     C 8412  10.439   4.775   7.942 -0.5198  0.2753  0.0831
   63MOL0     C 8413  10.442   4.680   7.829  0.1058 -0.2145  0.6323
   63MOL0     C 8414  10.436   4.743   7.691  0.6285  0.4543  0.0929
   63MOL0    Cl 8415  10.598   4.826   7.684  0.1565  0.2730  0.1782
   63MOL0     C 8416   9.970   5.143   8.594 -0.1875 -0.3357 -0.1434
   63MOL0     C 8417   9.840   5.189   8.642 -2.0854  0.1161  0.0425
   63MOL0     O 8418   9.603   5.086   8.836  0.5115  0.0097  0.3358
   63MOL0     C 8419   9.376   5.324   8.666 -0.5900  0.0933 -0.1434
   63MOL0     C 8420   9.250   5.373   8.666  0.5009 -0.0798 -0.2860
   63MOL0     N 8421   8.464   5.532   8.600  0.1569 -0.3905  0.0899
   63MOL0     N 8422   8.347   5.489   8.574  0.4142  0.5707  0.0303
   63MOL0     C 8423   7.349   5.116   8.414  0.2408  0.4626 -0.1550
   63MOL0     C 8424   7.225   5.189   8.416 -0.5510 -0.1692 -0.5811
   63MOL0     C 8425   6.836   5.359   8.487 -0.4953  0.2377  0.3320
   63MOL0     C 8426   6.843   5.478   8.564  0.3453  0.5599 -0.4200
   63MOL0     C 8427   6.741   5.563   8.560  0.1167  0.3109 -0.8638
   63MOL0     C 8428   6.646   5.552   8.465  0.2091 -0.5158  0.5118
   63MOL0     O 8429   6.548   5.651   8.463  0.2334 -0.2643  0.3198
   63MOL0     C 8430   6.435   5.648   8.375 -0.3519  0.0463  0.6031
   63MOL0     C 8431   6.370   5.787   8.377  0.1351  0.6687 -0.5324
   63MOL0     C 8432   6.250   5.796   8.274  1.0359 -0.5067 -0.3218
   63MOL0     C 8433   6.183   5.934   8.257  0.2416 -0.5324  0.0183
   63MOL0     C 8434   6.104   5.964   8.382 -0.9799 -1.1684 -0.0812
   63MOL0     C 8435   6.063   5.995   8.496 -0.5520 -0.6050 -0.0749
   63MOL0     C 8436   6.636   5.438   8.380 -0.1964 -0.5411  0.1885
   63MOL0     C 8437   6.730   5.338   8.398  0.0817  0.6736  0.3596
   63MOL0     H 8438   7.210   5.248   8.759 -2.0331 -3.4082 -0.5803
   63MOL0     H 8439   7.429   5.143   8.742  2.1822  2.0391 -1.6708
   63MOL0     H 8440   7.663   5.148   8.604 -1.5283  0.0016 -1.0563
   63MOL0     H 8441   7.618   5.004   8.704 -1.7847  0.9382 -0.0867
   63MOL0     H 8442   7.745   4.846   8.585  1.7273 -1.1239 -2.2521
   63MOL0     H 8443   7.731   4.929   8.434  0.2995  1.9442 -1.4919
   63MOL0     H 8444   7.883   5.115   8.488  1.8703 -0.1719 -0.5343
   63MOL0     H 8445   7.909   5.061   8.646 -1.3767  3.6176 -0.4843
   63MOL0     H 8446   8.003   4.858   8.577  0.5456 -0.4305 -0.2165
   63MOL0     H 8447   7.982   4.887   8.405  1.6023 -2.8817  1.4499
   63MOL0     H 8448   8.125   5.080   8.585 -1.8359 -0.3155  0.4738
   63MOL0     H 8449   8.198   4.951   8.473 -2.5366 -3.1802 -2.5440
   63MOL0     H 8450   8.125   5.052   8.280  1.8452  1.0205 -0.2603
   63MOL0     H 8451   8.038   5.174   8.350  1.3792  1.3946 -0.5480
   63MOL0     H 8452   8.350   5.154   8.374  1.1095  4.0354 -1.9361
   63MOL0     H 8453   8.251   5.249   8.268  0.4651 -1.7897 -1.3898
   63MOL0     H 8454   8.240   5.236   8.561  2.8031 -2.1975 -0.4131
   63MOL0     H 8455   8.146   5.346   8.440  0.4052 -0.2844 -1.9547
   63MOL0     H 8456   8.526   5.334   8.352  1.6160  0.8110  0.3621
   63MOL0     H 8457   8.738   5.454   8.411 -1.1444 -1.6268 -0.0702
   63MOL0     H 8458   8.717   5.614   8.495 -1.6130  1.5256 -1.8759
   63MOL0     H 8459   8.677   5.470   8.712 -0.1889  5.1116  0.0703
   63MOL0     H 8460   8.831   5.538   8.672  1.5419 -0.2180 -0.1074
   63MOL0     H 8461   8.878   5.328   8.532 -0.0847  0.7926 -0.4416
   63MOL0     H 8462   8.749   5.252   8.628  2.7005 -2.9593  1.0864
   63MOL0     H 8463   8.949   5.195   8.739 -0.3244 -0.4205  1.5869
   63MOL0     H 8464   8.872   5.315   8.842  2.0862  0.1453  1.4630
   63MOL0     H 8465   9.116   5.207   8.927  0.5078 -1.4814  0.5066
   63MOL0     H 8466   9.403   4.992   8.937 -1.8557 -1.6131  1.2443
   63MOL0     H 8467   9.363   5.114   9.051 -0.4418  1.1573 -0.5826
   63MOL0     H 8468   9.240   5.021   8.968 -0.3281  1.2939  1.6091
   63MOL0     H 8469   9.643   4.965   8.482  0.5543 -0.2941  0.9593
   63MOL0     H 8470   9.881   4.872   8.430  0.4375 -0.3810 -0.3564
   63MOL0     H 8471  10.113   4.795   8.416  0.3126  0.1007 -2.6532
   63MOL0     H 8472  10.057   4.912   8.301 -0.4872  0.8159  0.0090
   63MOL0     H 8473  10.303   4.981   8.287 -1.3021 -0.6399 -1.8272
   63MOL0     H 8474  10.342   4.863   8.415  2.1834  0.9618 -0.7927
   63MOL0     H 8475  10.234   4.793   8.151  0.2030  2.9134  1.1670
   63MOL0     H 8476  10.256   4.682   8.287 -0.9186  0.9216  1.0372
   63MOL0     H 8477  10.500   4.847   8.210  0.0040  0.5106  0.4600
   63MOL0     H 8478  10.489   4.696   8.282  2.6514  0.9748 -1.1949
   63MOL0     H 8479  10.404   4.600   8.065 -1.7215  1.3544  0.6034
   63MOL0     H 8480  10.570   4.652   8.054  0.3079 -1.1496 -0.7692
   63MOL0     H 8481  10.340   4.823   7.950 -0.0605  1.0257  1.6891
   63MOL0     H 8482  10.511   4.856   7.930  0.7212 -0.7648  0.2731
   63MOL0     H 8483  10.354   4.616   7.841 -0.0253 -1.3231 -4.3511
   63MOL0     H 8484  10.524   4.608   7.835 -0.4527 -0.7950  1.6196
   63MOL0     H 8485  10.343   4.801   7.682 -0.3160 -1.1545 -0.9650
   63MOL0     H 8486  10.428   4.665   7.615 -2.4660 -0.7879  1.5329
   63MOL0     H 8487  10.055   5.201   8.627  1.9677 -3.8940  1.0984
   63MOL0     H 8488   9.828   5.288   8.685 -3.1830  0.8359 -1.8088
   63MOL0     H 8489   9.452   5.370   8.603 -3.5032  1.5077 -2.8472
   63MOL0     H 8490   9.220   5.456   8.603 -0.0011  1.3816  1.7872
   63MOL0     H 8491   7.383   5.082   8.317 -1.5284 -1.8871 -0.0373
   63MOL0     H 8492   7.158   5.192   8.331 -3.6540  0.9263  1.6983
   63MOL0     H 8493   6.923   5.499   8.635 -2.7936  1.0846  3.3091
   63MOL0     H 8494   6.742   5.650   8.625 -0.7856  0.7849 -1.4568
   63MOL0     H 8495   6.470   5.637   8.272  1.7381  0.2932  1.2271
   63MOL0     H 8496   6.369   5.564   8.397  0.6383 -1.1188 -0.6850
   63MOL0     H 8497   6.450   5.858   8.353  2.2695 -1.2256  0.5543
   63MOL0     H 8498   6.332   5.812   8.477  1.8220 -1.9855  0.9035
   63MOL0     H 8499   6.179   5.724   8.316 -0.2693  0.0360 -1.5302
   63MOL0     H 8500   6.278   5.763   8.173  1.4930  0.3002 -0.4662
   63MOL0     H 8501   6.106   5.916   8.181 -0.3146  1.5476  0.0047
   63MOL0     H 8502   6.260   6.007   8.229  1.6499 -1.0810  2.1921
   63MOL0     H 8503   6.019   6.019   8.591  1.5927  0.9741  0.6026
   63MOL0     H 8504   6.555   5.420   8.310 -1.8361  3.2149  0.8634
   63MOL0     H 8505   6.730   5.245   8.343 -0.3624  0.2904  0.9926
   64MOL0     O 8506   9.859   7.410   5.354  0.6650  0.6789  0.7235
   64MOL0     C 8507   9.846   7.364   5.235 -0.1527 -0.9721 -0.6089
   64MOL0     O 8508   9.740   7.330   5.170 -0.3316 -0.2018  0.1575
   64MOL0     C 8509   9.628   7.282   5.235  0.4338 -0.4434  1.1375
   64MOL0     C 8510   9.506   7.313   5.174 -1.2611  0.2090  0.7348
   64MOL0     C 8511   9.386   7.269   5.226  0.2257  0.1928 -0.2240
   64MOL0     C 8512   9.372   7.180   5.340  0.0418 -0.2457  0.2657
   64MOL0     O 8513   9.261   7.134   5.401 -0.4306  0.1179 -0.3494
   64MOL0     C 8514   9.128   7.180   5.360  0.3312 -0.5927 -0.6264
   64MOL0     C 8515   9.037   7.146   5.479 -0.3526  0.5327  0.1408
   64MOL0     C 8516   8.891   7.171   5.455 -0.0893 -0.7815  0.1752
   64MOL0     C 8517   8.807   7.142   5.584 -0.2534 -0.2279  0.1356
   64MOL0     C 8518   8.659   7.193   5.571  0.0931 -0.1783 -0.2810
   64MOL0     C 8519   8.574   7.131   5.681  0.3429  0.4277 -0.6919
   64MOL0     C 8520   8.425   7.163   5.659 -0.1731  0.1649 -0.1857
   64MOL0     C 8521   8.374   7.138   5.520  1.1997 -0.3727 -1.3260
   64MOL0     N 8522   8.222   7.131   5.547 -0.6479  0.1547 -0.2703
   64MOL0     C 8523   8.135   7.236   5.537 -0.7575 -0.3887 -0.6277
   64MOL0     C 8524   8.010   7.195   5.515  0.4883  0.4379  0.2066
   64MOL0     C 8525   7.884   7.272   5.486 -0.1273  0.4613  0.1672
   64MOL0     C 8526   7.755   7.189   5.467  0.4950  0.4275  0.2433
   64MOL0     C 8527   7.706   7.131   5.602 -0.7155 -0.2307  0.0277
   64MOL0     C 8528   7.621   7.011   5.566 -0.4068 -0.5470 -0.2717
   64MOL0     O 8529   7.487   7.062   5.539 -0.3027  0.0852  0.0602
   64MOL0     C 8530   7.388   6.970   5.504 -0.1552 -0.6712  0.2524
   64MOL0     C 8531   7.246   7.012   5.507 -0.3918  0.2563 -0.1347
   64MOL0     C 8532   7.141   6.914   5.490  0.3174 -0.1987 -0.4460
   64MOL0     C 8533   6.998   6.953   5.523 -0.4814 -0.6681 -0.4792
   64MOL0     C 8534   7.163   6.797   5.418  0.6916 -0.2066  0.6388
   64MOL0     C 8535   7.059   6.709   5.370  1.0553 -0.6665  0.4170
   64MOL0     O 8536   6.959   6.755   5.293 -0.6773 -0.3835 -0.0940
   64MOL0     C 8537   6.833   6.711   5.318 -0.5258  0.0977  1.3812
   64MOL0     C 8538   6.791   6.664   5.438  0.7149  0.8136  0.0191
   64MOL0     C 8539   6.660   6.619   5.452  1.1714 -0.2502 -0.4651
   64MOL0     C 8540   6.568   6.625   5.346 -0.2513 -0.9190 -0.2904
   64MOL0     O 8541   6.433   6.615   5.356  0.6516 -0.1405 -0.3361
   64MOL0     C 8542   6.379   6.579   5.487  0.2862 -1.0420 -0.2338
   64MOL0     C 8543   6.227   6.537   5.476 -0.6231  0.1859  0.3350
   64MOL0     C 8544   6.155   6.671   5.472 -0.3346 -0.3853  0.7774
   64MOL0     C 8545   6.006   6.658   5.451  0.1953 -0.5419 -1.2908
   64MOL0     C 8546   5.937   6.789   5.429  0.2040 -1.2704  0.6157
   64MOL0     C 8547   5.799   6.791   5.353 -0.8442 -0.4524 -0.5219
   64MOL0     C 8548   5.709   6.910   5.404 -0.4366  0.3019 -0.2631
   64MOL0     C 8549   5.594   6.930   5.315 -0.4223  0.2596  0.0655
   64MOL0    Cl 8550   5.502   6.777   5.267 -0.1518 -0.8445  0.5357
   64MOL0     C 8551   6.612   6.677   5.221 -0.5487 -0.1791  1.4344
   64MOL0     C 8552   6.749   6.717   5.199  0.2288 -0.2046 -0.3466
   64MOL0     O 8553   7.087   6.596   5.392 -0.0074  0.1030 -0.8624
   64MOL0     C 8554   7.299   6.760   5.396  0.4096  0.5674 -0.2610
   64MOL0     C 8555   7.402   6.844   5.445  0.1093  0.4114 -0.1932
   64MOL0     N 8556   8.028   7.054   5.509 -0.2571  0.0742  0.2417
   64MOL0     N 8557   8.143   7.015   5.541 -0.4622  0.6273  0.5009
   64MOL0     C 8558   9.501   7.144   5.390  0.6769 -0.2192 -0.5040
   64MOL0     C 8559   9.627   7.186   5.332 -0.1925  0.0544 -0.1395
   64MOL0     C 8560   9.974   7.364   5.159 -0.2899 -0.3002  0.3452
   64MOL0     C 8561   9.969   7.348   5.018 -1.1937 -0.2758 -0.3704
   64MOL0     C 8562  10.088   7.346   4.937 -0.3250 -0.1672  0.0660
   64MOL0     C 8563  10.212   7.368   4.994  0.7157 -0.0792 -0.2746
   64MOL0     O 8564  10.323   7.372   4.925  0.3860 -0.7840  0.1814
   64MOL0     C 8565  10.356   7.259   4.853 -0.2210  0.2834  1.0530
   64MOL0     C 8566  10.466   7.283   4.748 -0.5073  0.9304  0.3605
   64MOL0     C 8567  10.589   7.339   4.802  0.3002 -0.6956 -0.0010
   64MOL0     C 8568  10.662   7.247   4.902 -0.1078  0.0108 -0.4740
   64MOL0     C 8569  10.751   7.155   4.832  0.2620 -0.7012 -0.1982
   64MOL0     C 8570  10.825   7.079   4.781  0.2891  0.8264 -0.2321
   64MOL0     C 8571  10.224   7.383   5.132  0.6571 -0.3598  0.5395
   64MOL0     C 8572  10.107   7.380   5.217  0.1064 -0.1657 -0.4237
   64MOL0     H 8573   9.505   7.382   5.090  1.1373  0.0853  0.5248
   64MOL0     H 8574   9.299   7.304   5.172  1.1030  2.5851 -0.2051
   64MOL0     H 8575   9.130   7.287   5.339 -3.6634  0.1265  1.6478
   64MOL0     H 8576   9.089   7.126   5.273 -0.4800 -0.2118 -0.5031
   64MOL0     H 8577   9.042   7.040   5.507  0.4923  0.3966 -0.4835
   64MOL0     H 8578   9.074   7.218   5.552 -1.9682  2.1059 -0.5006
   64MOL0     H 8579   8.884   7.273   5.416  2.4811 -0.2442  0.9640
   64MOL0     H 8580   8.849   7.108   5.376 -0.1864 -2.0281  1.1901
   64MOL0     H 8581   8.809   7.034   5.599 -3.0914 -0.3831 -0.1668
   64MOL0     H 8582   8.853   7.182   5.674  3.0846  0.8007 -1.8248
   64MOL0     H 8583   8.663   7.303   5.567  1.2016 -0.2496 -2.8559
   64MOL0     H 8584   8.628   7.161   5.472  1.2663 -1.7077 -0.2016
   64MOL0     H 8585   8.582   7.022   5.672  1.5518  0.3398  0.9288
   64MOL0     H 8586   8.617   7.153   5.779  0.2971 -1.8366 -0.1027
   64MOL0     H 8587   8.372   7.108   5.738 -0.3319  0.2572 -0.2290
   64MOL0     H 8588   8.404   7.269   5.679  0.0502  0.2705 -0.5105
   64MOL0     H 8589   8.398   7.039   5.478 -0.9044 -1.3736 -0.3401
   64MOL0     H 8590   8.410   7.212   5.449  1.7778 -0.5154 -1.1874
   64MOL0     H 8591   8.154   7.342   5.554 -1.2319 -0.5115  0.8261
   64MOL0     H 8592   7.872   7.345   5.567 -1.8631 -0.3351  0.6573
   64MOL0     H 8593   7.901   7.334   5.397 -2.1159  0.3016 -0.3565
   64MOL0     H 8594   7.775   7.112   5.392 -1.6696  1.3444 -1.3912
   64MOL0     H 8595   7.675   7.247   5.420 -0.4211 -1.4035 -0.5239
   64MOL0     H 8596   7.657   7.211   5.660 -1.2923 -1.2524  1.0012
   64MOL0     H 8597   7.784   7.100   5.671 -1.0142 -0.9781  0.0367
   64MOL0     H 8598   7.604   6.964   5.663  0.0220  0.5712  0.3712
   64MOL0     H 8599   7.662   6.945   5.489 -0.9905 -2.7358  1.1860
   64MOL0     H 8600   7.232   7.116   5.535  4.0460  1.0137 -0.0312
   64MOL0     H 8601   6.961   6.978   5.423 -1.9764  2.7860  0.7865
   64MOL0     H 8602   6.934   6.874   5.562  0.1823 -1.3754 -0.7935
   64MOL0     H 8603   6.997   7.045   5.582  0.3608 -1.3479  0.6234
   64MOL0     H 8604   6.858   6.657   5.523 -1.9663 -1.9397  2.1754
   64MOL0     H 8605   6.619   6.585   5.547  1.1714 -0.5849 -0.5828
   64MOL0     H 8606   6.431   6.489   5.521  1.1371 -2.5924 -4.9179
   64MOL0     H 8607   6.394   6.663   5.556  3.0964 -0.7896 -1.0382
   64MOL0     H 8608   6.220   6.477   5.384  0.6130  0.7295 -0.1274
   64MOL0     H 8609   6.200   6.494   5.573 -0.1000  1.1423  0.9190
   64MOL0     H 8610   6.189   6.728   5.385  0.9288 -1.1132  0.7720
   64MOL0     H 8611   6.184   6.741   5.551  0.4933  1.9198 -1.4330
   64MOL0     H 8612   5.979   6.596   5.365 -0.6795 -2.2823  0.1441
   64MOL0     H 8613   5.959   6.606   5.535 -2.7305 -0.5511 -2.7909
   64MOL0     H 8614   5.994   6.859   5.368  0.0369  0.5327  2.4253
   64MOL0     H 8615   5.923   6.840   5.525  0.5321 -1.1658  0.6081
   64MOL0     H 8616   5.821   6.799   5.246  0.7115 -0.2866 -0.2049
   64MOL0     H 8617   5.753   6.693   5.366  0.3744 -0.9758  0.0251
   64MOL0     H 8618   5.780   6.993   5.406 -0.6464  0.6097 -2.7788
   64MOL0     H 8619   5.683   6.884   5.507  2.3152  0.6772  0.6046
   64MOL0     H 8620   5.634   6.980   5.226  0.0233 -0.6480 -0.2552
   64MOL0     H 8621   5.538   7.007   5.369  0.4501  0.8284  0.1787
   64MOL0     H 8622   6.542   6.701   5.141  0.8768 -1.8709 -0.4042
   64MOL0     H 8623   6.783   6.741   5.099 -0.3836 -1.0872 -0.7753
   64MOL0     H 8624   7.323   6.664   5.351  0.0119 -1.7917  4.0394
   64MOL0     H 8625   7.494   6.794   5.418  0.2452 -0.6401  2.0518
   64MOL0     H 8626   9.497   7.077   5.475  0.1020  1.0286  0.4876
   64MOL0     H 8627   9.714   7.143   5.381 -1.8629 -4.6231 -0.7530
   64MOL0     H 8628   9.875   7.315   4.974 -1.7592 -0.5863  1.0260
   64MOL0     H 8629  10.086   7.327   4.830 -2.8661 -0.5577  0.1161
   64MOL0     H 8630  10.386   7.180   4.923 -2.1711 -2.5701 -1.0899
   64MOL0     H 8631  10.270   7.223   4.796 -1.5354  2.9900  1.1750
   64MOL0     H 8632  10.415   7.343   4.673 -1.7352 -1.4656 -0.8681
   64MOL0     H 8633  10.490   7.181   4.715  2.3340  1.3660  0.8561
   64MOL0     H 8634  10.580   7.437   4.848 -1.6891 -0.9115  0.1536
   64MOL0     H 8635  10.662   7.353   4.721  0.5438  0.3808  0.3897
   64MOL0     H 8636  10.592   7.197   4.970 -0.1018  1.4182  0.6207
   64MOL0     H 8637  10.727   7.302   4.971 -1.2405  1.0062 -0.1690
   64MOL0     H 8638  10.885   7.007   4.729  1.8176  1.8324  0.1066
   64MOL0     H 8639  10.316   7.418   5.175  1.7277  1.1257 -2.6156
   64MOL0     H 8640  10.120   7.400   5.323 -0.1675 -1.7262 -0.0587
   65MOL0     O 8641  10.368   5.579   2.523 -0.1997 -0.4184 -0.5745
   65MOL0     C 8642  10.450   5.583   2.430  0.6382  0.0130 -0.8257
   65MOL0     O 8643  10.414   5.587   2.302 -0.4264  0.7944  0.2891
   65MOL0     C 8644  10.284   5.577   2.260 -0.3504  0.8452  0.0136
   65MOL0     C 8645  10.179   5.494   2.316 -0.1199 -0.2015  0.0182
   65MOL0     C 8646  10.044   5.488   2.262  0.3588  0.1948  0.7254
   65MOL0     C 8647  10.018   5.572   2.145  1.0112 -0.1154 -0.2550
   65MOL0     O 8648   9.898   5.554   2.078  0.4897  0.0252  0.3028
   65MOL0     C 8649   9.769   5.542   2.144 -0.4281  0.0976  0.8351
   65MOL0     C 8650   9.665   5.549   2.035 -0.1690 -0.1857 -0.3553
   65MOL0     C 8651   9.702   5.459   1.913  0.7468  0.0917  0.1845
   65MOL0     C 8652   9.634   5.503   1.779 -0.5488  0.5007 -0.5834
   65MOL0     C 8653   9.541   5.393   1.725  0.5966 -0.0015  1.0871
   65MOL0     C 8654   9.510   5.418   1.581 -0.0264  0.7345 -0.4429
   65MOL0     C 8655   9.407   5.304   1.535  0.1110  0.2230  1.1052
   65MOL0     C 8656   9.458   5.166   1.510 -0.7856 -0.3026  0.7128
   65MOL0     N 8657   9.355   5.060   1.472  0.7115 -0.1916  0.0302
   65MOL0     C 8658   9.218   5.083   1.435 -0.1896  0.1516 -0.1368
   65MOL0     C 8659   9.175   4.960   1.383 -0.3257 -0.0477 -0.0204
   65MOL0     C 8660   9.054   4.912   1.319 -0.3814  0.5432  0.0397
   65MOL0     C 8661   8.951   4.888   1.425 -0.0627  0.2557 -0.3203
   65MOL0     C 8662   8.813   4.851   1.357 -0.1066 -0.5662 -0.3107
   65MOL0     C 8663   8.752   4.976   1.284  0.2679 -0.2895 -0.5730
   65MOL0     O 8664   8.626   4.952   1.227  0.1794 -0.5906  0.0186
   65MOL0     C 8665   8.544   5.058   1.205  0.0787 -0.0786  0.4767
   65MOL0     C 8666   8.582   5.191   1.204  0.4551  0.3666  0.5882
   65MOL0     C 8667   8.488   5.294   1.200 -0.4557 -0.2952  0.3405
   65MOL0     C 8668   8.545   5.430   1.229  0.0212 -0.1501  0.1027
   65MOL0     C 8669   8.348   5.270   1.193  0.2476 -0.1742  0.1352
   65MOL0     C 8670   8.241   5.369   1.212 -0.2328 -0.2663  0.1850
   65MOL0     O 8671   8.110   5.330   1.226 -0.0138  0.5025  0.2734
   65MOL0     C 8672   8.028   5.412   1.287  0.9157 -0.5447 -0.3690
   65MOL0     C 8673   7.933   5.484   1.211 -0.1274  0.6822  1.1948
   65MOL0     C 8674   7.826   5.557   1.269 -0.4791  0.4350 -0.0548
   65MOL0     C 8675   7.807   5.540   1.412  0.1000 -0.4522 -0.8979
   65MOL0     O 8676   7.688   5.589   1.456  0.0183 -0.1546 -0.8504
   65MOL0     C 8677   7.633   5.533   1.572 -0.3152 -0.4926  0.2204
   65MOL0     C 8678   7.500   5.600   1.603 -0.2366  0.4945  0.1681
   65MOL0     C 8679   7.392   5.531   1.516 -0.2584  0.0310 -0.3611
   65MOL0     C 8680   7.255   5.601   1.529  0.1413 -0.1334  0.2669
   65MOL0     C 8681   7.127   5.515   1.504 -0.5026 -0.6589  0.4511
   65MOL0     C 8682   7.002   5.611   1.513  0.3280  0.2790 -0.2093
   65MOL0     C 8683   6.872   5.520   1.522  0.6091 -0.5802 -0.0625
   65MOL0     C 8684   6.744   5.605   1.542 -0.3239  0.2455  0.8021
   65MOL0    Cl 8685   6.608   5.504   1.599 -0.2462  0.4353 -0.0176
   65MOL0     C 8686   7.903   5.473   1.488 -0.7782  0.0237  0.3575
   65MOL0     C 8687   8.011   5.413   1.427 -0.3165  0.3249  0.3183
   65MOL0     O 8688   8.276   5.486   1.198  0.3002  0.3655 -0.2734
   65MOL0     C 8689   8.311   5.138   1.182  0.0273 -0.4021  0.1345
   65MOL0     C 8690   8.409   5.032   1.182  0.6833 -0.4423 -0.1044
   65MOL0     N 8691   9.277   4.867   1.413 -0.4851 -0.6273  0.2842
   65MOL0     N 8692   9.374   4.928   1.463  0.0759  0.1451 -0.6633
   65MOL0     C 8693  10.117   5.660   2.101 -0.1380  0.8657  0.6752
   65MOL0     C 8694  10.252   5.651   2.152  0.3268  0.2991  0.3706
   65MOL0     C 8695  10.598   5.564   2.469  0.5981  0.1994 -0.1777
   65MOL0     C 8696  10.631   5.557   2.610  0.5118  0.5221 -0.4283
   65MOL0     C 8697  10.761   5.512   2.652 -0.1294  0.3934 -0.3850
   65MOL0     C 8698  10.849   5.459   2.549 -0.1118  0.3584 -0.1150
   65MOL0     O 8699  10.978   5.418   2.570  0.1802 -0.0247  0.3923
   65MOL0     C 8700  11.016   5.402   2.713 -0.2933 -0.3141  0.2744
   65MOL0     C 8701  11.160   5.353   2.735  0.0198 -0.2647  0.1101
   65MOL0     C 8702  11.254   5.465   2.692 -0.1618  0.1522  0.4136
   65MOL0     C 8703  11.409   5.439   2.713  0.3443  0.5900 -0.7074
   65MOL0     C 8704  11.449   5.317   2.639  1.0326  0.6450  0.4376
   65MOL0     C 8705  11.506   5.236   2.570  0.5270  0.6065 -0.5297
   65MOL0     C 8706  10.810   5.444   2.413  0.0632 -0.5927 -0.3728
   65MOL0     C 8707  10.692   5.513   2.370  0.8149 -0.2204 -0.4096
   65MOL0     H 8708  10.199   5.408   2.379 -2.0507 -0.5215  0.2377
   65MOL0     H 8709   9.961   5.426   2.294 -0.0265  0.8774  1.0804
   65MOL0     H 8710   9.752   5.450   2.199 -0.9681 -0.7499 -0.6942
   65MOL0     H 8711   9.751   5.624   2.214 -1.8631  0.8226 -0.3214
   65MOL0     H 8712   9.571   5.525   2.085 -0.2301  2.2715  0.8760
   65MOL0     H 8713   9.658   5.654   2.004 -3.0449 -0.1970 -0.0202
   65MOL0     H 8714   9.809   5.451   1.896  0.7495  0.6328 -0.0909
   65MOL0     H 8715   9.667   5.361   1.946 -0.3707  0.9720  1.7623
   65MOL0     H 8716   9.575   5.595   1.790 -3.9270 -1.3451 -1.7312
   65MOL0     H 8717   9.711   5.515   1.703 -1.0461  0.0077 -1.1784
   65MOL0     H 8718   9.588   5.295   1.735 -0.0579 -0.2123  2.2533
   65MOL0     H 8719   9.448   5.380   1.781 -0.0720 -1.3239 -0.2638
   65MOL0     H 8720   9.460   5.515   1.578 -2.0233 -0.2094  0.5030
   65MOL0     H 8721   9.597   5.423   1.516  0.0931 -2.0093 -0.6229
   65MOL0     H 8722   9.332   5.306   1.615  0.0305  2.9996  1.0507
   65MOL0     H 8723   9.350   5.334   1.447  1.6071 -3.0378 -1.1435
   65MOL0     H 8724   9.517   5.130   1.595  1.0739  0.1697 -0.3286
   65MOL0     H 8725   9.533   5.189   1.434 -1.1866  2.3778  1.0238
   65MOL0     H 8726   9.167   5.177   1.419  2.2842  1.2168 -2.5144
   65MOL0     H 8727   9.024   4.992   1.250  2.5465 -0.2518 -2.3740
   65MOL0     H 8728   9.062   4.823   1.256 -0.4746  1.5581 -1.4683
   65MOL0     H 8729   8.938   4.985   1.474 -1.2477  0.1920 -0.4954
   65MOL0     H 8730   8.980   4.812   1.499  1.1050  1.0067  0.0186
   65MOL0     H 8731   8.742   4.825   1.436 -1.0556 -0.4888 -1.1209
   65MOL0     H 8732   8.813   4.771   1.283 -2.8063 -1.8133  0.9077
   65MOL0     H 8733   8.822   5.025   1.216  0.5960  0.7487  0.4735
   65MOL0     H 8734   8.745   5.059   1.354 -1.1930 -0.4736 -0.4643
   65MOL0     H 8735   8.688   5.212   1.199  0.8512 -1.2026  1.4351
   65MOL0     H 8736   8.652   5.415   1.247 -0.2024 -1.6791  0.2991
   65MOL0     H 8737   8.528   5.492   1.140 -3.4031  0.3191  0.9490
   65MOL0     H 8738   8.508   5.480   1.319  0.2099 -0.6967  0.4891
   65MOL0     H 8739   7.956   5.486   1.105 -0.9729  0.9338  1.0089
   65MOL0     H 8740   7.757   5.611   1.205  0.4178 -1.4810 -2.8456
   65MOL0     H 8741   7.622   5.425   1.561 -0.0685 -0.7883  2.3997
   65MOL0     H 8742   7.703   5.561   1.651 -1.6846  0.7886  1.0306
   65MOL0     H 8743   7.481   5.582   1.709  2.1804 -3.2417  0.1475
   65MOL0     H 8744   7.503   5.708   1.583  0.8034  0.3136 -0.7525
   65MOL0     H 8745   7.391   5.428   1.552  0.2442 -0.1269 -0.7776
   65MOL0     H 8746   7.430   5.530   1.413 -1.0328 -2.0853 -0.6824
   65MOL0     H 8747   7.255   5.645   1.629  1.8611 -1.4276  0.8663
   65MOL0     H 8748   7.258   5.687   1.461  1.4100  0.4546  1.0295
   65MOL0     H 8749   7.127   5.440   1.584  0.9054 -1.0876  0.0793
   65MOL0     H 8750   7.133   5.472   1.404 -2.0801  0.6036 -0.2374
   65MOL0     H 8751   7.008   5.669   1.606 -0.3548 -0.2837  0.1904
   65MOL0     H 8752   6.990   5.667   1.419  2.1516  0.3342 -0.4365
   65MOL0     H 8753   6.871   5.443   1.600 -3.1728 -1.9679 -1.2269
   65MOL0     H 8754   6.863   5.465   1.428  1.2194 -1.5370  0.4219
   65MOL0     H 8755   6.726   5.639   1.440 -1.7986 -1.9382  0.2558
   65MOL0     H 8756   6.767   5.693   1.602 -0.0407  0.1100  0.8968
   65MOL0     H 8757   7.893   5.456   1.595 -1.5292  1.7393  0.5885
   65MOL0     H 8758   8.078   5.355   1.489 -0.2731  1.0209  0.9331
   65MOL0     H 8759   8.207   5.109   1.194 -1.4975  4.0019 -0.6437
   65MOL0     H 8760   8.375   4.929   1.194  4.3507 -1.5403  3.5083
   65MOL0     H 8761  10.087   5.721   2.016  1.0148 -0.3888 -0.6862
   65MOL0     H 8762  10.321   5.725   2.113  1.5346 -1.1183 -0.3052
   65MOL0     H 8763  10.554   5.583   2.682 -1.0183 -0.1362 -1.7670
   65MOL0     H 8764  10.791   5.524   2.756 -1.4486  1.8165 -0.1416
   65MOL0     H 8765  10.994   5.497   2.763 -3.4859 -1.1709  0.6690
   65MOL0     H 8766  10.951   5.333   2.766 -0.6359  0.4103  0.8145
   65MOL0     H 8767  11.179   5.259   2.682  1.1620  0.5675 -1.0218
   65MOL0     H 8768  11.178   5.342   2.842  1.5332  0.0888 -0.0921
   65MOL0     H 8769  11.220   5.554   2.747  1.5953 -0.8664  3.3368
   65MOL0     H 8770  11.235   5.482   2.586  1.7350 -2.5899 -0.4504
   65MOL0     H 8771  11.422   5.412   2.818 -2.4303 -2.0203 -0.9114
   65MOL0     H 8772  11.473   5.523   2.684 -0.0546  0.5196 -1.8498
   65MOL0     H 8773  11.558   5.167   2.506 -1.6175 -0.0568 -1.6208
   65MOL0     H 8774  10.881   5.406   2.341  0.8648 -2.1665  1.1585
   65MOL0     H 8775  10.674   5.515   2.263  2.1504 -1.7231 -0.6946
   66MOL0     O 8776   9.974   4.694   1.179  0.1039  0.5166 -0.9411
   66MOL0     C 8777  10.008   4.772   1.263 -0.4251 -0.2337  0.2152
   66MOL0     O 8778   9.940   4.881   1.307  0.3550 -0.0864 -0.4505
   66MOL0     C 8779   9.815   4.900   1.249  0.5301 -1.1550 -0.0053
   66MOL0     C 8780   9.808   5.002   1.158 -0.1872 -0.3242 -0.0293
   66MOL0     C 8781   9.700   5.026   1.076  0.8072  0.4411  0.3022
   66MOL0     C 8782   9.591   4.937   1.097  0.6421 -0.2110 -0.0761
   66MOL0     O 8783   9.475   4.975   1.031  0.4415  0.2975 -0.4269
   66MOL0     C 8784   9.377   4.876   1.013  0.2485 -0.2408 -0.5126
   66MOL0     C 8785   9.291   4.902   0.879 -0.5199 -0.0346 -0.1559
   66MOL0     C 8786   9.173   4.797   0.864  0.2712 -0.2323  0.3618
   66MOL0     C 8787   9.038   4.864   0.895  0.0044  0.3886 -0.5186
   66MOL0     C 8788   8.916   4.791   0.861 -0.3145  0.1678  0.2506
   66MOL0     C 8789   8.881   4.808   0.713  0.7928  0.2503  0.4038
   66MOL0     C 8790   8.750   4.743   0.694 -0.0796 -0.0569  0.2068
   66MOL0     C 8791   8.717   4.730   0.542  0.2776  0.6387  0.7519
   66MOL0     N 8792   8.613   4.624   0.515  0.4399 -0.3264 -0.4760
   66MOL0     C 8793   8.503   4.603   0.599  0.0572 -0.4661  0.7117
   66MOL0     C 8794   8.433   4.493   0.553  0.5237 -0.3340 -1.2319
   66MOL0     C 8795   8.291   4.455   0.590 -0.7862 -0.6780 -0.1620
   66MOL0     C 8796   8.260   4.308   0.573 -0.1377 -0.1671 -0.3471
   66MOL0     C 8797   8.229   4.267   0.437  0.5642 -0.0278 -0.3201
   66MOL0     C 8798   8.198   4.119   0.421  0.4186  0.4040  0.1690
   66MOL0     O 8799   8.087   4.077   0.492  0.1755 -0.5551  0.5762
   66MOL0     C 8800   7.955   4.099   0.452 -0.1280 -0.0467  0.0514
   66MOL0     C 8801   7.913   4.106   0.322 -0.8114 -0.1424  0.1959
   66MOL0     C 8802   7.781   4.114   0.281 -0.8943 -0.1371 -0.6160
   66MOL0     C 8803   7.755   4.154   0.137  0.1137 -0.6438 -0.6949
   66MOL0     C 8804   7.674   4.122   0.382 -0.2340 -0.8667 -0.1891
   66MOL0     C 8805   7.523   4.147   0.353 -0.0893  1.1005  0.1924
   66MOL0     O 8806   7.442   4.170   0.461  0.9006  0.4763 -0.1488
   66MOL0     C 8807   7.310   4.183   0.432  0.1165 -0.3505  0.2736
   66MOL0     C 8808   7.236   4.070   0.441  0.2024  0.0713 -0.4018
   66MOL0     C 8809   7.092   4.069   0.423 -0.5044 -0.3316  0.2110
   66MOL0     C 8810   7.028   4.193   0.405  0.4483  0.8022  0.6028
   66MOL0     O 8811   6.890   4.187   0.396 -0.5413  0.3512  0.5590
   66MOL0     C 8812   6.820   4.307   0.353  1.0005 -0.4569 -0.6470
   66MOL0     C 8813   6.674   4.276   0.306 -0.3876 -0.3088  0.0548
   66MOL0     C 8814   6.570   4.311   0.408 -0.6892 -0.3466  0.4078
   66MOL0     C 8815   6.560   4.210   0.515  0.1604 -0.2860 -0.0332
   66MOL0     C 8816   6.446   4.236   0.628  1.3148 -0.0107  0.2739
   66MOL0     C 8817   6.306   4.195   0.573  1.4900  0.5274 -0.1051
   66MOL0     C 8818   6.195   4.218   0.675 -0.5857  0.1472  0.0550
   66MOL0     C 8819   6.080   4.127   0.640 -0.6571  0.2661  0.8354
   66MOL0    Cl 8820   5.917   4.162   0.684  0.1301 -0.0458 -0.1717
   66MOL0     C 8821   7.104   4.316   0.399 -0.4128  0.3774  0.1461
   66MOL0     C 8822   7.245   4.310   0.410 -0.0804 -0.3377  0.1607
   66MOL0     O 8823   7.479   4.125   0.242  0.0171  0.3204  0.1814
   66MOL0     C 8824   7.719   4.117   0.519  0.5857  0.5589  0.4996
   66MOL0     C 8825   7.852   4.105   0.548 -0.2121  0.9554  0.0857
   66MOL0     N 8826   8.510   4.444   0.448 -0.1183  0.1663  0.6846
   66MOL0     N 8827   8.614   4.519   0.436  0.7812  0.2723  0.6979
   66MOL0     C 8828   9.592   4.830   1.188  0.4070  0.9390 -0.0784
   66MOL0     C 8829   9.707   4.811   1.258 -0.0151 -0.3790 -0.4432
   66MOL0     C 8830  10.145   4.754   1.317  0.4089  0.0464  0.4479
   66MOL0     C 8831  10.202   4.862   1.387  0.0243 -0.6623 -0.2852
   66MOL0     C 8832  10.337   4.858   1.422 -0.1944  0.0433  0.3758
   66MOL0     C 8833  10.410   4.740   1.397 -0.5708  0.5843 -0.3554
   66MOL0     O 8834  10.542   4.731   1.441  0.0532  0.1712 -0.7288
   66MOL0     C 8835  10.637   4.805   1.357 -0.5617 -0.4309 -0.4633
   66MOL0     C 8836  10.769   4.757   1.406 -0.3612 -0.2960 -0.6994
   66MOL0     C 8837  10.881   4.853   1.376  0.1039  0.1638 -0.1702
   66MOL0     C 8838  11.023   4.806   1.400 -0.8873 -0.0173  0.3523
   66MOL0     C 8839  11.066   4.718   1.295 -0.0220 -0.0559  0.1976
   66MOL0     C 8840  11.095   4.619   1.222 -0.8875  0.1308 -0.5700
   66MOL0     C 8841  10.354   4.638   1.319 -0.0575  0.4691 -0.4152
   66MOL0     C 8842  10.227   4.644   1.272 -0.1915 -0.0673  0.0242
   66MOL0     H 8843   9.900   5.057   1.145 -0.6635  0.8939  1.4633
   66MOL0     H 8844   9.707   5.100   0.997  0.8486 -1.0029 -1.0826
   66MOL0     H 8845   9.422   4.777   1.002  0.1612 -0.2070 -1.2162
   66MOL0     H 8846   9.310   4.873   1.099 -0.3860 -1.0828 -1.0209
   66MOL0     H 8847   9.239   4.998   0.877  0.9533  0.8326  1.1239
   66MOL0     H 8848   9.345   4.893   0.784  0.5719  2.6096  0.1462
   66MOL0     H 8849   9.157   4.759   0.762 -0.4020 -0.7444  0.6464
   66MOL0     H 8850   9.188   4.720   0.939 -1.6073  0.9299  2.0200
   66MOL0     H 8851   9.037   4.896   1.000 -1.1681 -1.0165 -0.0680
   66MOL0     H 8852   9.028   4.961   0.845 -1.6292  1.2382  1.3094
   66MOL0     H 8853   8.923   4.687   0.894  0.7232  0.8556  2.3925
   66MOL0     H 8854   8.833   4.838   0.916 -1.2300  0.3828 -1.2553
   66MOL0     H 8855   8.875   4.913   0.682 -0.0167 -0.2756 -1.3644
   66MOL0     H 8856   8.954   4.759   0.647 -0.1138 -0.1120 -0.3559
   66MOL0     H 8857   8.761   4.641   0.732 -1.4083 -0.8598 -1.4218
   66MOL0     H 8858   8.663   4.796   0.734 -0.2080  0.2587 -0.4822
   66MOL0     H 8859   8.798   4.678   0.489 -2.8505 -1.5146 -2.3968
   66MOL0     H 8860   8.686   4.822   0.491  0.7207 -1.9013 -4.9066
   66MOL0     H 8861   8.473   4.674   0.676  2.7195  1.0633  0.4703
   66MOL0     H 8862   8.273   4.491   0.691  0.6509  1.2056 -0.5316
   66MOL0     H 8863   8.238   4.521   0.520 -1.0094  1.7026  2.1190
   66MOL0     H 8864   8.184   4.271   0.643 -0.2434 -0.7307 -0.7568
   66MOL0     H 8865   8.345   4.243   0.600 -0.6839 -0.6766  0.1865
   66MOL0     H 8866   8.316   4.282   0.372 -1.3489  1.3813 -2.7165
   66MOL0     H 8867   8.134   4.312   0.406 -0.8348 -0.5109  2.8718
   66MOL0     H 8868   8.288   4.072   0.462  1.0203  1.9385  0.6871
   66MOL0     H 8869   8.198   4.084   0.318  1.8229  0.7718  0.0190
   66MOL0     H 8870   7.988   4.097   0.243 -0.0963 -0.1318  0.8625
   66MOL0     H 8871   7.724   4.259   0.135  1.2114 -0.2527  1.0011
   66MOL0     H 8872   7.854   4.152   0.091  2.0806 -1.9593  3.1880
   66MOL0     H 8873   7.694   4.077   0.088  0.2218 -0.9957 -0.2807
   66MOL0     H 8874   7.288   3.982   0.477 -0.5935 -0.5208 -0.6787
   66MOL0     H 8875   7.031   3.980   0.433  1.2503 -1.5952  0.0631
   66MOL0     H 8876   6.812   4.382   0.432 -2.1179  0.7006 -1.9201
   66MOL0     H 8877   6.860   4.347   0.259  0.3104  1.7877 -0.0440
   66MOL0     H 8878   6.656   4.335   0.216 -2.3121 -0.6946  0.1560
   66MOL0     H 8879   6.666   4.172   0.273 -1.6577 -0.3755  0.5232
   66MOL0     H 8880   6.474   4.313   0.354  0.2470 -1.3835 -1.4025
   66MOL0     H 8881   6.581   4.410   0.452  0.2263 -0.4464  0.4204
   66MOL0     H 8882   6.549   4.105   0.485 -0.9748 -0.2806  0.3271
   66MOL0     H 8883   6.659   4.213   0.563  1.3413  0.7843 -2.3876
   66MOL0     H 8884   6.439   4.342   0.653  2.2076  0.0828  0.1431
   66MOL0     H 8885   6.469   4.174   0.715  1.4547 -1.2302 -0.6035
   66MOL0     H 8886   6.280   4.262   0.491  2.8293  0.5839 -0.5047
   66MOL0     H 8887   6.297   4.092   0.537 -3.0065  0.8101 -0.4244
   66MOL0     H 8888   6.153   4.319   0.670 -1.8445 -0.1117  3.1240
   66MOL0     H 8889   6.225   4.189   0.776 -4.0523 -0.4708  1.0442
   66MOL0     H 8890   6.109   4.035   0.692 -3.0514 -0.4243  1.0426
   66MOL0     H 8891   6.079   4.115   0.531  0.6529 -0.3970  0.8676
   66MOL0     H 8892   7.052   4.411   0.391  0.7353  1.1358  1.3405
   66MOL0     H 8893   7.311   4.396   0.417  1.3531 -1.4846  1.2670
   66MOL0     H 8894   7.647   4.109   0.600 -1.7068 -0.8041 -1.5200
   66MOL0     H 8895   7.874   4.093   0.653 -0.2085 -3.3228 -0.2246
   66MOL0     H 8896   9.507   4.765   1.200 -1.0334  2.7608  0.0463
   66MOL0     H 8897   9.722   4.742   1.341  0.9435  1.7472  1.2743
   66MOL0     H 8898  10.154   4.953   1.421 -1.6967 -2.3174  2.0307
   66MOL0     H 8899  10.382   4.937   1.481 -1.6362  0.0660  1.4832
   66MOL0     H 8900  10.628   4.783   1.251  0.1036 -2.3530 -0.1593
   66MOL0     H 8901  10.629   4.914   1.364  0.1406 -0.2987 -1.5929
   66MOL0     H 8902  10.787   4.662   1.354  0.3180  0.3076 -1.5784
   66MOL0     H 8903  10.771   4.738   1.514  2.2749 -2.3653 -0.9943
   66MOL0     H 8904  10.865   4.946   1.432 -1.7525  0.3368 -0.9013
   66MOL0     H 8905  10.862   4.874   1.271 -1.3493  3.8377  0.6922
   66MOL0     H 8906  11.035   4.768   1.502  0.6639  1.8235  0.9098
   66MOL0     H 8907  11.093   4.890   1.398 -1.3718  0.3861 -0.0836
   66MOL0     H 8908  11.118   4.531   1.165  1.6534  1.0310 -1.0607
   66MOL0     H 8909  10.413   4.556   1.281 -2.2860 -1.7274  0.5327
   66MOL0     H 8910  10.194   4.564   1.206  0.0566 -0.5573  0.4905
   67MOL0     O 8911   6.570   3.923   2.340 -0.5774 -0.8339  0.3146
   67MOL0     C 8912   6.594   3.826   2.411  0.8413 -0.4102  0.7149
   67MOL0     O 8913   6.504   3.720   2.427  0.7845 -0.4094  0.2726
   67MOL0     C 8914   6.375   3.742   2.388  0.3723 -0.1877 -0.9681
   67MOL0     C 8915   6.285   3.796   2.482  0.2289 -0.6990  0.4015
   67MOL0     C 8916   6.145   3.791   2.467 -0.1414 -0.4084 -0.1937
   67MOL0     C 8917   6.097   3.765   2.334 -0.6625 -0.4822 -0.6782
   67MOL0     O 8918   5.967   3.769   2.294  0.6588  0.2393 -0.0404
   67MOL0     C 8919   5.875   3.737   2.399 -0.9367 -0.1060 -0.0971
   67MOL0     C 8920   5.743   3.677   2.349  0.5831  0.0146 -0.0417
   67MOL0     C 8921   5.658   3.647   2.471  0.3135 -0.6438 -0.1224
   67MOL0     C 8922   5.516   3.609   2.419 -0.0519 -0.0214 -0.6658
   67MOL0     C 8923   5.414   3.599   2.535  0.5482  0.0314 -0.1218
   67MOL0     C 8924   5.278   3.591   2.469  0.6556 -0.9680 -0.4868
   67MOL0     C 8925   5.169   3.555   2.574  0.5530 -0.5374  0.1189
   67MOL0     C 8926   5.035   3.612   2.525  0.4435  0.1835 -0.1286
   67MOL0     N 8927   4.909   3.593   2.597 -0.0148  0.3521  0.4246
   67MOL0     C 8928   4.818   3.494   2.572  0.4595  0.1686  0.0156
   67MOL0     C 8929   4.714   3.509   2.646 -0.5298  0.3486  0.7268
   67MOL0     C 8930   4.588   3.430   2.643  0.3062 -1.0047  0.2730
   67MOL0     C 8931   4.596   3.289   2.674 -0.5182  0.1156 -0.8960
   67MOL0     C 8932   4.623   3.244   2.822 -0.1396 -0.5700  0.9280
   67MOL0     C 8933   4.755   3.300   2.879 -0.0885  0.5603  0.0645
   67MOL0     O 8934   4.854   3.250   2.789 -0.3010 -0.3193  0.1510
   67MOL0     C 8935   4.985   3.233   2.837 -0.7035  0.2404 -0.3671
   67MOL0     C 8936   5.057   3.343   2.874 -0.7529 -0.0999  0.5072
   67MOL0     C 8937   5.179   3.339   2.928  0.7917  0.2256  0.8069
   67MOL0     C 8938   5.236   3.467   2.974 -0.8091  0.1001  0.5379
   67MOL0     C 8939   5.249   3.219   2.922  0.1658 -0.3902 -1.3276
   67MOL0     C 8940   5.388   3.189   2.964 -0.6276  0.4675 -0.6865
   67MOL0     O 8941   5.471   3.295   2.999  0.3336  0.4210 -0.4908
   67MOL0     C 8942   5.598   3.267   3.032  0.0984  0.1926 -0.1198
   67MOL0     C 8943   5.634   3.185   3.135 -0.2170  0.6695  0.8186
   67MOL0     C 8944   5.777   3.177   3.167  0.1289 -0.2581  0.4803
   67MOL0     C 8945   5.875   3.251   3.112  0.2027 -0.8293 -0.1640
   67MOL0     O 8946   6.002   3.223   3.155  0.0888  0.7487 -0.7154
   67MOL0     C 8947   6.117   3.277   3.085 -1.1329 -0.3601  0.5034
   67MOL0     C 8948   6.242   3.247   3.166  0.8074 -0.5691  0.2274
   67MOL0     C 8949   6.371   3.296   3.096 -0.4415 -0.3922 -0.2241
   67MOL0     C 8950   6.484   3.267   3.180 -0.4642 -0.7125 -0.1584
   67MOL0     C 8951   6.617   3.315   3.123  0.3199 -0.5087 -0.2301
   67MOL0     C 8952   6.728   3.260   3.209 -0.8882 -0.0692 -0.0254
   67MOL0     C 8953   6.748   3.346   3.336 -0.6634 -0.8603  0.9439
   67MOL0     C 8954   6.863   3.305   3.429  0.2647  0.0295 -0.1213
   67MOL0    Cl 8955   7.031   3.350   3.379 -0.0873 -0.0416 -0.2006
   67MOL0     C 8956   5.832   3.348   3.013 -0.0291  0.6777  0.8759
   67MOL0     C 8957   5.701   3.349   2.974 -0.1379 -0.2085  0.0441
   67MOL0     O 8958   5.426   3.070   2.963  0.0966 -0.6828 -0.2024
   67MOL0     C 8959   5.179   3.102   2.871  0.2161 -0.0543 -0.5675
   67MOL0     C 8960   5.046   3.114   2.825  0.2815 -0.0049  0.1755
   67MOL0     N 8961   4.732   3.627   2.715  0.2416 -0.5216  0.4373
   67MOL0     N 8962   4.846   3.679   2.682 -0.5797  0.9655 -0.1362
   67MOL0     C 8963   6.191   3.741   2.236  0.3867  0.0593  0.3888
   67MOL0     C 8964   6.321   3.705   2.266  0.2838  0.1863  1.0432
   67MOL0     C 8965   6.734   3.804   2.453 -0.6267 -1.2099  0.1092
   67MOL0     C 8966   6.766   3.698   2.532 -0.1646 -0.7419 -0.0298
   67MOL0     C 8967   6.897   3.670   2.573 -0.0220  0.3519 -0.2964
   67MOL0     C 8968   6.998   3.747   2.529  0.0923 -0.9190 -0.0060
   67MOL0     O 8969   7.127   3.737   2.579 -0.2923  0.2388 -0.1190
   67MOL0     C 8970   7.184   3.622   2.641  0.4543 -0.1724 -0.2342
   67MOL0     C 8971   7.337   3.618   2.621 -0.2458  0.3509 -0.6266
   67MOL0     C 8972   7.395   3.521   2.726  0.8794 -0.3712  0.6357
   67MOL0     C 8973   7.549   3.532   2.721  0.3058  0.3177  0.8107
   67MOL0     C 8974   7.613   3.405   2.767  0.0033  0.2454  0.6464
   67MOL0     C 8975   7.664   3.301   2.805 -0.7892 -0.0053  0.1435
   67MOL0     C 8976   6.967   3.865   2.461 -0.7149  0.1799 -0.6555
   67MOL0     C 8977   6.836   3.892   2.417 -0.8007  0.2353  0.5079
   67MOL0     H 8978   6.329   3.829   2.575  0.7552 -1.0838  0.2887
   67MOL0     H 8979   6.080   3.803   2.553 -0.0896  2.3025 -0.4707
   67MOL0     H 8980   5.916   3.664   2.470 -0.5401  1.3970  1.3058
   67MOL0     H 8981   5.853   3.832   2.450  2.0117  1.8348 -2.0902
   67MOL0     H 8982   5.687   3.746   2.285  1.1862 -0.2293 -0.8613
   67MOL0     H 8983   5.747   3.586   2.289 -1.3813  0.1785 -0.4946
   67MOL0     H 8984   5.696   3.567   2.534  0.7305  1.5924  2.6957
   67MOL0     H 8985   5.648   3.730   2.542 -1.9087 -1.4500  0.6061
   67MOL0     H 8986   5.482   3.686   2.349  0.2072  1.5398  0.8465
   67MOL0     H 8987   5.511   3.513   2.368  1.3509 -0.2784 -0.3530
   67MOL0     H 8988   5.426   3.507   2.592 -3.7859  0.1585  1.4266
   67MOL0     H 8989   5.427   3.686   2.601  2.0603  1.8795 -2.6659
   67MOL0     H 8990   5.253   3.688   2.426 -1.0677 -0.2802  1.8956
   67MOL0     H 8991   5.271   3.524   2.383 -1.1239 -0.3987 -0.8222
   67MOL0     H 8992   5.157   3.446   2.576  1.7241 -0.7441 -1.7432
   67MOL0     H 8993   5.187   3.610   2.667  1.7576 -1.0525  0.2148
   67MOL0     H 8994   5.018   3.583   2.421 -0.9433 -0.7437  0.3286
   67MOL0     H 8995   5.040   3.721   2.533  2.6043 -0.0283  4.2586
   67MOL0     H 8996   4.830   3.417   2.497  2.0489 -0.1319  0.5549
   67MOL0     H 8997   4.529   3.472   2.724 -0.7844  0.3283 -1.1603
   67MOL0     H 8998   4.525   3.450   2.556 -2.7494  0.4195  2.6173
   67MOL0     H 8999   4.681   3.243   2.623  0.1466  1.6126 -1.1805
   67MOL0     H 9000   4.497   3.251   2.645 -0.3654 -0.4095 -0.7462
   67MOL0     H 9001   4.626   3.135   2.833  1.4848 -0.4443  2.0957
   67MOL0     H 9002   4.543   3.283   2.886  0.6138 -0.6719  1.9608
   67MOL0     H 9003   4.784   3.262   2.977  0.7890  1.1609  0.0425
   67MOL0     H 9004   4.742   3.408   2.889 -0.6163  0.5176 -0.1168
   67MOL0     H 9005   5.008   3.440   2.867 -2.4562 -1.0118 -1.1591
   67MOL0     H 9006   5.298   3.462   3.064  0.2203  2.6633  0.0496
   67MOL0     H 9007   5.301   3.500   2.893 -1.0576 -1.1497 -0.1969
   67MOL0     H 9008   5.160   3.545   2.984 -1.3356 -0.1569 -1.2538
   67MOL0     H 9009   5.569   3.124   3.197  0.7229 -0.3679  0.8168
   67MOL0     H 9010   5.818   3.117   3.247 -0.0313  0.1272  0.8580
   67MOL0     H 9011   6.128   3.225   2.989 -2.0000  1.8542 -0.8769
   67MOL0     H 9012   6.098   3.383   3.069 -1.0732 -0.4130  0.0676
   67MOL0     H 9013   6.242   3.300   3.261  1.9790 -0.1151 -0.0090
   67MOL0     H 9014   6.241   3.138   3.179  0.7982 -0.4327  1.3978
   67MOL0     H 9015   6.350   3.401   3.073 -1.8228 -0.3894  0.9292
   67MOL0     H 9016   6.390   3.236   3.006  2.2496 -0.5837  0.3965
   67MOL0     H 9017   6.463   3.305   3.281  1.1991  0.7558 -0.3203
   67MOL0     H 9018   6.492   3.158   3.190  0.1366 -0.8152 -1.5090
   67MOL0     H 9019   6.630   3.424   3.117 -2.2791 -0.1663 -0.6217
   67MOL0     H 9020   6.627   3.278   3.021  1.2824  1.1168 -0.7645
   67MOL0     H 9021   6.702   3.157   3.234 -3.3710  0.5968  0.3734
   67MOL0     H 9022   6.822   3.270   3.154 -0.7731  0.5980  0.2811
   67MOL0     H 9023   6.654   3.374   3.385 -2.3364 -2.0299 -1.3575
   67MOL0     H 9024   6.772   3.444   3.293  1.0417 -0.6293  2.3267
   67MOL0     H 9025   6.872   3.196   3.430  2.5686  0.0408 -3.1126
   67MOL0     H 9026   6.840   3.349   3.526  1.4281  0.8473 -0.2021
   67MOL0     H 9027   5.908   3.404   2.958 -0.6525 -0.2606 -1.0206
   67MOL0     H 9028   5.667   3.414   2.894 -1.2286 -0.9635 -0.1320
   67MOL0     H 9029   5.226   3.004   2.867  2.5854  1.0691 -2.3821
   67MOL0     H 9030   4.989   3.027   2.796 -0.7921  0.1721  1.6187
   67MOL0     H 9031   6.150   3.738   2.135 -0.7839  0.7951  0.8234
   67MOL0     H 9032   6.379   3.663   2.185 -2.8612  0.4652 -1.5830
   67MOL0     H 9033   6.688   3.630   2.564 -0.2926 -0.2833  0.6577
   67MOL0     H 9034   6.913   3.586   2.640  3.3277  1.4726  0.5176
   67MOL0     H 9035   7.145   3.630   2.743  0.9885  1.9051 -0.1444
   67MOL0     H 9036   7.136   3.534   2.597  1.4480 -0.1957 -1.3296
   67MOL0     H 9037   7.383   3.716   2.632 -2.4157  1.2644  0.8500
   67MOL0     H 9038   7.361   3.577   2.522  1.4785 -0.6534  0.1590
   67MOL0     H 9039   7.338   3.429   2.709 -2.0334  1.6317 -1.5141
   67MOL0     H 9040   7.367   3.561   2.824  3.4342  3.0773  0.1175
   67MOL0     H 9041   7.592   3.613   2.780  3.5114  2.1055 -3.4685
   67MOL0     H 9042   7.583   3.567   2.623 -3.2415 -0.4901 -0.8830
   67MOL0     H 9043   7.696   3.206   2.843  0.2390  0.7604  1.2531
   67MOL0     H 9044   7.049   3.934   2.443 -0.6216  0.6062  1.1595
   67MOL0     H 9045   6.824   3.984   2.360 -0.3875  0.3442  0.5951
   68MOL0     O 9046   4.122   8.690   0.549 -0.1352  0.4347  0.3209
   68MOL0     C 9047   4.132   8.798   0.487  0.0796 -0.1302  0.2163
   68MOL0     O 9048   4.230   8.892   0.505  0.0254  0.4063  0.4705
   68MOL0     C 9049   4.356   8.853   0.521  0.0630 -0.4231 -0.0380
   68MOL0     C 9050   4.418   8.732   0.469 -0.5808  0.0098 -1.2003
   68MOL0     C 9051   4.557   8.716   0.500 -0.1476  1.4583  0.4409
   68MOL0     C 9052   4.637   8.804   0.566  0.1674 -0.3476 -0.4030
   68MOL0     O 9053   4.762   8.766   0.586  0.7235  0.3306 -0.1990
   68MOL0     C 9054   4.833   8.797   0.709  0.6163 -0.1403 -0.2708
   68MOL0     C 9055   4.975   8.741   0.711 -0.3846  0.0084  0.8154
   68MOL0     C 9056   5.067   8.826   0.629 -1.0131  0.4334 -0.4116
   68MOL0     C 9057   5.216   8.791   0.661 -0.6224 -0.2440  0.6079
   68MOL0     C 9058   5.323   8.811   0.538  0.0953  0.5148  0.4398
   68MOL0     C 9059   5.322   8.963   0.515  0.5444 -0.5497 -0.7654
   68MOL0     C 9060   5.421   9.019   0.411  0.5056  0.4804  0.5009
   68MOL0     C 9061   5.405   8.955   0.278 -0.6014 -0.2300 -0.3832
   68MOL0     N 9062   5.283   8.990   0.210 -0.0376 -0.0172 -0.2020
   68MOL0     C 9063   5.209   9.108   0.230  0.8501 -0.2040 -0.3833
   68MOL0     C 9064   5.107   9.104   0.132  0.4020  0.3016  0.0450
   68MOL0     C 9065   5.011   9.210   0.090 -0.0018 -0.0376 -0.4493
   68MOL0     C 9066   4.860   9.176   0.112 -0.5726 -0.3148 -1.0067
   68MOL0     C 9067   4.817   9.135   0.248 -0.4120  0.2564 -0.1560
   68MOL0     C 9068   4.668   9.144   0.270  1.2229  0.2501 -0.3310
   68MOL0     O 9069   4.626   9.269   0.314 -0.9658 -0.2669 -0.5287
   68MOL0     C 9070   4.497   9.294   0.344 -0.3020  0.2145  0.8805
   68MOL0     C 9071   4.471   9.409   0.420  0.8267  0.2798  0.3026
   68MOL0     C 9072   4.336   9.454   0.439  0.2067 -0.4609  0.0820
   68MOL0     C 9073   4.338   9.584   0.512  0.0796 -0.2522 -0.2279
   68MOL0     C 9074   4.224   9.379   0.398 -0.9781  1.0943 -0.0931
   68MOL0     C 9075   4.081   9.409   0.435 -0.2133 -0.3500  0.1978
   68MOL0     O 9076   3.986   9.327   0.387 -0.3204  0.7512  0.2087
   68MOL0     C 9077   3.855   9.353   0.405  0.1523  1.0715 -0.3587
   68MOL0     C 9078   3.798   9.348   0.539 -0.2194  0.2133 -0.1568
   68MOL0     C 9079   3.664   9.385   0.549  0.6978 -0.7049 -0.0515
   68MOL0     C 9080   3.577   9.394   0.442 -1.0133 -0.1905  0.1390
   68MOL0     O 9081   3.449   9.424   0.473 -0.9881  0.6546 -0.3895
   68MOL0     C 9082   3.359   9.435   0.367  0.4544 -0.4620 -0.6769
   68MOL0     C 9083   3.235   9.500   0.419  0.5960  0.1176 -0.4220
   68MOL0     C 9084   3.256   9.635   0.468  0.7222 -0.2064  0.8177
   68MOL0     C 9085   3.128   9.706   0.512 -0.1963  0.6960 -0.4899
   68MOL0     C 9086   3.141   9.821   0.610 -0.6378  0.1287  0.0793
   68MOL0     C 9087   3.227   9.931   0.551 -0.2785  0.1773  0.0729
   68MOL0     C 9088   3.225  10.046   0.652  0.7696  0.9589 -0.4244
   68MOL0     C 9089   3.327  10.151   0.618 -0.8366 -0.3499 -0.0830
   68MOL0    Cl 9090   3.333  10.303   0.715 -0.3659  0.6537 -0.0198
   68MOL0     C 9091   3.640   9.396   0.311  0.0554  0.3929 -0.5916
   68MOL0     C 9092   3.768   9.377   0.295 -0.4552  0.3186  0.2559
   68MOL0     O 9093   4.071   9.503   0.515 -0.2825  0.5574 -0.3333
   68MOL0     C 9094   4.253   9.253   0.329  0.1748 -1.5403 -0.4241
   68MOL0     C 9095   4.390   9.215   0.310 -0.1860 -0.3779  1.3090
   68MOL0     N 9096   5.117   8.984   0.063 -0.7158 -0.8639  0.7070
   68MOL0     N 9097   5.219   8.919   0.111 -0.1128 -0.0846 -0.0783
   68MOL0     C 9098   4.571   8.911   0.625 -0.4438  0.4511  0.0675
   68MOL0     C 9099   4.438   8.936   0.593  0.5609 -0.2564  0.1345
   68MOL0     C 9100   4.019   8.838   0.411 -0.5610 -0.2641 -0.8370
   68MOL0     C 9101   3.973   8.975   0.396 -0.0918  0.1047  0.9268
   68MOL0     C 9102   3.868   9.004   0.315 -0.1181  0.3606  1.0596
   68MOL0     C 9103   3.793   8.903   0.247  0.2649 -0.3261  0.3527
   68MOL0     O 9104   3.695   8.927   0.149 -0.6696  0.0732 -0.4356
   68MOL0     C 9105   3.640   9.056   0.151  0.3828 -0.4897 -0.3167
   68MOL0     C 9106   3.511   9.055   0.062  0.1866 -0.7820 -0.2039
   68MOL0     C 9107   3.455   9.194   0.062  0.7000 -0.1225 -0.7847
   68MOL0     C 9108   3.315   9.198  -0.000 -0.1403  0.3942  0.4146
   68MOL0     C 9109   3.242   9.317   0.034  1.0296  0.2614  0.5703
   68MOL0     C 9110   3.187   9.423   0.048 -0.3855  0.4987  0.2323
   68MOL0     C 9111   3.837   8.772   0.260 -0.6659 -0.1843  0.4484
   68MOL0     C 9112   3.949   8.738   0.341 -0.2595  0.0153 -0.2608
   68MOL0     H 9113   4.358   8.667   0.406 -0.0535 -0.3888 -1.2973
   68MOL0     H 9114   4.613   8.634   0.455  0.1838  0.4548  2.5462
   68MOL0     H 9115   4.827   8.906   0.716 -3.0667 -0.3158  0.8962
   68MOL0     H 9116   4.776   8.764   0.796  1.4887  0.3259  0.4966
   68MOL0     H 9117   4.996   8.734   0.818 -0.2580 -0.4317  0.7648
   68MOL0     H 9118   4.977   8.637   0.675 -2.1854 -0.0563  0.8019
   68MOL0     H 9119   5.044   8.807   0.524 -0.0674  1.0260 -0.7492
   68MOL0     H 9120   5.063   8.935   0.639 -2.2117  0.4258 -0.6884
   68MOL0     H 9121   5.250   8.857   0.741 -0.1002 -0.6175  0.7009
   68MOL0     H 9122   5.231   8.688   0.694  1.0909 -1.0255 -2.2313
   68MOL0     H 9123   5.423   8.774   0.565  0.2389  0.4415 -0.1858
   68MOL0     H 9124   5.291   8.751   0.452 -0.4860 -0.9583  1.6286
   68MOL0     H 9125   5.226   9.002   0.480  1.1858 -0.0140 -1.9902
   68MOL0     H 9126   5.355   9.017   0.603  1.1531  2.3917 -2.6524
   68MOL0     H 9127   5.405   9.126   0.397 -3.0337 -0.0115 -0.1260
   68MOL0     H 9128   5.523   8.994   0.442  0.0873 -1.3745  0.4559
   68MOL0     H 9129   5.413   8.846   0.280 -3.3538 -0.5078 -0.0106
   68MOL0     H 9130   5.490   8.987   0.218  0.4885 -0.1668  1.1287
   68MOL0     H 9131   5.225   9.192   0.297  2.3763 -1.6035  1.1119
   68MOL0     H 9132   5.034   9.303   0.143 -1.1844 -1.3650  2.6371
   68MOL0     H 9133   5.010   9.228  -0.017  1.0344 -0.3944 -0.5256
   68MOL0     H 9134   4.828   9.092   0.050 -1.7890 -2.2771  2.0511
   68MOL0     H 9135   4.798   9.260   0.079  0.4205  1.4245  1.2504
   68MOL0     H 9136   4.868   9.198   0.321  0.5727 -0.9628  0.2446
   68MOL0     H 9137   4.850   9.032   0.267  2.9405  1.1806 -0.3550
   68MOL0     H 9138   4.637   9.072   0.346 -0.6674 -1.0233 -2.1857
   68MOL0     H 9139   4.615   9.119   0.177 -2.4423  1.8560  1.1210
   68MOL0     H 9140   4.561   9.463   0.447 -0.4690  1.1509  3.2641
   68MOL0     H 9141   4.301   9.567   0.613 -0.2664  0.4825 -0.2248
   68MOL0     H 9142   4.436   9.622   0.542 -1.6933  3.1299  1.8962
   68MOL0     H 9143   4.279   9.655   0.454  0.2471 -0.1154 -0.2340
   68MOL0     H 9144   3.851   9.328   0.632  0.7877  1.6517 -0.3714
   68MOL0     H 9145   3.621   9.385   0.649  0.5903  2.5299  0.0330
   68MOL0     H 9146   3.402   9.492   0.284 -3.5577 -0.0862 -2.7600
   68MOL0     H 9147   3.330   9.336   0.330 -1.3105 -0.2120 -0.0643
   68MOL0     H 9148   3.161   9.520   0.340  0.4776  1.0211 -0.0966
   68MOL0     H 9149   3.196   9.435   0.497  2.4724 -0.0009  0.4468
   68MOL0     H 9150   3.309   9.693   0.392  2.8205 -0.8873  1.6626
   68MOL0     H 9151   3.325   9.635   0.554  0.0850 -0.5726  1.3392
   68MOL0     H 9152   3.071   9.733   0.423 -0.5189 -1.5491 -1.0278
   68MOL0     H 9153   3.071   9.636   0.575  0.9397  0.3599  0.1977
   68MOL0     H 9154   3.194   9.784   0.699 -1.2628 -0.7981  0.0754
   68MOL0     H 9155   3.047   9.869   0.638  0.2374  2.1459 -0.3081
   68MOL0     H 9156   3.328   9.894   0.529 -0.6888 -1.0790  0.2277
   68MOL0     H 9157   3.201   9.968   0.451  0.2015  2.6757  0.8010
   68MOL0     H 9158   3.247   9.994   0.746  4.4228  0.5551 -1.3479
   68MOL0     H 9159   3.124  10.088   0.653 -1.0158 -2.9047 -0.6572
   68MOL0     H 9160   3.311  10.173   0.512 -1.8251 -0.2869  0.0670
   68MOL0     H 9161   3.428  10.109   0.623 -0.3546  0.7912  0.0410
   68MOL0     H 9162   3.578   9.416   0.225 -0.4850  0.7927 -0.1154
   68MOL0     H 9163   3.815   9.390   0.198 -0.7528  0.1123  0.0825
   68MOL0     H 9164   4.177   9.184   0.297  0.1223 -2.1488  0.9547
   68MOL0     H 9165   4.411   9.122   0.258  0.6848 -1.5519  3.6307
   68MOL0     H 9166   4.621   8.976   0.695  1.0294 -1.4737  0.8827
   68MOL0     H 9167   4.392   9.024   0.638  0.5041  1.3792 -2.8525
   68MOL0     H 9168   4.027   9.056   0.444  1.5352 -0.0206 -0.5972
   68MOL0     H 9169   3.861   9.107   0.281  1.2222 -0.1087 -0.7991
   68MOL0     H 9170   3.626   9.109   0.246  2.2808  4.0695 -2.2826
   68MOL0     H 9171   3.716   9.118   0.102 -2.8421  3.6176 -0.7213
   68MOL0     H 9172   3.442   8.977   0.098 -0.6621  1.1734  2.8586
   68MOL0     H 9173   3.546   9.027  -0.037  0.7122 -0.6737 -0.0519
   68MOL0     H 9174   3.522   9.271   0.021  0.8148 -1.1530 -2.6554
   68MOL0     H 9175   3.443   9.222   0.167  1.1568 -0.0992 -0.7385
   68MOL0     H 9176   3.251   9.122   0.047 -0.1828  0.5508  0.6086
   68MOL0     H 9177   3.321   9.186  -0.109  0.1981  2.7944  0.1167
   68MOL0     H 9178   3.135   9.516   0.058  0.6279  1.1384 -0.2662
   68MOL0     H 9179   3.782   8.700   0.200  0.0792 -0.2506 -0.1690
   68MOL0     H 9180   3.971   8.632   0.343 -1.9929 -0.4208  3.5936
   69MOL0     O 9181   3.528   5.619   3.201 -1.4553 -0.6627 -0.1966
   69MOL0     C 9182   3.517   5.529   3.121  0.5659  0.2192 -0.2660
   69MOL0     O 9183   3.416   5.440   3.114  0.7410 -0.1066 -0.0322
   69MOL0     C 9184   3.286   5.481   3.148  0.1725 -0.5386  0.4052
   69MOL0     C 9185   3.215   5.569   3.063 -0.3257 -0.4984  0.9085
   69MOL0     C 9186   3.078   5.598   3.085  0.4796 -0.9171 -0.5931
   69MOL0     C 9187   3.016   5.545   3.199  0.1058  0.3682 -0.1828
   69MOL0     O 9188   2.888   5.584   3.240  0.2994  0.3148 -0.3218
   69MOL0     C 9189   2.835   5.550   3.368 -0.9745 -0.3314 -0.1807
   69MOL0     C 9190   2.782   5.403   3.364  0.5338  0.5322 -0.3681
   69MOL0     C 9191   2.685   5.373   3.478 -0.3988 -0.3040 -0.9401
   69MOL0     C 9192   2.613   5.243   3.451 -0.2229 -1.1054  0.2261
   69MOL0     C 9193   2.527   5.197   3.572  0.5455 -0.1572  0.0795
   69MOL0     C 9194   2.442   5.072   3.561  0.2403  0.5330 -0.9936
   69MOL0     C 9195   2.358   5.039   3.691 -0.5066  0.5856  0.5124
   69MOL0     C 9196   2.337   4.891   3.711 -0.1026 -0.2603  0.0522
   69MOL0     N 9197   2.192   4.879   3.748  0.4310 -0.1565 -0.3044
   69MOL0     C 9198   2.143   4.892   3.878  0.0469  0.5195  0.2465
   69MOL0     C 9199   2.010   4.850   3.862  0.5156 -0.1818 -0.7736
   69MOL0     C 9200   1.917   4.850   3.984 -0.8776  0.2195  0.6817
   69MOL0     C 9201   1.783   4.786   3.965  0.1961  0.2551 -1.0184
   69MOL0     C 9202   1.715   4.802   4.105  0.7925  0.5755 -0.0432
   69MOL0     C 9203   1.571   4.745   4.089  0.0376 -0.3292 -0.2742
   69MOL0     O 9204   1.567   4.609   4.124  0.5511  1.0261  0.4140
   69MOL0     C 9205   1.440   4.546   4.129 -1.1874  0.0607 -0.3101
   69MOL0     C 9206   1.446   4.409   4.164 -0.6218 -0.7813  0.4125
   69MOL0     C 9207   1.327   4.339   4.187  0.0588  0.6023  0.5465
   69MOL0     C 9208   1.336   4.196   4.238 -0.6045  0.2766 -0.0796
   69MOL0     C 9209   1.208   4.407   4.169  0.4415 -0.7832  0.0200
   69MOL0     C 9210   1.084   4.338   4.199 -0.9792 -0.0831 -0.3666
   69MOL0     O 9211   1.001   4.420   4.276  0.2109 -0.2968  0.0396
   69MOL0     C 9212   0.891   4.369   4.335  1.0023  0.4704 -0.1002
   69MOL0     C 9213   0.836   4.237   4.346  0.4335  0.4513 -0.5101
   69MOL0     C 9214   0.700   4.212   4.389  1.0763 -0.9273 -0.4789
   69MOL0     C 9215   0.618   4.325   4.396 -0.7083 -0.3463  0.9595
   69MOL0     O 9216   0.489   4.304   4.436  0.2611  0.3604 -0.2857
   69MOL0     C 9217   0.400   4.411   4.465 -0.7400  0.8001  0.8855
   69MOL0     C 9218   0.271   4.343   4.518  0.8265 -0.2496  0.0270
   69MOL0     C 9219   0.148   4.433   4.507 -0.6107 -0.1952 -0.4803
   69MOL0     C 9220   0.026   4.357   4.565  1.0819 -0.3123 -0.9206
   69MOL0     C 9221  -0.107   4.444   4.549  0.6729 -0.9051  0.0090
   69MOL0     C 9222  -0.180   4.444   4.411 -0.1529 -0.7070 -0.5380
   69MOL0     C 9223  -0.329   4.488   4.389 -0.4290 -0.0666 -0.1726
   69MOL0     C 9224  -0.378   4.486   4.240 -0.5505  0.2463 -1.0360
   69MOL0    Cl 9225  -0.313   4.633   4.161 -0.4548 -0.0644  0.7586
   69MOL0     C 9226   0.667   4.453   4.394 -0.5163 -0.3067  0.0537
   69MOL0     C 9227   0.807   4.476   4.366 -0.3055 -0.2181  0.9004
   69MOL0     O 9228   1.056   4.227   4.150 -0.2378  0.1795 -0.8107
   69MOL0     C 9229   1.203   4.541   4.128  0.3658  0.2585  0.1354
   69MOL0     C 9230   1.319   4.609   4.096 -0.4350 -0.2992 -0.4292
   69MOL0     N 9231   1.996   4.803   3.733  0.4452 -0.3714  0.4077
   69MOL0     N 9232   2.096   4.842   3.661  0.0891 -0.4391  0.0077
   69MOL0     C 9233   3.086   5.448   3.273 -0.4791 -0.3308 -0.4896
   69MOL0     C 9234   3.215   5.419   3.247 -0.4367 -0.4208  0.3025
   69MOL0     C 9235   3.629   5.509   3.029  0.6281 -0.3812 -0.8364
   69MOL0     C 9236   3.648   5.394   2.961 -0.5869 -0.0226  0.1023
   69MOL0     C 9237   3.761   5.369   2.887 -0.2354 -0.3975 -0.4446
   69MOL0     C 9238   3.873   5.455   2.880 -0.1739 -0.0975 -0.6919
   69MOL0     O 9239   3.985   5.445   2.804 -0.0575 -0.9156 -0.0240
   69MOL0     C 9240   3.970   5.398   2.669  0.1062 -0.5181 -0.3742
   69MOL0     C 9241   3.945   5.522   2.584 -0.2234  0.0488  0.4723
   69MOL0     C 9242   4.062   5.628   2.578  0.0960 -0.5911  0.9744
   69MOL0     C 9243   4.187   5.552   2.529 -0.8577  0.3976 -0.6311
   69MOL0     C 9244   4.178   5.505   2.393  0.4399  0.0439  0.0422
   69MOL0     C 9245   4.168   5.458   2.280 -0.5814  0.0461 -0.4124
   69MOL0     C 9246   3.850   5.574   2.954  0.8154 -0.4534  0.4935
   69MOL0     C 9247   3.735   5.602   3.031  0.4767 -0.7978  0.8183
   69MOL0     H 9248   3.266   5.630   2.990 -0.2509  0.3482  1.6615
   69MOL0     H 9249   3.017   5.677   3.042  0.3984  0.2789  1.5335
   69MOL0     H 9250   2.900   5.576   3.453 -3.5986  0.2134  1.7879
   69MOL0     H 9251   2.746   5.613   3.377  0.0263  0.8368  3.3191
   69MOL0     H 9252   2.730   5.389   3.270 -0.2793 -2.8001  0.4431
   69MOL0     H 9253   2.865   5.333   3.374 -0.5068 -0.6296  0.3731
   69MOL0     H 9254   2.744   5.359   3.569 -0.7471  0.2118 -0.6254
   69MOL0     H 9255   2.619   5.455   3.511  0.1336 -1.6420  4.5241
   69MOL0     H 9256   2.545   5.257   3.367 -0.8229  0.6078  0.9428
   69MOL0     H 9257   2.685   5.167   3.421  0.7402 -0.0103 -0.3010
   69MOL0     H 9258   2.588   5.177   3.660 -0.8838  2.0492  1.6846
   69MOL0     H 9259   2.472   5.285   3.607  0.0930 -0.5169  0.2898
   69MOL0     H 9260   2.374   5.098   3.479 -0.3242  1.0743 -0.3663
   69MOL0     H 9261   2.511   4.994   3.529  1.7060  0.8620  1.1774
   69MOL0     H 9262   2.407   5.081   3.779  2.6508  2.5701 -1.9235
   69MOL0     H 9263   2.256   5.078   3.679 -0.7545 -0.4045 -0.8613
   69MOL0     H 9264   2.409   4.856   3.785  1.8692  1.1304 -1.1108
   69MOL0     H 9265   2.364   4.830   3.625  3.9755 -0.8643  1.5153
   69MOL0     H 9266   2.185   4.936   3.968 -0.0025  1.0594  0.0104
   69MOL0     H 9267   1.975   4.800   4.062 -2.4690 -3.0224 -0.0497
   69MOL0     H 9268   1.916   4.952   4.026 -0.8713  0.7525 -0.5569
   69MOL0     H 9269   1.786   4.683   3.926  0.4531  0.7368 -2.3366
   69MOL0     H 9270   1.721   4.841   3.894 -1.6266 -1.5112 -0.9213
   69MOL0     H 9271   1.724   4.905   4.141  1.0612 -0.1872  2.3073
   69MOL0     H 9272   1.753   4.745   4.191  0.2690  1.2677  0.6584
   69MOL0     H 9273   1.536   4.759   3.986  1.0705  0.7527 -0.4949
   69MOL0     H 9274   1.512   4.792   4.168 -0.2227 -0.0058 -0.6562
   69MOL0     H 9275   1.544   4.367   4.183  0.5619  2.1854  1.4856
   69MOL0     H 9276   1.275   4.179   4.327 -0.6034 -0.0772 -0.1436
   69MOL0     H 9277   1.296   4.126   4.164 -2.7765 -1.6831  2.7176
   69MOL0     H 9278   1.438   4.170   4.268  0.4057  3.7747 -0.0606
   69MOL0     H 9279   0.898   4.151   4.320 -1.6590 -1.0806 -0.6898
   69MOL0     H 9280   0.658   4.113   4.400  1.8583 -0.9957  3.0087
   69MOL0     H 9281   0.435   4.475   4.546  0.4370  0.3591  0.7403
   69MOL0     H 9282   0.372   4.474   4.380 -2.6963 -1.1483 -0.0238
   69MOL0     H 9283   0.239   4.249   4.474 -1.8644 -0.1043  1.4674
   69MOL0     H 9284   0.274   4.309   4.622  0.3826  0.7777  0.4002
   69MOL0     H 9285   0.129   4.473   4.407 -0.1098  1.7320  0.1654
   69MOL0     H 9286   0.164   4.512   4.580 -1.2943 -0.1769 -0.3398
   69MOL0     H 9287   0.013   4.259   4.518 -0.9481 -1.6646  2.1750
   69MOL0     H 9288   0.044   4.317   4.664 -2.2844 -0.7885 -0.3921
   69MOL0     H 9289  -0.074   4.546   4.569  0.3149  0.0464 -3.5501
   69MOL0     H 9290  -0.179   4.419   4.627  0.2649  2.4473  0.8643
   69MOL0     H 9291  -0.120   4.517   4.357 -0.7916  2.0186  2.1650
   69MOL0     H 9292  -0.174   4.340   4.379 -2.0102 -1.4643  1.3069
   69MOL0     H 9293  -0.349   4.580   4.445  4.4061 -0.5653  2.9037
   69MOL0     H 9294  -0.397   4.413   4.430 -1.0979  0.4769 -0.2681
   69MOL0     H 9295  -0.488   4.485   4.243 -0.5601  1.7689  0.0470
   69MOL0     H 9296  -0.345   4.395   4.190 -0.7294 -0.4674  0.0922
   69MOL0     H 9297   0.606   4.542   4.389 -0.4783 -0.1821  1.4208
   69MOL0     H 9298   0.836   4.580   4.354 -0.2553 -0.0867  2.0309
   69MOL0     H 9299   1.117   4.594   4.088  0.8823  0.8315 -0.2392
   69MOL0     H 9300   1.298   4.706   4.051 -3.1125  0.3784  1.9566
   69MOL0     H 9301   3.053   5.394   3.361 -0.5806 -0.9464 -0.9009
   69MOL0     H 9302   3.264   5.347   3.311 -0.8524 -0.4305  0.6156
   69MOL0     H 9303   3.583   5.307   2.969 -0.4557 -0.1072  0.2391
   69MOL0     H 9304   3.758   5.269   2.843  2.6237 -1.1455  0.7786
   69MOL0     H 9305   4.058   5.335   2.659 -1.0718 -2.5192  1.0499
   69MOL0     H 9306   3.887   5.327   2.660 -0.4892  0.3370 -1.9022
   69MOL0     H 9307   3.863   5.571   2.638 -0.6399  0.1653 -0.2546
   69MOL0     H 9308   3.909   5.490   2.486  1.4602  0.1442 -0.2082
   69MOL0     H 9309   4.086   5.674   2.675 -0.1180 -0.9769  1.2131
   69MOL0     H 9310   4.041   5.717   2.519 -0.2516 -0.9908  0.4843
   69MOL0     H 9311   4.214   5.473   2.600 -0.5519 -0.4165 -1.6185
   69MOL0     H 9312   4.278   5.612   2.535 -0.5497 -0.1480  0.4936
   69MOL0     H 9313   4.130   5.419   2.187 -2.5610 -2.5759  1.3489
   69MOL0     H 9314   3.931   5.646   2.948 -1.2419  2.1421  1.5801
   69MOL0     H 9315   3.736   5.688   3.097 -0.6185  1.6690 -2.1204
   70MOL0     O 9316  11.016   2.913   1.852  0.0775  0.0372  0.7592
   70MOL0     C 9317  10.942   2.952   1.754 -0.6668  0.0469  0.8609
   70MOL0     O 9318  10.989   2.966   1.622 -0.0953 -0.0240 -0.5180
   70MOL0     C 9319  11.114   2.932   1.579  0.6577  0.4105  0.6306
   70MOL0     C 9320  11.223   2.882   1.655 -0.3646 -0.7058  0.2289
   70MOL0     C 9321  11.353   2.862   1.594  0.1582  0.3106  0.6126
   70MOL0     C 9322  11.370   2.890   1.457  0.4291 -0.4635 -0.7533
   70MOL0     O 9323  11.491   2.880   1.405  0.7538 -0.8297  0.7687
   70MOL0     C 9324  11.552   3.003   1.377 -0.6013  0.0126 -0.2517
   70MOL0     C 9325  11.689   2.991   1.317 -0.6925 -0.5456 -1.0717
   70MOL0     C 9326  11.785   2.903   1.396 -0.6306  0.6282 -0.0227
   70MOL0     C 9327  11.936   2.922   1.353  0.6068  0.0343  0.4624
   70MOL0     C 9328  12.021   2.809   1.407  0.0882 -0.7532  1.0766
   70MOL0     C 9329  12.143   2.772   1.317 -0.4078 -0.5786 -0.4401
   70MOL0     C 9330  12.271   2.866   1.328  0.6093 -0.6861  0.4135
   70MOL0     C 9331  12.359   2.809   1.436 -0.0091  0.4502 -0.6819
   70MOL0     N 9332  12.473   2.908   1.464  0.7293  0.5263 -0.0550
   70MOL0     C 9333  12.605   2.884   1.458 -0.5028  0.7521  0.6224
   70MOL0     C 9334  12.653   3.009   1.490 -0.9211  0.4082 -1.3736
   70MOL0     C 9335  12.797   3.039   1.462 -0.8631 -0.1982 -0.4030
   70MOL0     C 9336  12.901   2.956   1.540  0.6816 -0.8625  0.3269
   70MOL0     C 9337  12.869   2.928   1.693  0.2929 -0.3885 -0.5992
   70MOL0     C 9338  12.859   3.038   1.808  0.1948 -0.1946  1.0853
   70MOL0     O 9339  12.829   2.979   1.936 -0.0600 -0.2400 -0.3141
   70MOL0     C 9340  12.705   2.996   1.990 -0.0688  0.8561  0.7116
   70MOL0     C 9341  12.690   3.002   2.128  0.4238 -0.6311 -0.6075
   70MOL0     C 9342  12.563   3.015   2.188  0.2621  0.4353  0.3334
   70MOL0     C 9343  12.559   3.016   2.333  0.1110 -0.1946  0.0996
   70MOL0     C 9344  12.444   3.009   2.106 -0.0343 -0.7031 -0.7614
   70MOL0     C 9345  12.316   3.011   2.165 -0.3066  0.4282 -0.3985
   70MOL0     O 9346  12.237   2.911   2.133 -0.4321  0.0509  0.1062
   70MOL0     C 9347  12.108   2.909   2.187 -0.4868  0.3505 -0.7444
   70MOL0     C 9348  12.071   2.807   2.285  0.5211  0.5253  0.1704
   70MOL0     C 9349  11.948   2.798   2.326  0.3698 -0.1046  0.3775
   70MOL0     C 9350  11.847   2.884   2.269 -0.0871  0.6815  0.2125
   70MOL0     O 9351  11.713   2.872   2.309 -0.2007 -0.1239 -0.6771
   70MOL0     C 9352  11.619   2.821   2.212  0.3601 -0.1161  0.9515
   70MOL0     C 9353  11.476   2.813   2.268 -0.1407 -0.0270 -0.0817
   70MOL0     C 9354  11.467   2.685   2.352  0.1457  0.4557 -0.5209
   70MOL0     C 9355  11.320   2.640   2.361 -0.0440  0.3464  0.4126
   70MOL0     C 9356  11.304   2.518   2.458  0.3421  0.5397 -0.3515
   70MOL0     C 9357  11.367   2.548   2.600 -0.3288 -0.5297  0.1603
   70MOL0     C 9358  11.326   2.446   2.701  0.2709 -0.2619  0.2511
   70MOL0     C 9359  11.418   2.444   2.821 -1.1092 -0.2478  0.4591
   70MOL0    Cl 9360  11.441   2.606   2.902 -0.0740 -0.0943  0.1978
   70MOL0     C 9361  11.883   2.983   2.185 -0.4993  0.4572 -0.5160
   70MOL0     C 9362  12.006   2.990   2.133  0.8250 -0.6669 -1.0788
   70MOL0     O 9363  12.288   3.105   2.235  0.5823  0.0169  0.0520
   70MOL0     C 9364  12.459   2.993   1.972 -0.1598 -0.1680 -0.3674
   70MOL0     C 9365  12.584   2.987   1.909 -0.3588 -0.3751  0.4022
   70MOL0     N 9366  12.562   3.095   1.535  0.8304 -0.7870 -0.8196
   70MOL0     N 9367  12.446   3.036   1.512 -0.2085 -0.2718 -0.3522
   70MOL0     C 9368  11.256   2.932   1.385  0.4345  0.0043 -0.0998
   70MOL0     C 9369  11.128   2.933   1.448  0.0531 -0.2685  0.2616
   70MOL0     C 9370  10.803   2.980   1.785 -0.2896 -0.1080  0.6454
   70MOL0     C 9371  10.753   2.937   1.906  0.3893 -0.2007  0.2376
   70MOL0     C 9372  10.621   2.980   1.933  0.5226  0.7882 -0.3018
   70MOL0     C 9373  10.542   3.062   1.841  0.7222  0.5041 -1.2491
   70MOL0     O 9374  10.430   3.122   1.893 -0.0291  0.2769  0.3984
   70MOL0     C 9375  10.328   3.151   1.802 -0.2346  0.8224  0.1932
   70MOL0     C 9376  10.190   3.154   1.880  0.4302 -0.2534  0.1125
   70MOL0     C 9377  10.078   3.134   1.771  0.4965 -0.4096  0.0248
   70MOL0     C 9378  10.075   3.256   1.680 -0.0170  0.1284  0.1989
   70MOL0     C 9379  10.008   3.372   1.730  0.5267  0.1668 -0.7372
   70MOL0     C 9380   9.951   3.471   1.764 -1.5844  0.0510 -0.4056
   70MOL0     C 9381  10.599   3.105   1.728 -0.8955 -0.5363  0.6029
   70MOL0     C 9382  10.732   3.059   1.691 -0.1917  0.2820 -1.0511
   70MOL0     H 9383  11.217   2.841   1.755 -0.3765 -1.1495  0.0509
   70MOL0     H 9384  11.439   2.840   1.656  2.0464  4.2893 -0.2784
   70MOL0     H 9385  11.487   3.053   1.305 -0.9828 -1.9883 -1.3841
   70MOL0     H 9386  11.566   3.063   1.467 -0.7535  1.9201 -1.4350
   70MOL0     H 9387  11.700   2.952   1.215  3.8302  1.2889 -1.5350
   70MOL0     H 9388  11.736   3.088   1.297 -0.1179 -0.0913  1.9800
   70MOL0     H 9389  11.775   2.934   1.501 -1.5911  0.4174 -0.0430
   70MOL0     H 9390  11.763   2.796   1.398  1.7210  0.0868  0.7473
   70MOL0     H 9391  11.938   2.922   1.243  1.0169 -0.5453  0.4628
   70MOL0     H 9392  11.975   3.021   1.378  0.7381  0.4521 -1.2227
   70MOL0     H 9393  12.050   2.848   1.505  2.5558  1.4093 -0.4029
   70MOL0     H 9394  11.963   2.717   1.420 -0.0018 -0.4679  3.0059
   70MOL0     H 9395  12.181   2.671   1.334  0.0815 -0.4738 -0.8627
   70MOL0     H 9396  12.114   2.779   1.211 -0.9229  1.2902 -0.2169
   70MOL0     H 9397  12.323   2.864   1.233  0.2630 -0.7956  0.2237
   70MOL0     H 9398  12.235   2.968   1.345  0.3414 -1.0419  2.2017
   70MOL0     H 9399  12.401   2.713   1.403 -1.4914 -1.1913  1.8648
   70MOL0     H 9400  12.312   2.783   1.531 -0.0425 -0.3010 -0.8987
   70MOL0     H 9401  12.675   2.807   1.425  0.3250  1.4140  0.8133
   70MOL0     H 9402  12.819   3.017   1.357 -1.4896  0.5716 -0.7073
   70MOL0     H 9403  12.827   3.141   1.488  2.9836 -1.4270  0.7297
   70MOL0     H 9404  13.004   2.994   1.534  0.8240 -1.0934  1.1261
   70MOL0     H 9405  12.920   2.858   1.496 -1.5226 -0.6316 -1.2995
   70MOL0     H 9406  12.952   2.865   1.727 -1.1210 -1.4017  1.0944
   70MOL0     H 9407  12.780   2.866   1.704 -1.0010  1.6300  0.7436
   70MOL0     H 9408  12.786   3.116   1.783 -0.2677 -0.2120  2.3107
   70MOL0     H 9409  12.952   3.095   1.824 -0.1038 -0.0259  2.3683
   70MOL0     H 9410  12.785   3.002   2.179  3.9647 -3.0277 -6.2360
   70MOL0     H 9411  12.633   2.940   2.358 -0.9073 -2.0022 -2.0492
   70MOL0     H 9412  12.582   3.111   2.382  0.7002  0.0331 -0.6130
   70MOL0     H 9413  12.462   2.981   2.371 -0.4563  2.1032  0.9483
   70MOL0     H 9414  12.145   2.742   2.330  0.0164  2.1935  3.7959
   70MOL0     H 9415  11.916   2.727   2.402 -1.3931  0.0936 -0.1291
   70MOL0     H 9416  11.613   2.875   2.117  1.0766 -0.3950  0.7373
   70MOL0     H 9417  11.649   2.721   2.179  0.0024  0.8715 -2.7793
   70MOL0     H 9418  11.452   2.898   2.333  0.9268 -0.3844  0.8163
   70MOL0     H 9419  11.410   2.802   2.181  1.2955  2.3570 -1.5749
   70MOL0     H 9420  11.505   2.709   2.452 -3.9496 -2.3855  2.0281
   70MOL0     H 9421  11.517   2.598   2.309 -0.8543  0.6111 -2.0375
   70MOL0     H 9422  11.262   2.724   2.399  1.3372  1.2407  0.5792
   70MOL0     H 9423  11.276   2.621   2.262  1.3417 -1.0920  0.0324
   70MOL0     H 9424  11.354   2.434   2.410  1.1794  0.4410  0.6772
   70MOL0     H 9425  11.200   2.487   2.471  0.7361 -2.7749 -3.3913
   70MOL0     H 9426  11.472   2.533   2.575 -0.7507 -0.0453 -2.1251
   70MOL0     H 9427  11.359   2.649   2.641  2.3779 -0.8742  1.8135
   70MOL0     H 9428  11.339   2.344   2.662  1.1221 -0.4087  0.8904
   70MOL0     H 9429  11.220   2.451   2.730  0.7873  0.3452  2.1536
   70MOL0     H 9430  11.517   2.410   2.788 -0.7755  0.0240  1.1552
   70MOL0     H 9431  11.384   2.369   2.894 -1.7954 -1.7388 -1.3046
   70MOL0     H 9432  11.810   3.061   2.166 -1.6667 -0.2173  0.9594
   70MOL0     H 9433  12.018   3.062   2.053 -0.4149 -0.1698 -0.8283
   70MOL0     H 9434  12.372   2.978   1.909 -0.0297  0.6694 -0.7611
   70MOL0     H 9435  12.584   2.982   1.801  0.1961  0.9868  0.3118
   70MOL0     H 9436  11.271   2.966   1.283 -1.2968  4.4115  0.8496
   70MOL0     H 9437  11.032   2.950   1.400 -0.4501 -0.9531  0.9891
   70MOL0     H 9438  10.806   2.871   1.974 -0.0117 -0.2703  0.4854
   70MOL0     H 9439  10.581   2.952   2.030 -2.5581 -2.1746 -2.2063
   70MOL0     H 9440  10.342   3.251   1.761 -0.0635  0.0349 -1.8101
   70MOL0     H 9441  10.315   3.089   1.713 -0.5263  1.8118 -0.4727
   70MOL0     H 9442  10.172   3.253   1.924 -0.0576 -0.2404 -0.1058
   70MOL0     H 9443  10.183   3.075   1.956  0.5233 -2.9553 -2.4794
   70MOL0     H 9444   9.982   3.117   1.820  0.4917  0.5477  0.3691
   70MOL0     H 9445  10.092   3.050   1.703  3.2025  0.2775 -0.3845
   70MOL0     H 9446  10.022   3.238   1.586 -1.0393  0.8031  0.6381
   70MOL0     H 9447  10.180   3.275   1.657  0.4007 -2.4145 -0.3378
   70MOL0     H 9448   9.887   3.538   1.817 -3.8801 -2.3481  0.1025
   70MOL0     H 9449  10.545   3.184   1.677  0.6073 -1.4219 -2.6374
   70MOL0     H 9450  10.789   3.094   1.606 -0.8983 -2.9244 -3.0096
   71MOL0     O 9451   1.654  11.098   8.916  0.6902 -0.0833 -0.5074
   71MOL0     C 9452   1.690  11.216   8.929  0.3112 -0.1712 -0.3888
   71MOL0     O 9453   1.617  11.329   8.893 -0.3447  0.3972  0.0560
   71MOL0     C 9454   1.482  11.325   8.855 -0.5210  0.3244  0.1296
   71MOL0     C 9455   1.393  11.242   8.915  0.7735 -0.1773  0.8121
   71MOL0     C 9456   1.253  11.242   8.877  0.1872 -0.8925  0.1217
   71MOL0     C 9457   1.217  11.338   8.779  0.4873  0.3186  0.3050
   71MOL0     O 9458   1.090  11.346   8.736  0.1803 -0.2921 -0.1968
   71MOL0     C 9459   0.981  11.342   8.829 -1.0463  0.0602  0.4917
   71MOL0     C 9460   0.866  11.416   8.762 -0.0980  0.4837 -0.1445
   71MOL0     C 9461   0.882  11.558   8.780 -0.4652 -0.0655  0.4970
   71MOL0     C 9462   0.779  11.627   8.692  0.7966 -0.2061 -0.4877
   71MOL0     C 9463   0.637  11.605   8.741 -0.8675 -0.5742  0.1267
   71MOL0     C 9464   0.541  11.689   8.649  0.1452  0.1563 -1.0255
   71MOL0     C 9465   0.389  11.693   8.697 -0.2436  0.2270 -0.9704
   71MOL0     C 9466   0.364  11.676   8.856 -0.3044 -0.5556  0.8576
   71MOL0     N 9467   0.396  11.798   8.930  0.0614  0.6389 -0.3415
   71MOL0     C 9468   0.323  11.912   8.921  0.1411 -0.1547 -0.2959
   71MOL0     C 9469   0.361  11.986   9.026 -0.6127  0.1823 -0.6134
   71MOL0     C 9470   0.319  12.119   9.081  0.3236 -0.5269  0.2010
   71MOL0     C 9471   0.199  12.171   8.995 -0.3202 -0.1646  0.5545
   71MOL0     C 9472   0.135  12.301   9.040  0.1157 -0.3227 -0.3459
   71MOL0     C 9473   0.066  12.395   8.929 -0.3964 -1.0570  0.1775
   71MOL0     O 9474  -0.040  12.329   8.859  0.0785  0.6726  0.2952
   71MOL0     C 9475  -0.160  12.392   8.852  0.5132  0.1036  0.5598
   71MOL0     C 9476  -0.265  12.337   8.925 -0.5763 -0.1364  0.2325
   71MOL0     C 9477  -0.387  12.398   8.946 -0.5099 -0.0719 -0.5023
   71MOL0     C 9478  -0.495  12.336   9.042  0.1607  0.4106  0.0950
   71MOL0     C 9479  -0.414  12.524   8.884 -0.8495  0.2854 -0.6072
   71MOL0     C 9480  -0.535  12.598   8.898 -1.0951  0.1364  0.0386
   71MOL0     O 9481  -0.508  12.726   8.911 -0.9544 -1.1209 -0.2627
   71MOL0     C 9482  -0.603  12.802   8.975 -0.8152 -0.8033  0.0520
   71MOL0     C 9483  -0.659  12.916   8.917  0.3482 -0.3397  0.1936
   71MOL0     C 9484  -0.755  12.989   8.974  0.5206  0.0872 -0.7671
   71MOL0     C 9485  -0.804  12.959   9.107 -0.3672 -0.3106 -0.0903
   71MOL0     O 9486  -0.905  13.027   9.172 -0.2036  0.3003 -0.7166
   71MOL0     C 9487  -0.983  13.132   9.111  0.1857  0.2680 -0.5786
   71MOL0     C 9488  -1.118  13.125   9.181 -0.0450  0.2689 -0.4933
   71MOL0     C 9489  -1.207  13.229   9.112  0.2069  0.4596  0.4217
   71MOL0     C 9490  -1.319  13.263   9.202  0.1958 -1.2182 -0.0128
   71MOL0     C 9491  -1.407  13.385   9.148 -0.4505  0.1745  0.2896
   71MOL0     C 9492  -1.465  13.462   9.273  0.3571  0.8857 -0.1599
   71MOL0     C 9493  -1.576  13.373   9.352  0.4096 -0.1172  0.1976
   71MOL0     C 9494  -1.622  13.447   9.472  0.5838 -0.5862 -1.0208
   71MOL0    Cl 9495  -1.734  13.582   9.423  0.2526  0.0554 -0.4282
   71MOL0     C 9496  -0.746  12.851   9.168  0.2183 -0.7078  0.4689
   71MOL0     C 9497  -0.648  12.780   9.112 -0.3638  0.3328 -0.5405
   71MOL0     O 9498  -0.647  12.545   8.891  0.3129  0.1191  0.8107
   71MOL0     C 9499  -0.312  12.579   8.808 -0.2912 -0.7104  0.0871
   71MOL0     C 9500  -0.191  12.511   8.788 -0.6756 -0.2291  0.4805
   71MOL0     N 9501   0.471  11.918   9.087 -0.0766  0.1003  0.4244
   71MOL0     N 9502   0.494  11.803   9.037  0.3487  0.3259  0.2197
   71MOL0     C 9503   1.309  11.423   8.713 -1.0797 -0.8942 -0.0948
   71MOL0     C 9504   1.441  11.418   8.755  1.2946  0.7758  0.0040
   71MOL0     C 9505   1.826  11.249   8.964  0.3827  0.3150 -0.2907
   71MOL0     C 9506   1.865  11.384   8.978  0.5071 -0.5281 -0.4764
   71MOL0     C 9507   1.997  11.420   9.011  0.0869  0.1350  0.4109
   71MOL0     C 9508   2.093  11.322   9.024 -0.4483  0.5106  1.0050
   71MOL0     O 9509   2.227  11.343   9.053 -0.3871 -0.0914 -0.8595
   71MOL0     C 9510   2.281  11.475   9.043  0.1840 -0.3830 -0.6246
   71MOL0     C 9511   2.425  11.493   9.096  0.7191  0.5332 -0.1792
   71MOL0     C 9512   2.513  11.393   9.015  0.7516 -0.1238  0.8683
   71MOL0     C 9513   2.536  11.262   9.100  1.0125 -0.3367 -0.3731
   71MOL0     C 9514   2.571  11.146   9.017  0.1479 -0.1911  0.7958
   71MOL0     C 9515   2.595  11.039   8.970  0.2237 -0.8369 -0.3991
   71MOL0     C 9516   2.057  11.187   9.016 -0.5157  0.0739 -0.0724
   71MOL0     C 9517   1.926  11.152   8.979 -0.6141  0.2582  0.3678
   71MOL0     H 9518   1.415  11.180   9.001 -0.8175 -1.3529  0.4347
   71MOL0     H 9519   1.179  11.173   8.915 -3.6790  1.5676 -2.1495
   71MOL0     H 9520   0.959  11.241   8.865  0.4531 -0.5782 -0.2781
   71MOL0     H 9521   1.019  11.386   8.922  0.7550  1.9867 -1.0674
   71MOL0     H 9522   0.864  11.379   8.659  0.8170  1.3646 -0.4971
   71MOL0     H 9523   0.774  11.395   8.816 -1.2183  2.4017 -1.1834
   71MOL0     H 9524   0.875  11.586   8.885 -1.6232  0.0972  0.3861
   71MOL0     H 9525   0.981  11.580   8.738 -1.4746  4.7323  0.0201
   71MOL0     H 9526   0.796  11.735   8.693  0.8510 -0.1962 -1.7500
   71MOL0     H 9527   0.790  11.597   8.587  0.0843  2.2147 -1.3125
   71MOL0     H 9528   0.611  11.499   8.743  1.4224 -1.2993  4.7254
   71MOL0     H 9529   0.631  11.638   8.845  2.3780 -3.2590  1.3521
   71MOL0     H 9530   0.576  11.792   8.643  0.4509 -0.0268 -2.6750
   71MOL0     H 9531   0.553  11.652   8.547  1.3425 -3.1676  0.1683
   71MOL0     H 9532   0.355  11.788   8.656 -2.3893  0.3567  0.9181
   71MOL0     H 9533   0.333  11.612   8.651  0.2352  0.0525 -1.2558
   71MOL0     H 9534   0.416  11.590   8.900  0.0713 -0.6236  0.2883
   71MOL0     H 9535   0.260  11.659   8.886 -0.4475 -1.3456 -0.0239
   71MOL0     H 9536   0.242  11.928   8.851  0.1026  2.2274  0.2145
   71MOL0     H 9537   0.295  12.114   9.188  0.8340  0.0656  0.3445
   71MOL0     H 9538   0.407  12.184   9.077  2.1684 -2.9517 -1.9331
   71MOL0     H 9539   0.115  12.103   8.981 -1.0893  1.3226 -3.2721
   71MOL0     H 9540   0.241  12.189   8.895  1.2178 -1.4864  0.9193
   71MOL0     H 9541   0.208  12.359   9.096 -0.8568 -1.4890  2.2752
   71MOL0     H 9542   0.064  12.282   9.120  1.4993  0.2432  1.0711
   71MOL0     H 9543   0.142  12.427   8.857 -1.6303  1.6293 -0.0455
   71MOL0     H 9544   0.033  12.487   8.977  0.1334 -1.6975  1.8343
   71MOL0     H 9545  -0.236  12.244   8.973 -0.2032 -0.0966  0.0819
   71MOL0     H 9546  -0.588  12.308   8.989  0.2803 -0.5016  0.3431
   71MOL0     H 9547  -0.455  12.243   9.083  3.3575  2.0870  1.1065
   71MOL0     H 9548  -0.524  12.408   9.118 -2.7216  1.5792 -1.9257
   71MOL0     H 9549  -0.613  12.955   8.827  2.3330  1.4721  1.8662
   71MOL0     H 9550  -0.788  13.081   8.926  0.7158  0.9202  0.6206
   71MOL0     H 9551  -0.941  13.230   9.136  2.9058 -1.4787  2.2843
   71MOL0     H 9552  -0.994  13.102   9.006 -0.0542 -1.2682 -0.1432
   71MOL0     H 9553  -1.157  13.022   9.182  0.1177  0.1792  1.6668
   71MOL0     H 9554  -1.106  13.156   9.285 -4.6887 -1.9155  0.9847
   71MOL0     H 9555  -1.254  13.202   9.016  0.0848  0.6691  0.4233
   71MOL0     H 9556  -1.149  13.320   9.101  2.5100 -1.0718 -1.1053
   71MOL0     H 9557  -1.378  13.176   9.230  0.9255 -1.6514  0.2113
   71MOL0     H 9558  -1.259  13.303   9.284  1.2862 -1.1416 -0.8304
   71MOL0     H 9559  -1.488  13.341   9.089  0.9659 -0.7720 -1.0433
   71MOL0     H 9560  -1.357  13.463   9.089  0.0262 -0.8094 -0.6417
   71MOL0     H 9561  -1.392  13.502   9.344 -1.1524  0.0687  1.9745
   71MOL0     H 9562  -1.520  13.550   9.238 -5.0536 -2.6894 -1.9649
   71MOL0     H 9563  -1.531  13.281   9.390 -0.1197 -1.2871 -1.8518
   71MOL0     H 9564  -1.664  13.345   9.292  0.0789  4.1175 -1.6237
   71MOL0     H 9565  -1.543  13.497   9.530 -0.4042  1.6581 -1.4977
   71MOL0     H 9566  -1.679  13.387   9.543  2.1907  0.1949  1.0403
   71MOL0     H 9567  -0.762  12.827   9.273  1.7245 -0.2377  0.8368
   71MOL0     H 9568  -0.598  12.700   9.166 -1.3993  0.0399  0.0074
   71MOL0     H 9569  -0.331  12.672   8.755 -3.5488 -1.8353 -0.9698
   71MOL0     H 9570  -0.121  12.547   8.713  1.4610 -0.5455  2.2506
   71MOL0     H 9571   1.293  11.482   8.623  3.7324 -2.7483 -2.5677
   71MOL0     H 9572   1.500  11.495   8.706 -0.1542  2.4697  0.8010
   71MOL0     H 9573   1.799  11.469   8.967 -1.2149 -1.6598  0.5645
   71MOL0     H 9574   2.014  11.527   9.025 -2.5369  0.8658 -1.2289
   71MOL0     H 9575   2.285  11.510   8.939 -1.5754  1.7652 -0.0211
   71MOL0     H 9576   2.215  11.541   9.099 -0.8049 -1.1840 -0.8163
   71MOL0     H 9577   2.438  11.467   9.201  1.3591 -0.4149 -0.4838
   71MOL0     H 9578   2.466  11.593   9.081  1.1209  0.8616  2.5504
   71MOL0     H 9579   2.609  11.438   8.988  0.2199  1.9869  2.1879
   71MOL0     H 9580   2.463  11.363   8.923  2.0106 -0.5326  0.3043
   71MOL0     H 9581   2.439  11.235   9.142  0.2443 -0.8315 -2.3500
   71MOL0     H 9582   2.608  11.289   9.179  0.2028  1.3164 -0.1600
   71MOL0     H 9583   2.627  10.948   8.925  0.0494 -2.1654  2.0100
   71MOL0     H 9584   2.145  11.128   9.039 -0.3003  0.2930 -0.3180
   71MOL0     H 9585   1.892  11.049   8.968  1.2274 -0.2976 -0.6991
   72MOL0     O 9586   1.147   9.402   6.078  0.0029 -0.3110 -0.3506
   72MOL0     C 9587   1.073   9.306   6.104 -0.7480 -0.1372 -0.4955
   72MOL0     O 9588   1.108   9.169   6.100 -0.2486  0.4811 -0.5641
   72MOL0     C 9589   1.235   9.123   6.073  0.4254  0.3430 -0.5497
   72MOL0     C 9590   1.251   8.997   6.012  0.3391 -0.3635  0.4543
   72MOL0     C 9591   1.379   8.955   5.973  0.2374  0.3331  0.3972
   72MOL0     C 9592   1.503   9.018   6.005  0.6852  1.1846  0.0177
   72MOL0     O 9593   1.623   8.957   5.986 -0.4850 -0.2880 -0.2419
   72MOL0     C 9594   1.745   9.034   5.994  0.4652 -0.0180 -0.7136
   72MOL0     C 9595   1.858   8.949   5.942 -0.2637 -0.2891 -0.2367
   72MOL0     C 9596   1.996   9.020   5.964 -0.0419  0.3439 -0.9448
   72MOL0     C 9597   2.116   8.919   5.945  0.2810  0.4808  0.6467
   72MOL0     C 9598   2.254   8.982   5.984 -0.0090  0.1877 -0.6768
   72MOL0     C 9599   2.364   8.893   5.931  1.5278  0.6066 -0.8124
   72MOL0     C 9600   2.503   8.956   5.936 -0.0726  0.5751 -0.1402
   72MOL0     C 9601   2.609   8.850   5.884  0.5000 -0.6902 -0.0116
   72MOL0     N 9602   2.627   8.748   5.998  0.6392  0.2738 -0.0952
   72MOL0     C 9603   2.704   8.770   6.106 -0.2715  0.5603 -0.0482
   72MOL0     C 9604   2.736   8.649   6.154 -0.0156 -0.4368 -0.8132
   72MOL0     C 9605   2.833   8.618   6.265  0.5042 -1.1562 -0.3001
   72MOL0     C 9606   2.814   8.715   6.381 -0.0764 -0.3758 -0.0032
   72MOL0     C 9607   2.860   8.651   6.515 -0.1030 -0.5365  1.0598
   72MOL0     C 9608   2.773   8.534   6.568 -1.5315 -0.1816  0.5660
   72MOL0     O 9609   2.734   8.565   6.701  0.1351 -0.5956 -0.0703
   72MOL0     C 9610   2.648   8.474   6.755 -0.3401  0.0276  0.6708
   72MOL0     C 9611   2.533   8.421   6.691 -0.5751 -1.3369  0.3642
   72MOL0     C 9612   2.470   8.314   6.751  0.0514  0.2762 -0.6040
   72MOL0     C 9613   2.358   8.257   6.667  0.1760 -0.1417  0.1031
   72MOL0     C 9614   2.520   8.248   6.867 -0.8083  0.4404  0.0149
   72MOL0     C 9615   2.452   8.137   6.946 -0.4671  0.2619  0.4914
   72MOL0     O 9616   2.493   8.118   7.077  0.1911  0.1225 -0.3283
   72MOL0     C 9617   2.414   8.037   7.160 -0.1574  0.3069  0.1268
   72MOL0     C 9618   2.384   8.080   7.290 -0.6527  0.7220 -0.5518
   72MOL0     C 9619   2.306   8.021   7.378 -0.0226 -0.0561  0.4025
   72MOL0     C 9620   2.245   7.897   7.344  0.5441 -0.6208 -0.1873
   72MOL0     O 9621   2.164   7.837   7.437  0.0599 -0.1135 -0.0156
   72MOL0     C 9622   2.239   7.757   7.527 -0.1002 -0.3558  0.5731
   72MOL0     C 9623   2.160   7.632   7.568  0.8613  0.3607  0.3530
   72MOL0     C 9624   2.040   7.655   7.657  0.7419  0.3969 -1.0519
   72MOL0     C 9625   1.930   7.730   7.584  0.5505  0.2149  0.9281
   72MOL0     C 9626   1.783   7.713   7.643  0.3344 -0.3615  0.5952
   72MOL0     C 9627   1.724   7.576   7.622  0.1597 -0.2961  0.0189
   72MOL0     C 9628   1.579   7.561   7.677 -0.4642  0.2946 -0.8525
   72MOL0     C 9629   1.575   7.540   7.833  0.4213 -0.1352  0.5383
   72MOL0    Cl 9630   1.393   7.529   7.884 -0.5471 -0.3518 -0.4056
   72MOL0     C 9631   2.270   7.846   7.222 -0.0516  0.0656 -0.3204
   72MOL0     C 9632   2.350   7.917   7.131  1.1925  0.0990  0.4068
   72MOL0     O 9633   2.366   8.069   6.887 -0.4412 -0.1592 -0.3426
   72MOL0     C 9634   2.629   8.303   6.924  0.2643 -0.3919  0.4397
   72MOL0     C 9635   2.697   8.409   6.865 -0.1023 -1.2156 -0.2766
   72MOL0     N 9636   2.664   8.553   6.088 -0.7641 -0.3793  0.7717
   72MOL0     N 9637   2.595   8.613   5.998 -0.6800  0.3713  0.2227
   72MOL0     C 9638   1.491   9.134   6.072  0.8747 -0.4159  0.5389
   72MOL0     C 9639   1.357   9.186   6.104 -1.3014  0.5933 -0.4882
   72MOL0     C 9640   0.928   9.330   6.130 -0.9378 -0.1352  0.0985
   72MOL0     C 9641   0.895   9.458   6.179  1.3256 -0.3469  0.0094
   72MOL0     C 9642   0.764   9.495   6.221 -0.0863  0.6797  0.5145
   72MOL0     C 9643   0.666   9.387   6.210  0.5477 -0.3188  0.0482
   72MOL0     O 9644   0.528   9.396   6.229 -0.1930  0.4256 -0.8374
   72MOL0     C 9645   0.487   9.535   6.239 -0.1288  1.5776  1.3113
   72MOL0     C 9646   0.332   9.550   6.220  0.1640 -0.0085 -0.2949
   72MOL0     C 9647   0.254   9.460   6.316 -0.5232  0.6287  0.1126
   72MOL0     C 9648   0.111   9.507   6.350 -0.2553 -0.1567  0.7970
   72MOL0     C 9649   0.033   9.525   6.224  0.4550 -0.9692 -0.3018
   72MOL0     C 9650  -0.007   9.544   6.108  0.3368  0.1745 -0.2377
   72MOL0     C 9651   0.708   9.259   6.171  0.3743  0.3397  0.2103
   72MOL0     C 9652   0.834   9.226   6.139 -0.7105 -0.3029 -0.2187
   72MOL0     H 9653   1.165   8.936   5.985 -0.8778  0.8310  1.4744
   72MOL0     H 9654   1.391   8.863   5.918 -1.5215  0.2218  0.1261
   72MOL0     H 9655   1.737   9.117   5.924 -2.5353  5.0506  4.7538
   72MOL0     H 9656   1.768   9.068   6.096 -0.0695 -2.9908  0.5106
   72MOL0     H 9657   1.854   8.847   5.982 -1.5952 -0.4895 -0.8036
   72MOL0     H 9658   1.840   8.951   5.834 -1.7520  3.2243 -0.0601
   72MOL0     H 9659   2.009   9.108   5.901 -0.4871  0.7912 -0.4354
   72MOL0     H 9660   2.007   9.050   6.069  0.7410 -0.2088 -0.8663
   72MOL0     H 9661   2.094   8.825   5.997  2.1041 -0.6037 -0.3995
   72MOL0     H 9662   2.104   8.891   5.839 -1.7232  0.4962  0.8318
   72MOL0     H 9663   2.271   9.082   5.943  1.0558  2.7395  4.9354
   72MOL0     H 9664   2.264   9.002   6.092 -0.4528  2.3240 -0.9806
   72MOL0     H 9665   2.366   8.807   5.999  0.5892  1.2642  0.0831
   72MOL0     H 9666   2.335   8.859   5.831  0.0114  2.1131 -0.9310
   72MOL0     H 9667   2.499   9.046   5.874  0.2856  3.4144  3.6649
   72MOL0     H 9668   2.524   8.995   6.035 -0.0372  2.2131 -0.7699
   72MOL0     H 9669   2.701   8.901   5.854 -0.0477 -0.8338 -2.0441
   72MOL0     H 9670   2.569   8.804   5.794  0.6920 -1.5675  0.3400
   72MOL0     H 9671   2.738   8.865   6.146 -1.5182  0.8045  0.4744
   72MOL0     H 9672   2.814   8.519   6.307  1.5964 -0.1436  2.8472
   72MOL0     H 9673   2.930   8.612   6.214  0.9243 -2.8213  0.6377
   72MOL0     H 9674   2.712   8.754   6.389 -0.6828 -2.0046  0.7337
   72MOL0     H 9675   2.875   8.801   6.352  0.4804 -1.1216 -1.1398
   72MOL0     H 9676   2.857   8.729   6.591 -0.0558 -1.3820  1.9539
   72MOL0     H 9677   2.957   8.601   6.502 -0.6265 -1.9254  2.1990
   72MOL0     H 9678   2.820   8.436   6.571 -1.3050 -0.0579  1.6704
   72MOL0     H 9679   2.687   8.525   6.501 -0.9764 -0.1468 -0.1651
   72MOL0     H 9680   2.494   8.475   6.605  1.1530  0.1561  0.4606
   72MOL0     H 9681   2.320   8.323   6.588  1.8176  0.5222 -0.1769
   72MOL0     H 9682   2.381   8.153   6.643  0.2152 -0.2745  0.7016
   72MOL0     H 9683   2.268   8.246   6.728 -0.2550  1.0547 -0.2711
   72MOL0     H 9684   2.435   8.175   7.307  0.0685  0.2269  0.1048
   72MOL0     H 9685   2.280   8.068   7.472 -1.7973 -0.8028  0.3495
   72MOL0     H 9686   2.327   7.715   7.478  1.1199  1.2409  1.3294
   72MOL0     H 9687   2.277   7.814   7.612  0.0661  2.2178 -1.1205
   72MOL0     H 9688   2.126   7.565   7.489 -2.5149 -3.2463  4.3185
   72MOL0     H 9689   2.230   7.560   7.611  1.7063  0.1439 -1.2994
   72MOL0     H 9690   2.058   7.706   7.753 -1.2809  3.3668 -2.1042
   72MOL0     H 9691   1.996   7.558   7.681 -1.9397  0.8133 -3.7709
   72MOL0     H 9692   1.954   7.836   7.576 -0.9905  0.4742 -1.1882
   72MOL0     H 9693   1.930   7.692   7.482  2.9520 -1.2094  1.3886
   72MOL0     H 9694   1.725   7.798   7.604 -0.8225 -1.8664 -1.1282
   72MOL0     H 9695   1.785   7.723   7.752 -4.1497  0.1610  0.8509
   72MOL0     H 9696   1.723   7.566   7.513 -0.3927  2.5220 -0.3044
   72MOL0     H 9697   1.794   7.503   7.664  0.9798  1.4382  1.8367
   72MOL0     H 9698   1.536   7.474   7.625 -0.2283 -0.1799 -0.2616
   72MOL0     H 9699   1.527   7.652   7.645  1.7054  1.8008 -0.2960
   72MOL0     H 9700   1.620   7.622   7.890  1.7633  0.2739 -1.0269
   72MOL0     H 9701   1.632   7.449   7.856  1.2678  0.4552  0.8278
   72MOL0     H 9702   2.212   7.756   7.202  1.0539 -1.1708  1.6832
   72MOL0     H 9703   2.371   7.871   7.035  1.2669 -0.1553  0.5435
   72MOL0     H 9704   2.673   8.268   7.017 -1.5847  0.1648  1.5615
   72MOL0     H 9705   2.785   8.436   6.921 -0.9756 -0.1073  0.6034
   72MOL0     H 9706   1.570   9.190   6.121 -0.2895  0.4294  1.5251
   72MOL0     H 9707   1.350   9.279   6.160  0.2172 -0.7382  2.0599
   72MOL0     H 9708   0.963   9.542   6.180  3.1050 -1.7297  0.8245
   72MOL0     H 9709   0.732   9.589   6.266  0.1613 -1.1799  5.2230
   72MOL0     H 9710   0.528   9.591   6.323 -0.2979  1.6781  1.3264
   72MOL0     H 9711   0.529   9.576   6.147  2.4906  1.4437  2.3726
   72MOL0     H 9712   0.314   9.531   6.114  0.5508  0.6565 -0.4833
   72MOL0     H 9713   0.302   9.655   6.230 -0.5960 -0.0957 -1.4540
   72MOL0     H 9714   0.296   9.453   6.417  0.1034  1.4958 -0.0682
   72MOL0     H 9715   0.258   9.356   6.284  1.4526  0.7119 -0.0737
   72MOL0     H 9716   0.114   9.600   6.408 -3.2894 -1.1598  2.8461
   72MOL0     H 9717   0.072   9.422   6.406  1.5448 -1.2004  0.5303
   72MOL0     H 9718  -0.038   9.559   6.007  0.2608  0.6376 -0.1476
   72MOL0     H 9719   0.631   9.183   6.162 -0.5694  1.5095 -2.9362
   72MOL0     H 9720   0.866   9.124   6.119  0.0936  0.3170 -2.4686
   73MOL0     O 9721   3.204   7.309   2.222 -0.9329  0.5358  0.1430
   73MOL0     C 9722   3.230   7.421   2.166  0.2484  0.3220  0.2211
   73MOL0     O 9723   3.129   7.512   2.142  0.2499 -0.7554 -0.2227
   73MOL0     C 9724   2.995   7.476   2.143 -0.7355 -0.5327  0.8619
   73MOL0     C 9725   2.909   7.576   2.181  0.2824 -0.3804 -0.6285
   73MOL0     C 9726   2.766   7.560   2.193 -1.2249 -0.4361  0.0461
   73MOL0     C 9727   2.715   7.433   2.149 -0.1636  0.4780  0.0136
   73MOL0     O 9728   2.576   7.418   2.130 -0.5402  0.0083  0.3340
   73MOL0     C 9729   2.489   7.481   2.221 -0.9048  0.2384 -0.1799
   73MOL0     C 9730   2.345   7.438   2.217  0.8385  0.8393 -0.0466
   73MOL0     C 9731   2.262   7.460   2.351 -0.2143 -0.5630  0.7106
   73MOL0     C 9732   2.115   7.412   2.335 -1.1129 -0.2248  1.2099
   73MOL0     C 9733   2.041   7.465   2.455  0.7305  0.1316 -0.2911
   73MOL0     C 9734   1.911   7.538   2.411  0.0045 -0.9437  0.6659
   73MOL0     C 9735   1.941   7.689   2.398 -0.6546  0.9863 -0.1354
   73MOL0     C 9736   1.931   7.761   2.539 -0.2247 -0.3588  0.3951
   73MOL0     N 9737   1.794   7.781   2.585  0.3974 -0.4193 -0.2503
   73MOL0     C 9738   1.731   7.722   2.694 -0.4088  0.4741 -0.2443
   73MOL0     C 9739   1.604   7.776   2.708 -0.1252 -0.2054 -0.9788
   73MOL0     C 9740   1.520   7.737   2.824 -0.1729 -0.3781  0.2591
   73MOL0     C 9741   1.378   7.693   2.788  0.7403  0.7700  0.5113
   73MOL0     C 9742   1.299   7.810   2.729 -0.0503 -0.5641  0.3605
   73MOL0     C 9743   1.153   7.784   2.736  0.2115 -1.0755  1.0159
   73MOL0     O 9744   1.094   7.913   2.691 -0.0997  0.1622 -0.6914
   73MOL0     C 9745   0.954   7.922   2.684 -0.0729 -0.2922 -1.3850
   73MOL0     C 9746   0.869   7.826   2.719  0.2134  0.3062 -0.2296
   73MOL0     C 9747   0.725   7.849   2.714 -0.3321  0.5482  0.1021
   73MOL0     C 9748   0.640   7.720   2.725 -0.1613 -1.2088 -0.3902
   73MOL0     C 9749   0.667   7.978   2.691 -0.2595  0.3257  0.7598
   73MOL0     C 9750   0.522   8.009   2.689 -0.5761  0.5461 -0.3320
   73MOL0     O 9751   0.427   7.905   2.672  0.8937 -1.0938 -0.1333
   73MOL0     C 9752   0.302   7.943   2.701  1.3034  0.1828  0.4856
   73MOL0     C 9753   0.257   7.960   2.830 -0.1225  0.0276  0.7245
   73MOL0     C 9754   0.122   8.004   2.842  0.3182  0.3765 -0.2066
   73MOL0     C 9755   0.026   8.024   2.739 -0.9269  0.1913  0.3577
   73MOL0     O 9756  -0.106   8.044   2.751 -0.0595 -0.1455 -0.0040
   73MOL0     C 9757  -0.150   8.102   2.873 -1.2684 -0.6501 -0.4364
   73MOL0     C 9758  -0.280   8.168   2.833  0.1349 -0.3759 -0.6864
   73MOL0     C 9759  -0.334   8.261   2.944  0.8235  0.0394  0.3752
   73MOL0     C 9760  -0.466   8.325   2.909 -0.5776  0.2959 -0.3413
   73MOL0     C 9761  -0.543   8.395   3.030  0.1040 -0.6937  0.9540
   73MOL0     C 9762  -0.686   8.395   2.996  0.7840  0.6517  1.0262
   73MOL0     C 9763  -0.774   8.470   3.093 -0.3833 -0.3948 -0.5051
   73MOL0     C 9764  -0.919   8.428   3.075  0.0836 -0.4264 -0.7533
   73MOL0    Cl 9765  -1.021   8.466   3.211  0.4898 -0.0884  0.1848
   73MOL0     C 9766   0.076   7.983   2.617 -0.0454 -0.2369  0.7942
   73MOL0     C 9767   0.206   7.947   2.594  0.6202  0.0651 -1.2779
   73MOL0     O 9768   0.496   8.128   2.692  0.5747 -0.4797  0.5105
   73MOL0     C 9769   0.765   8.076   2.658 -0.3978 -0.0870  0.0793
   73MOL0     C 9770   0.909   8.056   2.657 -0.1178 -0.5412 -0.4348
   73MOL0     N 9771   1.587   7.873   2.610  0.1690  0.4857  0.1115
   73MOL0     N 9772   1.694   7.865   2.534  0.6687  0.2536  0.2367
   73MOL0     C 9773   2.804   7.333   2.100  0.8722  0.1435  0.2886
   73MOL0     C 9774   2.943   7.358   2.092  0.0370 -0.9148  0.4378
   73MOL0     C 9775   3.371   7.462   2.138  0.0687 -0.1639  0.2932
   73MOL0     C 9776   3.402   7.585   2.080  0.8538  0.5421  0.4213
   73MOL0     C 9777   3.534   7.629   2.082 -0.3791  0.8590  0.3181
   73MOL0     C 9778   3.644   7.548   2.118  0.4302 -0.7896 -0.3142
   73MOL0     O 9779   3.775   7.579   2.114 -0.4141  0.7147  0.4343
   73MOL0     C 9780   3.814   7.660   1.996 -0.3944  0.7786  0.3181
   73MOL0     C 9781   3.959   7.665   1.976  0.6695  0.7238  0.5389
   73MOL0     C 9782   4.030   7.723   2.093  0.6616  0.4689  0.2222
   73MOL0     C 9783   3.991   7.871   2.136 -0.1219 -0.0931 -0.1269
   73MOL0     C 9784   4.050   7.907   2.262 -0.6286  0.8475 -0.3534
   73MOL0     C 9785   4.107   7.913   2.372  0.7393  0.2833 -0.5929
   73MOL0     C 9786   3.608   7.414   2.157  0.2759  0.0257 -0.0355
   73MOL0     C 9787   3.479   7.375   2.173  0.3775 -0.8213 -0.1524
   73MOL0     H 9788   2.950   7.674   2.206  1.6834 -1.0227 -0.3243
   73MOL0     H 9789   2.705   7.644   2.224 -0.7627 -0.3413  0.7138
   73MOL0     H 9790   2.525   7.447   2.318  2.2569  0.4398 -1.1527
   73MOL0     H 9791   2.483   7.590   2.222  1.0785  0.3883  1.0289
   73MOL0     H 9792   2.289   7.481   2.133  0.2359 -0.0004 -0.0955
   73MOL0     H 9793   2.354   7.330   2.198 -0.7031  0.7159 -0.2502
   73MOL0     H 9794   2.315   7.404   2.428  0.6796  0.2597  0.7105
   73MOL0     H 9795   2.267   7.568   2.368  1.1379 -0.9753  3.4650
   73MOL0     H 9796   2.086   7.455   2.239  2.4461  1.4870  0.7181
   73MOL0     H 9797   2.101   7.305   2.318 -0.0665 -0.2511  0.4051
   73MOL0     H 9798   2.001   7.377   2.507 -0.9300  1.5038  0.8727
   73MOL0     H 9799   2.101   7.517   2.530  0.9468  0.6356 -0.8109
   73MOL0     H 9800   1.873   7.506   2.313  1.4649 -3.3440  0.8106
   73MOL0     H 9801   1.830   7.538   2.484 -0.7133  1.0023 -0.0550
   73MOL0     H 9802   2.045   7.698   2.365  0.3909 -2.0014  2.0064
   73MOL0     H 9803   1.875   7.738   2.325 -1.1060  2.2844  1.0788
   73MOL0     H 9804   1.972   7.862   2.530 -0.5456 -0.2968 -0.4578
   73MOL0     H 9805   1.996   7.711   2.611 -0.4053 -1.1123  0.0483
   73MOL0     H 9806   1.769   7.646   2.761 -2.1995  0.4008  0.7468
   73MOL0     H 9807   1.564   7.655   2.882  3.0299  0.7725 -0.3521
   73MOL0     H 9808   1.524   7.809   2.906  2.0970  0.3789 -0.4482
   73MOL0     H 9809   1.316   7.654   2.870 -3.5941 -0.4016 -2.9513
   73MOL0     H 9810   1.378   7.607   2.721  1.1026  1.5851 -0.5546
   73MOL0     H 9811   1.319   7.824   2.623 -1.3557  0.5983  0.2385
   73MOL0     H 9812   1.308   7.907   2.780  0.5595 -0.8353  0.7867
   73MOL0     H 9813   1.111   7.765   2.834 -0.3359  0.8580  1.2096
   73MOL0     H 9814   1.134   7.704   2.664  0.0564  1.9733 -2.6920
   73MOL0     H 9815   0.911   7.732   2.754 -0.4418  1.0996  3.0685
   73MOL0     H 9816   0.707   7.634   2.737 -2.2782 -2.5720  3.0498
   73MOL0     H 9817   0.582   7.729   2.818  1.5180  0.0107  0.6153
   73MOL0     H 9818   0.578   7.701   2.637 -0.0862 -0.6194 -0.5736
   73MOL0     H 9819   0.320   7.941   2.916 -0.8580 -2.8946  0.7249
   73MOL0     H 9820   0.083   8.000   2.943  0.8759  0.3244  0.0072
   73MOL0     H 9821  -0.171   8.023   2.946 -2.9357 -0.3233 -0.5080
   73MOL0     H 9822  -0.070   8.170   2.902 -0.5424  0.4580 -4.4816
   73MOL0     H 9823  -0.268   8.217   2.736  1.6576  2.0620  0.6281
   73MOL0     H 9824  -0.351   8.085   2.831  0.7482 -1.2363  3.6134
   73MOL0     H 9825  -0.259   8.339   2.959  0.1686  0.8199 -0.3279
   73MOL0     H 9826  -0.350   8.201   3.034 -2.9036 -0.7847 -0.6635
   73MOL0     H 9827  -0.462   8.398   2.827 -0.6808  3.2812  2.0917
   73MOL0     H 9828  -0.531   8.244   2.875  0.8007 -2.3801  2.8032
   73MOL0     H 9829  -0.504   8.497   3.041  0.8273 -1.0083  1.3691
   73MOL0     H 9830  -0.527   8.339   3.122 -0.7818 -3.9677 -0.7477
   73MOL0     H 9831  -0.704   8.438   2.897 -4.6387 -2.6989  0.1149
   73MOL0     H 9832  -0.728   8.295   2.985  1.1392  0.6515 -0.6186
   73MOL0     H 9833  -0.756   8.575   3.068  0.7921 -0.6491 -0.7838
   73MOL0     H 9834  -0.743   8.444   3.195  1.8333  0.6564 -0.8564
   73MOL0     H 9835  -0.925   8.321   3.053 -0.6667  0.0928 -3.5890
   73MOL0     H 9836  -0.952   8.484   2.987 -1.6205 -1.5334 -0.8633
   73MOL0     H 9837   0.016   7.974   2.527  3.3790  0.2544 -1.7450
   73MOL0     H 9838   0.222   7.920   2.490 -1.7495  2.6588 -2.4481
   73MOL0     H 9839   0.721   8.171   2.631  0.1930  1.7546  4.6333
   73MOL0     H 9840   0.987   8.125   2.627 -0.7455  1.2854  1.8850
   73MOL0     H 9841   2.758   7.239   2.070  1.8470 -1.0505  2.3431
   73MOL0     H 9842   3.017   7.288   2.055 -0.3971  0.9415 -4.6795
   73MOL0     H 9843   3.326   7.657   2.054 -1.1612 -1.9804 -1.1555
   73MOL0     H 9844   3.552   7.727   2.039  1.0532 -0.3754 -2.1013
   73MOL0     H 9845   3.776   7.609   1.907  1.6819  2.1121 -1.3982
   73MOL0     H 9846   3.775   7.762   1.993 -0.1709  0.8565 -2.8981
   73MOL0     H 9847   3.987   7.729   1.892  0.0094  3.0332  1.9863
   73MOL0     H 9848   3.994   7.564   1.952 -2.5314 -0.8053  1.7420
   73MOL0     H 9849   4.138   7.728   2.075  0.8184 -1.9670  0.2522
   73MOL0     H 9850   4.009   7.648   2.169  0.3365  0.2021 -0.1270
   73MOL0     H 9851   3.883   7.878   2.152  0.1896  3.6089  1.3245
   73MOL0     H 9852   4.027   7.946   2.065  0.5649 -0.9713 -0.7288
   73MOL0     H 9853   4.152   7.918   2.469 -0.9581 -0.5160  0.2811
   73MOL0     H 9854   3.691   7.345   2.171  1.3344  1.2269 -0.2068
   73MOL0     H 9855   3.459   7.274   2.208  2.1718 -1.0417  0.3219
   74MOL0     O 9856   7.998  10.341   9.735  0.4015 -0.3095 -0.7385
   74MOL0     C 9857   8.061  10.417   9.807 -0.0310 -0.3742 -0.6558
   74MOL0     O 9858   8.015  10.487   9.918  0.1870 -0.5399 -0.5377
   74MOL0     C 9859   7.882  10.499   9.945  0.1024  1.8604  0.7128
   74MOL0     C 9860   7.843  10.501  10.084  0.6317 -0.2869 -0.9569
   74MOL0     C 9861   7.712  10.498  10.123  0.8490 -0.0739  0.3781
   74MOL0     C 9862   7.616  10.519  10.021 -0.2337  0.4113  0.3463
   74MOL0     O 9863   7.475  10.521  10.046 -0.0177 -0.2828  0.3768
   74MOL0     C 9864   7.439  10.534  10.185  0.8000 -0.8136 -0.1961
   74MOL0     C 9865   7.286  10.547  10.197  0.0922  0.2897 -0.9157
   74MOL0     C 9866   7.221  10.433  10.117  0.7338 -0.7533 -0.3177
   74MOL0     C 9867   7.078  10.430  10.156  0.2578  0.1995  0.1147
   74MOL0     C 9868   6.989  10.346  10.074 -0.0147  0.9149 -0.4275
   74MOL0     C 9869   6.950  10.413   9.938 -0.3331 -0.6438  0.2642
   74MOL0     C 9870   6.873  10.331   9.845 -0.4113  0.9778 -0.0581
   74MOL0     C 9871   6.720  10.323   9.897  0.2039 -0.2529  0.0744
   74MOL0     N 9872   6.622  10.248   9.810 -0.4028 -0.0026  0.6541
   74MOL0     C 9873   6.532  10.308   9.720  0.0591  1.3737  0.0520
   74MOL0     C 9874   6.477  10.208   9.647 -0.4706  0.7492  0.4327
   74MOL0     C 9875   6.370  10.226   9.549  0.1626  0.6926  0.2173
   74MOL0     C 9876   6.244  10.201   9.636  0.2844  0.2408  0.0161
   74MOL0     C 9877   6.141  10.281   9.556 -0.0090 -0.4252 -0.0985
   74MOL0     C 9878   6.013  10.308   9.642 -0.1436  0.8419  0.2869
   74MOL0     O 9879   5.925  10.393   9.567 -0.9918  0.1257  0.4330
   74MOL0     C 9880   5.791  10.378   9.592 -0.4258  0.6165 -0.4911
   74MOL0     C 9881   5.702  10.428   9.492  0.2854 -0.3888 -0.6895
   74MOL0     C 9882   5.562  10.418   9.504 -0.1173 -0.2480 -0.7140
   74MOL0     C 9883   5.471  10.493   9.400  0.4909 -0.4823 -0.0178
   74MOL0     C 9884   5.503  10.361   9.620 -0.7013 -0.1241 -0.2383
   74MOL0     C 9885   5.358  10.346   9.647  0.2981 -0.3633  0.1790
   74MOL0     O 9886   5.329  10.279   9.758  0.4615  0.1746  0.5087
   74MOL0     C 9887   5.207  10.241   9.782 -0.2800  0.5571 -0.0603
   74MOL0     C 9888   5.117  10.301   9.869  0.0662  0.9736  0.3591
   74MOL0     C 9889   4.990  10.251   9.879 -0.3806 -0.5039 -0.5722
   74MOL0     C 9890   4.943  10.142   9.806  0.8074  0.1551  0.6998
   74MOL0     O 9891   4.814  10.092   9.795 -0.0825  0.2563 -0.2143
   74MOL0     C 9892   4.706  10.174   9.832 -0.0113  0.4097  0.1319
   74MOL0     C 9893   4.586  10.082   9.847 -0.1241  0.1933  0.3426
   74MOL0     C 9894   4.476  10.158   9.916 -0.4718  0.6663  0.5689
   74MOL0     C 9895   4.359  10.064   9.919  0.5281 -0.1492 -0.7165
   74MOL0     C 9896   4.240  10.121  10.003  1.3537 -0.0269  0.1060
   74MOL0     C 9897   4.134  10.016  10.034  0.4564 -0.4321 -0.1299
   74MOL0     C 9898   4.025  10.073  10.124  0.0791  0.3876 -0.2730
   74MOL0     C 9899   3.911   9.980  10.149 -0.4304  0.4070  0.7154
   74MOL0    Cl 9900   3.860   9.877  10.012  0.4216 -0.0467 -0.1208
   74MOL0     C 9901   5.031  10.087   9.723 -1.2484  0.0771  0.1450
   74MOL0     C 9902   5.163  10.125   9.710  0.0787  0.6182  0.0290
   74MOL0     O 9903   5.275  10.414   9.593  0.1296 -0.2665 -0.3684
   74MOL0     C 9904   5.589  10.308   9.721  0.3774  0.1767  0.3121
   74MOL0     C 9905   5.730  10.327   9.709 -0.8508 -0.2539 -0.1093
   74MOL0     N 9906   6.539  10.088   9.697  0.2334  0.7587 -0.3089
   74MOL0     N 9907   6.621  10.116   9.788 -0.2157  0.2466  0.7248
   74MOL0     C 9908   7.660  10.514   9.890  0.6559 -0.3546  1.1258
   74MOL0     C 9909   7.784  10.506   9.840  0.1315 -1.1616 -0.5300
   74MOL0     C 9910   8.209  10.406   9.801  0.2531  0.5480 -0.2387
   74MOL0     C 9911   8.270  10.291   9.734  0.3666  0.3646  0.5064
   74MOL0     C 9912   8.405  10.282   9.731 -0.5174 -0.0832  0.1240
   74MOL0     C 9913   8.482  10.380   9.800  0.0366  0.1379 -0.2922
   74MOL0     O 9914   8.626  10.380   9.797  0.5952 -0.2910  0.7340
   74MOL0     C 9915   8.691  10.313   9.691 -0.2530 -0.2888  1.1058
   74MOL0     C 9916   8.846  10.350   9.686 -0.1627 -0.3178  0.4182
   74MOL0     C 9917   8.945  10.282   9.779  0.3305  0.8887 -0.2851
   74MOL0     C 9918   9.085  10.275   9.719 -0.5840 -0.0032 -0.3138
   74MOL0     C 9919   9.162  10.210   9.823 -0.2890 -0.4889  1.0558
   74MOL0     C 9920   9.215  10.146   9.912 -0.7602 -0.9990 -0.0115
   74MOL0     C 9921   8.422  10.491   9.855  0.4202 -0.1720  0.6877
   74MOL0     C 9922   8.287  10.497   9.861  0.1895 -0.6753  0.5284
   74MOL0     H 9923   7.924  10.494  10.155  1.2486 -2.3921 -1.7723
   74MOL0     H 9924   7.696  10.495  10.230  5.5554  2.5414  1.4434
   74MOL0     H 9925   7.465  10.444  10.243 -1.6605 -3.3295 -2.7012
   74MOL0     H 9926   7.481  10.619  10.240 -0.2482  0.2696 -1.0285
   74MOL0     H 9927   7.247  10.540  10.299  1.5243 -2.5153 -0.4447
   74MOL0     H 9928   7.277  10.645  10.149  0.2541  1.3081  1.0164
   74MOL0     H 9929   7.235  10.457  10.011  2.8563  0.9180  0.2709
   74MOL0     H 9930   7.278  10.344  10.141 -0.2769 -0.7313  2.4870
   74MOL0     H 9931   7.077  10.375  10.251 -0.3258  0.1340  0.0751
   74MOL0     H 9932   7.038  10.532  10.162  0.8199  0.3913  0.8558
   74MOL0     H 9933   7.029  10.247  10.051  0.0921  1.2456 -1.8053
   74MOL0     H 9934   6.898  10.336  10.134  0.5986 -1.8037  0.1848
   74MOL0     H 9935   6.903  10.510   9.958  0.8888  0.5687 -2.2689
   74MOL0     H 9936   7.041  10.432   9.881 -0.2369 -3.0223 -0.4774
   74MOL0     H 9937   6.870  10.385   9.750 -2.8275  0.2438 -0.4693
   74MOL0     H 9938   6.911  10.229   9.837 -0.2948  1.1707 -3.3202
   74MOL0     H 9939   6.684  10.426   9.905  1.4254  0.5826 -3.4785
   74MOL0     H 9940   6.719  10.270   9.993  1.2451 -1.5760 -0.6175
   74MOL0     H 9941   6.503  10.412   9.717  2.0211  1.9467 -0.2722
   74MOL0     H 9942   6.383  10.318   9.491 -1.4161  1.2131  0.6474
   74MOL0     H 9943   6.364  10.141   9.481 -2.2540  1.6506 -0.8392
   74MOL0     H 9944   6.253  10.230   9.741 -0.0025 -0.3644  0.2118
   74MOL0     H 9945   6.215  10.097   9.646 -0.1642  0.5413  2.2053
   74MOL0     H 9946   6.109  10.227   9.466 -0.0542  0.3260 -0.5424
   74MOL0     H 9947   6.184  10.380   9.540  2.1438 -0.5847  3.5653
   74MOL0     H 9948   6.050  10.362   9.729 -0.3292  0.4704  0.5944
   74MOL0     H 9949   5.960  10.218   9.670 -0.4080  1.4301  1.7328
   74MOL0     H 9950   5.742  10.469   9.399  1.1025  0.2390 -0.0729
   74MOL0     H 9951   5.392  10.430   9.357  1.4105  0.6164 -3.6664
   74MOL0     H 9952   5.426  10.588   9.430  0.9563 -0.3299  0.2203
   74MOL0     H 9953   5.539  10.527   9.321 -1.0803  2.0091 -0.3841
   74MOL0     H 9954   5.147  10.391   9.922  1.6673  0.5805  0.1765
   74MOL0     H 9955   4.928  10.312   9.944  2.1492 -0.5518  2.0821
   74MOL0     H 9956   4.734  10.218   9.928  1.3711 -0.9698  0.4012
   74MOL0     H 9957   4.680  10.244   9.752  1.3914  3.8337  2.4653
   74MOL0     H 9958   4.555  10.044   9.749 -2.4604 -0.7786  1.3947
   74MOL0     H 9959   4.614   9.998   9.911  3.0572  1.4727  0.7928
   74MOL0     H 9960   4.449  10.250   9.862  1.4477  2.4925  2.5531
   74MOL0     H 9961   4.503  10.184  10.019 -1.7650 -1.3466  1.4903
   74MOL0     H 9962   4.340  10.045   9.813  1.2584 -1.2554 -0.6704
   74MOL0     H 9963   4.384   9.961   9.946  0.4748  0.2558  1.0239
   74MOL0     H 9964   4.198  10.215   9.966 -1.4486 -1.1825  0.0898
   74MOL0     H 9965   4.283  10.151  10.099  1.4870  1.8443 -0.5023
   74MOL0     H 9966   4.078  10.000   9.941 -1.5717  1.7253  0.6250
   74MOL0     H 9967   4.176   9.931  10.088  0.7784 -0.0014  0.2935
   74MOL0     H 9968   3.989  10.170  10.086  1.0415  0.5712 -0.7562
   74MOL0     H 9969   4.062  10.108  10.221  3.4294  0.4754 -1.4359
   74MOL0     H 9970   3.825  10.034  10.190 -0.7948  0.5327 -0.1923
   74MOL0     H 9971   3.948   9.912  10.226  0.8795  1.9533  1.5261
   74MOL0     H 9972   4.991  10.012   9.656  0.3234 -2.0065  1.4046
   74MOL0     H 9973   5.225  10.063   9.645  1.6419  3.3506 -1.2668
   74MOL0     H 9974   5.554  10.260   9.811  1.1027 -3.1521 -1.0035
   74MOL0     H 9975   5.793  10.294   9.791  0.5033  1.5868 -0.3325
   74MOL0     H 9976   7.576  10.514   9.821  2.7795 -5.7466 -2.0838
   74MOL0     H 9977   7.807  10.506   9.734 -2.7100  1.2907 -1.2932
   74MOL0     H 9978   8.214  10.207   9.692 -0.5569  1.2911 -0.1519
   74MOL0     H 9979   8.461  10.211   9.671  0.1185  1.2564 -0.9287
   74MOL0     H 9980   8.677  10.205   9.690  1.9813 -0.6261  0.6468
   74MOL0     H 9981   8.639  10.343   9.600 -0.6638  0.8339  1.6836
   74MOL0     H 9982   8.862  10.453   9.719 -2.9911  0.7854 -1.3300
   74MOL0     H 9983   8.883  10.337   9.583 -0.2056 -1.2177  0.5077
   74MOL0     H 9984   8.906  10.183   9.805  0.4511  0.6509 -0.9960
   74MOL0     H 9985   8.944  10.337   9.873  1.4876 -0.0045  0.2845
   74MOL0     H 9986   9.126  10.374   9.698  0.2568 -0.7190 -2.2429
   74MOL0     H 9987   9.093  10.216   9.628 -0.8487 -1.2859  0.4702
   74MOL0     H 9988   9.244  10.077   9.988 -0.6127  0.0165  0.8866
   74MOL0     H 9989   8.494  10.563   9.894 -0.0849 -0.7965  2.9631
   74MOL0     H 9990   8.236  10.579   9.910  0.0471  0.7017 -1.7831
   75MOL0     O 9991   1.132   3.527   4.423  0.4563  0.0795 -0.1372
   75MOL0     C 9992   1.206   3.462   4.349 -0.1025  0.1744 -0.0850
   75MOL0     O 9993   1.161   3.380   4.254  0.1406  0.5965  0.5055
   75MOL0     C 9994   1.040   3.324   4.257  0.2207 -0.2488  0.0897
   75MOL0     C 9995   0.981   3.282   4.374 -0.6782  0.3128 -0.2666
   75MOL0     C 9996   0.855   3.219   4.366  0.3861  0.3657 -0.2191
   75MOL0     C 9997   0.787   3.211   4.239 -0.6462 -0.6198  0.2125
   75MOL0     O 9998   0.672   3.139   4.243 -0.3384 -0.1039 -0.0676
   75MOL0     C 9999   0.603   3.123   4.119  0.9561  0.8417 -0.3651
   75MOL0     C10000   0.477   3.039   4.137 -0.7437  0.5844 -0.6277
   75MOL0     C10001   0.433   2.956   4.011  0.3650 -0.5668  0.0289
   75MOL0     C10002   0.323   2.864   4.050 -0.2514  0.2215 -0.4735
   75MOL0     C10003   0.254   2.787   3.940  0.0068  0.2669  0.6514
   75MOL0     C10004   0.145   2.689   3.990  0.1298 -0.9428 -0.6870
   75MOL0     C10005   0.103   2.585   3.891  0.4252  0.1695 -0.3431
   75MOL0     C10006   0.155   2.443   3.919  0.0906 -0.3974 -0.6576
   75MOL0     N10007   0.108   2.399   4.054 -0.9967 -0.7055  0.2626
   75MOL0     C10008  -0.021   2.361   4.076  0.2734  0.2186  0.0660
   75MOL0     C10009  -0.032   2.348   4.213  0.4125  0.4917 -0.2071
   75MOL0     C10010  -0.170   2.334   4.292 -0.3369 -0.0144 -0.1094
   75MOL0     C10011  -0.272   2.450   4.269  0.0712  0.5139  0.5742
   75MOL0     C10012  -0.215   2.585   4.281 -0.8568  0.3479 -1.4991
   75MOL0     C10013  -0.311   2.704   4.268 -0.7595 -0.1729  0.1944
   75MOL0     O10014  -0.367   2.710   4.135 -0.2433 -0.4214 -0.2184
   75MOL0     C10015  -0.505   2.709   4.103 -0.5954  0.4396 -0.1619
   75MOL0     C10016  -0.538   2.727   3.970  0.4587 -1.3476  0.6133
   75MOL0     C10017  -0.674   2.720   3.928 -0.3956  0.1352 -1.1767
   75MOL0     C10018  -0.693   2.736   3.774 -0.3147 -0.1531 -0.1316
   75MOL0     C10019  -0.778   2.689   4.027 -0.1529  0.2684  0.2548
   75MOL0     C10020  -0.928   2.685   3.999 -0.3267  0.6225 -1.0791
   75MOL0     O10021  -1.009   2.652   4.109 -0.4823 -0.4160  0.0096
   75MOL0     C10022  -1.147   2.667   4.115 -0.7516 -0.6936  0.3252
   75MOL0     C10023  -1.201   2.603   4.223  0.0155  0.1277  1.1155
   75MOL0     C10024  -1.340   2.585   4.232 -0.5012  0.0503  0.4586
   75MOL0     C10025  -1.427   2.641   4.133  0.5581 -0.0010  0.1632
   75MOL0     O10026  -1.559   2.634   4.158  0.5338  0.2139 -0.2592
   75MOL0     C10027  -1.647   2.728   4.095 -0.0594 -1.1071  0.3160
   75MOL0     C10028  -1.786   2.730   4.160 -0.0315  0.1607 -0.2360
   75MOL0     C10029  -1.880   2.819   4.077 -0.1752  0.7061 -0.3379
   75MOL0     C10030  -1.998   2.850   4.161  0.6061 -0.6433  0.6363
   75MOL0     C10031  -2.117   2.923   4.085  0.6047  0.3868 -0.2760
   75MOL0     C10032  -2.215   2.825   4.039  0.2031  0.5672 -0.7596
   75MOL0     C10033  -2.326   2.907   3.980  0.0328  0.3050  0.4870
   75MOL0     C10034  -2.443   2.836   3.916 -0.3575 -0.0813  0.3711
   75MOL0    Cl10035  -2.400   2.772   3.757 -0.3045 -0.2600 -0.1956
   75MOL0     C10036  -1.371   2.702   4.019  0.0209 -1.0808 -0.1991
   75MOL0     C10037  -1.230   2.720   4.016  1.0325 -0.1773 -0.1465
   75MOL0     O10038  -0.967   2.695   3.889 -0.0585  0.0235  0.0302
   75MOL0     C10039  -0.737   2.673   4.161 -0.5595  0.2919 -0.9520
   75MOL0     C10040  -0.604   2.667   4.195 -0.8165 -0.4515  0.8888
   75MOL0     N10041   0.088   2.379   4.266 -0.3857 -0.3568 -0.1693
   75MOL0     N10042   0.182   2.391   4.169  1.1829 -0.4094 -0.1605
   75MOL0     C10043   0.845   3.265   4.119 -0.7647  0.2918  0.5879
   75MOL0     C10044   0.976   3.316   4.134 -0.2026  0.5237  0.7621
   75MOL0     C10045   1.347   3.450   4.393 -0.2788 -1.5110 -0.0343
   75MOL0     C10046   1.428   3.362   4.327  0.4323  0.2595 -0.6142
   75MOL0     C10047   1.567   3.350   4.357 -0.6999  0.9040  0.1895
   75MOL0     C10048   1.620   3.437   4.456 -0.4587  0.4299  0.5826
   75MOL0     O10049   1.760   3.419   4.482  0.1421 -0.3002  0.4905
   75MOL0     C10050   1.828   3.503   4.568 -0.1938  0.2416 -0.1024
   75MOL0     C10051   1.980   3.499   4.541  0.4328  0.2991 -0.5477
   75MOL0     C10052   2.046   3.582   4.654 -0.3788  0.5008 -0.1210
   75MOL0     C10053   2.202   3.613   4.630  0.5875  0.2366  0.5976
   75MOL0     C10054   2.286   3.496   4.590  0.0183 -0.5747 -0.1883
   75MOL0     C10055   2.358   3.414   4.540 -0.5434 -0.8180  0.5022
   75MOL0     C10056   1.541   3.519   4.525  0.1170  0.3260 -0.0050
   75MOL0     C10057   1.403   3.537   4.496  1.1847 -0.0405 -0.0319
   75MOL0     H10058   1.041   3.278   4.464  0.0339  0.7999 -0.7070
   75MOL0     H10059   0.807   3.161   4.444  1.8573  0.5409  0.8585
   75MOL0     H10060   0.573   3.220   4.078  1.0721  1.5238  1.1289
   75MOL0     H10061   0.671   3.066   4.056 -0.1436 -1.4510  0.4141
   75MOL0     H10062   0.512   2.965   4.209 -0.0096 -0.2181 -1.7790
   75MOL0     H10063   0.401   3.101   4.185  0.8276  1.0633  1.3541
   75MOL0     H10064   0.378   3.024   3.946 -1.6150 -0.3445  1.8140
   75MOL0     H10065   0.518   2.911   3.960 -0.4490 -1.0173 -0.9539
   75MOL0     H10066   0.370   2.807   4.130  0.2868  3.4000  1.6783
   75MOL0     H10067   0.247   2.927   4.097  1.3384 -0.0211  2.6646
   75MOL0     H10068   0.222   2.843   3.852 -1.7255 -2.1709 -0.3792
   75MOL0     H10069   0.337   2.726   3.904  0.3825  1.4050 -0.4766
   75MOL0     H10070   0.166   2.643   4.087  0.8412  0.2530 -0.2521
   75MOL0     H10071   0.059   2.751   4.015 -0.7964 -1.4602 -2.4525
   75MOL0     H10072  -0.006   2.585   3.881 -0.0673 -0.4529  3.4911
   75MOL0     H10073   0.132   2.613   3.790 -1.9432 -0.0934 -1.1606
   75MOL0     H10074   0.262   2.425   3.911  0.2198 -1.4880  2.0855
   75MOL0     H10075   0.104   2.381   3.845 -3.3705  1.7726 -0.3087
   75MOL0     H10076  -0.103   2.338   4.009  0.1254 -1.1145  0.6711
   75MOL0     H10077  -0.214   2.236   4.271  1.1568 -0.1212 -3.3990
   75MOL0     H10078  -0.139   2.345   4.396  2.3430 -0.4231 -0.7720
   75MOL0     H10079  -0.355   2.452   4.340 -0.3736  2.2706  0.0597
   75MOL0     H10080  -0.310   2.437   4.167  1.3735  1.7462 -0.1007
   75MOL0     H10081  -0.131   2.599   4.211 -1.9629  2.5103 -2.4735
   75MOL0     H10082  -0.169   2.588   4.380  0.9938 -3.4998 -2.0216
   75MOL0     H10083  -0.255   2.796   4.286 -1.7775  1.0035 -2.1669
   75MOL0     H10084  -0.391   2.687   4.341  0.3653  2.5017  2.2426
   75MOL0     H10085  -0.463   2.760   3.898 -1.8759 -1.1249 -1.8989
   75MOL0     H10086  -0.606   2.783   3.728 -1.2303  1.7506 -0.0395
   75MOL0     H10087  -0.707   2.634   3.737 -1.5797 -0.0660  0.0494
   75MOL0     H10088  -0.783   2.798   3.760 -0.8869 -0.8691  0.2948
   75MOL0     H10089  -1.136   2.556   4.296 -2.3970 -3.6700  1.0770
   75MOL0     H10090  -1.385   2.543   4.321  0.8719  0.9132  1.5991
   75MOL0     H10091  -1.608   2.828   4.117  0.6477 -1.7760  2.2695
   75MOL0     H10092  -1.653   2.715   3.987  0.9822  2.0774 -0.2357
   75MOL0     H10093  -1.825   2.628   4.175  2.8342 -0.8797  0.8405
   75MOL0     H10094  -1.787   2.779   4.257 -3.1239  0.1345 -0.1488
   75MOL0     H10095  -1.919   2.770   3.986 -1.0828  0.4179  0.1903
   75MOL0     H10096  -1.835   2.910   4.037 -1.2526  0.2396 -2.8432
   75MOL0     H10097  -2.028   2.773   4.233  0.6663  0.1507  1.5290
   75MOL0     H10098  -1.963   2.936   4.219 -1.0605  0.2685  0.3452
   75MOL0     H10099  -2.081   2.983   4.001 -0.6815  0.0517 -1.0919
   75MOL0     H10100  -2.173   2.988   4.152 -0.8357  0.2129 -1.2556
   75MOL0     H10101  -2.165   2.768   3.960  4.0615 -0.0927  1.8668
   75MOL0     H10102  -2.237   2.762   4.126  2.4656  2.6205  1.4958
   75MOL0     H10103  -2.291   2.967   3.895 -0.0681 -0.6099 -0.2115
   75MOL0     H10104  -2.365   2.974   4.058  0.4257  1.4551 -0.2719
   75MOL0     H10105  -2.514   2.916   3.895  0.5060  0.2537 -1.5313
   75MOL0     H10106  -2.488   2.757   3.976 -2.9558  1.2193  0.3001
   75MOL0     H10107  -1.430   2.761   3.948 -2.5840 -1.8598  1.1670
   75MOL0     H10108  -1.191   2.781   3.935  2.0417  0.2962  0.6695
   75MOL0     H10109  -0.811   2.644   4.234 -1.3536  0.5133 -1.6485
   75MOL0     H10110  -0.575   2.653   4.298  2.7020  3.6890  0.7245
   75MOL0     H10111   0.798   3.249   4.023 -0.1763 -0.3203  0.3980
   75MOL0     H10112   1.031   3.344   4.045  2.0033 -0.0440  1.8737
   75MOL0     H10113   1.386   3.296   4.252  2.0488  1.9277 -3.1480
   75MOL0     H10114   1.635   3.283   4.306 -3.2542 -0.4288 -1.7002
   75MOL0     H10115   1.798   3.606   4.545  3.2973  1.3453 -0.3203
   75MOL0     H10116   1.808   3.480   4.673  0.9861  0.7311  0.2499
   75MOL0     H10117   2.012   3.534   4.442  1.7297 -0.7659 -0.5407
   75MOL0     H10118   2.023   3.398   4.548  1.3235  0.6057 -1.4424
   75MOL0     H10119   2.040   3.525   4.747 -2.0827 -1.3913 -1.2871
   75MOL0     H10120   1.997   3.679   4.665  0.6870  1.0267  0.1036
   75MOL0     H10121   2.240   3.666   4.718 -0.5722  0.3515  1.0381
   75MOL0     H10122   2.203   3.684   4.547  0.3332 -0.5688 -0.1169
   75MOL0     H10123   2.413   3.338   4.488  0.4714  1.3556 -1.7772
   75MOL0     H10124   1.572   3.583   4.607  1.0076 -0.0595 -0.0326
   75MOL0     H10125   1.354   3.598   4.572  1.4707 -3.1886  2.9577
   76MOL0     O10126   0.685  10.220   4.661  0.1054 -1.0008 -0.3994
   76MOL0     C10127   0.733  10.338   4.681  0.2487  0.8956 -0.2117
   76MOL0     O10128   0.666  10.446   4.726 -0.3618  0.0507 -0.5557
   76MOL0     C10129   0.536  10.436   4.767 -0.3556  0.9290  0.0127
   76MOL0     C10130   0.503  10.343   4.865  0.1615 -0.0203 -0.1350
   76MOL0     C10131   0.377  10.355   4.928  0.1285  0.4239 -0.1638
   76MOL0     C10132   0.268  10.438   4.878 -0.5602  0.6972  0.5213
   76MOL0     O10133   0.141  10.446   4.934  0.3223  0.6491  0.2166
   76MOL0     C10134   0.075  10.309   4.944 -0.5816  0.0093  0.3273
   76MOL0     C10135   0.055  10.272   4.800  0.0200 -0.7959  0.5505
   76MOL0     C10136  -0.076  10.184   4.777 -0.6294 -0.6700 -0.7538
   76MOL0     C10137  -0.070  10.134   4.627 -0.2322 -0.4816 -0.0958
   76MOL0     C10138  -0.173  10.026   4.605 -0.1951  0.6436 -0.3852
   76MOL0     C10139  -0.135   9.926   4.501 -0.5414  0.8949  0.4605
   76MOL0     C10140  -0.242   9.812   4.487  0.2469  0.6637  0.3278
   76MOL0     C10141  -0.184   9.690   4.405 -0.1296 -0.5352 -0.5538
   76MOL0     N10142  -0.157   9.729   4.265  0.3098 -0.7231  0.4499
   76MOL0     C10143  -0.031   9.746   4.224 -0.5336  0.3492 -0.7989
   76MOL0     C10144  -0.039   9.781   4.101 -0.0478 -0.7513 -0.9211
   76MOL0     C10145   0.072   9.784   3.999  0.1410  0.8008  0.0606
   76MOL0     C10146   0.196   9.847   4.069 -0.8375 -0.1823 -0.1317
   76MOL0     C10147   0.279   9.900   3.955  0.1686  0.7407  0.6255
   76MOL0     C10148   0.423   9.949   4.010 -0.8065  0.2730 -0.1164
   76MOL0     O10149   0.538   9.854   3.979 -0.1761  0.0850 -0.5476
   76MOL0     C10150   0.665   9.896   4.008 -0.3497 -0.5251  0.3810
   76MOL0     C10151   0.695   9.993   4.100  0.5353 -0.5579 -0.6328
   76MOL0     C10152   0.821  10.022   4.147  0.5767  0.1126 -0.3477
   76MOL0     C10153   0.820  10.128   4.253  0.1048  0.1591  0.0803
   76MOL0     C10154   0.933   9.969   4.072 -0.0732  0.4817 -0.0892
   76MOL0     C10155   1.083  10.003   4.099 -0.4551 -0.3064 -0.0959
   76MOL0     O10156   1.163   9.924   4.022 -0.0545 -0.1120 -0.3405
   76MOL0     C10157   1.299   9.939   4.021 -0.4252  0.7510 -0.7688
   76MOL0     C10158   1.389   9.886   4.114 -0.2508 -0.3847 -0.0849
   76MOL0     C10159   1.526   9.894   4.097  0.6249 -0.5711 -0.3015
   76MOL0     C10160   1.579   9.962   3.991 -0.0098 -0.2600 -0.2600
   76MOL0     O10161   1.715   9.970   3.983 -0.4108 -0.3429  0.4551
   76MOL0     C10162   1.778  10.063   3.891  0.3054  0.6157  1.1546
   76MOL0     C10163   1.913  10.101   3.948 -0.1843 -0.3200 -0.0033
   76MOL0     C10164   2.001  10.182   3.849 -0.1468 -0.3459 -0.1559
   76MOL0     C10165   2.088  10.285   3.932 -0.0732  0.0876  0.3865
   76MOL0     C10166   2.148  10.400   3.846 -0.4170 -0.2175 -0.1899
   76MOL0     C10167   2.245  10.351   3.734 -0.9667  0.0367  0.0302
   76MOL0     C10168   2.306  10.471   3.658 -0.3221  0.4462 -0.9070
   76MOL0     C10169   2.344  10.455   3.518 -0.9946 -0.7090 -0.8912
   76MOL0    Cl10170   2.442  10.314   3.506 -0.1177  0.0634  0.0703
   76MOL0     C10171   1.483  10.015   3.897  0.4796 -0.5528 -0.3306
   76MOL0     C10172   1.346  10.008   3.912 -0.3363 -0.1645 -0.0005
   76MOL0     O10173   1.117  10.093   4.174 -0.6954  0.2358 -0.4257
   76MOL0     C10174   0.900   9.869   3.972 -1.8069 -0.2039 -0.4553
   76MOL0     C10175   0.767   9.844   3.936  0.0835  0.2399  0.0800
   76MOL0     N10176  -0.172   9.788   4.067  0.4304 -0.0908  0.8252
   76MOL0     N10177  -0.248   9.758   4.165  0.5654 -0.5918 -0.3673
   76MOL0     C10178   0.314  10.522   4.772  0.1529  0.0857  0.5421
   76MOL0     C10179   0.439  10.524   4.715 -0.7393 -0.0678  0.2198
   76MOL0     C10180   0.870  10.352   4.633 -0.0842 -0.7427  0.3203
   76MOL0     C10181   0.934  10.235   4.579 -1.4595  0.5849  0.0939
   76MOL0     C10182   1.050  10.252   4.503 -0.3521  0.2073 -0.2772
   76MOL0     C10183   1.114  10.374   4.489 -0.6989  0.4255 -0.2593
   76MOL0     O10184   1.235  10.402   4.420 -0.1472 -0.1423  0.3977
   76MOL0     C10185   1.335  10.300   4.415 -0.4183  0.5949 -0.0367
   76MOL0     C10186   1.469  10.359   4.358  0.3511 -0.0283 -0.1117
   76MOL0     C10187   1.560  10.257   4.319 -0.9099 -0.1358  0.4616
   76MOL0     C10188   1.707  10.316   4.289  0.5351 -0.3553  0.2675
   76MOL0     C10189   1.737  10.360   4.157 -0.4088  0.6617  0.4983
   76MOL0     C10190   1.733  10.378   4.030  0.2725 -0.3806 -0.2413
   76MOL0     C10191   1.056  10.486   4.547  0.3329  0.3578  0.6108
   76MOL0     C10192   0.937  10.476   4.620  0.8567 -0.3735  0.1973
   76MOL0     H10193   0.582  10.279   4.901 -1.2279 -2.2853 -0.9171
   76MOL0     H10194   0.345  10.293   5.011 -0.1464  1.1771  0.3020
   76MOL0     H10195   0.130  10.230   4.996 -0.0521 -0.2818 -0.6453
   76MOL0     H10196  -0.022  10.319   4.993 -0.8136 -1.4622  0.2205
   76MOL0     H10197   0.048  10.364   4.741  0.3741 -1.1004  0.0243
   76MOL0     H10198   0.135  10.210   4.760 -2.5896 -2.9770 -1.7564
   76MOL0     H10199  -0.086  10.093   4.837 -0.0667 -1.1311 -1.3491
   76MOL0     H10200  -0.159  10.252   4.798 -0.5916 -0.4615 -1.2632
   76MOL0     H10201  -0.093  10.212   4.554 -3.8273 -0.3981  0.9752
   76MOL0     H10202   0.028  10.091   4.603  0.2310  0.2671  0.4296
   76MOL0     H10203  -0.190   9.963   4.693  2.0736 -1.8404 -1.5894
   76MOL0     H10204  -0.273  10.066   4.585  0.3658  2.3057 -0.0260
   76MOL0     H10205  -0.129   9.985   4.409  3.8782 -0.5580 -0.4102
   76MOL0     H10206  -0.038   9.877   4.515  0.7819  2.9746 -0.8200
   76MOL0     H10207  -0.269   9.772   4.585 -2.0609  2.7256  0.6296
   76MOL0     H10208  -0.336   9.849   4.446  0.6740  0.8633 -0.4895
   76MOL0     H10209  -0.264   9.615   4.409 -0.3160 -0.3771 -1.2590
   76MOL0     H10210  -0.101   9.643   4.459 -1.2828 -1.3221  0.6032
   76MOL0     H10211   0.062   9.725   4.276 -0.6899  2.6091  0.5069
   76MOL0     H10212   0.099   9.687   3.956  0.4639  1.3343 -0.9665
   76MOL0     H10213   0.035   9.848   3.919 -1.5052 -1.2720 -0.9354
   76MOL0     H10214   0.247   9.770   4.127  0.4864  0.4253 -0.4469
   76MOL0     H10215   0.163   9.933   4.129 -0.8697  0.7217 -1.4052
   76MOL0     H10216   0.225   9.982   3.908 -0.8588  0.9183  2.0554
   76MOL0     H10217   0.294   9.827   3.875 -3.6876  0.8341 -0.3306
   76MOL0     H10218   0.421   9.946   4.119  1.4297  1.1405  0.0150
   76MOL0     H10219   0.438  10.055   3.988  0.7590  0.2599  0.6969
   76MOL0     H10220   0.607  10.035   4.147  1.1143  2.1838 -1.7551
   76MOL0     H10221   0.822  10.227   4.206 -1.3727 -0.7334 -2.0193
   76MOL0     H10222   0.735  10.126   4.322 -0.7235 -0.1853 -0.9139
   76MOL0     H10223   0.913  10.127   4.310 -0.5689  0.6662  1.2187
   76MOL0     H10224   1.347   9.829   4.197 -0.2825 -1.2355 -0.6744
   76MOL0     H10225   1.588   9.842   4.169 -0.3258  0.5544  1.4289
   76MOL0     H10226   1.802  10.007   3.800  2.7791  1.0689  1.4687
   76MOL0     H10227   1.729  10.160   3.875  3.8855  2.3375 -0.4732
   76MOL0     H10228   1.901  10.153   4.044  1.9426  1.0770 -0.4289
   76MOL0     H10229   1.956  10.002   3.970 -1.4086 -0.6428  1.0624
   76MOL0     H10230   1.946  10.238   3.772  2.8182  2.4092 -0.4609
   76MOL0     H10231   2.062  10.111   3.792 -0.7195  1.2162 -2.9380
   76MOL0     H10232   2.015  10.336   3.996  0.4492  0.2019  0.9052
   76MOL0     H10233   2.165  10.239   3.995  1.0463 -0.0102 -1.0104
   76MOL0     H10234   2.200  10.467   3.915 -2.9261  1.3639  0.2513
   76MOL0     H10235   2.068  10.468   3.816 -0.3327  0.3362  0.7992
   76MOL0     H10236   2.318  10.282   3.776  0.0316  1.2608  0.3506
   76MOL0     H10237   2.195  10.291   3.657 -1.1499 -2.0699  1.6963
   76MOL0     H10238   2.399  10.491   3.713 -0.9855 -2.9030  1.7889
   76MOL0     H10239   2.236  10.554   3.670 -1.6368 -1.0027  3.2345
   76MOL0     H10240   2.402  10.541   3.485  0.2113 -1.3059 -0.3784
   76MOL0     H10241   2.250  10.448   3.462 -1.2438  0.6167 -0.6661
   76MOL0     H10242   1.519  10.068   3.810 -0.8936 -0.6199 -0.9738
   76MOL0     H10243   1.279  10.052   3.838  0.3506  1.4243  0.2835
   76MOL0     H10244   0.987   9.827   3.922  0.2020  1.3209  1.5544
   76MOL0     H10245   0.764   9.778   3.850  3.3558 -1.5686  1.1594
   76MOL0     H10246   0.251  10.597   4.726  1.2848 -0.2603 -1.7707
   76MOL0     H10247   0.464  10.595   4.637  2.1359 -0.7417  0.4087
   76MOL0     H10248   0.891  10.136   4.571  0.5073 -0.3060  0.2176
   76MOL0     H10249   1.103  10.167   4.461 -2.2402  0.0441 -2.5325
   76MOL0     H10250   1.338  10.259   4.517  1.1695 -1.2869 -0.7764
   76MOL0     H10251   1.298  10.220   4.352 -0.1067  0.0705  0.4381
   76MOL0     H10252   1.515  10.409   4.444  1.3804 -1.5468  0.2744
   76MOL0     H10253   1.450  10.422   4.272 -1.1599 -1.9692 -1.3030
   76MOL0     H10254   1.523  10.198   4.234  2.9875 -2.7832  0.3158
   76MOL0     H10255   1.576  10.181   4.396 -1.3595 -2.6064 -1.7303
   76MOL0     H10256   1.776  10.233   4.310  1.2801 -0.3314 -1.8613
   76MOL0     H10257   1.717  10.408   4.347 -1.7082  0.1425 -0.0424
   76MOL0     H10258   1.714  10.397   3.927 -0.9251 -0.0692  0.0189
   76MOL0     H10259   1.112  10.573   4.517  1.5486 -0.4057  0.5777
   76MOL0     H10260   0.890  10.566   4.659  2.2432  1.2641 -1.7103
   77MOL0     O10261   0.631   8.668   7.276  0.1861 -0.1173  0.2468
   77MOL0     C10262   0.663   8.594   7.184 -1.5779 -0.6974  0.3324
   77MOL0     O10263   0.578   8.541   7.086 -0.4618 -0.1855  0.0311
   77MOL0     C10264   0.482   8.624   7.043 -0.8820 -1.0213 -0.0138
   77MOL0     C10265   0.369   8.666   7.112 -0.3036  0.4266  0.7432
   77MOL0     C10266   0.269   8.740   7.057 -0.4837  0.1448  0.7854
   77MOL0     C10267   0.282   8.790   6.923 -0.7276  0.0619  0.0286
   77MOL0     O10268   0.182   8.855   6.862  0.4287 -0.3723  0.3574
   77MOL0     C10269   0.198   8.997   6.856 -0.0981 -0.4187  0.8328
   77MOL0     C10270   0.085   9.061   6.775 -0.0880  0.3232  0.0437
   77MOL0     C10271   0.107   9.016   6.634 -0.2044 -0.0019 -0.5825
   77MOL0     C10272  -0.033   9.029   6.561  0.1855  0.5288 -0.0353
   77MOL0     C10273  -0.036   8.973   6.416  0.1709 -0.0626 -0.2894
   77MOL0     C10274  -0.030   8.824   6.403 -0.4099 -0.0057  0.1786
   77MOL0     C10275  -0.160   8.757   6.427 -0.0841 -0.0665 -0.6563
   77MOL0     C10276  -0.151   8.597   6.403  0.0717  0.5555 -0.2433
   77MOL0     N10277  -0.255   8.528   6.483  0.4277  0.1615 -0.5051
   77MOL0     C10278  -0.370   8.583   6.525 -0.1965  0.3718 -0.8023
   77MOL0     C10279  -0.443   8.485   6.582 -0.2601 -0.6427 -0.2238
   77MOL0     C10280  -0.581   8.503   6.628  1.4377  0.2202 -0.0412
   77MOL0     C10281  -0.669   8.404   6.552 -0.0339  0.7160  0.6793
   77MOL0     C10282  -0.813   8.404   6.606  0.4329  0.0989  0.0575
   77MOL0     C10283  -0.893   8.277   6.555 -0.1655 -0.0131 -0.7815
   77MOL0     O10284  -1.025   8.279   6.598 -0.1883  0.7999  0.2332
   77MOL0     C10285  -1.125   8.200   6.543 -0.6701 -0.1886 -0.3685
   77MOL0     C10286  -1.257   8.224   6.590  0.6235  0.4263 -0.0455
   77MOL0     C10287  -1.363   8.149   6.544  0.3756  0.4362  0.7850
   77MOL0     C10288  -1.494   8.181   6.613 -0.1469 -0.3041  0.1222
   77MOL0     C10289  -1.341   8.054   6.449  0.4130  1.1881  0.7250
   77MOL0     C10290  -1.454   7.984   6.387 -0.5316 -0.4231 -0.8065
   77MOL0     O10291  -1.446   7.856   6.349 -0.4965  0.6917 -0.0172
   77MOL0     C10292  -1.564   7.793   6.298 -0.1389  0.1443 -0.1373
   77MOL0     C10293  -1.692   7.811   6.350  0.4196 -0.1152  0.5058
   77MOL0     C10294  -1.803   7.732   6.298 -1.1255 -0.8589 -1.0164
   77MOL0     C10295  -1.783   7.649   6.195 -0.1286 -0.3885 -0.3333
   77MOL0     O10296  -1.891   7.575   6.161 -0.4261  0.5924 -0.1955
   77MOL0     C10297  -1.864   7.444   6.121  0.0081 -0.2322 -0.0260
   77MOL0     C10298  -1.998   7.375   6.091 -0.1539 -0.0055 -0.2062
   77MOL0     C10299  -1.960   7.241   6.030 -0.2501  0.3092 -0.3173
   77MOL0     C10300  -2.087   7.152   6.008  0.5798 -1.0717 -0.6902
   77MOL0     C10301  -2.070   7.041   5.905  0.4954 -0.1864  0.0155
   77MOL0     C10302  -2.194   6.938   5.918  0.4282 -0.1812  0.3743
   77MOL0     C10303  -2.171   6.803   5.850 -0.5512  0.6265 -0.3246
   77MOL0     C10304  -2.223   6.680   5.929 -0.0335  0.1215 -0.6014
   77MOL0    Cl10305  -2.401   6.669   5.948 -0.4500 -0.1471 -0.0750
   77MOL0     C10306  -1.652   7.629   6.139  0.1116  0.4770  0.4990
   77MOL0     C10307  -1.542   7.692   6.200 -0.6356  0.0170  0.4676
   77MOL0     O10308  -1.544   8.060   6.354 -0.5914  0.6823 -0.1381
   77MOL0     C10309  -1.209   8.028   6.397  1.3542  0.6269 -0.6311
   77MOL0     C10310  -1.103   8.100   6.447  0.7375 -0.1594 -0.2931
   77MOL0     N10311  -0.373   8.363   6.576  1.4264 -0.3126  0.4381
   77MOL0     N10312  -0.273   8.393   6.499 -0.0485 -0.3089 -0.0841
   77MOL0     C10313   0.403   8.744   6.852  0.6055 -1.6718 -0.2022
   77MOL0     C10314   0.496   8.665   6.909  0.2148  0.2349 -0.4124
   77MOL0     C10315   0.801   8.549   7.177 -0.4660 -0.2362  0.2133
   77MOL0     C10316   0.907   8.610   7.244  0.1325  0.3908  0.4128
   77MOL0     C10317   1.039   8.569   7.246  0.3707  0.3349 -0.2005
   77MOL0     C10318   1.065   8.456   7.163  0.2539 -0.4972 -0.4801
   77MOL0     O10319   1.178   8.383   7.161 -0.4885  0.2214  0.0894
   77MOL0     C10320   1.283   8.425   7.249  0.5428  0.4994  0.0440
   77MOL0     C10321   1.267   8.382   7.389  0.0493 -0.1763  0.5959
   77MOL0     C10322   1.384   8.433   7.471  0.0526  0.1944 -0.0403
   77MOL0     C10323   1.371   8.384   7.618  0.8169  0.6775  0.4967
   77MOL0     C10324   1.265   8.446   7.694 -0.1367 -0.1933 -0.0868
   77MOL0     C10325   1.187   8.519   7.750  0.1152 -0.5661 -0.7082
   77MOL0     C10326   0.959   8.404   7.088 -0.5227 -0.7760 -0.2427
   77MOL0     C10327   0.829   8.435   7.099 -0.4587  0.1694  0.1054
   77MOL0     H10328   0.352   8.637   7.215 -0.0315  3.2703  1.6786
   77MOL0     H10329   0.188   8.778   7.119  0.5265  3.6747  0.1789
   77MOL0     H10330   0.197   9.041   6.956  0.7401  1.4300  0.0628
   77MOL0     H10331   0.294   9.031   6.816 -0.7821  0.5198 -0.0373
   77MOL0     H10332  -0.012   9.026   6.812 -0.8119  0.0278 -2.0427
   77MOL0     H10333   0.096   9.170   6.775 -3.5718  0.7779  0.5597
   77MOL0     H10334   0.177   9.084   6.585  3.2565  0.1425  3.8583
   77MOL0     H10335   0.151   8.916   6.624  1.1181  0.5359 -0.2866
   77MOL0     H10336  -0.111   8.983   6.624 -0.4554  2.2297  0.4831
   77MOL0     H10337  -0.061   9.134   6.550  0.2170  0.4575 -0.8400
   77MOL0     H10338  -0.127   9.002   6.363 -0.2914  0.3303  0.7003
   77MOL0     H10339   0.054   9.021   6.375  2.7196 -1.3244  3.2874
   77MOL0     H10340  -0.004   8.793   6.301 -2.3839 -0.7628 -0.1359
   77MOL0     H10341   0.050   8.785   6.466 -0.0910 -1.1372 -0.8816
   77MOL0     H10342  -0.184   8.781   6.531  0.6023 -2.1311  0.0232
   77MOL0     H10343  -0.242   8.802   6.369 -2.8421 -1.1503  2.1195
   77MOL0     H10344  -0.049   8.564   6.428  0.1589  1.2193  0.3047
   77MOL0     H10345  -0.169   8.581   6.297 -0.0659  2.4641 -0.5363
   77MOL0     H10346  -0.406   8.683   6.503 -2.5695 -0.4651 -1.0244
   77MOL0     H10347  -0.577   8.476   6.734 -0.0587 -0.5741 -0.1595
   77MOL0     H10348  -0.622   8.603   6.611 -1.9221 -1.0044  0.1405
   77MOL0     H10349  -0.611   8.311   6.559 -2.0993 -0.7668 -0.9498
   77MOL0     H10350  -0.682   8.431   6.447 -2.3833  1.3056  1.0763
   77MOL0     H10351  -0.861   8.495   6.569  0.6840  1.0847  2.0138
   77MOL0     H10352  -0.811   8.414   6.715  3.3622  0.5989  0.0350
   77MOL0     H10353  -0.843   8.193   6.604  1.0899  1.8676  1.3385
   77MOL0     H10354  -0.891   8.275   6.446 -1.2904 -1.3206 -0.7956
   77MOL0     H10355  -1.267   8.309   6.656  2.4194 -0.2137  1.1189
   77MOL0     H10356  -1.550   8.090   6.640  1.2994 -0.4343  3.1086
   77MOL0     H10357  -1.483   8.259   6.689  1.5843 -0.9943  0.6062
   77MOL0     H10358  -1.555   8.230   6.537 -1.7932 -2.1268  0.1548
   77MOL0     H10359  -1.710   7.874   6.436 -1.4031 -0.9532  0.7850
   77MOL0     H10360  -1.895   7.747   6.354  0.1302 -3.0501  1.8509
   77MOL0     H10361  -1.813   7.440   6.024 -1.1178 -0.9836 -0.6062
   77MOL0     H10362  -1.814   7.387   6.200 -3.3061 -0.9866  1.7308
   77MOL0     H10363  -2.047   7.372   6.188  3.1128  1.4316  1.6553
   77MOL0     H10364  -2.056   7.435   6.020  1.2990  2.0588  0.2380
   77MOL0     H10365  -1.885   7.187   6.087  1.9327  1.4432 -1.9797
   77MOL0     H10366  -1.921   7.250   5.928  0.0785  0.6010 -0.1662
   77MOL0     H10367  -2.122   7.112   6.104  1.1313 -1.9182 -0.8348
   77MOL0     H10368  -2.164   7.216   5.963 -1.0332 -1.1438  1.7548
   77MOL0     H10369  -1.977   6.989   5.929  0.8804 -0.1104 -1.2284
   77MOL0     H10370  -2.067   7.075   5.801 -1.8976 -3.4534 -1.2600
   77MOL0     H10371  -2.203   6.917   6.025  2.5261 -1.3842  0.3710
   77MOL0     H10372  -2.281   6.993   5.879 -0.2693 -1.7535 -0.4016
   77MOL0     H10373  -2.061   6.802   5.844 -0.5956  1.5294 -2.5976
   77MOL0     H10374  -2.209   6.804   5.747  2.3627  0.7938 -1.5076
   77MOL0     H10375  -2.179   6.679   6.029  3.5922 -0.8146 -2.0382
   77MOL0     H10376  -2.191   6.588   5.880 -1.8099 -1.5562  1.1867
   77MOL0     H10377  -1.630   7.551   6.066  0.4616 -0.4099  1.5352
   77MOL0     H10378  -1.440   7.662   6.174  0.1338  0.4244  2.8076
   77MOL0     H10379  -1.189   7.959   6.316  1.6879  1.0401 -0.9050
   77MOL0     H10380  -1.011   8.086   6.391  0.6415 -3.2415  0.1717
   77MOL0     H10381   0.416   8.782   6.751  0.6087 -0.6427  0.1718
   77MOL0     H10382   0.585   8.636   6.853 -0.9572 -0.0095 -2.2247
   77MOL0     H10383   0.882   8.696   7.305 -0.5497 -1.7626  3.3629
   77MOL0     H10384   1.115   8.612   7.311  1.0846 -2.5949  1.0522
   77MOL0     H10385   1.382   8.387   7.225  1.0297  0.0983  2.4521
   77MOL0     H10386   1.287   8.533   7.234 -1.5566  0.8371  1.4499
   77MOL0     H10387   1.264   8.273   7.385 -0.4367 -0.1352 -0.8946
   77MOL0     H10388   1.176   8.425   7.431  1.0688  1.1871  1.5009
   77MOL0     H10389   1.399   8.541   7.478 -0.6746  0.3789 -1.1140
   77MOL0     H10390   1.474   8.393   7.423  0.1017  0.7954 -0.4558
   77MOL0     H10391   1.464   8.415   7.667  1.3067 -0.1515  0.1340
   77MOL0     H10392   1.350   8.276   7.622 -2.4692  1.2063  0.2112
   77MOL0     H10393   1.139   8.601   7.801  2.7549  1.4772 -1.2840
   77MOL0     H10394   0.982   8.325   7.018 -0.5991 -1.1378  0.1380
   77MOL0     H10395   0.750   8.374   7.057 -2.2005  3.1875 -1.2827
   78MOL0     O10396   3.434   6.756   1.561  0.5976  0.5325 -0.0718
   78MOL0     C10397   3.483   6.762   1.671 -0.4132  0.8183  0.0415
   78MOL0     O10398   3.424   6.700   1.782  1.4199  0.5084 -0.7408
   78MOL0     C10399   3.300   6.630   1.762 -0.5262 -0.9001 -0.8537
   78MOL0     C10400   3.282   6.533   1.657 -0.0922  0.4507 -1.2896
   78MOL0     C10401   3.162   6.460   1.647 -0.4424 -0.2715  0.1304
   78MOL0     C10402   3.060   6.488   1.734  0.0422  0.8268  0.5554
   78MOL0     O10403   2.937   6.430   1.735  0.1653 -0.4128  0.4673
   78MOL0     C10404   2.914   6.298   1.691  0.1563  0.4648 -0.1620
   78MOL0     C10405   2.771   6.249   1.729 -0.7376 -0.0160  0.2271
   78MOL0     C10406   2.661   6.340   1.672  0.0063  0.0868 -0.8237
   78MOL0     C10407   2.522   6.299   1.713  0.1635  0.1863  0.2378
   78MOL0     C10408   2.415   6.377   1.633  0.4226 -0.2565  0.3257
   78MOL0     C10409   2.369   6.295   1.504 -0.5099 -0.0599  0.4725
   78MOL0     C10410   2.228   6.345   1.456 -0.0755 -0.6954 -0.2261
   78MOL0     C10411   2.101   6.285   1.526  0.6014  0.7086 -0.0361
   78MOL0     N10412   1.975   6.351   1.485 -0.4873  0.1353  0.0847
   78MOL0     C10413   1.870   6.387   1.559 -0.8269 -0.2387 -0.6326
   78MOL0     C10414   1.775   6.421   1.482 -0.3859 -0.0392  0.6156
   78MOL0     C10415   1.636   6.447   1.528  1.1974  0.4983  0.2955
   78MOL0     C10416   1.542   6.331   1.481 -0.3725 -1.2610 -0.3190
   78MOL0     C10417   1.551   6.193   1.547  0.2769 -0.5188  0.0520
   78MOL0     C10418   1.427   6.105   1.511  0.2264 -1.0650 -0.4940
   78MOL0     O10419   1.314   6.128   1.604 -0.0423  0.0311  0.0560
   78MOL0     C10420   1.186   6.169   1.555  0.0554  0.8228  0.3485
   78MOL0     C10421   1.103   6.229   1.648 -0.6798  0.5314 -0.4864
   78MOL0     C10422   0.975   6.279   1.626 -0.1610  0.0741  0.6395
   78MOL0     C10423   0.906   6.346   1.742 -0.2682  0.7176 -0.2031
   78MOL0     C10424   0.924   6.259   1.496 -0.8690 -0.6424 -0.3518
   78MOL0     C10425   0.778   6.285   1.459 -0.4555  0.5704 -0.8598
   78MOL0     O10426   0.743   6.276   1.328  0.0296 -1.0567  0.2487
   78MOL0     C10427   0.601   6.274   1.296 -0.0313  0.3772 -0.2877
   78MOL0     C10428   0.557   6.174   1.209 -0.2244 -0.3278  0.5374
   78MOL0     C10429   0.423   6.181   1.166  0.1744 -0.1949  0.4441
   78MOL0     C10430   0.342   6.283   1.202 -0.4993  0.3284 -1.0729
   78MOL0     O10431   0.221   6.285   1.147  0.9545  1.1458 -1.1950
   78MOL0     C10432   0.100   6.269   1.231  0.1658 -1.0746  0.0306
   78MOL0     C10433   0.001   6.383   1.183 -0.4618 -0.0704  0.7594
   78MOL0     C10434  -0.120   6.394   1.273 -1.2236  0.9341  0.3315
   78MOL0     C10435  -0.213   6.501   1.235 -0.7163 -0.2639 -0.4712
   78MOL0     C10436  -0.292   6.449   1.114  0.4114  0.2815 -0.8414
   78MOL0     C10437  -0.416   6.523   1.080 -0.7804 -0.6392  0.1280
   78MOL0     C10438  -0.392   6.671   1.054  0.7002 -0.3790  0.1028
   78MOL0     C10439  -0.491   6.732   0.966 -0.7878 -0.4571 -0.5659
   78MOL0    Cl10440  -0.657   6.702   1.033 -0.2858  0.5974 -0.1391
   78MOL0     C10441   0.392   6.379   1.287  0.4732 -0.1737 -0.2397
   78MOL0     C10442   0.517   6.377   1.335 -0.7662  0.5745 -0.6439
   78MOL0     O10443   0.700   6.276   1.555 -0.8528 -1.1046  0.2464
   78MOL0     C10444   1.013   6.210   1.394  0.8982  0.2221  0.2468
   78MOL0     C10445   1.136   6.151   1.423 -0.0049 -0.4590 -0.3075
   78MOL0     N10446   1.819   6.409   1.343 -0.0495 -0.0415 -0.2747
   78MOL0     N10447   1.935   6.356   1.349  0.2749 -0.5195  0.3600
   78MOL0     C10448   3.074   6.592   1.830 -1.1064  0.1071 -0.0157
   78MOL0     C10449   3.195   6.652   1.847 -0.1646 -0.5119  0.6542
   78MOL0     C10450   3.618   6.824   1.678  0.6069  0.4936 -0.2374
   78MOL0     C10451   3.698   6.816   1.787  0.6843  0.5834  0.0763
   78MOL0     C10452   3.817   6.886   1.793  0.6929  0.1435 -0.0205
   78MOL0     C10453   3.860   6.979   1.693  0.9414  0.5318 -0.4779
   78MOL0     O10454   3.977   7.053   1.691  0.1432  0.4132 -0.3065
   78MOL0     C10455   4.046   7.065   1.817 -0.4257  0.7772  0.1611
   78MOL0     C10456   4.168   7.149   1.788  0.6017 -0.5829 -0.1318
   78MOL0     C10457   4.251   7.171   1.911 -0.1503  0.0612  0.8228
   78MOL0     C10458   4.369   7.272   1.893 -1.2315 -0.3920  0.5792
   78MOL0     C10459   4.323   7.416   1.881 -0.2780  0.4960 -0.5471
   78MOL0     C10460   4.268   7.522   1.877  0.5564 -0.2316 -0.2837
   78MOL0     C10461   3.790   6.972   1.573 -0.6700 -0.3705  0.3972
   78MOL0     C10462   3.666   6.903   1.566  0.0682  0.4559 -0.6952
   78MOL0     H10463   3.371   6.523   1.595  0.7660 -0.8536  0.0786
   78MOL0     H10464   3.149   6.391   1.564 -0.4305  0.6553 -0.6512
   78MOL0     H10465   2.930   6.299   1.583  0.0771  1.3594 -0.1667
   78MOL0     H10466   2.980   6.225   1.739 -0.4084  0.3842  0.5015
   78MOL0     H10467   2.750   6.149   1.690  0.6326  0.0546 -0.7430
   78MOL0     H10468   2.755   6.245   1.838  1.3080 -1.2308  0.5397
   78MOL0     H10469   2.683   6.441   1.708  1.2270 -0.8101  1.1421
   78MOL0     H10470   2.678   6.342   1.564  1.1064 -1.1915 -0.6997
   78MOL0     H10471   2.511   6.191   1.700 -0.3266  0.3472 -0.8162
   78MOL0     H10472   2.526   6.310   1.821  2.1989 -2.0050  0.4554
   78MOL0     H10473   2.332   6.396   1.702  1.3310  0.6652  1.1917
   78MOL0     H10474   2.442   6.480   1.608 -2.2628  1.6139  4.1839
   78MOL0     H10475   2.445   6.312   1.427  0.3556 -0.5975  1.1816
   78MOL0     H10476   2.367   6.189   1.532 -2.1222  0.6041  3.2526
   78MOL0     H10477   2.235   6.455   1.461  0.4385 -0.7706  1.1343
   78MOL0     H10478   2.227   6.326   1.348  1.7517 -1.0488 -0.2185
   78MOL0     H10479   2.105   6.288   1.636 -2.4032  2.2248  0.1680
   78MOL0     H10480   2.080   6.184   1.492  1.6328  0.4024  0.2295
   78MOL0     H10481   1.857   6.390   1.667 -2.6687 -1.5690 -0.7743
   78MOL0     H10482   1.639   6.452   1.637  1.8727  0.1343  0.2966
   78MOL0     H10483   1.584   6.538   1.496  2.1764  0.8573 -0.3139
   78MOL0     H10484   1.552   6.320   1.373 -2.0413  0.7470 -0.7482
   78MOL0     H10485   1.444   6.367   1.514  0.3147  2.9566 -2.1685
   78MOL0     H10486   1.574   6.210   1.653  3.0099  1.1757 -0.7280
   78MOL0     H10487   1.643   6.149   1.507  0.1169  0.5781 -1.6094
   78MOL0     H10488   1.468   6.004   1.522  0.9886 -0.6611  0.5599
   78MOL0     H10489   1.410   6.127   1.405  2.5288  1.2089 -0.4917
   78MOL0     H10490   1.145   6.222   1.748 -0.7722  0.6589 -0.4383
   78MOL0     H10491   0.828   6.279   1.781  0.9892 -1.7524 -1.6535
   78MOL0     H10492   0.985   6.354   1.816  1.1795  0.4935 -1.6648
   78MOL0     H10493   0.862   6.440   1.706 -0.7855 -0.1940 -2.0870
   78MOL0     H10494   0.619   6.093   1.174  1.2751  0.6625  0.7880
   78MOL0     H10495   0.381   6.110   1.096  1.1736 -0.5069  0.1488
   78MOL0     H10496   0.048   6.175   1.210 -0.9934 -0.1852 -1.2166
   78MOL0     H10497   0.126   6.278   1.337 -0.2476 -2.0047  0.2276
   78MOL0     H10498   0.057   6.476   1.195  2.1283 -1.6846  1.9600
   78MOL0     H10499  -0.032   6.357   1.082 -3.6336  1.3520  1.3155
   78MOL0     H10500  -0.074   6.406   1.372 -1.8034  4.2479  0.3343
   78MOL0     H10501  -0.168   6.297   1.265 -0.8372  0.8044 -0.4689
   78MOL0     H10502  -0.279   6.517   1.322  1.5801 -1.1609  1.5590
   78MOL0     H10503  -0.157   6.592   1.215 -0.7199 -0.7848 -3.2209
   78MOL0     H10504  -0.334   6.350   1.131  0.1161  0.7424  1.5467
   78MOL0     H10505  -0.231   6.447   1.023 -0.2072  0.8383 -1.2806
   78MOL0     H10506  -0.443   6.495   0.978  1.8016  0.8268 -1.0391
   78MOL0     H10507  -0.495   6.500   1.152 -1.5216 -0.0662 -0.4935
   78MOL0     H10508  -0.292   6.686   1.013  0.6620  2.2034  0.7590
   78MOL0     H10509  -0.396   6.717   1.154  0.6025 -0.1290 -0.0150
   78MOL0     H10510  -0.472   6.696   0.865 -0.6472 -0.0107 -0.7036
   78MOL0     H10511  -0.491   6.841   0.953  1.5706 -0.1091  1.5657
   78MOL0     H10512   0.329   6.463   1.316 -0.0672 -0.2570 -1.1038
   78MOL0     H10513   0.559   6.452   1.401 -0.5961 -0.8669  0.9658
   78MOL0     H10514   0.975   6.182   1.297  1.6093 -1.5607  0.4420
   78MOL0     H10515   1.205   6.103   1.355  2.4010 -3.2697  3.6935
   78MOL0     H10516   2.991   6.622   1.893  0.6436  2.6376  1.2538
   78MOL0     H10517   3.210   6.734   1.917 -0.7807 -0.7267  1.0473
   78MOL0     H10518   3.676   6.741   1.862  0.7739  1.8189  1.3854
   78MOL0     H10519   3.869   6.878   1.888 -0.6934 -0.7347  0.6981
   78MOL0     H10520   3.980   7.120   1.885 -3.3625  0.6155 -2.3293
   78MOL0     H10521   4.079   6.971   1.863  0.0166  1.2177  0.7665
   78MOL0     H10522   4.136   7.242   1.740 -0.0562  0.7002  2.6425
   78MOL0     H10523   4.238   7.088   1.730  0.9986 -2.6249  2.3368
   78MOL0     H10524   4.294   7.074   1.937 -0.8608 -0.0939  1.4305
   78MOL0     H10525   4.186   7.213   1.988  0.1544 -0.5748  1.4390
   78MOL0     H10526   4.421   7.241   1.802 -2.9218  1.6465 -1.2024
   78MOL0     H10527   4.433   7.263   1.981 -1.3166  0.6081  0.7609
   78MOL0     H10528   4.220   7.617   1.868  2.7740  0.8091 -2.4412
   78MOL0     H10529   3.839   7.016   1.486  0.9429 -0.1846  1.3634
   78MOL0     H10530   3.611   6.903   1.472 -1.5934 -1.0649  0.1965
   79MOL0     O10531  10.907   3.213  10.275 -1.6083 -0.7344 -0.4220
   79MOL0     C10532  10.994   3.260  10.352  0.0662  0.7665  0.0498
   79MOL0     O10533  10.964   3.286  10.479  0.3096  0.0659 -0.0955
   79MOL0     C10534  10.847   3.226  10.520 -0.7880 -0.1543  0.4686
   79MOL0     C10535  10.854   3.094  10.557  0.8002  0.9310  0.2477
   79MOL0     C10536  10.735   3.034  10.600  1.0922  0.4346 -0.6035
   79MOL0     C10537  10.607   3.092  10.609  0.6229  0.2308 -0.2139
   79MOL0     O10538  10.499   3.006  10.644  0.2871  0.4285  1.4040
   79MOL0     C10539  10.369   3.069  10.655  0.4974  0.0038  0.0801
   79MOL0     C10540  10.278   2.959  10.713  0.2082 -0.0887  0.2861
   79MOL0     C10541  10.131   3.018  10.730 -0.7810  0.6208 -0.0997
   79MOL0     C10542  10.037   2.933  10.809 -0.4233  1.3086 -0.2991
   79MOL0     C10543   9.919   3.021  10.831  0.5623 -0.1587 -0.4616
   79MOL0     C10544   9.808   2.958  10.911  0.2743  0.2676  0.8886
   79MOL0     C10545   9.704   3.052  10.971 -0.4396 -0.6599 -0.1671
   79MOL0     C10546   9.635   3.134  10.866 -0.0696  0.4079  1.0821
   79MOL0     N10547   9.542   3.240  10.906  0.2694  0.1006  0.2290
   79MOL0     C10548   9.550   3.332  11.006 -1.6252 -0.2978  0.0303
   79MOL0     C10549   9.437   3.398  10.997 -0.0585 -0.3980 -0.9645
   79MOL0     C10550   9.399   3.515  11.086  0.1269  0.3812  0.5056
   79MOL0     C10551   9.397   3.470  11.233 -0.8409 -0.5240 -0.2874
   79MOL0     C10552   9.291   3.356  11.263  0.9757 -0.1718 -0.5411
   79MOL0     C10553   9.284   3.323  11.416  0.2104 -0.7864  0.4366
   79MOL0     O10554   9.185   3.218  11.443  0.5733 -0.2597 -0.6892
   79MOL0     C10555   9.049   3.249  11.445  0.3304 -0.0651  0.5777
   79MOL0     C10556   8.995   3.370  11.483 -0.3161 -0.0144  0.3433
   79MOL0     C10557   8.858   3.380  11.518 -0.0109 -0.0178 -0.2205
   79MOL0     C10558   8.804   3.515  11.562  0.5682  0.0944  0.7738
   79MOL0     C10559   8.767   3.267  11.497  1.1671 -0.5605 -0.4106
   79MOL0     C10560   8.622   3.269  11.497 -0.0985 -1.0631  0.5240
   79MOL0     O10561   8.556   3.161  11.552 -1.1640  0.0530  0.1837
   79MOL0     C10562   8.424   3.162  11.519  0.4732  0.3809 -1.4580
   79MOL0     C10563   8.387   3.106  11.397  0.6312  0.4232  0.3043
   79MOL0     C10564   8.249   3.104  11.362 -1.0139 -0.1278 -0.1740
   79MOL0     C10565   8.148   3.156  11.449 -0.1789 -0.0934 -0.5200
   79MOL0     O10566   8.012   3.140  11.427  0.3034 -0.0265 -0.1066
   79MOL0     C10567   7.973   3.130  11.290  1.4667 -0.3346 -0.3458
   79MOL0     C10568   7.815   3.117  11.284 -0.3266  0.3172 -1.1149
   79MOL0     C10569   7.734   3.215  11.364 -0.0417 -1.0812 -0.1529
   79MOL0     C10570   7.739   3.357  11.304 -0.8229  0.5713 -0.6328
   79MOL0     C10571   7.620   3.448  11.342  0.5353 -0.4824 -0.1628
   79MOL0     C10572   7.490   3.400  11.259 -0.5575 -0.2103  0.9256
   79MOL0     C10573   7.429   3.519  11.182 -0.5153 -0.0279  0.4311
   79MOL0     C10574   7.343   3.472  11.069 -0.2226 -0.2397  1.0281
   79MOL0    Cl10575   7.208   3.387  11.147  0.4811  0.2682  0.3794
   79MOL0     C10576   8.190   3.204  11.577  0.5275  0.0201 -0.0871
   79MOL0     C10577   8.326   3.217  11.605 -0.6748 -0.5741  0.7673
   79MOL0     O10578   8.568   3.357  11.425  0.6511 -0.1573  0.3015
   79MOL0     C10579   8.826   3.148  11.450  0.4384  0.0809 -0.3021
   79MOL0     C10580   8.957   3.144  11.425 -0.5009 -0.7700  0.1575
   79MOL0     N10581   9.349   3.337  10.906  0.3684 -0.5250 -0.2711
   79MOL0     N10582   9.419   3.244  10.849  0.5074 -0.3753 -0.3974
   79MOL0     C10583  10.605   3.226  10.580  0.0156 -0.0885 -0.2281
   79MOL0     C10584  10.722   3.295  10.526  0.3262  0.2198 -0.5554
   79MOL0     C10585  11.126   3.289  10.292 -1.5876 -0.4459  0.2628
   79MOL0     C10586  11.232   3.342  10.368  0.0838 -0.5405  0.1808
   79MOL0     C10587  11.360   3.363  10.317  0.2773  0.2356  0.2337
   79MOL0     C10588  11.380   3.348  10.173 -0.4887  0.8018 -0.0674
   79MOL0     O10589  11.505   3.387  10.127  0.5350 -0.0376 -0.0066
   79MOL0     C10590  11.546   3.368   9.989  0.3275  0.1081 -0.2849
   79MOL0     C10591  11.678   3.450   9.964 -0.0133 -1.3512  1.3473
   79MOL0     C10592  11.714   3.472   9.816 -0.1692 -1.0204  0.7735
   79MOL0     C10593  11.830   3.569   9.791  0.1962 -0.1133  1.1695
   79MOL0     C10594  11.793   3.713   9.782  0.1155 -0.0496  0.9263
   79MOL0     C10595  11.758   3.828   9.794  0.1650 -0.1876 -0.7155
   79MOL0     C10596  11.273   3.301  10.098 -1.0967  0.6896  0.6290
   79MOL0     C10597  11.154   3.271  10.152  0.0207  0.1812 -0.0430
   79MOL0     H10598  10.944   3.032  10.557  0.6993  0.6877 -2.0113
   79MOL0     H10599  10.726   2.936  10.646 -3.2433  0.5700 -0.7703
   79MOL0     H10600  10.363   3.149  10.729 -0.8541 -0.2125  0.2265
   79MOL0     H10601  10.330   3.107  10.561 -1.6230  0.1136  0.9432
   79MOL0     H10602  10.287   2.872  10.648 -0.8150 -0.0533  0.0733
   79MOL0     H10603  10.309   2.929  10.813 -0.6942  0.7594  0.8526
   79MOL0     H10604  10.132   3.110  10.789  0.7785 -0.3173  1.4617
   79MOL0     H10605  10.079   3.041  10.637  0.6589  2.5782 -0.4914
   79MOL0     H10606  10.002   2.848  10.748  3.0145  0.3450 -1.1414
   79MOL0     H10607  10.076   2.898  10.905 -2.6019 -0.4738  0.0296
   79MOL0     H10608   9.952   3.112  10.883 -1.5589 -1.2329  3.1474
   79MOL0     H10609   9.868   3.057  10.741 -2.7958  1.8560  2.0003
   79MOL0     H10610   9.755   2.881  10.855  1.4633  0.3531 -0.4166
   79MOL0     H10611   9.850   2.891  10.988 -3.1443  0.4492  3.1286
   79MOL0     H10612   9.635   2.989  11.029 -1.2034  1.0147  0.8299
   79MOL0     H10613   9.750   3.118  11.045 -0.6611 -1.5693  0.8015
   79MOL0     H10614   9.599   3.056  10.798  0.3951 -0.4118  1.7600
   79MOL0     H10615   9.707   3.190  10.805 -1.2763 -0.2493 -1.0484
   79MOL0     H10616   9.633   3.339  11.075 -2.0318  3.3251  0.3361
   79MOL0     H10617   9.462   3.602  11.065  0.2856  0.3160  0.7126
   79MOL0     H10618   9.295   3.537  11.059 -0.3529 -2.1565  0.0292
   79MOL0     H10619   9.381   3.552  11.304 -1.6953  2.1962 -3.3958
   79MOL0     H10620   9.501   3.438  11.249 -0.5263  0.3433 -0.5634
   79MOL0     H10621   9.319   3.262  11.216  2.5950  0.6262 -1.2415
   79MOL0     H10622   9.196   3.401  11.232  1.4902  1.3480 -0.0022
   79MOL0     H10623   9.264   3.412  11.476  1.4471 -0.4850  0.4355
   79MOL0     H10624   9.378   3.282  11.453 -0.2162 -0.7652  1.5669
   79MOL0     H10625   9.056   3.459  11.486 -0.5227  0.1121  1.3985
   79MOL0     H10626   8.757   3.512  11.661 -2.5768 -1.5962 -0.6400
   79MOL0     H10627   8.885   3.588  11.562  3.7342 -3.0855  1.3626
   79MOL0     H10628   8.719   3.540  11.499  1.0063 -2.9814 -1.3081
   79MOL0     H10629   8.455   3.062  11.325  3.7474  1.0370  2.6695
   79MOL0     H10630   8.217   3.053  11.272  0.5462  0.4378 -1.1125
   79MOL0     H10631   8.016   3.216  11.238  1.0596 -1.2051 -2.2284
   79MOL0     H10632   8.018   3.040  11.245  0.2178 -1.4786  0.6199
   79MOL0     H10633   7.766   3.111  11.186 -0.9975 -1.9284 -0.7104
   79MOL0     H10634   7.797   3.018  11.328  0.3290 -0.1556 -1.8756
   79MOL0     H10635   7.754   3.232  11.470 -2.9920  0.0405  0.3245
   79MOL0     H10636   7.633   3.174  11.367 -0.6581  0.3981  0.5417
   79MOL0     H10637   7.834   3.397  11.341 -0.3410  0.7571 -2.0140
   79MOL0     H10638   7.752   3.345  11.196  1.4746 -0.3959 -0.3227
   79MOL0     H10639   7.648   3.553  11.328 -0.5614 -0.1082  0.3499
   79MOL0     H10640   7.593   3.427  11.446 -2.8134 -3.5787 -1.4277
   79MOL0     H10641   7.521   3.319  11.192  1.4161  0.1817  1.3010
   79MOL0     H10642   7.422   3.353  11.331  1.1554 -2.4256  1.2227
   79MOL0     H10643   7.509   3.583  11.144 -0.5571  1.6293  2.9142
   79MOL0     H10644   7.366   3.568  11.256 -0.5571  0.2392  0.2210
   79MOL0     H10645   7.407   3.403  11.013  2.3582  1.1432  2.0678
   79MOL0     H10646   7.314   3.562  11.013 -0.3378 -0.9798 -0.1214
   79MOL0     H10647   8.123   3.241  11.653  0.7646  0.1918  0.0407
   79MOL0     H10648   8.358   3.282  11.685  1.9338  0.5681 -1.0655
   79MOL0     H10649   8.763   3.060  11.452 -0.2049  0.5310  1.8944
   79MOL0     H10650   9.001   3.048  11.400 -0.7705 -1.2549  1.4284
   79MOL0     H10651  10.511   3.281  10.575  1.8782  3.5878  0.9975
   79MOL0     H10652  10.725   3.400  10.499  1.6708  0.6724  1.1316
   79MOL0     H10653  11.221   3.347  10.476 -0.5414 -1.2996  0.1603
   79MOL0     H10654  11.443   3.407  10.373  2.0077 -1.6750 -0.6842
   79MOL0     H10655  11.569   3.263   9.967  0.8921  0.6845 -2.7948
   79MOL0     H10656  11.462   3.394   9.923 -2.2910  0.8150  3.0411
   79MOL0     H10657  11.764   3.413  10.019 -0.3098 -0.2642  2.5862
   79MOL0     H10658  11.652   3.545  10.012 -0.6181 -0.8998  0.1691
   79MOL0     H10659  11.629   3.510   9.757 -1.1522 -3.1754  0.7071
   79MOL0     H10660  11.740   3.377   9.769 -0.1612 -0.0598 -1.3302
   79MOL0     H10661  11.885   3.538   9.701 -0.1587  0.4056  0.7672
   79MOL0     H10662  11.904   3.562   9.871  1.3925  0.2707  0.1295
   79MOL0     H10663  11.730   3.931   9.796  1.7057  0.2547  1.7401
   79MOL0     H10664  11.285   3.283   9.992  1.5518 -0.8095  1.0754
   79MOL0     H10665  11.071   3.248  10.086 -0.2399  1.8726 -0.3556
   80MOL0     O10666   3.348   1.807   8.231 -0.6765 -0.3423 -0.3775
   80MOL0     C10667   3.316   1.889   8.317 -1.0039 -0.3985 -0.6671
   80MOL0     O10668   3.190   1.942   8.328 -0.9158  0.1867 -0.3127
   80MOL0     C10669   3.086   1.875   8.267 -0.8850 -0.2389  0.1555
   80MOL0     C10670   3.080   1.854   8.130  0.1800 -0.6914  0.5082
   80MOL0     C10671   2.988   1.771   8.076  1.1239 -0.4352  0.0673
   80MOL0     C10672   2.874   1.719   8.145 -1.1362  0.2120  0.8393
   80MOL0     O10673   2.781   1.627   8.099 -0.3889  0.3580 -0.2147
   80MOL0     C10674   2.817   1.558   7.971 -0.1481 -0.7875 -0.5444
   80MOL0     C10675   2.710   1.458   7.927 -0.0624 -0.0452 -0.3246
   80MOL0     C10676   2.567   1.512   7.888  0.3790 -0.4311 -0.3831
   80MOL0     C10677   2.472   1.396   7.849  0.0234  0.0816 -0.0154
   80MOL0     C10678   2.355   1.442   7.770  0.6125  0.1283  0.3913
   80MOL0     C10679   2.258   1.533   7.845 -0.6229 -0.4506 -0.8275
   80MOL0     C10680   2.112   1.502   7.831  0.4764 -0.8925  0.2100
   80MOL0     C10681   2.047   1.551   7.707  0.2150 -0.5680 -0.8475
   80MOL0     N10682   2.096   1.497   7.584 -0.3259  0.2387  0.0279
   80MOL0     C10683   2.191   1.544   7.499  0.7962  0.0227 -0.6047
   80MOL0     C10684   2.172   1.467   7.384 -0.1464 -0.2462  0.0210
   80MOL0     C10685   2.256   1.487   7.263 -0.8383  0.6330  0.3288
   80MOL0     C10686   2.411   1.519   7.288  0.3856 -0.1563  0.1078
   80MOL0     C10687   2.480   1.406   7.369  0.4169  0.1388  0.7277
   80MOL0     C10688   2.614   1.442   7.427  0.2390  0.0809 -0.2384
   80MOL0     O10689   2.605   1.552   7.522  0.3343  0.0511 -0.8309
   80MOL0     C10690   2.726   1.598   7.566  0.1820  0.5975  0.3042
   80MOL0     C10691   2.736   1.729   7.618  0.0636  0.5438  0.7439
   80MOL0     C10692   2.856   1.783   7.667 -0.4649  0.6081  0.6644
   80MOL0     C10693   2.843   1.922   7.716 -0.6445  0.4076 -0.6968
   80MOL0     C10694   2.977   1.708   7.671 -0.2688 -0.9320  0.4017
   80MOL0     C10695   3.110   1.752   7.717  0.8496 -0.6415 -0.2010
   80MOL0     O10696   3.208   1.656   7.731  0.5177  0.1404 -0.5232
   80MOL0     C10697   3.336   1.702   7.750  1.4968 -0.2609  0.9723
   80MOL0     C10698   3.427   1.706   7.637  0.4290 -0.4548 -0.4314
   80MOL0     C10699   3.556   1.754   7.670  0.4357 -0.1000 -0.3473
   80MOL0     C10700   3.596   1.787   7.803  0.7997  0.3797  0.0476
   80MOL0     O10701   3.726   1.797   7.840 -0.2350 -1.3714 -0.2003
   80MOL0     C10702   3.808   1.892   7.780  1.2670 -0.3857  1.3155
   80MOL0     C10703   3.937   1.897   7.851  0.1273 -0.1361  0.3170
   80MOL0     C10704   4.044   1.789   7.816  0.4710 -0.1339 -0.6862
   80MOL0     C10705   4.118   1.816   7.683 -0.4510 -0.3886 -0.2261
   80MOL0     C10706   4.236   1.717   7.660  0.2887  0.2899  0.4253
   80MOL0     C10707   4.344   1.724   7.775 -0.3637 -0.1125  0.1613
   80MOL0     C10708   4.469   1.641   7.758  0.1001 -0.0644 -0.6085
   80MOL0     C10709   4.581   1.664   7.868  0.6627 -0.6189  2.0720
   80MOL0    Cl10710   4.712   1.532   7.863 -0.1112  0.3892 -0.0965
   80MOL0     C10711   3.501   1.775   7.909  0.0370 -0.1652  0.6230
   80MOL0     C10712   3.374   1.733   7.879 -0.4741 -0.2776  0.0264
   80MOL0     O10713   3.128   1.871   7.724 -0.6530 -0.5566 -0.1461
   80MOL0     C10714   2.962   1.576   7.622  0.0795 -0.1960 -0.9026
   80MOL0     C10715   2.841   1.518   7.569 -0.5520 -0.0718 -0.6393
   80MOL0     N10716   2.071   1.377   7.401 -0.2382  0.0240 -0.4354
   80MOL0     N10717   2.031   1.396   7.519 -0.4006 -0.2013 -0.2512
   80MOL0     C10718   2.876   1.758   8.282 -0.1170  0.6166  0.5098
   80MOL0     C10719   2.982   1.821   8.339  0.1451  0.3073 -0.3788
   80MOL0     C10720   3.415   1.942   8.409 -1.1774 -0.3538 -0.4172
   80MOL0     C10721   3.377   2.022   8.521  0.4348 -0.3327 -0.2297
   80MOL0     C10722   3.462   2.077   8.616  0.9265  1.4853 -0.9593
   80MOL0     C10723   3.602   2.064   8.584  0.1144  1.0119 -0.3875
   80MOL0     O10724   3.694   2.143   8.644 -0.5571  0.6859 -0.4361
   80MOL0     C10725   3.713   2.168   8.789  0.0482 -0.6720 -0.0970
   80MOL0     C10726   3.808   2.281   8.818 -0.4270 -0.5857 -0.2348
   80MOL0     C10727   3.765   2.411   8.725  0.5916  0.5679  0.1377
   80MOL0     C10728   3.870   2.516   8.745 -0.7817 -0.8262 -0.4047
   80MOL0     C10729   3.887   2.568   8.883  0.1472  0.3915  0.5124
   80MOL0     C10730   3.906   2.594   9.003  0.7995 -0.6002 -0.5656
   80MOL0     C10731   3.648   1.985   8.471 -0.2234 -0.5645 -0.1923
   80MOL0     C10732   3.555   1.924   8.385  0.6509 -0.0664 -0.4984
   80MOL0     H10733   3.146   1.914   8.068 -2.8721  0.1276 -2.2224
   80MOL0     H10734   3.011   1.752   7.972  2.2056  5.5021 -1.1838
   80MOL0     H10735   2.826   1.631   7.891 -1.2826 -0.1746 -0.1328
   80MOL0     H10736   2.915   1.509   7.981 -0.9405 -2.1982  0.8894
   80MOL0     H10737   2.750   1.413   7.836  1.4657  1.4354 -0.4496
   80MOL0     H10738   2.698   1.383   8.005  0.3119  0.1755 -0.0526
   80MOL0     H10739   2.522   1.571   7.969  0.0716 -2.8274  1.3273
   80MOL0     H10740   2.580   1.581   7.805 -0.2332 -1.5311 -1.4156
   80MOL0     H10741   2.527   1.324   7.790  0.3797 -1.2450  1.8413
   80MOL0     H10742   2.433   1.342   7.936 -1.7527  1.4655  0.1088
   80MOL0     H10743   2.382   1.470   7.668  3.7847 -4.0726 -0.1749
   80MOL0     H10744   2.305   1.348   7.745  3.4084 -1.2994 -0.2111
   80MOL0     H10745   2.285   1.512   7.949  1.2871 -1.4985 -1.4819
   80MOL0     H10746   2.263   1.642   7.834  0.9679 -0.2337  1.4920
   80MOL0     H10747   2.110   1.393   7.833 -2.2598 -0.9436 -0.9757
   80MOL0     H10748   2.053   1.543   7.914  0.1492  0.1278 -0.5062
   80MOL0     H10749   2.064   1.660   7.707 -1.8112 -0.1688  1.4852
   80MOL0     H10750   1.941   1.532   7.719  0.2496  0.5928  2.4433
   80MOL0     H10751   2.268   1.617   7.526  0.9947 -0.5227  0.3469
   80MOL0     H10752   2.242   1.395   7.206 -1.0729 -0.2024  1.6880
   80MOL0     H10753   2.220   1.559   7.188  0.5611  0.1795 -0.8366
   80MOL0     H10754   2.430   1.614   7.338  3.1194  0.9584 -2.7100
   80MOL0     H10755   2.452   1.525   7.187 -3.2486  0.3580 -1.4790
   80MOL0     H10756   2.492   1.313   7.312 -0.6179 -0.1732  0.9950
   80MOL0     H10757   2.416   1.379   7.453  1.0044  0.1274  1.1702
   80MOL0     H10758   2.690   1.460   7.350  0.7264  0.9596  0.4378
   80MOL0     H10759   2.644   1.349   7.476  1.3989 -1.7074 -3.9290
   80MOL0     H10760   2.648   1.793   7.613  1.0495  2.0865  2.0012
   80MOL0     H10761   2.743   1.950   7.749 -1.2433 -0.1572 -1.9902
   80MOL0     H10762   2.907   1.935   7.804  0.5064  0.8535 -1.5641
   80MOL0     H10763   2.877   1.996   7.643  1.1765  2.9487  2.4276
   80MOL0     H10764   3.411   1.670   7.536  0.9857 -1.0468 -0.3140
   80MOL0     H10765   3.632   1.756   7.592  1.0852  2.5264  0.2695
   80MOL0     H10766   3.828   1.870   7.674 -0.2378  0.4941  0.8191
   80MOL0     H10767   3.771   1.995   7.791  1.4929 -0.3320  1.5665
   80MOL0     H10768   3.979   1.997   7.846  1.0385 -0.4134  1.6414
   80MOL0     H10769   3.906   1.888   7.956  0.2345  0.8803  0.4462
   80MOL0     H10770   4.006   1.687   7.824  0.0459 -0.0961 -2.0481
   80MOL0     H10771   4.106   1.792   7.907 -2.0206 -1.7915  1.2030
   80MOL0     H10772   4.051   1.808   7.597  3.3455  0.6012 -3.5869
   80MOL0     H10773   4.165   1.915   7.684  0.0506 -0.5159 -2.9574
   80MOL0     H10774   4.273   1.739   7.560 -0.3401  2.7741  0.6623
   80MOL0     H10775   4.204   1.613   7.662  1.1954  0.0069  0.5229
   80MOL0     H10776   4.363   1.832   7.776  1.0913 -0.3239 -1.1822
   80MOL0     H10777   4.290   1.692   7.865 -2.6607  0.2483 -0.9894
   80MOL0     H10778   4.506   1.641   7.655  0.9990 -0.9249 -0.3028
   80MOL0     H10779   4.435   1.540   7.784  1.5442 -0.0060  1.8368
   80MOL0     H10780   4.536   1.669   7.967  0.4361  0.7554  1.9178
   80MOL0     H10781   4.629   1.760   7.848 -0.1532 -0.5607  0.1426
   80MOL0     H10782   3.524   1.787   8.015  0.9612 -4.1423  1.0244
   80MOL0     H10783   3.305   1.723   7.962  0.5864  1.0443  1.1122
   80MOL0     H10784   3.055   1.520   7.614 -0.9121 -2.0400 -0.0020
   80MOL0     H10785   2.846   1.414   7.536  4.3962 -0.4458  0.4656
   80MOL0     H10786   2.796   1.713   8.341  0.0543  1.6996  1.6071
   80MOL0     H10787   2.995   1.822   8.446  1.1664 -0.2869 -0.4821
   80MOL0     H10788   3.271   2.029   8.543  0.4898  0.6333 -0.2305
   80MOL0     H10789   3.420   2.125   8.703 -3.2058 -2.2235 -0.6061
   80MOL0     H10790   3.614   2.194   8.830 -0.4678 -1.2653 -0.9291
   80MOL0     H10791   3.738   2.078   8.847 -0.4262 -1.5602 -1.2284
   80MOL0     H10792   3.909   2.255   8.788 -0.7609 -0.5698 -1.4368
   80MOL0     H10793   3.808   2.313   8.923  1.8992 -2.5975  0.4550
   80MOL0     H10794   3.664   2.445   8.751 -0.2512 -1.7039  0.1293
   80MOL0     H10795   3.763   2.373   8.622 -2.7887 -3.2515  1.3038
   80MOL0     H10796   3.855   2.603   8.680  2.2992  0.6036  0.6231
   80MOL0     H10797   3.958   2.461   8.712 -1.3505 -2.1178  0.1655
   80MOL0     H10798   3.923   2.606   9.108  1.3222 -0.6598 -0.6398
   80MOL0     H10799   3.756   1.985   8.454 -0.1134  1.9316  0.2156
   80MOL0     H10800   3.589   1.876   8.295  2.1949 -0.1364  0.0929
   81MOL0     O10801   9.249   6.914   4.336 -0.3138  0.5846  0.0834
   81MOL0     C10802   9.263   6.891   4.456 -0.7552  0.4310 -0.1875
   81MOL0     O10803   9.180   6.930   4.556 -0.5180 -0.5213  0.2010
   81MOL0     C10804   9.106   7.050   4.517  0.4086 -0.7888  0.7650
   81MOL0     C10805   9.163   7.180   4.546  0.2633  0.1009 -0.2093
   81MOL0     C10806   9.089   7.295   4.526 -0.7167  0.0612  0.9131
   81MOL0     C10807   8.959   7.296   4.473 -0.4593  0.1112  1.3144
   81MOL0     O10808   8.877   7.407   4.459  0.6683 -0.0574  0.0531
   81MOL0     C10809   8.930   7.535   4.472 -0.0229  0.5013  0.1580
   81MOL0     C10810   8.810   7.621   4.486  0.5092 -0.3007 -0.2316
   81MOL0     C10811   8.840   7.770   4.515 -0.0716 -1.1489 -0.1154
   81MOL0     C10812   8.720   7.861   4.478  0.0628 -0.2492 -0.1967
   81MOL0     C10813   8.748   8.009   4.469 -0.6353  0.2369 -0.5755
   81MOL0     C10814   8.777   8.077   4.616 -0.6778 -1.1837 -0.6571
   81MOL0     C10815   8.670   8.065   4.730 -0.5113  0.4486 -0.9649
   81MOL0     C10816   8.690   8.143   4.854 -0.3451 -0.2759 -0.0174
   81MOL0     N10817   8.596   8.110   4.966 -0.5704  0.9099 -0.2911
   81MOL0     C10818   8.466   8.143   4.973 -0.6532  0.0391  0.0757
   81MOL0     C10819   8.420   8.098   5.095 -0.7562 -0.0591 -0.0157
   81MOL0     C10820   8.275   8.083   5.137 -0.3990  0.4640 -0.1451
   81MOL0     C10821   8.221   7.975   5.046 -0.3505 -0.2640  0.2412
   81MOL0     C10822   8.074   7.954   5.078 -0.3414  0.6334  0.4243
   81MOL0     C10823   7.987   7.914   4.962  0.0301  0.9884 -0.3863
   81MOL0     O10824   7.848   7.933   5.007  0.0829 -0.2655 -0.6328
   81MOL0     C10825   7.757   7.977   4.910 -0.2036  0.5935  0.5861
   81MOL0     C10826   7.655   8.055   4.957  0.0039 -0.3784 -0.4299
   81MOL0     C10827   7.542   8.091   4.883  0.5386  0.5867  0.5024
   81MOL0     C10828   7.421   8.132   4.967  0.5909  0.4095  0.4672
   81MOL0     C10829   7.545   8.069   4.743 -0.6219  0.0846  0.4523
   81MOL0     C10830   7.431   8.112   4.657  0.4218 -0.4505 -0.0282
   81MOL0     O10831   7.419   8.050   4.530  0.2232  0.0044 -0.1304
   81MOL0     C10832   7.296   8.049   4.470 -0.4137  0.1059  0.2643
   81MOL0     C10833   7.244   8.171   4.418 -0.0116 -0.5127  0.0549
   81MOL0     C10834   7.122   8.163   4.356  0.3357  0.4517  0.7595
   81MOL0     C10835   7.056   8.039   4.323 -0.2682 -0.0916 -0.0422
   81MOL0     O10836   6.949   8.027   4.238  0.2032 -0.2690 -0.2412
   81MOL0     C10837   6.977   8.089   4.105  0.8145  0.3804 -0.2338
   81MOL0     C10838   7.062   7.989   4.020 -0.4027 -0.2965 -0.6598
   81MOL0     C10839   6.967   7.896   3.939  0.3823  0.0716  0.1239
   81MOL0     C10840   6.908   7.966   3.814  0.1617 -0.4371 -0.3210
   81MOL0     C10841   6.873   7.880   3.694 -0.5160 -0.1680  0.6604
   81MOL0     C10842   6.793   7.955   3.587 -0.1742 -0.4907  0.6104
   81MOL0     C10843   6.777   7.862   3.466 -0.2687  0.1346  0.7049
   81MOL0     C10844   6.697   7.924   3.352  0.1905  0.5532 -0.0602
   81MOL0    Cl10845   6.761   8.093   3.316  0.0303 -0.1271  0.1878
   81MOL0     C10846   7.127   7.924   4.356  0.2869  0.5209 -1.0720
   81MOL0     C10847   7.234   7.928   4.439  0.4804 -0.0423  0.8717
   81MOL0     O10848   7.358   8.195   4.697 -0.4825  0.2948 -0.3057
   81MOL0     C10849   7.668   8.021   4.690 -0.4105  0.3322 -0.5707
   81MOL0     C10850   7.769   7.962   4.775  1.0713  0.5277  0.1938
   81MOL0     N10851   8.524   8.039   5.157 -1.0638  0.3322 -1.2121
   81MOL0     N10852   8.631   8.051   5.087 -0.4085  0.5123  0.0582
   81MOL0     C10853   8.901   7.172   4.446  0.0179  0.6349  0.5059
   81MOL0     C10854   8.974   7.049   4.461  0.0594  0.0212  0.0446
   81MOL0     C10855   9.376   6.802   4.499  0.2247  0.3316 -0.1220
   81MOL0     C10856   9.479   6.759   4.413 -0.0236  0.3401  0.6445
   81MOL0     C10857   9.589   6.688   4.461  0.2485 -0.3943  0.1026
   81MOL0     C10858   9.609   6.654   4.601  0.8225 -0.2535  0.0671
   81MOL0     O10859   9.708   6.580   4.666 -0.0693  0.0577  0.2191
   81MOL0     C10860   9.795   6.517   4.571 -0.2464 -0.3286  0.6737
   81MOL0     C10861   9.877   6.420   4.645 -0.0371 -0.2377 -0.1097
   81MOL0     C10862   9.983   6.487   4.741  0.5494  0.3748 -0.7911
   81MOL0     C10863  10.038   6.386   4.851 -1.1395 -0.1212  0.3236
   81MOL0     C10864  10.106   6.472   4.953 -0.4574  0.0008  0.2080
   81MOL0     C10865  10.169   6.536   5.035 -0.0342 -1.0572  0.3971
   81MOL0     C10866   9.501   6.695   4.682 -0.2257 -0.0734  0.0729
   81MOL0     C10867   9.395   6.771   4.640  0.0120  0.5685  0.0077
   81MOL0     H10868   9.264   7.185   4.585  0.1700  2.5870 -0.1376
   81MOL0     H10869   9.140   7.391   4.531  1.5636 -0.5175 -4.6004
   81MOL0     H10870   9.000   7.546   4.555  1.5196 -1.0987 -0.8457
   81MOL0     H10871   8.973   7.567   4.376  4.2498 -1.0991  1.3115
   81MOL0     H10872   8.751   7.608   4.394 -1.2164 -0.1509  0.8159
   81MOL0     H10873   8.739   7.574   4.555  1.5200 -2.5886 -0.6520
   81MOL0     H10874   8.851   7.785   4.623  0.2557 -2.8539  0.1016
   81MOL0     H10875   8.927   7.820   4.472 -0.9966  0.0013 -0.7363
   81MOL0     H10876   8.702   7.834   4.374 -0.1713  0.1316 -0.2568
   81MOL0     H10877   8.643   7.846   4.554  0.0830 -1.3840 -0.3898
   81MOL0     H10878   8.839   8.027   4.411  0.5023 -4.9072 -0.8886
   81MOL0     H10879   8.676   8.068   4.413 -0.6550  0.7577 -0.0145
   81MOL0     H10880   8.872   8.044   4.660  0.5143  2.5746 -0.1097
   81MOL0     H10881   8.782   8.185   4.599  1.1644 -1.7397 -5.1039
   81MOL0     H10882   8.576   8.105   4.691  0.6926  3.3689 -1.1122
   81MOL0     H10883   8.657   7.959   4.754 -2.8510  1.0059  0.5901
   81MOL0     H10884   8.698   8.250   4.837 -0.5414  0.0356  1.6111
   81MOL0     H10885   8.786   8.118   4.899 -1.1542 -1.8493  0.9691
   81MOL0     H10886   8.397   8.181   4.899  0.8904  2.5954 -0.1938
   81MOL0     H10887   8.280   8.046   5.240 -1.3513 -4.1274 -1.5251
   81MOL0     H10888   8.228   8.182   5.127 -0.7255  0.2617 -0.6110
   81MOL0     H10889   8.269   7.878   5.062  1.1525  0.8039  2.6173
   81MOL0     H10890   8.235   8.004   4.941 -1.4615 -1.5333 -0.2859
   81MOL0     H10891   8.039   8.050   5.116 -0.4354  0.6790  0.2263
   81MOL0     H10892   8.069   7.877   5.156  1.4446 -1.0269 -1.0034
   81MOL0     H10893   8.000   7.816   4.915 -2.5026 -0.2952  1.3466
   81MOL0     H10894   8.004   7.984   4.880  0.3633  0.1600 -1.0336
   81MOL0     H10895   7.658   8.066   5.065  0.0385  0.3148 -0.4989
   81MOL0     H10896   7.338   8.068   4.937  0.7649  0.2971  0.2149
   81MOL0     H10897   7.448   8.109   5.070  2.1353 -0.7255 -0.1568
   81MOL0     H10898   7.395   8.238   4.956  0.4667  0.4640  1.2850
   81MOL0     H10899   7.302   8.261   4.434  0.1628 -0.4320 -0.9913
   81MOL0     H10900   7.061   8.250   4.333 -1.4818 -0.3950  2.0687
   81MOL0     H10901   6.878   8.107   4.061  1.2249  0.6453 -1.0668
   81MOL0     H10902   7.030   8.184   4.116  1.0715  0.0589  1.6813
   81MOL0     H10903   7.128   8.042   3.951 -1.3858 -0.4490 -1.7500
   81MOL0     H10904   7.126   7.928   4.084 -1.7434  0.4328  1.4882
   81MOL0     H10905   6.885   7.853   3.997  0.0386 -0.6883 -0.8912
   81MOL0     H10906   7.025   7.809   3.906 -0.1864 -0.1240 -0.3781
   81MOL0     H10907   6.815   8.007   3.854  0.7040 -0.0612  0.6142
   81MOL0     H10908   6.972   8.049   3.782  1.3877 -1.7501 -1.4149
   81MOL0     H10909   6.813   7.796   3.730  1.0025 -1.7222 -0.2718
   81MOL0     H10910   6.963   7.847   3.642 -0.5891 -1.3225  1.2306
   81MOL0     H10911   6.691   7.983   3.614 -1.1314 -0.4102 -2.6750
   81MOL0     H10912   6.835   8.056   3.578 -1.3970  0.4940  4.1039
   81MOL0     H10913   6.742   7.761   3.487  1.1468 -0.4675  0.3417
   81MOL0     H10914   6.881   7.856   3.430 -1.1450 -3.5780 -1.7293
   81MOL0     H10915   6.596   7.936   3.393  0.7104  2.2052  0.8064
   81MOL0     H10916   6.701   7.863   3.261 -2.8800  0.3240 -0.1447
   81MOL0     H10917   7.078   7.829   4.340 -0.9582  0.0917  3.6206
   81MOL0     H10918   7.271   7.830   4.469 -2.6094 -1.3340  0.8595
   81MOL0     H10919   7.676   8.014   4.582 -0.2269  2.2604 -0.7134
   81MOL0     H10920   7.850   7.905   4.731  1.8465  1.8589 -0.1372
   81MOL0     H10921   8.801   7.176   4.403 -0.4608  0.6593  1.5736
   81MOL0     H10922   8.934   6.951   4.438  0.2054 -0.9256  3.3967
   81MOL0     H10923   9.477   6.789   4.308  0.8360  0.9595  0.8007
   81MOL0     H10924   9.668   6.667   4.389  0.9749 -0.3354  0.8644
   81MOL0     H10925   9.742   6.481   4.483  1.7638 -1.5546 -0.1090
   81MOL0     H10926   9.856   6.598   4.530  0.5699 -1.0090  0.5104
   81MOL0     H10927   9.921   6.346   4.578 -1.2547 -2.3587  1.2778
   81MOL0     H10928   9.803   6.360   4.700 -0.1759  0.9732  1.0787
   81MOL0     H10929   9.935   6.571   4.792 -2.4245 -0.4968 -1.8820
   81MOL0     H10930  10.069   6.524   4.684  0.1574  1.9420 -0.4019
   81MOL0     H10931  10.111   6.317   4.809 -1.1013 -0.9021  1.6264
   81MOL0     H10932   9.950   6.337   4.894 -0.5523 -0.7530  0.8174
   81MOL0     H10933  10.237   6.580   5.105  1.8985 -1.8782 -0.8974
   81MOL0     H10934   9.496   6.659   4.784 -1.4344 -1.3905 -0.4180
   81MOL0     H10935   9.336   6.806   4.723 -1.0857  1.5433 -1.1492
   82MOL0     O10936   8.045   3.839   7.148  0.2937 -0.2952  0.5616
   82MOL0     C10937   8.074   3.783   7.254 -0.1782 -1.4147 -0.7838
   82MOL0     O10938   8.003   3.791   7.376 -0.3328 -0.2390  0.2297
   82MOL0     C10939   7.888   3.868   7.397 -0.0854  0.0562 -0.5062
   82MOL0     C10940   7.775   3.851   7.315 -0.1235  0.3304 -0.4904
   82MOL0     C10941   7.651   3.911   7.345 -0.7260  0.2645  0.4749
   82MOL0     C10942   7.634   3.975   7.462 -0.4268 -0.0227 -0.5383
   82MOL0     O10943   7.514   4.025   7.489 -0.4848 -0.9178  0.3210
   82MOL0     C10944   7.490   4.160   7.428 -0.5267 -0.9443  0.2515
   82MOL0     C10945   7.360   4.214   7.466 -0.1873  0.8991 -0.1471
   82MOL0     C10946   7.242   4.132   7.434 -0.4605  0.3916  0.1712
   82MOL0     C10947   7.110   4.202   7.471  0.3944  0.6569  0.0345
   82MOL0     C10948   6.997   4.101   7.441  0.9083 -0.2212  0.2709
   82MOL0     C10949   6.869   4.175   7.486  0.2600  1.4047  0.7520
   82MOL0     C10950   6.748   4.090   7.437 -0.7448 -0.3432 -0.6611
   82MOL0     C10951   6.675   4.036   7.564  0.7070  0.0395  0.2927
   82MOL0     N10952   6.580   4.137   7.608  0.1133  0.3401 -0.1240
   82MOL0     C10953   6.480   4.185   7.537  0.2665 -0.6562 -0.3901
   82MOL0     C10954   6.430   4.285   7.623  0.0523  0.1570  0.2288
   82MOL0     C10955   6.319   4.375   7.588  0.0040 -0.3932 -0.3868
   82MOL0     C10956   6.181   4.318   7.614  0.2561  0.9552  0.0558
   82MOL0     C10957   6.111   4.272   7.489 -0.1433 -0.4031  0.1395
   82MOL0     C10958   5.965   4.227   7.528 -0.0867  0.0658 -0.2241
   82MOL0     O10959   5.903   4.334   7.606 -0.6140  0.3941  0.2789
   82MOL0     C10960   5.771   4.334   7.627  0.4233 -0.7353 -0.2447
   82MOL0     C10961   5.715   4.441   7.691 -0.1297  0.8162 -0.0445
   82MOL0     C10962   5.581   4.448   7.731  0.2901  0.0159 -0.6461
   82MOL0     C10963   5.524   4.574   7.792  0.3437 -0.1738 -0.0828
   82MOL0     C10964   5.497   4.334   7.702  0.1662  0.9824  0.3659
   82MOL0     C10965   5.347   4.323   7.730 -0.7127 -0.1396  0.1352
   82MOL0     O10966   5.305   4.194   7.727 -0.4225 -0.0359  0.3816
   82MOL0     C10967   5.177   4.157   7.716  0.4311  0.5445 -0.3625
   82MOL0     C10968   5.142   4.048   7.641  0.1907 -0.0990 -0.1049
   82MOL0     C10969   5.010   4.014   7.626  0.1633  0.2986 -1.1581
   82MOL0     C10970   4.900   4.091   7.685 -0.0072  0.4729  0.1261
   82MOL0     O10971   4.771   4.054   7.676 -0.1829 -0.0163  0.0735
   82MOL0     C10972   4.747   3.921   7.625 -0.5042 -0.0362 -0.2318
   82MOL0     C10973   4.612   3.885   7.686  0.2376  0.3924  0.9957
   82MOL0     C10974   4.496   3.927   7.596  0.1575 -0.2844 -0.4730
   82MOL0     C10975   4.362   3.917   7.670  0.1496 -0.2027  0.1870
   82MOL0     C10976   4.236   3.979   7.601  0.8375  0.1456  0.4459
   82MOL0     C10977   4.205   3.889   7.478 -0.5797 -0.2354  0.0025
   82MOL0     C10978   4.069   3.922   7.409  0.9152 -0.5574  0.1590
   82MOL0     C10979   4.053   3.817   7.304  0.5248 -0.1716  0.0076
   82MOL0    Cl10980   3.876   3.820   7.261  0.2331 -0.2071 -0.1304
   82MOL0     C10981   4.941   4.175   7.784 -0.6257 -0.8330  0.0218
   82MOL0     C10982   5.074   4.204   7.800  0.6873 -1.3138 -0.0543
   82MOL0     O10983   5.273   4.419   7.743  0.1264  0.0183  0.5977
   82MOL0     C10984   5.556   4.222   7.638  0.5895 -0.4627  0.3877
   82MOL0     C10985   5.690   4.221   7.604  0.1522 -0.6729  0.0265
   82MOL0     N10986   6.501   4.300   7.731  0.0621  0.5067 -0.9563
   82MOL0     N10987   6.586   4.204   7.724 -0.8027 -0.0095 -0.6706
   82MOL0     C10988   7.746   3.990   7.545  0.8107 -1.3623  1.5219
   82MOL0     C10989   7.872   3.941   7.506 -0.1887  0.1182 -0.5083
   82MOL0     C10990   8.191   3.690   7.258 -0.4060 -0.9826  1.1189
   82MOL0     C10991   8.302   3.704   7.174 -0.2104  0.4546 -0.0271
   82MOL0     C10992   8.410   3.612   7.176  0.0555 -0.2477 -0.7670
   82MOL0     C10993   8.399   3.498   7.244 -0.1073 -0.1002 -0.4890
   82MOL0     O10994   8.499   3.404   7.218 -0.0458  0.0170  0.1526
   82MOL0     C10995   8.499   3.282   7.280  1.2013 -0.3657 -0.3643
   82MOL0     C10996   8.589   3.189   7.204  0.2680  0.6217  0.1525
   82MOL0     C10997   8.733   3.221   7.190 -0.6966 -0.3312  0.2744
   82MOL0     C10998   8.798   3.103   7.114  0.0698  0.5857  0.6064
   82MOL0     C10999   8.934   3.114   7.091 -0.1654  0.0470  0.1183
   82MOL0     C11000   9.052   3.130   7.073 -0.3230 -0.2814  0.1572
   82MOL0     C11001   8.291   3.474   7.324  0.1933 -0.6998 -0.1257
   82MOL0     C11002   8.182   3.570   7.337  0.4602 -0.6530 -1.3253
   82MOL0     H11003   7.785   3.774   7.239  0.4503 -0.4128  0.3147
   82MOL0     H11004   7.571   3.885   7.276 -0.8185 -0.5772  0.8868
   82MOL0     H11005   7.570   4.224   7.469 -1.4952  0.5288 -0.0749
   82MOL0     H11006   7.499   4.157   7.319 -3.6687 -0.4590 -0.1072
   82MOL0     H11007   7.376   4.231   7.573  1.6399  1.7691 -0.5182
   82MOL0     H11008   7.349   4.311   7.417 -2.5396  0.4733 -0.5492
   82MOL0     H11009   7.247   4.102   7.329  1.2390 -1.4321  0.7086
   82MOL0     H11010   7.261   4.037   7.485  0.4953 -0.3405 -1.4347
   82MOL0     H11011   7.117   4.232   7.576  1.7969  0.3910  0.0339
   82MOL0     H11012   7.093   4.293   7.413  1.8491  1.2471  0.4875
   82MOL0     H11013   6.999   4.080   7.333 -3.3718 -0.5276  0.0724
   82MOL0     H11014   7.002   4.007   7.497  0.4405 -1.2599 -1.3607
   82MOL0     H11015   6.877   4.179   7.595 -0.9305  0.9076  0.8728
   82MOL0     H11016   6.857   4.278   7.454  1.8208  1.1814 -0.6780
   82MOL0     H11017   6.688   4.164   7.384 -0.4085  0.3496 -0.0975
   82MOL0     H11018   6.783   4.017   7.363 -0.4995  1.1196 -2.0200
   82MOL0     H11019   6.738   3.985   7.637  3.1935  2.3612 -0.0571
   82MOL0     H11020   6.603   3.960   7.532  0.3736 -0.0108  1.1466
   82MOL0     H11021   6.447   4.161   7.437 -2.7012  0.5617  0.1843
   82MOL0     H11022   6.323   4.470   7.641 -1.5512  0.1175 -1.1493
   82MOL0     H11023   6.341   4.400   7.484 -0.1765 -1.0771 -0.5972
   82MOL0     H11024   6.116   4.399   7.647 -2.6589  0.4134 -3.6616
   82MOL0     H11025   6.191   4.233   7.682  3.3656  0.9105 -0.2939
   82MOL0     H11026   6.164   4.190   7.439 -2.8700 -2.7303  0.8028
   82MOL0     H11027   6.094   4.357   7.422  1.1278 -2.1156 -2.5225
   82MOL0     H11028   5.969   4.135   7.588 -0.2128 -0.9921 -1.7741
   82MOL0     H11029   5.906   4.200   7.440  2.6912 -4.1370 -1.1108
   82MOL0     H11030   5.776   4.527   7.716 -0.1313  1.0056 -0.6730
   82MOL0     H11031   5.481   4.557   7.891 -3.1212 -0.0940 -1.4353
   82MOL0     H11032   5.597   4.655   7.799  0.3614 -0.1445 -0.6227
   82MOL0     H11033   5.436   4.617   7.743  0.3508  0.6525  0.5867
   82MOL0     H11034   5.210   3.987   7.583  0.0178  1.2117 -1.7783
   82MOL0     H11035   4.992   3.925   7.567  0.0780 -0.0941 -0.5491
   82MOL0     H11036   4.743   3.914   7.516  0.1586  1.4699 -0.3782
   82MOL0     H11037   4.823   3.851   7.660  0.6247  0.6335 -1.2512
   82MOL0     H11038   4.602   3.776   7.687 -1.3245  0.2333 -4.3267
   82MOL0     H11039   4.597   3.928   7.785  0.7820  0.3938  1.0818
   82MOL0     H11040   4.500   3.851   7.517  2.4382 -4.4190  3.1372
   82MOL0     H11041   4.512   4.029   7.559 -0.3883  0.1168  0.3922
   82MOL0     H11042   4.338   3.810   7.676  0.1727 -0.1933  0.4790
   82MOL0     H11043   4.368   3.965   7.768 -0.0390  0.4704 -0.1264
   82MOL0     H11044   4.240   4.086   7.578 -2.2864  0.1041 -0.7039
   82MOL0     H11045   4.159   3.976   7.678 -0.4153  4.1067 -0.4182
   82MOL0     H11046   4.282   3.904   7.403 -2.7870  0.1914 -2.3044
   82MOL0     H11047   4.204   3.781   7.500  1.6972 -0.2851  0.0051
   82MOL0     H11048   4.081   4.024   7.371  1.2516 -0.2231  1.1143
   82MOL0     H11049   3.991   3.918   7.485 -1.9062 -0.0033 -2.5142
   82MOL0     H11050   4.086   3.722   7.346 -0.5576  0.8315  3.4633
   82MOL0     H11051   4.111   3.829   7.212  1.0128  1.1923  0.4587
   82MOL0     H11052   4.873   4.214   7.860  1.4584 -1.9220  2.6173
   82MOL0     H11053   5.105   4.277   7.874  2.6956 -0.7954 -1.3109
   82MOL0     H11054   5.506   4.133   7.602 -1.1323  0.8154 -0.5244
   82MOL0     H11055   5.732   4.130   7.560  0.3045 -0.9139  0.6550
   82MOL0     H11056   7.733   4.038   7.642  0.3795 -0.4586  1.0381
   82MOL0     H11057   7.952   3.955   7.578 -1.9472  1.2934  1.3324
   82MOL0     H11058   8.305   3.793   7.111 -0.8036  1.2095  0.9713
   82MOL0     H11059   8.492   3.634   7.108 -0.0700  2.6510 -0.1024
   82MOL0     H11060   8.529   3.288   7.385  0.5784 -0.9284 -0.1542
   82MOL0     H11061   8.395   3.248   7.271  1.3010 -1.3406  1.7322
   82MOL0     H11062   8.542   3.177   7.106 -3.1820 -0.1922  1.7590
   82MOL0     H11063   8.585   3.089   7.246  1.9704  0.7084  0.6031
   82MOL0     H11064   8.781   3.232   7.288  1.1909  1.6288 -0.7874
   82MOL0     H11065   8.754   3.315   7.138 -1.8277 -1.2588 -1.9709
   82MOL0     H11066   8.752   3.081   7.017 -0.2379 -0.9300  1.0700
   82MOL0     H11067   8.790   3.013   7.176 -1.3951  1.3387  1.5801
   82MOL0     H11068   9.158   3.134   7.058 -0.1087  1.1484  1.7899
   82MOL0     H11069   8.274   3.382   7.381  1.5189 -0.1735  1.2091
   82MOL0     H11070   8.100   3.545   7.405  1.5927  0.6341  0.6231
   83MOL0     O11071   7.862   1.300   7.973 -0.0810  0.2786 -0.0198
   83MOL0     C11072   7.859   1.238   7.864  0.4912  0.1831  0.6767
   83MOL0     O11073   7.751   1.172   7.813 -0.1493 -0.7758 -0.4497
   83MOL0     C11074   7.633   1.189   7.862  0.5947 -0.4462 -0.1146
   83MOL0     C11075   7.536   1.202   7.763 -0.3498 -0.3120  0.2620
   83MOL0     C11076   7.404   1.221   7.791 -0.2456  0.2434  0.4315
   83MOL0     C11077   7.347   1.213   7.926 -0.9869  0.6220 -0.3061
   83MOL0     O11078   7.207   1.232   7.946 -0.3778  0.1643  0.6456
   83MOL0     C11079   7.169   1.300   8.067  0.6257  0.3812 -0.1064
   83MOL0     C11080   7.033   1.355   8.046 -0.5347 -0.2595  0.2643
   83MOL0     C11081   6.979   1.419   8.174 -0.8158  0.1836  0.6235
   83MOL0     C11082   6.844   1.466   8.155  0.1642 -0.1239 -0.1835
   83MOL0     C11083   6.762   1.474   8.288 -0.4866  0.3650 -0.3229
   83MOL0     C11084   6.638   1.566   8.280 -0.3897 -0.3546 -0.2245
   83MOL0     C11085   6.567   1.589   8.408 -0.3780 -0.5112  0.0982
   83MOL0     C11086   6.482   1.469   8.460  0.2907  0.5615  0.7925
   83MOL0     N11087   6.374   1.440   8.362 -0.5155  0.8285 -0.8880
   83MOL0     C11088   6.260   1.514   8.341 -0.3874 -0.0977  0.5181
   83MOL0     C11089   6.191   1.459   8.244 -0.5582  0.8896 -0.2731
   83MOL0     C11090   6.050   1.506   8.225 -0.2459  0.2993  0.6506
   83MOL0     C11091   6.024   1.659   8.222 -0.5692  0.7452  0.8130
   83MOL0     C11092   6.119   1.730   8.129  0.1335 -0.9964  0.8384
   83MOL0     C11093   6.097   1.888   8.148 -1.1700  0.5050  0.1085
   83MOL0     O11094   5.983   1.931   8.071 -0.0935 -0.4994 -0.1601
   83MOL0     C11095   5.961   2.066   8.045  0.1557  0.0307  0.7426
   83MOL0     C11096   6.036   2.174   8.099  0.3879 -0.5475 -0.2357
   83MOL0     C11097   5.999   2.305   8.073 -0.2807 -0.2824 -0.4840
   83MOL0     C11098   6.089   2.403   8.144 -1.1560 -0.1598 -0.0293
   83MOL0     C11099   5.885   2.334   8.001  0.0398 -0.1256 -0.4132
   83MOL0     C11100   5.822   2.466   8.002  0.4197 -0.6653  0.1648
   83MOL0     O11101   5.715   2.481   7.913 -0.3391 -0.1639 -0.7147
   83MOL0     C11102   5.641   2.599   7.915 -0.5570  0.5895 -0.4631
   83MOL0     C11103   5.685   2.712   7.853 -0.0521 -0.3553  0.1399
   83MOL0     C11104   5.598   2.824   7.850  0.6207 -0.1871  0.1085
   83MOL0     C11105   5.475   2.824   7.913  0.6791 -0.1341  0.3920
   83MOL0     O11106   5.388   2.937   7.932 -0.2830 -0.4029  0.5032
   83MOL0     C11107   5.247   2.927   7.966  0.3447  0.8184 -0.1517
   83MOL0     C11108   5.186   3.053   7.929  0.3070 -0.4942 -0.2744
   83MOL0     C11109   5.040   3.059   7.975 -0.0258 -0.1211  0.4664
   83MOL0     C11110   4.966   3.149   7.872  0.0589  0.5277 -0.0500
   83MOL0     C11111   4.814   3.169   7.908 -0.6568 -0.4216 -1.1159
   83MOL0     C11112   4.731   3.042   7.928  0.2882 -0.1421  0.3060
   83MOL0     C11113   4.586   3.059   7.964 -0.5199 -0.4809  0.3142
   83MOL0     C11114   4.486   3.102   7.862 -0.0256 -0.4937  0.5791
   83MOL0    Cl11115   4.334   3.141   7.957  0.3471  0.0882  0.2163
   83MOL0     C11116   5.427   2.702   7.965 -0.1490 -0.1813  0.1845
   83MOL0     C11117   5.507   2.588   7.956 -0.2538 -0.5624  0.4299
   83MOL0     O11118   5.862   2.553   8.081 -0.2789  0.2371 -0.0843
   83MOL0     C11119   5.811   2.227   7.949  0.3233  0.2209  0.0407
   83MOL0     C11120   5.847   2.101   7.970  0.4699 -0.2386 -0.0709
   83MOL0     N11121   6.246   1.330   8.213  0.4374  0.3445 -0.0288
   83MOL0     N11122   6.351   1.322   8.298 -0.2549 -0.1684  0.8210
   83MOL0     C11123   7.449   1.203   8.031 -0.1569 -0.4995  0.0759
   83MOL0     C11124   7.590   1.200   8.002  0.2379 -0.0074  1.2497
   83MOL0     C11125   7.984   1.222   7.785 -0.2650  0.0017 -0.0112
   83MOL0     C11126   7.990   1.139   7.667 -0.8586 -0.3096 -0.5364
   83MOL0     C11127   8.121   1.128   7.604 -0.0463  0.1105 -0.0220
   83MOL0     C11128   8.225   1.217   7.629  0.1457 -1.2968 -0.4757
   83MOL0     O11129   8.352   1.210   7.580 -0.1594  0.4778 -0.6078
   83MOL0     C11130   8.359   1.149   7.448  0.3252  0.0282 -0.3682
   83MOL0     C11131   8.493   1.166   7.383  0.1305 -0.0618  0.4216
   83MOL0     C11132   8.548   1.306   7.389  1.2937 -0.3535 -0.4320
   83MOL0     C11133   8.685   1.302   7.320 -0.0705 -0.9664 -0.4642
   83MOL0     C11134   8.698   1.263   7.175 -0.5713  0.3373 -0.6293
   83MOL0     C11135   8.703   1.231   7.060  0.3014 -0.1532 -0.0263
   83MOL0     C11136   8.204   1.300   7.740 -1.0005  0.6416  0.9165
   83MOL0     C11137   8.094   1.299   7.819  0.2669 -0.5802 -0.3064
   83MOL0     H11138   7.564   1.214   7.659  1.5199  2.6586  0.9926
   83MOL0     H11139   7.330   1.246   7.715  1.0103  2.0816 -0.2412
   83MOL0     H11140   7.165   1.232   8.152  0.3167  0.4985 -0.0267
   83MOL0     H11141   7.239   1.379   8.092  0.3505  0.0409  1.8603
   83MOL0     H11142   7.029   1.416   7.956  2.9131 -0.9757 -0.5432
   83MOL0     H11143   6.973   1.268   8.019  0.7199 -0.9273 -0.4592
   83MOL0     H11144   6.990   1.348   8.257  1.9325 -0.3065 -0.0693
   83MOL0     H11145   7.048   1.497   8.206  1.3093 -1.0286 -0.7986
   83MOL0     H11146   6.841   1.566   8.111 -2.6824  1.8195  3.8071
   83MOL0     H11147   6.801   1.401   8.078 -0.7369  1.6256 -1.2198
   83MOL0     H11148   6.732   1.371   8.306  0.1598  0.4949  1.7463
   83MOL0     H11149   6.817   1.509   8.375  2.1274 -3.2817 -0.2881
   83MOL0     H11150   6.681   1.652   8.228  2.3698 -0.9893  0.8209
   83MOL0     H11151   6.562   1.520   8.216 -1.5582  0.3315  0.6305
   83MOL0     H11152   6.638   1.611   8.488  0.0634 -2.6486  0.3610
   83MOL0     H11153   6.498   1.674   8.405 -0.1377 -0.1047  3.2330
   83MOL0     H11154   6.445   1.489   8.561 -2.4897  0.2068 -0.0784
   83MOL0     H11155   6.541   1.377   8.461  0.3620  0.4726 -2.5169
   83MOL0     H11156   6.236   1.615   8.372  1.5066  1.5066 -2.7213
   83MOL0     H11157   6.035   1.470   8.123  0.7752  0.5840  0.3912
   83MOL0     H11158   5.968   1.460   8.280 -1.8145  0.3942 -1.4845
   83MOL0     H11159   6.035   1.696   8.324  0.7658  0.6171  0.7359
   83MOL0     H11160   5.921   1.672   8.189 -0.4181 -1.1477 -0.5576
   83MOL0     H11161   6.095   1.702   8.026 -1.8107  2.5489  0.1779
   83MOL0     H11162   6.221   1.698   8.151 -0.0459 -1.6837  0.6945
   83MOL0     H11163   6.187   1.940   8.112  1.3700 -2.0970  2.1814
   83MOL0     H11164   6.095   1.923   8.252  3.7572  2.9524 -0.2908
   83MOL0     H11165   6.122   2.145   8.159 -1.1129 -2.2965  1.1867
   83MOL0     H11166   6.049   2.428   8.243 -2.2554 -1.0660 -0.2214
   83MOL0     H11167   6.185   2.354   8.165 -0.5215  0.6944 -0.8515
   83MOL0     H11168   6.100   2.495   8.087 -1.5206 -1.6127 -2.6134
   83MOL0     H11169   5.784   2.713   7.808  0.2022  2.1830  0.5872
   83MOL0     H11170   5.631   2.922   7.816  2.3972 -0.6946  0.2439
   83MOL0     H11171   5.196   2.854   7.904 -0.7499  1.5218 -0.0944
   83MOL0     H11172   5.234   2.895   8.070  0.3101 -0.0273 -0.4119
   83MOL0     H11173   5.237   3.135   7.980 -0.9422 -0.7907  1.5224
   83MOL0     H11174   5.196   3.078   7.823 -0.4048  1.4655  0.0813
   83MOL0     H11175   5.041   3.086   8.081  0.1924  1.8480  0.0115
   83MOL0     H11176   5.005   2.957   7.959  0.0601 -0.0059 -0.5377
   83MOL0     H11177   5.017   3.246   7.875  1.6517 -0.2802  0.0923
   83MOL0     H11178   4.969   3.097   7.776  1.7503 -0.6933  0.6281
   83MOL0     H11179   4.770   3.221   7.822 -0.9735 -0.5959 -1.0569
   83MOL0     H11180   4.817   3.235   7.995  0.7999  1.8274 -2.7407
   83MOL0     H11181   4.731   2.974   7.842 -1.0475 -1.6620  1.4522
   83MOL0     H11182   4.771   2.989   8.015  0.3889 -1.9252 -0.7713
   83MOL0     H11183   4.584   3.140   8.038  1.9278  0.1550 -0.2360
   83MOL0     H11184   4.562   2.958   7.997  1.0792 -1.7409 -2.0380
   83MOL0     H11185   4.469   3.036   7.776 -2.5990  2.1078 -1.1265
   83MOL0     H11186   4.507   3.190   7.800  0.8922 -2.0379 -1.3903
   83MOL0     H11187   5.341   2.709   8.031 -0.0572  4.4922  0.1561
   83MOL0     H11188   5.460   2.497   7.992 -0.2995 -1.1182 -0.9767
   83MOL0     H11189   5.722   2.247   7.891  0.5468  3.0230  0.5199
   83MOL0     H11190   5.785   2.025   7.924  1.3965 -0.2037 -1.4210
   83MOL0     H11191   7.411   1.208   8.133  1.0574 -0.9420  0.5722
   83MOL0     H11192   7.670   1.195   8.075 -0.2125  0.6328  1.7934
   83MOL0     H11193   7.911   1.072   7.634 -0.2658 -1.6871  0.7146
   83MOL0     H11194   8.134   1.050   7.530  1.8254  1.5628 -1.3457
   83MOL0     H11195   8.336   1.043   7.459 -1.9388  0.6812  2.5449
   83MOL0     H11196   8.281   1.182   7.380 -1.9181 -0.9544  1.6005
   83MOL0     H11197   8.494   1.128   7.281 -0.6286 -3.2481  1.4802
   83MOL0     H11198   8.566   1.099   7.429  3.0247  1.2453 -1.9531
   83MOL0     H11199   8.555   1.330   7.496  0.2782 -0.8252 -0.2515
   83MOL0     H11200   8.484   1.380   7.341  0.3556 -0.7165  0.2436
   83MOL0     H11201   8.746   1.230   7.374  0.8452  1.6672  2.2720
   83MOL0     H11202   8.724   1.403   7.332 -2.0007 -0.2066 -0.0950
   83MOL0     H11203   8.689   1.206   6.957  0.6572  1.5665 -0.5119
   83MOL0     H11204   8.274   1.368   7.786  1.2493 -3.3220  3.9533
   83MOL0     H11205   8.079   1.366   7.903 -2.9272 -0.7375 -0.6019
   84MOL0     O11206   2.507   0.637  10.469 -0.5120 -0.0034  0.6058
   84MOL0     C11207   2.576   0.558  10.416  0.5372 -0.9678  0.3721
   84MOL0     O11208   2.538   0.461  10.328 -0.4194 -0.2959  0.0766
   84MOL0     C11209   2.406   0.444  10.291  0.4744 -0.5787  0.1027
   84MOL0     C11210   2.351   0.317  10.273 -0.7964 -0.0320  0.2816
   84MOL0     C11211   2.226   0.294  10.222  0.2209 -0.4970 -0.5431
   84MOL0     C11212   2.138   0.401  10.196 -0.2867 -0.5354 -0.2628
   84MOL0     O11213   2.010   0.365  10.161 -0.0989 -0.4522  0.0841
   84MOL0     C11214   1.911   0.425  10.254  0.4881  0.3509  0.5528
   84MOL0     C11215   1.786   0.330  10.239 -0.3046 -0.9127 -0.2314
   84MOL0     C11216   1.663   0.375  10.319  0.3505  1.1601  0.8155
   84MOL0     C11217   1.577   0.484  10.236 -0.4386 -1.0794 -0.3385
   84MOL0     C11218   1.471   0.541  10.320  0.0955 -0.1987  0.5743
   84MOL0     C11219   1.385   0.636  10.233 -0.4869 -0.1670 -0.0510
   84MOL0     C11220   1.243   0.673  10.293  0.7093  0.0078  0.2769
   84MOL0     C11221   1.164   0.756  10.197  0.7469 -0.6896 -0.5936
   84MOL0     N11222   1.228   0.885  10.181  0.0799 -0.0449  0.9370
   84MOL0     C11223   1.310   0.927  10.079 -0.0306 -0.5061  0.5618
   84MOL0     C11224   1.338   1.056  10.109  0.7733  0.9010  1.0487
   84MOL0     C11225   1.416   1.148  10.018  0.0707  0.4038  0.0092
   84MOL0     C11226   1.565   1.146  10.052 -0.3674 -0.4539 -0.6083
   84MOL0     C11227   1.630   1.264   9.985 -0.0960 -0.2301 -0.1697
   84MOL0     C11228   1.780   1.257   9.998 -0.0626 -0.2323 -0.4987
   84MOL0     O11229   1.836   1.376   9.940 -0.1018 -0.8397 -1.0043
   84MOL0     C11230   1.954   1.356   9.866  0.3284 -0.1092  0.1285
   84MOL0     C11231   2.061   1.276   9.913 -0.2579  0.3442 -0.2215
   84MOL0     C11232   2.176   1.249   9.840  0.5958 -0.6483  0.8308
   84MOL0     C11233   2.281   1.159   9.896 -0.8211  0.7133  0.3808
   84MOL0     C11234   2.194   1.315   9.716  1.3519 -0.0052  0.9678
   84MOL0     C11235   2.310   1.312   9.614 -1.0253  0.4150  0.1772
   84MOL0     O11236   2.309   1.379   9.500 -0.3620 -0.2949 -0.3897
   84MOL0     C11237   2.409   1.345   9.408 -0.4147  0.1001 -0.1787
   84MOL0     C11238   2.547   1.377   9.429 -0.2472  0.4926 -0.9641
   84MOL0     C11239   2.642   1.355   9.326  0.3729  0.8324  0.2119
   84MOL0     C11240   2.594   1.299   9.205 -0.3475 -1.1290 -0.0772
   84MOL0     O11241   2.692   1.276   9.115  0.1668  0.3334 -0.5425
   84MOL0     C11242   2.678   1.317   8.982  0.6618 -0.1783  0.5627
   84MOL0     C11243   2.791   1.267   8.890 -0.2498 -0.8399  0.5384
   84MOL0     C11244   2.941   1.285   8.930 -0.3491 -0.6459  0.2421
   84MOL0     C11245   2.986   1.420   8.991 -0.1429  0.7897 -0.1611
   84MOL0     C11246   3.138   1.417   9.016 -0.8673 -0.6315  0.4884
   84MOL0     C11247   3.182   1.517   9.122  0.3565 -0.2945  0.1824
   84MOL0     C11248   3.119   1.489   9.261 -0.2510 -0.3605  0.1495
   84MOL0     C11249   3.191   1.563   9.366  0.6606 -0.0545 -0.2078
   84MOL0    Cl11250   3.351   1.489   9.395 -0.0015 -0.3602  0.2908
   84MOL0     C11251   2.460   1.272   9.181 -0.7670 -0.3808  0.7883
   84MOL0     C11252   2.366   1.299   9.281 -0.8120  0.4906  0.2305
   84MOL0     O11253   2.399   1.238   9.651  0.0478  0.3347  0.2924
   84MOL0     C11254   2.091   1.416   9.680 -0.5225 -0.4433 -1.0167
   84MOL0     C11255   1.974   1.431   9.749  0.3123  0.6536  0.1983
   84MOL0     N11256   1.282   1.090  10.230 -0.2053  0.7652 -0.1787
   84MOL0     N11257   1.202   0.987  10.263 -0.6841  0.0012  0.7317
   84MOL0     C11258   2.192   0.534  10.200 -0.6632  0.4365 -0.0380
   84MOL0     C11259   2.328   0.555  10.248 -0.3365  0.4512  0.2696
   84MOL0     C11260   2.722   0.575  10.433 -0.2848 -0.0885  0.1737
   84MOL0     C11261   2.814   0.534  10.334 -0.8991  0.6146 -0.0090
   84MOL0     C11262   2.953   0.546  10.348 -0.3038 -0.3370 -0.2572
   84MOL0     C11263   3.008   0.601  10.468 -0.2164  0.0923  0.0641
   84MOL0     O11264   3.137   0.610  10.512  0.0638  0.5466 -0.2950
   84MOL0     C11265   3.237   0.570  10.421  0.2143  0.0032 -0.5306
   84MOL0     C11266   3.378   0.604  10.464  0.0598 -0.4171 -0.2025
   84MOL0     C11267   3.424   0.558  10.606 -0.1606  0.1475  0.4980
   84MOL0     C11268   3.574   0.589  10.622  0.6366  0.0367 -0.0480
   84MOL0     C11269   3.642   0.501  10.719 -0.0650  0.3397 -0.4419
   84MOL0     C11270   3.693   0.425  10.796 -0.5948  0.1243  0.7375
   84MOL0     C11271   2.921   0.649  10.563 -0.8120 -0.2940 -0.0981
   84MOL0     C11272   2.779   0.634  10.549 -0.4146  0.0150 -0.3922
   84MOL0     H11273   2.410   0.230  10.300 -0.4516  0.9094  2.8760
   84MOL0     H11274   2.181   0.196  10.206 -1.8006  0.4024 -0.5900
   84MOL0     H11275   1.959   0.417  10.352  0.3620 -0.5157  0.5508
   84MOL0     H11276   1.888   0.524  10.215 -0.2107  0.8001  2.0364
   84MOL0     H11277   1.765   0.317  10.132  0.9340  1.0691 -0.7679
   84MOL0     H11278   1.822   0.237  10.283 -0.7080 -0.0818  1.9801
   84MOL0     H11279   1.593   0.293  10.338  0.1090  1.1597 -0.0388
   84MOL0     H11280   1.689   0.412  10.418  2.3232  3.2080 -0.3898
   84MOL0     H11281   1.645   0.565  10.209 -1.6742  0.1041  0.0184
   84MOL0     H11282   1.540   0.435  10.146  0.5472 -2.7913  0.1382
   84MOL0     H11283   1.400   0.461  10.345 -1.8453  0.2384 -2.9124
   84MOL0     H11284   1.513   0.598  10.404 -0.2820  2.6129 -1.0154
   84MOL0     H11285   1.444   0.728  10.222 -1.7877  0.5639 -1.2733
   84MOL0     H11286   1.373   0.585  10.137 -1.1139 -0.1714  0.0233
   84MOL0     H11287   1.171   0.591  10.306 -2.6418  2.7945  0.7328
   84MOL0     H11288   1.257   0.714  10.393 -0.4651  1.4015 -0.1056
   84MOL0     H11289   1.069   0.771  10.248  1.5692 -0.1677  0.8497
   84MOL0     H11290   1.142   0.703  10.104 -0.1805 -0.5118 -0.4826
   84MOL0     H11291   1.339   0.862   9.997  1.8848  0.1798  0.6440
   84MOL0     H11292   1.409   1.121   9.912 -0.1066 -1.1369  0.3853
   84MOL0     H11293   1.370   1.247  10.022 -0.8169  0.1610 -2.4174
   84MOL0     H11294   1.616   1.052  10.026 -0.6425 -0.6264 -0.5200
   84MOL0     H11295   1.578   1.159  10.160 -1.0825 -0.9064 -0.4656
   84MOL0     H11296   1.594   1.342  10.053 -0.6045 -3.0918  3.1547
   84MOL0     H11297   1.607   1.280   9.879 -0.0629  3.1227  0.2294
   84MOL0     H11298   1.816   1.177   9.933 -0.4840  0.5969 -1.7878
   84MOL0     H11299   1.813   1.244  10.102  0.3445  2.5960 -0.1783
   84MOL0     H11300   2.065   1.235  10.013  1.5101 -2.9116 -1.4960
   84MOL0     H11301   2.335   1.094   9.827  0.2404  0.8233  1.0942
   84MOL0     H11302   2.357   1.224   9.941 -0.4274  0.3721  0.2200
   84MOL0     H11303   2.252   1.104   9.986 -1.4851  1.1838  0.4583
   84MOL0     H11304   2.584   1.416   9.523  1.6193 -1.2686 -0.8808
   84MOL0     H11305   2.750   1.358   9.334  0.5877 -1.5023 -1.1046
   84MOL0     H11306   2.582   1.284   8.939  0.9478  0.2408 -0.4368
   84MOL0     H11307   2.675   1.426   8.976 -2.6900 -0.0097  2.8115
   84MOL0     H11308   2.769   1.165   8.858  0.0682 -0.3251 -1.4859
   84MOL0     H11309   2.786   1.322   8.795  0.4125 -0.6605  0.6003
   84MOL0     H11310   3.007   1.269   8.844  0.5605 -0.0243  0.8022
   84MOL0     H11311   2.969   1.209   9.003  1.9381 -0.3509 -0.2443
   84MOL0     H11312   2.965   1.501   8.920  0.3323 -0.0112 -1.2280
   84MOL0     H11313   2.937   1.421   9.090  1.4498  0.3480  0.6582
   84MOL0     H11314   3.201   1.438   8.929  0.7320 -2.5517  1.0832
   84MOL0     H11315   3.166   1.314   9.043 -1.8476 -0.1282  3.9774
   84MOL0     H11316   3.290   1.507   9.137  0.6508  1.5430 -0.5239
   84MOL0     H11317   3.154   1.617   9.088  1.0497 -0.6424 -1.5195
   84MOL0     H11318   3.116   1.386   9.296 -4.9986 -0.1867  1.0265
   84MOL0     H11319   3.014   1.522   9.263  0.3182  1.6221  2.4409
   84MOL0     H11320   3.129   1.558   9.457 -2.0895  0.9053 -1.9000
   84MOL0     H11321   3.187   1.668   9.337 -2.1921 -0.7942 -3.0687
   84MOL0     H11322   2.435   1.224   9.087  1.9761 -2.1641  0.8396
   84MOL0     H11323   2.260   1.281   9.268 -0.1879 -1.5995 -3.2009
   84MOL0     H11324   2.116   1.475   9.593  1.6439  0.4210  0.1209
   84MOL0     H11325   1.889   1.495   9.726  1.1079  2.1012  1.1258
   84MOL0     H11326   2.136   0.620  10.165 -0.3655  0.5150 -0.3312
   84MOL0     H11327   2.378   0.651  10.237  2.3427 -1.0635 -1.7540
   84MOL0     H11328   2.774   0.486  10.245  0.3149  3.3723 -2.2074
   84MOL0     H11329   3.020   0.533  10.264  2.1507  0.4863  1.4445
   84MOL0     H11330   3.246   0.462  10.404  1.4659  0.1500 -0.8983
   84MOL0     H11331   3.207   0.609  10.324  1.4665 -2.2285 -1.9170
   84MOL0     H11332   3.390   0.712  10.475  0.0725 -0.5388  1.2046
   84MOL0     H11333   3.440   0.553  10.390 -1.0559 -5.0426  1.6771
   84MOL0     H11334   3.396   0.452  10.604 -0.1265  0.1079  1.5852
   84MOL0     H11335   3.364   0.599  10.688  1.2161  1.6919  0.7787
   84MOL0     H11336   3.599   0.689  10.659  1.1644 -0.2166  0.2883
   84MOL0     H11337   3.634   0.571  10.532  1.3617 -0.7753  0.5769
   84MOL0     H11338   3.740   0.349  10.856  0.9162  1.7838  1.7840
   84MOL0     H11339   2.964   0.713  10.639 -2.4119  0.8373 -0.0921
   84MOL0     H11340   2.707   0.662  10.626  0.8839 -1.1710  1.3394
   85MOL0     O11341  11.030   1.102  10.984 -0.6866  0.6724 -0.2381
   85MOL0     C11342  11.047   1.232  10.979  0.6880  0.1020 -0.2742
   85MOL0     O11343  10.945   1.324  10.958 -0.4449  0.1599  0.0241
   85MOL0     C11344  10.818   1.283  10.925 -0.0098  0.0509  0.2788
   85MOL0     C11345  10.758   1.188  11.006 -0.3966  0.3578 -0.5857
   85MOL0     C11346  10.636   1.130  10.971 -0.2295  0.2199 -0.3088
   85MOL0     C11347  10.558   1.194  10.867  0.0437  1.3335 -0.2243
   85MOL0     O11348  10.439   1.145  10.841 -0.6900 -0.0416  0.3578
   85MOL0     C11349  10.342   1.247  10.853  0.8202 -0.0973  0.1138
   85MOL0     C11350  10.213   1.183  10.873  0.2942 -0.2930  0.3843
   85MOL0     C11351  10.107   1.295  10.879 -0.5474  0.1691 -0.4591
   85MOL0     C11352  10.007   1.261  10.771  0.7724 -0.7059 -0.0240
   85MOL0     C11353   9.886   1.341  10.800  0.5878 -0.4609  0.2978
   85MOL0     C11354   9.901   1.495  10.811  0.0049 -0.2738  0.3636
   85MOL0     C11355   9.771   1.572  10.775  0.2082  0.4478 -0.5440
   85MOL0     C11356   9.648   1.536  10.869  0.3867  0.2121  0.3234
   85MOL0     N11357   9.666   1.562  11.015 -0.1793 -0.0422  0.8388
   85MOL0     C11358   9.636   1.686  11.062 -0.5874 -1.7609  0.0152
   85MOL0     C11359   9.637   1.672  11.195  0.0460  0.1157  0.4832
   85MOL0     C11360   9.629   1.767  11.314 -0.9492 -0.4264  1.6320
   85MOL0     C11361   9.489   1.825  11.349 -0.6615  0.7011 -1.0254
   85MOL0     C11362   9.446   1.926  11.229  0.3186  0.1727 -0.7515
   85MOL0     C11363   9.305   1.981  11.250  0.6023  0.6213 -0.4967
   85MOL0     O11364   9.295   2.104  11.175  0.6046 -0.4100 -0.3950
   85MOL0     C11365   9.169   2.129  11.123  0.1799  0.1325  0.8581
   85MOL0     C11366   9.044   2.082  11.173 -0.6293  0.8237 -0.7708
   85MOL0     C11367   8.924   2.111  11.103  0.0517 -0.0423 -0.2022
   85MOL0     C11368   8.803   2.035  11.155  1.3226 -0.0415 -0.5118
   85MOL0     C11369   8.919   2.191  10.980  0.7339 -0.1535  0.4074
   85MOL0     C11370   8.788   2.226  10.897  0.2489  0.3221 -0.6676
   85MOL0     O11371   8.792   2.336  10.818 -0.4355  0.0799  0.6197
   85MOL0     C11372   8.679   2.368  10.733  0.2825 -0.0656 -0.3376
   85MOL0     C11373   8.604   2.278  10.652 -0.2278 -0.2237  1.2747
   85MOL0     C11374   8.501   2.320  10.571  0.4287 -0.0676 -0.0502
   85MOL0     C11375   8.468   2.453  10.554 -0.3128 -0.1889 -0.4022
   85MOL0     O11376   8.378   2.492  10.454 -0.3069 -0.3935  0.0740
   85MOL0     C11377   8.427   2.581  10.355 -0.6833 -0.1527  0.4393
   85MOL0     C11378   8.325   2.596  10.246 -0.8322 -0.3979 -0.5408
   85MOL0     C11379   8.383   2.667  10.117 -0.4542 -0.5141  0.4805
   85MOL0     C11380   8.419   2.819  10.120  0.2008  0.3687  0.9518
   85MOL0     C11381   8.457   2.877   9.986 -0.1948  0.5297  0.9331
   85MOL0     C11382   8.590   2.818   9.940 -0.5744 -0.3914 -0.1137
   85MOL0     C11383   8.659   2.899   9.822 -0.0010  0.1010  0.3383
   85MOL0     C11384   8.794   2.826   9.766  0.9328  0.6164  0.0525
   85MOL0    Cl11385   8.767   2.682   9.671 -0.0541  0.2852 -0.1195
   85MOL0     C11386   8.536   2.541  10.635  0.6191 -0.8231  0.2429
   85MOL0     C11387   8.641   2.499  10.724  0.4830  0.2456 -0.4882
   85MOL0     O11388   8.690   2.149  10.905 -0.0191  0.5926 -0.2108
   85MOL0     C11389   9.042   2.251  10.944  0.2981  0.6263 -0.4259
   85MOL0     C11390   9.157   2.215  11.009 -0.0424 -0.2593  0.4698
   85MOL0     N11391   9.664   1.540  11.226  0.4683 -0.6624 -1.4721
   85MOL0     N11392   9.683   1.474  11.119  0.8063  0.7069  0.3738
   85MOL0     C11393  10.622   1.291  10.785 -1.1228 -0.5905 -0.0594
   85MOL0     C11394  10.761   1.334  10.809 -0.4394  0.3268 -0.1703
   85MOL0     C11395  11.185   1.279  10.997 -0.1225  0.2095 -0.6396
   85MOL0     C11396  11.214   1.407  11.054  0.1789  0.3604 -0.4755
   85MOL0     C11397  11.341   1.448  11.087 -0.3519 -0.3448  1.0166
   85MOL0     C11398  11.448   1.366  11.065 -0.0929  0.9466  0.5332
   85MOL0     O11399  11.570   1.411  11.104  0.2205  0.2952 -0.2307
   85MOL0     C11400  11.685   1.325  11.091  0.6195 -0.1084  0.0437
   85MOL0     C11401  11.740   1.335  10.943  0.4372 -0.9008  0.3747
   85MOL0     C11402  11.782   1.481  10.912  0.1803  0.2751  0.2793
   85MOL0     C11403  11.831   1.505  10.772  0.1561 -0.4632 -0.9636
   85MOL0     C11404  11.733   1.482  10.668  0.1289  0.6010  1.0406
   85MOL0     C11405  11.645   1.473  10.581 -0.3866 -0.6860 -0.4483
   85MOL0     C11406  11.423   1.239  11.007 -0.1081 -0.0959 -0.4304
   85MOL0     C11407  11.298   1.200  10.973  0.5959  0.4009  0.3123
   85MOL0     H11408  10.811   1.142  11.088  0.4308  1.8668 -0.2430
   85MOL0     H11409  10.607   1.052  11.041 -0.6305 -1.2036 -1.9921
   85MOL0     H11410  10.351   1.335  10.917 -0.8790  1.2962 -1.4244
   85MOL0     H11411  10.345   1.280  10.748  2.2303 -0.5174  0.0062
   85MOL0     H11412  10.194   1.104  10.800  1.4891 -0.0609 -0.1932
   85MOL0     H11413  10.215   1.136  10.972  0.6196 -0.0433  0.5018
   85MOL0     H11414  10.058   1.294  10.977 -0.2675  1.4647 -0.2914
   85MOL0     H11415  10.158   1.391  10.865  1.0538 -0.9129 -2.7945
   85MOL0     H11416  10.051   1.279  10.672  1.2890 -2.1619 -0.0925
   85MOL0     H11417   9.969   1.159  10.784 -1.3236  0.0279 -0.0962
   85MOL0     H11418   9.813   1.318  10.721 -0.7656 -0.4021  1.4979
   85MOL0     H11419   9.844   1.306  10.894  0.7290 -0.6495  0.2914
   85MOL0     H11420   9.935   1.524  10.910 -0.7722 -2.6154  1.3833
   85MOL0     H11421   9.974   1.532  10.738 -1.4803  0.6493 -0.7297
   85MOL0     H11422   9.794   1.679  10.769 -0.5415  0.8135  1.8446
   85MOL0     H11423   9.745   1.536  10.675 -0.4105  1.9696 -0.9725
   85MOL0     H11424   9.607   1.442  10.833 -1.5740  1.3979 -0.7062
   85MOL0     H11425   9.568   1.606  10.845 -0.5188 -0.5519  1.0319
   85MOL0     H11426   9.613   1.777  11.008  0.5343  1.3420  4.2349
   85MOL0     H11427   9.671   1.720  11.403 -1.2720 -1.6723  1.1449
   85MOL0     H11428   9.697   1.849  11.287 -2.3516  0.5576  0.9672
   85MOL0     H11429   9.497   1.884  11.441  0.5941 -0.9943  0.0063
   85MOL0     H11430   9.423   1.741  11.367 -0.1520  0.1388 -1.7032
   85MOL0     H11431   9.439   1.861  11.141  0.4446  1.7435 -1.9721
   85MOL0     H11432   9.517   2.006  11.208  0.0933 -0.3375 -4.0279
   85MOL0     H11433   9.284   1.999  11.356 -1.1004 -0.5916 -0.5732
   85MOL0     H11434   9.223   1.916  11.219 -0.4883  2.7929 -2.4772
   85MOL0     H11435   9.052   2.022  11.263  0.1217 -0.2813 -1.5398
   85MOL0     H11436   8.842   1.952  11.214  0.5447 -0.1221 -0.0913
   85MOL0     H11437   8.738   2.099  11.216  0.0061 -2.6490  0.9853
   85MOL0     H11438   8.739   1.986  11.081  1.1324 -0.9174  0.2153
   85MOL0     H11439   8.629   2.173  10.659 -2.8962 -1.1530 -1.0066
   85MOL0     H11440   8.434   2.260  10.510  0.3511  0.5062 -0.5473
   85MOL0     H11441   8.434   2.675  10.410 -2.4110  0.8130 -0.8947
   85MOL0     H11442   8.522   2.539  10.319 -0.8104 -0.5380  0.5494
   85MOL0     H11443   8.262   2.507  10.236 -1.8990  0.1403  0.9867
   85MOL0     H11444   8.250   2.663  10.287 -0.7186 -0.4585 -0.2266
   85MOL0     H11445   8.302   2.645  10.046 -1.3432  3.4254  0.0228
   85MOL0     H11446   8.477   2.617  10.092 -0.3126  0.0382 -0.1220
   85MOL0     H11447   8.340   2.881  10.164 -0.9748  0.9580 -1.7682
   85MOL0     H11448   8.508   2.825  10.183  2.6759 -0.4264 -2.2293
   85MOL0     H11449   8.470   2.985   9.999  0.4867  0.4386  1.0431
   85MOL0     H11450   8.378   2.856   9.913  0.3440 -2.9232  1.1738
   85MOL0     H11451   8.666   2.810  10.018  0.2639  2.2869 -0.5496
   85MOL0     H11452   8.573   2.716   9.903  0.9580 -0.2708 -1.2179
   85MOL0     H11453   8.701   2.993   9.859 -0.0332  1.7840 -3.3698
   85MOL0     H11454   8.580   2.924   9.751 -2.3012 -0.4840  2.5706
   85MOL0     H11455   8.861   2.809   9.852  2.2409  1.3869 -0.7760
   85MOL0     H11456   8.841   2.895   9.696 -0.5628  0.0904 -1.5411
   85MOL0     H11457   8.515   2.646  10.623 -4.7435 -1.6915 -0.2437
   85MOL0     H11458   8.684   2.573  10.790 -1.3581 -0.2135  1.3269
   85MOL0     H11459   9.044   2.319  10.859  0.7508  1.6450  0.3868
   85MOL0     H11460   9.248   2.254  10.967  1.5019 -3.6582  0.3485
   85MOL0     H11461  10.563   1.322  10.700 -1.8468 -1.4206  0.1240
   85MOL0     H11462  10.817   1.404  10.748  1.3203 -1.4253 -0.6499
   85MOL0     H11463  11.130   1.475  11.068 -1.7006 -0.9180 -4.1318
   85MOL0     H11464  11.351   1.548  11.126 -0.1117  0.0942 -0.1372
   85MOL0     H11465  11.762   1.345  11.166  1.2610  2.9380 -1.2633
   85MOL0     H11466  11.650   1.224  11.111 -2.7919  0.5201 -1.8761
   85MOL0     H11467  11.663   1.298  10.874 -1.2203  2.0318  0.4817
   85MOL0     H11468  11.831   1.275  10.950  1.0873  0.2573  3.2302
   85MOL0     H11469  11.865   1.501  10.980 -0.6864  1.0850  1.1233
   85MOL0     H11470  11.707   1.558  10.932  2.1978  2.9491 -1.6206
   85MOL0     H11471  11.918   1.448  10.737  0.4689 -1.3462  1.0978
   85MOL0     H11472  11.870   1.608  10.774 -0.0998 -0.3552  1.2113
   85MOL0     H11473  11.570   1.466  10.505  0.1391  1.4078 -1.2336
   85MOL0     H11474  11.495   1.160  10.990  0.7009  0.3299  0.9067
   85MOL0     H11475  11.289   1.100  10.933  0.7993 -0.6511  2.7188
   86MOL0     O11476   7.096   9.457   9.701  0.5411 -0.2195 -0.1363
   86MOL0     C11477   7.032   9.550   9.646 -0.3640  0.0124  0.2130
   86MOL0     O11478   7.085   9.667   9.603 -0.6799  0.3844  0.4777
   86MOL0     C11479   7.218   9.700   9.598 -0.0779 -0.2469 -0.4109
   86MOL0     C11480   7.323   9.643   9.662 -0.3743 -0.9837 -1.0451
   86MOL0     C11481   7.454   9.691   9.639 -0.1756  0.8038  0.6342
   86MOL0     C11482   7.480   9.800   9.549  0.6449 -0.0691 -0.0861
   86MOL0     O11483   7.607   9.836   9.513  0.0794 -0.4669 -0.1751
   86MOL0     C11484   7.726   9.752   9.523 -0.1578  0.0101 -0.1604
   86MOL0     C11485   7.839   9.815   9.436 -1.1364  0.7674  0.1889
   86MOL0     C11486   7.917   9.917   9.530  0.3042  0.6146  0.0364
   86MOL0     C11487   7.991  10.013   9.441 -0.5575  0.0090 -0.2982
   86MOL0     C11488   7.907  10.114   9.354  0.5275  1.1794 -0.8665
   86MOL0     C11489   7.806  10.203   9.428  0.5360  0.1707  0.2017
   86MOL0     C11490   7.737  10.310   9.334  1.0908 -0.5519  0.1908
   86MOL0     C11491   7.626  10.388   9.396  0.1674 -0.3999 -0.9221
   86MOL0     N11492   7.526  10.310   9.465  0.7982 -0.6445 -1.1927
   86MOL0     C11493   7.536  10.283   9.596  0.8057  0.6939 -0.5198
   86MOL0     C11494   7.407  10.283   9.644  0.3657  0.4601  0.9648
   86MOL0     C11495   7.359  10.265   9.789 -0.3655  0.4160 -0.2663
   86MOL0     C11496   7.325  10.114   9.822  0.0772 -0.4753 -0.5280
   86MOL0     C11497   7.199  10.072   9.744 -0.5800  0.7902 -0.7386
   86MOL0     C11498   7.151   9.941   9.802 -0.1900  0.7238  0.5132
   86MOL0     O11499   7.084   9.962   9.929 -0.2839  0.5159  0.1532
   86MOL0     C11500   6.980   9.880   9.969 -0.6282  0.4393  0.3879
   86MOL0     C11501   6.971   9.827  10.096 -0.5683  0.1328 -0.4781
   86MOL0     C11502   6.863   9.755  10.140 -0.4590 -0.5457  0.0602
   86MOL0     C11503   6.885   9.702  10.285 -1.0146  0.1238 -0.3289
   86MOL0     C11504   6.752   9.740  10.051 -0.2430  0.4302  0.2802
   86MOL0     C11505   6.634   9.655  10.077  0.4915  0.5665  0.0431
   86MOL0     O11506   6.628   9.581  10.194  0.2029 -0.5077  0.0187
   86MOL0     C11507   6.502   9.537  10.229 -0.6194  0.5238  0.6104
   86MOL0     C11508   6.469   9.401  10.225  0.2037 -0.1324 -0.5019
   86MOL0     C11509   6.346   9.355  10.251  0.2512 -0.3006  0.1387
   86MOL0     C11510   6.250   9.446  10.310  0.5690 -0.0622  0.4685
   86MOL0     O11511   6.125   9.404  10.362  0.4240 -0.4757  0.0427
   86MOL0     C11512   6.069   9.280  10.329 -0.7572  0.1465 -0.4902
   86MOL0     C11513   6.035   9.253  10.189  0.1123 -0.3147  0.1464
   86MOL0     C11514   5.951   9.360  10.122  0.2572 -0.0579  1.3070
   86MOL0     C11515   5.965   9.354   9.971  0.7461  0.0718 -0.6033
   86MOL0     C11516   5.844   9.429   9.906 -0.1548 -0.2067 -0.4476
   86MOL0     C11517   5.730   9.339   9.862  0.0713  0.1705 -0.2483
   86MOL0     C11518   5.624   9.407   9.771 -0.1570 -0.9559 -0.1294
   86MOL0     C11519   5.515   9.305   9.743 -0.0761  0.2926 -0.4307
   86MOL0    Cl11520   5.568   9.159   9.653  0.1946 -0.1032  0.2372
   86MOL0     C11521   6.268   9.581  10.310 -0.2342  0.6881 -0.6580
   86MOL0     C11522   6.403   9.626  10.267 -0.4629 -0.0417  0.5371
   86MOL0     O11523   6.550   9.654   9.989  0.0771  0.3072 -0.4935
   86MOL0     C11524   6.763   9.796   9.925 -0.0578 -0.2917 -0.1659
   86MOL0     C11525   6.875   9.869   9.882  0.1574  0.1552  0.3038
   86MOL0     N11526   7.321  10.304   9.539 -0.5849 -0.0763 -0.2389
   86MOL0     N11527   7.393  10.321   9.434 -0.7812 -0.2156 -0.1474
   86MOL0     C11528   7.367   9.859   9.490  0.5313 -1.5767 -1.3623
   86MOL0     C11529   7.239   9.809   9.509  0.1082  0.5413 -0.1707
   86MOL0     C11530   6.882   9.551   9.650 -0.4483  0.1109 -0.1297
   86MOL0     C11531   6.798   9.658   9.613 -0.2006 -0.1182  0.7106
   86MOL0     C11532   6.661   9.650   9.624  0.8152 -0.2108 -0.4605
   86MOL0     C11533   6.601   9.536   9.666  0.0702  0.5147  1.1760
   86MOL0     O11534   6.464   9.512   9.673 -0.1203 -0.6209  0.1604
   86MOL0     C11535   6.386   9.622   9.645  0.5077  0.0970  0.8793
   86MOL0     C11536   6.245   9.606   9.698 -0.4926  0.0654  0.2418
   86MOL0     C11537   6.175   9.740   9.708 -1.2252  0.3286 -0.5816
   86MOL0     C11538   6.025   9.735   9.727 -0.5865 -0.2736  1.3921
   86MOL0     C11539   5.963   9.654   9.616  0.6127  0.6934  0.7823
   86MOL0     C11540   5.921   9.602   9.514 -0.4527  0.1855 -0.3108
   86MOL0     C11541   6.681   9.429   9.684 -0.4542 -0.2211 -0.3797
   86MOL0     C11542   6.817   9.436   9.675  0.0788  0.6555  0.0296
   86MOL0     H11543   7.316   9.557   9.728  0.2572  0.1027  0.5087
   86MOL0     H11544   7.543   9.646   9.682  1.4486  1.9199 -1.3744
   86MOL0     H11545   7.762   9.734   9.625 -2.0851 -3.4824  0.0563
   86MOL0     H11546   7.696   9.652   9.490  0.0191 -0.3610  0.7704
   86MOL0     H11547   7.912   9.742   9.401 -3.4605 -1.4863 -0.2648
   86MOL0     H11548   7.800   9.867   9.348  0.1971 -1.2019 -1.6405
   86MOL0     H11549   7.852   9.970   9.601 -0.2336 -3.0728  2.5480
   86MOL0     H11550   7.987   9.862   9.593 -0.0208  1.5637  1.2712
   86MOL0     H11551   8.056  10.074   9.505  1.4210 -1.7926 -0.4710
   86MOL0     H11552   8.059   9.963   9.372  1.1353  3.6299 -1.5491
   86MOL0     H11553   7.981  10.187   9.319  2.3453  0.2537  0.8289
   86MOL0     H11554   7.865  10.066   9.266  0.0039  0.2969 -0.1599
   86MOL0     H11555   7.724  10.135   9.454  2.1898 -1.3736  1.6788
   86MOL0     H11556   7.855  10.254   9.512 -1.3316 -0.2850  1.6415
   86MOL0     H11557   7.810  10.383   9.298  0.3431  0.2960  0.3807
   86MOL0     H11558   7.692  10.251   9.253  0.2990 -1.1249  1.0282
   86MOL0     H11559   7.568  10.453   9.330 -0.1407 -0.8638 -1.1162
   86MOL0     H11560   7.667  10.463   9.465 -1.5120  0.8448 -1.2120
   86MOL0     H11561   7.624  10.268   9.657  0.9574  1.6994 -0.4800
   86MOL0     H11562   7.443  10.300   9.849  1.4319 -1.2475 -1.7135
   86MOL0     H11563   7.266  10.320   9.808 -1.7974 -2.5329  2.1434
   86MOL0     H11564   7.319  10.107   9.931  1.2068  2.6395 -0.1800
   86MOL0     H11565   7.399  10.040   9.791 -0.8885 -1.4742 -0.5423
   86MOL0     H11566   7.223  10.060   9.637 -0.2524  2.7615 -0.9350
   86MOL0     H11567   7.128  10.153   9.763  0.6214  1.6396  0.2584
   86MOL0     H11568   7.236   9.874   9.819 -0.3973  0.0917 -0.7740
   86MOL0     H11569   7.092   9.883   9.730 -1.1805  1.7258  0.4905
   86MOL0     H11570   7.061   9.851  10.152 -0.2297 -0.3180 -0.8273
   86MOL0     H11571   6.793   9.700  10.343 -1.3416  1.1038 -0.7845
   86MOL0     H11572   6.926   9.601  10.285  2.7504  1.4703  0.6948
   86MOL0     H11573   6.961   9.758  10.339 -1.3443 -1.2251  1.6248
   86MOL0     H11574   6.541   9.333  10.181  0.0293 -0.2449 -0.6177
   86MOL0     H11575   6.324   9.251  10.227 -3.4087 -0.4964  3.3421
   86MOL0     H11576   6.147   9.206  10.351 -1.2249  0.6055  3.4394
   86MOL0     H11577   5.983   9.266  10.395 -0.7485  0.6840 -0.3582
   86MOL0     H11578   6.126   9.232  10.132 -0.2990  0.8373 -0.9671
   86MOL0     H11579   5.987   9.155  10.184 -1.0726  0.3255 -2.4211
   86MOL0     H11580   5.961   9.463  10.157 -0.2433  0.7237 -0.7124
   86MOL0     H11581   5.852   9.317  10.139 -0.0680 -2.1887 -3.8572
   86MOL0     H11582   6.062   9.397   9.945  0.6961  1.5681  1.4895
   86MOL0     H11583   5.967   9.249   9.941 -0.9389 -0.5283  1.2076
   86MOL0     H11584   5.881   9.479   9.817  0.3915  0.6954  0.2629
   86MOL0     H11585   5.815   9.501   9.983  1.5139 -0.6331  0.6394
   86MOL0     H11586   5.777   9.249   9.824  1.5826  0.4745  0.8122
   86MOL0     H11587   5.695   9.308   9.962  2.9146  1.2548  1.1761
   86MOL0     H11588   5.656   9.457   9.679 -1.6448  0.3491  0.0140
   86MOL0     H11589   5.576   9.488   9.827  1.1299  0.0640 -0.4385
   86MOL0     H11590   5.428   9.348   9.692  2.8985  2.1531 -4.4275
   86MOL0     H11591   5.478   9.282   9.844  0.6935  2.6686  0.4683
   86MOL0     H11592   6.192   9.646  10.353  0.4475  1.5794 -0.7596
   86MOL0     H11593   6.426   9.733  10.268  1.7885 -0.4679  0.6883
   86MOL0     H11594   6.678   9.797   9.858  0.7497  0.4502 -1.2249
   86MOL0     H11595   6.862   9.917   9.785 -1.4312 -0.5479  0.1335
   86MOL0     H11596   7.388   9.931   9.411 -1.3475  2.2014  1.2722
   86MOL0     H11597   7.160   9.835   9.439 -1.4884 -0.3837  1.2153
   86MOL0     H11598   6.845   9.750   9.582 -0.0536  0.1477  1.6680
   86MOL0     H11599   6.605   9.729   9.575  1.0475  0.8346  0.8951
   86MOL0     H11600   6.426   9.715   9.687  1.0012  0.6751 -0.7620
   86MOL0     H11601   6.383   9.639   9.537  1.2678 -0.0111  0.8317
   86MOL0     H11602   6.246   9.564   9.799 -0.4252  1.8282  1.0065
   86MOL0     H11603   6.197   9.531   9.634  0.9766 -1.3938  0.7796
   86MOL0     H11604   6.204   9.797   9.619  0.6766  1.1802  0.4991
   86MOL0     H11605   6.217   9.796   9.793  0.2759 -3.0948  1.1396
   86MOL0     H11606   5.983   9.836   9.718 -1.5474 -0.7960 -0.4230
   86MOL0     H11607   6.002   9.685   9.821  3.3901 -0.3692  2.4935
   86MOL0     H11608   5.895   9.548   9.425  0.4106 -1.2932  0.2986
   86MOL0     H11609   6.636   9.332   9.700 -2.9982  1.1561  1.6131
   86MOL0     H11610   6.870   9.344   9.696  0.0343  1.1543  2.6734
   87MOL0     O11611   4.280  10.637   6.834  0.0453 -0.4972 -0.1929
   87MOL0     C11612   4.357  10.555   6.881  0.4954 -0.1329 -0.1147
   87MOL0     O11613   4.332  10.426   6.922 -0.1936 -0.2918  0.3642
   87MOL0     C11614   4.201  10.393   6.935  0.7206 -0.2555  0.4973
   87MOL0     C11615   4.115  10.490   7.001  0.3731  0.5963  0.4824
   87MOL0     C11616   3.984  10.452   7.023  0.1042  0.1889  0.4277
   87MOL0     C11617   3.931  10.324   6.987 -0.1156 -0.0699  1.2051
   87MOL0     O11618   3.797  10.306   7.008 -0.6066  1.0783  0.3503
   87MOL0     C11619   3.720  10.207   6.934 -0.0933  0.4983  0.2954
   87MOL0     C11620   3.575  10.246   6.980  0.0649 -0.0882  0.1537
   87MOL0     C11621   3.475  10.138   6.947 -0.3180  1.3115  0.8025
   87MOL0     C11622   3.416  10.132   6.798 -0.3728 -0.3198 -0.5212
   87MOL0     C11623   3.508  10.115   6.680  0.3793  0.9869 -0.3523
   87MOL0     C11624   3.575   9.975   6.685  0.3015  0.1915 -0.3772
   87MOL0     C11625   3.653   9.956   6.555  0.1324 -0.7721 -0.6363
   87MOL0     C11626   3.796  10.002   6.567 -0.2561 -0.0810 -0.3576
   87MOL0     N11627   3.880   9.896   6.632 -0.6046 -0.2435 -0.1492
   87MOL0     C11628   3.978   9.832   6.570  0.0518 -0.0157  0.3985
   87MOL0     C11629   4.044   9.769   6.669  0.1119 -1.0606  1.0409
   87MOL0     C11630   4.172   9.684   6.662 -0.4253  0.7196 -0.2751
   87MOL0     C11631   4.281   9.761   6.747  0.2712 -1.0489 -0.4531
   87MOL0     C11632   4.337   9.882   6.679 -0.0520  0.4419  0.2733
   87MOL0     C11633   4.453   9.942   6.764  0.5348  0.3207 -0.5415
   87MOL0     O11634   4.427   9.980   6.901  0.3496  0.9813 -1.1384
   87MOL0     C11635   4.530  10.030   6.985 -0.5303  0.0816 -0.1675
   87MOL0     C11636   4.653  10.067   6.927  0.4334 -1.0068 -0.5488
   87MOL0     C11637   4.744  10.130   7.017  0.0774 -0.2262  0.1741
   87MOL0     C11638   4.884  10.152   6.966 -0.7132 -0.1635  0.0490
   87MOL0     C11639   4.706  10.164   7.153 -0.7557  0.4553  0.7420
   87MOL0     C11640   4.803  10.214   7.261  0.6422  0.2741 -0.1100
   87MOL0     O11641   4.771  10.204   7.396  0.2816  0.0466  0.0920
   87MOL0     C11642   4.862  10.257   7.486 -0.2916  0.7309  0.2848
   87MOL0     C11643   4.841  10.381   7.544  0.0299  0.6743  0.8206
   87MOL0     C11644   4.945  10.433   7.627 -0.2390  0.5646  0.3012
   87MOL0     C11645   5.063  10.362   7.649 -0.1601 -0.0860  1.0325
   87MOL0     O11646   5.156  10.430   7.723  0.4311 -0.6569 -0.5436
   87MOL0     C11647   5.232  10.350   7.815  0.0063  0.2548 -0.1601
   87MOL0     C11648   5.335  10.410   7.909  0.0941 -0.1978 -0.2533
   87MOL0     C11649   5.469  10.446   7.839 -0.0095  0.2254 -0.5753
   87MOL0     C11650   5.445  10.544   7.713 -0.4311  0.2565 -0.5086
   87MOL0     C11651   5.578  10.596   7.659 -0.4403 -0.6265  0.0682
   87MOL0     C11652   5.552  10.698   7.540 -1.0262 -0.6615  0.4566
   87MOL0     C11653   5.500  10.826   7.601  0.7442  0.7693  0.2076
   87MOL0     C11654   5.411  10.887   7.487 -1.5494 -0.8762  0.1072
   87MOL0    Cl11655   5.245  10.835   7.484  0.1058  0.1360 -0.5950
   87MOL0     C11656   5.078  10.228   7.597 -0.1049  0.5788 -0.6808
   87MOL0     C11657   4.974  10.176   7.516  0.1644 -0.9434  0.2535
   87MOL0     O11658   4.902  10.272   7.218 -0.5423  0.2029 -0.0074
   87MOL0     C11659   4.575  10.139   7.198 -0.7410 -1.1754  0.2947
   87MOL0     C11660   4.495  10.064   7.112  0.3306  0.2490 -0.1739
   87MOL0     N11661   3.962   9.782   6.782 -0.3360  0.1124 -0.6517
   87MOL0     N11662   3.867   9.865   6.763 -0.5441 -0.1319  0.5322
   87MOL0     C11663   4.020  10.237   6.922  0.2205  0.0981 -0.2578
   87MOL0     C11664   4.154  10.263   6.905 -0.1135 -0.3101 -0.8073
   87MOL0     C11665   4.501  10.572   6.858  0.2018  0.1602 -0.7850
   87MOL0     C11666   4.559  10.660   6.764 -0.1536  0.2698  0.8634
   87MOL0     C11667   4.703  10.656   6.744 -0.5151  0.3576  0.2974
   87MOL0     C11668   4.790  10.582   6.822 -0.7308  0.2061  0.6733
   87MOL0     O11669   4.925  10.602   6.800  0.6086  0.3498  0.9343
   87MOL0     C11670   5.036  10.551   6.880  0.5478  0.0885  0.1838
   87MOL0     C11671   5.138  10.665   6.890  0.5916 -0.4050  0.1146
   87MOL0     C11672   5.190  10.711   6.750  0.3579  0.1148  0.0464
   87MOL0     C11673   5.277  10.602   6.678 -0.3570 -0.2736  0.7670
   87MOL0     C11674   5.351  10.674   6.566 -0.2383 -0.1997  0.1570
   87MOL0     C11675   5.407  10.757   6.504  0.3257 -0.1070  0.0696
   87MOL0     C11676   4.728  10.508   6.918  0.4587  0.1919 -0.5329
   87MOL0     C11677   4.589  10.494   6.938  0.3032  0.6440 -0.1927
   87MOL0     H11678   4.151  10.587   7.034 -0.3715  1.0813 -0.1031
   87MOL0     H11679   3.920  10.527   7.069 -1.0676  1.5808 -3.1380
   87MOL0     H11680   3.737  10.221   6.827  4.2072 -0.7836  0.5931
   87MOL0     H11681   3.743  10.103   6.961 -1.7340  0.1760  0.5814
   87MOL0     H11682   3.562  10.264   7.087 -1.4777  2.6033 -0.3958
   87MOL0     H11683   3.551  10.334   6.919  2.7097  0.6268  0.0481
   87MOL0     H11684   3.520  10.040   6.967  0.1759  1.6429  1.3410
   87MOL0     H11685   3.385  10.144   7.009 -0.5742 -1.7677  0.9266
   87MOL0     H11686   3.342  10.052   6.808 -0.3690 -0.2515  0.1132
   87MOL0     H11687   3.371  10.231   6.790  2.3624  1.4277  2.8395
   87MOL0     H11688   3.447  10.120   6.589 -0.7179  2.2378  0.4255
   87MOL0     H11689   3.582  10.195   6.673  1.0820  0.2194 -2.7275
   87MOL0     H11690   3.632   9.958   6.777  0.5717  1.0566 -0.3838
   87MOL0     H11691   3.506   9.891   6.699  0.7411  0.0733  1.3899
   87MOL0     H11692   3.657   9.852   6.522 -0.6310 -1.4005  1.1483
   87MOL0     H11693   3.598  10.011   6.478  1.0118 -0.3037 -0.9410
   87MOL0     H11694   3.816  10.091   6.626  0.1301 -0.7121  0.4900
   87MOL0     H11695   3.822  10.015   6.461 -1.4194 -0.4854 -0.7209
   87MOL0     H11696   4.015   9.837   6.469 -1.4711  0.1942 -0.1751
   87MOL0     H11697   4.160   9.591   6.719  1.2970  1.8907  2.1944
   87MOL0     H11698   4.204   9.669   6.558 -0.4096  0.1569 -0.1943
   87MOL0     H11699   4.363   9.696   6.780  0.0480 -2.4300 -2.4410
   87MOL0     H11700   4.236   9.801   6.838  2.0587  0.6368 -0.2507
   87MOL0     H11701   4.274   9.971   6.680  2.0010  2.1320 -2.6829
   87MOL0     H11702   4.382   9.856   6.583  0.3409 -1.6169  0.9556
   87MOL0     H11703   4.477  10.030   6.705  2.7170 -1.4387 -2.4753
   87MOL0     H11704   4.537   9.873   6.750 -0.7279 -2.0259  2.3031
   87MOL0     H11705   4.679  10.030   6.828 -0.5909  0.8553 -1.5656
   87MOL0     H11706   4.900  10.260   6.968 -0.2007 -0.2395  0.1736
   87MOL0     H11707   4.963  10.114   7.032  0.8816  0.8057 -1.2308
   87MOL0     H11708   4.897  10.108   6.866  1.3215  0.7378 -0.1393
   87MOL0     H11709   4.751  10.432   7.513 -0.1297 -0.2424 -0.2881
   87MOL0     H11710   4.936  10.533   7.668  2.8313  0.9550  0.2004
   87MOL0     H11711   5.164  10.290   7.876 -1.4208  0.2940 -1.6449
   87MOL0     H11712   5.294  10.281   7.755 -1.0112  0.0044 -0.9482
   87MOL0     H11713   5.291  10.501   7.951 -0.1399 -0.2313 -0.4282
   87MOL0     H11714   5.368  10.340   7.986 -0.3649  0.2537  0.3635
   87MOL0     H11715   5.524  10.358   7.805 -1.8201 -0.9532 -0.5742
   87MOL0     H11716   5.524  10.505   7.913 -1.7163  1.3946 -0.1895
   87MOL0     H11717   5.419  10.483   7.626  3.6178 -0.8500 -1.1978
   87MOL0     H11718   5.366  10.617   7.729  0.8213  2.3227 -3.0244
   87MOL0     H11719   5.645  10.514   7.633 -0.0208 -1.2824  2.9481
   87MOL0     H11720   5.629  10.639   7.745 -0.7539 -3.2341  1.6401
   87MOL0     H11721   5.640  10.722   7.480 -1.0515  0.6593  0.9194
   87MOL0     H11722   5.476  10.651   7.476  0.2347 -0.9327 -0.8923
   87MOL0     H11723   5.591  10.882   7.625  0.0855  2.1386 -0.3668
   87MOL0     H11724   5.435  10.811   7.688  1.5289 -3.3530  0.2637
   87MOL0     H11725   5.452  10.875   7.387 -1.9788  0.7553 -0.3013
   87MOL0     H11726   5.413  10.996   7.496  2.3621 -0.8300  0.7103
   87MOL0     H11727   5.168  10.176   7.626  0.4931  0.0079 -3.3029
   87MOL0     H11728   4.992  10.079   7.472  0.9192 -2.8819  4.3150
   87MOL0     H11729   4.539  10.180   7.292 -4.4867 -0.5850 -1.1887
   87MOL0     H11730   4.394  10.042   7.145 -0.0816 -2.8222 -3.0222
   87MOL0     H11731   3.975  10.141   6.905 -0.9187  0.3308  1.2448
   87MOL0     H11732   4.225  10.191   6.865  0.3224  2.0632 -4.7978
   87MOL0     H11733   4.501  10.715   6.691  1.4870 -1.5597 -1.9701
   87MOL0     H11734   4.745  10.721   6.668 -1.2990  1.7406  1.0047
   87MOL0     H11735   4.995  10.545   6.981 -0.0519  3.4280  0.2667
   87MOL0     H11736   5.076  10.453   6.852 -2.8707 -1.5972  0.7388
   87MOL0     H11737   5.223  10.637   6.952 -0.7115 -0.8667  1.7761
   87MOL0     H11738   5.093  10.747   6.946 -0.0891 -1.7038  1.5454
   87MOL0     H11739   5.257  10.794   6.773 -1.9751  2.3845 -0.8549
   87MOL0     H11740   5.114  10.753   6.684  0.8000  1.3627  0.3098
   87MOL0     H11741   5.213  10.522   6.641  0.9478 -0.3369 -1.5672
   87MOL0     H11742   5.351  10.553   6.741  0.4257 -0.6566 -0.4130
   87MOL0     H11743   5.475  10.817   6.446 -0.2725 -0.5492 -1.1140
   87MOL0     H11744   4.778  10.446   6.992 -3.1226 -2.1410  0.1816
   87MOL0     H11745   4.543  10.438   7.018 -1.1003  2.4254  0.3106
   88MOL0     O11746  10.340   0.360   6.730 -0.7512  0.3572  0.2216
   88MOL0     C11747  10.318   0.476   6.764 -0.7033 -0.5650 -0.0234
   88MOL0     O11748  10.411   0.572   6.811  0.5606 -0.2972  0.0569
   88MOL0     C11749  10.521   0.523   6.873  0.1660 -0.7580 -0.5297
   88MOL0     C11750  10.648   0.543   6.819 -0.4338  0.1445 -0.4664
   88MOL0     C11751  10.763   0.490   6.890 -0.0832  0.4177  0.5066
   88MOL0     C11752  10.753   0.427   7.014  0.5314  1.1581  0.6859
   88MOL0     O11753  10.853   0.370   7.085 -0.6012  0.0426  0.5357
   88MOL0     C11754  10.841   0.344   7.229  0.2138  0.3483 -0.1375
   88MOL0     C11755  10.977   0.319   7.294  0.8774 -0.9719 -0.2618
   88MOL0     C11756  11.055   0.198   7.229  0.0596  0.1524 -0.4660
   88MOL0     C11757  11.186   0.171   7.302  0.4440  0.3231  0.3007
   88MOL0     C11758  11.272   0.059   7.237  0.9024 -0.2353  0.4060
   88MOL0     C11759  11.394   0.033   7.318  0.1756 -0.5457  0.4410
   88MOL0     C11760  11.502  -0.057   7.246  1.0535 -0.4654 -0.2129
   88MOL0     C11761  11.611  -0.091   7.349  0.3563 -0.0138  0.5567
   88MOL0     N11762  11.723  -0.158   7.285  0.3607  0.1997  0.6374
   88MOL0     C11763  11.821  -0.088   7.228  0.1972 -0.4237 -0.1788
   88MOL0     C11764  11.928  -0.175   7.228  0.2889  0.1700  0.2401
   88MOL0     C11765  12.049  -0.176   7.150 -0.1724  0.7575 -0.2616
   88MOL0     C11766  12.039  -0.251   7.017 -0.2689 -0.2759 -0.4479
   88MOL0     C11767  11.953  -0.163   6.929  0.0980 -0.4730 -0.0886
   88MOL0     C11768  11.945  -0.211   6.784  0.0896  0.0272  0.0872
   88MOL0     O11769  11.858  -0.134   6.698 -0.2457  0.0494 -0.2806
   88MOL0     C11770  11.723  -0.164   6.675  0.2615 -0.9204  0.1779
   88MOL0     C11771  11.657  -0.075   6.585 -0.3784  0.8021 -0.1901
   88MOL0     C11772  11.516  -0.080   6.563 -0.1051 -0.4996  0.1743
   88MOL0     C11773  11.457   0.004   6.448  0.4161  0.3922 -0.4008
   88MOL0     C11774  11.443  -0.184   6.625  1.1582 -0.0284 -0.1818
   88MOL0     C11775  11.301  -0.216   6.618  0.0234 -0.4898  0.3253
   88MOL0     O11776  11.244  -0.261   6.726 -0.2233 -0.0698 -0.4732
   88MOL0     C11777  11.113  -0.313   6.723 -0.5480 -0.6128 -1.0272
   88MOL0     C11778  11.086  -0.439   6.780  0.5321 -0.3274 -0.4593
   88MOL0     C11779  10.967  -0.510   6.775 -0.3217 -0.2973 -0.3154
   88MOL0     C11780  10.867  -0.444   6.693  0.4233 -0.4909 -1.0750
   88MOL0     O11781  10.752  -0.508   6.681  0.1773  0.1087  0.1555
   88MOL0     C11782  10.658  -0.463   6.574  0.4460 -0.1161  0.1565
   88MOL0     C11783  10.545  -0.566   6.555 -0.4356  0.3496  0.2289
   88MOL0     C11784  10.583  -0.709   6.503 -0.6712 -1.1128 -0.5095
   88MOL0     C11785  10.675  -0.708   6.383 -0.0472  0.4706 -0.4965
   88MOL0     C11786  10.663  -0.840   6.301 -0.3970 -0.3579  0.2649
   88MOL0     C11787  10.717  -0.962   6.377 -0.5301 -0.1941 -0.6859
   88MOL0     C11788  10.870  -0.948   6.392  0.2145  1.0308 -0.2733
   88MOL0     C11789  10.933  -1.085   6.437 -0.9779  0.5450  0.7392
   88MOL0    Cl11790  10.926  -1.217   6.321  0.5155  0.0839  0.8046
   88MOL0     C11791  10.888  -0.318   6.633  0.4094 -0.7415  0.1302
   88MOL0     C11792  11.006  -0.249   6.652  0.3893  0.0774 -0.5137
   88MOL0     O11793  11.252  -0.211   6.505  1.4249 -0.5541 -0.0915
   88MOL0     C11794  11.511  -0.264   6.718  0.2918  0.4464 -0.4431
   88MOL0     C11795  11.649  -0.252   6.743  0.7435 -0.4127 -0.5791
   88MOL0     N11796  11.883  -0.297   7.293  1.0914  0.0480  0.1633
   88MOL0     N11797  11.761  -0.284   7.325  0.2123 -0.2266  0.0484
   88MOL0     C11798  10.621   0.407   7.057 -0.2684 -0.7598 -0.3773
   88MOL0     C11799  10.510   0.456   6.988 -0.1267  0.2313 -0.1725
   88MOL0     C11800  10.169   0.522   6.737 -0.6155  0.2952 -1.6921
   88MOL0     C11801  10.059   0.438   6.741 -0.1189 -0.2281  0.2793
   88MOL0     C11802   9.926   0.481   6.722  0.6132  0.4290  0.1069
   88MOL0     C11803   9.900   0.606   6.684 -0.8890 -0.1579 -0.2798
   88MOL0     O11804   9.772   0.651   6.657  0.3840  0.1114 -0.2702
   88MOL0     C11805   9.682   0.575   6.565 -0.2548  0.6979 -0.2366
   88MOL0     C11806   9.608   0.671   6.472 -0.2554  0.2786 -0.2864
   88MOL0     C11807   9.484   0.723   6.535 -0.2258 -1.1352  0.3764
   88MOL0     C11808   9.510   0.818   6.656  0.2819  0.2489 -0.4582
   88MOL0     C11809   9.400   0.913   6.656  0.8824  1.1203  0.3366
   88MOL0     C11810   9.316   0.992   6.665  0.1991 -0.8458 -0.1415
   88MOL0     C11811  10.013   0.699   6.697  0.1519 -0.2004  0.2009
   88MOL0     C11812  10.143   0.657   6.726  0.5350 -0.6518 -0.5184
   88MOL0     H11813  10.644   0.592   6.722 -3.6939  2.2665  0.5770
   88MOL0     H11814  10.860   0.501   6.843 -0.5419 -0.0635 -0.5885
   88MOL0     H11815  10.797   0.434   7.273  1.1303  0.5806  0.3289
   88MOL0     H11816  10.767   0.265   7.250  0.1657  0.7041  1.1037
   88MOL0     H11817  11.040   0.408   7.297 -0.7581  0.3135  4.7448
   88MOL0     H11818  10.947   0.302   7.397 -0.4339  5.7296  0.8865
   88MOL0     H11819  10.988   0.115   7.255  0.2086  0.9264  2.8846
   88MOL0     H11820  11.059   0.205   7.120  3.3505 -1.6991 -0.6038
   88MOL0     H11821  11.240   0.265   7.316 -0.2527  0.7310  0.3124
   88MOL0     H11822  11.153   0.137   7.400 -2.7834  0.5308 -0.5866
   88MOL0     H11823  11.220  -0.036   7.221 -0.3252  0.6230 -1.0473
   88MOL0     H11824  11.317   0.094   7.144 -1.0981 -2.2185 -1.4542
   88MOL0     H11825  11.440   0.128   7.347 -1.7351  0.9571 -1.1712
   88MOL0     H11826  11.376  -0.030   7.406  3.2947 -2.3138 -0.0677
   88MOL0     H11827  11.454  -0.143   7.197  0.9708 -0.5790  0.0629
   88MOL0     H11828  11.559   0.001   7.174  2.3066  1.1981  2.0035
   88MOL0     H11829  11.579  -0.136   7.444  4.1977  0.9866  2.5464
   88MOL0     H11830  11.648   0.007   7.382  0.0878  0.8030 -1.4627
   88MOL0     H11831  11.804  -0.000   7.166 -3.2514  0.2653  1.4876
   88MOL0     H11832  12.086  -0.073   7.154 -0.9453  1.0206  3.2446
   88MOL0     H11833  12.121  -0.235   7.206 -1.4011  0.7173  1.3432
   88MOL0     H11834  11.998  -0.352   7.021  1.1825 -0.9441 -1.3557
   88MOL0     H11835  12.142  -0.259   6.981  0.8295  2.3835  1.7000
   88MOL0     H11836  11.986  -0.060   6.909  0.3306 -0.6044 -0.3992
   88MOL0     H11837  11.851  -0.166   6.967  0.1362 -3.0403 -0.0012
   88MOL0     H11838  11.916  -0.317   6.782 -0.4981  0.2007 -0.6844
   88MOL0     H11839  12.043  -0.192   6.739  0.3194 -0.6036  0.3042
   88MOL0     H11840  11.727  -0.004   6.542 -0.9084  0.5045 -1.5959
   88MOL0     H11841  11.350   0.025   6.459  0.4354  0.1414  0.2850
   88MOL0     H11842  11.498   0.106   6.452  0.2627  0.4545  3.3388
   88MOL0     H11843  11.476  -0.037   6.349  0.9537  1.0318 -0.5682
   88MOL0     H11844  11.170  -0.482   6.833  0.3154  0.2693  0.3851
   88MOL0     H11845  10.944  -0.600   6.831 -2.7673  0.4498  0.0414
   88MOL0     H11846  10.620  -0.376   6.627 -1.5896 -2.0639  2.1566
   88MOL0     H11847  10.704  -0.448   6.476  2.2999 -0.2971  0.9587
   88MOL0     H11848  10.503  -0.599   6.650  0.2906 -4.2382 -0.7696
   88MOL0     H11849  10.471  -0.518   6.490  1.0298  2.5804  0.1193
   88MOL0     H11850  10.494  -0.771   6.488 -1.1674 -1.0980  2.0228
   88MOL0     H11851  10.624  -0.756   6.593 -1.4769  0.3475  0.6675
   88MOL0     H11852  10.647  -0.624   6.318 -0.2777  0.9323  0.1921
   88MOL0     H11853  10.771  -0.684   6.430  1.5302 -0.8327 -2.8417
   88MOL0     H11854  10.717  -0.829   6.207  2.9876  2.3566  2.3056
   88MOL0     H11855  10.557  -0.858   6.280 -0.5536 -1.8763  2.0162
   88MOL0     H11856  10.670  -0.963   6.476 -4.6359  1.9648 -2.3737
   88MOL0     H11857  10.705  -1.050   6.314  3.3245  0.4529 -2.6494
   88MOL0     H11858  10.899  -0.865   6.456  0.3712  0.5738  0.2615
   88MOL0     H11859  10.905  -0.933   6.290 -0.0908 -0.7261 -0.6829
   88MOL0     H11860  10.878  -1.131   6.520 -1.0623 -0.8885 -0.0832
   88MOL0     H11861  11.040  -1.073   6.458 -1.2335  1.8904  1.3194
   88MOL0     H11862  10.802  -0.278   6.582  1.1104  0.6191 -0.0518
   88MOL0     H11863  11.027  -0.154   6.604  1.0957  0.6312  0.8267
   88MOL0     H11864  11.465  -0.342   6.777  1.4294  0.1938  0.1315
   88MOL0     H11865  11.692  -0.321   6.815 -3.2655 -0.1946  2.3222
   88MOL0     H11866  10.597   0.352   7.148  1.0505 -1.0670 -0.1894
   88MOL0     H11867  10.417   0.447   7.042  0.3196 -0.1953  0.5332
   88MOL0     H11868  10.072   0.330   6.744  1.4295 -0.1128 -1.0677
   88MOL0     H11869   9.851   0.402   6.718  1.4965 -0.3629 -1.8037
   88MOL0     H11870   9.746   0.505   6.511  1.3273 -1.4139  3.8715
   88MOL0     H11871   9.612   0.510   6.619  2.6965 -1.7871  0.8534
   88MOL0     H11872   9.578   0.616   6.382  2.8498 -2.4498  0.1786
   88MOL0     H11873   9.676   0.749   6.438 -1.4926  0.1775 -3.3157
   88MOL0     H11874   9.406   0.650   6.558 -2.4896  0.0802 -2.6654
   88MOL0     H11875   9.425   0.778   6.460 -0.2564  1.3327  2.0880
   88MOL0     H11876   9.608   0.865   6.643  0.8361 -0.0704  2.1503
   88MOL0     H11877   9.510   0.775   6.757  0.4712  1.2678 -0.0158
   88MOL0     H11878   9.236   1.055   6.695  0.4455 -0.6616  0.1307
   88MOL0     H11879   9.989   0.802   6.671 -0.3585 -0.7090 -1.5079
   88MOL0     H11880  10.217   0.736   6.729 -1.2108  1.0659  1.3118
   89MOL0     O11881   0.848   5.774   4.226  0.2089 -0.4241  0.1597
   89MOL0     C11882   0.968   5.799   4.244  0.0350 -0.8648 -0.4812
   89MOL0     O11883   1.018   5.912   4.310 -0.1807 -0.0790  0.8224
   89MOL0     C11884   0.943   6.020   4.340 -0.2292 -0.6311  0.2389
   89MOL0     C11885   0.855   6.077   4.251  1.5462  0.2713  0.1467
   89MOL0     C11886   0.778   6.185   4.282  0.1158 -0.1382  0.0745
   89MOL0     C11887   0.791   6.242   4.415 -0.5008 -0.4371  0.0607
   89MOL0     O11888   0.741   6.364   4.452  0.3133  0.6938 -0.0249
   89MOL0     C11889   0.614   6.389   4.405 -0.1575  0.2229  0.2639
   89MOL0     C11890   0.512   6.290   4.474 -0.5538  0.1136  0.1395
   89MOL0     C11891   0.384   6.265   4.393  0.0506 -0.5055  0.2475
   89MOL0     C11892   0.266   6.211   4.473 -0.0289  0.1598  0.1608
   89MOL0     C11893   0.141   6.186   4.387  0.2104 -1.1224 -0.1905
   89MOL0     C11894   0.082   6.308   4.304  0.5723  0.9983  0.0141
   89MOL0     C11895  -0.068   6.290   4.272 -0.7902 -0.5064 -0.0810
   89MOL0     C11896  -0.112   6.413   4.182 -0.3794 -0.8674  0.4883
   89MOL0     N11897  -0.085   6.395   4.043  0.0683 -0.3776  0.7638
   89MOL0     C11898  -0.118   6.283   3.974 -0.1807  0.6469  0.6179
   89MOL0     C11899  -0.101   6.309   3.848 -0.8859 -0.6450  0.1237
   89MOL0     C11900  -0.101   6.216   3.734  0.1607 -0.9460 -0.0498
   89MOL0     C11901  -0.118   6.283   3.594 -0.2353  0.4422  0.4073
   89MOL0     C11902  -0.261   6.325   3.547  0.1763  0.3777  0.5430
   89MOL0     C11903  -0.344   6.405   3.651 -1.1735  0.3296  0.4081
   89MOL0     O11904  -0.473   6.433   3.599  0.5746 -0.1779  0.3202
   89MOL0     C11905  -0.550   6.527   3.656 -0.0944  0.6459  0.3666
   89MOL0     C11906  -0.517   6.600   3.772  0.3774 -0.5373  0.5895
   89MOL0     C11907  -0.610   6.687   3.827  0.7271 -0.3228 -0.0964
   89MOL0     C11908  -0.571   6.750   3.954 -0.5524  0.1313 -0.6582
   89MOL0     C11909  -0.736   6.710   3.766 -1.4402  0.0588 -0.4221
   89MOL0     C11910  -0.815   6.824   3.809 -0.0194  0.5830  0.6385
   89MOL0     O11911  -0.941   6.812   3.763  0.4484 -0.3133 -0.7484
   89MOL0     C11912  -1.047   6.887   3.788  1.0668 -0.6336  0.0209
   89MOL0     C11913  -1.161   6.857   3.704  0.4323 -0.2340 -0.0550
   89MOL0     C11914  -1.280   6.925   3.718  0.5988  0.4818 -0.0198
   89MOL0     C11915  -1.294   7.021   3.819  1.0615 -0.9154  0.4857
   89MOL0     O11916  -1.398   7.111   3.830  0.2758 -0.0898  0.1894
   89MOL0     C11917  -1.512   7.098   3.737 -0.5289 -0.9497  0.5148
   89MOL0     C11918  -1.636   7.173   3.793 -0.2342 -0.5479 -0.2387
   89MOL0     C11919  -1.730   7.069   3.857  0.3691  0.0369 -0.5378
   89MOL0     C11920  -1.852   7.132   3.909  0.0765  0.0614  0.4114
   89MOL0     C11921  -1.980   7.034   3.938 -1.2511 -0.0774  1.0322
   89MOL0     C11922  -2.087   7.076   4.041 -0.4428  0.0053 -0.0434
   89MOL0     C11923  -2.150   7.205   4.003 -0.2693 -0.4095  0.3996
   89MOL0     C11924  -2.245   7.257   4.108  0.5246  0.6583 -0.2423
   89MOL0    Cl11925  -2.268   7.431   4.090 -0.1695  0.0024  0.4374
   89MOL0     C11926  -1.188   7.040   3.908  0.2608  0.4835 -0.1531
   89MOL0     C11927  -1.067   6.977   3.892  0.3724 -0.3239  0.2594
   89MOL0     O11928  -0.770   6.920   3.874 -0.3987 -0.3745 -0.5782
   89MOL0     C11929  -0.767   6.625   3.657  0.7155  0.7482 -0.8294
   89MOL0     C11930  -0.675   6.548   3.598 -0.5158  1.2134  0.8300
   89MOL0     N11931  -0.074   6.441   3.834  0.4794 -0.6021  0.9045
   89MOL0     N11932  -0.056   6.485   3.948  1.3182  0.0651 -0.5387
   89MOL0     C11933   0.884   6.181   4.502  0.1532  0.3152  0.5201
   89MOL0     C11934   0.956   6.066   4.464 -0.6513  0.7514  0.8296
   89MOL0     C11935   1.063   5.696   4.196 -0.3521 -0.6609 -0.9347
   89MOL0     C11936   1.022   5.573   4.142  0.4458  0.4288 -0.1234
   89MOL0     C11937   1.117   5.473   4.111 -0.0879 -0.9399  0.2391
   89MOL0     C11938   1.252   5.497   4.126  0.4066  0.3300 -0.5415
   89MOL0     O11939   1.350   5.410   4.097  0.3001  0.1206  0.1263
   89MOL0     C11940   1.488   5.443   4.079  0.1017 -0.0847 -0.3311
   89MOL0     C11941   1.503   5.535   3.955 -0.9632  0.0574 -0.2886
   89MOL0     C11942   1.638   5.602   3.947 -0.2577  0.3342 -0.8735
   89MOL0     C11943   1.641   5.709   3.832  0.8513  0.5715  0.7023
   89MOL0     C11944   1.777   5.759   3.823 -0.0356 -0.0170  0.2336
   89MOL0     C11945   1.885   5.787   3.818 -0.1774  0.2157  0.6722
   89MOL0     C11946   1.290   5.616   4.189  0.5035 -0.1872  0.8762
   89MOL0     C11947   1.203   5.717   4.224  0.4467  0.4256 -0.3514
   89MOL0     H11948   0.835   6.038   4.152 -2.0847 -1.1986  1.2996
   89MOL0     H11949   0.705   6.229   4.214 -3.2717 -1.1376  2.7786
   89MOL0     H11950   0.586   6.493   4.427  2.1455  1.6812 -2.9453
   89MOL0     H11951   0.607   6.373   4.297  0.4427 -4.7543  0.7414
   89MOL0     H11952   0.545   6.186   4.481 -2.9728 -0.7248  0.2944
   89MOL0     H11953   0.488   6.330   4.573  1.7064 -1.2383  1.3291
   89MOL0     H11954   0.348   6.350   4.334 -3.8870 -0.4784  2.3864
   89MOL0     H11955   0.409   6.177   4.332 -1.3405 -1.2229  0.6787
   89MOL0     H11956   0.293   6.125   4.535 -1.1349 -0.0804  0.3184
   89MOL0     H11957   0.235   6.292   4.539 -1.7066  0.8204 -1.3528
   89MOL0     H11958   0.169   6.103   4.322 -0.8391 -0.9492 -0.8899
   89MOL0     H11959   0.064   6.152   4.457  0.4643  0.8147  1.1207
   89MOL0     H11960   0.099   6.408   4.345  2.3611  2.3321 -3.5943
   89MOL0     H11961   0.144   6.311   4.214  0.3229  0.5944 -0.1761
   89MOL0     H11962  -0.088   6.193   4.227 -2.2324 -0.2894  0.0492
   89MOL0     H11963  -0.125   6.298   4.365 -0.9395  0.0356 -0.2127
   89MOL0     H11964  -0.076   6.512   4.208 -3.1883 -0.0667  1.7192
   89MOL0     H11965  -0.220   6.425   4.197 -0.1794 -0.2170  1.4439
   89MOL0     H11966  -0.125   6.182   4.013  2.6511  1.1627  2.8119
   89MOL0     H11967  -0.002   6.170   3.723  1.6421  1.5179  1.8219
   89MOL0     H11968  -0.178   6.139   3.744 -2.6519  0.9793 -4.2405
   89MOL0     H11969  -0.091   6.210   3.517 -0.0082  2.4388 -1.5140
   89MOL0     H11970  -0.047   6.366   3.586  1.3808 -0.9977 -1.0013
   89MOL0     H11971  -0.320   6.236   3.524  0.2047  1.2351 -3.6890
   89MOL0     H11972  -0.266   6.379   3.452  0.8466 -2.5033 -1.2536
   89MOL0     H11973  -0.277   6.492   3.657  1.2876 -1.3035 -1.4494
   89MOL0     H11974  -0.354   6.349   3.744  0.0666  2.4846  1.9493
   89MOL0     H11975  -0.413   6.600   3.804  0.8731 -2.0115 -0.8858
   89MOL0     H11976  -0.655   6.773   4.019  0.4997 -0.5727  0.9998
   89MOL0     H11977  -0.507   6.685   4.014  0.4464 -0.6432 -2.4660
   89MOL0     H11978  -0.517   6.844   3.938  1.9186 -1.1197 -0.2796
   89MOL0     H11979  -1.147   6.780   3.629  1.5355  1.0598 -1.2404
   89MOL0     H11980  -1.366   6.911   3.652 -0.3815  1.0393  1.1038
   89MOL0     H11981  -1.483   7.135   3.638 -3.4911  0.4186  0.0341
   89MOL0     H11982  -1.549   6.997   3.718 -1.2509 -0.7916  0.9990
   89MOL0     H11983  -1.609   7.252   3.864 -0.4693  2.3639 -3.1373
   89MOL0     H11984  -1.685   7.218   3.706  2.0737  0.1866 -1.2350
   89MOL0     H11985  -1.685   7.016   3.941 -1.3159 -0.4998  0.0707
   89MOL0     H11986  -1.755   7.003   3.773  0.1036  2.7121 -2.7036
   89MOL0     H11987  -1.835   7.179   4.006 -0.7668 -0.4042  0.8014
   89MOL0     H11988  -1.885   7.200   3.831  0.6622 -0.9598 -0.7563
   89MOL0     H11989  -1.946   6.937   3.975  1.2060  0.3452  0.0604
   89MOL0     H11990  -2.033   7.029   3.842  0.2967 -2.1189  0.2070
   89MOL0     H11991  -2.168   7.002   4.043 -0.5456  0.1121  2.0871
   89MOL0     H11992  -2.045   7.090   4.141  0.2146  2.8077 -0.6202
   89MOL0     H11993  -2.201   7.197   3.907 -0.8053  0.1621  0.6331
   89MOL0     H11994  -2.074   7.281   3.982 -0.0544 -0.7174  0.0338
   89MOL0     H11995  -2.214   7.240   4.211 -0.8736  2.0384  0.4478
   89MOL0     H11996  -2.335   7.201   4.082  3.2505 -2.8771 -3.2252
   89MOL0     H11997  -1.204   7.118   3.981 -2.8241 -0.3984  0.2675
   89MOL0     H11998  -0.995   6.994   3.972  0.0237 -0.4969  0.6173
   89MOL0     H11999  -0.862   6.647   3.609 -0.9194  0.4705  2.0693
   89MOL0     H12000  -0.701   6.491   3.509  1.3967  1.2057  0.2085
   89MOL0     H12001   0.882   6.209   4.607  0.0312 -0.6085  0.7649
   89MOL0     H12002   1.029   6.020   4.529  2.9019 -0.0860 -3.2914
   89MOL0     H12003   0.920   5.548   4.118  1.0630 -1.7065 -0.7844
   89MOL0     H12004   1.092   5.379   4.063  0.3538 -0.5661 -0.7575
   89MOL0     H12005   1.537   5.483   4.168 -0.8780  1.5157 -0.4741
   89MOL0     H12006   1.530   5.342   4.067 -1.0673 -1.0839  2.8765
   89MOL0     H12007   1.423   5.609   3.942  0.7019  1.6873 -1.9492
   89MOL0     H12008   1.484   5.467   3.872 -1.6928 -0.7976  0.5646
   89MOL0     H12009   1.717   5.528   3.930  0.1744  0.8784 -1.2757
   89MOL0     H12010   1.663   5.653   4.041  2.2577  1.6753 -2.1743
   89MOL0     H12011   1.585   5.799   3.858  1.2241  0.8606  0.4993
   89MOL0     H12012   1.610   5.672   3.734  3.1794 -1.6029  0.6754
   89MOL0     H12013   1.989   5.808   3.804 -0.0657 -0.1652  0.9311
   89MOL0     H12014   1.389   5.657   4.200  1.8815 -2.0400 -2.8949
   89MOL0     H12015   1.243   5.807   4.269 -2.9686  0.3435  3.4726
   90MOL0     O12016  11.022   8.370   0.832  0.0294  0.3976  0.0510
   90MOL0     C12017  11.043   8.248   0.796  0.0079 -1.2451 -0.8041
   90MOL0     O12018  10.946   8.163   0.743 -0.5534 -0.2432  0.2328
   90MOL0     C12019  10.821   8.214   0.726 -1.0182  0.2035  0.2839
   90MOL0     C12020  10.761   8.222   0.601 -0.1309  0.0006  1.0630
   90MOL0     C12021  10.629   8.265   0.584 -0.0862 -0.3197  0.5908
   90MOL0     C12022  10.550   8.308   0.692 -0.3273  0.4458  0.3520
   90MOL0     O12023  10.428   8.368   0.663  0.0455 -0.1477 -0.0436
   90MOL0     C12024  10.437   8.505   0.619 -0.4692  0.1033 -0.6474
   90MOL0     C12025  10.303   8.577   0.615 -0.1392  0.3534  0.2305
   90MOL0     C12026  10.318   8.723   0.576 -0.6731 -0.3929  0.3534
   90MOL0     C12027  10.331   8.746   0.424 -0.0007 -0.2060 -0.5794
   90MOL0     C12028  10.313   8.897   0.392  0.6249  0.4978 -0.0003
   90MOL0     C12029  10.331   8.920   0.240 -0.1960  0.4726  0.7778
   90MOL0     C12030  10.292   9.058   0.193  0.2177 -0.5897  0.1260
   90MOL0     C12031  10.316   9.068   0.042 -0.1515  0.2983  1.0143
   90MOL0     N12032  10.236   9.197   0.000 -0.1512  0.0703 -0.1429
   90MOL0     C12033  10.261   9.326   0.044  0.1238 -0.4478 -0.2086
   90MOL0     C12034  10.153   9.395  -0.001 -0.0164  0.0672  0.7493
   90MOL0     C12035  10.118   9.544   0.027 -0.2838  0.4074 -0.3470
   90MOL0     C12036  10.046   9.549   0.159  0.3517  0.5576  0.1997
   90MOL0     C12037  10.012   9.689   0.198 -0.5013  0.3197  0.5061
   90MOL0     C12038   9.957   9.686   0.331 -0.4210 -1.4086 -0.3085
   90MOL0     O12039   9.834   9.621   0.331  0.4805  0.7465  0.0057
   90MOL0     C12040   9.718   9.687   0.325  0.1549  0.3500  0.0939
   90MOL0     C12041   9.672   9.767   0.427 -1.4785  0.3628 -0.2761
   90MOL0     C12042   9.545   9.821   0.429 -0.2259  0.0844  0.2484
   90MOL0     C12043   9.514   9.904   0.545  0.5947 -0.1665 -0.3151
   90MOL0     C12044   9.462   9.808   0.311 -0.1511 -1.2514 -0.3929
   90MOL0     C12045   9.318   9.852   0.309 -0.9214 -0.3548  0.5319
   90MOL0     O12046   9.238   9.782   0.234 -0.6875 -0.7890  0.7896
   90MOL0     C12047   9.107   9.805   0.214  0.9518  0.4584  0.3109
   90MOL0     C12048   9.052   9.840   0.090  0.4119 -0.4486  0.0516
   90MOL0     C12049   8.917   9.874   0.081  0.1130  0.5482  0.7717
   90MOL0     C12050   8.831   9.885   0.184  0.2726 -0.4366 -0.3517
   90MOL0     O12051   8.696   9.899   0.156  0.1020  0.3943  0.5682
   90MOL0     C12052   8.596   9.896   0.251 -0.5978  0.4291 -0.7716
   90MOL0     C12053   8.469   9.963   0.192  0.3817  1.4350  0.1795
   90MOL0     C12054   8.381   9.994   0.316 -0.1798 -1.0868  0.1815
   90MOL0     C12055   8.251  10.067   0.276  0.7379  0.1942 -0.2595
   90MOL0     C12056   8.169  10.088   0.407 -0.2324  0.2704  0.7679
   90MOL0     C12057   8.046  10.173   0.375 -0.6874  0.1529  0.9684
   90MOL0     C12058   7.990  10.202   0.516 -0.2890  0.0484 -0.6707
   90MOL0     C12059   7.857  10.282   0.496  0.1057  0.3683  0.3206
   90MOL0    Cl12060   7.738  10.156   0.446 -0.1133  0.0381  0.2498
   90MOL0     C12061   8.878   9.856   0.310  0.5449  0.2957  0.2536
   90MOL0     C12062   9.017   9.814   0.325  0.1480 -0.7914  0.1447
   90MOL0     O12063   9.297   9.960   0.362  0.1171 -0.2836 -0.1165
   90MOL0     C12064   9.511   9.734   0.202  0.3241  0.3898  0.7788
   90MOL0     C12065   9.637   9.681   0.212  0.1693 -0.4655 -0.1125
   90MOL0     N12066  10.070   9.313  -0.080 -0.6671  1.0238 -0.0585
   90MOL0     N12067  10.120   9.193  -0.063  0.3970 -0.1128 -0.2221
   90MOL0     C12068  10.614   8.297   0.823  0.3737 -0.5242 -0.0782
   90MOL0     C12069  10.749   8.248   0.840  0.3662 -0.5713 -0.1703
   90MOL0     C12070  11.188   8.206   0.812  1.1281 -0.9658  0.6393
   90MOL0     C12071  11.229   8.083   0.750  0.0183  0.3003  0.4496
   90MOL0     C12072  11.363   8.049   0.752  0.2342  1.4112 -0.5069
   90MOL0     C12073  11.458   8.118   0.833  0.3982  0.0062  0.2778
   90MOL0     O12074  11.590   8.081   0.850  0.4707  0.5030  0.3728
   90MOL0     C12075  11.643   7.946   0.819  0.6434 -0.6320  0.7963
   90MOL0     C12076  11.677   7.870   0.935  0.2941  0.1435  0.0098
   90MOL0     C12077  11.782   7.934   1.031 -0.3321  0.5885  0.0382
   90MOL0     C12078  11.924   7.894   0.982 -0.2387  0.2373  0.0763
   90MOL0     C12079  11.951   7.755   1.032 -0.4992 -0.2593  0.0941
   90MOL0     C12080  11.991   7.646   1.070 -0.8362  0.1743  0.5098
   90MOL0     C12081  11.416   8.243   0.896  0.0643 -0.4729  0.2500
   90MOL0     C12082  11.285   8.281   0.880  0.3483  0.2715  0.6335
   90MOL0     H12083  10.830   8.188   0.524 -1.0710 -0.4619  0.4010
   90MOL0     H12084  10.598   8.278   0.481  0.8768  1.6841  0.5178
   90MOL0     H12085  10.504   8.558   0.688 -3.2468  1.0103  1.5549
   90MOL0     H12086  10.476   8.517   0.518 -2.8291  2.0546 -1.4163
   90MOL0     H12087  10.256   8.524   0.531  1.5015 -0.3587 -0.2726
   90MOL0     H12088  10.261   8.567   0.716  0.2607  2.0733  0.5843
   90MOL0     H12089  10.229   8.774   0.613  1.1019  1.0340  2.8973
   90MOL0     H12090  10.403   8.772   0.623 -1.1060  3.6395 -2.5235
   90MOL0     H12091  10.434   8.716   0.404  0.1808  0.4222 -0.5998
   90MOL0     H12092  10.255   8.692   0.365  1.6979  0.9389 -4.0921
   90MOL0     H12093  10.214   8.929   0.425 -0.0612 -0.3644 -1.1687
   90MOL0     H12094  10.385   8.954   0.452  0.1419  1.2679 -0.1385
   90MOL0     H12095  10.438   8.910   0.223 -0.4270 -0.9599 -0.0658
   90MOL0     H12096  10.286   8.840   0.179  2.5278 -2.3626  2.2043
   90MOL0     H12097  10.185   9.060   0.216  0.0957  0.4157 -0.4877
   90MOL0     H12098  10.339   9.145   0.240 -1.0430  0.4839 -0.5403
   90MOL0     H12099  10.283   8.975  -0.005 -2.1458  1.4411  0.0499
   90MOL0     H12100  10.421   9.080   0.014  0.1457  0.4868  2.1648
   90MOL0     H12101  10.346   9.353   0.106  1.0451 -1.6141 -0.9254
   90MOL0     H12102  10.214   9.593   0.039 -0.8149  1.2595  0.5934
   90MOL0     H12103  10.059   9.586  -0.056 -0.5210 -2.0130 -1.5090
   90MOL0     H12104  10.106   9.523   0.247  1.0546  1.8739  0.1219
   90MOL0     H12105   9.959   9.482   0.158  0.9639 -0.2649 -1.0071
   90MOL0     H12106   9.935   9.711   0.123 -0.5532 -3.2884 -0.6556
   90MOL0     H12107  10.100   9.754   0.195 -0.3426  0.1318  1.0716
   90MOL0     H12108   9.947   9.790   0.366 -0.4379 -1.5996  0.2641
   90MOL0     H12109  10.019   9.629   0.400  2.5612  3.0074  1.1113
   90MOL0     H12110   9.733   9.786   0.515 -2.4450 -0.0936  0.5127
   90MOL0     H12111   9.567   9.999   0.539 -1.6935  1.2364  0.3446
   90MOL0     H12112   9.408   9.925   0.563  0.6247 -0.8086  0.6782
   90MOL0     H12113   9.552   9.862   0.639  1.1068  1.0364  0.0241
   90MOL0     H12114   9.123   9.858   0.010 -0.9071  1.4139 -0.7899
   90MOL0     H12115   8.879   9.894  -0.019  0.3783 -1.1510  0.3016
   90MOL0     H12116   8.580   9.793   0.285  0.4644 -0.0754 -1.7294
   90MOL0     H12117   8.625   9.952   0.340 -0.7667 -2.0336  0.9341
   90MOL0     H12118   8.505  10.055   0.144 -1.1528  1.5518 -0.8066
   90MOL0     H12119   8.422   9.902   0.115 -1.1767  2.4691  0.2607
   90MOL0     H12120   8.440  10.059   0.380 -0.9541  0.0836 -0.2696
   90MOL0     H12121   8.353   9.906   0.375 -2.4262 -0.5353  0.0416
   90MOL0     H12122   8.276  10.164   0.232  1.4794  0.9394  1.6790
   90MOL0     H12123   8.187  10.010   0.208 -0.8414  1.1750  0.3713
   90MOL0     H12124   8.231  10.136   0.482 -0.4574  1.1668  0.3903
   90MOL0     H12125   8.144   9.989   0.447  2.2333 -0.6297  0.2596
   90MOL0     H12126   8.063  10.266   0.318  1.7514  0.2008  1.6521
   90MOL0     H12127   7.983  10.107   0.315  1.6740 -0.0492 -1.5170
   90MOL0     H12128   8.057  10.267   0.572 -2.0211  1.0224  0.3664
   90MOL0     H12129   7.974  10.107   0.568  2.3517 -0.7892 -1.2635
   90MOL0     H12130   7.874  10.355   0.416  0.8494  2.0302  1.9264
   90MOL0     H12131   7.822  10.334   0.585  0.2733 -0.8008  1.0902
   90MOL0     H12132   8.809   9.850   0.393 -1.3669  1.5252 -1.1651
   90MOL0     H12133   9.044   9.799   0.429  0.9776 -0.3673 -0.0008
   90MOL0     H12134   9.441   9.716   0.121 -0.1903 -0.3261  1.3653
   90MOL0     H12135   9.667   9.627   0.123  1.0569 -0.5875  0.2535
   90MOL0     H12136  10.556   8.312   0.914  3.7478 -4.3689  3.1591
   90MOL0     H12137  10.795   8.235   0.937  0.2594 -0.3348 -0.0858
   90MOL0     H12138  11.158   8.028   0.689 -0.5692  0.2082  1.2019
   90MOL0     H12139  11.394   7.959   0.701 -4.1556 -0.7444  0.1636
   90MOL0     H12140  11.575   7.890   0.755 -0.4897 -0.5213  1.8545
   90MOL0     H12141  11.731   7.971   0.759  1.1601 -0.4076  1.6217
   90MOL0     H12142  11.709   7.768   0.912  0.0240  0.3627 -1.4176
   90MOL0     H12143  11.581   7.857   0.987  0.0570  0.8060 -0.2536
   90MOL0     H12144  11.770   7.909   1.137  2.7241  0.0803  0.3587
   90MOL0     H12145  11.775   8.043   1.029  0.2598  0.6194 -0.6574
   90MOL0     H12146  11.993   7.964   1.030  1.9525  0.3987 -3.0413
   90MOL0     H12147  11.938   7.909   0.875  0.8971  2.8084  0.5257
   90MOL0     H12148  12.038   7.554   1.099 -3.6221 -0.8668  2.1624
   90MOL0     H12149  11.487   8.301   0.953 -3.0219 -0.0332  4.0905
   90MOL0     H12150  11.241   8.370   0.924 -2.6406 -1.6987  2.0195
   91MOL0     O12151   3.186   7.641   0.617  0.6495 -0.5846 -0.3521
   91MOL0     C12152   3.202   7.530   0.597 -1.0276  0.3793 -0.5355
   91MOL0     O12153   3.106   7.446   0.562  0.3586 -0.0039  0.0699
   91MOL0     C12154   2.976   7.475   0.588 -0.2680 -0.2260  0.4755
   91MOL0     C12155   2.879   7.483   0.484 -1.0786 -0.1299  0.5692
   91MOL0     C12156   2.748   7.494   0.521  0.8682  0.3307 -0.0792
   91MOL0     C12157   2.717   7.524   0.657  0.2253  0.1972  0.0396
   91MOL0     O12158   2.589   7.548   0.708 -0.0742  0.2885  0.0293
   91MOL0     C12159   2.465   7.475   0.670  0.2508 -0.0737 -0.6740
   91MOL0     C12160   2.360   7.471   0.783  0.3704 -0.0667  0.3645
   91MOL0     C12161   2.307   7.603   0.821  0.0257  0.4290  0.0205
   91MOL0     C12162   2.189   7.602   0.919  1.1291 -0.4896 -0.8136
   91MOL0     C12163   2.119   7.739   0.944  0.1252 -0.4253  0.2255
   91MOL0     C12164   2.079   7.756   1.091 -0.4002  0.3282 -0.4876
   91MOL0     C12165   2.023   7.895   1.119 -0.0622  0.2204 -0.0769
   91MOL0     C12166   2.110   8.008   1.080 -0.0866 -0.0459  0.5169
   91MOL0     N12167   2.248   7.997   1.134  0.4428  0.6167 -0.1555
   91MOL0     C12168   2.360   7.960   1.063 -0.1806 -0.5406 -0.3405
   91MOL0     C12169   2.461   7.958   1.158 -0.6123 -0.1630  1.2834
   91MOL0     C12170   2.603   7.926   1.115  1.0743  0.8057 -0.4362
   91MOL0     C12171   2.671   8.030   1.026  0.6936 -0.3755  0.5056
   91MOL0     C12172   2.768   7.965   0.925 -0.0881 -0.5556 -0.2076
   91MOL0     C12173   2.863   8.070   0.860 -0.3919 -0.3526 -0.1783
   91MOL0     O12174   2.963   8.122   0.953 -0.5528 -0.0245 -0.4078
   91MOL0     C12175   3.090   8.061   0.973 -0.5542  0.1375 -0.0959
   91MOL0     C12176   3.115   7.926   0.940 -0.0703 -0.4054  1.0082
   91MOL0     C12177   3.232   7.864   0.973 -0.4244  0.1087  0.7958
   91MOL0     C12178   3.240   7.713   0.944 -0.6822 -0.8758  0.0612
   91MOL0     C12179   3.346   7.935   1.027 -0.4248  0.5395  0.0614
   91MOL0     C12180   3.483   7.884   1.042  0.3907 -0.8117 -0.2247
   91MOL0     O12181   3.561   7.962   1.127 -0.0920  0.4519  0.4468
   91MOL0     C12182   3.695   7.928   1.146  0.0443  0.5830 -0.0538
   91MOL0     C12183   3.787   8.034   1.164  0.4393  0.7905  1.8484
   91MOL0     C12184   3.913   8.002   1.224 -0.4470 -0.9631 -0.7082
   91MOL0     C12185   3.946   7.869   1.256 -0.3291 -0.5715 -0.7905
   91MOL0     O12186   4.067   7.828   1.315 -0.7261  0.1984 -0.2127
   91MOL0     C12187   4.182   7.913   1.297  0.3119 -0.5713 -0.2170
   91MOL0     C12188   4.301   7.822   1.289 -0.7637  0.3746  1.1877
   91MOL0     C12189   4.340   7.776   1.151  0.5242 -1.0278 -0.3082
   91MOL0     C12190   4.473   7.692   1.145  0.1833 -0.0345 -0.5858
   91MOL0     C12191   4.602   7.770   1.181 -0.1318 -0.2664 -0.6464
   91MOL0     C12192   4.648   7.875   1.080  0.2574 -0.8425  0.4319
   91MOL0     C12193   4.761   7.946   1.149 -0.2514  0.2398  0.8418
   91MOL0     C12194   4.812   8.058   1.054 -0.3981  0.0724 -0.1406
   91MOL0    Cl12195   4.940   8.009   0.945 -0.1244 -0.3273  0.6852
   91MOL0     C12196   3.853   7.766   1.241  0.3710 -0.0910 -0.1932
   91MOL0     C12197   3.727   7.797   1.191 -0.0482 -0.1504 -0.5656
   91MOL0     O12198   3.517   7.790   0.964  0.5438 -0.5918  0.0119
   91MOL0     C12199   3.312   8.070   1.067  0.2232 -1.0064  1.1123
   91MOL0     C12200   3.179   8.124   1.047 -0.0396 -0.2494 -0.1947
   91MOL0     N12201   2.413   8.000   1.277  0.3648  0.0064  0.3861
   91MOL0     N12202   2.289   8.028   1.261  0.5425  0.5982 -0.2773
   91MOL0     C12203   2.811   7.525   0.750 -0.3665 -0.0869  0.4990
   91MOL0     C12204   2.946   7.493   0.721  0.4694 -0.3397  0.0921
   91MOL0     C12205   3.348   7.496   0.598 -0.0988  0.9917  0.4562
   91MOL0     C12206   3.456   7.576   0.637 -0.4905 -0.1166 -0.4548
   91MOL0     C12207   3.592   7.536   0.614  0.2564  1.0412  0.8763
   91MOL0     C12208   3.624   7.415   0.557 -0.1913  0.0936  0.3478
   91MOL0     O12209   3.751   7.371   0.535 -0.2261  0.6348 -0.0219
   91MOL0     C12210   3.866   7.453   0.573  0.5716 -0.1701 -0.0011
   91MOL0     C12211   3.911   7.533   0.457 -0.0751  0.2606  0.1360
   91MOL0     C12212   3.979   7.445   0.344  0.6796 -0.2134 -0.3586
   91MOL0     C12213   4.022   7.540   0.220 -1.1266  0.1803  0.1758
   91MOL0     C12214   3.903   7.585   0.147 -0.2003  0.1081 -0.8502
   91MOL0     C12215   3.806   7.643   0.105  1.2538  0.1676 -0.1690
   91MOL0     C12216   3.519   7.335   0.514 -0.2472  0.0513  0.1817
   91MOL0     C12217   3.383   7.374   0.535  0.0412 -0.2458  0.1974
   91MOL0     H12218   2.886   7.468   0.376  0.0986  0.1015  0.6042
   91MOL0     H12219   2.674   7.490   0.442 -0.1134 -0.1598  0.8423
   91MOL0     H12220   2.426   7.534   0.586 -2.0087  1.2004  1.1501
   91MOL0     H12221   2.475   7.371   0.639 -4.7668 -1.9097  2.7069
   91MOL0     H12222   2.271   7.417   0.751  0.5126  0.6930 -1.4496
   91MOL0     H12223   2.410   7.431   0.872  1.3349 -1.4200 -0.7345
   91MOL0     H12224   2.391   7.650   0.872  2.4436 -1.5534 -1.9039
   91MOL0     H12225   2.291   7.658   0.727  3.4877  2.9785  0.7330
   91MOL0     H12226   2.113   7.537   0.874 -0.6590  1.2985 -0.5348
   91MOL0     H12227   2.228   7.556   1.010 -0.2264 -1.3048 -0.6062
   91MOL0     H12228   2.196   7.814   0.922 -0.5822  1.0472  2.3867
   91MOL0     H12229   2.042   7.755   0.868 -1.3186 -2.2094  1.2425
   91MOL0     H12230   1.992   7.695   1.115 -1.1182  0.8321 -1.7106
   91MOL0     H12231   2.165   7.737   1.156  0.3271  1.9722 -0.9224
   91MOL0     H12232   1.926   7.903   1.068 -0.2913 -3.1348 -0.4036
   91MOL0     H12233   1.999   7.916   1.223 -1.0937  2.2605 -0.6778
   91MOL0     H12234   2.054   8.097   1.109 -1.9584 -0.9758 -0.0993
   91MOL0     H12235   2.119   8.008   0.971  0.3012 -0.2351  0.5467
   91MOL0     H12236   2.359   7.956   0.955  1.2153  2.6794 -0.5680
   91MOL0     H12237   2.664   7.899   1.202  0.0590 -1.4652 -0.3620
   91MOL0     H12238   2.600   7.834   1.057 -0.6857 -0.7283  1.8843
   91MOL0     H12239   2.723   8.097   1.096  0.7542  1.1567 -0.9395
   91MOL0     H12240   2.595   8.088   0.974 -1.2220 -3.2655 -0.1378
   91MOL0     H12241   2.710   7.920   0.844 -1.1773  2.3125 -1.1646
   91MOL0     H12242   2.828   7.888   0.973  1.9227  1.7419  1.1915
   91MOL0     H12243   2.788   8.147   0.836 -0.5327  0.3902  2.4081
   91MOL0     H12244   2.916   8.021   0.778  1.1027  1.0884 -0.1148
   91MOL0     H12245   3.032   7.875   0.893  0.0387  3.4052 -4.1806
   91MOL0     H12246   3.281   7.706   0.843  1.9699 -2.3097  1.1438
   91MOL0     H12247   3.307   7.675   1.022  1.2748  1.8179 -0.1570
   91MOL0     H12248   3.141   7.666   0.952 -1.0282  0.1406  3.3560
   91MOL0     H12249   3.759   8.133   1.130 -0.2444  0.1747  0.5314
   91MOL0     H12250   3.981   8.085   1.239  1.6221 -2.3780 -1.7227
   91MOL0     H12251   4.173   7.968   1.203  0.3539  0.8642  0.6008
   91MOL0     H12252   4.199   7.984   1.379 -0.7210  2.5433 -2.5136
   91MOL0     H12253   4.389   7.877   1.327  0.2667 -0.5713  0.2355
   91MOL0     H12254   4.294   7.736   1.356 -0.4346  0.5975  1.5153
   91MOL0     H12255   4.325   7.861   1.084 -1.8213 -3.2860 -2.9710
   91MOL0     H12256   4.257   7.709   1.125 -1.8465  1.6927 -0.1934
   91MOL0     H12257   4.460   7.603   1.207 -0.6900  0.7630  0.4120
   91MOL0     H12258   4.484   7.665   1.040 -5.1462  1.9655 -1.9687
   91MOL0     H12259   4.684   7.699   1.197 -0.6878 -1.1053 -1.3484
   91MOL0     H12260   4.585   7.813   1.280 -0.6463  0.4497 -1.0344
   91MOL0     H12261   4.682   7.835   0.984 -1.7502 -1.2194 -0.1592
   91MOL0     H12262   4.567   7.943   1.052  0.6886 -0.2348  0.6482
   91MOL0     H12263   4.831   7.863   1.164 -4.2332 -3.9119 -0.8650
   91MOL0     H12264   4.736   7.988   1.247  0.8719  2.5481  0.2083
   91MOL0     H12265   4.844   8.139   1.120 -1.9981 -0.5900  1.5318
   91MOL0     H12266   4.726   8.095   0.999 -1.0073 -1.6486 -0.3958
   91MOL0     H12267   3.880   7.666   1.272 -1.4216 -0.9302 -1.2011
   91MOL0     H12268   3.656   7.721   1.162 -0.9670  0.9848 -1.3842
   91MOL0     H12269   3.382   8.138   1.115  0.4815 -0.6635  0.2689
   91MOL0     H12270   3.146   8.222   1.079  3.9187  1.4126 -0.6781
   91MOL0     H12271   2.793   7.555   0.853 -0.4587  0.2246  0.3923
   91MOL0     H12272   3.027   7.486   0.794 -1.3723  0.9897  2.4304
   91MOL0     H12273   3.434   7.676   0.672  2.9422 -0.0018  1.7879
   91MOL0     H12274   3.661   7.616   0.638 -1.1232  2.9982 -1.2665
   91MOL0     H12275   3.855   7.521   0.658  2.0281 -0.3776  0.3859
   91MOL0     H12276   3.948   7.386   0.600 -1.3174 -2.3726  0.5738
   91MOL0     H12277   3.980   7.612   0.487  0.0582  0.7022 -1.2788
   91MOL0     H12278   3.825   7.580   0.408  0.0340 -0.2556 -0.5609
   91MOL0     H12279   3.896   7.383   0.309 -0.8890  1.5521  0.0982
   91MOL0     H12280   4.063   7.379   0.371  1.1699 -0.0868 -1.4978
   91MOL0     H12281   4.070   7.473   0.149 -1.3490 -0.7519  0.8932
   91MOL0     H12282   4.090   7.617   0.258 -1.3192 -0.5753  2.1758
   91MOL0     H12283   3.718   7.697   0.076  2.0523  3.6367  3.0775
   91MOL0     H12284   3.535   7.240   0.465  1.4976 -0.3424  1.4622
   91MOL0     H12285   3.313   7.306   0.489  0.3209  0.8461 -1.9740
   92MOL0     O12286   8.386   4.394   6.420 -0.3126  0.3191  0.2352
   92MOL0     C12287   8.437   4.486   6.361 -0.1109  0.4121 -0.0374
   92MOL0     O12288   8.414   4.622   6.387 -0.0314  0.5618  0.0330
   92MOL0     C12289   8.320   4.646   6.485 -0.3109  0.0330  0.2443
   92MOL0     C12290   8.360   4.684   6.610  0.2988 -0.0687  0.1894
   92MOL0     C12291   8.273   4.714   6.718  0.1280  0.1699  0.9333
   92MOL0     C12292   8.135   4.724   6.689 -1.0408  0.4109  1.2904
   92MOL0     O12293   8.038   4.773   6.769  0.4592  0.1082 -0.1426
   92MOL0     C12294   8.072   4.805   6.908 -0.3782  0.3710  0.3334
   92MOL0     C12295   7.956   4.831   6.999  0.6069 -0.1962  0.2978
   92MOL0     C12296   7.824   4.753   6.973  0.7362  0.4202  0.0754
   92MOL0     C12297   7.727   4.814   6.873 -1.3032 -0.0093 -0.3875
   92MOL0     C12298   7.588   4.757   6.872  0.2137 -0.0784 -0.1283
   92MOL0     C12299   7.564   4.603   6.883 -0.0956 -0.2640 -0.0710
   92MOL0     C12300   7.418   4.565   6.889  0.6069  0.0474 -0.4743
   92MOL0     C12301   7.349   4.565   6.756 -0.0768 -0.4717  0.4231
   92MOL0     N12302   7.209   4.523   6.775 -0.7304  0.9376 -0.1881
   92MOL0     C12303   7.116   4.502   6.672 -0.1721  0.8601 -0.5261
   92MOL0     C12304   7.006   4.484   6.746 -0.4226  0.3380 -0.6465
   92MOL0     C12305   6.879   4.453   6.691  0.5116  0.0647  0.4863
   92MOL0     C12306   6.785   4.578   6.701  1.2937  0.8167  0.0449
   92MOL0     C12307   6.665   4.576   6.595 -0.0255  0.3852  0.5142
   92MOL0     C12308   6.561   4.475   6.635  0.3324 -0.2760  0.1391
   92MOL0     O12309   6.496   4.428   6.520 -0.0725  0.1575  0.6383
   92MOL0     C12310   6.376   4.364   6.549  0.1274 -0.8022 -0.0790
   92MOL0     C12311   6.363   4.268   6.644 -0.0706 -0.8029  0.5731
   92MOL0     C12312   6.235   4.206   6.667  0.4146 -0.2746  0.4965
   92MOL0     C12313   6.237   4.110   6.784 -0.0228  0.1076  0.3467
   92MOL0     C12314   6.117   4.235   6.587  0.6087 -0.5411 -0.5215
   92MOL0     C12315   5.982   4.167   6.597  0.0450  0.2280 -0.4441
   92MOL0     O12316   5.877   4.249   6.564  0.2925  0.1253 -0.9252
   92MOL0     C12317   5.748   4.214   6.564  0.3870 -0.7499  1.2116
   92MOL0     C12318   5.688   4.087   6.571  0.6314 -0.0949 -0.1232
   92MOL0     C12319   5.547   4.076   6.550  1.1107  0.5437 -0.1201
   92MOL0     C12320   5.469   4.184   6.518  0.0952  0.3082 -0.4209
   92MOL0     O12321   5.342   4.154   6.501 -0.3654  1.2468  0.2719
   92MOL0     C12322   5.253   4.262   6.474  0.0278 -0.8758  0.5463
   92MOL0     C12323   5.112   4.216   6.435 -0.1628  0.6171  0.5755
   92MOL0     C12324   5.020   4.320   6.478 -0.2662 -0.3907 -0.4237
   92MOL0     C12325   4.882   4.287   6.426 -0.2006  0.5889  0.1402
   92MOL0     C12326   4.782   4.393   6.450  0.1596 -0.3290  0.0363
   92MOL0     C12327   4.659   4.381   6.368  1.2715  0.6114 -0.1528
   92MOL0     C12328   4.555   4.271   6.398 -0.3156 -0.7853  0.4939
   92MOL0     C12329   4.408   4.304   6.344  0.8764 -0.8401  0.5829
   92MOL0    Cl12330   4.404   4.302   6.181  0.1492  0.2267 -0.0101
   92MOL0     C12331   5.531   4.304   6.513 -0.3570  0.0643  0.1785
   92MOL0     C12332   5.671   4.320   6.532 -0.2430  0.3834 -0.2254
   92MOL0     O12333   5.973   4.052   6.633 -0.4023  0.2503  0.6436
   92MOL0     C12334   6.142   4.337   6.491  0.6388  0.1521  0.1265
   92MOL0     C12335   6.267   4.400   6.475  0.4844  1.0192 -0.6392
   92MOL0     N12336   7.035   4.482   6.886 -0.2329  0.5113  0.9202
   92MOL0     N12337   7.154   4.516   6.898  0.3909  0.6994  0.2656
   92MOL0     C12338   8.093   4.678   6.561  0.8181 -0.7007  0.3698
   92MOL0     C12339   8.183   4.630   6.465  0.5738  0.4500  0.7270
   92MOL0     C12340   8.548   4.455   6.272 -0.0827 -0.1669  0.1698
   92MOL0     C12341   8.643   4.559   6.225  1.1632  0.2455 -1.2260
   92MOL0     C12342   8.740   4.522   6.135  0.4258 -0.1418 -0.3372
   92MOL0     C12343   8.746   4.392   6.088  0.8358 -0.7635  0.5295
   92MOL0     O12344   8.842   4.370   5.989 -0.3654  0.1064  0.5491
   92MOL0     C12345   8.836   4.243   5.923  0.1695 -0.0734 -1.2061
   92MOL0     C12346   8.930   4.224   5.808 -0.1163  1.2577  1.0816
   92MOL0     C12347   9.069   4.272   5.833  0.1825  0.0539  0.5950
   92MOL0     C12348   9.180   4.199   5.762 -0.3935 -0.5774  0.9355
   92MOL0     C12349   9.317   4.249   5.801  0.1380 -1.5727  0.0335
   92MOL0     C12350   9.421   4.306   5.838  0.6342 -0.4107 -0.6356
   92MOL0     C12351   8.657   4.295   6.125 -0.4524  0.0796 -0.1691
   92MOL0     C12352   8.554   4.326   6.207 -0.3767 -0.3701  0.2789
   92MOL0     H12353   8.468   4.692   6.621 -0.0978  1.7996  5.3877
   92MOL0     H12354   8.320   4.754   6.807 -2.0431  3.4934  0.7266
   92MOL0     H12355   8.124   4.724   6.960 -3.1204 -0.8094  1.4117
   92MOL0     H12356   8.134   4.895   6.904 -1.4334  1.1053  0.3098
   92MOL0     H12357   7.985   4.793   7.097 -0.5499  1.2783  1.2515
   92MOL0     H12358   7.933   4.935   7.023 -0.8229 -0.8064  1.6869
   92MOL0     H12359   7.842   4.648   6.951 -2.0224 -0.1849  0.3588
   92MOL0     H12360   7.760   4.752   7.062  0.5382  1.7788 -0.0210
   92MOL0     H12361   7.723   4.922   6.889 -1.1759 -0.3505  2.6825
   92MOL0     H12362   7.773   4.788   6.778  1.4759 -2.0071  1.3311
   92MOL0     H12363   7.541   4.807   6.958  1.9954  2.7378 -0.6684
   92MOL0     H12364   7.536   4.797   6.784 -1.6687 -0.6341  0.6688
   92MOL0     H12365   7.611   4.543   6.805  0.3840  1.7917 -1.4353
   92MOL0     H12366   7.608   4.579   6.980 -1.0527 -0.6679  0.2746
   92MOL0     H12367   7.419   4.464   6.931  0.7698  0.9464  1.8120
   92MOL0     H12368   7.374   4.629   6.966  2.4630  0.3541  0.3983
   92MOL0     H12369   7.396   4.493   6.688  0.9599 -0.8728  1.5146
   92MOL0     H12370   7.360   4.664   6.709  2.1664 -0.4944  0.7566
   92MOL0     H12371   7.117   4.511   6.563 -1.0092  0.0867 -0.6090
   92MOL0     H12372   6.900   4.420   6.589  1.9660 -1.2992  1.1911
   92MOL0     H12373   6.837   4.361   6.732 -1.6759 -0.2553 -2.1772
   92MOL0     H12374   6.840   4.671   6.689  0.5871  1.3969  1.1509
   92MOL0     H12375   6.751   4.575   6.805  1.2472  1.2387  0.0433
   92MOL0     H12376   6.705   4.552   6.496  0.6129  1.0166  0.6108
   92MOL0     H12377   6.626   4.678   6.583  1.0740  0.7556 -0.0419
   92MOL0     H12378   6.491   4.521   6.705  3.4591 -0.6853  3.8637
   92MOL0     H12379   6.608   4.396   6.695  2.5342 -0.1964 -1.3687
   92MOL0     H12380   6.457   4.237   6.689  1.8868  0.5769 -2.2847
   92MOL0     H12381   6.263   4.010   6.749 -1.4369  1.2552 -4.9922
   92MOL0     H12382   6.307   4.151   6.857 -0.9598  1.1456  0.6969
   92MOL0     H12383   6.139   4.114   6.832  0.3540  1.2762  1.0543
   92MOL0     H12384   5.745   4.000   6.603  3.4356  1.7715  0.3830
   92MOL0     H12385   5.509   3.975   6.553  3.5737 -0.5979 -2.4431
   92MOL0     H12386   5.251   4.329   6.560  1.7490  2.3031 -1.6824
   92MOL0     H12387   5.284   4.334   6.397 -0.4239  0.9957  2.0461
   92MOL0     H12388   5.102   4.221   6.326 -0.1649 -2.5136  0.3573
   92MOL0     H12389   5.104   4.112   6.467  3.8817 -1.7433 -4.5163
   92MOL0     H12390   5.053   4.419   6.445  0.3007 -0.5250 -0.2788
   92MOL0     H12391   5.017   4.324   6.587 -3.3508  1.0417 -0.4632
   92MOL0     H12392   4.896   4.249   6.325  2.1636  0.0158  0.6286
   92MOL0     H12393   4.847   4.199   6.481 -1.1377  0.8214 -0.0732
   92MOL0     H12394   4.826   4.493   6.436  0.0933 -0.3332 -0.1977
   92MOL0     H12395   4.758   4.398   6.557  0.6380 -0.3387  0.1465
   92MOL0     H12396   4.596   4.470   6.373  0.1747  0.1730 -3.6857
   92MOL0     H12397   4.692   4.368   6.264 -1.0943 -0.9453 -0.7969
   92MOL0     H12398   4.558   4.251   6.505 -0.8818  1.7753  1.0483
   92MOL0     H12399   4.590   4.178   6.352 -0.4363  0.2241 -1.7645
   92MOL0     H12400   4.372   4.402   6.377 -3.3969 -2.2451  0.7678
   92MOL0     H12401   4.335   4.233   6.385 -0.9095 -0.2761 -1.4138
   92MOL0     H12402   5.491   4.404   6.505  0.7557  0.5626  0.5386
   92MOL0     H12403   5.710   4.420   6.516 -0.0851  0.3406 -0.1127
   92MOL0     H12404   6.055   4.380   6.442  0.9125  0.3540 -0.1809
   92MOL0     H12405   6.281   4.479   6.401 -1.6977  0.7746 -1.3864
   92MOL0     H12406   7.989   4.682   6.529  1.6487  1.5332 -2.4218
   92MOL0     H12407   8.141   4.603   6.369 -1.6552 -0.9735  2.0148
   92MOL0     H12408   8.635   4.662   6.258 -1.0174 -0.0826 -0.6274
   92MOL0     H12409   8.814   4.595   6.105  1.6151 -1.1578  0.0216
   92MOL0     H12410   8.860   4.168   6.000  0.4135  0.5260 -0.6861
   92MOL0     H12411   8.742   4.214   5.876 -0.5667  0.6259 -0.2046
   92MOL0     H12412   8.895   4.256   5.710 -0.4771  0.8165  1.0602
   92MOL0     H12413   8.945   4.116   5.802  2.0155  1.5560  0.3492
   92MOL0     H12414   9.095   4.270   5.939 -0.0992 -4.4255  0.7714
   92MOL0     H12415   9.076   4.375   5.796 -2.7871 -0.4854 -1.8858
   92MOL0     H12416   9.163   4.224   5.657  1.3830  0.6245  0.8742
   92MOL0     H12417   9.175   4.090   5.770  1.1305 -0.6378  1.4799
   92MOL0     H12418   9.520   4.336   5.867  0.2340  0.4751 -0.1530
   92MOL0     H12419   8.661   4.192   6.091  0.0315  0.4106 -1.1557
   92MOL0     H12420   8.483   4.247   6.227  3.0837 -3.5441  1.0948
   93MOL0     O12421  11.258   9.301   9.800 -0.0351 -0.4140 -0.1537
   93MOL0     C12422  11.265   9.287   9.920 -0.6808 -0.2177 -0.1247
   93MOL0     O12423  11.156   9.292  10.005 -0.4463 -0.8684  0.6924
   93MOL0     C12424  11.040   9.301   9.941  0.7459 -0.0599 -0.6409
   93MOL0     C12425  10.982   9.415   9.904 -0.4152 -0.9132  1.1193
   93MOL0     C12426  10.847   9.420   9.859  0.2853  0.4072 -0.0204
   93MOL0     C12427  10.781   9.302   9.833  0.3853 -0.4481 -0.5112
   93MOL0     O12428  10.654   9.314   9.777  0.0398 -0.3079 -0.8004
   93MOL0     C12429  10.580   9.193   9.737  0.8567  0.0756  0.0761
   93MOL0     C12430  10.426   9.228   9.743  0.2593 -0.0272  0.3735
   93MOL0     C12431  10.374   9.221   9.877  0.6348 -0.9523 -0.6254
   93MOL0     C12432  10.215   9.252   9.866 -0.8109  1.1109  0.1458
   93MOL0     C12433  10.158   9.226  10.011 -0.4020 -0.1378  1.6028
   93MOL0     C12434  10.182   9.355  10.100 -0.2946 -0.4356  0.4501
   93MOL0     C12435  10.054   9.425  10.122 -0.0555 -0.6278 -0.1231
   93MOL0     C12436  10.059   9.546  10.219 -1.0207  0.5136  0.3999
   93MOL0     N12437   9.936   9.630  10.217  0.7602 -0.6607 -1.1198
   93MOL0     C12438   9.892   9.716  10.115  0.1159  0.1217 -0.7381
   93MOL0     C12439   9.764   9.738  10.153  0.4417 -0.1721  0.4229
   93MOL0     C12440   9.664   9.821  10.074 -0.5262  1.3639 -0.0029
   93MOL0     C12441   9.618   9.944  10.159  0.3972 -0.0334  0.0821
   93MOL0     C12442   9.541  10.045  10.070 -0.0723 -0.5803  0.0712
   93MOL0     C12443   9.523  10.175  10.134 -0.1622 -0.5288 -0.4499
   93MOL0     O12444   9.635  10.272  10.135 -0.3911  0.1676 -0.0699
   93MOL0     C12445   9.595  10.409  10.167 -0.1267  0.1753  0.3986
   93MOL0     C12446   9.689  10.507  10.173 -0.3470 -0.0481 -0.3698
   93MOL0     C12447   9.649  10.639  10.202  0.8742  0.2616 -0.5728
   93MOL0     C12448   9.758  10.751  10.192  0.2350  0.2136 -0.4250
   93MOL0     C12449   9.513  10.667  10.227 -0.1748  0.5057 -0.6041
   93MOL0     C12450   9.451  10.803  10.234 -0.4057  0.2025 -1.0928
   93MOL0     O12451   9.334  10.818  10.299  0.1800  0.7019 -0.2142
   93MOL0     C12452   9.282  10.947  10.310 -0.1417  0.7198 -0.2914
   93MOL0     C12453   9.346  11.055  10.366 -0.3173 -0.8541 -0.3170
   93MOL0     C12454   9.281  11.184  10.356  0.7618  0.8621  0.4358
   93MOL0     C12455   9.151  11.191  10.308 -0.5268 -0.1959  0.3719
   93MOL0     O12456   9.088  11.312  10.321  0.9611  0.1767  0.3441
   93MOL0     C12457   8.959  11.345  10.266 -1.3398  0.1628 -0.0923
   93MOL0     C12458   8.853  11.354  10.371  0.7052  0.7336 -0.2973
   93MOL0     C12459   8.713  11.322  10.313 -0.3629 -1.5705  0.1533
   93MOL0     C12460   8.599  11.276  10.416 -0.1513 -0.6989 -0.1306
   93MOL0     C12461   8.467  11.278  10.341 -0.1583  0.5013 -0.0379
   93MOL0     C12462   8.343  11.227  10.425  0.5614 -0.1493  0.1755
   93MOL0     C12463   8.207  11.231  10.350  0.3460  0.1666 -0.3854
   93MOL0     C12464   8.084  11.216  10.432 -0.7490  1.2815  0.5993
   93MOL0    Cl12465   8.078  11.385  10.489 -0.1836 -0.0090 -0.2783
   93MOL0     C12466   9.081  11.074  10.270  0.1503 -0.0396  0.6207
   93MOL0     C12467   9.150  10.957  10.261 -0.2756  1.0973  0.0429
   93MOL0     O12468   9.509  10.891  10.175  0.5435  0.2741 -1.0363
   93MOL0     C12469   9.419  10.570  10.216  0.2355  0.5146  0.1326
   93MOL0     C12470   9.459  10.439  10.197  0.2906 -0.1585  0.2173
   93MOL0     N12471   9.736   9.680  10.275 -0.2375 -0.6091 -0.0178
   93MOL0     N12472   9.837   9.617  10.314 -0.8627 -0.0286  0.7604
   93MOL0     C12473  10.840   9.180   9.871 -0.3211  0.6168 -0.5543
   93MOL0     C12474  10.966   9.181   9.942 -0.3865 -0.2061 -0.1861
   93MOL0     C12475  11.398   9.278   9.980 -0.0472 -0.4577 -0.1172
   93MOL0     C12476  11.511   9.338   9.927 -0.5708 -0.5246  0.7276
   93MOL0     C12477  11.630   9.339   9.999  0.1154  0.2888  1.1065
   93MOL0     C12478  11.644   9.255  10.109  0.1665  0.1637 -0.7481
   93MOL0     O12479  11.753   9.254  10.199 -0.2288  0.2586 -0.7418
   93MOL0     C12480  11.877   9.312  10.171 -0.1746  0.8580  0.0161
   93MOL0     C12481  11.996   9.272  10.259 -0.6994 -0.1394  0.3096
   93MOL0     C12482  11.995   9.307  10.409  0.2799 -0.1141 -0.7573
   93MOL0     C12483  12.127   9.313  10.473 -0.8370 -0.0614  0.1989
   93MOL0     C12484  12.123   9.315  10.614 -0.5380 -0.6477  0.0901
   93MOL0     C12485  12.114   9.315  10.738  0.4442  0.2175  0.2288
   93MOL0     C12486  11.538   9.181  10.152 -0.2895 -0.0464 -1.2054
   93MOL0     C12487  11.415   9.193  10.091  0.2448  0.0226  0.4333
   93MOL0     H12488  11.041   9.507   9.903 -1.3897 -0.2691 -0.7826
   93MOL0     H12489  10.796   9.506   9.817 -0.1898 -0.4333 -1.2465
   93MOL0     H12490  10.614   9.165   9.637  0.2009 -1.5590  0.2768
   93MOL0     H12491  10.594   9.101   9.795 -0.8522 -0.6324 -0.5682
   93MOL0     H12492  10.408   9.330   9.708  0.1836  1.5646  4.4765
   93MOL0     H12493  10.370   9.151   9.689 -1.9499  0.7490  1.4501
   93MOL0     H12494  10.385   9.120   9.918  0.5267 -0.9629 -0.6234
   93MOL0     H12495  10.428   9.284   9.948  3.9741 -1.2552 -2.6925
   93MOL0     H12496  10.207   9.358   9.840  1.5118  1.5008  0.7994
   93MOL0     H12497  10.170   9.178   9.800  0.2387  0.6113 -0.0358
   93MOL0     H12498  10.052   9.209   9.991  0.2885 -1.8182 -1.3384
   93MOL0     H12499  10.203   9.134  10.051  0.5243 -0.8179 -0.7920
   93MOL0     H12500  10.237   9.324  10.189  1.0467 -2.2854 -0.9408
   93MOL0     H12501  10.250   9.418  10.043 -1.4381 -1.0705 -1.7352
   93MOL0     H12502  10.033   9.461  10.021  0.1300  2.8118  0.9345
   93MOL0     H12503   9.985   9.357  10.175  0.4514  0.7484  2.4725
   93MOL0     H12504  10.134   9.619  10.186 -1.7858  0.1213 -2.4203
   93MOL0     H12505  10.079   9.510  10.321 -3.2777 -2.2174  0.0158
   93MOL0     H12506   9.947   9.724  10.021  0.3533 -1.6966 -0.8078
   93MOL0     H12507   9.714   9.864   9.986 -1.0083  1.5155 -0.2091
   93MOL0     H12508   9.581   9.760  10.037  0.2121  1.2434 -1.5479
   93MOL0     H12509   9.707   9.986  10.207  0.9608 -2.2539  1.1282
   93MOL0     H12510   9.555   9.911  10.242 -0.5601  2.1534  0.2857
   93MOL0     H12511   9.442  10.006  10.046 -1.0554  2.4707 -1.3712
   93MOL0     H12512   9.592  10.063   9.974  3.3703 -1.5940  1.5502
   93MOL0     H12513   9.504  10.164  10.241  1.3047  1.4154  0.0691
   93MOL0     H12514   9.434  10.220  10.090 -0.1630  0.0095  0.0950
   93MOL0     H12515   9.792  10.472  10.163 -0.5710 -1.8101  2.5026
   93MOL0     H12516   9.771  10.788  10.090 -0.8667  0.4590 -0.4973
   93MOL0     H12517   9.737  10.833  10.261 -1.5101 -2.4361  2.4509
   93MOL0     H12518   9.852  10.719  10.238 -1.5912 -1.4374  2.4754
   93MOL0     H12519   9.448  11.049  10.404 -0.5503 -0.7238  0.3474
   93MOL0     H12520   9.334  11.273  10.389  0.6817  0.5103  1.5575
   93MOL0     H12521   8.953  11.438  10.209 -0.7909  0.7490  0.7951
   93MOL0     H12522   8.929  11.276  10.186 -1.4029 -0.1714  0.2145
   93MOL0     H12523   8.881  11.273  10.439  3.5758  0.1873 -1.9877
   93MOL0     H12524   8.849  11.449  10.424 -3.9420  0.0319  1.0672
   93MOL0     H12525   8.717  11.247  10.233 -0.2971  0.3295 -1.7080
   93MOL0     H12526   8.672  11.417  10.279 -0.7404 -0.0700  4.2273
   93MOL0     H12527   8.623  11.174  10.448 -0.7234 -1.3717 -1.7475
   93MOL0     H12528   8.592  11.335  10.508 -2.2091 -4.1494  2.1900
   93MOL0     H12529   8.471  11.219  10.249  1.6025  1.4186 -0.5897
   93MOL0     H12530   8.452  11.384  10.320  0.2955  0.9115  1.5498
   93MOL0     H12531   8.346  11.123  10.459 -0.9245  0.3802  2.1172
   93MOL0     H12532   8.342  11.279  10.522 -1.4601 -4.1459  2.5903
   93MOL0     H12533   8.206  11.141  10.287 -1.2167  1.6583 -2.6370
   93MOL0     H12534   8.196  11.319  10.287  1.2027  0.5898  0.0355
   93MOL0     H12535   8.103  11.146  10.514 -0.7862  2.5442  1.7286
   93MOL0     H12536   7.998  11.180  10.376  0.9934 -0.9585 -0.7962
   93MOL0     H12537   8.976  11.075  10.241  0.4425  0.1126 -0.4919
   93MOL0     H12538   9.094  10.866  10.244 -0.1572  0.7901  1.2334
   93MOL0     H12539   9.314  10.590  10.235 -0.0714 -2.2446  2.0312
   93MOL0     H12540   9.381  10.364  10.204  0.5409 -0.5816 -1.1473
   93MOL0     H12541  10.789   9.084   9.868 -0.7367  0.8338 -0.5799
   93MOL0     H12542  11.002   9.092   9.992  0.5281  0.7130  0.8367
   93MOL0     H12543  11.505   9.402   9.839 -3.7110  0.8272  1.7917
   93MOL0     H12544  11.712   9.403   9.972  0.4866  1.2865  4.1808
   93MOL0     H12545  11.896   9.278  10.069 -1.7559 -0.4297  0.1055
   93MOL0     H12546  11.856   9.420  10.168 -1.2097  0.6451 -1.1792
   93MOL0     H12547  12.077   9.333  10.216  0.2109 -0.6237  1.3124
   93MOL0     H12548  12.016   9.165  10.249 -2.2813 -0.4693  0.4020
   93MOL0     H12549  11.933   9.227  10.450  0.9284 -0.5363 -0.5931
   93MOL0     H12550  11.946   9.405  10.417 -2.3595 -1.1844 -2.4229
   93MOL0     H12551  12.192   9.392  10.431 -2.0015  0.4521 -0.6898
   93MOL0     H12552  12.188   9.225  10.451 -1.3715 -1.2388  3.0176
   93MOL0     H12553  12.120   9.310  10.845 -1.6213 -0.5552  0.3547
   93MOL0     H12554  11.553   9.136  10.250 -0.8173  3.3423  0.5994
   93MOL0     H12555  11.334   9.143  10.144  0.8893 -0.2530  1.1853
   94MOL0     O12556   7.611   6.385   4.594 -0.6329 -0.1734 -0.5089
   94MOL0     C12557   7.613   6.317   4.694 -0.7154  0.4524  0.3910
   94MOL0     O12558   7.505   6.260   4.748  0.0850 -0.1730 -0.6010
   94MOL0     C12559   7.374   6.272   4.695 -0.0414 -0.7419 -0.6237
   94MOL0     C12560   7.273   6.206   4.779  1.0049 -0.0224 -0.4527
   94MOL0     C12561   7.145   6.197   4.737 -0.2298  0.0498  1.2610
   94MOL0     C12562   7.101   6.262   4.623 -0.1815  0.7854  0.8647
   94MOL0     O12563   6.962   6.245   4.585  0.0037  0.4108  0.3302
   94MOL0     C12564   6.912   6.318   4.467 -0.5187  0.4176 -0.4930
   94MOL0     C12565   6.775   6.269   4.426 -0.5701 -0.7587  0.2967
   94MOL0     C12566   6.666   6.303   4.530  0.5920  0.2698  0.1202
   94MOL0     C12567   6.526   6.278   4.473  0.1401 -0.8018  0.4430
   94MOL0     C12568   6.408   6.290   4.575  0.7273 -0.2106  0.4085
   94MOL0     C12569   6.297   6.213   4.509 -0.3328 -0.3100 -0.0490
   94MOL0     C12570   6.159   6.250   4.572  0.1847 -0.7472 -0.7149
   94MOL0     C12571   6.159   6.302   4.726 -0.9221 -0.3618  0.0544
   94MOL0     N12572   6.030   6.300   4.791  0.0339  0.3923 -0.2842
   94MOL0     C12573   5.944   6.408   4.784 -0.3528 -0.5884  0.4031
   94MOL0     C12574   5.841   6.377   4.863  0.6337  0.3347 -0.9384
   94MOL0     C12575   5.725   6.467   4.899  0.0623  0.6883 -0.0475
   94MOL0     C12576   5.623   6.453   4.790 -0.0527 -0.3419  0.4758
   94MOL0     C12577   5.484   6.511   4.816 -0.0956 -0.2178  0.1805
   94MOL0     C12578   5.396   6.436   4.920 -0.3515  0.4511  0.6360
   94MOL0     O12579   5.272   6.385   4.871  0.3368  0.3448 -0.2387
   94MOL0     C12580   5.158   6.449   4.921 -0.0695 -0.0912  0.2759
   94MOL0     C12581   5.147   6.585   4.961 -1.0718 -0.2010 -1.7592
   94MOL0     C12582   5.027   6.632   5.027 -0.6815  0.2561  0.8575
   94MOL0     C12583   5.046   6.766   5.092 -0.1441  0.5983  0.1396
   94MOL0     C12584   4.915   6.560   5.024  0.0386  0.9081 -0.9370
   94MOL0     C12585   4.784   6.598   5.077  0.0323  1.0630 -0.5829
   94MOL0     O12586   4.719   6.501   5.154 -0.4443  1.0057  0.7917
   94MOL0     C12587   4.590   6.533   5.181 -1.1577 -0.4384 -0.1340
   94MOL0     C12588   4.504   6.520   5.067  0.1167 -0.6662 -0.0094
   94MOL0     C12589   4.364   6.548   5.074  0.1696  1.7557 -0.5952
   94MOL0     C12590   4.316   6.572   5.201 -0.6650  0.2937  0.0826
   94MOL0     O12591   4.176   6.577   5.209  0.5354  0.3457  0.4776
   94MOL0     C12592   4.105   6.507   5.311 -0.0508 -0.4566 -0.0795
   94MOL0     C12593   3.955   6.529   5.288 -0.0948  0.2268 -0.2204
   94MOL0     C12594   3.878   6.471   5.409  0.9230  0.9208 -0.6440
   94MOL0     C12595   3.748   6.550   5.455  0.0478 -0.3767 -0.4188
   94MOL0     C12596   3.639   6.460   5.531 -0.5719 -0.3943  0.5407
   94MOL0     C12597   3.519   6.546   5.584 -0.0022 -0.1238 -0.1239
   94MOL0     C12598   3.402   6.456   5.635 -0.5694 -1.2432 -0.4814
   94MOL0     C12599   3.286   6.520   5.712  0.2234 -0.4025  0.5947
   94MOL0    Cl12600   3.336   6.598   5.862 -0.0399 -0.3381 -0.3594
   94MOL0     C12601   4.405   6.597   5.306  0.0600  0.0702 -0.9128
   94MOL0     C12602   4.538   6.576   5.304 -1.0707  0.4213  0.5410
   94MOL0     O12603   4.747   6.708   5.053 -0.2646  0.7970  0.7043
   94MOL0     C12604   4.934   6.431   4.976 -0.5757  0.0947  0.1279
   94MOL0     C12605   5.046   6.379   4.915  0.4588  0.1473  0.2505
   94MOL0     N12606   5.868   6.243   4.908  0.3940 -0.6388 -0.2311
   94MOL0     N12607   5.976   6.198   4.858  0.4547 -0.0629 -0.0218
   94MOL0     C12608   7.198   6.324   4.543  0.4172 -0.5441 -0.1362
   94MOL0     C12609   7.333   6.332   4.578  0.4487  0.6715  0.6371
   94MOL0     C12610   7.741   6.302   4.763 -0.0385  0.7538  0.5214
   94MOL0     C12611   7.743   6.216   4.874  0.0943 -0.2588  0.2366
   94MOL0     C12612   7.858   6.202   4.951 -0.5332  0.3177  0.3384
   94MOL0     C12613   7.982   6.265   4.922  0.1508  0.3310  0.0939
   94MOL0     O12614   8.094   6.237   4.988 -0.7454 -0.2646  0.1085
   94MOL0     C12615   8.214   6.321   4.977  0.0772 -0.5971 -0.6906
   94MOL0     C12616   8.326   6.288   5.086  0.4755 -0.3211  0.0991
   94MOL0     C12617   8.322   6.361   5.216  0.9738  0.1026  0.2221
   94MOL0     C12618   8.414   6.290   5.313 -0.6642  0.2662 -0.2060
   94MOL0     C12619   8.375   6.303   5.457  0.3956 -0.3202  0.3768
   94MOL0     C12620   8.342   6.329   5.568 -0.8074 -0.6728 -0.5103
   94MOL0     C12621   7.977   6.350   4.809  0.1064  0.4145 -0.2162
   94MOL0     C12622   7.862   6.371   4.732 -0.2510  0.1170 -0.3492
   94MOL0     H12623   7.313   6.154   4.865 -0.4660 -2.2572 -1.0396
   94MOL0     H12624   7.075   6.139   4.797 -1.0384 -2.0976 -1.5570
   94MOL0     H12625   6.921   6.425   4.488  3.3556  0.0917  0.1875
   94MOL0     H12626   6.986   6.297   4.388 -0.7611 -2.0248 -0.1460
   94MOL0     H12627   6.748   6.302   4.325 -1.5495 -0.8312  0.5293
   94MOL0     H12628   6.781   6.160   4.418  1.0029 -0.6787 -0.0919
   94MOL0     H12629   6.678   6.230   4.611 -1.2340  0.7192  0.8340
   94MOL0     H12630   6.689   6.401   4.572 -2.2244  1.3133 -0.5850
   94MOL0     H12631   6.509   6.349   4.391  0.2291 -0.6460  0.5586
   94MOL0     H12632   6.513   6.183   4.420  1.5656  0.6139 -2.7163
   94MOL0     H12633   6.434   6.253   4.674  0.8317 -0.0032  0.4578
   94MOL0     H12634   6.391   6.398   4.577  3.2927  0.4046 -2.5255
   94MOL0     H12635   6.302   6.241   4.403 -0.0038  0.5785  0.1949
   94MOL0     H12636   6.306   6.105   4.524 -2.4695 -0.5719 -0.3348
   94MOL0     H12637   6.124   6.334   4.512 -0.9369 -1.8420 -1.6610
   94MOL0     H12638   6.089   6.166   4.566  2.8444 -3.3660  1.5805
   94MOL0     H12639   6.210   6.397   4.743 -3.5352  0.6733  2.9752
   94MOL0     H12640   6.212   6.228   4.787 -2.2950 -1.7115 -0.3119
   94MOL0     H12641   5.966   6.502   4.735 -1.6837  0.3235  1.4709
   94MOL0     H12642   5.685   6.425   4.992  0.0697  2.6748  0.9032
   94MOL0     H12643   5.753   6.571   4.918  1.5675  0.8075 -2.4169
   94MOL0     H12644   5.615   6.346   4.770 -1.3734 -0.0734 -0.5981
   94MOL0     H12645   5.652   6.494   4.693  0.0134  0.7548  0.9392
   94MOL0     H12646   5.436   6.490   4.720 -0.3550 -0.2136  0.3095
   94MOL0     H12647   5.486   6.618   4.842 -0.7601 -0.9120  3.5678
   94MOL0     H12648   5.379   6.494   5.011 -0.5423 -0.5209  1.2372
   94MOL0     H12649   5.443   6.345   4.960 -1.6915 -0.5039  0.1138
   94MOL0     H12650   5.236   6.647   4.967 -1.9334  0.9339 -0.0114
   94MOL0     H12651   4.974   6.830   5.039 -0.7452 -0.8287 -0.8307
   94MOL0     H12652   4.997   6.758   5.190 -2.0398 -0.0346 -0.7993
   94MOL0     H12653   5.148   6.804   5.099  0.1363  0.0651 -0.7990
   94MOL0     H12654   4.545   6.477   4.976  3.2214  4.3233 -1.3548
   94MOL0     H12655   4.292   6.544   4.993  1.3006  1.0670 -1.6220
   94MOL0     H12656   4.128   6.400   5.311  0.7322 -0.4047 -3.2980
   94MOL0     H12657   4.145   6.559   5.398  0.6507  1.5790 -1.5419
   94MOL0     H12658   3.936   6.636   5.274 -0.1941  0.3586  0.8546
   94MOL0     H12659   3.927   6.463   5.205  2.4951 -3.3026  1.4527
   94MOL0     H12660   3.938   6.455   5.499  1.0096  0.0404 -0.8475
   94MOL0     H12661   3.844   6.372   5.376  1.4718  0.9399 -1.3031
   94MOL0     H12662   3.780   6.635   5.515  2.6220 -0.3205 -1.7361
   94MOL0     H12663   3.712   6.594   5.361  1.1823 -2.2780 -1.8243
   94MOL0     H12664   3.691   6.408   5.612  0.0798 -2.3979 -1.0528
   94MOL0     H12665   3.596   6.383   5.465 -0.4466  0.4759 -0.5958
   94MOL0     H12666   3.548   6.609   5.669  0.0668 -0.2046 -0.0870
   94MOL0     H12667   3.471   6.603   5.505  0.4942  2.7332  1.5166
   94MOL0     H12668   3.441   6.373   5.694 -1.0695 -1.6641 -0.7247
   94MOL0     H12669   3.360   6.411   5.544 -0.7045  0.2094 -1.1670
   94MOL0     H12670   3.217   6.436   5.718 -3.6656  2.1991 -2.4076
   94MOL0     H12671   3.228   6.598   5.662 -1.8729 -1.7914  0.7353
   94MOL0     H12672   4.362   6.629   5.400  2.1332  0.7317 -0.1377
   94MOL0     H12673   4.599   6.587   5.394 -0.6428  1.3585  0.1485
   94MOL0     H12674   4.838   6.380   4.973 -0.9772  0.8967 -1.0773
   94MOL0     H12675   5.055   6.275   4.885 -2.4523 -0.5930  1.6516
   94MOL0     H12676   7.177   6.358   4.443  3.5273  0.6977 -0.4847
   94MOL0     H12677   7.401   6.383   4.511 -1.5740  0.9713 -1.3043
   94MOL0     H12678   7.652   6.170   4.911 -1.9464  3.0515 -0.2225
   94MOL0     H12679   7.856   6.139   5.039 -1.8431 -0.5984 -0.3122
   94MOL0     H12680   8.271   6.284   4.891  2.0049 -1.9987  1.0849
   94MOL0     H12681   8.190   6.427   4.975  3.0342  0.1520 -2.0684
   94MOL0     H12682   8.422   6.321   5.045  0.1710 -2.1604 -2.2920
   94MOL0     H12683   8.331   6.180   5.100  0.3581 -0.2281  0.9009
   94MOL0     H12684   8.217   6.355   5.248  0.3074 -2.1226 -2.0522
   94MOL0     H12685   8.345   6.467   5.199  1.5685 -0.6218 -5.6778
   94MOL0     H12686   8.516   6.325   5.298 -0.0871 -0.5717  1.4816
   94MOL0     H12687   8.394   6.182   5.308 -2.9787  0.6776 -1.2522
   94MOL0     H12688   8.301   6.346   5.665  2.8656 -0.2761  1.1278
   94MOL0     H12689   8.076   6.393   4.797  1.1092 -1.4333  0.9163
   94MOL0     H12690   7.865   6.444   4.651  1.4836 -0.5831 -0.9542
   95MOL0     O12691  10.286   0.344   5.674 -0.2520 -0.3126  0.4983
   95MOL0     C12692  10.246   0.323   5.787 -0.2656  0.2069 -0.7625
   95MOL0     O12693  10.142   0.379   5.840  0.0204 -0.7516 -0.4512
   95MOL0     C12694  10.055   0.450   5.762  0.4875  0.1222  0.4841
   95MOL0     C12695  10.082   0.561   5.685  0.1675  0.4520  0.2092
   95MOL0     C12696   9.972   0.626   5.621  0.3529 -0.6621 -0.7641
   95MOL0     C12697   9.841   0.579   5.629  0.1303  0.2465 -0.3368
   95MOL0     O12698   9.756   0.663   5.568  0.3954 -0.5379  0.1632
   95MOL0     C12699   9.615   0.639   5.594  0.2536 -0.0679  0.3807
   95MOL0     C12700   9.545   0.718   5.484 -0.7602  0.5651 -0.1322
   95MOL0     C12701   9.399   0.679   5.486  0.2284  0.4798 -0.6266
   95MOL0     C12702   9.322   0.789   5.415  0.1101  0.4394 -0.5702
   95MOL0     C12703   9.169   0.757   5.430  0.5176 -1.0745 -0.0882
   95MOL0     C12704   9.074   0.851   5.359 -0.0592 -0.3363 -0.1313
   95MOL0     C12705   9.032   0.962   5.448 -0.1012  0.1146  1.0466
   95MOL0     C12706   8.933   1.053   5.372 -0.6033  0.2674 -0.7632
   95MOL0     N12707   8.796   0.991   5.386  0.1956  0.1091 -0.6016
   95MOL0     C12708   8.736   0.891   5.309  1.1413 -0.5711 -0.5153
   95MOL0     C12709   8.619   0.856   5.374  0.0372  0.2937  0.2188
   95MOL0     C12710   8.514   0.763   5.325 -0.5934  0.5397  0.0431
   95MOL0     C12711   8.377   0.828   5.314  0.8167 -0.3656 -0.4244
   95MOL0     C12712   8.284   0.705   5.300  0.1239  0.2800 -0.6527
   95MOL0     C12713   8.138   0.750   5.320 -0.0872  0.9334  0.0177
   95MOL0     O12714   8.052   0.674   5.237 -0.4129 -0.5460 -0.3037
   95MOL0     C12715   7.941   0.735   5.187  0.0209 -0.8074 -0.1697
   95MOL0     C12716   7.876   0.658   5.092  0.0271 -0.1252  0.5211
   95MOL0     C12717   7.766   0.692   5.025  0.5028 -0.4975  0.7156
   95MOL0     C12718   7.715   0.592   4.928  0.9987 -0.7826  0.6058
   95MOL0     C12719   7.716   0.827   5.051 -0.0911  0.3095  0.0647
   95MOL0     C12720   7.603   0.892   4.982 -0.2907  0.2796  0.0142
   95MOL0     O12721   7.578   1.015   5.025 -0.4729  0.5240 -0.0981
   95MOL0     C12722   7.468   1.082   4.980  0.5367  0.2251 -0.3229
   95MOL0     C12723   7.455   1.123   4.846 -0.0934  0.0527 -0.1172
   95MOL0     C12724   7.333   1.173   4.797 -0.0446 -0.7806  0.8412
   95MOL0     C12725   7.228   1.196   4.880  0.5679  0.1798 -0.6395
   95MOL0     O12726   7.105   1.231   4.822  0.0612  0.1077 -0.4611
   95MOL0     C12727   7.018   1.298   4.910  0.0371 -1.2650  0.4407
   95MOL0     C12728   6.901   1.369   4.839 -0.4117  0.0202  0.4355
   95MOL0     C12729   6.809   1.426   4.943 -0.4824 -0.6592 -0.5140
   95MOL0     C12730   6.685   1.487   4.866  0.3526  0.2388  0.1188
   95MOL0     C12731   6.612   1.584   4.962  0.2287  0.0523 -0.0906
   95MOL0     C12732   6.479   1.634   4.903 -0.3279  0.3049  0.2869
   95MOL0     C12733   6.423   1.726   5.009  0.0440  0.4406  1.0149
   95MOL0     C12734   6.273   1.757   4.986  0.5476  0.5166  0.0509
   95MOL0    Cl12735   6.166   1.607   4.986 -0.6748 -0.1243  0.0060
   95MOL0     C12736   7.237   1.150   5.015 -0.1356  0.2856 -0.7454
   95MOL0     C12737   7.353   1.092   5.063 -0.8011  0.4696 -0.7618
   95MOL0     O12738   7.541   0.834   4.892  0.6572 -0.1374 -0.0912
   95MOL0     C12739   7.781   0.909   5.147 -0.4267 -0.5264 -0.9002
   95MOL0     C12740   7.900   0.869   5.206  0.7785  0.2752 -0.1428
   95MOL0     N12741   8.617   0.932   5.495  0.3339  0.6312 -0.4714
   95MOL0     N12742   8.708   1.012   5.496 -0.7743  0.0936  0.7480
   95MOL0     C12743   9.818   0.461   5.715 -0.3031 -0.5048 -0.1824
   95MOL0     C12744   9.928   0.395   5.766  0.3852  0.1307  0.0159
   95MOL0     C12745  10.310   0.211   5.861  0.3837  0.4143  0.1742
   95MOL0     C12746  10.248   0.171   5.984 -0.0261  0.1355  0.7653
   95MOL0     C12747  10.309   0.062   6.051 -0.5099 -0.8117  0.3263
   95MOL0     C12748  10.426   0.004   5.996 -0.0854  0.9450  0.1446
   95MOL0     O12749  10.485  -0.102   6.065 -0.2822 -0.0433  0.6351
   95MOL0     C12750  10.548  -0.204   5.989 -0.7269  0.6824 -0.2223
   95MOL0     C12751  10.577  -0.317   6.091 -0.3762  0.6928 -0.0678
   95MOL0     C12752  10.647  -0.434   6.030  0.0064  0.2261  0.1289
   95MOL0     C12753  10.775  -0.406   5.950 -0.6271  0.2600  0.2098
   95MOL0     C12754  10.892  -0.372   6.038 -0.1754 -0.4396 -0.3512
   95MOL0     C12755  10.993  -0.352   6.108  0.2312  0.9402 -0.0186
   95MOL0     C12756  10.481   0.049   5.880  0.7725  0.6106 -0.1706
   95MOL0     C12757  10.424   0.150   5.813 -0.6712 -0.7491  0.6607
   95MOL0     H12758  10.178   0.611   5.695 -0.5082  1.2997  3.5321
   95MOL0     H12759   9.994   0.718   5.568  0.9893 -0.6553 -0.4973
   95MOL0     H12760   9.587   0.534   5.597 -0.0022  0.0229  2.0172
   95MOL0     H12761   9.596   0.681   5.693  1.3706  0.5027  0.3670
   95MOL0     H12762   9.561   0.825   5.498  1.7253  0.1056  1.1099
   95MOL0     H12763   9.592   0.688   5.389  3.9626  1.5048  1.6060
   95MOL0     H12764   9.373   0.587   5.433 -0.7058  1.0334 -1.1353
   95MOL0     H12765   9.365   0.669   5.590 -0.1501 -1.3322 -0.8847
   95MOL0     H12766   9.341   0.884   5.466  2.1472 -0.5978  0.7755
   95MOL0     H12767   9.360   0.795   5.313 -1.2178  1.0494 -1.0460
   95MOL0     H12768   9.155   0.661   5.379 -1.0895 -0.5151 -0.7670
   95MOL0     H12769   9.134   0.739   5.533 -2.0269 -0.0613 -0.6979
   95MOL0     H12770   9.121   0.900   5.273 -0.9746 -0.7484 -0.8929
   95MOL0     H12771   8.983   0.799   5.327  0.3709 -1.9756  1.1369
   95MOL0     H12772   8.978   0.915   5.530 -4.5445 -0.2063 -1.7349
   95MOL0     H12773   9.116   1.026   5.477 -0.8149  2.5784 -1.8737
   95MOL0     H12774   8.958   1.069   5.267  0.6142  0.6953 -0.4240
   95MOL0     H12775   8.931   1.147   5.429  0.9297 -0.4339  0.5442
   95MOL0     H12776   8.766   0.854   5.211  4.7125  1.2204 -0.2334
   95MOL0     H12777   8.540   0.729   5.224  0.4259  1.3939 -0.0012
   95MOL0     H12778   8.518   0.677   5.392 -2.4585  2.0888  2.2905
   95MOL0     H12779   8.362   0.889   5.224 -3.3945 -0.9094 -0.2742
   95MOL0     H12780   8.355   0.892   5.399  2.7234  0.0456 -0.1994
   95MOL0     H12781   8.307   0.623   5.368 -1.1905 -3.5185 -4.3796
   95MOL0     H12782   8.300   0.674   5.197 -3.2942  2.1273 -1.8997
   95MOL0     H12783   8.128   0.859   5.307 -2.7132  0.8097  0.5683
   95MOL0     H12784   8.116   0.719   5.422  0.7835 -0.6084 -0.2278
   95MOL0     H12785   7.924   0.564   5.070  0.6045  0.2751  0.0394
   95MOL0     H12786   7.686   0.495   4.969  0.9744  0.3969  3.5886
   95MOL0     H12787   7.637   0.630   4.862  1.2905  2.5474  2.0084
   95MOL0     H12788   7.798   0.573   4.859  1.7874 -0.6400  1.4890
   95MOL0     H12789   7.538   1.105   4.779  0.2077  0.9226  0.0029
   95MOL0     H12790   7.334   1.201   4.692 -0.0944 -0.1181  1.0126
   95MOL0     H12791   6.978   1.227   4.982 -1.1820 -0.3071  0.7587
   95MOL0     H12792   7.077   1.369   4.970  1.2220  0.4593 -2.5021
   95MOL0     H12793   6.936   1.457   4.784 -1.3868  0.4028  0.3964
   95MOL0     H12794   6.861   1.299   4.766  2.8113 -0.1049 -1.4014
   95MOL0     H12795   6.864   1.492   5.011 -0.2662 -2.1020  0.7639
   95MOL0     H12796   6.769   1.342   5.001  0.9587 -0.6989  0.4728
   95MOL0     H12797   6.708   1.542   4.775  2.0005  1.8587  1.4508
   95MOL0     H12798   6.610   1.414   4.833  1.1092  0.1975 -1.5801
   95MOL0     H12799   6.672   1.670   4.993  0.7712 -0.6438  0.8044
   95MOL0     H12800   6.594   1.530   5.055  0.6058  1.0744  0.5911
   95MOL0     H12801   6.497   1.691   4.811 -1.0199 -1.1326 -0.7919
   95MOL0     H12802   6.406   1.553   4.894 -3.4588  2.5625  3.2190
   95MOL0     H12803   6.486   1.815   5.008 -0.4301  0.8965 -2.7923
   95MOL0     H12804   6.440   1.682   5.107  1.4528  0.9302  1.0141
   95MOL0     H12805   6.256   1.797   4.885 -2.2718 -0.9819 -0.1380
   95MOL0     H12806   6.241   1.833   5.058  1.0002 -0.2694  1.1028
   95MOL0     H12807   7.154   1.162   5.084  0.0598 -0.6821 -0.3168
   95MOL0     H12808   7.354   1.043   5.159 -2.3482 -0.4858 -1.1992
   95MOL0     H12809   7.752   1.010   5.176 -2.1951 -1.4433  0.7649
   95MOL0     H12810   7.943   0.953   5.261  0.7123  0.7325 -0.7735
   95MOL0     H12811   9.718   0.421   5.720  0.3105 -2.4595 -2.0743
   95MOL0     H12812   9.900   0.305   5.819  0.9085 -1.9227 -2.9495
   95MOL0     H12813  10.158   0.225   6.011 -0.8852 -0.5275 -0.6603
   95MOL0     H12814  10.273   0.022   6.145  2.2426 -0.6975  1.5446
   95MOL0     H12815  10.499  -0.246   5.901  1.1749  0.1889 -1.1036
   95MOL0     H12816  10.647  -0.174   5.952  0.2493 -0.7906  1.0703
   95MOL0     H12817  10.482  -0.352   6.131  0.4782 -2.8838 -0.7744
   95MOL0     H12818  10.639  -0.287   6.177 -0.5333 -1.4905  0.8908
   95MOL0     H12819  10.564  -0.475   5.972 -1.4188 -0.2114  2.3707
   95MOL0     H12820  10.673  -0.488   6.121 -4.1601  1.4454  2.3013
   95MOL0     H12821  10.756  -0.324   5.880  0.6665  0.0837 -0.3881
   95MOL0     H12822  10.796  -0.495   5.889 -0.4589  0.5081 -0.0960
   95MOL0     H12823  11.081  -0.336   6.168  1.2037  2.2879 -1.7113
   95MOL0     H12824  10.563   0.001   5.828 -0.1988 -0.7673 -0.4895
   95MOL0     H12825  10.463   0.173   5.715 -4.9376 -1.1206 -1.3195
   96MOL0     O12826   4.157  10.432   9.296 -0.1976 -0.4957 -0.4679
   96MOL0     C12827   4.231  10.411   9.395  0.7009 -0.4375 -0.4653
   96MOL0     O12828   4.212  10.312   9.489 -0.7145 -0.0256 -0.5141
   96MOL0     C12829   4.114  10.222   9.494  0.1021  0.3981 -0.2988
   96MOL0     C12830   4.103  10.160   9.618  0.0227 -0.0560 -0.2890
   96MOL0     C12831   3.999  10.073   9.653 -0.7409  0.5219  0.5965
   96MOL0     C12832   3.912  10.037   9.550  0.0774 -0.5985 -0.1738
   96MOL0     O12833   3.808   9.956   9.552  0.5089  0.3405 -0.4673
   96MOL0     C12834   3.812   9.837   9.638  0.2093  0.2514 -0.1681
   96MOL0     C12835   3.678   9.760   9.635 -0.0033  0.1119  0.3643
   96MOL0     C12836   3.547   9.844   9.676 -0.6259 -0.5078  0.1298
   96MOL0     C12837   3.557   9.894   9.825 -0.7489  0.3221  0.2822
   96MOL0     C12838   3.435   9.974   9.876  0.6633  0.7129  0.4039
   96MOL0     C12839   3.392   9.934  10.017 -0.1978 -0.4687 -0.3611
   96MOL0     C12840   3.282  10.032  10.057  0.0086 -0.0148 -0.1126
   96MOL0     C12841   3.264  10.033  10.214 -0.4554 -0.6979  0.0712
   96MOL0     N12842   3.132  10.086  10.240  0.2557  0.3860 -0.4657
   96MOL0     C12843   3.109  10.209  10.289 -0.5716 -0.7565  0.4453
   96MOL0     C12844   2.981  10.206  10.336 -0.7785  0.4292  0.5773
   96MOL0     C12845   2.901  10.320  10.403 -0.3680  0.5607  0.3636
   96MOL0     C12846   2.975  10.363  10.529  0.8452  0.1390  0.6585
   96MOL0     C12847   2.910  10.491  10.590  0.0905  0.5138  0.8648
   96MOL0     C12848   2.767  10.467  10.626  0.5054 -0.1833 -0.3817
   96MOL0     O12849   2.709  10.579  10.689  0.2473 -0.3237 -0.1202
   96MOL0     C12850   2.574  10.571  10.715  0.0621 -0.2232 -0.1435
   96MOL0     C12851   2.480  10.490  10.644  0.6237 -0.5819 -0.4070
   96MOL0     C12852   2.346  10.494  10.682  0.7978  0.5194  0.0141
   96MOL0     C12853   2.255  10.402  10.610 -0.0135 -1.2647  0.4582
   96MOL0     C12854   2.292  10.585  10.772  0.0585 -0.0598  0.5179
   96MOL0     C12855   2.155  10.608  10.813  1.3676  0.3791 -0.5491
   96MOL0     O12856   2.051  10.576  10.728  0.0309 -0.2221 -0.0135
   96MOL0     C12857   1.928  10.624  10.763 -0.2473 -1.1053 -0.0457
   96MOL0     C12858   1.857  10.723  10.694  0.3947  0.0737  0.6033
   96MOL0     C12859   1.739  10.781  10.736  0.1474  0.3782 -0.8260
   96MOL0     C12860   1.678  10.733  10.854  0.5813 -2.2170  0.2385
   96MOL0     O12861   1.553  10.785  10.866  0.3022 -0.1237 -0.3540
   96MOL0     C12862   1.469  10.720  10.959  0.3944 -1.4736 -0.4089
   96MOL0     C12863   1.333  10.786  10.960 -0.0482 -0.5807  0.4271
   96MOL0     C12864   1.220  10.686  10.985 -0.1257 -0.4939  0.3816
   96MOL0     C12865   1.086  10.766  10.969 -0.3190 -0.3783  0.4493
   96MOL0     C12866   0.974  10.664  10.981  0.6601 -0.3848 -0.3218
   96MOL0     C12867   0.841  10.716  11.033  0.6243 -0.4196 -0.5670
   96MOL0     C12868   0.715  10.647  10.973 -0.9602 -0.2672 -0.2938
   96MOL0     C12869   0.596  10.655  11.068  0.4968  0.2873 -0.0276
   96MOL0    Cl12870   0.611  10.528  11.189  0.3912  0.5421 -0.0691
   96MOL0     C12871   1.742  10.639  10.926  0.1606  0.5527  0.0447
   96MOL0     C12872   1.865  10.587  10.887 -1.2622 -1.0150 -0.6092
   96MOL0     O12873   2.132  10.658  10.926  0.4502  0.3792 -0.0274
   96MOL0     C12874   2.385  10.668  10.831 -0.2559 -0.3873 -0.4645
   96MOL0     C12875   2.523  10.660  10.817 -0.1040 -0.8083  0.3400
   96MOL0     N12876   2.929  10.083  10.303 -0.3130  0.4598 -0.8232
   96MOL0     N12877   3.022  10.018  10.247  0.7746 -0.2464 -0.5410
   96MOL0     C12878   3.919  10.091   9.417  1.1505 -0.1816  0.8175
   96MOL0     C12879   4.018  10.187   9.395  0.1941  0.0502 -0.2395
   96MOL0     C12880   4.341  10.503   9.426 -0.1881  1.0209  0.4798
   96MOL0     C12881   4.343  10.619   9.345  0.2974  0.4026 -0.2277
   96MOL0     C12882   4.447  10.713   9.349 -0.0959 -0.5662 -0.1368
   96MOL0     C12883   4.552  10.691   9.444  1.3549 -0.3403 -0.1265
   96MOL0     O12884   4.670  10.762   9.440  0.4335  0.1860 -0.6661
   96MOL0     C12885   4.683  10.889   9.380 -0.0540 -0.2242 -0.0207
   96MOL0     C12886   4.806  10.966   9.392  0.1721 -0.4244  0.5383
   96MOL0     C12887   4.824  11.014   9.536  0.1084  0.8179 -1.3453
   96MOL0     C12888   4.945  11.112   9.560 -0.2195 -0.0851  0.1393
   96MOL0     C12889   5.073  11.045   9.563  0.2116 -0.6922 -0.3884
   96MOL0     C12890   5.182  10.999   9.566 -0.2362 -0.4239 -0.0745
   96MOL0     C12891   4.552  10.574   9.524  0.3257 -0.0731 -0.1117
   96MOL0     C12892   4.445  10.493   9.521  0.0781 -0.3028  0.0363
   96MOL0     H12893   4.183  10.181   9.688  0.8045  0.0946 -1.2005
   96MOL0     H12894   4.006  10.037   9.755  1.5783 -2.2529 -0.3908
   96MOL0     H12895   3.884   9.765   9.599  1.1052  0.7866  0.4471
   96MOL0     H12896   3.833   9.872   9.740 -4.0129  0.5412  0.7876
   96MOL0     H12897   3.656   9.735   9.531 -0.4738  0.6915  0.3244
   96MOL0     H12898   3.694   9.673   9.700  1.0950 -0.3959 -0.5463
   96MOL0     H12899   3.545   9.931   9.610  0.7131 -1.3929 -1.1564
   96MOL0     H12900   3.454   9.787   9.670 -0.3529 -1.3231  2.4692
   96MOL0     H12901   3.563   9.803   9.886 -0.4659  0.0917 -0.0872
   96MOL0     H12902   3.653   9.938   9.852 -0.0841 -1.3600  0.8256
   96MOL0     H12903   3.466  10.079   9.871 -0.5821  1.1325  1.0457
   96MOL0     H12904   3.351   9.971   9.807  0.4026 -0.5914  0.7629
   96MOL0     H12905   3.346   9.836  10.034 -1.3678  0.4714  2.4260
   96MOL0     H12906   3.481   9.936  10.081  1.2173  1.5494 -2.2197
   96MOL0     H12907   3.305  10.135  10.029  2.7904  0.0703  2.0580
   96MOL0     H12908   3.192   9.994  10.009 -0.2611 -0.5333  0.7844
   96MOL0     H12909   3.339  10.104  10.248 -1.0170  0.0314 -0.1850
   96MOL0     H12910   3.280   9.935  10.260  1.8834 -1.6050 -2.4273
   96MOL0     H12911   3.178  10.293  10.290 -2.1390  0.6008 -0.3073
   96MOL0     H12912   2.887  10.400  10.330  1.8883  1.6125  1.0009
   96MOL0     H12913   2.797  10.289  10.421 -1.4725  2.5638 -1.9790
   96MOL0     H12914   3.081  10.378  10.507  0.4990  0.7506 -0.6474
   96MOL0     H12915   2.963  10.280  10.600 -1.5414  0.3098  0.5285
   96MOL0     H12916   2.927  10.563  10.509  2.0508  1.3698  1.9767
   96MOL0     H12917   2.960  10.524  10.681  1.1150 -0.4180  0.6596
   96MOL0     H12918   2.758  10.379  10.689  1.9639 -0.4457 -0.5069
   96MOL0     H12919   2.718  10.450  10.530 -1.6800  5.1209 -0.5762
   96MOL0     H12920   2.506  10.421  10.564 -1.3975 -0.0003 -1.6491
   96MOL0     H12921   2.319  10.343  10.545 -0.7883 -0.1250 -1.4028
   96MOL0     H12922   2.205  10.336  10.682 -1.4190 -0.7980 -0.0473
   96MOL0     H12923   2.193  10.457  10.538  3.4068 -0.2274 -1.9276
   96MOL0     H12924   1.905  10.748  10.601 -2.2381 -0.9850 -1.1596
   96MOL0     H12925   1.684  10.854  10.677  2.7355  2.1509 -1.2642
   96MOL0     H12926   1.451  10.613  10.947 -0.1825 -1.3536 -0.6461
   96MOL0     H12927   1.520  10.730  11.055 -0.3863  1.3191 -0.2056
   96MOL0     H12928   1.321  10.861  11.039  3.3211  0.2708  0.2983
   96MOL0     H12929   1.327  10.842  10.866  2.6129 -0.8828  0.0009
   96MOL0     H12930   1.221  10.640  11.084  0.0004  1.1348  1.1786
   96MOL0     H12931   1.222  10.602  10.916  2.9765  1.8885 -2.8162
   96MOL0     H12932   1.072  10.842  11.046 -0.5666 -0.5940  0.6187
   96MOL0     H12933   1.087  10.816  10.872 -0.0870  1.7974  1.5315
   96MOL0     H12934   1.003  10.574  11.037 -0.4730 -3.8467 -4.7099
   96MOL0     H12935   0.958  10.640  10.875  1.7071  2.1820 -1.1466
   96MOL0     H12936   0.836  10.702  11.142  0.5215  2.1137 -0.1972
   96MOL0     H12937   0.837  10.825  11.027 -2.9203 -0.4233 -0.1257
   96MOL0     H12938   0.730  10.541  10.954 -3.0190 -0.6156 -0.1845
   96MOL0     H12939   0.703  10.692  10.874  0.2148 -0.8420 -0.7127
   96MOL0     H12940   0.510  10.640  11.002  2.9036 -0.4913 -3.2549
   96MOL0     H12941   0.588  10.751  11.120 -0.6364 -0.8495  2.0002
   96MOL0     H12942   1.701  10.591  11.014  0.4932 -0.6707 -0.4470
   96MOL0     H12943   1.924  10.527  10.955  1.7381  0.5783 -1.6468
   96MOL0     H12944   2.353  10.756  10.884  0.2113  1.4292 -3.0115
   96MOL0     H12945   2.585  10.724  10.879 -0.6793  0.0791  0.0145
   96MOL0     H12946   3.845  10.073   9.339  0.5804  3.0305  0.4647
   96MOL0     H12947   4.022  10.234   9.297  0.2469  0.7495  0.0989
   96MOL0     H12948   4.279  10.644   9.261 -0.0581  1.7262  0.3921
   96MOL0     H12949   4.454  10.793   9.277  3.0404  0.0713  0.7348
   96MOL0     H12950   4.665  10.875   9.273  2.4327  0.4149 -0.5748
   96MOL0     H12951   4.601  10.948   9.423  1.7807  0.1227  3.3677
   96MOL0     H12952   4.813  11.048   9.321  0.0797 -2.1991 -1.6300
   96MOL0     H12953   4.890  10.899   9.369 -1.0487 -1.4995 -1.0030
   96MOL0     H12954   4.853  10.919   9.582 -2.7033  0.2036 -0.6764
   96MOL0     H12955   4.733  11.059   9.577  1.3401  1.6766  0.5691
   96MOL0     H12956   4.926  11.170   9.651 -1.1244 -0.3082  0.1094
   96MOL0     H12957   4.943  11.179   9.474  0.2711 -0.0599  0.1493
   96MOL0     H12958   5.276  10.951   9.548  0.4229  1.2472 -1.3773
   96MOL0     H12959   4.636  10.544   9.585 -0.7564  2.5313  2.9041
   96MOL0     H12960   4.454  10.412   9.593 -2.8027 -0.1492  0.6840
   97MOL0     O12961   8.770   4.016   2.358 -0.4654 -0.2240 -0.2776
   97MOL0     C12962   8.841   3.938   2.295 -1.0310  0.2762  1.1016
   97MOL0     O12963   8.792   3.831   2.230 -0.0465  0.1423 -0.8600
   97MOL0     C12964   8.654   3.810   2.255 -0.2414 -0.1922 -0.5360
   97MOL0     C12965   8.562   3.839   2.162 -1.0085 -1.0648  0.3003
   97MOL0     C12966   8.426   3.816   2.176  0.0778 -0.6507  0.0874
   97MOL0     C12967   8.378   3.769   2.295  0.4865  0.1713 -0.1832
   97MOL0     O12968   8.236   3.759   2.309 -0.4157  0.4427  0.0563
   97MOL0     C12969   8.179   3.765   2.436  0.2464 -0.3090  0.0244
   97MOL0     C12970   8.032   3.806   2.414 -0.2956 -0.4328  0.0670
   97MOL0     C12971   7.951   3.807   2.548 -0.5610 -0.0557  0.4357
   97MOL0     C12972   7.821   3.886   2.536  0.4350  0.5232  0.4905
   97MOL0     C12973   7.750   3.892   2.672 -0.6125  0.1922  0.7737
   97MOL0     C12974   7.611   3.950   2.641 -0.6479 -0.5020 -0.2725
   97MOL0     C12975   7.525   3.967   2.768  0.1058  0.0280  0.0108
   97MOL0     C12976   7.551   4.099   2.843 -0.2666 -0.2878 -0.1056
   97MOL0     N12977   7.457   4.208   2.817  0.2039  0.0601 -0.6334
   97MOL0     C12978   7.334   4.217   2.876  0.9010 -1.2113  0.1714
   97MOL0     C12979   7.252   4.302   2.802  0.1191  0.5156  0.3224
   97MOL0     C12980   7.102   4.318   2.814 -0.4627 -0.1627  0.6520
   97MOL0     C12981   7.066   4.403   2.935  0.4618 -0.1484 -0.0886
   97MOL0     C12982   6.920   4.446   2.909 -0.9702 -0.4318 -0.7055
   97MOL0     C12983   6.890   4.555   3.013 -0.1879 -0.1244 -0.5013
   97MOL0     O12984   6.943   4.680   2.985 -0.5154  0.3005  0.2497
   97MOL0     C12985   6.904   4.784   3.069 -0.1384  0.4849  0.5020
   97MOL0     C12986   6.801   4.774   3.176 -0.5760 -0.1097  0.7981
   97MOL0     C12987   6.760   4.885   3.254  0.1643  0.9818 -0.0738
   97MOL0     C12988   6.678   4.843   3.374  0.0854  0.1194  0.4695
   97MOL0     C12989   6.810   5.009   3.215  0.4037 -0.8657  0.4997
   97MOL0     C12990   6.760   5.140   3.280  0.4684  0.0690 -0.2530
   97MOL0     O12991   6.646   5.135   3.352 -0.7971 -0.2573 -0.5232
   97MOL0     C12992   6.582   5.255   3.366  0.4344 -0.4597  0.3039
   97MOL0     C12993   6.478   5.290   3.273 -0.0156  0.2172 -1.0089
   97MOL0     C12994   6.421   5.420   3.274  0.2268 -0.0218  0.3578
   97MOL0     C12995   6.453   5.502   3.377 -0.2134 -0.4903 -1.0503
   97MOL0     O12996   6.403   5.633   3.401  0.0089 -0.2830  0.3940
   97MOL0     C12997   6.316   5.695   3.304  1.2642 -0.3593  0.3396
   97MOL0     C12998   6.178   5.634   3.310 -0.9135 -0.6235  0.3179
   97MOL0     C12999   6.068   5.713   3.232  0.6812 -0.4833  0.1154
   97MOL0     C13000   5.997   5.821   3.310 -0.5703 -0.6545  0.4094
   97MOL0     C13001   5.907   5.902   3.218  0.9385 -1.3182 -0.2808
   97MOL0     C13002   5.835   6.013   3.305  0.4583 -0.4671 -0.2876
   97MOL0     C13003   5.738   6.099   3.217 -0.4044 -0.3496 -0.0007
   97MOL0     C13004   5.695   6.221   3.294 -0.6044 -0.0733 -0.1930
   97MOL0    Cl13005   5.636   6.350   3.191 -0.1479 -0.1701  0.5859
   97MOL0     C13006   6.548   5.469   3.480 -0.0397 -0.2172  0.4489
   97MOL0     C13007   6.610   5.347   3.473  0.1103  0.5884  0.5046
   97MOL0     O13008   6.812   5.243   3.237 -0.3124 -0.4229  0.0441
   97MOL0     C13009   6.901   5.017   3.105  0.6051 -0.4350 -0.3576
   97MOL0     C13010   6.950   4.913   3.038  0.1733  0.2784  0.6684
   97MOL0     N13011   7.333   4.347   2.695 -0.4317  0.4729 -0.8000
   97MOL0     N13012   7.451   4.284   2.704  0.2755 -0.3110 -0.2713
   97MOL0     C13013   8.471   3.758   2.399  0.0861  1.1338 -0.5210
   97MOL0     C13014   8.605   3.758   2.373 -0.0523 -1.2398 -0.1098
   97MOL0     C13015   8.994   3.959   2.287  0.3366  0.1830 -0.6847
   97MOL0     C13016   9.072   3.886   2.198  0.3060  0.0857  0.5768
   97MOL0     C13017   9.217   3.897   2.207 -0.0756  0.0577  0.1474
   97MOL0     C13018   9.282   3.984   2.301 -0.5212 -0.1813  0.0605
   97MOL0     O13019   9.417   3.984   2.287  0.3917 -0.2407 -0.6435
   97MOL0     C13020   9.497   4.043   2.387 -0.2047 -0.1818 -0.9749
   97MOL0     C13021   9.639   3.996   2.382  0.4123  0.3940 -0.9723
   97MOL0     C13022   9.700   4.023   2.251 -0.6750  0.3688  0.3263
   97MOL0     C13023   9.841   3.958   2.231  0.0566  0.4772  0.3971
   97MOL0     C13024   9.924   4.020   2.332 -0.5774  0.0565 -0.5337
   97MOL0     C13025   9.981   4.089   2.416  0.8770 -0.7894  0.6653
   97MOL0     C13026   9.200   4.060   2.381  0.3541 -0.9422  0.4188
   97MOL0     C13027   9.061   4.053   2.371  0.4712  0.5453  0.2339
   97MOL0     H13028   8.586   3.877   2.063 -2.5275  0.0041  0.3018
   97MOL0     H13029   8.353   3.839   2.100  2.0199 -0.8739 -1.9664
   97MOL0     H13030   8.179   3.668   2.487  2.0178  0.2223  1.0993
   97MOL0     H13031   8.234   3.835   2.500 -1.3718  1.3184 -0.2654
   97MOL0     H13032   8.016   3.905   2.368  0.1266 -1.5201 -2.6340
   97MOL0     H13033   7.985   3.720   2.365 -0.6340  0.1317 -0.6282
   97MOL0     H13034   7.920   3.709   2.585 -4.1085  1.5278  2.1220
   97MOL0     H13035   8.015   3.863   2.617  2.2231 -3.3876  0.8534
   97MOL0     H13036   7.836   3.988   2.500  2.4335 -0.7774 -2.8056
   97MOL0     H13037   7.758   3.839   2.461  1.3229 -0.1961  0.1823
   97MOL0     H13038   7.758   3.792   2.716  1.1819 -0.5987 -1.2084
   97MOL0     H13039   7.811   3.948   2.744  0.9490  0.2825 -0.5643
   97MOL0     H13040   7.623   4.049   2.595  1.3900 -1.1309 -1.1874
   97MOL0     H13041   7.555   3.883   2.575  1.7094 -2.4892 -0.4111
   97MOL0     H13042   7.424   3.970   2.725  0.1591  1.3235 -0.0682
   97MOL0     H13043   7.540   3.883   2.836  4.5774  0.6907  0.1728
   97MOL0     H13044   7.657   4.124   2.835  0.5795 -3.4359  0.2609
   97MOL0     H13045   7.542   4.085   2.951 -0.8391 -0.9203 -0.2317
   97MOL0     H13046   7.314   4.157   2.964 -1.0784  0.5251  0.9805
   97MOL0     H13047   7.074   4.381   2.729 -0.2600 -0.9285 -0.0058
   97MOL0     H13048   7.036   4.230   2.807  1.8877 -1.9157 -1.2791
   97MOL0     H13049   7.134   4.489   2.938  2.4304 -1.6200  0.0641
   97MOL0     H13050   7.084   4.355   3.032  1.3904  1.3187  0.4938
   97MOL0     H13051   6.855   4.361   2.928 -0.4398 -0.5205  0.8758
   97MOL0     H13052   6.899   4.490   2.811  0.1224 -0.6959 -1.0748
   97MOL0     H13053   6.914   4.518   3.113 -1.3584  0.2180 -0.0797
   97MOL0     H13054   6.782   4.573   3.011 -0.4087 -0.8835  1.6175
   97MOL0     H13055   6.768   4.672   3.195 -0.8978  0.1166  1.5035
   97MOL0     H13056   6.573   4.838   3.346  1.0098 -0.2817 -3.6243
   97MOL0     H13057   6.720   4.752   3.420 -3.6277 -0.6255  2.7806
   97MOL0     H13058   6.683   4.913   3.458 -0.0804  2.7310 -1.6048
   97MOL0     H13059   6.451   5.217   3.197 -1.1530 -1.8923  1.3058
   97MOL0     H13060   6.346   5.434   3.197 -1.2249 -1.2479  1.4754
   97MOL0     H13061   6.302   5.800   3.330 -0.5174  0.0477 -2.0142
   97MOL0     H13062   6.355   5.698   3.202  0.6889  0.6830  0.1393
   97MOL0     H13063   6.185   5.535   3.263  0.5845 -0.5607  0.3740
   97MOL0     H13064   6.134   5.617   3.408  1.1329 -1.1398  1.1919
   97MOL0     H13065   6.001   5.631   3.204  0.7536 -0.5137  0.0283
   97MOL0     H13066   6.114   5.751   3.140  2.9589  0.8856  1.7038
   97MOL0     H13067   5.945   5.788   3.400  0.4797 -1.5012  0.7178
   97MOL0     H13068   6.073   5.893   3.343 -0.3321  0.1300 -1.6712
   97MOL0     H13069   5.835   5.835   3.171 -2.6307  1.7613  0.4064
   97MOL0     H13070   5.965   5.944   3.135  0.6007 -2.2639 -1.0103
   97MOL0     H13071   5.777   5.959   3.381 -2.0866  1.7280 -0.5297
   97MOL0     H13072   5.914   6.064   3.360  2.1330 -0.7925 -2.2921
   97MOL0     H13073   5.659   6.031   3.185 -0.3987 -0.2243 -0.2886
   97MOL0     H13074   5.791   6.133   3.128 -2.4875  0.1088 -1.1397
   97MOL0     H13075   5.771   6.254   3.366 -1.7267  1.0497  0.5183
   97MOL0     H13076   5.615   6.193   3.364 -0.2040  3.0760  1.7270
   97MOL0     H13077   6.582   5.552   3.540  2.4414  1.4379 -2.9536
   97MOL0     H13078   6.668   5.321   3.561 -0.8420  0.1739  1.0337
   97MOL0     H13079   6.940   5.114   3.076  0.8507 -0.0071  1.2965
   97MOL0     H13080   7.020   4.918   2.955  0.5006 -0.4088  0.8980
   97MOL0     H13081   8.435   3.730   2.497 -0.6831  0.3446 -1.0157
   97MOL0     H13082   8.679   3.743   2.451  0.3879 -1.6148 -0.5995
   97MOL0     H13083   9.023   3.822   2.125 -3.2178  3.4735 -0.3966
   97MOL0     H13084   9.283   3.840   2.142  1.6970  1.5879  0.5262
   97MOL0     H13085   9.503   4.149   2.362  1.1663  0.7602  2.7254
   97MOL0     H13086   9.453   4.035   2.487  2.2240  1.3577  0.3140
   97MOL0     H13087   9.640   3.887   2.392 -0.5501  0.4116 -0.6688
   97MOL0     H13088   9.704   4.044   2.455  0.0353  0.7468 -0.8675
   97MOL0     H13089   9.706   4.131   2.235  1.9677  0.4459  1.2378
   97MOL0     H13090   9.644   3.965   2.177 -0.5618 -1.6610  1.7589
   97MOL0     H13091   9.884   3.971   2.131  2.8782  0.5887  1.5469
   97MOL0     H13092   9.820   3.851   2.234 -3.2629  0.9094 -1.8270
   97MOL0     H13093  10.018   4.148   2.498 -1.8410  0.2440  1.2395
   97MOL0     H13094   9.248   4.131   2.447  1.0650  0.5796 -1.6155
   97MOL0     H13095   9.000   4.123   2.427 -1.3968 -1.7012  1.1858
   98MOL0     O13096   8.912   4.706   6.609  0.2262 -0.6301 -0.4899
   98MOL0     C13097   8.957   4.818   6.635  0.0631 -0.3262  0.0681
   98MOL0     O13098   8.887   4.935   6.685 -0.6901 -0.1155 -0.0257
   98MOL0     C13099   8.786   4.909   6.773  0.0385  0.2188 -0.3120
   98MOL0     C13100   8.790   4.805   6.864 -0.6306 -0.0362  0.6180
   98MOL0     C13101   8.689   4.796   6.956  0.4437 -0.2709  0.4462
   98MOL0     C13102   8.583   4.886   6.958  0.2269 -0.4220  0.7895
   98MOL0     O13103   8.490   4.878   7.056  0.0210  0.0348 -0.2981
   98MOL0     C13104   8.527   4.911   7.194 -0.2464 -0.1025  0.3485
   98MOL0     C13105   8.403   4.976   7.244 -0.1573  0.1666 -0.2632
   98MOL0     C13106   8.372   5.110   7.178  0.6246  0.5781  0.4455
   98MOL0     C13107   8.222   5.158   7.207 -0.1562  0.6640  0.0399
   98MOL0     C13108   8.180   5.257   7.103 -0.8332 -0.4837 -0.2976
   98MOL0     C13109   8.050   5.329   7.139  1.1609  0.1158  0.6565
   98MOL0     C13110   7.940   5.226   7.135  0.3909  0.5272 -0.4774
   98MOL0     C13111   7.811   5.292   7.160  0.3177  0.0784 -0.6892
   98MOL0     N13112   7.692   5.210   7.146  0.1962  0.4320  0.2469
   98MOL0     C13113   7.650   5.110   7.234  0.0764  0.1193  0.3222
   98MOL0     C13114   7.538   5.057   7.171  0.0565 -0.1235 -0.4471
   98MOL0     C13115   7.466   4.939   7.229  0.7448  0.0274 -0.2779
   98MOL0     C13116   7.326   4.926   7.184  0.8942  0.1045 -0.2993
   98MOL0     C13117   7.257   4.815   7.258 -0.0984  1.0227  0.0252
   98MOL0     C13118   7.117   4.800   7.197 -0.4538  1.2393 -0.1674
   98MOL0     O13119   7.040   4.688   7.248  0.1372 -0.5954 -0.5606
   98MOL0     C13120   6.904   4.708   7.233 -0.7593  0.9678  0.1827
   98MOL0     C13121   6.831   4.728   7.339  0.7019  0.4927 -0.5657
   98MOL0     C13122   6.693   4.734   7.334  0.1234 -0.7127  0.5508
   98MOL0     C13123   6.614   4.766   7.467  0.5204  0.2293  0.7908
   98MOL0     C13124   6.633   4.724   7.204  0.5280  0.5278  0.1206
   98MOL0     C13125   6.485   4.706   7.172  0.1528 -0.5972 -0.5593
   98MOL0     O13126   6.461   4.663   7.043 -0.1897  0.2011 -0.5136
   98MOL0     C13127   6.337   4.659   6.995  0.0393  1.0111 -0.0999
   98MOL0     C13128   6.326   4.545   6.914 -0.2847 -0.0036  0.6944
   98MOL0     C13129   6.206   4.537   6.836  0.3438  0.3022  0.5974
   98MOL0     C13130   6.098   4.630   6.847 -0.2021  0.0789 -0.1457
   98MOL0     O13131   5.988   4.602   6.765  0.1037  0.0840 -0.1151
   98MOL0     C13132   5.979   4.677   6.647 -0.3409 -0.5759 -0.1603
   98MOL0     C13133   5.875   4.788   6.675 -0.6323  0.1897 -0.1593
   98MOL0     C13134   5.731   4.726   6.688 -0.4261  0.5449 -0.2583
   98MOL0     C13135   5.650   4.831   6.770  0.3857  0.0189 -0.4181
   98MOL0     C13136   5.495   4.796   6.762  0.4285 -0.3129 -0.3469
   98MOL0     C13137   5.410   4.859   6.870 -0.3530  0.5459  0.0704
   98MOL0     C13138   5.265   4.820   6.847 -0.9123  1.2595  0.4563
   98MOL0     C13139   5.182   4.908   6.939 -0.3536 -0.3140  0.7503
   98MOL0    Cl13140   5.247   4.958   7.104  0.1722  0.0151 -0.1136
   98MOL0     C13141   6.109   4.727   6.950  0.6299 -0.3658 -0.0010
   98MOL0     C13142   6.231   4.740   7.026  0.1998  0.7676  0.4232
   98MOL0     O13143   6.408   4.710   7.265  0.0317 -0.2222  0.3947
   98MOL0     C13144   6.713   4.705   7.087  0.0472 -0.1199  0.1351
   98MOL0     C13145   6.847   4.688   7.108 -0.2038 -0.6416 -0.1536
   98MOL0     N13146   7.518   5.123   7.044 -0.2847  0.2905  0.8643
   98MOL0     N13147   7.624   5.208   7.034  0.9076 -1.0739  0.9429
   98MOL0     C13148   8.575   4.985   6.863 -0.1971  0.2616  0.3056
   98MOL0     C13149   8.677   4.995   6.769  0.3519  1.3245  0.3821
   98MOL0     C13150   9.103   4.818   6.662  0.2833 -0.5259  0.3559
   98MOL0     C13151   9.185   4.700   6.652 -0.2639  0.6734 -0.1820
   98MOL0     C13152   9.319   4.688   6.685 -0.1539 -0.2101  0.0480
   98MOL0     C13153   9.388   4.799   6.737 -0.8594 -0.3562  0.0641
   98MOL0     O13154   9.519   4.796   6.766 -0.3419  0.1763 -0.6548
   98MOL0     C13155   9.592   4.673   6.765 -0.4088  0.4191  0.7450
   98MOL0     C13156   9.726   4.676   6.829  0.8787  0.0781  0.5170
   98MOL0     C13157   9.717   4.689   6.978 -0.4095 -0.3750  0.5183
   98MOL0     C13158   9.855   4.666   7.039  0.1276 -0.5287 -0.2656
   98MOL0     C13159   9.830   4.668   7.185  0.8186  1.2310  0.5188
   98MOL0     C13160   9.804   4.649   7.303 -0.4615 -0.2834 -0.1690
   98MOL0     C13161   9.315   4.924   6.735  0.4882 -1.1042  0.9850
   98MOL0     C13162   9.174   4.930   6.706 -0.5728 -0.3431  0.0871
   98MOL0     H13163   8.872   4.737   6.882  0.4296  1.0585  0.0753
   98MOL0     H13164   8.701   4.719   7.033  3.3159 -1.9320 -1.4734
   98MOL0     H13165   8.554   4.818   7.245 -0.9469 -0.1838  0.5906
   98MOL0     H13166   8.615   4.975   7.193 -1.4267  1.5868  0.2595
   98MOL0     H13167   8.313   4.915   7.244 -0.7565  0.7020  4.2055
   98MOL0     H13168   8.407   4.987   7.353 -1.7241 -3.6478  0.3402
   98MOL0     H13169   8.443   5.188   7.210 -1.2184  2.6472 -0.2886
   98MOL0     H13170   8.380   5.112   7.069 -2.3949 -0.8274  0.0820
   98MOL0     H13171   8.160   5.068   7.212  2.3304 -1.3792 -2.5714
   98MOL0     H13172   8.221   5.206   7.305 -3.0239  0.8070  0.0154
   98MOL0     H13173   8.258   5.332   7.087 -1.5259  0.2105 -0.4835
   98MOL0     H13174   8.164   5.207   7.007 -0.8214 -0.7174 -0.1766
   98MOL0     H13175   8.050   5.366   7.242 -2.0861  0.0187  0.7708
   98MOL0     H13176   8.033   5.409   7.065  0.9723 -2.3635 -2.1795
   98MOL0     H13177   7.946   5.177   7.038  0.2489  1.1296 -0.7933
   98MOL0     H13178   7.963   5.160   7.219  1.3536  0.3644 -0.8612
   98MOL0     H13179   7.790   5.368   7.083 -3.0874 -1.3447 -1.3542
   98MOL0     H13180   7.806   5.342   7.257 -1.9538 -0.3346 -0.5463
   98MOL0     H13181   7.694   5.083   7.329  0.7400  1.4072  0.4118
   98MOL0     H13182   7.523   4.851   7.200  2.3284  1.4702 -1.7932
   98MOL0     H13183   7.471   4.939   7.339  1.1890 -0.5036 -0.2984
   98MOL0     H13184   7.315   4.907   7.077 -1.3143 -0.1670 -0.0838
   98MOL0     H13185   7.284   5.026   7.200 -1.1964 -0.6495 -0.7638
   98MOL0     H13186   7.254   4.835   7.366  1.2886 -0.5491  0.4022
   98MOL0     H13187   7.311   4.723   7.236  1.0698  1.7777 -0.3810
   98MOL0     H13188   7.118   4.785   7.088  3.7385  1.4329 -0.3202
   98MOL0     H13189   7.061   4.889   7.227 -0.2552  0.4763  2.7444
   98MOL0     H13190   6.883   4.732   7.435  2.1790  0.9328 -1.3471
   98MOL0     H13191   6.528   4.699   7.478 -2.8065  3.8547 -0.7266
   98MOL0     H13192   6.685   4.772   7.549  3.3143 -0.1587 -1.4229
   98MOL0     H13193   6.571   4.867   7.462 -0.0933 -0.0535  0.1493
   98MOL0     H13194   6.403   4.473   6.892 -1.5328 -1.3800  0.6711
   98MOL0     H13195   6.204   4.457   6.763 -0.8293  1.1988 -0.3928
   98MOL0     H13196   6.076   4.713   6.612  0.0271 -0.2131  1.1663
   98MOL0     H13197   5.929   4.620   6.569 -0.6415  0.6507 -0.8896
   98MOL0     H13198   5.895   4.841   6.769  0.7958 -0.9300  0.1899
   98MOL0     H13199   5.881   4.853   6.587  0.3160 -1.9252 -1.7289
   98MOL0     H13200   5.728   4.627   6.733  0.8124  0.8179  0.4804
   98MOL0     H13201   5.691   4.723   6.586 -2.0405  0.1356  0.3609
   98MOL0     H13202   5.672   4.835   6.877 -3.0115  0.5540  0.3898
   98MOL0     H13203   5.668   4.933   6.735  0.6196  0.0874 -0.0970
   98MOL0     H13204   5.490   4.688   6.784 -1.0832  0.0790  1.5526
   98MOL0     H13205   5.464   4.818   6.660  2.5969  2.8359 -0.4483
   98MOL0     H13206   5.445   4.821   6.966  0.4367 -0.2456 -0.5245
   98MOL0     H13207   5.414   4.968   6.861 -0.1805  0.8387  2.7098
   98MOL0     H13208   5.251   4.717   6.880 -1.2153  0.9199 -0.6848
   98MOL0     H13209   5.235   4.816   6.742  0.4164 -1.1663  0.0906
   98MOL0     H13210   5.086   4.858   6.953 -0.9900  1.1215  1.7146
   98MOL0     H13211   5.152   5.001   6.891 -1.7612  0.0102  2.1674
   98MOL0     H13212   6.030   4.801   6.960  0.5670 -0.5579  0.9727
   98MOL0     H13213   6.234   4.826   7.092 -1.3181  0.5143  0.8716
   98MOL0     H13214   6.674   4.688   6.987 -1.9088 -0.8875  0.9753
   98MOL0     H13215   6.925   4.677   7.034  0.9667  1.2577  0.7228
   98MOL0     H13216   8.497   5.061   6.866 -0.2882  0.2937 -1.5402
   98MOL0     H13217   8.683   5.087   6.711  0.1967  2.0939  1.5420
   98MOL0     H13218   9.136   4.611   6.615  1.7915 -1.0310  0.9494
   98MOL0     H13219   9.376   4.597   6.668  2.0442  0.8282  1.3783
   98MOL0     H13220   9.537   4.596   6.819  1.0507  0.2886  2.0955
   98MOL0     H13221   9.604   4.644   6.660  0.5005 -2.7348  1.6184
   98MOL0     H13222   9.786   4.758   6.788 -1.8970  1.8517 -0.2433
   98MOL0     H13223   9.772   4.583   6.794 -0.2282 -0.4210  0.3694
   98MOL0     H13224   9.650   4.612   7.017 -2.9464  1.4072 -0.0905
   98MOL0     H13225   9.679   4.787   7.009  1.2382  0.4948 -0.0494
   98MOL0     H13226   9.919   4.749   7.008 -1.1564  2.4326  4.0167
   98MOL0     H13227   9.900   4.571   7.009  1.7448  0.0836  0.1425
   98MOL0     H13228   9.768   4.631   7.402 -0.7067  0.6811 -0.0705
   98MOL0     H13229   9.362   5.020   6.750  1.0163 -0.8149 -2.0110
   98MOL0     H13230   9.128   5.028   6.704  0.7775  0.2948 -0.5611
   99MOL0     O13231   8.444   9.676  10.792 -0.3714  0.3326  0.2112
   99MOL0     C13232   8.477   9.627  10.896  0.2039 -0.0589  0.5085
   99MOL0     O13233   8.384   9.564  10.980  0.3385  0.6859 -0.2986
   99MOL0     C13234   8.250   9.566  10.957  0.4517 -0.3467  0.2993
   99MOL0     C13235   8.194   9.462  11.025  0.2889  0.2599 -0.4196
   99MOL0     C13236   8.066   9.415  11.010  0.1169  0.2156  0.9003
   99MOL0     C13237   7.984   9.483  10.911 -0.2568  0.4500 -0.3875
   99MOL0     O13238   7.848   9.455  10.900  0.2612  0.2298  0.6608
   99MOL0     C13239   7.797   9.321  10.930 -0.9243  0.7177  0.4034
   99MOL0     C13240   7.678   9.294  10.848 -0.2179 -0.8172 -0.1270
   99MOL0     C13241   7.621   9.155  10.865  0.3614 -0.1246 -0.3090
   99MOL0     C13242   7.497   9.120  10.788 -0.5574 -0.6997  0.5696
   99MOL0     C13243   7.473   8.973  10.779  0.3275  0.5125  0.0429
   99MOL0     C13244   7.340   8.956  10.699 -0.1850 -0.0730  0.6295
   99MOL0     C13245   7.281   8.819  10.702  0.3371  0.2098 -0.2867
   99MOL0     C13246   7.145   8.809  10.633  0.1878 -0.2355  0.4582
   99MOL0     N13247   7.092   8.672  10.630  0.3034 -0.2520  0.3961
   99MOL0     C13248   7.030   8.608  10.732 -0.8302  0.3195  0.0031
   99MOL0     C13249   7.018   8.483  10.679 -0.5056 -0.6439  0.2480
   99MOL0     C13250   6.937   8.373  10.739  0.4577  0.6096 -0.3713
   99MOL0     C13251   7.021   8.250  10.784  0.8296  0.3978  0.2907
   99MOL0     C13252   7.079   8.180  10.656 -0.7240 -0.4841 -0.7217
   99MOL0     C13253   7.137   8.042  10.680  0.5574 -0.1077 -0.0373
   99MOL0     O13254   7.233   8.024  10.783  0.1329 -0.1506 -0.6047
   99MOL0     C13255   7.360   8.066  10.762 -0.6307 -1.0748 -0.5673
   99MOL0     C13256   7.450   8.046  10.866  0.8973  0.2865 -0.0047
   99MOL0     C13257   7.587   8.073  10.857 -0.2419  1.0453 -0.0762
   99MOL0     C13258   7.671   8.034  10.976  0.1664  0.0504 -0.6057
   99MOL0     C13259   7.646   8.114  10.734  0.1721  0.0271 -0.6405
   99MOL0     C13260   7.788   8.121  10.703 -0.3952  0.8095  0.0433
   99MOL0     O13261   7.893   8.068  10.787  0.3190 -0.0293  0.1404
   99MOL0     C13262   8.020   8.079  10.752  0.2870 -0.5150  0.8858
   99MOL0     C13263   8.086   8.194  10.797 -0.1067 -0.4687 -0.6414
   99MOL0     C13264   8.227   8.210  10.782  0.0582  0.1633 -0.3243
   99MOL0     C13265   8.303   8.100  10.743 -0.4116 -0.1144 -0.2038
   99MOL0     O13266   8.439   8.110  10.738  0.0978 -0.3196 -0.3634
   99MOL0     C13267   8.506   8.043  10.626 -0.2241 -0.3187  0.3310
   99MOL0     C13268   8.647   8.096  10.606 -0.0107  0.0081  0.0512
   99MOL0     C13269   8.725   8.091  10.736 -0.4843 -0.0275  0.0973
   99MOL0     C13270   8.861   8.138  10.706 -0.3826  0.0629  0.6076
   99MOL0     C13271   8.894   8.287  10.739  0.5387 -0.1994 -0.5653
   99MOL0     C13272   9.024   8.326  10.682 -0.8057 -1.3950  0.1818
   99MOL0     C13273   9.060   8.469  10.714  0.8789  0.6455  0.1922
   99MOL0     C13274   9.123   8.470  10.860  0.9076  0.3772  0.6507
   99MOL0    Cl13275   9.295   8.448  10.856  0.2389 -0.1495  0.2832
   99MOL0     C13276   8.236   7.978  10.699  0.3148 -0.6338  0.3690
   99MOL0     C13277   8.098   7.968  10.706 -0.5816  0.7973 -0.7897
   99MOL0     O13278   7.815   8.161  10.595 -0.7077  0.6091 -0.2795
   99MOL0     C13279   7.556   8.131  10.625  0.1683  0.3428 -0.0284
   99MOL0     C13280   7.416   8.110  10.638 -0.1086  0.2402  0.9079
   99MOL0     N13281   7.064   8.474  10.550  0.3132 -0.0154 -0.4962
   99MOL0     N13282   7.110   8.589  10.525  0.2624 -0.0207  0.4849
   99MOL0     C13283   8.044   9.589  10.838  1.2956  0.7698  0.2981
   99MOL0     C13284   8.167   9.639  10.865  0.0029  0.6013  0.7854
   99MOL0     C13285   8.617   9.627  10.932  0.6797 -0.2026 -0.4000
   99MOL0     C13286   8.709   9.676  10.843 -0.3800 -0.6673 -0.1860
   99MOL0     C13287   8.844   9.679  10.871  0.4042 -0.1299  1.0825
   99MOL0     C13288   8.889   9.633  10.986  0.0518  0.5637 -0.9175
   99MOL0     O13289   9.021   9.648  11.013  0.2098 -0.7597 -0.3888
   99MOL0     C13290   9.087   9.558  11.099  0.8739 -0.2099 -0.3295
   99MOL0     C13291   9.238   9.572  11.087 -1.5701 -0.0456  0.2975
   99MOL0     C13292   9.282   9.618  10.947 -0.0846  0.5368 -0.9326
   99MOL0     C13293   9.431   9.634  10.925  0.7917  0.0364 -0.2741
   99MOL0     C13294   9.487   9.754  10.999 -0.5748 -0.3755  0.5915
   99MOL0     C13295   9.539   9.848  11.061  0.1974  0.0351  0.4863
   99MOL0     C13296   8.800   9.588  11.089  0.7166  0.3966  0.2499
   99MOL0     C13297   8.664   9.579  11.059  0.1930  0.2769  0.2626
   99MOL0     H13298   8.257   9.397  11.085 -0.7569 -2.0640 -1.7142
   99MOL0     H13299   8.029   9.330  11.066  1.1708 -1.9023 -1.4257
   99MOL0     H13300   7.880   9.257  10.899  0.6390  2.6277  0.5174
   99MOL0     H13301   7.766   9.303  11.034  0.0177 -0.9318  0.4299
   99MOL0     H13302   7.604   9.371  10.869  3.6387  3.1736  0.3854
   99MOL0     H13303   7.710   9.312  10.745 -2.5746  4.2733 -0.2658
   99MOL0     H13304   7.698   9.082  10.837 -0.6569 -1.3774  0.0653
   99MOL0     H13305   7.592   9.143  10.970 -1.4390  1.2537 -0.5989
   99MOL0     H13306   7.411   9.164  10.839  0.1214  0.5924  0.6432
   99MOL0     H13307   7.491   9.166  10.688 -2.7624  2.2385  1.9124
   99MOL0     H13308   7.548   8.914  10.726  0.7852 -1.4685  2.6820
   99MOL0     H13309   7.462   8.927  10.878  0.0401  1.6374  0.5431
   99MOL0     H13310   7.267   9.027  10.737 -1.3418 -1.6522  1.4706
   99MOL0     H13311   7.363   8.987  10.597  0.7222 -0.7822  0.6048
   99MOL0     H13312   7.352   8.747  10.660  0.5249  0.0753  0.2510
   99MOL0     H13313   7.268   8.799  10.809 -2.1977  2.1577 -0.1583
   99MOL0     H13314   7.166   8.844  10.531 -3.4893  0.0297 -0.3700
   99MOL0     H13315   7.066   8.872  10.676  0.0254 -1.3954  1.9311
   99MOL0     H13316   7.011   8.648  10.832  0.3402  0.1534  0.2990
   99MOL0     H13317   6.885   8.402  10.830 -2.1741 -1.1785 -1.1892
   99MOL0     H13318   6.857   8.346  10.669  0.8926  0.2435 -0.7402
   99MOL0     H13319   6.954   8.182  10.836  1.3634  1.7039  2.8809
   99MOL0     H13320   7.108   8.278  10.844  0.9889  4.3396 -1.4894
   99MOL0     H13321   7.157   8.239  10.607 -0.3191  0.4859  0.9980
   99MOL0     H13322   7.003   8.165  10.579 -0.3325  0.9133 -1.4246
   99MOL0     H13323   7.174   8.004  10.584 -2.4531  0.4069 -1.5449
   99MOL0     H13324   7.052   7.975  10.697  1.1479 -1.1233 -0.9344
   99MOL0     H13325   7.409   8.018  10.963 -0.0899  0.9759 -0.2032
   99MOL0     H13326   7.756   8.103  10.988  0.4452 -0.4284  0.2685
   99MOL0     H13327   7.634   8.052  11.077  1.4991 -2.1356  0.3510
   99MOL0     H13328   7.705   7.932  10.955  0.7332 -0.3640  2.0124
   99MOL0     H13329   8.024   8.276  10.829  2.6234  1.1924  0.7662
   99MOL0     H13330   8.278   8.294  10.828 -1.3628 -0.4181  2.5615
   99MOL0     H13331   8.522   7.935  10.638  1.0449 -0.2036 -0.1561
   99MOL0     H13332   8.450   8.063  10.535 -0.2785 -0.9168  0.2262
   99MOL0     H13333   8.691   8.047  10.519 -0.1425  0.2891 -0.1759
   99MOL0     H13334   8.642   8.200  10.574 -1.6998  0.3971  1.4566
   99MOL0     H13335   8.732   7.986  10.767  2.5953  0.1489  0.3267
   99MOL0     H13336   8.676   8.153  10.812  0.9540  2.3683 -0.8412
   99MOL0     H13337   8.928   8.077  10.767 -2.7575 -3.8114 -0.3662
   99MOL0     H13338   8.882   8.120  10.600  1.1220  0.3458  0.8230
   99MOL0     H13339   8.889   8.306  10.847  0.9535 -1.5667 -0.2807
   99MOL0     H13340   8.821   8.343  10.681  0.9415 -1.6153 -2.5621
   99MOL0     H13341   9.114   8.269  10.708 -0.3353 -1.4213 -1.4155
   99MOL0     H13342   9.001   8.320  10.575 -1.1550 -1.2340  0.2489
   99MOL0     H13343   8.974   8.534  10.694  0.4041  0.2766  0.9463
   99MOL0     H13344   9.144   8.505  10.654  2.3195 -2.7578 -0.0619
   99MOL0     H13345   9.093   8.381  10.916  2.0438 -0.9845 -0.8375
   99MOL0     H13346   9.092   8.547  10.932  2.3892  0.8842  0.7878
   99MOL0     H13347   8.289   7.886  10.679 -2.0846 -2.3677  1.3801
   99MOL0     H13348   8.053   7.871  10.688 -1.2372  0.2322  3.0989
   99MOL0     H13349   7.593   8.168  10.529  1.0566  1.0290  0.5656
   99MOL0     H13350   7.363   8.122  10.544  1.6497  0.0029 -0.1601
   99MOL0     H13351   7.984   9.645  10.767  1.8241  0.5149 -0.3642
   99MOL0     H13352   8.204   9.717  10.799  2.7942 -1.7988 -0.7805
   99MOL0     H13353   8.671   9.713  10.748 -0.0468 -0.3461 -0.1965
   99MOL0     H13354   8.895   9.727  10.788 -3.5321  1.6295 -0.6015
   99MOL0     H13355   9.054   9.568  11.203  1.5643  0.4413 -0.1618
   99MOL0     H13356   9.060   9.461  11.056  0.9428  0.4193 -1.8458
   99MOL0     H13357   9.282   9.477  11.117 -1.9085 -0.2419  0.1727
   99MOL0     H13358   9.272   9.636  11.170 -1.5330 -0.1932  0.3959
   99MOL0     H13359   9.226   9.711  10.929  0.2775  1.6945  2.8969
   99MOL0     H13360   9.245   9.554  10.867 -2.1996 -0.1946  0.5458
   99MOL0     H13361   9.452   9.649  10.819 -0.5339  0.1205 -0.5479
   99MOL0     H13362   9.489   9.547  10.955  0.5980 -1.4020 -3.6619
   99MOL0     H13363   9.569   9.934  11.117 -2.0089 -0.1638  2.0775
   99MOL0     H13364   8.824   9.540  11.184 -0.4734 -1.5965 -0.4091
   99MOL0     H13365   8.585   9.548  11.127  1.1085 -0.7440  0.8843
  100MOL0     O13366   3.453   3.304  11.218 -0.4574  0.4940 -0.0262
  100MOL0     C13367   3.507   3.200  11.169  0.0063 -1.0565 -0.9062
  100MOL0     O13368   3.444   3.079  11.144 -0.3084  0.7404 -0.1698
  100MOL0     C13369   3.309   3.089  11.156  0.0300  0.6746 -0.2480
  100MOL0     C13370   3.244   3.150  11.050  0.1597 -0.4275  0.0145
  100MOL0     C13371   3.105   3.167  11.051 -0.1896 -0.1745 -0.7778
  100MOL0     C13372   3.032   3.133  11.166 -0.2082  0.7754 -0.2425
  100MOL0     O13373   2.902   3.159  11.170  0.4463 -0.0355 -0.1904
  100MOL0     C13374   2.813   3.054  11.206  0.1948 -0.0814 -0.1667
  100MOL0     C13375   2.714   3.130  11.288  0.1114  0.2190  1.0169
  100MOL0     C13376   2.612   3.033  11.344  1.3834  0.8704  0.4344
  100MOL0     C13377   2.517   3.106  11.448 -0.9869  0.7931  0.3763
  100MOL0     C13378   2.584   3.092  11.588 -0.3687 -0.1340  0.9947
  100MOL0     C13379   2.472   3.107  11.694 -0.5333  0.4386 -0.5471
  100MOL0     C13380   2.534   3.035  11.821  0.7134  0.5544  0.1347
  100MOL0     C13381   2.473   3.095  11.955  0.8703  0.1767  0.0365
  100MOL0     N13382   2.347   3.020  11.986 -0.2554 -0.2584  0.2109
  100MOL0     C13383   2.260   3.084  12.079 -0.0167 -0.0618  0.6239
  100MOL0     C13384   2.145   3.018  12.061  0.3586  0.4087  0.3702
  100MOL0     C13385   2.021   3.019  12.138  0.7151 -0.9499  0.4466
  100MOL0     C13386   1.912   3.114  12.070  0.3297 -0.3464  0.2604
  100MOL0     C13387   1.869   3.084  11.925  0.4725  0.0149 -0.7245
  100MOL0     C13388   1.824   2.938  11.903  0.0051 -0.1941 -0.7387
  100MOL0     O13389   1.739   2.912  11.791  0.3741  0.0120 -0.4480
  100MOL0     C13390   1.601   2.927  11.819  0.2038  0.3042 -0.5037
  100MOL0     C13391   1.533   2.830  11.877  0.0429 -0.2515  0.9567
  100MOL0     C13392   1.400   2.824  11.876  0.5082 -1.0082  0.2122
  100MOL0     C13393   1.354   2.697  11.939 -0.0674  0.1192 -0.5460
  100MOL0     C13394   1.316   2.922  11.812 -1.1486 -0.2545 -0.2015
  100MOL0     C13395   1.162   2.933  11.816  0.0939  0.2989 -0.4189
  100MOL0     O13396   1.102   3.031  11.748  0.4224 -0.0705 -0.8407
  100MOL0     C13397   0.970   3.035  11.730  0.1511  1.0994 -0.9721
  100MOL0     C13398   0.895   3.096  11.826  0.2158 -0.0093  0.6789
  100MOL0     C13399   0.757   3.101  11.814 -0.5951  0.0057  0.2620
  100MOL0     C13400   0.696   3.058  11.704  0.2867  0.0301 -0.4557
  100MOL0     O13401   0.559   3.099  11.694 -0.3628  0.0556  0.7495
  100MOL0     C13402   0.514   3.128  11.560  0.1547  0.1636  1.0624
  100MOL0     C13403   0.384   3.207  11.542 -0.8346  0.0750 -0.5402
  100MOL0     C13404   0.394   3.348  11.610 -1.3389  0.3663 -0.3121
  100MOL0     C13405   0.278   3.430  11.557  0.4152 -0.5960  0.2380
  100MOL0     C13406   0.279   3.580  11.594  0.5769 -0.2661  0.2285
  100MOL0     C13407   0.155   3.649  11.524  0.6471  0.0197 -0.0207
  100MOL0     C13408   0.167   3.802  11.552 -0.4549 -0.8298  0.9821
  100MOL0     C13409   0.057   3.875  11.480 -1.0858 -0.8736  0.2930
  100MOL0    Cl13410  -0.108   3.806  11.514  0.3507 -0.2926  0.1731
  100MOL0     C13411   0.771   2.996  11.608 -0.1085 -0.7136  1.5244
  100MOL0     C13412   0.905   2.982  11.617  0.5183  0.7777  0.3061
  100MOL0     O13413   1.102   2.833  11.868 -0.5665  0.1125 -0.2492
  100MOL0     C13414   1.394   3.032  11.759  0.8861 -0.0586 -0.0016
  100MOL0     C13415   1.526   3.028  11.754 -0.2521  0.2665 -0.5944
  100MOL0     N13416   2.156   2.923  11.959 -0.1410  0.5163  0.1377
  100MOL0     N13417   2.277   2.928  11.916  0.4427 -0.0112 -0.2576
  100MOL0     C13418   3.104   3.080  11.276  0.6067 -0.7484 -0.3094
  100MOL0     C13419   3.237   3.057  11.262 -0.2880  0.5046 -0.8455
  100MOL0     C13420   3.648   3.203  11.153 -0.4383 -0.5469 -0.8456
  100MOL0     C13421   3.743   3.292  11.222  0.2094 -0.0020 -0.3843
  100MOL0     C13422   3.874   3.280  11.197  0.4011 -0.1089 -0.5909
  100MOL0     C13423   3.932   3.175  11.126 -0.0060  0.0504  0.6061
  100MOL0     O13424   4.065   3.168  11.104 -0.2463 -0.7415  0.1583
  100MOL0     C13425   4.156   3.193  11.219  0.5502  0.0029 -0.1159
  100MOL0     C13426   4.235   3.063  11.234 -0.1860 -0.0834 -0.2574
  100MOL0     C13427   4.343   3.077  11.343  0.4465  0.4398  0.0638
  100MOL0     C13428   4.297   3.073  11.484 -0.6768 -0.6872 -0.6351
  100MOL0     C13429   4.408   3.086  11.573 -0.0747 -0.1147 -0.0653
  100MOL0     C13430   4.502   3.083  11.642  0.1719 -0.9997 -0.2795
  100MOL0     C13431   3.840   3.086  11.057 -0.8381 -0.5565  0.6041
  100MOL0     C13432   3.703   3.110  11.063  0.7244  0.2013  0.3250
  100MOL0     H13433   3.303   3.187  10.966  2.1423 -0.7791  1.1868
  100MOL0     H13434   3.058   3.233  10.979 -1.0721 -0.3266 -0.3586
  100MOL0     H13435   2.754   3.009  11.125 -1.4889 -1.4763  1.7327
  100MOL0     H13436   2.854   2.973  11.267  2.6895  0.4910 -1.0062
  100MOL0     H13437   2.771   3.180  11.367  2.4708  1.8183 -1.5162
  100MOL0     H13438   2.671   3.207  11.224  2.5443 -1.5168 -3.1391
  100MOL0     H13439   2.542   3.000  11.267  0.3195  0.4268  1.5750
  100MOL0     H13440   2.647   2.945  11.397 -0.2848  0.6955  1.3080
  100MOL0     H13441   2.510   3.212  11.420  2.5956  1.1863  0.5717
  100MOL0     H13442   2.418   3.062  11.434 -0.8850  1.3039 -2.5528
  100MOL0     H13443   2.639   2.998  11.601 -0.7810 -0.7865 -1.4853
  100MOL0     H13444   2.654   3.177  11.595 -2.5157  1.7134  1.1630
  100MOL0     H13445   2.448   3.212  11.712 -0.2383  0.2567  1.1307
  100MOL0     H13446   2.380   3.052  11.674 -1.9176  1.6556  2.0292
  100MOL0     H13447   2.536   2.926  11.817 -1.1660  0.5364 -2.1707
  100MOL0     H13448   2.639   3.067  11.826  1.1660 -0.9182  0.5566
  100MOL0     H13449   2.475   3.204  11.962  2.7608  0.1693  0.3362
  100MOL0     H13450   2.548   3.080  12.034  1.9048  1.0967 -0.7428
  100MOL0     H13451   2.287   3.156  12.155  0.5752 -0.5948  0.9274
  100MOL0     H13452   1.981   2.917  12.136 -2.5499  0.0887 -4.2215
  100MOL0     H13453   2.037   3.043  12.243  3.8719 -1.4274  0.1861
  100MOL0     H13454   1.951   3.216  12.077  0.2308 -0.4416  4.2753
  100MOL0     H13455   1.826   3.119  12.137 -0.7194 -0.0256 -1.0578
  100MOL0     H13456   1.958   3.106  11.865  0.8573  1.7631  0.4134
  100MOL0     H13457   1.791   3.153  11.892  0.1196 -1.3376 -2.9294
  100MOL0     H13458   1.787   2.890  11.994 -0.1514  0.9791 -0.1692
  100MOL0     H13459   1.916   2.882  11.886 -0.6546 -1.6472  0.2574
  100MOL0     H13460   1.592   2.764  11.940  0.2000  1.4499  2.6767
  100MOL0     H13461   1.305   2.712  12.036 -0.3469  1.9459 -0.9165
  100MOL0     H13462   1.275   2.659  11.874 -0.2700  3.3642 -2.4595
  100MOL0     H13463   1.436   2.626  11.945 -1.4929 -1.5819 -0.4777
  100MOL0     H13464   0.946   3.152  11.904 -2.0557  0.3961  1.9538
  100MOL0     H13465   0.696   3.157  11.884 -0.4412 -0.0780  0.4676
  100MOL0     H13466   0.594   3.175  11.503 -1.8522 -0.3438 -2.4738
  100MOL0     H13467   0.498   3.032  11.510 -2.6274  1.7462 -1.4560
  100MOL0     H13468   0.360   3.217  11.436  0.6528  1.2062 -0.7970
  100MOL0     H13469   0.302   3.153  11.590 -0.4828 -0.1716 -0.2102
  100MOL0     H13470   0.486   3.404  11.593 -1.3535  1.9678  3.7104
  100MOL0     H13471   0.381   3.325  11.716 -2.9214 -2.0208 -0.9436
  100MOL0     H13472   0.286   3.425  11.448 -0.6554  2.0144 -0.0310
  100MOL0     H13473   0.179   3.397  11.590  0.0829  2.2116  2.4856
  100MOL0     H13474   0.372   3.617  11.549  0.2154 -1.3863 -1.5420
  100MOL0     H13475   0.285   3.588  11.702 -1.5474 -1.9764  0.5433
  100MOL0     H13476   0.147   3.636  11.416  0.7163 -0.3898  0.0188
  100MOL0     H13477   0.065   3.612  11.574 -0.6486  1.4166 -1.2517
  100MOL0     H13478   0.263   3.843  11.518 -1.4414  0.0681 -0.8863
  100MOL0     H13479   0.158   3.801  11.661 -1.3281 -1.2646  0.9104
  100MOL0     H13480   0.080   3.877  11.373 -1.4648 -1.0826  0.2060
  100MOL0     H13481   0.059   3.980  11.510 -0.4360 -1.1228  1.1609
  100MOL0     H13482   0.738   2.977  11.506  1.3290  0.7513  0.7164
  100MOL0     H13483   0.963   2.936  11.538 -0.3723  0.1217  0.0204
  100MOL0     H13484   1.341   3.115  11.712 -0.1473 -0.6597  0.0528
  100MOL0     H13485   1.570   3.108  11.696 -1.3233  0.3829 -1.2755
  100MOL0     H13486   3.049   3.062  11.368  2.3700  0.2907  1.0168
  100MOL0     H13487   3.291   3.013  11.345 -1.4078 -1.3396 -1.0275
  100MOL0     H13488   3.715   3.349  11.310 -0.0938 -0.4067 -0.2167
  100MOL0     H13489   3.933   3.346  11.259 -1.1887 -0.7251  1.6832
  100MOL0     H13490   4.222   3.278  11.200 -2.1876  2.1671 -0.6378
  100MOL0     H13491   4.102   3.206  11.313  0.5019  1.6825 -0.3512
  100MOL0     H13492   4.277   3.044  11.135 -1.1586 -1.2011 -0.4839
  100MOL0     H13493   4.162   2.984  11.253 -1.8332  1.4629  0.1766
  100MOL0     H13494   4.402   3.168  11.327  0.9248 -0.1194 -1.5943
  100MOL0     H13495   4.421   3.006  11.313  2.4156  1.8985  1.3984
  100MOL0     H13496   4.246   2.979  11.510  1.4762 -1.9571 -0.8300
  100MOL0     H13497   4.231   3.160  11.495 -0.2066 -0.3285 -0.6161
  100MOL0     H13498   4.582   3.063  11.710 -0.1654 -2.6945 -0.3169
  100MOL0     H13499   3.886   3.003  11.004 -0.5194 -0.6432  1.0100
  100MOL0     H13500   3.638   3.038  11.015  1.2115  1.3643 -2.2251
  101MOL0     O13501   8.115   0.903  10.485 -0.4708 -0.3127  0.2542
  101MOL0     C13502   8.191   0.890  10.393  0.9600 -0.1099 -0.5014
  101MOL0     O13503   8.151   0.871  10.255  0.2085 -0.1732  0.0631
  101MOL0     C13504   8.023   0.824  10.227 -0.7032 -0.2638  0.6049
  101MOL0     C13505   7.944   0.739  10.304 -1.1083 -0.3632 -0.0720
  101MOL0     C13506   7.820   0.689  10.255 -0.4856  0.6973 -0.0419
  101MOL0     C13507   7.768   0.736  10.132  0.1150 -0.2932  0.3060
  101MOL0     O13508   7.651   0.689  10.071 -0.1352  0.4338  0.0707
  101MOL0     C13509   7.600   0.558  10.112 -0.5370  0.4958  0.1097
  101MOL0     C13510   7.503   0.557  10.228 -0.2885 -0.7976 -0.2130
  101MOL0     C13511   7.444   0.414  10.249  0.6749 -0.0717 -0.1451
  101MOL0     C13512   7.326   0.410  10.346 -0.2449  0.0070  0.2377
  101MOL0     C13513   7.215   0.313  10.325  0.4419 -0.2967  0.5757
  101MOL0     C13514   7.140   0.332  10.189  0.0974  1.1494  0.2992
  101MOL0     C13515   7.012   0.247  10.166 -0.1134  0.1345 -0.3140
  101MOL0     C13516   7.042   0.097  10.130 -0.7249  0.2450  0.6354
  101MOL0     N13517   6.924   0.018  10.158 -0.4972 -0.5330  0.2115
  101MOL0     C13518   6.805   0.038  10.100  0.4225 -0.1828  0.3718
  101MOL0     C13519   6.711  -0.045  10.156 -0.7607  0.2959 -0.4255
  101MOL0     C13520   6.565  -0.031  10.121  0.3080 -0.2492 -0.0182
  101MOL0     C13521   6.483   0.022  10.244  0.0402 -0.3364  0.2472
  101MOL0     C13522   6.560   0.139  10.325  0.2177  0.1662 -1.0501
  101MOL0     C13523   6.463   0.196  10.425 -0.1667 -0.0760  0.1715
  101MOL0     O13524   6.375   0.292  10.372 -0.4260 -0.2468  0.0316
  101MOL0     C13525   6.257   0.312  10.443 -0.2886 -0.0871 -0.3433
  101MOL0     C13526   6.156   0.373  10.366  0.0869 -0.5760  0.7429
  101MOL0     C13527   6.024   0.394  10.409  0.4062 -0.4981  0.1428
  101MOL0     C13528   5.919   0.426  10.313  0.2816 -0.2747  0.4191
  101MOL0     C13529   5.984   0.366  10.542 -0.3245  0.6082 -0.0406
  101MOL0     C13530   5.851   0.393  10.609 -0.9877 -0.0654 -0.0062
  101MOL0     O13531   5.793   0.525  10.597 -0.4187 -0.1921 -0.4038
  101MOL0     C13532   5.665   0.533  10.636  0.1948 -0.0104 -0.0459
  101MOL0     C13533   5.561   0.576  10.551 -0.5662  0.0479 -0.4835
  101MOL0     C13534   5.429   0.584  10.599  0.5418 -0.3252  0.1326
  101MOL0     C13535   5.402   0.564  10.738 -0.0907  0.5872  0.0561
  101MOL0     O13536   5.276   0.593  10.783 -0.2086 -0.4138 -0.6505
  101MOL0     C13537   5.272   0.681  10.890 -0.1789 -0.1165  0.1296
  101MOL0     C13538   5.144   0.761  10.893  0.3358  0.1173 -0.7699
  101MOL0     C13539   5.114   0.816  10.754 -0.1238  0.9544  0.6351
  101MOL0     C13540   5.000   0.913  10.750  0.3833  0.8418 -0.1727
  101MOL0     C13541   4.863   0.844  10.763  0.6125 -0.6508  0.2249
  101MOL0     C13542   4.749   0.944  10.734  0.0411 -0.2452  0.0864
  101MOL0     C13543   4.616   0.875  10.701  0.1274 -0.0215 -0.6485
  101MOL0     C13544   4.618   0.780  10.571 -0.0063  0.4086 -1.0093
  101MOL0    Cl13545   4.448   0.757  10.510  0.0242  0.0352  0.3635
  101MOL0     C13546   5.508   0.532  10.822  0.1473  0.7320  0.1337
  101MOL0     C13547   5.633   0.505  10.772  0.0028 -0.9143  0.4792
  101MOL0     O13548   5.812   0.307  10.685  0.1805 -0.4173  0.3338
  101MOL0     C13549   6.092   0.300  10.626  0.0176 -0.0560  0.5557
  101MOL0     C13550   6.218   0.263  10.574 -0.3742  0.2133 -0.0901
  101MOL0     N13551   6.786  -0.129  10.243 -0.2318 -0.4801  0.0696
  101MOL0     N13552   6.908  -0.084  10.245  0.5259 -0.6864  0.5233
  101MOL0     C13553   7.846   0.839  10.068 -0.3052  0.5307  0.0053
  101MOL0     C13554   7.973   0.887  10.112  0.5154  0.7435  0.5351
  101MOL0     C13555   8.326   0.876  10.434 -0.3720 -0.7489 -0.4855
  101MOL0     C13556   8.434   0.855  10.346 -0.1238  0.3836 -0.0281
  101MOL0     C13557   8.560   0.824  10.397 -0.8498  0.7362  0.4334
  101MOL0     C13558   8.586   0.818  10.536  0.3286 -1.4496  0.1857
  101MOL0     O13559   8.712   0.800  10.580 -0.2986  0.2797 -0.6043
  101MOL0     C13560   8.815   0.854  10.496 -0.3405 -0.9202 -0.2799
  101MOL0     C13561   8.946   0.857  10.573  0.1036 -0.1003  0.4092
  101MOL0     C13562   9.006   0.715  10.572  0.1835  0.6191  0.4195
  101MOL0     C13563   9.136   0.710  10.644 -0.6530 -0.0580 -0.3079
  101MOL0     C13564   9.223   0.604  10.605 -0.9719  0.0893 -0.7748
  101MOL0     C13565   9.294   0.510  10.585 -0.4877 -0.0593 -0.4963
  101MOL0     C13566   8.486   0.859  10.623 -0.3095 -0.5273 -0.9114
  101MOL0     C13567   8.359   0.884  10.575  0.9353  0.0435 -0.8842
  101MOL0     H13568   7.986   0.692  10.393 -0.2345 -1.9618 -1.2909
  101MOL0     H13569   7.779   0.612  10.319 -0.7889  0.0047 -1.0351
  101MOL0     H13570   7.536   0.522  10.031  0.4288  1.0365 -0.9064
  101MOL0     H13571   7.682   0.486  10.122 -0.5418  0.3292 -0.9923
  101MOL0     H13572   7.558   0.593  10.315 -1.4066 -1.7432  0.9374
  101MOL0     H13573   7.431   0.628  10.184  1.3106  1.2966  0.4072
  101MOL0     H13574   7.405   0.388  10.150  1.3143 -0.6770 -0.2525
  101MOL0     H13575   7.516   0.344  10.293 -2.0593 -3.2616 -0.3361
  101MOL0     H13576   7.357   0.395  10.450 -1.8797  0.2957  0.8043
  101MOL0     H13577   7.275   0.507  10.345 -2.7005 -1.2102 -1.2929
  101MOL0     H13578   7.267   0.217  10.333  2.4317  0.8665  2.6954
  101MOL0     H13579   7.142   0.308  10.407  1.4138 -1.4971  1.3925
  101MOL0     H13580   7.121   0.439  10.174  2.2623  1.5343 -0.0405
  101MOL0     H13581   7.216   0.307  10.114  0.9888 -1.4177  1.9035
  101MOL0     H13582   6.956   0.250  10.260 -0.4707  0.2567 -0.5285
  101MOL0     H13583   6.950   0.290  10.087  0.1349  0.0923 -0.5309
  101MOL0     H13584   7.126   0.060  10.189  2.1542  3.4911 -1.0468
  101MOL0     H13585   7.057   0.081  10.023 -0.6569  2.2336  0.3003
  101MOL0     H13586   6.784   0.117  10.029 -0.0082 -0.2999  0.3697
  101MOL0     H13587   6.571   0.046  10.044  1.5374 -0.1523  0.1627
  101MOL0     H13588   6.524  -0.125  10.083  0.4417  0.0243 -0.8606
  101MOL0     H13589   6.471  -0.063  10.311  4.3596 -0.2995  1.3429
  101MOL0     H13590   6.388   0.059  10.204 -0.5716 -1.7556  0.3430
  101MOL0     H13591   6.598   0.213  10.253  1.3165 -0.0122 -0.6804
  101MOL0     H13592   6.640   0.092  10.383 -0.2079 -0.3684 -0.8902
  101MOL0     H13593   6.522   0.228  10.512  0.9974 -1.5673 -0.0266
  101MOL0     H13594   6.392   0.123  10.465 -0.5117  1.2271  2.0422
  101MOL0     H13595   6.190   0.410  10.270  0.6368 -1.7262  0.4819
  101MOL0     H13596   5.891   0.327  10.276 -0.5687  0.0185  0.2565
  101MOL0     H13597   5.834   0.478  10.359  2.5027  0.1554  4.5567
  101MOL0     H13598   5.954   0.483  10.227 -0.3300 -2.6662 -1.5082
  101MOL0     H13599   5.582   0.601  10.447 -0.7448 -0.6301 -0.6905
  101MOL0     H13600   5.340   0.602  10.540  0.3741 -0.5404  0.3175
  101MOL0     H13601   5.268   0.634  10.988 -0.0943  0.2843  0.3297
  101MOL0     H13602   5.355   0.752  10.894  0.9231 -1.3712  0.2192
  101MOL0     H13603   5.067   0.685  10.909 -0.0180  0.3946 -1.1206
  101MOL0     H13604   5.142   0.837  10.972 -3.7724  0.8467 -1.3266
  101MOL0     H13605   5.094   0.734  10.684 -1.4565  0.8585  1.1021
  101MOL0     H13606   5.205   0.860  10.714  0.7964 -2.0885 -0.9711
  101MOL0     H13607   5.018   0.983  10.833  3.8476  0.9508 -0.8962
  101MOL0     H13608   5.006   0.982  10.665 -1.7105  1.1845 -0.0981
  101MOL0     H13609   4.846   0.806  10.864 -1.9043 -2.8498 -0.8928
  101MOL0     H13610   4.848   0.759  10.695 -0.3565  0.6737 -1.2869
  101MOL0     H13611   4.739   0.993  10.831  4.0391 -4.1910  2.9163
  101MOL0     H13612   4.779   1.023  10.664  3.8628 -1.2500  0.3275
  101MOL0     H13613   4.537   0.950  10.693  0.3970  0.4036  0.3753
  101MOL0     H13614   4.581   0.812  10.784  1.2002  2.2305  1.6716
  101MOL0     H13615   4.665   0.685  10.598  1.5061  1.4328  0.1045
  101MOL0     H13616   4.674   0.836  10.495  0.9100  0.0329 -0.6236
  101MOL0     H13617   5.485   0.514  10.926  0.1222  0.1981  0.0370
  101MOL0     H13618   5.703   0.475  10.850 -2.4983 -0.8623  2.9196
  101MOL0     H13619   6.057   0.264  10.722 -1.5766  2.2555  0.9281
  101MOL0     H13620   6.285   0.209  10.639 -2.2118 -0.0491  1.6878
  101MOL0     H13621   7.817   0.856   9.965  0.3706  0.8334 -0.1414
  101MOL0     H13622   8.030   0.961  10.057 -1.7663  2.2248  0.0539
  101MOL0     H13623   8.418   0.849  10.238 -1.6767  0.5179  0.1628
  101MOL0     H13624   8.642   0.817  10.325 -1.7710  1.1225 -0.6797
  101MOL0     H13625   8.820   0.786  10.410  0.6420 -0.3137 -0.7226
  101MOL0     H13626   8.800   0.958  10.468 -1.1207 -1.0771 -0.4567
  101MOL0     H13627   8.919   0.901  10.669 -1.8983 -0.0117 -0.1465
  101MOL0     H13628   9.011   0.916  10.508  0.4751 -1.1617 -0.2089
  101MOL0     H13629   9.021   0.695  10.465 -3.4825  0.7697 -0.2581
  101MOL0     H13630   8.929   0.647  10.609 -1.5193  1.6693 -1.0813
  101MOL0     H13631   9.116   0.707  10.752  1.2195 -1.4742  0.0542
  101MOL0     H13632   9.188   0.800  10.612 -1.1852 -0.4964 -2.5152
  101MOL0     H13633   9.347   0.417  10.580  0.7971  0.6983 -1.2052
  101MOL0     H13634   8.506   0.871  10.729 -1.7552  3.9630 -0.9398
  101MOL0     H13635   8.288   0.894  10.657  1.4036  0.3473 -0.5141
  102MOL0     O13636   5.178   8.255   4.664 -0.1454  0.9753 -0.1497
  102MOL0     C13637   5.171   8.146   4.607  1.1109 -0.1766  1.1356
  102MOL0     O13638   5.051   8.083   4.576  0.1116  0.2780  0.3917
  102MOL0     C13639   4.927   8.136   4.614 -0.3753  0.5513 -0.1485
  102MOL0     C13640   4.812   8.068   4.557 -0.2572  0.0243  0.1173
  102MOL0     C13641   4.673   8.103   4.582 -0.5526 -0.0472  0.4146
  102MOL0     C13642   4.651   8.217   4.667  0.3466  0.1795  0.1570
  102MOL0     O13643   4.523   8.267   4.686 -0.3879 -0.2232  1.0051
  102MOL0     C13644   4.452   8.192   4.785  0.4092  0.0364  0.6103
  102MOL0     C13645   4.482   8.216   4.934  0.7150 -0.4599  0.3485
  102MOL0     C13646   4.406   8.119   5.029  0.3254 -0.6645  0.1834
  102MOL0     C13647   4.255   8.140   5.033  0.9720 -0.3863  0.4477
  102MOL0     C13648   4.175   8.089   5.153 -0.6894  0.5963 -0.1462
  102MOL0     C13649   4.140   7.934   5.148  0.2231 -0.1592 -0.1375
  102MOL0     C13650   4.021   7.895   5.243 -0.3622  0.3051  0.4625
  102MOL0     C13651   4.006   7.744   5.249 -0.1692  0.7613 -1.0952
  102MOL0     N13652   3.912   7.700   5.147 -0.3335 -0.7918  0.1228
  102MOL0     C13653   3.777   7.709   5.161  0.1833  0.5973 -0.0004
  102MOL0     C13654   3.730   7.651   5.047 -0.2979  0.5780  0.7435
  102MOL0     C13655   3.588   7.645   4.996 -0.8444 -0.3293  0.2385
  102MOL0     C13656   3.510   7.767   5.035 -0.7519  1.6785 -0.9526
  102MOL0     C13657   3.365   7.748   4.994 -0.4445  0.8731 -0.1015
  102MOL0     C13658   3.282   7.873   5.040 -1.2120 -0.1382 -0.2234
  102MOL0     O13659   3.139   7.838   5.052  0.7107  0.1825 -0.3431
  102MOL0     C13660   3.061   7.880   4.949 -0.3179  0.0585 -0.3904
  102MOL0     C13661   3.016   8.012   4.933  0.3058 -0.9788 -0.6378
  102MOL0     C13662   2.919   8.050   4.847  0.3890 -0.0011 -0.4031
  102MOL0     C13663   2.859   8.188   4.855  0.0800 -0.1110 -0.5796
  102MOL0     C13664   2.875   7.947   4.752  0.2548 -0.2295  0.4267
  102MOL0     C13665   2.758   7.974   4.664 -0.4060 -0.3678 -0.0070
  102MOL0     O13666   2.660   7.883   4.654 -0.9342  0.5676 -0.3492
  102MOL0     C13667   2.582   7.883   4.544 -0.7113  0.1826 -0.0042
  102MOL0     C13668   2.464   7.951   4.540  0.1837 -1.0455  0.0202
  102MOL0     C13669   2.369   7.936   4.438 -0.3933  0.3483 -0.0760
  102MOL0     C13670   2.407   7.868   4.323  1.0523 -0.5383  0.6077
  102MOL0     O13671   2.301   7.864   4.234 -0.0116 -0.4086  0.8117
  102MOL0     C13672   2.325   7.808   4.095 -0.2689  0.5930 -0.1423
  102MOL0     C13673   2.345   7.922   4.002  0.5935 -0.7978  0.1733
  102MOL0     C13674   2.215   7.972   3.927 -0.3918  0.6689  0.9762
  102MOL0     C13675   2.157   7.856   3.844  0.6039  0.3565  0.3965
  102MOL0     C13676   2.023   7.879   3.773  0.2950  0.1261  0.3870
  102MOL0     C13677   2.029   7.990   3.663 -0.4093 -0.5003  1.0314
  102MOL0     C13678   1.908   7.998   3.586  0.4743  0.0464  0.7743
  102MOL0     C13679   1.783   8.050   3.665  0.8093  0.1454  0.5050
  102MOL0    Cl13680   1.663   8.074   3.545  0.1217  0.1943 -0.1202
  102MOL0     C13681   2.531   7.810   4.312  0.5255 -0.4346 -0.5147
  102MOL0     C13682   2.621   7.813   4.424  0.2691 -0.4676 -0.8606
  102MOL0     O13683   2.753   8.078   4.599 -0.4559  0.2880 -0.2119
  102MOL0     C13684   2.918   7.810   4.761  0.0108  1.2524 -1.0716
  102MOL0     C13685   3.010   7.784   4.864 -0.0806  0.3272  0.1309
  102MOL0     N13686   3.838   7.593   4.988 -0.1664 -0.4715 -0.3918
  102MOL0     N13687   3.945   7.618   5.044  0.2692  0.0700 -0.4371
  102MOL0     C13688   4.756   8.269   4.741  0.4958 -0.5067  0.4158
  102MOL0     C13689   4.893   8.230   4.719  0.3480  0.2069 -0.0001
  102MOL0     C13690   5.298   8.085   4.576  0.2279  0.9654  0.3300
  102MOL0     C13691   5.298   7.980   4.484 -0.1625 -0.1138 -0.6698
  102MOL0     C13692   5.420   7.909   4.450 -0.6383  0.3959 -0.9917
  102MOL0     C13693   5.543   7.936   4.511  0.0884  0.3512  0.3130
  102MOL0     O13694   5.660   7.882   4.450  0.3130  0.4655 -0.3520
  102MOL0     C13695   5.759   7.837   4.538  0.4264  0.9344 -1.3774
  102MOL0     C13696   5.700   7.732   4.643 -0.6383 -0.1366  0.3014
  102MOL0     C13697   5.656   7.597   4.582  0.0997 -0.2555  1.4669
  102MOL0     C13698   5.619   7.489   4.686 -0.5008 -0.0704 -0.8230
  102MOL0     C13699   5.519   7.526   4.789  0.2901 -0.3041  0.0829
  102MOL0     C13700   5.442   7.565   4.879 -0.5497  0.0257  0.2379
  102MOL0     C13701   5.541   8.041   4.605 -0.1071 -0.2823 -0.4069
  102MOL0     C13702   5.423   8.107   4.636  0.2223 -0.0559 -0.5026
  102MOL0     H13703   4.829   7.985   4.489 -2.0707  0.4016 -0.8795
  102MOL0     H13704   4.585   8.056   4.540  1.7390 -4.1215 -0.3899
  102MOL0     H13705   4.346   8.217   4.775  0.8823  1.5794 -0.8176
  102MOL0     H13706   4.465   8.083   4.781  3.5076  0.1769  2.8188
  102MOL0     H13707   4.589   8.206   4.953  0.8789  0.6279  0.0863
  102MOL0     H13708   4.456   8.317   4.969  0.6095  0.4312 -2.1087
  102MOL0     H13709   4.422   8.014   5.002 -2.5363 -0.5856 -2.2377
  102MOL0     H13710   4.449   8.132   5.129 -2.3040  0.1586  1.2790
  102MOL0     H13711   4.240   8.248   5.038  0.6601 -0.4808  2.8747
  102MOL0     H13712   4.210   8.102   4.940  0.3298  2.0773 -0.3337
  102MOL0     H13713   4.234   8.108   5.244  0.3238 -1.5261 -0.3014
  102MOL0     H13714   4.082   8.145   5.169 -0.5998  0.1902  2.1007
  102MOL0     H13715   4.110   7.902   5.048 -2.7753 -1.9863  1.2089
  102MOL0     H13716   4.228   7.873   5.168 -0.8249 -1.3154  1.2177
  102MOL0     H13717   4.035   7.938   5.342 -1.4497  0.7035  0.4607
  102MOL0     H13718   3.930   7.936   5.198 -0.2147 -1.6956 -1.8830
  102MOL0     H13719   3.989   7.711   5.351  4.0939  4.8799  1.3465
  102MOL0     H13720   4.106   7.707   5.226  0.2441  1.7692 -0.9637
  102MOL0     H13721   3.730   7.765   5.241  2.4712  2.5951  0.0639
  102MOL0     H13722   3.602   7.629   4.889 -1.1399 -2.7981  0.5213
  102MOL0     H13723   3.543   7.552   5.031 -1.6942 -0.8996 -2.1861
  102MOL0     H13724   3.553   7.857   4.988 -0.8868  0.7742 -2.8966
  102MOL0     H13725   3.513   7.785   5.143 -0.6848  0.1436 -0.6830
  102MOL0     H13726   3.329   7.661   5.049 -4.0871  2.7257  0.8005
  102MOL0     H13727   3.359   7.725   4.888  1.6615  2.0076 -0.5030
  102MOL0     H13728   3.300   7.954   4.969  1.5718 -0.3525  0.1211
  102MOL0     H13729   3.309   7.903   5.142 -1.0172 -0.1970 -0.2572
  102MOL0     H13730   3.040   8.097   4.996 -1.3703  1.2888 -2.8258
  102MOL0     H13731   2.752   8.176   4.837  0.0418  0.8745 -1.1204
  102MOL0     H13732   2.869   8.234   4.953  3.4355  0.1620 -0.9181
  102MOL0     H13733   2.911   8.260   4.790 -1.2653 -0.3095 -1.9233
  102MOL0     H13734   2.429   8.013   4.622 -2.0436 -2.1819  0.0238
  102MOL0     H13735   2.275   7.988   4.452 -0.1041  1.3123 -1.4948
  102MOL0     H13736   2.408   7.737   4.088  0.6417  1.5638  0.5047
  102MOL0     H13737   2.246   7.737   4.070  1.4389 -0.7306 -2.0603
  102MOL0     H13738   2.389   8.002   4.063  0.6319 -0.7633  0.1008
  102MOL0     H13739   2.425   7.894   3.932  0.2941 -2.1364  0.3493
  102MOL0     H13740   2.231   8.060   3.865 -0.8210  1.2200  1.6391
  102MOL0     H13741   2.140   8.011   3.995 -1.3232 -1.2812  1.1517
  102MOL0     H13742   2.228   7.815   3.771  1.2146  0.7530  0.7608
  102MOL0     H13743   2.120   7.772   3.905 -0.9823 -2.0136 -3.4414
  102MOL0     H13744   1.954   7.907   3.853  2.1676 -0.4914  2.3220
  102MOL0     H13745   1.997   7.789   3.717  1.4139  0.4309 -0.6663
  102MOL0     H13746   2.053   8.092   3.696 -0.3451  1.9329 -5.2521
  102MOL0     H13747   2.107   7.967   3.591 -1.7185  0.9980 -0.9705
  102MOL0     H13748   1.889   7.906   3.531  0.1025  1.2031 -1.1429
  102MOL0     H13749   1.925   8.075   3.509  1.7008 -0.4492  0.5132
  102MOL0     H13750   1.802   8.148   3.709  0.9640 -0.0650  0.9050
  102MOL0     H13751   1.748   7.979   3.740  1.3724 -0.1753  0.4700
  102MOL0     H13752   2.554   7.745   4.228 -0.3887 -3.4310  1.4067
  102MOL0     H13753   2.721   7.773   4.417  0.0787 -0.9008 -1.1243
  102MOL0     H13754   2.865   7.730   4.710  0.1704  0.8758 -0.6511
  102MOL0     H13755   3.037   7.681   4.882 -0.1902 -0.0677 -1.7314
  102MOL0     H13756   4.742   8.341   4.821  1.2657 -0.8817  0.8893
  102MOL0     H13757   4.976   8.264   4.780 -0.4449  2.3174 -0.0089
  102MOL0     H13758   5.204   7.955   4.436 -1.3136  0.0511  1.3781
  102MOL0     H13759   5.405   7.832   4.375  1.5219 -1.7558  0.6075
  102MOL0     H13760   5.841   7.785   4.487  0.0004 -1.9085  0.6136
  102MOL0     H13761   5.815   7.914   4.590  3.3474 -1.1901 -1.0809
  102MOL0     H13762   5.617   7.777   4.699  0.2965  4.6394 -1.6131
  102MOL0     H13763   5.785   7.712   4.707  0.5013 -0.9778 -1.3832
  102MOL0     H13764   5.742   7.560   4.526 -0.5389  0.4256 -0.0315
  102MOL0     H13765   5.565   7.614   4.523 -0.8426 -1.8204  2.3699
  102MOL0     H13766   5.710   7.461   4.741 -1.0195  1.7920  1.1142
  102MOL0     H13767   5.570   7.405   4.636 -0.1849 -0.1030 -1.0837
  102MOL0     H13768   5.366   7.594   4.948 -0.2976 -0.4523  0.7229
  102MOL0     H13769   5.634   8.076   4.650 -0.5383  1.9756 -1.1083
  102MOL0     H13770   5.427   8.194   4.700 -0.2164  0.0957 -0.6749
  103MOL0     O13771   0.105   5.669   7.078  0.0259  0.1301 -0.0905
  103MOL0     C13772   0.128   5.573   7.152 -0.0312  0.8804 -0.1635
  103MOL0     O13773   0.044   5.468   7.170  0.1876 -0.8825 -0.4432
  103MOL0     C13774  -0.080   5.473   7.123  0.3994  0.1761 -0.1063
  103MOL0     C13775  -0.176   5.522   7.214 -0.0480  0.0351  0.1417
  103MOL0     C13776  -0.313   5.525   7.184 -0.3462  1.1719 -0.3362
  103MOL0     C13777  -0.357   5.474   7.059 -1.1263 -0.4328  0.2907
  103MOL0     O13778  -0.483   5.502   7.003 -0.5351 -0.0781 -0.2231
  103MOL0     C13779  -0.567   5.608   7.051  0.4137  0.3830 -0.3417
  103MOL0     C13780  -0.676   5.533   7.122 -0.6792 -0.2333 -0.0484
  103MOL0     C13781  -0.780   5.642   7.154 -0.5194 -0.2036  0.6256
  103MOL0     C13782  -0.899   5.589   7.231  0.0851  0.0149  0.4435
  103MOL0     C13783  -0.998   5.693   7.265 -0.6642  0.2371  0.3122
  103MOL0     C13784  -1.121   5.630   7.327  0.2642  0.5869  0.1432
  103MOL0     C13785  -1.213   5.741   7.378 -0.2250  0.2654  0.3260
  103MOL0     C13786  -1.350   5.694   7.370  1.5043 -0.1182  0.2607
  103MOL0     N13787  -1.436   5.798   7.432 -0.0142  0.8163 -0.0297
  103MOL0     C13788  -1.433   5.928   7.412 -0.2521  0.6167  0.4978
  103MOL0     C13789  -1.540   5.976   7.472  0.1373 -0.8138  0.2418
  103MOL0     C13790  -1.609   6.111   7.462 -0.1268 -0.9049 -0.1249
  103MOL0     C13791  -1.518   6.208   7.389  0.2229  0.2820  0.1047
  103MOL0     C13792  -1.564   6.350   7.367  1.0663 -0.5432  0.3905
  103MOL0     C13793  -1.714   6.360   7.338 -0.5917  0.2687  0.0846
  103MOL0     O13794  -1.749   6.278   7.230  0.9953 -0.0710 -0.1167
  103MOL0     C13795  -1.881   6.273   7.190 -0.7195 -0.2567  0.0177
  103MOL0     C13796  -1.987   6.349   7.243  0.4263  0.5503 -1.5585
  103MOL0     C13797  -2.119   6.360   7.190  0.3954 -1.0357 -0.6944
  103MOL0     C13798  -2.227   6.423   7.276 -0.0709 -0.0305 -0.7418
  103MOL0     C13799  -2.146   6.290   7.072  0.9110  0.6815  0.1293
  103MOL0     C13800  -2.277   6.276   7.013  0.6361  0.9020 -0.0634
  103MOL0     O13801  -2.332   6.149   7.012  0.1648 -0.1795 -0.6190
  103MOL0     C13802  -2.460   6.134   6.966 -0.0628 -0.1483  0.0395
  103MOL0     C13803  -2.478   6.127   6.832  0.2531  0.0635 -0.2277
  103MOL0     C13804  -2.609   6.097   6.787 -0.3079  0.4012  1.4296
  103MOL0     C13805  -2.720   6.084   6.876  0.8347 -0.5298 -0.4984
  103MOL0     O13806  -2.848   6.076   6.825  0.0111  0.1066  0.0074
  103MOL0     C13807  -2.873   5.951   6.757 -0.0641  1.0214 -0.2914
  103MOL0     C13808  -2.985   5.997   6.681  0.2111  0.1526 -0.1697
  103MOL0     C13809  -3.121   5.975   6.763 -0.7906  0.5343 -0.0683
  103MOL0     C13810  -3.250   6.027   6.687 -0.1993 -0.5123 -0.8009
  103MOL0     C13811  -3.372   6.041   6.788  0.4999 -0.2420  0.4508
  103MOL0     C13812  -3.481   6.134   6.737  0.2519  0.1373  0.3962
  103MOL0     C13813  -3.599   6.146   6.834  1.1928 -0.5528 -0.9113
  103MOL0     C13814  -3.646   6.020   6.900 -0.4692  0.2265 -0.3533
  103MOL0    Cl13815  -3.738   5.909   6.792 -0.7832  0.7070  0.3993
  103MOL0     C13816  -2.698   6.106   7.015 -0.0527  0.9251  0.6622
  103MOL0     C13817  -2.563   6.128   7.063 -0.6581 -0.3909  0.0829
  103MOL0     O13818  -2.338   6.378   6.994  0.4532  0.0430  0.2469
  103MOL0     C13819  -2.039   6.211   7.012  0.5908 -0.0835  0.3583
  103MOL0     C13820  -1.905   6.212   7.065  0.4623 -0.0963 -0.6057
  103MOL0     N13821  -1.602   5.872   7.529  0.0107  0.2569 -0.2142
  103MOL0     N13822  -1.531   5.762   7.521 -0.2447 -0.0645  0.6177
  103MOL0     C13823  -0.268   5.403   6.981  0.6132 -0.5604 -0.3041
  103MOL0     C13824  -0.131   5.410   7.008  0.1251 -0.9117  0.3970
  103MOL0     C13825   0.264   5.549   7.200 -0.0663 -1.4384 -0.1153
  103MOL0     C13826   0.298   5.423   7.249  0.5324  0.7170 -0.5065
  103MOL0     C13827   0.432   5.396   7.288 -0.1256  0.4863 -0.0921
  103MOL0     C13828   0.523   5.503   7.284 -0.1460  0.1374  0.3533
  103MOL0     O13829   0.650   5.497   7.322  0.2887 -0.3323 -0.9205
  103MOL0     C13830   0.704   5.368   7.364  0.1718 -0.1084 -0.1923
  103MOL0     C13831   0.843   5.374   7.400 -1.6156  0.4337 -0.3133
  103MOL0     C13832   0.924   5.394   7.264 -0.6686  0.7324 -0.5907
  103MOL0     C13833   1.064   5.451   7.285  0.0442  0.4932  0.0762
  103MOL0     C13834   1.145   5.416   7.171 -0.6815 -0.4402 -0.6052
  103MOL0     C13835   1.216   5.384   7.083 -0.1493 -0.0761 -0.2434
  103MOL0     C13836   0.489   5.630   7.236  0.0550  0.3673  0.5626
  103MOL0     C13837   0.362   5.649   7.186  0.2513 -1.0094 -0.7137
  103MOL0     H13838  -0.143   5.548   7.314  0.4088  1.0788 -0.2688
  103MOL0     H13839  -0.382   5.568   7.256  0.9203  1.8568  0.5346
  103MOL0     H13840  -0.508   5.675   7.114  0.5349 -0.8543  0.8924
  103MOL0     H13841  -0.597   5.672   6.967  1.5083  1.1610 -0.1630
  103MOL0     H13842  -0.710   5.455   7.053  1.5957 -1.9512  0.6434
  103MOL0     H13843  -0.621   5.491   7.207  2.6381  0.3103 -1.7413
  103MOL0     H13844  -0.742   5.726   7.213  0.5390 -0.5835  0.5158
  103MOL0     H13845  -0.824   5.670   7.058 -1.4370 -3.2840  0.0497
  103MOL0     H13846  -0.938   5.502   7.177  2.8555 -1.8853  1.2384
  103MOL0     H13847  -0.864   5.543   7.324  0.6592 -2.2605 -0.8167
  103MOL0     H13848  -0.954   5.761   7.338  0.3997 -0.0412 -0.0542
  103MOL0     H13849  -1.028   5.750   7.176 -1.1658  1.2215  1.0943
  103MOL0     H13850  -1.180   5.561   7.265  0.3585 -1.2907  2.0259
  103MOL0     H13851  -1.090   5.564   7.408  1.9317  1.2837  0.1141
  103MOL0     H13852  -1.180   5.759   7.481 -2.6990 -1.0843  1.4580
  103MOL0     H13853  -1.205   5.832   7.318 -4.7813 -0.2260 -1.4633
  103MOL0     H13854  -1.352   5.600   7.427 -0.5076 -0.0882  0.2950
  103MOL0     H13855  -1.387   5.671   7.270  0.7675 -0.2264  0.5524
  103MOL0     H13856  -1.358   5.985   7.359  1.7920  0.5944  3.1978
  103MOL0     H13857  -1.701   6.104   7.402  0.2422  3.5703 -1.5290
  103MOL0     H13858  -1.629   6.138   7.566  0.5826 -1.8461  0.2703
  103MOL0     H13859  -1.498   6.164   7.291 -1.0020 -2.6760  1.0725
  103MOL0     H13860  -1.419   6.207   7.435  0.2534  0.7099  0.0579
  103MOL0     H13861  -1.520   6.390   7.275  0.3684 -1.2926 -0.2825
  103MOL0     H13862  -1.541   6.421   7.447 -0.5757  1.7286 -1.0641
  103MOL0     H13863  -1.733   6.467   7.320 -3.3946 -0.3724 -1.3367
  103MOL0     H13864  -1.774   6.333   7.426  1.7240  1.1287  2.0458
  103MOL0     H13865  -1.973   6.396   7.340  1.3881  1.2316 -2.0133
  103MOL0     H13866  -2.303   6.354   7.312  0.2597  0.6763  1.5249
  103MOL0     H13867  -2.176   6.483   7.353 -0.5045 -0.8855  0.2388
  103MOL0     H13868  -2.283   6.499   7.221  2.2014  2.0850 -0.3488
  103MOL0     H13869  -2.390   6.140   6.770  0.1846 -2.4870 -0.9445
  103MOL0     H13870  -2.635   6.099   6.682  0.0354  0.2994  1.3426
  103MOL0     H13871  -2.789   5.932   6.689  2.0027  2.1924  1.7639
  103MOL0     H13872  -2.913   5.864   6.810 -0.8217  1.2206 -0.5215
  103MOL0     H13873  -2.983   6.105   6.668  1.6545  0.2735  0.8167
  103MOL0     H13874  -2.992   5.950   6.583 -0.8488 -0.3088  0.1074
  103MOL0     H13875  -3.115   6.038   6.853  0.4981 -1.4045  1.2908
  103MOL0     H13876  -3.135   5.875   6.805  0.0413 -0.1705 -1.4092
  103MOL0     H13877  -3.231   6.127   6.647  4.7112 -0.4863  0.9371
  103MOL0     H13878  -3.260   5.953   6.607 -0.3821 -1.0385 -0.2925
  103MOL0     H13879  -3.333   6.077   6.883 -0.8478 -1.2498  1.4260
  103MOL0     H13880  -3.423   5.945   6.801  0.2747 -0.3914 -1.2523
  103MOL0     H13881  -3.438   6.234   6.734 -0.7165  0.5483 -0.1202
  103MOL0     H13882  -3.523   6.092   6.645  0.3976 -1.1746  0.8993
  103MOL0     H13883  -3.686   6.189   6.785 -0.1105 -2.6798 -0.5927
  103MOL0     H13884  -3.569   6.212   6.916  0.3341  0.8483 -1.6966
  103MOL0     H13885  -3.707   6.044   6.988  0.1985  0.1768  0.1369
  103MOL0     H13886  -3.572   5.954   6.947 -4.1349 -2.1893  2.7249
  103MOL0     H13887  -2.788   6.107   7.074 -2.1161 -1.1742 -2.1528
  103MOL0     H13888  -2.540   6.145   7.168  0.3860  0.9621 -0.3402
  103MOL0     H13889  -2.073   6.150   6.928  0.3876  0.1720  0.2531
  103MOL0     H13890  -1.829   6.164   7.005 -1.3647 -0.7516 -2.5092
  103MOL0     H13891  -0.292   5.346   6.892 -2.1959 -0.0879  0.0654
  103MOL0     H13892  -0.066   5.369   6.931  0.7908  1.6819 -0.5438
  103MOL0     H13893   0.226   5.342   7.250  1.5883 -0.2587 -0.9547
  103MOL0     H13894   0.466   5.295   7.310  0.6017  0.8855  0.6826
  103MOL0     H13895   0.654   5.332   7.455 -2.9072  2.3692 -0.7334
  103MOL0     H13896   0.691   5.296   7.283  1.2500 -1.2556  0.6183
  103MOL0     H13897   0.879   5.297   7.469 -1.7186 -0.1271 -0.8752
  103MOL0     H13898   0.858   5.467   7.456 -0.3894 -1.6574  3.1460
  103MOL0     H13899   0.879   5.469   7.199 -0.1264  1.3056 -0.3164
  103MOL0     H13900   0.924   5.294   7.219 -0.8214 -0.1950  1.3621
  103MOL0     H13901   1.111   5.392   7.365 -3.6280 -3.9729 -0.6728
  103MOL0     H13902   1.068   5.558   7.303  3.4477  0.4853  0.1289
  103MOL0     H13903   1.273   5.354   6.998  1.0587  0.2963  0.4149
  103MOL0     H13904   0.551   5.719   7.231 -2.4063  2.2897  2.1012
  103MOL0     H13905   0.337   5.749   7.153  1.7132  0.7441  2.8889
  104MOL0     O13906   1.862   0.896   8.643  0.1473  0.2087  0.7134
  104MOL0     C13907   1.802   0.947   8.736  0.5653 -0.1055 -0.2350
  104MOL0     O13908   1.667   0.925   8.768 -1.2401 -0.3091  0.0329
  104MOL0     C13909   1.600   0.830   8.697  0.8631 -0.1691 -0.7123
  104MOL0     C13910   1.579   0.840   8.554 -0.7301  0.2039  0.9502
  104MOL0     C13911   1.480   0.761   8.484 -1.4808 -0.3531 -0.1935
  104MOL0     C13912   1.392   0.683   8.562  0.2429  0.5004 -0.4276
  104MOL0     O13913   1.283   0.630   8.503 -0.2533 -0.4265 -0.1430
  104MOL0     C13914   1.245   0.500   8.540  0.2078  0.4573 -0.8204
  104MOL0     C13915   1.151   0.447   8.428 -0.0967 -0.6589  0.3121
  104MOL0     C13916   1.005   0.497   8.447 -0.0352 -0.0951  0.5201
  104MOL0     C13917   0.900   0.509   8.325 -0.0023  0.5854  0.9983
  104MOL0     C13918   0.753   0.500   8.386 -0.5576  0.1234 -0.7372
  104MOL0     C13919   0.645   0.550   8.278 -0.6593 -0.0295 -0.8461
  104MOL0     C13920   0.510   0.562   8.349 -0.1956 -0.2425 -0.5267
  104MOL0     C13921   0.491   0.696   8.424 -0.2068  0.5105 -0.1285
  104MOL0     N13922   0.351   0.692   8.480 -0.6582 -0.2618 -0.1815
  104MOL0     C13923   0.236   0.642   8.420 -0.6933 -0.0683  0.7211
  104MOL0     C13924   0.135   0.672   8.510 -0.4512  0.2105 -1.0863
  104MOL0     C13925  -0.007   0.633   8.497  1.4712 -0.0562  0.1253
  104MOL0     C13926  -0.101   0.730   8.566 -0.2421  1.0838  0.2622
  104MOL0     C13927  -0.239   0.693   8.521  0.8372  0.2825 -0.0083
  104MOL0     C13928  -0.341   0.796   8.581  0.0809 -0.6212  1.0728
  104MOL0     O13929  -0.311   0.929   8.525  0.6245  0.3946 -0.3777
  104MOL0     C13930  -0.404   1.025   8.524  1.3886  0.4653  0.6878
  104MOL0     C13931  -0.366   1.152   8.484 -0.9684  0.0698  0.1524
  104MOL0     C13932  -0.445   1.269   8.497  0.5338  0.1961 -0.2379
  104MOL0     C13933  -0.390   1.401   8.439  0.0701  0.0160 -0.3464
  104MOL0     C13934  -0.576   1.250   8.555 -0.1870 -0.4541  0.1727
  104MOL0     C13935  -0.671   1.365   8.587  0.1296  0.3992 -0.1365
  104MOL0     O13936  -0.803   1.329   8.624  0.1257  0.2242 -0.3425
  104MOL0     C13937  -0.893   1.427   8.604  0.1404  0.1073  1.2105
  104MOL0     C13938  -0.936   1.508   8.706 -1.1053 -0.1149 -0.5242
  104MOL0     C13939  -1.003   1.633   8.683  0.1587  0.2526 -0.2088
  104MOL0     C13940  -1.040   1.663   8.547 -0.7596 -0.4241  0.3317
  104MOL0     O13941  -1.110   1.780   8.533  0.3787  0.4971 -0.8400
  104MOL0     C13942  -1.246   1.750   8.515 -0.2882  0.2583 -0.1595
  104MOL0     C13943  -1.349   1.861   8.552  0.3763  0.1081 -0.4201
  104MOL0     C13944  -1.461   1.878   8.445  0.0076 -1.1058  0.1800
  104MOL0     C13945  -1.591   1.933   8.505  0.0617 -0.2749  0.1811
  104MOL0     C13946  -1.700   1.948   8.394 -0.1510 -0.7344 -0.0715
  104MOL0     C13947  -1.833   2.005   8.440 -0.1523  0.0090 -0.3829
  104MOL0     C13948  -1.930   1.995   8.327  0.2202  0.2749  0.1921
  104MOL0     C13949  -2.041   2.090   8.353 -0.3812 -0.5810 -0.1443
  104MOL0    Cl13950  -2.141   2.041   8.496  0.0642  0.7669  0.0454
  104MOL0     C13951  -0.999   1.579   8.446  0.3549  0.4278 -0.0844
  104MOL0     C13952  -0.926   1.461   8.472  0.1620  0.3822  0.2640
  104MOL0     O13953  -0.628   1.478   8.593 -0.0350  0.9179  0.3652
  104MOL0     C13954  -0.625   1.118   8.578  0.1435 -0.6276 -0.0356
  104MOL0     C13955  -0.537   1.011   8.573  0.5043 -0.0364 -0.0632
  104MOL0     N13956   0.197   0.719   8.626 -0.4578  0.1426  0.1811
  104MOL0     N13957   0.322   0.734   8.604  0.0017  0.0912  0.5411
  104MOL0     C13958   1.402   0.690   8.701  0.4600  0.8954 -0.2957
  104MOL0     C13959   1.505   0.752   8.767  0.6309  0.8044  0.5671
  104MOL0     C13960   1.876   1.042   8.817 -0.1927 -0.1135 -0.4776
  104MOL0     C13961   1.814   1.103   8.927 -0.3122  0.5794 -0.1483
  104MOL0     C13962   1.888   1.202   9.011  0.7374  0.5167 -0.4500
  104MOL0     C13963   2.021   1.230   8.973  0.3411  0.1963  0.7051
  104MOL0     O13964   2.100   1.318   9.041 -0.3047 -0.3547 -0.6359
  104MOL0     C13965   2.044   1.444   9.069  0.3596 -0.7353  0.1724
  104MOL0     C13966   2.047   1.524   8.939  0.2104  0.8686 -0.0875
  104MOL0     C13967   2.194   1.509   8.873  0.0197 -0.2569 -0.6089
  104MOL0     C13968   2.221   1.647   8.808  0.1846 -0.0891  0.6987
  104MOL0     C13969   2.361   1.632   8.763  0.4445  1.1776  0.3409
  104MOL0     C13970   2.470   1.606   8.729  0.2162 -0.2344  0.6051
  104MOL0     C13971   2.080   1.154   8.871  0.3979 -0.6427 -0.5875
  104MOL0     C13972   2.012   1.057   8.792 -0.2487 -0.3750  0.2854
  104MOL0     H13973   1.640   0.911   8.499 -0.3139 -0.8087  0.0728
  104MOL0     H13974   1.470   0.764   8.376 -2.8564  3.3873 -0.0983
  104MOL0     H13975   1.332   0.433   8.542 -1.4638 -1.8263  1.5161
  104MOL0     H13976   1.193   0.496   8.636 -1.3389 -0.8616 -1.6483
  104MOL0     H13977   1.180   0.475   8.326  0.9500 -0.7135  0.5784
  104MOL0     H13978   1.153   0.338   8.434 -0.4919 -0.7365 -0.8298
  104MOL0     H13979   0.957   0.445   8.530  1.8966 -0.1522  1.6444
  104MOL0     H13980   1.016   0.601   8.476  2.2455  0.8927 -3.1964
  104MOL0     H13981   0.918   0.610   8.288  0.3811  0.5723  1.1405
  104MOL0     H13982   0.929   0.438   8.248  0.9408  2.1544 -0.1431
  104MOL0     H13983   0.739   0.395   8.416  2.0138  0.4783  2.2256
  104MOL0     H13984   0.747   0.555   8.480  0.6673 -0.2166 -0.4462
  104MOL0     H13985   0.674   0.645   8.232 -0.2077  0.4011  0.3007
  104MOL0     H13986   0.634   0.466   8.208  0.0883 -0.8166 -0.0464
  104MOL0     H13987   0.433   0.560   8.270 -1.2524  1.8522  0.3723
  104MOL0     H13988   0.490   0.480   8.418  0.2169  0.4634  0.4449
  104MOL0     H13989   0.493   0.768   8.341  0.8110 -1.6440 -2.0843
  104MOL0     H13990   0.564   0.715   8.503  0.5619  1.7168 -1.0999
  104MOL0     H13991   0.226   0.590   8.325  1.4496  1.8223 -0.6358
  104MOL0     H13992  -0.039   0.624   8.392 -2.2721 -1.0252  1.2040
  104MOL0     H13993  -0.006   0.534   8.543  0.6981  0.1736  0.6625
  104MOL0     H13994  -0.078   0.832   8.534  2.5044  0.5651  0.3587
  104MOL0     H13995  -0.085   0.720   8.674  2.0288 -0.7048 -0.1653
  104MOL0     H13996  -0.255   0.592   8.559  0.1017  0.7804  1.0750
  104MOL0     H13997  -0.235   0.682   8.413  4.0025  0.4306 -0.0011
  104MOL0     H13998  -0.347   0.805   8.690 -0.5156  0.0127  0.9934
  104MOL0     H13999  -0.432   0.759   8.535  0.3499  1.3054 -1.2178
  104MOL0     H14000  -0.262   1.171   8.458  0.1421 -0.8486  3.4375
  104MOL0     H14001  -0.315   1.368   8.367  1.3880 -2.6264  2.0310
  104MOL0     H14002  -0.456   1.471   8.387  2.8228  2.0239 -1.3385
  104MOL0     H14003  -0.342   1.462   8.516 -2.9957  1.2536  0.7709
  104MOL0     H14004  -0.904   1.483   8.807 -3.4113  0.4092  0.4072
  104MOL0     H14005  -1.028   1.707   8.758  2.0184  0.6554  0.0614
  104MOL0     H14006  -1.246   1.727   8.408  0.3508  1.2344 -0.3820
  104MOL0     H14007  -1.273   1.653   8.557  0.1762 -0.4430 -1.4230
  104MOL0     H14008  -1.396   1.831   8.646 -1.1726 -1.5608 -1.6702
  104MOL0     H14009  -1.297   1.957   8.564  0.4337  0.3244 -2.1064
  104MOL0     H14010  -1.489   1.783   8.398 -1.5844 -0.6657  0.2040
  104MOL0     H14011  -1.432   1.953   8.371 -2.2997 -2.3731 -2.1931
  104MOL0     H14012  -1.617   1.862   8.585  2.0922  0.4954  1.6042
  104MOL0     H14013  -1.573   2.034   8.544  1.5128  0.0652 -1.2682
  104MOL0     H14014  -1.721   1.856   8.339  0.9793 -0.0456 -1.7619
  104MOL0     H14015  -1.666   2.031   8.330 -1.5444  0.5187  0.7502
  104MOL0     H14016  -1.863   1.948   8.529  0.4142 -0.2566 -0.3607
  104MOL0     H14017  -1.816   2.112   8.458  0.8404  0.5082 -3.6391
  104MOL0     H14018  -1.975   1.895   8.328  0.2374  0.2245 -1.4891
  104MOL0     H14019  -1.882   2.022   8.232 -2.6477 -0.2913 -1.5241
  104MOL0     H14020  -2.096   2.089   8.258  1.1789 -1.2449 -1.0736
  104MOL0     H14021  -2.006   2.194   8.359  1.6038 -1.1733 -0.7336
  104MOL0     H14022  -1.010   1.601   8.340 -0.8037 -2.2104 -0.5873
  104MOL0     H14023  -0.893   1.417   8.378  1.3141  0.5941  0.5507
  104MOL0     H14024  -0.727   1.095   8.608 -1.6410  3.5016 -2.0428
  104MOL0     H14025  -0.588   0.917   8.590  1.8263 -0.8506 -0.4828
  104MOL0     H14026   1.327   0.635   8.757  0.9843 -0.9001 -1.2652
  104MOL0     H14027   1.499   0.760   8.875  2.4920 -1.9253  0.9751
  104MOL0     H14028   1.720   1.069   8.971  0.9256 -0.8608  1.4907
  104MOL0     H14029   1.848   1.234   9.106 -0.7717  0.1787 -0.9449
  104MOL0     H14030   1.946   1.432   9.115  0.9443 -0.7596  1.4570
  104MOL0     H14031   2.113   1.490   9.141 -1.7651 -0.0873  1.9069
  104MOL0     H14032   2.035   1.628   8.971  0.0786  0.8111  0.0503
  104MOL0     H14033   1.963   1.503   8.873 -0.0500 -0.5681  0.6694
  104MOL0     H14034   2.204   1.427   8.801 -1.0937 -0.8876 -0.0819
  104MOL0     H14035   2.263   1.491   8.956 -2.5550  0.7601  1.8930
  104MOL0     H14036   2.207   1.725   8.883  2.0108 -1.1379  2.2251
  104MOL0     H14037   2.146   1.662   8.730  0.2998  1.0423  0.8006
  104MOL0     H14038   2.569   1.588   8.691 -0.1338  2.5374 -1.9534
  104MOL0     H14039   2.188   1.154   8.859  0.5892  0.8893  0.7068
  104MOL0     H14040   2.063   0.994   8.720 -0.6717  3.2817 -3.5996
  105MOL0     O14041   3.682   2.946   8.655  0.1032  0.8439  0.9096
  105MOL0     C14042   3.756   2.969   8.750  0.6761 -0.2785 -0.1933
  105MOL0     O14043   3.715   2.975   8.879 -0.1574 -0.1227  0.4619
  105MOL0     C14044   3.589   2.972   8.911  0.3763 -0.5490  0.6061
  105MOL0     C14045   3.511   2.851   8.916  0.5012 -0.3669  0.4914
  105MOL0     C14046   3.373   2.850   8.935  0.2130 -0.3717  0.6396
  105MOL0     C14047   3.304   2.972   8.958 -0.4865 -1.1714 -0.1511
  105MOL0     O14048   3.168   2.986   8.956 -0.8048 -0.8669 -0.1660
  105MOL0     C14049   3.080   2.877   8.965 -1.1257 -0.6240 -0.0794
  105MOL0     C14050   2.936   2.924   9.006 -1.1125  0.3453 -0.0721
  105MOL0     C14051   2.836   2.810   8.983  0.3845  0.1025  0.6218
  105MOL0     C14052   2.686   2.844   9.012 -0.3049 -0.4126 -0.2472
  105MOL0     C14053   2.595   2.732   9.034 -0.1372 -0.3476 -0.1466
  105MOL0     C14054   2.455   2.778   9.093  0.0413 -0.0701  0.2435
  105MOL0     C14055   2.377   2.668   9.173 -0.2352 -0.1550 -0.1389
  105MOL0     C14056   2.245   2.715   9.242  0.4033  0.4831  0.5994
  105MOL0     N14057   2.199   2.627   9.349 -0.0541  0.1953 -0.2825
  105MOL0     C14058   2.272   2.591   9.463  0.0150 -0.5447 -0.0119
  105MOL0     C14059   2.207   2.486   9.515 -0.4196 -0.5779  0.2095
  105MOL0     C14060   2.267   2.411   9.623 -0.5205  0.6005  0.1984
  105MOL0     C14061   2.166   2.327   9.699  0.7982  0.5790  0.3147
  105MOL0     C14062   2.076   2.407   9.801 -1.1094  0.4715  0.2988
  105MOL0     C14063   1.997   2.313   9.901  0.2005 -0.4494 -0.3201
  105MOL0     O14064   1.911   2.397   9.985  0.1883  0.3852  0.3075
  105MOL0     C14065   1.783   2.441   9.943  0.6966 -0.6467 -0.4511
  105MOL0     C14066   1.687   2.478  10.031 -0.5825  0.3618  1.0596
  105MOL0     C14067   1.556   2.515  10.001 -0.1795  0.8444  0.5838
  105MOL0     C14068   1.472   2.565  10.115  0.1514 -0.4536  0.0345
  105MOL0     C14069   1.511   2.523   9.872 -0.1779  0.3350  0.0822
  105MOL0     C14070   1.384   2.577   9.828  0.1994 -0.1832  0.5711
  105MOL0     O14071   1.369   2.610   9.690 -0.0898  0.3754  0.2104
  105MOL0     C14072   1.241   2.608   9.650 -0.3120  0.4923 -0.3766
  105MOL0     C14073   1.164   2.493   9.606 -0.1568 -0.3859 -0.2996
  105MOL0     C14074   1.032   2.509   9.567  0.2159 -0.0742  0.3490
  105MOL0     C14075   0.969   2.630   9.571 -0.7458 -0.2052 -0.1729
  105MOL0     O14076   0.840   2.650   9.534 -0.5120 -0.1447 -0.0605
  105MOL0     C14077   0.786   2.576   9.429 -0.3253 -0.2356  0.8246
  105MOL0     C14078   0.671   2.667   9.383  0.4329  0.3251 -1.0266
  105MOL0     C14079   0.555   2.628   9.470  0.2583  0.4959 -0.0137
  105MOL0     C14080   0.427   2.646   9.385  0.1238 -0.3845 -0.6288
  105MOL0     C14081   0.306   2.571   9.457  0.6558 -0.2972 -0.3094
  105MOL0     C14082   0.286   2.627   9.598 -0.4045  0.0438  0.0023
  105MOL0     C14083   0.238   2.778   9.605 -0.3874 -0.1860 -0.1505
  105MOL0     C14084   0.195   2.807   9.745  0.5285 -0.9055 -0.3432
  105MOL0    Cl14085   0.323   2.786   9.857 -0.3378 -0.1485 -0.1689
  105MOL0     C14086   1.043   2.739   9.606 -0.4574  0.6007 -0.0562
  105MOL0     C14087   1.171   2.735   9.652 -1.4251  0.2290  0.6330
  105MOL0     O14088   1.291   2.567   9.912 -0.4474  0.3750 -0.0738
  105MOL0     C14089   1.612   2.486   9.781 -0.5416  0.0139 -0.0458
  105MOL0     C14090   1.747   2.449   9.815 -0.3100  0.5000  0.7786
  105MOL0     N14091   2.104   2.450   9.428  0.2591 -0.7613  0.1894
  105MOL0     N14092   2.105   2.536   9.334  0.6115  0.6369 -1.0426
  105MOL0     C14093   3.377   3.090   8.948  0.1867 -0.4937 -0.1436
  105MOL0     C14094   3.515   3.089   8.930 -0.0926  0.4793 -0.2885
  105MOL0     C14095   3.901   2.966   8.727 -0.7326  0.1591  0.1406
  105MOL0     C14096   3.984   3.026   8.818  0.0294  0.1458 -0.2211
  105MOL0     C14097   4.125   3.018   8.807 -0.0432 -0.1979 -0.5271
  105MOL0     C14098   4.191   2.966   8.702 -0.3188 -1.2419 -0.2384
  105MOL0     O14099   4.322   2.974   8.675  0.8734  0.9625  0.5833
  105MOL0     C14100   4.393   3.075   8.743  0.1992  1.3025  0.0041
  105MOL0     C14101   4.541   3.044   8.721  0.4023  0.6812 -0.2720
  105MOL0     C14102   4.635   3.150   8.773 -0.3786 -0.7297 -1.0660
  105MOL0     C14103   4.780   3.135   8.736  0.1399 -0.2867 -0.2673
  105MOL0     C14104   4.826   3.011   8.799 -0.9513 -0.1397  0.4638
  105MOL0     C14105   4.835   2.897   8.838 -0.3756 -0.0295  0.6096
  105MOL0     C14106   4.110   2.917   8.600 -0.0392 -0.3719  0.3756
  105MOL0     C14107   3.968   2.908   8.614 -0.3884  0.0422  0.1879
  105MOL0     H14108   3.553   2.752   8.904  0.8398 -0.0215 -1.4682
  105MOL0     H14109   3.321   2.755   8.944  0.6557 -0.7084 -0.2643
  105MOL0     H14110   3.077   2.822   8.870  2.2341  0.8424 -1.2107
  105MOL0     H14111   3.119   2.816   9.046  2.0480  1.4295  0.1438
  105MOL0     H14112   2.938   2.955   9.111 -0.7916  2.9381 -0.7607
  105MOL0     H14113   2.910   3.013   8.948  0.5396  0.3074 -0.9446
  105MOL0     H14114   2.832   2.786   8.877 -2.1749  0.5825  0.5241
  105MOL0     H14115   2.861   2.730   9.053 -0.8416 -0.3664  0.5541
  105MOL0     H14116   2.686   2.903   9.103 -3.6333 -0.7861  0.1198
  105MOL0     H14117   2.639   2.907   8.935 -0.7428 -2.6699 -1.9527
  105MOL0     H14118   2.587   2.677   8.939 -0.0589 -1.9882  0.7705
  105MOL0     H14119   2.642   2.660   9.102  0.1695  0.1418  0.1602
  105MOL0     H14120   2.461   2.861   9.165 -3.0273  1.9729 -1.6409
  105MOL0     H14121   2.396   2.808   9.007 -1.4786 -1.3058  0.8159
  105MOL0     H14122   2.361   2.574   9.119  0.1876 -1.3964  1.7626
  105MOL0     H14123   2.444   2.643   9.256 -0.7859  0.4444  0.5031
  105MOL0     H14124   2.169   2.717   9.164  1.1462  4.4077 -0.1923
  105MOL0     H14125   2.253   2.816   9.282 -1.5663  1.0028 -0.1744
  105MOL0     H14126   2.367   2.625   9.504 -0.3161  0.6984 -0.2626
  105MOL0     H14127   2.328   2.335   9.572 -0.0828 -0.0962  1.6751
  105MOL0     H14128   2.334   2.467   9.689  1.7064  1.7380 -2.7879
  105MOL0     H14129   2.228   2.263   9.762  2.6874  2.0037  0.0135
  105MOL0     H14130   2.108   2.274   9.623  1.0745  0.8359 -0.0838
  105MOL0     H14131   2.011   2.476   9.747 -1.8600 -0.4558 -0.0202
  105MOL0     H14132   2.152   2.459   9.860 -0.0238  1.3544 -1.7754
  105MOL0     H14133   2.080   2.271   9.959 -1.2871 -1.2297  1.3379
  105MOL0     H14134   1.935   2.235   9.857  1.3588 -1.5767 -0.0277
  105MOL0     H14135   1.709   2.477  10.137 -1.6914 -0.6749  1.3044
  105MOL0     H14136   1.431   2.666  10.104 -1.1997 -0.9044  0.6973
  105MOL0     H14137   1.387   2.501  10.138  0.5481  0.0441  3.4002
  105MOL0     H14138   1.526   2.560  10.210  0.2501  1.7748  0.1672
  105MOL0     H14139   1.215   2.397   9.596  0.7305 -0.3255  2.7061
  105MOL0     H14140   0.971   2.431   9.524 -4.4156  1.4699  3.2852
  105MOL0     H14141   0.858   2.586   9.347 -0.4356 -0.4196  0.7031
  105MOL0     H14142   0.765   2.472   9.455  1.1721 -0.3451  1.6525
  105MOL0     H14143   0.690   2.775   9.387 -3.3681  1.1009  1.7809
  105MOL0     H14144   0.657   2.646   9.277  0.5650  0.2069 -1.0209
  105MOL0     H14145   0.547   2.704   9.548 -0.4503 -0.0934  0.4908
  105MOL0     H14146   0.564   2.526   9.508  1.8692 -0.4192 -2.5540
  105MOL0     H14147   0.416   2.751   9.358  2.8712  0.4322  1.1146
  105MOL0     H14148   0.432   2.589   9.292  0.9297  0.7814 -1.3140
  105MOL0     H14149   0.309   2.462   9.447 -0.8589 -0.3679 -0.1449
  105MOL0     H14150   0.219   2.611   9.405 -0.1704 -0.9291  0.5409
  105MOL0     H14151   0.216   2.559   9.648  0.2502 -1.3689 -0.9377
  105MOL0     H14152   0.379   2.603   9.650  0.3457 -2.7340 -2.3414
  105MOL0     H14153   0.158   2.802   9.534  0.0540  0.3796 -0.4657
  105MOL0     H14154   0.327   2.836   9.577 -0.5364 -0.1538 -0.5633
  105MOL0     H14155   0.112   2.743   9.775  0.3494 -1.0743 -1.1849
  105MOL0     H14156   0.169   2.913   9.746 -0.0988 -1.0576  0.0551
  105MOL0     H14157   0.988   2.832   9.600  1.4068  1.9018  1.6605
  105MOL0     H14158   1.214   2.833   9.672 -2.0798  0.7594 -0.4722
  105MOL0     H14159   1.587   2.488   9.675 -1.4244 -0.7032  0.1448
  105MOL0     H14160   1.822   2.431   9.739 -1.2693  1.1433 -0.3624
  105MOL0     H14161   3.324   3.184   8.956 -1.3422 -1.4376  1.5382
  105MOL0     H14162   3.562   3.187   8.924 -0.8879  0.8860 -0.1067
  105MOL0     H14163   3.948   3.082   8.904 -2.0688 -2.2781  0.5963
  105MOL0     H14164   4.186   3.061   8.885 -0.1650 -1.2835  0.1871
  105MOL0     H14165   4.366   3.171   8.698 -0.1780  0.4852 -1.6132
  105MOL0     H14166   4.377   3.083   8.851  0.4613  1.3295  0.0419
  105MOL0     H14167   4.562   3.028   8.615 -2.5007 -3.1939 -0.5091
  105MOL0     H14168   4.568   2.943   8.753  0.9659 -0.1300 -3.0718
  105MOL0     H14169   4.631   3.156   8.882  2.9546  3.4117 -0.9056
  105MOL0     H14170   4.601   3.251   8.747 -0.1820 -0.5026 -0.4684
  105MOL0     H14171   4.833   3.224   8.770 -3.3604  2.2948 -0.9777
  105MOL0     H14172   4.796   3.118   8.629  1.6230 -2.0077  0.1799
  105MOL0     H14173   4.846   2.796   8.872 -3.3370 -0.8255 -0.4635
  105MOL0     H14174   4.159   2.869   8.515 -0.9898 -0.0468 -0.3666
  105MOL0     H14175   3.914   2.861   8.532 -1.1261 -0.2312  0.8153
  106MOL0     O14176   1.554   6.396   0.780  0.1778 -0.7945 -0.0629
  106MOL0     C14177   1.595   6.511   0.771  0.4450  0.7982  0.6863
  106MOL0     O14178   1.545   6.601   0.684  0.1328 -0.1999 -0.1019
  106MOL0     C14179   1.437   6.574   0.604  0.2552 -0.9127 -0.0635
  106MOL0     C14180   1.308   6.582   0.659  0.4115  0.7612 -0.4840
  106MOL0     C14181   1.200   6.577   0.579  0.4967 -0.3483  0.9270
  106MOL0     C14182   1.208   6.560   0.438  0.2134 -0.5771 -0.0854
  106MOL0     O14183   1.093   6.570   0.362 -0.9111  0.2001  0.3723
  106MOL0     C14184   1.110   6.582   0.215 -0.6691  0.5151 -0.4050
  106MOL0     C14185   0.975   6.547   0.148 -1.1515  0.2035 -0.1108
  106MOL0     C14186   0.976   6.561  -0.003 -0.8576 -0.9670 -0.3804
  106MOL0     C14187   0.992   6.702  -0.063  0.0468 -0.6701  0.1390
  106MOL0     C14188   0.943   6.707  -0.210 -0.6599 -0.2319  0.4537
  106MOL0     C14189   0.948   6.846  -0.279  0.0162  0.0788  0.0944
  106MOL0     C14190   0.871   6.832  -0.417  0.5475 -0.3709  0.0349
  106MOL0     C14191   0.904   6.960  -0.491  0.1611 -0.2105  0.3678
  106MOL0     N14192   0.871   6.962  -0.636  0.2905 -0.4085 -0.8235
  106MOL0     C14193   0.739   6.941  -0.675  0.4711 -0.3272  0.1989
  106MOL0     C14194   0.759   6.911  -0.808 -0.5374 -0.2190  0.0213
  106MOL0     C14195   0.653   6.879  -0.906 -0.7334  0.2266 -0.8029
  106MOL0     C14196   0.513   6.889  -0.853  0.6985 -0.3635 -0.2540
  106MOL0     C14197   0.416   6.880  -0.972 -0.2265 -1.0966 -0.5156
  106MOL0     C14198   0.401   7.024  -1.052 -0.5127  0.3827  0.4439
  106MOL0     O14199   0.310   7.118  -0.993  0.3365  0.2856 -0.4910
  106MOL0     C14200   0.179   7.126  -1.038  0.3397  0.3940  0.2045
  106MOL0     C14201   0.108   7.036  -1.114  0.6037  0.0355  0.2651
  106MOL0     C14202  -0.027   7.053  -1.143  0.0906 -0.5245  0.0714
  106MOL0     C14203  -0.097   6.936  -1.212  0.3809  0.3204  0.5590
  106MOL0     C14204  -0.095   7.176  -1.107 -0.7925  0.3302 -0.0941
  106MOL0     C14205  -0.237   7.211  -1.136  0.0788 -0.1937 -1.3844
  106MOL0     O14206  -0.325   7.113  -1.182 -0.4539 -0.1564  0.0594
  106MOL0     C14207  -0.452   7.142  -1.219  0.0031 -0.6023 -0.7087
  106MOL0     C14208  -0.541   7.236  -1.156 -0.3012 -0.3676 -0.3659
  106MOL0     C14209  -0.663   7.247  -1.220 -0.3125 -0.7849  0.7400
  106MOL0     C14210  -0.707   7.169  -1.328  0.0273  0.1446  0.3429
  106MOL0     O14211  -0.832   7.168  -1.384 -0.2835  0.3201  1.0078
  106MOL0     C14212  -0.918   7.276  -1.344  0.0257 -0.4468 -0.1522
  106MOL0     C14213  -1.031   7.288  -1.431  1.1112 -0.5464 -0.0914
  106MOL0     C14214  -1.121   7.410  -1.398  0.1419 -0.1787  0.0458
  106MOL0     C14215  -1.231   7.409  -1.502 -0.7163  0.2346 -0.5404
  106MOL0     C14216  -1.350   7.493  -1.463  0.9162 -0.1971  0.3800
  106MOL0     C14217  -1.309   7.643  -1.471 -0.5076  0.1180 -0.1245
  106MOL0     C14218  -1.419   7.732  -1.440  0.2963  0.5089  0.2410
  106MOL0     C14219  -1.361   7.873  -1.434 -0.5684  0.1331  0.0099
  106MOL0    Cl14220  -1.246   7.909  -1.315  0.0051  0.0244 -0.6312
  106MOL0     C14221  -0.616   7.076  -1.378  0.0851 -0.5062 -0.5221
  106MOL0     C14222  -0.488   7.069  -1.325 -0.1392 -0.5318 -0.3468
  106MOL0     O14223  -0.267   7.331  -1.122  0.0578  0.0528  0.2600
  106MOL0     C14224  -0.017   7.271  -1.033 -0.0749 -0.7185 -0.1394
  106MOL0     C14225   0.111   7.241  -1.002 -0.3669 -0.3379  0.3258
  106MOL0     N14226   0.892   6.922  -0.842  0.2589  0.7114  0.3177
  106MOL0     N14227   0.959   6.945  -0.738  0.0589  0.2601 -0.0067
  106MOL0     C14228   1.342   6.544   0.388  0.1524  0.0527  0.1139
  106MOL0     C14229   1.454   6.564   0.468 -0.8830  0.1972 -0.2440
  106MOL0     C14230   1.719   6.542   0.839  0.3230  0.6684 -0.0261
  106MOL0     C14231   1.788   6.657   0.798 -0.0345  0.1523  1.1720
  106MOL0     C14232   1.910   6.691   0.863 -0.4230 -0.2816  0.1604
  106MOL0     C14233   1.979   6.609   0.951  1.2748  0.3987  0.4341
  106MOL0     O14234   2.107   6.641   0.998 -0.4328  0.3580  1.0597
  106MOL0     C14235   2.189   6.526   1.010 -0.1713 -0.4923  0.0215
  106MOL0     C14236   2.339   6.553   1.031 -0.2605 -0.1879  0.5475
  106MOL0     C14237   2.418   6.424   1.048 -0.4727  0.0762  0.5089
  106MOL0     C14238   2.560   6.459   1.090  0.1305 -0.9173 -0.0100
  106MOL0     C14239   2.637   6.541   1.007  0.1078 -0.1393  0.7441
  106MOL0     C14240   2.676   6.620   0.919  0.4445 -0.0270  0.3368
  106MOL0     C14241   1.904   6.504   0.993  1.5790  0.1287 -0.7889
  106MOL0     C14242   1.774   6.465   0.944 -0.2815 -0.0017  0.1407
  106MOL0     H14243   1.302   6.579   0.767 -3.0195 -3.7919 -0.4877
  106MOL0     H14244   1.098   6.570   0.615  0.7108 -0.4363  1.5470
  106MOL0     H14245   1.144   6.681   0.187 -0.8689  0.7056  0.0083
  106MOL0     H14246   1.178   6.499   0.193 -1.9594 -1.0289  1.0357
  106MOL0     H14247   0.945   6.447   0.179  0.6656 -0.3654 -0.0919
  106MOL0     H14248   0.892   6.609   0.184 -1.3483 -0.4345  0.5549
  106MOL0     H14249   1.057   6.492  -0.028  1.4553  1.1559  0.8019
  106MOL0     H14250   0.888   6.514  -0.047 -0.9060 -1.4884  0.2627
  106MOL0     H14251   0.927   6.769  -0.007 -0.0551  0.9828 -1.8128
  106MOL0     H14252   1.100   6.718  -0.047 -0.1932  2.0292 -0.4179
  106MOL0     H14253   0.989   6.639  -0.283 -0.4445  1.7642 -1.3582
  106MOL0     H14254   0.838   6.677  -0.212 -1.0764  1.1181 -2.0462
  106MOL0     H14255   0.899   6.915  -0.210  1.0530  1.7992 -0.7999
  106MOL0     H14256   1.050   6.885  -0.293  0.6072 -0.8960  1.4173
  106MOL0     H14257   0.907   6.744  -0.470 -3.3758 -1.6941 -0.7321
  106MOL0     H14258   0.762   6.820  -0.415  0.2231  1.9051 -0.1935
  106MOL0     H14259   1.004   7.000  -0.471  0.6559 -0.4185 -1.5554
  106MOL0     H14260   0.829   7.028  -0.450 -0.2591  0.2903 -1.1811
  106MOL0     H14261   0.646   6.929  -0.620  0.8795 -2.6107  0.4884
  106MOL0     H14262   0.659   6.948  -0.992 -1.4381  0.0199 -1.0238
  106MOL0     H14263   0.671   6.779  -0.945 -1.3450 -0.5132  0.7521
  106MOL0     H14264   0.503   6.986  -0.803 -0.0885 -1.3309  1.5447
  106MOL0     H14265   0.485   6.806  -0.788  0.7346  2.6390  4.0220
  106MOL0     H14266   0.321   6.839  -0.939 -0.4653  0.1709  0.4652
  106MOL0     H14267   0.454   6.814  -1.050 -0.5793 -3.3635  1.1283
  106MOL0     H14268   0.369   6.996  -1.153  1.4134 -1.0251  0.1714
  106MOL0     H14269   0.499   7.072  -1.054 -0.2978  0.0314  1.7570
  106MOL0     H14270   0.150   6.940  -1.144 -0.8951 -0.6130  0.1000
  106MOL0     H14271  -0.189   6.970  -1.261 -0.0426  0.5607  1.5032
  106MOL0     H14272  -0.033   6.891  -1.288  0.9509  2.5900 -0.4082
  106MOL0     H14273  -0.130   6.861  -1.140 -0.6718  0.6159  0.4134
  106MOL0     H14274  -0.518   7.303  -1.074 -0.2402 -2.4729  1.4008
  106MOL0     H14275  -0.725   7.323  -1.175  0.3876 -0.1308  0.6118
  106MOL0     H14276  -0.947   7.260  -1.239  0.9558  0.0782  0.1906
  106MOL0     H14277  -0.876   7.375  -1.358 -0.7211 -0.0223  0.5061
  106MOL0     H14278  -0.993   7.301  -1.533  1.0139  0.2361 -0.0361
  106MOL0     H14279  -1.085   7.194  -1.419 -0.1241 -0.0891 -1.6513
  106MOL0     H14280  -1.061   7.501  -1.405 -2.2648  1.4996  0.0856
  106MOL0     H14281  -1.159   7.403  -1.296  0.0655  3.5762  0.4341
  106MOL0     H14282  -1.196   7.444  -1.599 -1.6880  1.3682 -0.5020
  106MOL0     H14283  -1.252   7.303  -1.519  5.0270 -1.1512 -1.0884
  106MOL0     H14284  -1.378   7.469  -1.360  0.2716  0.4427  0.3617
  106MOL0     H14285  -1.429   7.462  -1.532  2.7445 -1.2984 -1.2866
  106MOL0     H14286  -1.233   7.665  -1.396  0.3005  0.4284 -1.0162
  106MOL0     H14287  -1.267   7.650  -1.572 -1.6512 -0.7636 -0.6930
  106MOL0     H14288  -1.460   7.701  -1.344 -0.0960 -0.9039 -0.3632
  106MOL0     H14289  -1.493   7.722  -1.520  0.3990  0.8121  0.1058
  106MOL0     H14290  -1.442   7.946  -1.423 -0.6978  0.3793 -2.1493
  106MOL0     H14291  -1.327   7.905  -1.533 -2.8497  0.8162 -0.6117
  106MOL0     H14292  -0.631   7.014  -1.466 -1.9102  0.2491 -0.7743
  106MOL0     H14293  -0.419   6.995  -1.364  1.0565  0.0067  0.6398
  106MOL0     H14294  -0.065   7.361  -0.994 -0.0505 -0.9139  0.3392
  106MOL0     H14295   0.159   7.325  -0.952 -4.2800  2.4196 -0.0804
  106MOL0     H14296   1.364   6.532   0.282 -0.6206  0.1099 -0.0635
  106MOL0     H14297   1.552   6.567   0.422 -0.0831  0.2827  1.4078
  106MOL0     H14298   1.748   6.714   0.715 -0.9727 -0.8773  0.8983
  106MOL0     H14299   1.952   6.786   0.830 -1.6235  1.4184  3.1658
  106MOL0     H14300   2.147   6.475   1.096 -1.7627  1.6607  0.6045
  106MOL0     H14301   2.185   6.456   0.926 -2.0545 -2.5129  1.6781
  106MOL0     H14302   2.340   6.617   1.119  1.0773 -0.6901  0.9168
  106MOL0     H14303   2.362   6.601   0.936  1.0321 -0.5041  0.6893
  106MOL0     H14304   2.415   6.366   0.955 -1.1257  1.5433 -0.4181
  106MOL0     H14305   2.360   6.370   1.123 -1.1396  0.4617  0.2760
  106MOL0     H14306   2.606   6.360   1.094  1.0643 -0.4543  2.1320
  106MOL0     H14307   2.547   6.500   1.191 -2.3528 -0.0845 -0.5920
  106MOL0     H14308   2.685   6.683   0.832  0.1403  0.5389  0.7046
  106MOL0     H14309   1.942   6.452   1.080  2.3977  0.3474 -1.0060
  106MOL0     H14310   1.720   6.382   0.987  1.1294  0.5162  3.1332
  107MOL0     O14311   1.083   5.870   8.860 -0.4208 -0.0284  0.4050
  107MOL0     C14312   1.067   5.945   8.954 -0.4629 -0.8534 -0.3290
  107MOL0     O14313   0.948   6.003   8.992  0.0597  0.3320 -0.0370
  107MOL0     C14314   0.830   5.970   8.930 -0.2093  0.3167  0.1951
  107MOL0     C14315   0.763   6.072   8.860 -0.0419  1.2214 -0.9784
  107MOL0     C14316   0.640   6.047   8.803  0.1474  0.8241 -1.1121
  107MOL0     C14317   0.575   5.924   8.808 -0.1237  0.1384 -0.1347
  107MOL0     O14318   0.455   5.904   8.746  0.4126  0.7146 -0.5961
  107MOL0     C14319   0.340   5.911   8.836 -0.0476 -1.1336  0.3386
  107MOL0     C14320   0.215   5.866   8.764  1.1808 -0.3889 -0.3082
  107MOL0     C14321   0.144   5.966   8.676  0.7279  0.3664 -0.3040
  107MOL0     C14322   0.061   5.902   8.567  0.1972  0.8131  0.5655
  107MOL0     C14323  -0.075   5.848   8.621  0.5140 -0.2071 -0.2322
  107MOL0     C14324  -0.166   5.787   8.522  0.9434 -0.1115  0.6263
  107MOL0     C14325  -0.213   5.862   8.392 -0.7357  0.8652 -0.5550
  107MOL0     C14326  -0.311   5.778   8.314  0.3407 -0.0928  0.2824
  107MOL0     N14327  -0.367   5.864   8.202  0.5176  0.0814  0.2486
  107MOL0     C14328  -0.296   5.888   8.092  0.5121 -0.0979 -0.9284
  107MOL0     C14329  -0.339   6.003   8.046  0.2216  0.2602 -0.7216
  107MOL0     C14330  -0.303   6.044   7.910 -0.4988 -1.4136 -1.0654
  107MOL0     C14331  -0.307   6.203   7.905 -0.3746  1.0658 -0.1448
  107MOL0     C14332  -0.442   6.263   7.847 -0.1510  0.3731 -0.3703
  107MOL0     C14333  -0.558   6.240   7.944  0.0927 -0.5722  0.1717
  107MOL0     O14334  -0.660   6.326   7.898 -0.5567  0.1975  0.5059
  107MOL0     C14335  -0.787   6.337   7.953 -0.2231  0.6990 -0.3163
  107MOL0     C14336  -0.880   6.425   7.900  0.2469  0.2252 -0.2992
  107MOL0     C14337  -1.004   6.451   7.963 -0.3352  0.7229 -0.1262
  107MOL0     C14338  -1.084   6.561   7.906 -0.5544 -0.0101  0.4761
  107MOL0     C14339  -1.046   6.373   8.074 -0.0727 -0.9817  0.6647
  107MOL0     C14340  -1.171   6.387   8.152 -0.9010  0.1274  0.0708
  107MOL0     O14341  -1.205   6.517   8.179 -0.5498 -0.2491 -0.7499
  107MOL0     C14342  -1.324   6.561   8.229  0.2761 -0.5653 -0.1158
  107MOL0     C14343  -1.328   6.629   8.350 -0.2893 -0.8645 -0.5599
  107MOL0     C14344  -1.445   6.698   8.392 -0.0624  0.0478  0.1443
  107MOL0     C14345  -1.564   6.688   8.317 -0.5765  0.6327 -0.1613
  107MOL0     O14346  -1.679   6.753   8.354  0.5761  0.1590  0.1054
  107MOL0     C14347  -1.658   6.867   8.433  0.2615 -0.5072  0.7140
  107MOL0     C14348  -1.768   6.974   8.450  0.2456  0.2811  0.4303
  107MOL0     C14349  -1.821   6.970   8.592 -0.8393 -0.0498 -0.4888
  107MOL0     C14350  -1.924   7.084   8.594 -0.2666  0.6503 -0.5985
  107MOL0     C14351  -1.993   7.095   8.730 -0.7140 -0.3386  0.0201
  107MOL0     C14352  -1.898   7.140   8.844  0.1801 -0.3759  0.4770
  107MOL0     C14353  -1.969   7.157   8.977 -0.0590 -0.4448 -1.1220
  107MOL0     C14354  -1.883   7.186   9.098 -0.0883 -0.3984 -0.3548
  107MOL0    Cl14355  -1.987   7.237   9.245 -0.6286  0.3008  0.2550
  107MOL0     C14356  -1.554   6.618   8.200  0.5189  0.5719 -0.5116
  107MOL0     C14357  -1.445   6.552   8.160 -0.0815  0.4539  0.4701
  107MOL0     O14358  -1.245   6.289   8.165  0.5925  0.0220  0.2674
  107MOL0     C14359  -0.952   6.280   8.125  0.6335  0.5665  0.5035
  107MOL0     C14360  -0.824   6.261   8.062  0.7662 -0.3451 -0.5577
  107MOL0     N14361  -0.438   6.055   8.137 -0.1727 -0.5546  0.0792
  107MOL0     N14362  -0.453   5.967   8.234  0.2714 -0.1298  0.2682
  107MOL0     C14363   0.638   5.819   8.864 -0.3213  0.5498  1.1184
  107MOL0     C14364   0.768   5.840   8.925  0.1436  0.1749  0.1360
  107MOL0     C14365   1.190   5.978   9.030  0.3773 -0.1426  0.0239
  107MOL0     C14366   1.320   5.958   8.980  0.9993 -0.2591 -0.3838
  107MOL0     C14367   1.437   5.975   9.046 -0.4300  0.0307  0.2639
  107MOL0     C14368   1.422   6.033   9.169 -0.1329 -1.2874  0.0693
  107MOL0     O14369   1.537   6.056   9.250  0.0368  0.4009 -0.0647
  107MOL0     C14370   1.509   6.096   9.383 -0.0937 -0.4171 -0.3310
  107MOL0     C14371   1.633   6.076   9.472 -0.0290 -0.3184 -0.8715
  107MOL0     C14372   1.754   6.124   9.395  0.2052 -1.1197 -0.9169
  107MOL0     C14373   1.873   6.123   9.481 -0.3705 -0.4769  0.3657
  107MOL0     C14374   1.998   6.142   9.404  0.9637  0.3237  0.2952
  107MOL0     C14375   2.089   6.160   9.322  0.4711 -0.2502 -0.2488
  107MOL0     C14376   1.297   6.089   9.208 -0.9607 -0.4564  0.0191
  107MOL0     C14377   1.180   6.054   9.144  0.1518  0.0723  0.3115
  107MOL0     H14378   0.806   6.171   8.865  0.6064  0.8851  3.3070
  107MOL0     H14379   0.599   6.133   8.751  0.7891  0.8169 -1.6511
  107MOL0     H14380   0.350   5.845   8.923  0.7264 -3.1950 -1.2372
  107MOL0     H14381   0.318   6.013   8.867 -1.9366 -0.3963 -2.9286
  107MOL0     H14382   0.243   5.779   8.704  1.7275  0.5330 -1.4483
  107MOL0     H14383   0.154   5.831   8.847  2.0427  1.1661  1.0411
  107MOL0     H14384   0.085   6.034   8.739 -0.0898  1.3093 -2.0147
  107MOL0     H14385   0.216   6.023   8.618 -1.1586  3.3290  0.0652
  107MOL0     H14386   0.040   5.970   8.484 -0.0545  0.0234 -0.0272
  107MOL0     H14387   0.116   5.818   8.524  1.4069  1.1706  1.3802
  107MOL0     H14388  -0.051   5.777   8.700  1.6122  0.4040  0.0134
  107MOL0     H14389  -0.125   5.939   8.657  0.6879 -0.0054 -0.4943
  107MOL0     H14390  -0.124   5.690   8.494 -2.5446 -1.5302 -0.2740
  107MOL0     H14391  -0.259   5.765   8.576 -0.3743 -0.3831 -1.6220
  107MOL0     H14392  -0.250   5.960   8.424 -0.1752  1.2872 -1.1521
  107MOL0     H14393  -0.120   5.887   8.340  0.7525 -2.6820  0.0985
  107MOL0     H14394  -0.398   5.743   8.370  0.3585 -0.0389  0.3416
  107MOL0     H14395  -0.253   5.695   8.272  0.9139  2.2117 -4.0661
  107MOL0     H14396  -0.217   5.826   8.052 -0.4457 -1.6935 -0.4668
  107MOL0     H14397  -0.202   6.010   7.885  0.7187  1.0946  0.1002
  107MOL0     H14398  -0.383   6.001   7.848 -1.0960 -2.4594  0.3636
  107MOL0     H14399  -0.229   6.224   7.830 -0.7212  0.6094 -0.6334
  107MOL0     H14400  -0.266   6.246   7.997  1.6160  1.5098 -1.1565
  107MOL0     H14401  -0.462   6.214   7.752 -2.0644  1.0274 -0.3471
  107MOL0     H14402  -0.431   6.368   7.816  3.8035  0.5582  1.1585
  107MOL0     H14403  -0.524   6.273   8.043 -1.3160  0.1756  0.4373
  107MOL0     H14404  -0.591   6.135   7.951 -1.3673 -0.0856  1.2217
  107MOL0     H14405  -0.863   6.478   7.807 -0.5604  1.3569  0.1828
  107MOL0     H14406  -1.049   6.656   7.949 -0.7638  0.1953  0.1960
  107MOL0     H14407  -1.078   6.581   7.799  1.0546  1.4357  0.7867
  107MOL0     H14408  -1.186   6.536   7.936 -0.0239 -0.4352  2.0291
  107MOL0     H14409  -1.237   6.626   8.408  0.2666 -2.2763 -1.4441
  107MOL0     H14410  -1.448   6.739   8.492 -0.4068  1.8365 -0.5573
  107MOL0     H14411  -1.637   6.824   8.532  0.0345 -3.7259 -0.5175
  107MOL0     H14412  -1.578   6.920   8.383 -3.4287 -1.0320 -7.2012
  107MOL0     H14413  -1.714   7.068   8.443  0.0811  0.5327  2.1680
  107MOL0     H14414  -1.838   6.959   8.367  1.4497 -1.3023 -0.3656
  107MOL0     H14415  -1.748   6.975   8.673 -1.5944  0.1173  0.1885
  107MOL0     H14416  -1.867   6.872   8.612 -0.5409  0.0998  1.0181
  107MOL0     H14417  -1.865   7.174   8.578  2.4413 -1.0766 -0.9791
  107MOL0     H14418  -2.006   7.073   8.522 -0.5629  0.1303 -0.2015
  107MOL0     H14419  -2.035   7.002   8.768  1.3026 -0.7346  1.4409
  107MOL0     H14420  -2.076   7.166   8.729 -0.8671 -0.5160 -0.7087
  107MOL0     H14421  -1.830   7.056   8.854 -0.4968 -0.8766  0.9933
  107MOL0     H14422  -1.844   7.232   8.818 -0.9814  1.3234  3.4941
  107MOL0     H14423  -2.041   7.076   8.994 -1.4237  0.8096 -0.7017
  107MOL0     H14424  -2.036   7.243   8.965 -0.4325 -0.8019 -1.6649
  107MOL0     H14425  -1.816   7.265   9.063  0.3742 -1.3112 -1.5945
  107MOL0     H14426  -1.816   7.105   9.126  1.2168  0.1932 -1.6307
  107MOL0     H14427  -1.648   6.619   8.147 -0.2994 -0.4480  0.8601
  107MOL0     H14428  -1.442   6.500   8.065  1.7794 -0.1642  0.8167
  107MOL0     H14429  -0.981   6.216   8.208  1.4313 -2.0012 -1.0873
  107MOL0     H14430  -0.749   6.204   8.117 -0.4267 -1.6578 -0.2406
  107MOL0     H14431   0.578   5.728   8.856 -3.1457  2.4354 -1.5390
  107MOL0     H14432   0.810   5.753   8.975  0.7690  0.0117 -0.6510
  107MOL0     H14433   1.331   5.924   8.877 -1.9417  3.4827 -2.1943
  107MOL0     H14434   1.535   5.951   9.008 -0.0227  0.8294  0.7890
  107MOL0     H14435   1.485   6.203   9.387 -1.9542 -0.8391  0.8782
  107MOL0     H14436   1.428   6.049   9.440 -1.4043  1.1562 -0.7992
  107MOL0     H14437   1.643   5.968   9.481  1.1754 -0.2652 -1.4477
  107MOL0     H14438   1.624   6.128   9.568 -0.3661 -3.1982  0.7561
  107MOL0     H14439   1.742   6.218   9.340 -0.7673 -1.5913 -1.5406
  107MOL0     H14440   1.766   6.042   9.324 -4.0118 -1.1983 -1.7981
  107MOL0     H14441   1.874   6.036   9.546 -0.7627 -2.3672 -2.0034
  107MOL0     H14442   1.862   6.215   9.539 -1.7662  0.5832 -1.4658
  107MOL0     H14443   2.176   6.188   9.265  1.3982 -0.9246  0.7993
  107MOL0     H14444   1.291   6.144   9.301 -1.1212  0.4910 -0.5432
  107MOL0     H14445   1.082   6.084   9.181  0.8402  1.3212  1.2277
  108MOL0     O14446   0.099   5.000   8.692  0.7544  0.4595 -0.3676
  108MOL0     C14447   0.086   4.917   8.601 -0.6990  0.0367 -0.1177
  108MOL0     O14448   0.187   4.850   8.543  0.9444 -0.0671  0.7005
  108MOL0     C14449   0.319   4.860   8.585  0.1583  0.3119 -0.2244
  108MOL0     C14450   0.365   4.860   8.718 -0.4721 -0.7961  0.3639
  108MOL0     C14451   0.500   4.850   8.745 -0.0918  0.7360 -0.5108
  108MOL0     C14452   0.595   4.828   8.636  0.0806  0.1073 -0.4457
  108MOL0     O14453   0.734   4.809   8.648 -0.1334 -0.2242  0.1963
  108MOL0     C14454   0.785   4.770   8.778 -0.6843 -0.0453 -0.2726
  108MOL0     C14455   0.934   4.761   8.766 -0.4590 -0.2630 -1.1378
  108MOL0     C14456   0.980   4.655   8.656  0.6965  0.0384 -0.9377
  108MOL0     C14457   1.132   4.669   8.645  0.1741 -0.2332 -0.7644
  108MOL0     C14458   1.204   4.551   8.564 -0.9299 -0.2052 -0.6548
  108MOL0     C14459   1.135   4.489   8.441 -0.1502 -0.5734 -0.0548
  108MOL0     C14460   1.205   4.372   8.383 -0.2895 -0.7849  0.1300
  108MOL0     C14461   1.229   4.250   8.472 -0.2140  0.6261  0.2160
  108MOL0     N14462   1.115   4.182   8.539  0.3894  0.7388  0.5267
  108MOL0     C14463   1.000   4.120   8.488  0.5294 -0.1682  0.7627
  108MOL0     C14464   0.936   4.095   8.601 -0.1088 -0.3001 -0.2570
  108MOL0     C14465   0.812   4.007   8.606 -0.2525 -0.4635  0.4716
  108MOL0     C14466   0.705   4.053   8.496  0.0801 -0.1596 -0.2711
  108MOL0     C14467   0.652   4.191   8.535  0.3806  0.4684 -0.4794
  108MOL0     C14468   0.525   4.227   8.450  0.6730  0.2895 -0.4805
  108MOL0     O14469   0.416   4.140   8.495 -0.3528  0.0361 -0.2382
  108MOL0     C14470   0.291   4.177   8.460 -0.0061  0.3295 -1.0129
  108MOL0     C14471   0.261   4.287   8.372  1.2127  0.2047  0.1739
  108MOL0     C14472   0.126   4.311   8.336 -0.3729 -1.2395  0.5002
  108MOL0     C14473   0.114   4.425   8.246 -0.9459  0.8051  0.5145
  108MOL0     C14474   0.022   4.232   8.382  0.2222 -0.1480 -0.6827
  108MOL0     C14475  -0.120   4.274   8.382 -0.9765  0.2258 -0.3050
  108MOL0     O14476  -0.196   4.198   8.301  0.4004 -0.4712  0.0049
  108MOL0     C14477  -0.324   4.250   8.285  0.8188  0.2983 -0.0079
  108MOL0     C14478  -0.368   4.323   8.179 -0.3582  0.5139  0.3247
  108MOL0     C14479  -0.498   4.372   8.175 -0.3226  0.3082  0.7360
  108MOL0     C14480  -0.586   4.350   8.280 -0.6723  0.2789 -0.2081
  108MOL0     O14481  -0.711   4.410   8.252 -0.1195 -0.0651 -0.9129
  108MOL0     C14482  -0.820   4.375   8.335  0.0613  0.4155  0.5106
  108MOL0     C14483  -0.891   4.250   8.289  1.0408 -0.3964  1.0155
  108MOL0     C14484  -0.973   4.272   8.160  1.2873 -0.1539  0.0588
  108MOL0     C14485  -1.033   4.135   8.104  0.0596  0.5657 -0.2759
  108MOL0     C14486  -1.071   4.156   7.952  0.7357 -0.2759 -0.6602
  108MOL0     C14487  -1.126   4.026   7.903 -0.1418  0.0865 -0.3593
  108MOL0     C14488  -1.173   4.033   7.754 -1.0748  0.6087 -0.3566
  108MOL0     C14489  -1.187   3.896   7.679 -0.0099 -0.9066 -0.3572
  108MOL0    Cl14490  -1.242   3.778   7.798 -0.1875  0.2955 -0.3306
  108MOL0     C14491  -0.542   4.278   8.394  0.5713 -0.1261 -0.3331
  108MOL0     C14492  -0.412   4.231   8.394 -0.2684 -0.3053  0.4658
  108MOL0     O14493  -0.154   4.371   8.449 -0.8281 -0.1397  0.9839
  108MOL0     C14494   0.049   4.129   8.475 -0.3232 -0.0138 -0.2499
  108MOL0     C14495   0.178   4.103   8.510  0.3781 -0.0049 -0.5787
  108MOL0     N14496   0.996   4.133   8.718  0.1007  0.0773  1.1626
  108MOL0     N14497   1.091   4.203   8.670 -0.3888  0.1776 -0.0534
  108MOL0     C14498   0.539   4.823   8.512 -0.8684  0.0564  0.3308
  108MOL0     C14499   0.405   4.835   8.481  0.6815  0.7263 -0.0503
  108MOL0     C14500  -0.050   4.882   8.549  0.2627 -0.1971  0.2710
  108MOL0     C14501  -0.082   4.764   8.470  0.3195 -0.9050  0.3069
  108MOL0     C14502  -0.217   4.748   8.423 -0.1288  0.2909 -0.8946
  108MOL0     C14503  -0.318   4.833   8.465 -0.2634  0.4939  1.1037
  108MOL0     O14504  -0.450   4.827   8.416  0.3267  0.2318  1.0690
  108MOL0     C14505  -0.523   4.764   8.520  0.9743 -0.0123  0.3037
  108MOL0     C14506  -0.654   4.706   8.468  0.7061  1.0944  0.0468
  108MOL0     C14507  -0.728   4.611   8.565 -0.6111  0.1287  0.0087
  108MOL0     C14508  -0.729   4.641   8.725 -0.2474 -0.5942  1.0718
  108MOL0     C14509  -0.797   4.763   8.731 -0.6171  0.2025  0.1523
  108MOL0     C14510  -0.846   4.867   8.738  0.0772  0.1534  0.7932
  108MOL0     C14511  -0.287   4.929   8.557  0.3721  0.3689 -0.3260
  108MOL0     C14512  -0.161   4.965   8.597  0.6695 -0.0376  0.2900
  108MOL0     H14513   0.290   4.866   8.797 -1.2107 -1.8995 -0.2264
  108MOL0     H14514   0.542   4.842   8.845 -1.2444  0.7049 -0.0141
  108MOL0     H14515   0.774   4.840   8.861  2.0840  0.7954 -0.5283
  108MOL0     H14516   0.746   4.674   8.812 -0.4321 -0.5927 -1.4860
  108MOL0     H14517   0.975   4.858   8.737  2.0909 -1.1279 -0.6437
  108MOL0     H14518   0.975   4.736   8.864  0.6033  1.8680 -0.9908
  108MOL0     H14519   0.949   4.560   8.700  0.5432  1.1701  1.5770
  108MOL0     H14520   0.928   4.674   8.562 -1.2013  1.0805  0.2570
  108MOL0     H14521   1.149   4.764   8.594 -1.8369  2.4207  3.0389
  108MOL0     H14522   1.168   4.686   8.747 -1.1545  0.2737 -0.3561
  108MOL0     H14523   1.297   4.598   8.530  1.4877 -2.6092  2.1191
  108MOL0     H14524   1.230   4.472   8.636 -4.4290  0.7272  1.8765
  108MOL0     H14525   1.037   4.452   8.475 -0.1521  0.7334  1.4849
  108MOL0     H14526   1.125   4.571   8.370  0.6245  0.3999  0.9308
  108MOL0     H14527   1.144   4.332   8.302  0.7301 -0.9358 -0.5945
  108MOL0     H14528   1.300   4.402   8.335 -0.5515 -2.2933 -1.4234
  108MOL0     H14529   1.309   4.280   8.540  0.1910  1.0470 -0.4331
  108MOL0     H14530   1.273   4.177   8.403  0.1455 -0.2048  1.2874
  108MOL0     H14531   0.963   4.095   8.389  1.6521  1.1428 -0.0359
  108MOL0     H14532   0.826   3.899   8.600 -2.3415 -0.8551  1.5845
  108MOL0     H14533   0.754   4.013   8.698 -2.2271  0.4375 -0.7551
  108MOL0     H14534   0.620   3.984   8.509  1.0433 -0.7807  4.0610
  108MOL0     H14535   0.744   4.071   8.395 -1.2441  1.9270 -0.4750
  108MOL0     H14536   0.735   4.260   8.519  2.4740 -1.6004  0.7902
  108MOL0     H14537   0.622   4.200   8.640  0.5368  1.0307 -0.4815
  108MOL0     H14538   0.546   4.213   8.343 -1.5247 -1.3510 -0.7774
  108MOL0     H14539   0.495   4.331   8.470 -0.0998 -0.1516  0.7283
  108MOL0     H14540   0.342   4.343   8.325  0.8603  0.9927  0.4942
  108MOL0     H14541   0.015   4.470   8.240 -0.3687  2.1004  0.3313
  108MOL0     H14542   0.188   4.502   8.268 -1.3450  1.6827 -1.0761
  108MOL0     H14543   0.143   4.403   8.143  1.5549 -2.3866  1.7005
  108MOL0     H14544  -0.297   4.341   8.099 -0.4099  1.4632  0.4885
  108MOL0     H14545  -0.535   4.421   8.086 -0.9087 -1.5843 -0.1175
  108MOL0     H14546  -0.794   4.354   8.439 -1.8014  0.0403  0.9421
  108MOL0     H14547  -0.891   4.458   8.334  1.7760  1.9440  0.2442
  108MOL0     H14548  -0.817   4.176   8.257 -0.4630 -0.6324 -2.3534
  108MOL0     H14549  -0.946   4.197   8.367  0.9443  1.0591  1.9767
  108MOL0     H14550  -0.917   4.321   8.079  3.2931 -1.2640  0.6937
  108MOL0     H14551  -1.062   4.325   8.195  2.1509  0.9873  0.5669
  108MOL0     H14552  -0.960   4.054   8.107 -1.0582 -0.4338  1.7106
  108MOL0     H14553  -1.114   4.108   8.172  2.8393 -1.3869  2.5539
  108MOL0     H14554  -0.979   4.178   7.897  1.0253  0.6534  0.1694
  108MOL0     H14555  -1.146   4.233   7.933 -0.0543 -1.8097 -4.7902
  108MOL0     H14556  -1.059   3.939   7.910  2.9044  2.1574 -1.4938
  108MOL0     H14557  -1.212   4.001   7.966  1.3146 -4.3543  0.2113
  108MOL0     H14558  -1.106   4.101   7.701  0.0710  2.0907  2.6916
  108MOL0     H14559  -1.271   4.083   7.756 -0.3675  2.0464  1.2616
  108MOL0     H14560  -1.087   3.861   7.651  1.0563  1.8816 -0.3483
  108MOL0     H14561  -1.248   3.913   7.590  3.0729  1.5832 -2.1986
  108MOL0     H14562  -0.605   4.262   8.481 -1.0552  0.4458 -1.3484
  108MOL0     H14563  -0.372   4.185   8.485 -1.6411 -0.0056  1.2447
  108MOL0     H14564  -0.036   4.088   8.530 -0.6892  3.1189  1.7614
  108MOL0     H14565   0.206   4.025   8.580  0.1270 -0.1306 -0.6151
  108MOL0     H14566   0.610   4.788   8.437 -1.3092 -0.0482 -0.0483
  108MOL0     H14567   0.362   4.811   8.385 -1.4575 -0.9194  1.2261
  108MOL0     H14568  -0.017   4.689   8.427  0.7056  0.4860 -1.6727
  108MOL0     H14569  -0.244   4.661   8.364 -1.2218 -1.0831  1.4473
  108MOL0     H14570  -0.477   4.681   8.574  1.4150 -0.0250 -0.0883
  108MOL0     H14571  -0.548   4.839   8.595 -1.1515  1.5332 -1.7810
  108MOL0     H14572  -0.632   4.651   8.376 -1.2827  0.2812  0.0108
  108MOL0     H14573  -0.722   4.787   8.439  0.1939 -0.0815 -2.2385
  108MOL0     H14574  -0.685   4.511   8.562 -0.2485  0.2890 -2.5770
  108MOL0     H14575  -0.827   4.588   8.524 -1.1300  0.1970  1.1816
  108MOL0     H14576  -0.629   4.649   8.770 -0.2143 -0.6621  1.0096
  108MOL0     H14577  -0.778   4.558   8.778 -0.2237 -1.5043 -0.2809
  108MOL0     H14578  -0.885   4.967   8.740  2.5761  1.6216 -4.4059
  108MOL0     H14579  -0.363   5.000   8.588  1.4265 -0.2568  4.4793
  108MOL0     H14580  -0.150   5.059   8.650 -0.2999  0.1653  0.1571
  109MOL0     O14581   8.601  10.828   0.248 -0.6317  0.4815 -0.1441
  109MOL0     C14582   8.626  10.854   0.369 -1.0843  0.0084 -0.4895
  109MOL0     O14583   8.565  10.954   0.450  0.2299  0.3753  0.4382
  109MOL0     C14584   8.453  11.020   0.399  0.9274  0.0709 -0.0624
  109MOL0     C14585   8.356  11.050   0.492  0.0559 -0.2974  0.4949
  109MOL0     C14586   8.232  11.109   0.459  0.2461 -0.3331 -1.0636
  109MOL0     C14587   8.201  11.143   0.330  0.2358 -0.4936 -0.6298
  109MOL0     O14588   8.076  11.183   0.302  0.0902  0.5714  0.4237
  109MOL0     C14589   8.047  11.208   0.164 -0.7368  0.6357 -0.9052
  109MOL0     C14590   7.898  11.245   0.167  0.7103 -0.4677  0.0316
  109MOL0     C14591   7.889  11.383   0.240  0.0428  0.0432 -0.6047
  109MOL0     C14592   7.737  11.429   0.263 -0.0311 -0.6006 -0.4741
  109MOL0     C14593   7.723  11.571   0.331 -0.0325 -0.2922 -0.4743
  109MOL0     C14594   7.776  11.574   0.472 -0.2514 -0.1781 -0.4952
  109MOL0     C14595   7.772  11.714   0.530 -0.3993 -0.7909 -0.0884
  109MOL0     C14596   7.666  11.728   0.638 -0.0378 -0.0198  0.0199
  109MOL0     N14597   7.684  11.860   0.689 -0.2028  1.1820 -0.8639
  109MOL0     C14598   7.651  11.967   0.618 -0.4512 -0.1328 -0.4278
  109MOL0     C14599   7.731  12.076   0.674 -0.5178  0.4236  0.4957
  109MOL0     C14600   7.707  12.209   0.607 -0.7972  0.1539 -0.6308
  109MOL0     C14601   7.831  12.298   0.622  0.5272  0.1957  0.1835
  109MOL0     C14602   7.934  12.287   0.501 -0.1487 -0.3932  0.9288
  109MOL0     C14603   8.036  12.408   0.492  0.2453  0.1656 -0.0593
  109MOL0     O14604   7.969  12.536   0.514  0.1351  0.6534 -0.1137
  109MOL0     C14605   7.888  12.594   0.417 -0.3193  1.1269  0.3390
  109MOL0     C14606   7.826  12.702   0.459  0.0177  0.0795 -0.5336
  109MOL0     C14607   7.724  12.767   0.376 -0.4520  0.3642  0.0766
  109MOL0     C14608   7.651  12.881   0.444  0.4364 -0.8133  0.5627
  109MOL0     C14609   7.691  12.706   0.253 -0.4206  0.3842 -0.7792
  109MOL0     C14610   7.598  12.761   0.163 -0.9725  0.0220  0.4259
  109MOL0     O14611   7.587  12.895   0.164  0.1314  0.2599  0.1047
  109MOL0     C14612   7.495  12.949   0.084 -0.7430  0.3560  0.6239
  109MOL0     C14613   7.533  13.043  -0.015  0.2414 -0.7242 -0.3373
  109MOL0     C14614   7.433  13.105  -0.094 -0.1809 -0.9157  0.1991
  109MOL0     C14615   7.299  13.080  -0.075  0.3052  0.5944  0.1752
  109MOL0     O14616   7.192  13.135  -0.148  0.0930  0.5790  0.1895
  109MOL0     C14617   7.209  13.171  -0.281 -0.9884 -0.6653  0.1505
  109MOL0     C14618   7.077  13.218  -0.345  1.1037  0.4404 -0.0726
  109MOL0     C14619   6.967  13.115  -0.351  0.4011 -0.0920 -0.2670
  109MOL0     C14620   6.893  13.092  -0.215  0.6878 -0.0474  0.3077
  109MOL0     C14621   6.787  12.983  -0.242  0.4686 -0.8296 -1.2058
  109MOL0     C14622   6.722  12.949  -0.112 -0.6844  0.6988 -0.4429
  109MOL0     C14623   6.629  12.830  -0.115  0.0247  0.3719  0.8335
  109MOL0     C14624   6.493  12.844  -0.186  0.3277 -0.1727  0.0471
  109MOL0    Cl14625   6.393  12.971  -0.114 -0.3713  0.3000  0.6009
  109MOL0     C14626   7.260  12.987   0.022 -0.1879  0.2283  0.4525
  109MOL0     C14627   7.357  12.921   0.096 -0.3187  0.1190 -0.4155
  109MOL0     O14628   7.538  12.686   0.089  0.5060 -0.3754  0.2949
  109MOL0     C14629   7.761  12.590   0.214  0.3284  0.7649 -0.2370
  109MOL0     C14630   7.850  12.528   0.298  1.1841 -0.0655 -0.6523
  109MOL0     N14631   7.788  12.018   0.784  0.7436 -0.1353  0.5430
  109MOL0     N14632   7.768  11.891   0.787 -0.4772  0.2844  0.2352
  109MOL0     C14633   8.306  11.131   0.241 -0.4145 -0.1863 -0.9264
  109MOL0     C14634   8.432  11.075   0.277  0.2484  0.3255 -0.0821
  109MOL0     C14635   8.745  10.785   0.434 -0.4105  0.8965  0.5497
  109MOL0     C14636   8.779  10.803   0.569 -0.0815 -0.7246 -0.0033
  109MOL0     C14637   8.899  10.751   0.603 -1.2183 -0.2650  0.3177
  109MOL0     C14638   8.985  10.682   0.527  0.0108  0.0408 -0.6614
  109MOL0     O14639   9.110  10.628   0.568 -0.4025 -0.1773  0.0906
  109MOL0     C14640   9.149  10.620   0.700 -0.1109  0.3945 -0.4587
  109MOL0     C14641   9.260  10.522   0.729  0.1344  0.6063 -0.0314
  109MOL0     C14642   9.393  10.559   0.665 -0.4294  0.4961 -0.3618
  109MOL0     C14643   9.495  10.439   0.668 -1.1745  0.6389 -0.8876
  109MOL0     C14644   9.469  10.357   0.547 -0.6186  0.0597 -0.2383
  109MOL0     C14645   9.448  10.283   0.454  0.0791  0.0574 -0.5569
  109MOL0     C14646   8.950  10.655   0.399 -0.2427  0.3487  0.2384
  109MOL0     C14647   8.825  10.698   0.355 -0.5656 -0.4557 -0.4308
  109MOL0     H14648   8.369  11.032   0.599 -1.7205  2.5361  1.3131
  109MOL0     H14649   8.152  11.121   0.531 -0.1132 -1.5655 -1.2427
  109MOL0     H14650   8.109  11.291   0.129  1.9700  0.5129  3.0438
  109MOL0     H14651   8.081  11.117   0.115  4.1802  1.3378  0.6800
  109MOL0     H14652   7.853  11.260   0.068  2.6889  0.0205 -0.8391
  109MOL0     H14653   7.834  11.168   0.210  0.9280 -0.4776  0.3341
  109MOL0     H14654   7.929  11.360   0.339  0.1659  0.1041 -0.6403
  109MOL0     H14655   7.940  11.461   0.183  1.5463 -0.0816  0.5030
  109MOL0     H14656   7.679  11.426   0.171 -2.6340 -1.5050  1.0786
  109MOL0     H14657   7.697  11.347   0.323 -0.4403 -1.6678 -2.1433
  109MOL0     H14658   7.776  11.642   0.266 -1.2908 -0.1375 -1.3629
  109MOL0     H14659   7.617  11.598   0.327 -0.1465 -0.2377  1.9593
  109MOL0     H14660   7.705  11.518   0.533  0.0981  2.3080  2.3989
  109MOL0     H14661   7.879  11.536   0.480 -0.7846 -2.0593 -1.7059
  109MOL0     H14662   7.868  11.748   0.571 -0.0508 -0.1005 -1.3998
  109MOL0     H14663   7.734  11.776   0.448  1.3802 -0.6694 -0.8845
  109MOL0     H14664   7.684  11.651   0.713  0.4793 -1.2398 -1.3153
  109MOL0     H14665   7.566  11.706   0.599 -0.8326  2.7172  0.3004
  109MOL0     H14666   7.592  11.976   0.527 -3.4396  0.3194  1.4269
  109MOL0     H14667   7.679  12.191   0.503 -0.1249 -0.0379 -0.7862
  109MOL0     H14668   7.626  12.251   0.667  0.7033  2.3951 -0.0405
  109MOL0     H14669   7.877  12.277   0.719 -0.0503 -1.2140  0.1727
  109MOL0     H14670   7.791  12.400   0.633 -4.9863 -1.7022  0.5943
  109MOL0     H14671   7.878  12.269   0.409 -0.0355 -0.5279  0.8857
  109MOL0     H14672   7.984  12.191   0.513 -2.1427 -1.4731  1.0625
  109MOL0     H14673   8.087  12.397   0.396 -2.4896  1.8727 -1.8807
  109MOL0     H14674   8.108  12.400   0.574  1.6737 -1.1491 -1.3737
  109MOL0     H14675   7.859  12.745   0.554 -0.5246  4.5867 -2.1596
  109MOL0     H14676   7.546  12.850   0.452  0.5977 -1.8574 -0.9493
  109MOL0     H14677   7.683  12.900   0.546 -1.2287 -1.3441  1.2233
  109MOL0     H14678   7.652  12.975   0.388 -1.0408  1.0980  3.5088
  109MOL0     H14679   7.635  13.078  -0.026  0.1109 -0.5514 -0.9958
  109MOL0     H14680   7.464  13.185  -0.160  1.8286 -0.7989  1.2090
  109MOL0     H14681   7.281  13.253  -0.281 -4.1286  2.2698 -0.2691
  109MOL0     H14682   7.240  13.083  -0.339  0.6208  0.3175 -0.5497
  109MOL0     H14683   7.035  13.304  -0.291 -0.5112 -0.5189  0.2719
  109MOL0     H14684   7.088  13.256  -0.447  1.7834  0.5362  0.0356
  109MOL0     H14685   6.999  13.016  -0.385 -3.9401 -0.9640 -2.5344
  109MOL0     H14686   6.894  13.151  -0.423  1.3277  2.3052 -0.0913
  109MOL0     H14687   6.967  13.054  -0.145  1.6011  2.1635  0.6141
  109MOL0     H14688   6.841  13.186  -0.193 -1.2884 -1.5334  2.4040
  109MOL0     H14689   6.841  12.909  -0.301  4.0722  2.0379 -1.8553
  109MOL0     H14690   6.714  13.028  -0.310  0.6455  1.0237 -0.2303
  109MOL0     H14691   6.791  12.942  -0.027 -0.5803  2.1442 -0.3948
  109MOL0     H14692   6.665  13.039  -0.090 -0.3828  0.4621  1.4795
  109MOL0     H14693   6.610  12.802  -0.011  0.0075 -3.8128 -0.1361
  109MOL0     H14694   6.680  12.745  -0.160 -1.2067 -0.2470  0.5751
  109MOL0     H14695   6.440  12.749  -0.181  0.1423 -0.4823 -4.2259
  109MOL0     H14696   6.506  12.873  -0.291 -2.3705  2.3933  0.2865
  109MOL0     H14697   7.158  12.952   0.032  0.0469 -2.6350 -4.1221
  109MOL0     H14698   7.313  12.855   0.171  1.3281  1.1515  1.5765
  109MOL0     H14699   7.750  12.550   0.114  0.8946 -2.5282  0.9094
  109MOL0     H14700   7.901  12.437   0.267  1.3231 -0.2260  0.0154
  109MOL0     H14701   8.305  11.172   0.141 -0.4821  0.8893 -0.5023
  109MOL0     H14702   8.510  11.061   0.203  1.1346  1.1639  0.6606
  109MOL0     H14703   8.722  10.869   0.634  0.8192 -0.0629  0.1431
  109MOL0     H14704   8.934  10.778   0.702  3.6555  0.3871 -1.3504
  109MOL0     H14705   9.194  10.713   0.737  2.2440 -0.8585  0.0558
  109MOL0     H14706   9.057  10.587   0.750 -1.0276  1.4996 -1.3595
  109MOL0     H14707   9.228  10.419   0.711  1.1734 -0.2317  2.4164
  109MOL0     H14708   9.267  10.521   0.838 -0.0977 -2.3338  0.0561
  109MOL0     H14709   9.451  10.624   0.732 -0.5033  3.3329 -2.8180
  109MOL0     H14710   9.382  10.610   0.569 -3.8290 -0.0966 -0.3820
  109MOL0     H14711   9.488  10.392   0.767 -0.6082  0.0595 -1.1134
  109MOL0     H14712   9.590  10.492   0.657  0.5376 -2.0960 -0.4923
  109MOL0     H14713   9.423  10.218   0.374 -0.3784 -0.9806  0.4006
  109MOL0     H14714   9.015  10.603   0.329 -0.3323 -0.3137  0.6458
  109MOL0     H14715   8.800  10.669   0.253  0.4885 -2.1857 -0.2363
  110MOL0     O14716   5.574  10.936  10.406  0.0071  0.1442 -0.1661
  110MOL0     C14717   5.522  10.969  10.297  0.2935 -0.3234 -0.3307
  110MOL0     O14718   5.391  10.956  10.260  0.0747  0.1563 -0.4789
  110MOL0     C14719   5.301  11.015  10.342 -0.9418 -0.7110  0.2166
  110MOL0     C14720   5.191  11.063  10.281  0.0322  0.5112 -1.1097
  110MOL0     C14721   5.076  11.110  10.345 -0.4449 -0.5443 -0.0982
  110MOL0     C14722   5.074  11.117  10.485  1.1861 -0.1680 -0.2091
  110MOL0     O14723   4.959  11.170  10.549 -0.4393 -0.2503 -0.3917
  110MOL0     C14724   4.973  11.217  10.683 -0.1209  0.2109  0.3949
  110MOL0     C14725   4.844  11.301  10.714 -0.6067 -0.6814  0.0388
  110MOL0     C14726   4.851  11.383  10.842  0.1763  0.5181 -0.4322
  110MOL0     C14727   4.720  11.459  10.874  0.1036 -0.5819  0.0190
  110MOL0     C14728   4.596  11.382  10.919 -0.2297  0.3324  0.4762
  110MOL0     C14729   4.503  11.329  10.806  0.1704 -0.5455  0.1091
  110MOL0     C14730   4.381  11.257  10.871  0.5042 -1.2009  0.3429
  110MOL0     C14731   4.289  11.213  10.755  0.1127 -0.2693 -0.5959
  110MOL0     N14732   4.182  11.115  10.807 -0.4026 -0.0064 -1.0317
  110MOL0     C14733   4.052  11.149  10.825  0.0605  0.0648  0.1644
  110MOL0     C14734   3.996  11.029  10.862 -0.0726 -0.0289  0.2240
  110MOL0     C14735   3.848  11.021  10.886 -0.3077  0.3770 -0.3335
  110MOL0     C14736   3.828  10.977  11.031  0.0984 -0.0251  0.6860
  110MOL0     C14737   3.683  10.950  11.069 -0.6378 -0.0346  0.0401
  110MOL0     C14738   3.607  10.857  10.961 -0.1152 -0.5706 -0.5952
  110MOL0     O14739   3.516  10.762  11.019  0.4265 -0.9845 -0.0800
  110MOL0     C14740   3.384  10.772  11.001  0.0270  0.2228  0.1885
  110MOL0     C14741   3.318  10.646  10.968 -0.1701  0.4153  0.2620
  110MOL0     C14742   3.179  10.634  10.961 -0.3470  0.4722  0.1352
  110MOL0     C14743   3.121  10.498  10.936 -0.0326  1.0432 -0.5447
  110MOL0     C14744   3.098  10.754  10.986  0.0385  0.5876  0.9345
  110MOL0     C14745   2.946  10.756  10.991  0.7410 -0.4582  0.0198
  110MOL0     O14746   2.887  10.859  11.066 -0.5593 -0.1152 -0.2539
  110MOL0     C14747   2.754  10.857  11.071  1.1514  0.8432 -0.3520
  110MOL0     C14748   2.692  10.742  11.138  0.4170  1.3744 -0.3533
  110MOL0     C14749   2.562  10.736  11.168  0.1637 -0.3139  0.0414
  110MOL0     C14750   2.470  10.839  11.129 -0.4001  0.0701  0.8490
  110MOL0     O14751   2.343  10.856  11.175 -0.2112 -0.7746 -0.8775
  110MOL0     C14752   2.273  10.742  11.222  1.0505  0.1752 -0.0970
  110MOL0     C14753   2.129  10.777  11.225 -0.0062 -0.2740 -0.0689
  110MOL0     C14754   2.050  10.650  11.269  0.5418  0.0098  0.2401
  110MOL0     C14755   1.898  10.659  11.271  0.9092 -0.2341  0.6690
  110MOL0     C14756   1.836  10.531  11.327 -0.5678 -0.0534 -0.1326
  110MOL0     C14757   1.685  10.545  11.330  0.3083 -0.1084 -0.4255
  110MOL0     C14758   1.615  10.423  11.381 -0.0336 -0.5632  0.0114
  110MOL0     C14759   1.605  10.311  11.275 -0.4975 -0.4782  0.0809
  110MOL0    Cl14760   1.489  10.176  11.315  0.1165  0.5954 -0.4171
  110MOL0     C14761   2.522  10.944  11.044 -0.0585 -0.7848 -0.7385
  110MOL0     C14762   2.665  10.955  11.034  0.2195  0.9409 -0.0974
  110MOL0     O14763   2.880  10.670  10.923  0.2724 -0.0891 -0.5046
  110MOL0     C14764   3.168  10.876  11.012 -0.7366  1.2747 -0.1315
  110MOL0     C14765   3.310  10.886  11.023  1.1402  1.5361  0.4360
  110MOL0     N14766   4.096  10.928  10.875 -0.0375  0.4380 -0.0197
  110MOL0     N14767   4.210  10.985  10.845 -0.6290  0.7263  0.2457
  110MOL0     C14768   5.191  11.076  10.557 -0.1486 -0.8541 -0.2412
  110MOL0     C14769   5.302  11.023  10.483 -0.6501  0.7261  0.9328
  110MOL0     C14770   5.613  11.009  10.187 -0.2665 -0.2209 -0.4470
  110MOL0     C14771   5.744  10.974  10.193  0.0243 -0.0489 -0.1985
  110MOL0     C14772   5.832  11.012  10.086 -0.7670 -0.1258  0.2259
  110MOL0     C14773   5.783  11.064   9.966 -0.3724 -0.4891  0.1275
  110MOL0     O14774   5.847  11.064   9.846 -0.0825  0.0499  0.3072
  110MOL0     C14775   5.987  11.028   9.843  0.6530 -0.3403  0.5153
  110MOL0     C14776   6.029  11.066   9.704  1.1317  0.7641  0.6666
  110MOL0     C14777   6.173  11.045   9.675  0.5981  0.3836  0.0307
  110MOL0     C14778   6.194  11.092   9.532  0.2587 -0.6087 -0.2972
  110MOL0     C14779   6.334  11.117   9.490  0.6865  0.3260  0.1754
  110MOL0     C14780   6.445  11.139   9.448 -0.4634 -0.5423 -0.2876
  110MOL0     C14781   5.646  11.100   9.964  0.2531  0.5533  0.5592
  110MOL0     C14782   5.562  11.074  10.072  0.1821 -0.2396 -0.4686
  110MOL0     H14783   5.179  11.048  10.174  2.7175 -0.1116 -1.3928
  110MOL0     H14784   4.987  11.137  10.290 -0.9471 -2.3883 -0.2338
  110MOL0     H14785   4.972  11.134  10.754 -0.1585 -1.4241 -1.4583
  110MOL0     H14786   5.063  11.279  10.690  0.4769 -0.7962  2.4752
  110MOL0     H14787   4.831  11.370  10.630  0.1979 -1.1355 -0.4663
  110MOL0     H14788   4.762  11.228  10.720 -1.6294  0.3352 -1.0147
  110MOL0     H14789   4.866  11.307  10.920 -0.8229  1.1178  0.3850
  110MOL0     H14790   4.934  11.453  10.836 -0.2796  0.9992 -1.3767
  110MOL0     H14791   4.744  11.521  10.961  1.6372 -1.4012  0.2293
  110MOL0     H14792   4.694  11.515  10.784 -0.0551  0.5971  0.7707
  110MOL0     H14793   4.625  11.298  10.983 -1.3899 -1.7517 -1.5792
  110MOL0     H14794   4.534  11.445  10.984 -0.2970 -0.2104  0.9509
  110MOL0     H14795   4.461  11.407  10.742 -1.1693 -0.1082  1.4496
  110MOL0     H14796   4.558  11.264  10.738 -1.5589 -1.4443 -0.4673
  110MOL0     H14797   4.403  11.175  10.940 -2.2950  1.0285  4.3302
  110MOL0     H14798   4.326  11.324  10.938  0.8251 -0.0345 -0.5299
  110MOL0     H14799   4.360  11.169  10.685  3.2932 -0.8043  2.6509
  110MOL0     H14800   4.229  11.297  10.720 -1.3922 -0.7749  0.6593
  110MOL0     H14801   3.994  11.240  10.811 -1.4638 -0.9525 -0.3588
  110MOL0     H14802   3.800  11.118  10.877  0.8636  1.0489  0.3719
  110MOL0     H14803   3.805  10.953  10.812 -1.8511 -2.8580  3.2061
  110MOL0     H14804   3.865  11.053  11.102  3.3200  0.9788 -1.8262
  110MOL0     H14805   3.895  10.892  11.048 -0.8138 -0.9769 -0.3317
  110MOL0     H14806   3.625  11.038  11.100 -0.1285  0.5603 -0.6396
  110MOL0     H14807   3.694  10.896  11.163 -0.9956  0.1636  0.1979
  110MOL0     H14808   3.680  10.798  10.904  1.8175 -0.0404  1.1928
  110MOL0     H14809   3.548  10.927  10.902  0.5850  2.4890  2.0463
  110MOL0     H14810   3.389  10.565  10.956 -0.8955 -0.0745 -0.8870
  110MOL0     H14811   3.087  10.500  10.832 -0.5839  1.0780 -0.3662
  110MOL0     H14812   3.192  10.421  10.966  1.0955  1.4890 -1.9656
  110MOL0     H14813   3.034  10.494  11.003 -1.2504  1.1147 -2.0660
  110MOL0     H14814   2.761  10.666  11.172 -0.9725  1.6574  3.5246
  110MOL0     H14815   2.540  10.648  11.228 -3.3818  0.0714 -0.4484
  110MOL0     H14816   2.276  10.667  11.142 -1.0773 -0.2558  0.1780
  110MOL0     H14817   2.318  10.693  11.308  1.1043  0.1758 -0.1241
  110MOL0     H14818   2.113  10.847  11.308  0.7616 -0.9501  0.6596
  110MOL0     H14819   2.094  10.818  11.129  0.1168  0.3149  0.1374
  110MOL0     H14820   2.076  10.631  11.374 -3.1240 -0.2555  1.2661
  110MOL0     H14821   2.070  10.567  11.200  3.1777 -1.3810  2.4623
  110MOL0     H14822   1.873  10.741  11.339  0.5612 -1.0287  1.5444
  110MOL0     H14823   1.862  10.683  11.171  0.1594 -1.1379  0.7047
  110MOL0     H14824   1.877  10.513  11.426  1.0656  1.1598 -0.5567
  110MOL0     H14825   1.865  10.443  11.269 -0.2751 -0.1757  0.2023
  110MOL0     H14826   1.655  10.629  11.394  1.9402  0.9705 -1.0042
  110MOL0     H14827   1.642  10.560  11.231 -1.3329 -2.3095 -0.1156
  110MOL0     H14828   1.516  10.460  11.409 -0.1072 -0.1734 -0.7290
  110MOL0     H14829   1.672  10.385  11.466 -1.4636 -4.1719 -0.4846
  110MOL0     H14830   1.702  10.276  11.239  1.2630  0.0682  3.8280
  110MOL0     H14831   1.568  10.360  11.184  3.4958 -2.3708 -2.8477
  110MOL0     H14832   2.462  11.028  11.011  1.4553  0.0663 -1.4243
  110MOL0     H14833   2.709  11.047  10.998  1.4611  0.2820 -0.3446
  110MOL0     H14834   3.126  10.977  11.018  1.1947  2.0414  2.7238
  110MOL0     H14835   3.341  10.983  11.061 -1.7415  2.3041  1.1250
  110MOL0     H14836   5.206  11.073  10.664  2.7788  0.7312 -0.5152
  110MOL0     H14837   5.382  10.979  10.541  0.2173 -1.6554 -1.8115
  110MOL0     H14838   5.787  10.922  10.278 -0.2637 -0.2967 -0.2021
  110MOL0     H14839   5.931  10.977  10.111 -1.1190 -1.2302  0.1321
  110MOL0     H14840   6.041  11.097   9.908 -2.0556  1.8089  0.6831
  110MOL0     H14841   5.990  10.920   9.860  0.3921 -0.2238  1.3594
  110MOL0     H14842   5.999  11.170   9.692 -2.9951 -0.2458  0.7790
  110MOL0     H14843   5.978  11.003   9.631  1.2851 -0.5732  1.6645
  110MOL0     H14844   6.209  10.942   9.685 -2.8548 -1.0180 -0.4482
  110MOL0     H14845   6.235  11.108   9.740  0.8873 -1.1655  1.2973
  110MOL0     H14846   6.135  11.184   9.525 -1.4236 -1.7796 -2.7496
  110MOL0     H14847   6.148  11.022   9.462  0.1872 -1.7643  0.8541
  110MOL0     H14848   6.544  11.169   9.421 -0.7067 -1.0207 -1.8373
  110MOL0     H14849   5.610  11.140   9.870 -1.8977 -1.8207  0.2539
  110MOL0     H14850   5.461  11.111  10.055 -0.9365 -3.7716 -2.4466
  111MOL0     O14851   3.011   0.839   0.809 -0.5099 -0.0504 -0.1974
  111MOL0     C14852   2.996   0.854   0.931  0.2204 -0.5556 -0.3386
  111MOL0     O14853   2.874   0.865   0.989 -0.0663  0.0833  0.5143
  111MOL0     C14854   2.763   0.894   0.904  0.4445  0.0197 -0.5112
  111MOL0     C14855   2.751   1.018   0.848 -0.6163 -0.4600  0.2540
  111MOL0     C14856   2.650   1.056   0.764 -0.3799 -0.3610 -0.1964
  111MOL0     C14857   2.554   0.959   0.737 -0.2372 -0.1739 -0.5377
  111MOL0     O14858   2.450   0.988   0.647 -0.3626 -0.1651 -0.5338
  111MOL0     C14859   2.390   1.114   0.665  0.7149 -0.7907 -0.0374
  111MOL0     C14860   2.241   1.116   0.600 -0.1960 -0.7482 -0.2967
  111MOL0     C14861   2.153   1.029   0.694 -0.4166 -0.3040  0.6118
  111MOL0     C14862   2.022   0.982   0.629  0.2334 -0.1716  0.4263
  111MOL0     C14863   1.943   0.876   0.716 -0.0118  0.3876 -0.0102
  111MOL0     C14864   1.870   0.938   0.820 -0.2556  0.6106  0.3923
  111MOL0     C14865   1.837   0.827   0.927 -1.1737  0.6233  0.6217
  111MOL0     C14866   1.722   0.734   0.882 -0.2641  0.6282  0.2122
  111MOL0     N14867   1.584   0.784   0.859  0.4353  0.2667 -0.0382
  111MOL0     C14868   1.481   0.726   0.781  0.4084 -0.5797 -0.1275
  111MOL0     C14869   1.394   0.828   0.754 -0.3487  1.2703 -1.0400
  111MOL0     C14870   1.272   0.813   0.671  0.7237 -0.1823  0.5795
  111MOL0     C14871   1.149   0.802   0.755  1.1311 -0.4873 -0.6706
  111MOL0     C14872   1.017   0.799   0.685  0.6951 -0.2626  0.7120
  111MOL0     C14873   0.902   0.778   0.779  0.6917 -0.7276  0.3675
  111MOL0     O14874   0.900   0.874   0.878  0.2975 -0.4659 -0.3555
  111MOL0     C14875   0.789   0.880   0.962  1.0706 -0.6176 -0.3777
  111MOL0     C14876   0.770   0.999   1.028  0.5004  0.0980  0.1092
  111MOL0     C14877   0.666   1.016   1.121  0.4007  0.0131  0.4375
  111MOL0     C14878   0.647   1.147   1.175 -0.3759 -0.1797 -0.7571
  111MOL0     C14879   0.577   0.907   1.139 -0.2990 -0.5704  0.6758
  111MOL0     C14880   0.447   0.910   1.215  0.2774 -0.2437  0.1816
  111MOL0     O14881   0.385   1.031   1.226 -0.3374  0.0641  0.2635
  111MOL0     C14882   0.259   1.039   1.275  0.3641  0.0921  0.3884
  111MOL0     C14883   0.227   0.999   1.407  1.4514 -0.7991  1.0172
  111MOL0     C14884   0.095   1.026   1.450 -0.3275  0.2949 -1.0132
  111MOL0     C14885  -0.004   1.075   1.368 -0.5721  0.1425  0.0747
  111MOL0     O14886  -0.127   1.097   1.426 -0.0584  0.0546 -0.2672
  111MOL0     C14887  -0.232   1.148   1.340 -0.3818  0.0600  0.3486
  111MOL0     C14888  -0.363   1.160   1.409  0.3030  0.2119 -0.8255
  111MOL0     C14889  -0.469   1.216   1.313  0.6126  0.1484 -0.3407
  111MOL0     C14890  -0.607   1.237   1.385 -0.0284 -0.3618 -0.0787
  111MOL0     C14891  -0.660   1.370   1.338 -0.1814 -0.0238 -0.7075
  111MOL0     C14892  -0.804   1.394   1.380 -0.1775  0.7032  0.0745
  111MOL0     C14893  -0.821   1.424   1.529  1.0584 -0.5563  0.5146
  111MOL0     C14894  -0.940   1.522   1.552 -0.1605  0.0053 -0.0643
  111MOL0    Cl14895  -1.095   1.465   1.465  0.1408 -0.3934  0.5202
  111MOL0     C14896   0.023   1.104   1.233  1.0217  0.2070 -0.4358
  111MOL0     C14897   0.156   1.085   1.186 -0.7564  0.0596  0.9390
  111MOL0     O14898   0.400   0.798   1.243 -0.0032 -0.4795  0.1335
  111MOL0     C14899   0.613   0.783   1.083  0.2994 -0.0116 -0.1331
  111MOL0     C14900   0.708   0.771   0.991 -0.0363  0.7449  0.8374
  111MOL0     N14901   1.435   0.937   0.825  0.3693 -0.2410 -0.7610
  111MOL0     N14902   1.549   0.914   0.886 -0.2955 -0.2662  0.1292
  111MOL0     C14903   2.558   0.832   0.797 -0.2155 -0.2669  0.0846
  111MOL0     C14904   2.659   0.800   0.883 -0.6913  0.7700 -0.1530
  111MOL0     C14905   3.105   0.809   1.018 -0.6051 -0.5157  0.3801
  111MOL0     C14906   3.099   0.808   1.159  0.2440 -2.0512  0.1135
  111MOL0     C14907   3.199   0.761   1.241  0.3128 -0.4484 -0.7621
  111MOL0     C14908   3.310   0.702   1.177  0.8171 -0.0747  0.5435
  111MOL0     O14909   3.414   0.654   1.252  0.8496 -0.4836 -0.3772
  111MOL0     C14910   3.387   0.616   1.390  0.4496  0.4417 -0.2441
  111MOL0     C14911   3.505   0.537   1.447 -0.4301  0.5487 -0.1178
  111MOL0     C14912   3.635   0.609   1.429 -0.0817  0.9885 -0.2432
  111MOL0     C14913   3.655   0.731   1.519 -0.2159 -0.1569 -0.5423
  111MOL0     C14914   3.655   0.695   1.656 -0.4132  0.7900  0.1984
  111MOL0     C14915   3.647   0.645   1.767 -0.0144  0.6011  0.9076
  111MOL0     C14916   3.330   0.721   1.042  0.7835  0.1497  0.3334
  111MOL0     C14917   3.223   0.769   0.962 -0.2131  0.5067 -0.4132
  111MOL0     H14918   2.819   1.098   0.877 -2.2287  0.8615  0.5762
  111MOL0     H14919   2.648   1.159   0.730  0.9114 -0.0527  0.6062
  111MOL0     H14920   2.376   1.125   0.772  2.3855  0.4979  0.0844
  111MOL0     H14921   2.444   1.199   0.623  0.7118 -0.8202 -0.1018
  111MOL0     H14922   2.195   1.214   0.581  1.5866 -0.0940 -1.6082
  111MOL0     H14923   2.250   1.079   0.497 -3.6355  0.1490 -1.0478
  111MOL0     H14924   2.220   0.948   0.724  2.7309  1.6202 -0.7176
  111MOL0     H14925   2.130   1.096   0.777  3.3365 -0.1451  1.7351
  111MOL0     H14926   1.958   1.070   0.616  0.4736 -0.1127 -0.3862
  111MOL0     H14927   2.032   0.935   0.531  2.2748  0.5272  0.2328
  111MOL0     H14928   1.875   0.814   0.658 -1.9543  2.5799 -0.2100
  111MOL0     H14929   2.017   0.810   0.763  1.5872  1.7767 -0.4457
  111MOL0     H14930   1.933   1.014   0.867 -1.4171  0.4727  2.3017
  111MOL0     H14931   1.774   0.983   0.793 -0.2815  0.2999 -0.0451
  111MOL0     H14932   1.924   0.767   0.957 -1.1179  0.2211 -0.2923
  111MOL0     H14933   1.794   0.882   1.011 -1.6308  1.2018  0.0136
  111MOL0     H14934   1.714   0.653   0.956 -1.0664 -0.9479 -1.5231
  111MOL0     H14935   1.747   0.687   0.787 -1.3686 -0.3959  0.3985
  111MOL0     H14936   1.467   0.622   0.753  0.4132 -0.0500 -2.2837
  111MOL0     H14937   1.261   0.904   0.613  0.7898 -0.6738 -0.2198
  111MOL0     H14938   1.282   0.732   0.597 -4.3014 -0.5527 -0.0594
  111MOL0     H14939   1.155   0.874   0.838  0.8577 -1.9141  0.6493
  111MOL0     H14940   1.154   0.702   0.799  3.5058  0.4456  1.4193
  111MOL0     H14941   1.019   0.711   0.620 -0.1459  0.6559 -0.6129
  111MOL0     H14942   1.024   0.896   0.636  1.8577 -0.3982  0.5798
  111MOL0     H14943   0.915   0.683   0.833  1.8399  0.1612  1.7207
  111MOL0     H14944   0.810   0.783   0.720  1.3918  0.2121 -0.6802
  111MOL0     H14945   0.827   1.085   0.996 -0.0205  0.1446 -0.7409
  111MOL0     H14946   0.632   1.147   1.284 -0.3004  1.0095 -0.7316
  111MOL0     H14947   0.731   1.215   1.157 -0.4981 -0.3351 -1.9995
  111MOL0     H14948   0.555   1.181   1.126 -1.3486 -1.9155 -0.2180
  111MOL0     H14949   0.308   0.968   1.473  0.2512 -0.5549  2.6533
  111MOL0     H14950   0.083   1.008   1.557  2.6197  0.6380 -0.5294
  111MOL0     H14951  -0.188   1.245   1.316 -0.1945 -0.4869 -1.7331
  111MOL0     H14952  -0.245   1.083   1.253 -1.8018  0.8538 -0.0598
  111MOL0     H14953  -0.388   1.066   1.458  1.6298 -1.1846 -2.6564
  111MOL0     H14954  -0.367   1.232   1.491  1.2014 -1.9803  1.2628
  111MOL0     H14955  -0.482   1.156   1.223  1.4479 -0.7139  0.0980
  111MOL0     H14956  -0.434   1.316   1.285  1.0871 -0.1159 -0.6941
  111MOL0     H14957  -0.674   1.154   1.356  0.9291 -1.2558  0.2010
  111MOL0     H14958  -0.601   1.226   1.494  1.0106 -1.5890 -0.2399
  111MOL0     H14959  -0.649   1.379   1.230  0.2266  1.7489 -0.5425
  111MOL0     H14960  -0.603   1.450   1.386 -2.7544  1.6910 -0.2653
  111MOL0     H14961  -0.842   1.473   1.313 -3.3961 -0.5379  0.2661
  111MOL0     H14962  -0.882   1.319   1.361 -0.8073  1.2673  0.3723
  111MOL0     H14963  -0.730   1.477   1.558  1.6848 -1.7360  0.7610
  111MOL0     H14964  -0.824   1.328   1.580 -1.2676 -0.0596  1.4526
  111MOL0     H14965  -0.919   1.624   1.518  0.8283  0.1947  1.0341
  111MOL0     H14966  -0.961   1.537   1.658  0.5364  0.3413  0.0301
  111MOL0     H14967  -0.055   1.147   1.171  0.7955  2.4439  1.2796
  111MOL0     H14968   0.186   1.097   1.083  1.2892  0.4875  1.5389
  111MOL0     H14969   0.550   0.697   1.096 -0.6562  0.5892 -0.6683
  111MOL0     H14970   0.737   0.675   0.949  3.7425  1.7317  0.8508
  111MOL0     H14971   2.480   0.763   0.765 -1.2867  1.4088 -1.1072
  111MOL0     H14972   2.660   0.703   0.933 -1.4867  1.2488  0.8282
  111MOL0     H14973   3.004   0.836   1.204  1.1471 -0.6466  1.2258
  111MOL0     H14974   3.189   0.781   1.347 -0.5744 -1.0558 -0.7166
  111MOL0     H14975   3.391   0.707   1.451  4.8072  0.7496 -0.6165
  111MOL0     H14976   3.292   0.563   1.401 -0.4720  2.1212  0.2310
  111MOL0     H14977   3.503   0.442   1.392  0.1017  2.0017 -2.8042
  111MOL0     H14978   3.472   0.516   1.550 -0.4277 -2.4654 -0.6342
  111MOL0     H14979   3.638   0.644   1.326 -0.2011 -0.6905 -0.8368
  111MOL0     H14980   3.714   0.538   1.454 -0.2185  0.4639 -1.2898
  111MOL0     H14981   3.572   0.800   1.500 -1.0449 -0.4241  1.8426
  111MOL0     H14982   3.736   0.798   1.488 -0.7951  0.7047 -0.2445
  111MOL0     H14983   3.632   0.598   1.862  0.7802  0.4780  0.9779
  111MOL0     H14984   3.421   0.705   0.986 -0.4812  1.2379 -2.1616
  111MOL0     H14985   3.245   0.766   0.855  1.8750  1.5966 -0.0707
  112MOL0     O14986   5.888   5.155   2.024 -0.4011 -0.4670  0.1853
  112MOL0     C14987   5.938   5.229   2.109 -0.7764  0.1236  0.5704
  112MOL0     O14988   5.883   5.265   2.225  0.3958  0.7544 -0.3315
  112MOL0     C14989   5.774   5.202   2.257  0.4639 -0.1073 -0.7309
  112MOL0     C14990   5.657   5.232   2.197 -0.3274 -1.0914  0.2892
  112MOL0     C14991   5.539   5.170   2.234 -0.6258 -0.0763  0.5367
  112MOL0     C14992   5.544   5.073   2.338  0.7448  0.4211  0.9523
  112MOL0     O14993   5.435   4.993   2.368 -0.3209 -0.3192  0.6512
  112MOL0     C14994   5.315   5.005   2.292 -0.2325 -0.4544 -0.0986
  112MOL0     C14995   5.231   5.121   2.343  0.5568  0.9842 -0.2690
  112MOL0     C14996   5.086   5.114   2.294  0.7140 -0.1396 -0.3114
  112MOL0     C14997   4.997   5.017   2.354  0.0788  0.8623  0.4444
  112MOL0     C14998   4.854   5.032   2.292  0.9083  0.0565 -0.1031
  112MOL0     C14999   4.791   5.176   2.312  0.6517  0.0725 -0.3139
  112MOL0     C15000   4.656   5.186   2.252  0.8647 -0.5510 -0.4429
  112MOL0     C15001   4.588   5.315   2.288  0.9000 -1.0131  0.6931
  112MOL0     N15002   4.549   5.317   2.425  0.3010  0.3326 -0.0752
  112MOL0     C15003   4.446   5.246   2.474  0.4199 -0.0808 -0.4831
  112MOL0     C15004   4.449   5.271   2.613 -0.5417 -0.0855  0.0072
  112MOL0     C15005   4.359   5.182   2.695  0.4180  0.1544  0.3215
  112MOL0     C15006   4.417   5.048   2.728  0.0343  0.2616 -0.0160
  112MOL0     C15007   4.528   5.053   2.840  0.2472 -0.3079  0.5759
  112MOL0     C15008   4.583   4.913   2.871 -0.3733 -0.5999 -0.1713
  112MOL0     O15009   4.648   4.863   2.751  0.0601 -1.3878  0.1995
  112MOL0     C15010   4.787   4.887   2.746  0.4349  0.5121 -0.0534
  112MOL0     C15011   4.852   5.007   2.753 -0.6130 -0.3880 -0.0200
  112MOL0     C15012   4.994   5.015   2.754  0.0816  0.4361 -0.3125
  112MOL0     C15013   5.050   5.151   2.791  0.6703 -0.3407 -0.1834
  112MOL0     C15014   5.072   4.893   2.731 -0.2502  0.5656 -0.4384
  112MOL0     C15015   5.215   4.884   2.747  0.1878 -0.2019 -0.2493
  112MOL0     O15016   5.270   4.766   2.759  0.1107 -0.4711 -0.1466
  112MOL0     C15017   5.377   4.753   2.839  0.1246  0.7989  0.4600
  112MOL0     C15018   5.469   4.658   2.796 -0.1601 -0.4200 -0.4908
  112MOL0     C15019   5.592   4.640   2.859 -0.2411 -0.1986  0.1573
  112MOL0     C15020   5.614   4.710   2.974 -0.4611  0.0546 -0.7717
  112MOL0     O15021   5.734   4.709   3.047  0.3906  0.2419 -0.0901
  112MOL0     C15022   5.727   4.647   3.173  0.5110  0.2953 -0.4173
  112MOL0     C15023   5.861   4.601   3.206  0.1543 -0.3550  1.0096
  112MOL0     C15024   5.887   4.521   3.343  0.3568 -0.0423  0.5257
  112MOL0     C15025   6.026   4.465   3.358  0.4620  0.1174 -0.1728
  112MOL0     C15026   6.050   4.435   3.507 -0.4425  0.3001  0.3858
  112MOL0     C15027   6.199   4.380   3.518  0.4211 -0.0394 -0.1397
  112MOL0     C15028   6.246   4.342   3.661 -0.3880 -0.4994 -0.3234
  112MOL0     C15029   6.389   4.286   3.669 -0.0518  0.1652 -0.4352
  112MOL0    Cl15030   6.415   4.241   3.841 -0.4272  0.1985 -0.7921
  112MOL0     C15031   5.516   4.787   3.037  1.8916 -0.3035  0.8693
  112MOL0     C15032   5.397   4.811   2.970 -0.1368 -0.1124  0.0977
  112MOL0     O15033   5.281   4.995   2.733 -0.3696 -0.0966  0.1482
  112MOL0     C15034   4.998   4.775   2.713 -0.7717 -0.5081 -0.4866
  112MOL0     C15035   4.858   4.772   2.722 -0.5142 -1.0442  0.2350
  112MOL0     N15036   4.542   5.375   2.647  0.4955  0.1802 -0.0961
  112MOL0     N15037   4.601   5.396   2.526  0.2289  0.5550  0.2899
  112MOL0     C15038   5.663   5.039   2.397 -0.8482 -0.9803  0.0941
  112MOL0     C15039   5.780   5.100   2.347 -0.2610  0.1121  0.0493
  112MOL0     C15040   6.064   5.292   2.083  0.1072  0.8145  0.9190
  112MOL0     C15041   6.110   5.314   1.955 -0.2189 -0.1161 -0.2872
  112MOL0     C15042   6.233   5.373   1.932 -0.1687  0.0202  0.5641
  112MOL0     C15043   6.321   5.402   2.035 -0.3468  0.6448  0.5730
  112MOL0     O15044   6.449   5.455   2.024  0.6007  0.0360 -0.2273
  112MOL0     C15045   6.517   5.464   1.899 -0.1146 -0.1011 -0.1330
  112MOL0     C15046   6.666   5.451   1.924 -0.8352 -0.0923  0.1973
  112MOL0     C15047   6.696   5.317   1.991  0.2157 -0.0189  0.1189
  112MOL0     C15048   6.839   5.289   1.996  0.0290  0.0225 -0.3969
  112MOL0     C15049   6.909   5.252   1.879 -0.6245  0.2902 -0.3958
  112MOL0     C15050   6.971   5.227   1.776  0.0481  0.5460 -0.8317
  112MOL0     C15051   6.275   5.378   2.164 -0.8104 -0.1903 -0.2448
  112MOL0     C15052   6.142   5.338   2.184 -0.6274  0.1728 -0.6076
  112MOL0     H15053   5.652   5.299   2.111  4.2181 -1.9776 -0.9006
  112MOL0     H15054   5.461   5.195   2.163  1.3473  0.2581 -1.6467
  112MOL0     H15055   5.326   5.000   2.184 -0.5327 -4.2071 -0.0705
  112MOL0     H15056   5.252   4.918   2.313 -1.8171  0.3442 -1.3322
  112MOL0     H15057   5.236   5.131   2.452  0.5154  3.7223 -0.4640
  112MOL0     H15058   5.274   5.218   2.316 -1.0968  1.1372 -2.6704
  112MOL0     H15059   5.038   5.209   2.318 -0.4610 -0.7050 -0.3479
  112MOL0     H15060   5.083   5.103   2.185 -1.1359  3.1870 -0.7055
  112MOL0     H15061   5.033   4.914   2.354  2.7491  1.7317  0.5757
  112MOL0     H15062   4.990   5.044   2.460  1.5516 -2.1728  1.4203
  112MOL0     H15063   4.867   5.021   2.184  1.3123  1.1939 -0.1795
  112MOL0     H15064   4.786   4.963   2.344  0.0344  1.0459  0.1069
  112MOL0     H15065   4.800   5.198   2.419  2.7531  0.1851 -0.4582
  112MOL0     H15066   4.845   5.253   2.256  1.3632 -1.2596 -1.5053
  112MOL0     H15067   4.643   5.184   2.143 -3.8383 -1.5426 -0.0887
  112MOL0     H15068   4.602   5.099   2.290 -3.0734 -0.0795 -4.1547
  112MOL0     H15069   4.493   5.331   2.236  2.7192  1.4152 -2.2861
  112MOL0     H15070   4.652   5.403   2.271 -0.9667  0.0800 -1.2332
  112MOL0     H15071   4.375   5.181   2.425  0.4730  1.1245 -2.2550
  112MOL0     H15072   4.335   5.221   2.795 -1.3148 -2.7010  1.1298
  112MOL0     H15073   4.262   5.169   2.647  1.7710 -4.0143 -1.7047
  112MOL0     H15074   4.452   4.999   2.637 -3.9312  1.4589 -2.4301
  112MOL0     H15075   4.354   4.977   2.782  3.8103 -2.4946  1.2030
  112MOL0     H15076   4.474   5.079   2.932  0.5788 -0.9814  0.9656
  112MOL0     H15077   4.601   5.132   2.820 -1.8155  1.7551  0.7017
  112MOL0     H15078   4.509   4.841   2.905 -0.0950  0.1548  2.2361
  112MOL0     H15079   4.658   4.926   2.951 -1.8243  1.0440  0.9920
  112MOL0     H15080   4.800   5.101   2.768  1.9480  1.1736 -0.4580
  112MOL0     H15081   5.135   5.154   2.859 -0.4624  0.5137  1.2474
  112MOL0     H15082   5.074   5.212   2.703  0.6329 -0.5791 -0.3590
  112MOL0     H15083   4.971   5.203   2.847  1.1192 -0.6369  0.7377
  112MOL0     H15084   5.448   4.605   2.704 -0.8326 -1.0999  0.0364
  112MOL0     H15085   5.659   4.570   2.810 -1.9536  0.3631 -3.3872
  112MOL0     H15086   5.700   4.711   3.257 -0.1941 -0.1144 -0.3325
  112MOL0     H15087   5.667   4.556   3.168  0.7359  0.1777 -1.1851
  112MOL0     H15088   5.881   4.536   3.121 -1.1767 -0.9036  1.0886
  112MOL0     H15089   5.936   4.680   3.195  2.3731 -2.3680  0.8741
  112MOL0     H15090   5.817   4.438   3.340  1.4087 -0.9759  0.9494
  112MOL0     H15091   5.870   4.592   3.424 -0.4915 -1.2195  1.4094
  112MOL0     H15092   6.039   4.383   3.287  3.6945  1.0707 -0.8454
  112MOL0     H15093   6.081   4.552   3.322 -2.7955  3.4814  2.1260
  112MOL0     H15094   5.979   4.359   3.541  1.0447 -0.2482  2.4600
  112MOL0     H15095   6.051   4.524   3.570  3.8575 -1.4012  3.2214
  112MOL0     H15096   6.219   4.297   3.451  4.3212  1.0110 -0.5320
  112MOL0     H15097   6.270   4.448   3.471 -0.8543 -0.9636 -3.6858
  112MOL0     H15098   6.185   4.257   3.694 -1.0884  0.2078  0.2079
  112MOL0     H15099   6.241   4.426   3.730  1.7061 -1.8973  1.7027
  112MOL0     H15100   6.470   4.351   3.635  1.8943 -3.2751 -2.9381
  112MOL0     H15101   6.403   4.199   3.604  1.4966 -0.8720  1.2070
  112MOL0     H15102   5.532   4.844   3.129  1.1805  2.0716 -0.4098
  112MOL0     H15103   5.323   4.879   3.011 -2.2041 -2.1462 -0.0582
  112MOL0     H15104   5.045   4.678   2.696  0.3592  0.6208 -5.0440
  112MOL0     H15105   4.800   4.680   2.711 -1.8448 -0.6460  3.0409
  112MOL0     H15106   5.661   4.979   2.487  0.2289 -0.7462  0.2923
  112MOL0     H15107   5.873   5.069   2.393 -0.4665  0.0228  0.4059
  112MOL0     H15108   6.054   5.293   1.865 -1.2219  1.4130 -0.0750
  112MOL0     H15109   6.257   5.378   1.826 -3.7056 -1.3254 -0.4307
  112MOL0     H15110   6.477   5.384   1.836 -2.4660 -1.4828  2.8607
  112MOL0     H15111   6.496   5.564   1.858  2.8165 -0.3702 -2.6436
  112MOL0     H15112   6.694   5.534   1.988 -0.2671  1.7797 -2.3084
  112MOL0     H15113   6.727   5.467   1.835  0.8033 -0.8744  1.1434
  112MOL0     H15114   6.643   5.237   1.940 -1.5383  2.1898 -1.7001
  112MOL0     H15115   6.665   5.338   2.094  2.2320  1.7969  0.4293
  112MOL0     H15116   6.855   5.208   2.068 -1.3738  2.3401  2.7673
  112MOL0     H15117   6.880   5.384   2.032 -0.8281  0.3224 -0.2062
  112MOL0     H15118   7.021   5.200   1.686 -2.1130  0.3496 -2.0247
  112MOL0     H15119   6.355   5.378   2.237  0.6865  2.2509 -1.7168
  112MOL0     H15120   6.122   5.323   2.290 -0.0873  1.2637 -0.3440
  113MOL0     O15121  10.577   1.679   7.245  0.3270 -0.4938  0.5306
  113MOL0     C15122  10.557   1.563   7.226  0.1513 -0.1019  0.4917
  113MOL0     O15123  10.640   1.459   7.238  0.0126  0.1362  0.2968
  113MOL0     C15124  10.773   1.494   7.227  0.4727  0.4076 -0.8084
  113MOL0     C15125  10.825   1.571   7.125  0.9555 -0.0502  0.1717
  113MOL0     C15126  10.965   1.594   7.123  0.3953  0.3140  0.0423
  113MOL0     C15127  11.044   1.569   7.224  0.0452 -0.5978  0.4028
  113MOL0     O15128  11.180   1.600   7.196  0.1795  0.2445 -0.4109
  113MOL0     C15129  11.277   1.501   7.231 -0.5798  0.6535 -0.5853
  113MOL0     C15130  11.423   1.552   7.233  0.0413  0.1640 -0.8327
  113MOL0     C15131  11.525   1.447   7.284 -0.3425 -0.1374 -0.5810
  113MOL0     C15132  11.521   1.323   7.205 -0.4526 -0.0131 -0.2117
  113MOL0     C15133  11.657   1.251   7.234  0.3588 -0.0048 -0.4644
  113MOL0     C15134  11.648   1.115   7.175  0.0845  0.2476 -0.2594
  113MOL0     C15135  11.728   1.021   7.254 -0.3224 -0.3446  0.6088
  113MOL0     C15136  11.727   0.870   7.208  0.1701 -1.0709  0.2088
  113MOL0     N15137  11.641   0.788   7.290 -0.0661  0.0456 -0.2860
  113MOL0     C15138  11.654   0.768   7.424  0.0507  0.3069 -1.0488
  113MOL0     C15139  11.532   0.727   7.464 -0.0779  0.5979  0.1774
  113MOL0     C15140  11.513   0.696   7.611 -0.7775  0.0595 -0.3986
  113MOL0     C15141  11.370   0.638   7.630 -0.4124  0.5819  0.0250
  113MOL0     C15142  11.264   0.741   7.610  0.5638  0.2367  0.3203
  113MOL0     C15143  11.124   0.679   7.630 -0.1198  0.0554 -0.1132
  113MOL0     O15144  11.028   0.718   7.528 -0.6818 -0.0275  0.2205
  113MOL0     C15145  10.902   0.668   7.521  0.6553  0.8540 -0.7630
  113MOL0     C15146  10.872   0.538   7.561 -0.3908 -0.2891 -0.4765
  113MOL0     C15147  10.747   0.482   7.549  0.1991 -0.0723  0.4482
  113MOL0     C15148  10.725   0.346   7.611 -0.2876  0.4088 -0.0695
  113MOL0     C15149  10.642   0.557   7.488  0.2950 -0.3522 -0.3356
  113MOL0     C15150  10.489   0.510   7.465 -0.4623 -0.8997  0.1154
  113MOL0     O15151  10.396   0.614   7.473  0.6639  0.0188 -0.2888
  113MOL0     C15152  10.261   0.601   7.484  1.3191  1.0307  0.1015
  113MOL0     C15153  10.184   0.504   7.409  0.3916  0.0476  0.3989
  113MOL0     C15154  10.050   0.489   7.430  0.6055  0.2984  0.1155
  113MOL0     C15155   9.981   0.564   7.529 -0.2456 -0.2806 -0.3663
  113MOL0     O15156   9.839   0.556   7.533 -0.1377 -0.6813 -0.0444
  113MOL0     C15157   9.761   0.671   7.543 -0.5333  0.2091  0.1900
  113MOL0     C15158   9.641   0.614   7.597 -0.3850  0.7716  0.4487
  113MOL0     C15159   9.540   0.729   7.654 -0.2235 -0.8981  0.3314
  113MOL0     C15160   9.517   0.840   7.558  1.5389 -0.3970 -0.1936
  113MOL0     C15161   9.389   0.929   7.600 -0.6560  0.5003  0.3896
  113MOL0     C15162   9.422   0.994   7.740 -0.1471  0.9842  1.0561
  113MOL0     C15163   9.308   1.086   7.783 -0.4639  0.8281  0.0500
  113MOL0     C15164   9.193   1.015   7.857  0.2969  0.1421 -0.3032
  113MOL0    Cl15165   9.146   0.852   7.790 -0.2122  0.1001  0.4624
  113MOL0     C15166  10.051   0.652   7.605  0.4567 -0.6992  0.3277
  113MOL0     C15167  10.191   0.655   7.594  0.9629 -0.4254  0.0117
  113MOL0     O15168  10.465   0.391   7.452  0.3893 -0.2936  0.0704
  113MOL0     C15169  10.677   0.691   7.443 -0.1774  0.3572 -0.8456
  113MOL0     C15170  10.811   0.740   7.453 -0.1976  0.5739  0.1506
  113MOL0     N15171  11.453   0.699   7.357  0.6914  0.2268 -0.0278
  113MOL0     N15172  11.512   0.744   7.252  0.2038  0.0465  0.1620
  113MOL0     C15173  10.991   1.507   7.337  0.0194  0.1175  0.1020
  113MOL0     C15174  10.860   1.471   7.339  0.5436  0.7004 -0.5549
  113MOL0     C15175  10.420   1.531   7.172 -0.8421 -0.1985 -0.2329
  113MOL0     C15176  10.323   1.626   7.159 -0.0520 -0.2141 -0.8021
  113MOL0     C15177  10.200   1.592   7.107 -0.0632 -0.2586  0.0766
  113MOL0     C15178  10.166   1.464   7.065  0.3827  0.1129  0.5125
  113MOL0     O15179  10.039   1.433   7.006 -0.5472 -1.3276 -0.1531
  113MOL0     C15180   9.945   1.538   6.999  0.2569 -0.6923 -0.0231
  113MOL0     C15181   9.806   1.499   6.934 -0.6946  0.1111  0.0835
  113MOL0     C15182   9.712   1.615   6.920 -0.1306  0.0358 -0.9887
  113MOL0     C15183   9.644   1.652   7.049 -0.1392 -0.4151 -0.4124
  113MOL0     C15184   9.534   1.746   7.028 -0.1181 -0.2972 -0.1946
  113MOL0     C15185   9.455   1.842   7.026 -0.7894 -0.6512  0.7463
  113MOL0     C15186  10.265   1.358   7.078 -0.6564  0.0329 -0.3411
  113MOL0     C15187  10.390   1.395   7.136  0.1852 -0.2535  0.2139
  113MOL0     H15188  10.760   1.604   7.045 -1.4099  0.8654  2.3454
  113MOL0     H15189  11.004   1.654   7.041  3.4915 -1.6545 -0.1056
  113MOL0     H15190  11.269   1.463   7.333 -2.9790  1.1566 -0.5261
  113MOL0     H15191  11.276   1.422   7.155 -0.7291  0.1737 -0.0979
  113MOL0     H15192  11.457   1.589   7.136  2.4170  3.2969  0.9756
  113MOL0     H15193  11.431   1.639   7.300  2.4788  0.2093 -1.0941
  113MOL0     H15194  11.623   1.494   7.294 -0.8607  0.5405  2.3596
  113MOL0     H15195  11.485   1.425   7.384  0.6453 -0.3567 -0.2223
  113MOL0     H15196  11.434   1.262   7.230 -1.3144 -0.4393 -3.7717
  113MOL0     H15197  11.525   1.341   7.098 -0.0348  0.7798 -0.0690
  113MOL0     H15198  11.736   1.313   7.189  0.3171 -2.8309 -5.0737
  113MOL0     H15199  11.679   1.256   7.341  1.6747 -0.0520 -0.7114
  113MOL0     H15200  11.543   1.085   7.172 -0.0871 -0.3103  4.1939
  113MOL0     H15201  11.683   1.115   7.072  0.2282  0.8772 -0.2135
  113MOL0     H15202  11.829   1.061   7.240 -1.0455  1.4307  0.3117
  113MOL0     H15203  11.682   1.017   7.354 -0.9982 -2.5776  0.2693
  113MOL0     H15204  11.823   0.822   7.228  1.8702  2.1476  0.3474
  113MOL0     H15205  11.705   0.860   7.101 -0.3697 -2.5923  0.4396
  113MOL0     H15206  11.745   0.778   7.483 -1.5621  0.1042  1.6664
  113MOL0     H15207  11.588   0.622   7.640  1.3435  2.6675  1.2120
  113MOL0     H15208  11.524   0.788   7.669  0.6987 -0.7139  0.6319
  113MOL0     H15209  11.364   0.609   7.735 -0.4846  1.8751  0.4041
  113MOL0     H15210  11.345   0.554   7.566 -1.9201  0.4170  0.7806
  113MOL0     H15211  11.258   0.782   7.509  0.9861  0.5780  0.4314
  113MOL0     H15212  11.278   0.822   7.682 -0.3661  1.0195 -0.3699
  113MOL0     H15213  11.079   0.731   7.715  1.3581  2.9229 -0.9548
  113MOL0     H15214  11.125   0.570   7.638 -1.1197 -0.1279 -1.9726
  113MOL0     H15215  10.942   0.471   7.611  0.8858  1.1018 -0.3405
  113MOL0     H15216  10.632   0.337   7.668 -0.0349 -2.0911  0.0354
  113MOL0     H15217  10.717   0.271   7.531 -2.1863  0.8512 -0.3506
  113MOL0     H15218  10.809   0.325   7.678 -1.8869  1.2597  2.3352
  113MOL0     H15219  10.230   0.450   7.327 -1.7845 -0.7962 -0.3397
  113MOL0     H15220   9.971   0.434   7.379  0.2240  0.0225  0.9901
  113MOL0     H15221   9.809   0.753   7.598  0.7639 -0.5970  0.3059
  113MOL0     H15222   9.733   0.713   7.446 -1.9944  1.7562  1.2272
  113MOL0     H15223   9.589   0.549   7.526  1.4470  0.0820 -0.3297
  113MOL0     H15224   9.670   0.555   7.684 -1.7766 -0.5918  0.0313
  113MOL0     H15225   9.590   0.771   7.742 -0.3102 -1.7059  0.7797
  113MOL0     H15226   9.440   0.694   7.678 -1.2537  0.5560 -1.5879
  113MOL0     H15227   9.600   0.911   7.568  0.3112  0.9944  0.6128
  113MOL0     H15228   9.507   0.805   7.455  2.2819 -1.4827  0.0864
  113MOL0     H15229   9.306   0.857   7.601 -0.0017 -0.3279 -1.0406
  113MOL0     H15230   9.360   1.011   7.533 -3.4024  0.7058  1.7020
  113MOL0     H15231   9.428   0.906   7.805  3.0851  0.8067  0.7089
  113MOL0     H15232   9.518   1.046   7.742 -2.5230  5.9101  1.9255
  113MOL0     H15233   9.277   1.137   7.692  2.1583 -0.4571 -1.6884
  113MOL0     H15234   9.347   1.157   7.857  0.0290 -0.4359  1.0530
  113MOL0     H15235   9.100   1.072   7.855 -0.2606 -0.7557 -0.6194
  113MOL0     H15236   9.218   1.000   7.962 -2.5151 -3.6809  0.0566
  113MOL0     H15237  10.004   0.718   7.677  0.4849 -1.1125  0.7370
  113MOL0     H15238  10.244   0.723   7.660 -0.7323  1.7579 -0.7605
  113MOL0     H15239  10.605   0.754   7.392 -2.2108 -3.1149 -2.5726
  113MOL0     H15240  10.838   0.835   7.408  1.5807 -1.1689 -2.8041
  113MOL0     H15241  11.057   1.478   7.418  1.6780 -0.3969 -1.3560
  113MOL0     H15242  10.826   1.431   7.434 -0.7426  1.0877 -0.8314
  113MOL0     H15243  10.346   1.727   7.191  1.3893 -1.2732  1.8118
  113MOL0     H15244  10.129   1.674   7.113 -0.4095 -0.5713  0.3259
  113MOL0     H15245   9.933   1.593   7.093 -0.7593 -0.3421 -0.3406
  113MOL0     H15246   9.993   1.608   6.930  3.2225  0.0961  2.6202
  113MOL0     H15247   9.743   1.422   6.978 -1.8679  0.0903 -1.5293
  113MOL0     H15248   9.823   1.464   6.832 -2.5128 -0.2097 -0.1471
  113MOL0     H15249   9.635   1.586   6.848  0.6806 -3.1772 -0.7400
  113MOL0     H15250   9.764   1.704   6.883 -3.6714  2.6322 -0.2157
  113MOL0     H15251   9.721   1.697   7.113  0.0850  0.7853 -1.4838
  113MOL0     H15252   9.609   1.557   7.090 -0.2093 -0.3920 -0.4198
  113MOL0     H15253   9.390   1.927   7.028  2.2033  1.8363  1.2741
  113MOL0     H15254  10.235   1.256   7.054 -2.1149  0.1524  0.7910
  113MOL0     H15255  10.463   1.315   7.133 -1.3490 -1.7055 -1.9436
  114MOL0     O15256  10.936   6.756   4.906  0.5615 -0.1758  0.1335
  114MOL0     C15257  10.917   6.644   4.945  0.9306  0.9129  0.5027
  114MOL0     O15258  10.798   6.570   4.932 -0.5972  0.0071  0.4165
  114MOL0     C15259  10.684   6.639   4.895 -0.1832  0.4315  0.8136
  114MOL0     C15260  10.651   6.775   4.923 -0.2990 -0.3258  0.3672
  114MOL0     C15261  10.525   6.827   4.892  0.6283 -0.2053 -0.4616
  114MOL0     C15262  10.434   6.746   4.825  0.1321  0.0099 -0.1488
  114MOL0     O15263  10.308   6.791   4.805 -0.1433  0.5117  0.2903
  114MOL0     C15264  10.289   6.916   4.743 -0.6646  0.3412  0.3336
  114MOL0     C15265  10.177   6.909   4.645  0.3118  1.0682  0.6262
  114MOL0     C15266  10.043   6.905   4.722  0.8311  0.4256 -0.3417
  114MOL0     C15267   9.984   7.036   4.767  0.0932 -0.2180  0.4518
  114MOL0     C15268   9.877   7.097   4.679 -0.7534  0.1237  0.0069
  114MOL0     C15269   9.749   7.020   4.707  0.1696 -0.8516  0.0209
  114MOL0     C15270   9.634   7.117   4.703  0.2523 -0.1988  0.0737
  114MOL0     C15271   9.625   7.196   4.825 -0.6274  0.2190  0.3539
  114MOL0     N15272   9.518   7.302   4.810 -0.4650 -0.0833  0.0752
  114MOL0     C15273   9.386   7.264   4.816 -0.1621  0.7834 -0.0374
  114MOL0     C15274   9.327   7.380   4.852  0.2760  0.3218 -0.2726
  114MOL0     C15275   9.170   7.387   4.865 -0.5229  1.0067 -0.2355
  114MOL0     C15276   9.104   7.253   4.895 -0.3610  0.2738 -0.2279
  114MOL0     C15277   8.960   7.273   4.950 -0.2217  0.2390 -0.3266
  114MOL0     C15278   8.855   7.274   4.832 -0.6042 -0.9476  0.1487
  114MOL0     O15279   8.810   7.409   4.824 -1.0400  0.0525  0.5060
  114MOL0     C15280   8.677   7.438   4.795 -0.4391  0.5937  0.6448
  114MOL0     C15281   8.634   7.555   4.857 -0.1064 -0.5227 -0.3030
  114MOL0     C15282   8.504   7.603   4.843  0.3389  0.0640 -0.7245
  114MOL0     C15283   8.479   7.743   4.903  0.6257 -0.3655 -0.5663
  114MOL0     C15284   8.410   7.523   4.772 -0.7860 -0.5895  0.1812
  114MOL0     C15285   8.265   7.569   4.755  0.4416  0.4002  0.5618
  114MOL0     O15286   8.185   7.460   4.725  0.7521  0.2786 -0.0649
  114MOL0     C15287   8.051   7.487   4.719  0.1096  0.1034  0.0940
  114MOL0     C15288   7.957   7.439   4.811  0.0085  0.8407  0.5208
  114MOL0     C15289   7.823   7.467   4.789 -0.4229 -0.2011  0.5812
  114MOL0     C15290   7.776   7.544   4.688  0.3669 -0.3013  0.8552
  114MOL0     O15291   7.643   7.555   4.664 -0.0147  0.4150  0.0207
  114MOL0     C15292   7.580   7.640   4.756 -0.4756 -0.2725  0.0131
  114MOL0     C15293   7.447   7.681   4.705 -0.8342  0.2342  0.2004
  114MOL0     C15294   7.354   7.773   4.777  0.0303 -0.4493  0.0046
  114MOL0     C15295   7.223   7.701   4.818  0.1981 -0.0091 -0.0720
  114MOL0     C15296   7.130   7.803   4.879 -0.3376 -0.2669 -0.3815
  114MOL0     C15297   7.034   7.870   4.769  0.3677 -0.4228 -0.0767
  114MOL0     C15298   6.945   7.989   4.822  0.4433  0.3725 -0.5600
  114MOL0     C15299   6.948   8.089   4.712  0.9311 -0.1278  0.9534
  114MOL0    Cl15300   6.846   8.229   4.757 -0.3045 -0.7402 -0.2967
  114MOL0     C15301   7.869   7.594   4.597  0.3541  0.3379  0.2671
  114MOL0     C15302   8.000   7.569   4.611  0.3144 -0.2772  0.0284
  114MOL0     O15303   8.214   7.682   4.775 -0.3101  0.4128 -0.8106
  114MOL0     C15304   8.450   7.400   4.714  0.1351  0.5783 -0.1280
  114MOL0     C15305   8.582   7.355   4.730 -0.0560  0.0616 -0.4231
  114MOL0     N15306   9.419   7.475   4.871  0.3335  0.0975  1.2683
  114MOL0     N15307   9.537   7.431   4.833 -0.5424  0.5508  0.6113
  114MOL0     C15308  10.469   6.617   4.784  0.4281  1.5121 -0.8368
  114MOL0     C15309  10.587   6.565   4.821 -0.2846 -0.5531  0.1602
  114MOL0     C15310  11.017   6.575   5.016 -0.3372 -0.5268  0.2622
  114MOL0     C15311  11.131   6.638   5.067 -0.2167  0.4376 -0.6453
  114MOL0     C15312  11.239   6.580   5.131  0.0502 -0.9792  0.6614
  114MOL0     C15313  11.241   6.442   5.152 -0.3063 -0.0771 -0.8468
  114MOL0     O15314  11.341   6.402   5.238 -0.2933  0.3021  0.3345
  114MOL0     C15315  11.328   6.269   5.297 -0.3781 -0.4490 -0.2593
  114MOL0     C15316  11.422   6.259   5.413  0.3601  0.1348  0.2897
  114MOL0     C15317  11.570   6.260   5.372 -1.2051  0.4155  0.2641
  114MOL0     C15318  11.626   6.119   5.362 -0.0653  0.4911 -0.4700
  114MOL0     C15319  11.766   6.107   5.323  0.1687 -0.1844 -0.3823
  114MOL0     C15320  11.884   6.110   5.302  0.0119 -0.4669  0.0989
  114MOL0     C15321  11.128   6.368   5.112  0.0614  0.0591 -0.1256
  114MOL0     C15322  11.027   6.431   5.033  1.0699 -0.1941 -0.3160
  114MOL0     H15323  10.726   6.846   4.957 -0.8604  2.0758 -3.0118
  114MOL0     H15324  10.499   6.926   4.928  3.1232  0.2010  0.4206
  114MOL0     H15325  10.264   6.987   4.822 -1.2857 -0.6260  1.0234
  114MOL0     H15326  10.381   6.950   4.693  0.2257  0.2914  1.8630
  114MOL0     H15327  10.161   6.998   4.583 -2.1530  0.1870 -0.1506
  114MOL0     H15328  10.201   6.821   4.586  1.5493  1.2173  0.8870
  114MOL0     H15329   9.970   6.855   4.658  0.8569 -1.1394  0.7852
  114MOL0     H15330  10.055   6.844   4.813 -2.2271  0.4101  0.1636
  114MOL0     H15331   9.957   7.030   4.873 -0.9915 -2.8269  0.0952
  114MOL0     H15332  10.068   7.106   4.767 -1.9454  2.6870  4.4943
  114MOL0     H15333   9.873   7.202   4.707  0.6487  0.8369 -2.2631
  114MOL0     H15334   9.897   7.081   4.573 -0.6993  2.0519 -0.3019
  114MOL0     H15335   9.742   6.942   4.630  2.1485  2.1659 -3.5838
  114MOL0     H15336   9.744   6.976   4.807 -0.5296  0.2733  0.4988
  114MOL0     H15337   9.651   7.186   4.619  2.9649  0.3155  0.9448
  114MOL0     H15338   9.538   7.066   4.689 -0.3893  0.7063  1.0226
  114MOL0     H15339   9.719   7.250   4.840  0.6512 -2.0211  0.8849
  114MOL0     H15340   9.604   7.129   4.909 -1.2848  1.4159  1.1745
  114MOL0     H15341   9.341   7.165   4.812 -0.0113  0.6041  1.9786
  114MOL0     H15342   9.142   7.470   4.931 -0.4896 -0.4538  1.6881
  114MOL0     H15343   9.128   7.408   4.766 -4.5142 -3.2234  0.2486
  114MOL0     H15344   9.165   7.206   4.972 -0.1310 -1.4594 -1.4065
  114MOL0     H15345   9.102   7.201   4.799 -2.8398  1.6016 -0.9689
  114MOL0     H15346   8.952   7.358   5.019  1.4837  0.0815  0.1030
  114MOL0     H15347   8.925   7.188   5.010 -0.0566  1.0426  0.9630
  114MOL0     H15348   8.774   7.204   4.854 -2.6781  1.3638  0.2650
  114MOL0     H15349   8.887   7.229   4.738  0.2079 -2.2285  0.9982
  114MOL0     H15350   8.698   7.612   4.923 -1.1767  0.5665 -0.1687
  114MOL0     H15351   8.485   7.825   4.832 -1.4076  0.6108  0.3172
  114MOL0     H15352   8.381   7.748   4.951  0.9968  2.3849  0.0782
  114MOL0     H15353   8.558   7.757   4.978  1.7794 -0.6010 -1.7074
  114MOL0     H15354   7.988   7.378   4.895  1.0654  0.5190 -0.0862
  114MOL0     H15355   7.757   7.416   4.858  1.9582  1.7870  4.7060
  114MOL0     H15356   7.557   7.589   4.850  1.6891  2.2210  2.0736
  114MOL0     H15357   7.640   7.726   4.788 -2.3413  0.2707  2.3368
  114MOL0     H15358   7.481   7.733   4.615  2.1515  2.9395  2.6428
  114MOL0     H15359   7.391   7.593   4.673  1.1867 -2.3631  3.1596
  114MOL0     H15360   7.334   7.860   4.713  1.2664  0.5028  0.8631
  114MOL0     H15361   7.398   7.825   4.862 -3.6068 -0.1020  1.8785
  114MOL0     H15362   7.159   7.663   4.738  1.9466 -1.0157 -1.0747
  114MOL0     H15363   7.246   7.626   4.894 -1.1997 -0.0140  0.3719
  114MOL0     H15364   7.189   7.879   4.932  3.1994 -2.0734 -1.4112
  114MOL0     H15365   7.057   7.764   4.951  1.6597  3.5303  4.2794
  114MOL0     H15366   7.084   7.891   4.674  2.6682 -0.8025  1.0071
  114MOL0     H15367   6.954   7.800   4.742  0.1632  0.5548 -2.2272
  114MOL0     H15368   6.980   8.034   4.915 -4.3815  0.0453  1.7745
  114MOL0     H15369   6.851   7.946   4.860  0.8770 -0.0925  0.0058
  114MOL0     H15370   6.919   8.042   4.617  0.9204 -1.7679  1.7368
  114MOL0     H15371   7.050   8.127   4.703  0.3340  1.6177  1.1155
  114MOL0     H15372   7.846   7.667   4.521  1.0332 -1.3081 -1.6186
  114MOL0     H15373   8.067   7.623   4.546 -1.0644  1.2152 -0.2160
  114MOL0     H15374   8.382   7.331   4.665  2.3954 -1.4499 -0.6656
  114MOL0     H15375   8.620   7.259   4.696 -0.0343 -0.4973  1.0967
  114MOL0     H15376  10.396   6.563   4.726 -0.2929 -0.0034  1.3552
  114MOL0     H15377  10.613   6.463   4.795  3.8706  0.5013 -0.6754
  114MOL0     H15378  11.134   6.742   5.037 -3.3461  0.3228 -1.6767
  114MOL0     H15379  11.322   6.650   5.137 -0.8428  0.2459 -0.5193
  114MOL0     H15380  11.228   6.255   5.341 -0.8321  2.9630  0.0483
  114MOL0     H15381  11.351   6.198   5.216  0.7144 -0.3829 -0.0231
  114MOL0     H15382  11.392   6.162   5.453  2.0762 -0.4476  0.2732
  114MOL0     H15383  11.411   6.338   5.487  0.3768 -1.6222  2.2810
  114MOL0     H15384  11.616   6.319   5.452 -2.7609  0.8742  0.8427
  114MOL0     H15385  11.591   6.319   5.283 -1.8182  1.5310  0.8411
  114MOL0     H15386  11.565   6.053   5.299 -3.4844  1.9691  1.0074
  114MOL0     H15387  11.627   6.076   5.463 -1.0588  1.5569  0.0323
  114MOL0     H15388  11.985   6.127   5.271 -0.2978 -0.2011 -0.8032
  114MOL0     H15389  11.124   6.260   5.124  0.9706 -0.1169 -1.2007
  114MOL0     H15390  10.942   6.373   4.998  0.0206  1.2568 -0.2173
  115MOL0     O15391   7.297   5.668   3.129  0.0542  0.4356  0.5724
  115MOL0     C15392   7.309   5.724   3.024  0.0033 -0.4962  0.6069
  115MOL0     O15393   7.430   5.755   2.963 -0.2424 -0.7511 -0.4663
  115MOL0     C15394   7.539   5.699   3.024 -0.4650  0.0889 -0.1193
  115MOL0     C15395   7.570   5.708   3.160 -1.4271  0.0294  0.4453
  115MOL0     C15396   7.689   5.649   3.201 -0.0991 -0.1323 -0.6482
  115MOL0     C15397   7.779   5.580   3.117 -0.7875  0.0622 -0.7933
  115MOL0     O15398   7.889   5.510   3.169  0.3422 -0.1306 -0.9431
  115MOL0     C15399   8.011   5.586   3.161 -0.6905  0.9161  0.4689
  115MOL0     C15400   8.113   5.492   3.213  0.3372  0.7072 -0.3770
  115MOL0     C15401   8.126   5.354   3.137 -0.2281  0.4341 -0.2680
  115MOL0     C15402   8.028   5.244   3.177  0.1040  0.2067 -0.2182
  115MOL0     C15403   8.077   5.101   3.134  0.4288 -0.7258 -0.6737
  115MOL0     C15404   8.010   4.980   3.202  0.0124  1.0671  0.8302
  115MOL0     C15405   8.106   4.863   3.232 -0.1538  0.1928  0.1494
  115MOL0     C15406   8.162   4.844   3.374 -0.1144  0.1856 -0.7779
  115MOL0     N15407   8.247   4.955   3.411  0.6634 -0.1664  0.6469
  115MOL0     C15408   8.204   5.083   3.442 -0.6566  0.3622  0.2848
  115MOL0     C15409   8.319   5.144   3.489 -0.1245  0.2694  0.4774
  115MOL0     C15410   8.328   5.288   3.523  0.0504 -0.6863  0.1152
  115MOL0     C15411   8.369   5.314   3.669  0.0562 -0.0932  0.2281
  115MOL0     C15412   8.518   5.361   3.672  0.2662 -0.3936 -0.4247
  115MOL0     C15413   8.568   5.370   3.811 -0.0477 -0.0666 -0.2549
  115MOL0     O15414   8.707   5.414   3.803 -1.1441 -0.0652 -0.2085
  115MOL0     C15415   8.775   5.467   3.910 -0.1260  0.2072  0.7115
  115MOL0     C15416   8.732   5.488   4.037  0.2168  0.5137  0.4652
  115MOL0     C15417   8.816   5.553   4.133  0.0260 -0.1667 -0.0510
  115MOL0     C15418   8.742   5.582   4.263  0.2387 -0.0254 -0.4495
  115MOL0     C15419   8.952   5.588   4.106  0.2206 -0.0920 -0.1960
  115MOL0     C15420   9.050   5.638   4.207  0.3411  0.1220  0.5120
  115MOL0     O15421   9.013   5.681   4.331 -0.6145  0.0252  0.6135
  115MOL0     C15422   9.105   5.717   4.426 -0.8686  0.0033 -0.0474
  115MOL0     C15423   9.228   5.648   4.457 -0.5283  0.1305 -0.2581
  115MOL0     C15424   9.316   5.700   4.551 -1.1533 -0.6166  0.1863
  115MOL0     C15425   9.289   5.819   4.615 -0.7316 -0.2603 -0.6969
  115MOL0     O15426   9.378   5.889   4.694 -0.7771 -0.0174 -0.1413
  115MOL0     C15427   9.379   6.029   4.673  0.3588 -0.1851 -0.3388
  115MOL0     C15428   9.503   6.075   4.757  0.9210 -0.1618  0.0992
  115MOL0     C15429   9.632   6.024   4.692 -0.8464  0.0038 -0.2071
  115MOL0     C15430   9.753   6.019   4.786 -0.5681  0.3858 -0.9927
  115MOL0     C15431   9.868   5.927   4.749  0.1179 -0.8614 -0.9869
  115MOL0     C15432  10.009   5.945   4.806 -0.7688  0.3101 -0.4057
  115MOL0     C15433  10.007   5.938   4.964  0.0276  0.7131 -0.1491
  115MOL0     C15434  10.141   5.921   5.018 -0.0076  0.2347  0.2179
  115MOL0    Cl15435  10.242   6.066   4.995 -0.0352  0.0290 -0.3130
  115MOL0     C15436   9.161   5.869   4.592 -0.3431  0.0077  0.1256
  115MOL0     C15437   9.081   5.828   4.496  0.2361  0.4697  0.3324
  115MOL0     O15438   9.165   5.626   4.170  0.0140 -0.6542 -0.3825
  115MOL0     C15439   8.988   5.564   3.976 -0.3030 -0.5447 -0.4093
  115MOL0     C15440   8.905   5.501   3.880 -0.5076 -0.5672 -0.2418
  115MOL0     N15441   8.411   5.042   3.495 -0.6147 -0.2359 -0.2109
  115MOL0     N15442   8.374   4.930   3.450  0.2016 -0.5649  0.2103
  115MOL0     C15443   7.750   5.571   2.987  0.3837  0.1162 -0.4226
  115MOL0     C15444   7.629   5.622   2.941  0.1818 -0.0614  0.4929
  115MOL0     C15445   7.178   5.758   2.954  0.7156  0.1214  0.4343
  115MOL0     C15446   7.058   5.738   3.025  0.0949  0.1534 -0.6127
  115MOL0     C15447   6.933   5.774   2.968  0.1220 -0.2310  0.7107
  115MOL0     C15448   6.923   5.821   2.836 -0.2894  0.6004  0.2885
  115MOL0     O15449   6.803   5.853   2.784 -0.4475  0.1728 -0.5753
  115MOL0     C15450   6.779   5.885   2.651  0.2787 -0.1977 -0.1813
  115MOL0     C15451   6.627   5.888   2.627  0.2568 -0.1668  0.2450
  115MOL0     C15452   6.547   5.999   2.701 -0.7841  0.2415  0.1480
  115MOL0     C15453   6.404   6.007   2.650 -1.1016  0.5472  0.1095
  115MOL0     C15454   6.309   6.069   2.738 -0.3244  0.8728 -0.0503
  115MOL0     C15455   6.239   6.126   2.818 -1.0771 -0.4739 -0.5554
  115MOL0     C15456   7.046   5.833   2.761  0.3507 -0.0201 -0.2770
  115MOL0     C15457   7.166   5.813   2.824 -0.1544  0.0353  0.5732
  115MOL0     H15458   7.515   5.757   3.239 -1.0186  2.4326 -0.6486
  115MOL0     H15459   7.711   5.662   3.307  1.1919  0.1180 -0.9337
  115MOL0     H15460   8.038   5.610   3.057 -0.0336  1.1720  0.6940
  115MOL0     H15461   8.006   5.680   3.216  1.1021  1.4038 -0.1303
  115MOL0     H15462   8.211   5.538   3.202  0.6261  0.2740  0.3378
  115MOL0     H15463   8.091   5.470   3.318  0.7449 -0.1865 -0.4732
  115MOL0     H15464   8.112   5.365   3.029  1.7292  0.6859 -0.5353
  115MOL0     H15465   8.228   5.320   3.156 -0.6059  0.4330  2.0111
  115MOL0     H15466   8.025   5.257   3.286  2.1329  2.8565 -0.3979
  115MOL0     H15467   7.930   5.257   3.130 -0.9591  1.6534  2.2183
  115MOL0     H15468   8.063   5.095   3.026  0.3935 -1.0668 -0.6507
  115MOL0     H15469   8.186   5.093   3.139  0.6740  1.5619 -1.3972
  115MOL0     H15470   7.962   5.020   3.292 -0.8588 -0.5748  1.1244
  115MOL0     H15471   7.927   4.953   3.137 -0.0588  1.9137  0.5538
  115MOL0     H15472   8.053   4.769   3.217  0.5478 -0.3137  0.7553
  115MOL0     H15473   8.177   4.845   3.150 -0.9890 -5.4181  0.2369
  115MOL0     H15474   8.234   4.761   3.381  0.0567  0.4316  0.7736
  115MOL0     H15475   8.085   4.826   3.450 -2.0569  2.1229 -2.1929
  115MOL0     H15476   8.114   5.143   3.443  0.3795  2.0089 -0.8258
  115MOL0     H15477   8.394   5.331   3.448 -2.5515  0.4103 -1.7002
  115MOL0     H15478   8.234   5.340   3.503  0.6547  0.0892 -0.7695
  115MOL0     H15479   8.355   5.217   3.719  1.0585  0.6486  2.0052
  115MOL0     H15480   8.297   5.378   3.721  0.1261 -0.5915  0.9558
  115MOL0     H15481   8.534   5.462   3.632 -0.1640 -0.6332 -1.2452
  115MOL0     H15482   8.577   5.296   3.608  1.4777  0.0926  0.1665
  115MOL0     H15483   8.566   5.269   3.853  0.3848 -0.0979 -0.3085
  115MOL0     H15484   8.508   5.437   3.874 -1.9901 -0.1511 -1.8920
  115MOL0     H15485   8.629   5.466   4.061  0.0406  2.5700  1.8580
  115MOL0     H15486   8.647   5.529   4.268  0.8522 -1.1871 -0.8266
  115MOL0     H15487   8.798   5.544   4.348 -0.4957  1.9491  0.9945
  115MOL0     H15488   8.724   5.689   4.281  0.1555 -0.2867  1.1613
  115MOL0     H15489   9.260   5.557   4.409  3.1460  0.9379  0.4095
  115MOL0     H15490   9.411   5.646   4.558  0.1365  1.5677  0.3489
  115MOL0     H15491   9.391   6.059   4.568 -0.3444  2.9541  0.3893
  115MOL0     H15492   9.293   6.083   4.715  1.7014 -0.2849  2.7394
  115MOL0     H15493   9.522   6.183   4.754  3.6955 -0.5633 -0.4915
  115MOL0     H15494   9.492   6.047   4.862 -0.4764  3.0208  0.9102
  115MOL0     H15495   9.647   6.100   4.615  0.4408  0.1540  0.1650
  115MOL0     H15496   9.613   5.930   4.638  0.6013 -0.1262 -0.5213
  115MOL0     H15497   9.769   6.123   4.815  2.1018 -0.1586 -0.2957
  115MOL0     H15498   9.717   5.974   4.879  0.5213 -1.4227 -1.3990
  115MOL0     H15499   9.873   5.927   4.640  1.6493 -0.8253 -0.9330
  115MOL0     H15500   9.850   5.826   4.786  1.4560 -0.4790  0.9129
  115MOL0     H15501  10.066   5.860   4.769  1.2353  0.6323  1.7212
  115MOL0     H15502  10.052   6.042   4.781  2.0757 -0.6666  0.3330
  115MOL0     H15503   9.952   5.850   4.999  1.2134  0.5760  1.5085
  115MOL0     H15504   9.967   6.022   5.022 -1.4010  0.6225 -0.9775
  115MOL0     H15505  10.183   5.828   4.979 -1.5764  0.2860 -1.7407
  115MOL0     H15506  10.131   5.902   5.126 -2.2196  2.5495  0.5215
  115MOL0     H15507   9.129   5.942   4.666 -1.2252  0.0050 -0.2389
  115MOL0     H15508   8.983   5.873   4.480 -0.3495 -0.5414  0.9555
  115MOL0     H15509   9.085   5.584   3.931 -0.5129 -1.0413 -1.1034
  115MOL0     H15510   8.942   5.483   3.780  1.3541  2.4542 -0.2063
  115MOL0     H15511   7.809   5.511   2.917 -1.1863 -2.6811  0.4934
  115MOL0     H15512   7.597   5.612   2.838  0.1005  0.5437  0.4551
  115MOL0     H15513   7.060   5.714   3.131 -2.2358 -0.1045 -0.5764
  115MOL0     H15514   6.840   5.761   3.022 -1.0520 -2.7549 -1.6317
  115MOL0     H15515   6.835   5.978   2.636  2.2082 -1.1927  0.5177
  115MOL0     H15516   6.822   5.804   2.592  2.9411 -0.9193  2.5294
  115MOL0     H15517   6.591   5.793   2.668 -0.8683  0.8076  1.6684
  115MOL0     H15518   6.616   5.901   2.519  2.8819  0.2255 -0.0408
  115MOL0     H15519   6.602   6.093   2.709 -1.6750  0.9696 -1.7402
  115MOL0     H15520   6.527   5.958   2.800 -0.5893 -1.3463 -0.4419
  115MOL0     H15521   6.371   5.908   2.618 -0.3426  1.0908 -2.6207
  115MOL0     H15522   6.395   6.061   2.555  2.7552  2.1783  0.4701
  115MOL0     H15523   6.175   6.187   2.879 -0.0297  0.9111 -0.8093
  115MOL0     H15524   7.046   5.881   2.664  0.3150 -0.4416 -0.4886
  115MOL0     H15525   7.256   5.841   2.768 -0.6716 -1.1071 -0.9015
  116MOL0     O15526   6.936   9.390   1.674  0.4521 -0.0335 -0.4306
  116MOL0     C15527   6.952   9.445   1.569 -1.1939  0.2740  0.1791
  116MOL0     O15528   6.867   9.535   1.503  0.2325  0.1733 -0.5644
  116MOL0     C15529   6.730   9.550   1.542 -0.5248 -0.7450 -0.1922
  116MOL0     C15530   6.686   9.571   1.676  0.6352 -0.1273  0.6969
  116MOL0     C15531   6.541   9.590   1.690  0.3617 -0.5909  0.6042
  116MOL0     C15532   6.444   9.587   1.594  0.2459  0.4016  0.1594
  116MOL0     O15533   6.311   9.608   1.600 -0.0576 -0.5317 -0.2351
  116MOL0     C15534   6.263   9.635   1.734  0.4061  0.7906 -0.3071
  116MOL0     C15535   6.108   9.646   1.726  0.2654 -0.3079  0.3200
  116MOL0     C15536   6.055   9.675   1.871 -0.3433  1.1481 -0.3724
  116MOL0     C15537   5.936   9.758   1.868 -0.3143 -0.7917 -0.5184
  116MOL0     C15538   5.880   9.802   2.005 -0.3215  0.9476 -1.0062
  116MOL0     C15539   5.752   9.881   1.992  0.0805  0.1964  0.3142
  116MOL0     C15540   5.696   9.919   2.137  0.1146 -0.4967  0.7073
  116MOL0     C15541   5.656  10.067   2.130  0.3717 -1.0258 -0.0416
  116MOL0     N15542   5.539  10.099   2.041 -0.2507 -0.6582 -0.0080
  116MOL0     C15543   5.425  10.023   2.023  0.1322 -0.4808  0.4363
  116MOL0     C15544   5.352  10.098   1.943 -0.0062  0.3705 -0.5088
  116MOL0     C15545   5.212  10.078   1.905  0.1967  0.3828  0.7013
  116MOL0     C15546   5.122  10.074   2.031  0.1347  0.3712 -0.1280
  116MOL0     C15547   5.124  10.201   2.119  0.2194 -0.2688  0.1283
  116MOL0     C15548   5.042  10.179   2.238  0.1557  0.7088 -0.1464
  116MOL0     O15549   5.032  10.291   2.321  0.8749 -0.0848  0.2601
  116MOL0     C15550   5.148  10.326   2.398  0.4299  0.6921 -0.1862
  116MOL0     C15551   5.262  10.240   2.407  0.0463  1.1317 -0.4574
  116MOL0     C15552   5.369  10.264   2.497  0.7208 -0.9876  0.8218
  116MOL0     C15553   5.486  10.170   2.481  0.2865 -0.3847 -0.0592
  116MOL0     C15554   5.367  10.388   2.575  1.1917  1.3998  1.1545
  116MOL0     C15555   5.470  10.408   2.676  0.8236  0.2391  0.0844
  116MOL0     O15556   5.504  10.303   2.758 -0.1835  0.5373  0.8964
  116MOL0     C15557   5.541  10.319   2.890  0.2036  0.4989  0.1879
  116MOL0     C15558   5.608  10.214   2.959 -0.0686  0.4059  0.2240
  116MOL0     C15559   5.648  10.226   3.097  0.1692 -0.5951 -0.3123
  116MOL0     C15560   5.633  10.344   3.164 -0.0354 -0.2486 -0.8440
  116MOL0     O15561   5.693  10.345   3.290  0.2215 -0.9658  0.2875
  116MOL0     C15562   5.789  10.450   3.303 -1.3690  0.2132 -0.4185
  116MOL0     C15563   5.853  10.431   3.446  0.4045 -0.5030 -0.0445
  116MOL0     C15564   5.879  10.283   3.487 -0.6246  0.6166  0.3520
  116MOL0     C15565   5.956  10.272   3.614 -0.2461  0.2371 -0.3494
  116MOL0     C15566   5.958  10.124   3.669  0.1171 -0.6090 -0.8047
  116MOL0     C15567   6.063  10.109   3.779 -0.9504  0.3148 -0.1158
  116MOL0     C15568   6.211  10.146   3.743  1.1320  0.5129 -1.1275
  116MOL0     C15569   6.257  10.087   3.609  0.7177 -0.3650 -0.0574
  116MOL0    Cl15570   6.236   9.908   3.611  0.0259  0.0966 -0.0616
  116MOL0     C15571   5.575  10.452   3.094  0.1278  0.5300  0.6774
  116MOL0     C15572   5.517  10.438   2.967  0.3785 -1.6168  0.0520
  116MOL0     O15573   5.524  10.517   2.679 -0.1627 -0.5732  0.0180
  116MOL0     C15574   5.257  10.475   2.549 -0.1852  0.3151 -0.5885
  116MOL0     C15575   5.148  10.444   2.460  0.1886  0.2995 -0.4875
  116MOL0     N15576   5.410  10.212   1.906 -0.1231 -0.4990  0.2755
  116MOL0     N15577   5.530  10.214   1.963  0.1412  0.0632  0.4653
  116MOL0     C15578   6.493   9.553   1.461  0.0971  0.0449 -0.2239
  116MOL0     C15579   6.633   9.546   1.436  0.0025  0.1882 -0.3915
  116MOL0     C15580   7.086   9.431   1.500  0.2953 -0.5025 -0.3171
  116MOL0     C15581   7.205   9.400   1.557 -0.5666  0.3114  0.3943
  116MOL0     C15582   7.324   9.389   1.483  0.4384 -0.7697  0.2913
  116MOL0     C15583   7.320   9.389   1.342 -0.1920  0.6297  0.1996
  116MOL0     O15584   7.426   9.357   1.258 -0.5421 -0.0928  0.4192
  116MOL0     C15585   7.553   9.408   1.311  0.0182  0.6468 -0.4631
  116MOL0     C15586   7.673   9.404   1.216  0.5806 -0.1638 -0.3292
  116MOL0     C15587   7.715   9.270   1.168 -0.2186 -0.4089  0.1480
  116MOL0     C15588   7.847   9.259   1.096 -0.6607  0.3754 -0.2986
  116MOL0     C15589   7.858   9.331   0.969 -0.1029 -0.7525  0.3631
  116MOL0     C15590   7.882   9.408   0.874  0.5624 -0.0119  1.4679
  116MOL0     C15591   7.196   9.421   1.284 -0.0285 -0.0927 -0.1006
  116MOL0     C15592   7.086   9.441   1.367 -0.0843 -0.3954  0.5034
  116MOL0     H15593   6.751   9.567   1.763  3.3748 -0.8106 -1.2728
  116MOL0     H15594   6.512   9.596   1.794 -1.8856  1.6807 -0.0537
  116MOL0     H15595   6.303   9.558   1.802  1.1206  0.0475 -1.5333
  116MOL0     H15596   6.298   9.733   1.769  1.5818  0.6220 -0.9485
  116MOL0     H15597   6.084   9.721   1.651 -1.0694 -0.1972  0.8321
  116MOL0     H15598   6.060   9.553   1.694  0.4570 -0.3152  0.0531
  116MOL0     H15599   6.023   9.581   1.918  1.6227 -0.4294 -1.9846
  116MOL0     H15600   6.124   9.730   1.934 -0.8599 -1.8871  3.1974
  116MOL0     H15601   5.959   9.853   1.817 -1.6456 -0.2855 -0.2074
  116MOL0     H15602   5.865   9.707   1.804 -0.5670  1.5193 -2.2036
  116MOL0     H15603   5.870   9.713   2.069  1.0013  3.4489  3.0764
  116MOL0     H15604   5.963   9.848   2.059  1.2197  0.4707 -2.8777
  116MOL0     H15605   5.768   9.968   1.928 -2.7417  2.7272  2.7708
  116MOL0     H15606   5.672   9.822   1.946 -0.6251  1.2833  0.1285
  116MOL0     H15607   5.616   9.846   2.155 -1.9258  1.2817 -0.6498
  116MOL0     H15608   5.780   9.899   2.204  0.7034 -2.9926 -0.6416
  116MOL0     H15609   5.745  10.125   2.107 -0.1643 -0.8932 -1.9686
  116MOL0     H15610   5.637  10.100   2.232 -1.3287 -0.5280 -0.4891
  116MOL0     H15611   5.394   9.939   2.085 -1.3998 -2.2885 -2.5204
  116MOL0     H15612   5.178  10.151   1.832  0.5160 -0.5368 -0.3949
  116MOL0     H15613   5.206   9.984   1.849  2.2912  1.5703 -1.6891
  116MOL0     H15614   5.157   9.989   2.090 -0.7502  0.4556  0.5314
  116MOL0     H15615   5.022  10.055   1.992  1.0212 -0.3667 -2.2220
  116MOL0     H15616   5.087  10.286   2.061  3.7946  0.9076 -0.6474
  116MOL0     H15617   5.223  10.230   2.154  0.9140 -0.4057 -1.6165
  116MOL0     H15618   5.072  10.094   2.299 -1.4110  0.8279  0.8368
  116MOL0     H15619   4.946  10.140   2.204  0.0484 -0.1758  1.1147
  116MOL0     H15620   5.268  10.151   2.344  2.8741 -1.2668  2.7788
  116MOL0     H15621   5.547  10.218   2.404  1.0441 -3.0912 -1.2651
  116MOL0     H15622   5.544  10.159   2.573  0.6559 -0.0852 -0.2510
  116MOL0     H15623   5.460  10.076   2.433 -0.8531  1.8620 -4.3727
  116MOL0     H15624   5.629  10.122   2.907  0.9951 -0.5209  2.1693
  116MOL0     H15625   5.686  10.147   3.162 -2.8901 -2.3688 -0.4781
  116MOL0     H15626   5.868  10.439   3.228 -0.2165 -1.4033  0.9638
  116MOL0     H15627   5.744  10.550   3.297 -2.0291 -0.0062  0.6697
  116MOL0     H15628   5.951  10.478   3.462 -0.2001  0.0918  2.2374
  116MOL0     H15629   5.780  10.478   3.512 -0.9328  2.5666 -3.4019
  116MOL0     H15630   5.927  10.237   3.400 -0.2702  0.3443  0.6901
  116MOL0     H15631   5.780  10.236   3.500 -1.2542  2.2326  1.6347
  116MOL0     H15632   6.050  10.325   3.595 -1.0961  1.5068 -1.2713
  116MOL0     H15633   5.908  10.323   3.698  0.9516 -0.4601  0.8023
  116MOL0     H15634   5.974  10.046   3.594  0.6720 -3.8804  2.4327
  116MOL0     H15635   5.860  10.113   3.716 -0.0247 -1.7827 -1.3585
  116MOL0     H15636   6.027  10.175   3.859 -1.3719  0.4178 -0.3855
  116MOL0     H15637   6.065  10.006   3.814  2.1384  0.1292 -0.5304
  116MOL0     H15638   6.275  10.105   3.821  0.2292 -1.5900 -1.4451
  116MOL0     H15639   6.206  10.255   3.735  1.1521  0.4343 -2.4682
  116MOL0     H15640   6.364  10.100   3.590  0.6889  3.1719  1.4473
  116MOL0     H15641   6.190  10.131   3.535 -0.2469 -0.4528  0.7427
  116MOL0     H15642   5.578  10.547   3.146  0.5326  0.2460  1.1801
  116MOL0     H15643   5.467  10.524   2.923 -2.3955 -0.5690  4.6780
  116MOL0     H15644   5.279  10.569   2.600  2.1702  0.1012 -1.0894
  116MOL0     H15645   5.061  10.503   2.433  0.0608  0.1391 -0.4328
  116MOL0     H15646   6.436   9.542   1.370  0.2963 -1.7187 -0.1806
  116MOL0     H15647   6.656   9.519   1.334 -0.4477 -3.0727  0.2837
  116MOL0     H15648   7.197   9.376   1.663 -1.3442 -4.1003 -0.4448
  116MOL0     H15649   7.410   9.370   1.547  0.2395  0.1058  0.8302
  116MOL0     H15650   7.532   9.511   1.341 -1.7801  0.3312 -0.5234
  116MOL0     H15651   7.581   9.341   1.393  0.7738 -0.3261 -1.4959
  116MOL0     H15652   7.758   9.455   1.262 -0.9770  3.5915 -1.2724
  116MOL0     H15653   7.652   9.459   1.124  0.5900  0.8509  0.2661
  116MOL0     H15654   7.641   9.232   1.098 -1.5328  1.1417  0.6438
  116MOL0     H15655   7.721   9.208   1.258 -0.9370  2.1269  2.0607
  116MOL0     H15656   7.874   9.153   1.097  1.2866  0.8215  0.9082
  116MOL0     H15657   7.922   9.305   1.161  0.5493 -0.4254 -1.0815
  116MOL0     H15658   7.927   9.467   0.797  1.4081  1.8051  3.2772
  116MOL0     H15659   7.197   9.433   1.176  1.8260 -1.5245 -0.2898
  116MOL0     H15660   6.996   9.461   1.309  1.9668  0.0351 -2.7684
  117MOL0     O15661   5.236   9.539   4.636 -0.1074  0.2731  0.0879
  117MOL0     C15662   5.266   9.548   4.755  0.5791  0.4133  0.1634
  117MOL0     O15663   5.175   9.546   4.860  0.9939 -0.2140 -0.5522
  117MOL0     C15664   5.038   9.574   4.845 -0.2397  0.7801 -0.1354
  117MOL0     C15665   4.974   9.639   4.740  0.0344 -0.2653 -0.0401
  117MOL0     C15666   4.836   9.622   4.709  0.2019  0.8109  0.0652
  117MOL0     C15667   4.748   9.551   4.791 -0.0053 -0.5847 -0.1636
  117MOL0     O15668   4.617   9.524   4.776 -0.6145  0.5438 -0.4069
  117MOL0     C15669   4.554   9.576   4.656 -0.0067  0.0359 -0.0268
  117MOL0     C15670   4.475   9.459   4.611 -0.0292  0.4381  0.6103
  117MOL0     C15671   4.368   9.490   4.507 -0.0196  0.2045  0.1352
  117MOL0     C15672   4.269   9.376   4.497  0.5052 -0.3135 -0.3330
  117MOL0     C15673   4.148   9.418   4.412 -0.0894 -0.7662 -0.2831
  117MOL0     C15674   4.059   9.296   4.395 -0.5694 -0.1978  0.0918
  117MOL0     C15675   3.952   9.316   4.286 -0.4967  0.2948 -0.5006
  117MOL0     C15676   3.998   9.293   4.143  0.1451  0.1150  0.0829
  117MOL0     N15677   3.904   9.351   4.047 -0.7704  0.0878  0.0315
  117MOL0     C15678   3.789   9.290   3.995 -0.7409  0.5080 -0.1394
  117MOL0     C15679   3.728   9.397   3.930 -0.1503  0.4906  0.3293
  117MOL0     C15680   3.606   9.398   3.836  0.7400  0.1185 -0.2345
  117MOL0     C15681   3.481   9.355   3.919  1.4264 -0.0377 -0.4518
  117MOL0     C15682   3.348   9.360   3.842  0.5644 -0.1273  0.5073
  117MOL0     C15683   3.308   9.501   3.814 -0.3355 -0.1951  0.6986
  117MOL0     O15684   3.266   9.588   3.919 -0.1809  0.7295  0.1981
  117MOL0     C15685   3.143   9.549   3.957  0.1291  0.3923 -0.0669
  117MOL0     C15686   3.033   9.582   3.882  1.1464  0.3926  1.4513
  117MOL0     C15687   2.907   9.542   3.916 -0.0431  0.2661  0.2581
  117MOL0     C15688   2.799   9.587   3.827 -0.0312 -0.0683 -0.1346
  117MOL0     C15689   2.888   9.467   4.025  0.3358 -0.1203 -0.4388
  117MOL0     C15690   2.753   9.425   4.066  0.2437  0.3601  0.2228
  117MOL0     O15691   2.667   9.375   3.971  0.8846 -0.6797 -0.3256
  117MOL0     C15692   2.534   9.362   4.006  0.0322 -0.2738  0.1624
  117MOL0     C15693   2.483   9.319   4.122 -0.2421  0.5875  0.6604
  117MOL0     C15694   2.345   9.313   4.130 -0.7379  0.3429 -1.2183
  117MOL0     C15695   2.249   9.339   4.032 -1.6944  0.2364  0.4783
  117MOL0     O15696   2.120   9.308   4.064  0.0398  0.4864  0.0703
  117MOL0     C15697   2.018   9.376   3.991 -0.0317 -0.0837 -0.1365
  117MOL0     C15698   1.984   9.516   4.038  0.0677 -0.3934 -0.4309
  117MOL0     C15699   1.912   9.520   4.171  0.1186  0.2915 -0.5887
  117MOL0     C15700   1.764   9.525   4.142 -0.6658 -0.2506 -0.2888
  117MOL0     C15701   1.696   9.497   4.284 -0.6727 -0.3130  0.4030
  117MOL0     C15702   1.545   9.514   4.276  0.1507 -0.1854  0.4493
  117MOL0     C15703   1.472   9.389   4.214  0.0811 -0.4066  1.0361
  117MOL0     C15704   1.474   9.258   4.304  0.1721 -0.0472  0.3372
  117MOL0    Cl15705   1.404   9.124   4.207  0.4404  0.1882  0.4852
  117MOL0     C15706   2.307   9.377   3.905  0.0469 -0.1624 -0.2731
  117MOL0     C15707   2.451   9.383   3.890  1.2149 -0.4316 -0.2890
  117MOL0     O15708   2.730   9.436   4.189 -0.3465 -1.1747  0.1610
  117MOL0     C15709   2.991   9.433   4.110 -1.4278 -0.3930 -0.4344
  117MOL0     C15710   3.121   9.469   4.068 -0.7023 -0.4697 -0.2429
  117MOL0     N15711   3.810   9.515   3.956  0.2448  0.0668 -0.0747
  117MOL0     N15712   3.915   9.477   4.004  0.0591 -0.6780  0.0758
  117MOL0     C15713   4.808   9.509   4.914 -0.1904  0.0261  0.0120
  117MOL0     C15714   4.950   9.515   4.939 -0.6063  0.5981  0.7111
  117MOL0     C15715   5.409   9.554   4.790 -0.8702  0.7058 -1.0091
  117MOL0     C15716   5.512   9.575   4.698 -0.7726  0.7350  0.7589
  117MOL0     C15717   5.641   9.585   4.741 -0.9130 -0.7665 -0.3909
  117MOL0     C15718   5.678   9.590   4.877 -0.5716 -0.0974  0.8298
  117MOL0     O15719   5.808   9.626   4.931 -0.6081  0.9043 -0.3189
  117MOL0     C15720   5.930   9.600   4.856 -0.4090  0.6773  0.7498
  117MOL0     C15721   5.979   9.728   4.779 -0.3561 -0.0163  0.3042
  117MOL0     C15722   5.974   9.847   4.869 -0.5402 -0.2768  0.3471
  117MOL0     C15723   6.079   9.954   4.822 -0.6645 -0.3963 -0.1011
  117MOL0     C15724   6.041  10.007   4.694  0.3058  0.1368  0.3546
  117MOL0     C15725   6.026  10.043   4.578  0.2926 -0.4926 -0.7140
  117MOL0     C15726   5.576   9.582   4.966  0.5945 -0.0770 -0.8548
  117MOL0     C15727   5.438   9.566   4.930 -0.2634  0.0720 -0.1727
  117MOL0     H15728   5.032   9.703   4.674 -1.3144  1.0894  0.0356
  117MOL0     H15729   4.814   9.665   4.612 -0.5903  0.1784 -0.0458
  117MOL0     H15730   4.487   9.656   4.689  1.2046  1.9361 -1.9184
  117MOL0     H15731   4.621   9.610   4.578 -0.5705 -1.2873 -1.1457
  117MOL0     H15732   4.545   9.391   4.559 -2.0885 -1.9268  0.7451
  117MOL0     H15733   4.431   9.403   4.694 -1.2897  0.4707 -0.0242
  117MOL0     H15734   4.319   9.579   4.548 -0.7668 -0.3685  0.5323
  117MOL0     H15735   4.409   9.519   4.410 -2.7239  2.0422 -0.6007
  117MOL0     H15736   4.325   9.294   4.451 -0.0004 -1.0348  0.3074
  117MOL0     H15737   4.236   9.338   4.594 -1.1496 -0.4930 -0.9389
  117MOL0     H15738   4.098   9.498   4.466 -0.4300 -1.9025  1.1675
  117MOL0     H15739   4.178   9.467   4.319 -1.7190 -0.1137 -0.4933
  117MOL0     H15740   4.117   9.206   4.375  0.3058  0.4655 -0.4638
  117MOL0     H15741   4.007   9.276   4.489 -0.8107  0.4155  0.0947
  117MOL0     H15742   3.871   9.245   4.305 -0.8002  0.6067 -0.6319
  117MOL0     H15743   3.910   9.416   4.293  2.3121  1.4764  1.8307
  117MOL0     H15744   4.014   9.187   4.122  0.8778  0.5665 -1.8992
  117MOL0     H15745   4.099   9.334   4.138  0.7428 -0.9621  2.0032
  117MOL0     H15746   3.749   9.192   4.019  1.1353  0.2269  2.2286
  117MOL0     H15747   3.600   9.499   3.793  1.7866  0.2608 -0.0743
  117MOL0     H15748   3.622   9.325   3.756  2.1536  2.1072 -1.8965
  117MOL0     H15749   3.464   9.426   4.001  2.0035 -1.1194  0.6358
  117MOL0     H15750   3.498   9.252   3.953 -0.3114 -0.7518 -1.6135
  117MOL0     H15751   3.267   9.313   3.899  0.1575 -0.6813 -0.5016
  117MOL0     H15752   3.374   9.310   3.749  2.4595 -1.1928  1.5658
  117MOL0     H15753   3.233   9.495   3.735  1.3350  2.8381 -1.3378
  117MOL0     H15754   3.395   9.550   3.768  0.5607 -1.6196  0.8138
  117MOL0     H15755   3.044   9.638   3.790  3.0565 -0.5996  1.0115
  117MOL0     H15756   2.832   9.660   3.753 -0.3577 -1.7343 -2.0070
  117MOL0     H15757   2.764   9.507   3.761  0.9663  0.5044 -1.4114
  117MOL0     H15758   2.710   9.622   3.880 -0.6848 -1.5088 -0.2493
  117MOL0     H15759   2.544   9.284   4.204  2.0802  1.7061 -0.5119
  117MOL0     H15760   2.299   9.264   4.215 -0.4678  1.8037 -0.1950
  117MOL0     H15761   2.040   9.382   3.884  0.0513 -0.4654 -0.1417
  117MOL0     H15762   1.924   9.321   3.993  0.2569 -0.7363 -2.1225
  117MOL0     H15763   2.078   9.566   4.061 -0.6262  1.2115 -0.9103
  117MOL0     H15764   1.936   9.561   3.950 -1.5579 -2.6776 -0.8070
  117MOL0     H15765   1.948   9.598   4.239  1.6835  0.8113 -1.9263
  117MOL0     H15766   1.942   9.430   4.225  1.7756  1.1503 -0.0105
  117MOL0     H15767   1.739   9.625   4.108  1.5320  1.0312  1.5787
  117MOL0     H15768   1.736   9.457   4.061 -1.9386  1.1925 -1.1096
  117MOL0     H15769   1.731   9.570   4.357 -0.3498 -0.6349  0.5766
  117MOL0     H15770   1.721   9.394   4.313 -1.6223 -2.0612 -4.1191
  117MOL0     H15771   1.511   9.519   4.380  2.8044  0.5255  1.3613
  117MOL0     H15772   1.515   9.608   4.228  0.2448  0.6218  1.9217
  117MOL0     H15773   1.526   9.371   4.121 -1.6381  2.4917 -0.6733
  117MOL0     H15774   1.367   9.400   4.189  0.6660  2.4382 -0.6757
  117MOL0     H15775   1.421   9.283   4.396 -2.1068 -0.5154 -0.7767
  117MOL0     H15776   1.574   9.219   4.325 -0.4988 -2.1740 -0.1642
  117MOL0     H15777   2.250   9.383   3.813  0.5334  0.4849 -0.5395
  117MOL0     H15778   2.495   9.402   3.792  1.7328  3.4482  0.5254
  117MOL0     H15779   2.978   9.390   4.209 -2.3095  0.4368 -0.1708
  117MOL0     H15780   3.209   9.451   4.129 -0.4077  1.0054 -0.1895
  117MOL0     H15781   4.741   9.466   4.988 -2.6852  2.7830 -0.4612
  117MOL0     H15782   5.000   9.481   5.029 -0.2079 -1.5675 -0.2442
  117MOL0     H15783   5.500   9.576   4.590 -1.4620 -2.0869  0.7261
  117MOL0     H15784   5.711   9.598   4.659  3.1790 -0.6900  2.7538
  117MOL0     H15785   6.006   9.582   4.934 -0.8984  2.1685  1.6183
  117MOL0     H15786   5.928   9.512   4.791  0.0270  3.3941 -3.2666
  117MOL0     H15787   5.918   9.741   4.689 -0.5309  1.7360  0.6364
  117MOL0     H15788   6.083   9.709   4.752  1.4441  4.0016  3.3296
  117MOL0     H15789   5.999   9.813   4.970  0.2873 -2.4550 -0.5312
  117MOL0     H15790   5.875   9.892   4.877  0.6258  3.0994 -1.9659
  117MOL0     H15791   6.171   9.898   4.807  0.5850  1.2768  1.0387
  117MOL0     H15792   6.105  10.039   4.885  2.8144  0.3578 -2.3117
  117MOL0     H15793   6.004  10.085   4.482  0.6273  2.4282  0.3960
  117MOL0     H15794   5.601   9.583   5.072 -0.3741  1.9780 -0.5834
  117MOL0     H15795   5.365   9.553   5.009 -1.5668 -0.6682 -1.4336
  118MOL0     O15796   8.089   8.916   8.652 -0.7795  0.4178 -0.4014
  118MOL0     C15797   8.157   9.014   8.637  0.2705 -0.3605 -0.8398
  118MOL0     O15798   8.293   9.033   8.662 -0.2148  0.0882  0.9508
  118MOL0     C15799   8.364   8.924   8.692 -0.0781  0.4237 -0.0024
  118MOL0     C15800   8.381   8.883   8.823 -0.3109 -0.0099  0.4368
  118MOL0     C15801   8.472   8.776   8.859 -0.6618 -0.6291 -0.5864
  118MOL0     C15802   8.543   8.716   8.752 -1.3509 -1.0738 -0.3544
  118MOL0     O15803   8.633   8.617   8.788  0.4567 -0.3589  0.8285
  118MOL0     C15804   8.769   8.650   8.772 -0.2300 -0.3606  0.3622
  118MOL0     C15805   8.810   8.765   8.872  1.3954  0.7836  0.0200
  118MOL0     C15806   8.956   8.777   8.893  0.3541  0.1751  0.0031
  118MOL0     C15807   9.024   8.664   8.977 -0.4556 -0.0810 -0.7166
  118MOL0     C15808   8.972   8.665   9.120 -0.1237  0.4471  0.4302
  118MOL0     C15809   8.889   8.539   9.149  0.7504 -0.1181  0.8625
  118MOL0     C15810   8.820   8.566   9.276  0.7735 -0.1148  1.2669
  118MOL0     C15811   8.731   8.450   9.312  0.0336 -0.0900  0.0621
  118MOL0     N15812   8.595   8.476   9.259  0.8737 -0.5939 -0.4485
  118MOL0     C15813   8.548   8.443   9.128  0.5509  0.5085 -0.0649
  118MOL0     C15814   8.414   8.467   9.126 -0.4476 -0.0873 -0.5076
  118MOL0     C15815   8.321   8.459   9.009 -0.0244  0.4421 -0.4942
  118MOL0     C15816   8.211   8.566   9.011  0.6669 -0.0177  0.6417
  118MOL0     C15817   8.143   8.582   8.884  0.2835 -0.1223  0.0729
  118MOL0     C15818   8.020   8.684   8.903 -0.7726  0.3197  0.1256
  118MOL0     O15819   7.920   8.634   8.985  0.3096  0.9991  0.0194
  118MOL0     C15820   7.800   8.591   8.926  0.1360 -0.5110  1.0666
  118MOL0     C15821   7.777   8.540   8.798 -0.6014 -0.1603 -0.2619
  118MOL0     C15822   7.650   8.493   8.754  0.3853 -0.0474  0.6653
  118MOL0     C15823   7.638   8.424   8.619 -0.5147  0.2520 -0.2106
  118MOL0     C15824   7.543   8.507   8.844  0.2966  0.1742 -0.6194
  118MOL0     C15825   7.404   8.443   8.822 -0.7645  0.3998  0.9750
  118MOL0     O15826   7.395   8.333   8.738 -0.0117  0.1852  0.4136
  118MOL0     C15827   7.278   8.281   8.699  0.0420 -0.2346  0.1871
  118MOL0     C15828   7.273   8.284   8.559 -0.4466  0.0468 -0.3940
  118MOL0     C15829   7.160   8.229   8.491 -0.0951 -0.4886 -0.4541
  118MOL0     C15830   7.067   8.161   8.575 -0.3252  0.3646  0.9883
  118MOL0     O15831   6.970   8.087   8.506  0.3928 -0.5719  0.1442
  118MOL0     C15832   6.838   8.067   8.561  0.4395  0.1721  0.4074
  118MOL0     C15833   6.813   7.919   8.581  0.7326  1.1827  0.0556
  118MOL0     C15834   6.671   7.881   8.600  0.2297  0.1266 -0.2060
  118MOL0     C15835   6.615   7.933   8.735  1.2143 -0.4056 -0.2631
  118MOL0     C15836   6.464   7.917   8.750  0.2561 -0.0510 -0.4534
  118MOL0     C15837   6.425   7.794   8.831  0.9302  0.6482  0.0820
  118MOL0     C15838   6.274   7.765   8.831  1.4481 -0.3256  1.1436
  118MOL0     C15839   6.220   7.721   8.974  0.6446 -0.1688  0.0591
  118MOL0    Cl15840   6.043   7.683   8.971  0.1269 -0.1028 -0.0712
  118MOL0     C15841   7.081   8.147   8.709 -0.2178 -0.2946  0.0109
  118MOL0     C15842   7.184   8.216   8.778 -0.3773  0.2792  0.2212
  118MOL0     O15843   7.306   8.489   8.883  0.1421 -0.6276  0.5577
  118MOL0     C15844   7.561   8.574   8.962  0.5750  0.5295 -0.4304
  118MOL0     C15845   7.693   8.605   9.005  0.3890  0.8919 -1.1852
  118MOL0     N15846   8.386   8.521   9.255 -1.0109 -0.0912  0.5841
  118MOL0     N15847   8.492   8.523   9.325 -0.1350  0.2213 -0.4996
  118MOL0     C15848   8.512   8.749   8.624  0.7146 -0.0081  0.5321
  118MOL0     C15849   8.420   8.846   8.593  0.6285  0.5532 -0.4089
  118MOL0     C15850   8.089   9.131   8.567  0.1153  0.4536 -0.0541
  118MOL0     C15851   7.974   9.117   8.489  0.4193  0.0053  0.7561
  118MOL0     C15852   7.921   9.234   8.428  0.8880 -0.0677  0.3445
  118MOL0     C15853   7.977   9.357   8.427  0.2685  1.2816 -0.3322
  118MOL0     O15854   7.910   9.459   8.363  0.5957  0.0458  0.4230
  118MOL0     C15855   7.917   9.581   8.427 -0.2262 -0.6756 -1.1126
  118MOL0     C15856   7.841   9.686   8.340 -0.5451  0.0389 -0.1331
  118MOL0     C15857   7.844   9.827   8.381 -0.1415 -0.3270 -0.0577
  118MOL0     C15858   7.786   9.922   8.276  0.2746 -0.2560  0.1691
  118MOL0     C15859   7.642   9.914   8.250 -0.1094  0.1228 -0.3848
  118MOL0     C15860   7.525   9.890   8.232  0.3085  0.6994  1.0162
  118MOL0     C15861   8.093   9.367   8.500 -0.0535 -0.0566 -0.3093
  118MOL0     C15862   8.152   9.261   8.561 -0.9417 -0.1565  0.2106
  118MOL0     H15863   8.329   8.929   8.907 -0.2560 -0.1040  0.5233
  118MOL0     H15864   8.493   8.749   8.962  4.2120 -1.4974 -1.5709
  118MOL0     H15865   8.826   8.557   8.784  0.6286  0.1870  0.6144
  118MOL0     H15866   8.793   8.676   8.668  1.2651 -2.6650  0.0559
  118MOL0     H15867   8.776   8.857   8.823 -0.7780  0.6544  1.1620
  118MOL0     H15868   8.760   8.757   8.969 -0.3016  1.5777 -0.7359
  118MOL0     H15869   9.010   8.783   8.798  1.3875 -0.3955  0.5388
  118MOL0     H15870   8.976   8.870   8.946  1.1185 -1.5702  2.9724
  118MOL0     H15871   9.003   8.566   8.933 -0.2163 -0.3099 -0.3287
  118MOL0     H15872   9.133   8.674   8.984 -0.3936  2.3127 -3.4064
  118MOL0     H15873   9.048   8.667   9.199  0.3076  1.2050  0.0076
  118MOL0     H15874   8.908   8.754   9.127  1.0732  1.3570  0.0802
  118MOL0     H15875   8.813   8.515   9.074  0.4037  0.5500  0.9984
  118MOL0     H15876   8.949   8.447   9.156  2.3893  0.7254 -0.9915
  118MOL0     H15877   8.896   8.571   9.354  1.2717 -0.5727  0.8243
  118MOL0     H15878   8.776   8.666   9.272  1.6073  0.2301  0.3568
  118MOL0     H15879   8.733   8.438   9.421 -2.0248 -3.0486 -0.1090
  118MOL0     H15880   8.772   8.355   9.274  0.5714 -0.8067  2.2784
  118MOL0     H15881   8.611   8.428   9.041  0.3004 -3.3832  0.2725
  118MOL0     H15882   8.368   8.459   8.910  0.9856 -0.8081 -0.0570
  118MOL0     H15883   8.276   8.359   9.014 -1.2270  0.9474 -0.8401
  118MOL0     H15884   8.251   8.666   9.031 -1.6881  1.5932 -2.0665
  118MOL0     H15885   8.139   8.544   9.091 -1.4850 -0.3143 -1.2869
  118MOL0     H15886   8.098   8.486   8.856 -1.0796 -0.1092  2.0270
  118MOL0     H15887   8.200   8.620   8.798 -2.1397 -1.2983 -2.2163
  118MOL0     H15888   7.995   8.723   8.804 -1.1493  0.1203  0.1417
  118MOL0     H15889   8.064   8.773   8.949 -0.5868  0.2199  0.1420
  118MOL0     H15890   7.859   8.522   8.729  0.1223  1.1114  0.2287
  118MOL0     H15891   7.561   8.466   8.554 -0.3612  1.0161  0.0862
  118MOL0     H15892   7.728   8.436   8.558 -0.0570  1.1642  0.6061
  118MOL0     H15893   7.621   8.318   8.638 -0.8704  0.5318  1.1611
  118MOL0     H15894   7.357   8.312   8.497  1.1749 -0.5894  1.4365
  118MOL0     H15895   7.150   8.215   8.384 -0.1683 -0.6895 -0.4213
  118MOL0     H15896   6.826   8.121   8.655 -0.5913  1.2465 -0.3148
  118MOL0     H15897   6.768   8.114   8.491 -3.1194 -0.1385  3.4568
  118MOL0     H15898   6.845   7.869   8.489 -1.6946 -1.1371  0.3555
  118MOL0     H15899   6.866   7.890   8.672  1.4123  0.4681 -0.5519
  118MOL0     H15900   6.662   7.773   8.588  0.7792  0.2703 -2.1910
  118MOL0     H15901   6.607   7.924   8.523 -3.9330 -0.1891  2.7387
  118MOL0     H15902   6.665   7.867   8.807 -0.3619 -1.4912 -0.1266
  118MOL0     H15903   6.645   8.036   8.756 -0.9704  0.2380 -0.0373
  118MOL0     H15904   6.417   7.905   8.652  1.0878 -1.2330 -0.7277
  118MOL0     H15905   6.429   8.010   8.797  0.6060 -0.3130  0.3428
  118MOL0     H15906   6.474   7.704   8.791  0.4049  0.7202 -0.7591
  118MOL0     H15907   6.457   7.805   8.935  1.5480  0.9242 -0.1342
  118MOL0     H15908   6.253   7.700   8.745  2.8956  1.4777 -0.6735
  118MOL0     H15909   6.216   7.856   8.809  1.8667 -0.0878  1.0130
  118MOL0     H15910   6.234   7.790   9.057 -4.4734 -0.4958  1.5429
  118MOL0     H15911   6.265   7.632   9.019 -0.0815  0.7223  2.6985
  118MOL0     H15912   7.011   8.076   8.753  0.9829 -1.8399 -0.4688
  118MOL0     H15913   7.190   8.195   8.885 -0.2625  0.1099  0.1814
  118MOL0     H15914   7.476   8.595   9.027 -0.6588 -0.1238 -1.7868
  118MOL0     H15915   7.703   8.625   9.111 -0.1216 -1.8254 -0.5453
  118MOL0     H15916   8.560   8.698   8.542 -2.6658 -0.5926 -1.2868
  118MOL0     H15917   8.397   8.854   8.487 -1.9482 -1.9472 -0.1654
  118MOL0     H15918   7.924   9.022   8.479  2.2346 -0.8161 -1.8451
  118MOL0     H15919   7.828   9.222   8.375 -0.0381  1.9969  1.3780
  118MOL0     H15920   7.876   9.574   8.529  1.2768 -1.2221 -0.5216
  118MOL0     H15921   8.022   9.612   8.425  0.1398 -1.8972 -1.8175
  118MOL0     H15922   7.739   9.653   8.316 -1.2403  1.0738  1.2376
  118MOL0     H15923   7.893   9.678   8.244 -1.5228 -0.6087 -0.6262
  118MOL0     H15924   7.946   9.867   8.388 -1.0426  2.5485 -1.8104
  118MOL0     H15925   7.802   9.843   8.481  0.0574  0.8788 -0.1519
  118MOL0     H15926   7.844   9.907   8.185  0.4897  1.8143 -0.0830
  118MOL0     H15927   7.814  10.026   8.295 -1.4336 -0.2203  3.1424
  118MOL0     H15928   7.423   9.867   8.205  0.0466 -0.7087  3.0151
  118MOL0     H15929   8.137   9.466   8.504 -0.4297  0.2244 -2.2127
  118MOL0     H15930   8.242   9.280   8.617 -0.6270  2.8709 -1.1207
  119MOL0     O15931   0.805   5.614   2.133 -0.8348  0.0286  0.6999
  119MOL0     C15932   0.895   5.581   2.208  0.3968 -0.6609  0.1232
  119MOL0     O15933   0.882   5.505   2.316 -0.0913 -0.4312 -0.2990
  119MOL0     C15934   0.773   5.422   2.323 -0.0904  0.1129 -0.2010
  119MOL0     C15935   0.759   5.335   2.216  0.3462  0.1102 -0.5375
  119MOL0     C15936   0.639   5.252   2.216  0.7421  0.4356 -0.0396
  119MOL0     C15937   0.549   5.261   2.320 -0.3153  1.2684  0.4646
  119MOL0     O15938   0.437   5.171   2.323 -0.8498 -0.0482  0.6803
  119MOL0     C15939   0.434   5.046   2.246 -0.2271  1.2963 -0.1760
  119MOL0     C15940   0.297   4.974   2.248 -0.1175  1.0290  0.1007
  119MOL0     C15941   0.183   5.035   2.164 -0.5910 -0.4550  0.2268
  119MOL0     C15942   0.194   5.030   2.011 -0.2542  0.2064 -0.7349
  119MOL0     C15943   0.168   4.891   1.955 -0.1511 -0.1018  0.3695
  119MOL0     C15944   0.124   4.882   1.805 -0.6998 -0.3216 -0.6297
  119MOL0     C15945   0.227   4.917   1.709  0.1980  0.8366  0.2840
  119MOL0     C15946   0.179   4.888   1.564 -0.2008  0.2096 -0.3609
  119MOL0     N15947   0.275   4.947   1.472 -0.0588 -0.2460 -0.5820
  119MOL0     C15948   0.254   5.075   1.433 -0.2734 -0.6928 -1.5672
  119MOL0     C15949   0.350   5.106   1.343 -0.3007 -0.5149 -0.2317
  119MOL0     C15950   0.376   5.243   1.277 -0.5786  0.4658  0.5158
  119MOL0     C15951   0.270   5.267   1.163 -1.1712  0.6766  0.8429
  119MOL0     C15952   0.136   5.326   1.200 -0.7095  0.2418 -0.0053
  119MOL0     C15953   0.153   5.470   1.214  0.4719 -0.1627  0.1001
  119MOL0     O15954   0.037   5.504   1.285  0.2578  0.0276 -0.5815
  119MOL0     C15955  -0.073   5.546   1.208  0.2141  0.5376 -0.5684
  119MOL0     C15956  -0.083   5.580   1.073 -0.2390  0.4527 -0.2646
  119MOL0     C15957  -0.197   5.626   1.011  1.4493  0.5208 -0.1150
  119MOL0     C15958  -0.199   5.645   0.862  0.4917  0.4633  0.1060
  119MOL0     C15959  -0.320   5.631   1.088 -0.3256  0.1038 -0.0169
  119MOL0     C15960  -0.454   5.663   1.035 -0.7465 -1.1598 -0.4324
  119MOL0     O15961  -0.562   5.642   1.109  0.5554  0.6366 -0.3248
  119MOL0     C15962  -0.687   5.680   1.055  0.0840 -0.0075 -0.6580
  119MOL0     C15963  -0.796   5.597   1.052 -0.3976  0.3420  1.1515
  119MOL0     C15964  -0.921   5.637   1.014 -0.0533  0.3019 -0.8785
  119MOL0     C15965  -0.949   5.770   0.988 -0.2976 -1.0218  0.0100
  119MOL0     O15966  -1.069   5.825   0.965 -0.2739 -0.3533  0.4739
  119MOL0     C15967  -1.139   5.753   0.857 -0.0980 -0.2609 -0.3291
  119MOL0     C15968  -1.266   5.829   0.820  0.1638 -0.2312 -0.2733
  119MOL0     C15969  -1.359   5.861   0.945 -0.0227  0.3840  0.2907
  119MOL0     C15970  -1.466   5.961   0.914  0.3213 -0.0715 -0.1854
  119MOL0     C15971  -1.556   5.965   1.041  0.1268  0.3234 -0.6507
  119MOL0     C15972  -1.660   6.070   1.041  1.1488 -0.5594  0.5469
  119MOL0     C15973  -1.754   6.044   1.158 -0.1059  0.2748  0.3085
  119MOL0     C15974  -1.835   6.167   1.200 -0.3001  0.4039 -0.9668
  119MOL0    Cl15975  -1.949   6.198   1.075 -0.3450 -0.2788  0.2303
  119MOL0     C15976  -0.843   5.865   1.002 -0.7822 -0.9316  0.2531
  119MOL0     C15977  -0.708   5.820   1.023  0.0884 -0.1304 -0.2029
  119MOL0     O15978  -0.450   5.729   0.926  0.4269  1.0037  0.4892
  119MOL0     C15979  -0.299   5.614   1.232  0.2972 -0.0221 -0.2252
  119MOL0     C15980  -0.191   5.568   1.293 -0.8982  0.6889  0.9479
  119MOL0     N15981   0.433   5.001   1.331  0.4985  0.3332 -0.2948
  119MOL0     N15982   0.380   4.895   1.396  0.1258 -0.6864  0.4338
  119MOL0     C15983   0.569   5.347   2.431 -0.2378 -0.3457 -0.4609
  119MOL0     C15984   0.682   5.430   2.431 -0.2228  0.3076  0.7126
  119MOL0     C15985   1.026   5.637   2.175 -0.8329 -0.0641 -0.2528
  119MOL0     C15986   1.047   5.754   2.096  0.3552  0.1244  0.1034
  119MOL0     C15987   1.167   5.809   2.081  0.5203 -0.6999  0.5368
  119MOL0     C15988   1.287   5.757   2.122  0.4107  0.0283 -0.1596
  119MOL0     O15989   1.406   5.820   2.101 -0.2099  0.1491  0.0888
  119MOL0     C15990   1.483   5.858   2.217  0.4328 -0.7622 -0.3650
  119MOL0     C15991   1.598   5.951   2.161  0.1337 -0.2134 -0.9132
  119MOL0     C15992   1.717   5.976   2.260 -0.3417  0.3526  0.8715
  119MOL0     C15993   1.680   6.044   2.394 -0.5575 -0.0221  0.4238
  119MOL0     C15994   1.610   6.165   2.368 -0.6923  0.7291  0.6124
  119MOL0     C15995   1.553   6.272   2.362  0.1877  0.3688 -0.1300
  119MOL0     C15996   1.276   5.641   2.200  0.5352 -0.3181 -0.1382
  119MOL0     C15997   1.148   5.583   2.224  1.0654 -0.1983 -0.0026
  119MOL0     H15998   0.825   5.342   2.130  1.6501 -1.0373  0.3455
  119MOL0     H15999   0.629   5.188   2.129  1.4554 -0.1661  0.3111
  119MOL0     H16000   0.452   5.050   2.138 -0.7410 -2.2894 -0.5104
  119MOL0     H16001   0.510   4.972   2.271 -2.6373 -2.6265 -3.2447
  119MOL0     H16002   0.306   4.868   2.224  0.2509  1.0376  0.1906
  119MOL0     H16003   0.268   4.978   2.353  4.0524  0.3272  1.4735
  119MOL0     H16004   0.091   4.985   2.194 -0.5472  1.1837  3.5174
  119MOL0     H16005   0.174   5.139   2.197  1.4972 -0.0999 -0.1850
  119MOL0     H16006   0.129   5.110   1.975  1.8553  1.6951 -1.3817
  119MOL0     H16007   0.292   5.067   1.980  0.8985 -0.9424  1.2967
  119MOL0     H16008   0.263   4.838   1.969  0.0042  0.1298  0.2080
  119MOL0     H16009   0.098   4.835   2.017  1.2725 -0.3555  1.8003
  119MOL0     H16010   0.093   4.780   1.778 -0.1798 -1.0832  1.4213
  119MOL0     H16011   0.040   4.949   1.789  0.5671  1.3612 -0.4726
  119MOL0     H16012   0.250   5.022   1.730 -0.4072  0.9753  0.2738
  119MOL0     H16013   0.311   4.850   1.728 -0.4002 -0.1915 -0.5598
  119MOL0     H16014   0.081   4.936   1.558  0.0982  0.7391 -1.1154
  119MOL0     H16015   0.166   4.781   1.542  3.9705 -0.2620 -1.5614
  119MOL0     H16016   0.185   5.144   1.481  0.6399 -0.3277 -0.7491
  119MOL0     H16017   0.367   5.318   1.356 -3.2181 -1.1463  1.8817
  119MOL0     H16018   0.476   5.242   1.232 -0.2223 -1.8313  1.2270
  119MOL0     H16019   0.264   5.172   1.109  1.2776 -0.0643  1.7290
  119MOL0     H16020   0.330   5.333   1.100 -0.1050  0.7105  1.8671
  119MOL0     H16021   0.108   5.277   1.294  0.3956 -1.0910 -0.3320
  119MOL0     H16022   0.069   5.301   1.116 -1.0905 -0.4692  0.4943
  119MOL0     H16023   0.166   5.532   1.125 -1.9955  1.3538  0.7057
  119MOL0     H16024   0.232   5.498   1.284 -0.4540  1.1536  0.6565
  119MOL0     H16025   0.006   5.570   1.011  0.8054  1.2443  1.0330
  119MOL0     H16026  -0.295   5.608   0.823 -0.2009  1.2681  0.9767
  119MOL0     H16027  -0.213   5.752   0.845  0.9699  0.2583 -1.8705
  119MOL0     H16028  -0.116   5.607   0.801 -0.8047 -1.2210 -0.7182
  119MOL0     H16029  -0.778   5.494   1.081  1.7993  0.8940  1.9691
  119MOL0     H16030  -1.001   5.564   1.007  1.9278 -1.8926 -2.0569
  119MOL0     H16031  -1.073   5.757   0.770 -0.6105  5.0492 -0.7654
  119MOL0     H16032  -1.166   5.653   0.893 -1.2552 -0.3568 -1.3829
  119MOL0     H16033  -1.219   5.922   0.785  2.6963 -1.1521  0.4719
  119MOL0     H16034  -1.321   5.791   0.733  4.5868 -2.0261 -2.5911
  119MOL0     H16035  -1.300   5.903   1.027  2.4024  1.2409 -1.7515
  119MOL0     H16036  -1.400   5.766   0.983  1.9189 -1.4467 -1.8586
  119MOL0     H16037  -1.421   6.060   0.910  2.9414 -1.1127  0.7857
  119MOL0     H16038  -1.522   5.940   0.823  0.9644 -0.2187 -0.5515
  119MOL0     H16039  -1.490   5.964   1.128  1.7135 -1.3610 -1.7837
  119MOL0     H16040  -1.607   5.869   1.047  0.3500  0.3161  1.8774
  119MOL0     H16041  -1.623   6.172   1.043 -1.0215  0.3904  5.1235
  119MOL0     H16042  -1.722   6.068   0.950 -1.4235 -0.9820  2.1915
  119MOL0     H16043  -1.696   6.008   1.243 -1.1105  1.7431  1.6761
  119MOL0     H16044  -1.825   5.964   1.136 -1.4053  1.0364  1.5533
  119MOL0     H16045  -1.772   6.256   1.210  1.4278 -1.0610  3.7907
  119MOL0     H16046  -1.876   6.141   1.297  2.2303  0.8538  0.3066
  119MOL0     H16047  -0.862   5.971   0.995 -1.0203 -0.4501  5.2275
  119MOL0     H16048  -0.637   5.902   1.028 -1.4564  1.2646 -0.1745
  119MOL0     H16049  -0.374   5.630   1.308  2.9339 -0.9277  2.7992
  119MOL0     H16050  -0.188   5.552   1.400  1.1096 -1.1770  0.6768
  119MOL0     H16051   0.496   5.354   2.511  2.9408  0.8543  2.6015
  119MOL0     H16052   0.701   5.502   2.510  0.2059  1.9991 -0.8541
  119MOL0     H16053   0.956   5.806   2.069 -1.0330 -1.8214  0.8155
  119MOL0     H16054   1.175   5.904   2.028  0.0373 -0.9328  0.0400
  119MOL0     H16055   1.428   5.914   2.294  2.1436 -3.0076  2.6909
  119MOL0     H16056   1.535   5.784   2.278 -3.6263 -1.1899  3.0628
  119MOL0     H16057   1.560   6.047   2.125 -1.7069 -0.9175 -0.9815
  119MOL0     H16058   1.626   5.898   2.070  0.9432  0.5196 -1.0985
  119MOL0     H16059   1.783   6.043   2.204 -0.2672  0.6625  1.3209
  119MOL0     H16060   1.776   5.884   2.267  2.8928  2.1840  0.1248
  119MOL0     H16061   1.776   6.050   2.448  0.7359 -0.9979 -1.6401
  119MOL0     H16062   1.610   5.977   2.445  1.4091 -1.7123  1.0462
  119MOL0     H16063   1.497   6.363   2.359 -0.2265  0.1420 -4.0121
  119MOL0     H16064   1.373   5.606   2.234  2.1032 -0.6845 -4.3663
  119MOL0     H16065   1.135   5.489   2.276 -2.4778  0.3627  0.3734
  120MOL0     O16066   2.537  10.673  10.166  0.4249 -0.9015  0.0116
  120MOL0     C16067   2.610  10.734  10.243  0.4832 -0.2531 -0.3954
  120MOL0     O16068   2.568  10.819  10.329  0.2237 -0.0603  0.7847
  120MOL0     C16069   2.433  10.836  10.347 -0.2605 -0.0040 -0.4419
  120MOL0     C16070   2.362  10.776  10.453  0.2586 -0.9363 -0.3744
  120MOL0     C16071   2.222  10.790  10.453 -0.1486  0.9929 -0.7049
  120MOL0     C16072   2.151  10.867  10.360 -0.7642 -0.1170 -0.5139
  120MOL0     O16073   2.020  10.888  10.383  0.3941 -0.2808  0.5242
  120MOL0     C16074   1.937  10.839  10.274 -0.0031 -0.5192 -0.1335
  120MOL0     C16075   1.793  10.810  10.316  0.4224 -0.3747  0.1937
  120MOL0     C16076   1.712  10.930  10.374  0.0052 -0.4428 -0.2967
  120MOL0     C16077   1.569  10.885  10.407  0.5118 -0.0484 -0.3964
  120MOL0     C16078   1.480  10.995  10.474  0.4307  0.5878 -0.3002
  120MOL0     C16079   1.362  10.931  10.552 -0.5774  0.2262 -0.2005
  120MOL0     C16080   1.244  10.865  10.465 -0.0258  0.4223  1.3650
  120MOL0     C16081   1.159  10.971  10.392 -0.2072  0.0260 -0.1018
  120MOL0     N16082   1.081  11.047  10.488  0.3979  0.2428  0.3627
  120MOL0     C16083   0.988  10.998  10.582 -0.6329  0.3973  0.3237
  120MOL0     C16084   0.958  11.104  10.662  0.7064 -0.5011  0.1422
  120MOL0     C16085   0.863  11.098  10.782  0.0439 -0.2561 -0.3529
  120MOL0     C16086   0.723  11.144  10.755 -0.3497  0.2718 -0.3743
  120MOL0     C16087   0.635  11.039  10.679 -0.3023  0.2505  0.3062
  120MOL0     C16088   0.610  10.902  10.755  0.4750  0.8079  0.1983
  120MOL0     O16089   0.615  10.918  10.898  0.2041 -0.4677 -0.2322
  120MOL0     C16090   0.498  10.950  10.965 -0.3757  0.3125 -1.0878
  120MOL0     C16091   0.373  10.901  10.927  0.2266  0.9135 -0.3302
  120MOL0     C16092   0.255  10.948  10.989 -0.0258 -0.1555  0.1441
  120MOL0     C16093   0.128  10.884  10.936 -0.4373 -0.4697  0.8552
  120MOL0     C16094   0.267  11.054  11.080 -0.5460  0.4193 -0.2816
  120MOL0     C16095   0.150  11.121  11.141  0.5123  0.4693  0.4511
  120MOL0     O16096   0.032  11.095  11.084 -0.1551  0.1393 -0.3508
  120MOL0     C16097  -0.088  11.110  11.152  0.2485 -0.2006 -0.0946
  120MOL0     C16098  -0.112  11.063  11.282  0.5122  0.6276 -0.7680
  120MOL0     C16099  -0.240  11.056  11.335 -0.3925  0.1532  0.9063
  120MOL0     C16100  -0.344  11.119  11.263 -0.4845  0.2090 -0.4881
  120MOL0     O16101  -0.482  11.126  11.298  0.1608 -0.0856  0.1406
  120MOL0     C16102  -0.530  11.065  11.421  1.1121  0.6181 -1.0622
  120MOL0     C16103  -0.535  10.912  11.398  0.3556  0.5326  0.4344
  120MOL0     C16104  -0.622  10.858  11.285 -0.9780  0.7369 -0.4274
  120MOL0     C16105  -0.769  10.874  11.320  0.5987  0.1278  0.0434
  120MOL0     C16106  -0.848  10.793  11.206  0.2083 -0.5750 -1.2472
  120MOL0     C16107  -0.997  10.806  11.231 -0.0908  0.1863 -0.2877
  120MOL0     C16108  -1.051  10.711  11.340  0.5804 -0.2658  0.4287
  120MOL0     C16109  -1.186  10.762  11.377  0.4039  0.5889 -0.2135
  120MOL0    Cl16110  -1.211  10.711  11.554 -0.3373  0.1598 -0.1445
  120MOL0     C16111  -0.316  11.176  11.138 -0.2857 -0.7273 -0.1894
  120MOL0     C16112  -0.187  11.172  11.082 -0.1110  0.6594 -0.9434
  120MOL0     O16113   0.160  11.199  11.232 -0.5904  0.5978  0.0904
  120MOL0     C16114   0.397  11.096  11.132  0.2044 -0.9301  0.4723
  120MOL0     C16115   0.509  11.041  11.074  0.5484  0.9637 -0.1829
  120MOL0     N16116   1.024  11.218  10.619  0.5439  0.0834 -0.1372
  120MOL0     N16117   1.104  11.175  10.518  0.1234 -0.6617 -0.4374
  120MOL0     C16118   2.219  10.934  10.256 -0.0609 -0.3864 -0.0893
  120MOL0     C16119   2.359  10.911  10.260 -0.0188 -0.8406 -0.0861
  120MOL0     C16120   2.754  10.706  10.247 -0.3751  0.1655  0.4671
  120MOL0     C16121   2.835  10.759  10.349 -0.0572 -0.3343  0.2137
  120MOL0     C16122   2.976  10.730  10.349 -0.2506 -0.4866  0.1511
  120MOL0     C16123   3.037  10.641  10.264  0.4089 -0.0107  0.3784
  120MOL0     O16124   3.165  10.604  10.267 -0.9020  0.2845  0.4778
  120MOL0     C16125   3.256  10.642  10.376  0.2044 -0.2450 -0.4001
  120MOL0     C16126   3.355  10.531  10.403 -0.7792  0.6019 -0.1472
  120MOL0     C16127   3.485  10.576  10.328 -0.7566  0.7399 -0.3446
  120MOL0     C16128   3.605  10.492  10.342 -0.3162  0.1985  0.3749
  120MOL0     C16129   3.597  10.366  10.267 -0.0117  0.0184  0.4395
  120MOL0     C16130   3.592  10.263  10.206 -0.9763  0.1561 -0.3185
  120MOL0     C16131   2.961  10.595  10.157  0.5135 -0.4760  0.5767
  120MOL0     C16132   2.818  10.619  10.144  0.4005  0.1218 -0.2609
  120MOL0     H16133   2.414  10.723  10.533 -0.8525 -0.0423  0.9906
  120MOL0     H16134   2.162  10.736  10.525 -0.1279  1.9006  0.0176
  120MOL0     H16135   1.941  10.892  10.179 -1.0682 -0.2629 -0.0517
  120MOL0     H16136   1.972  10.739  10.245 -4.1433 -2.1687 -0.1458
  120MOL0     H16137   1.740  10.777  10.226 -3.1243  0.7498  1.6835
  120MOL0     H16138   1.798  10.739  10.399  1.3061  2.2517  2.5456
  120MOL0     H16139   1.766  10.965  10.463 -0.2153 -0.3453 -0.1996
  120MOL0     H16140   1.714  11.003  10.292 -4.8963 -1.1125 -1.3397
  120MOL0     H16141   1.525  10.855  10.311  0.5974  2.1030 -1.1870
  120MOL0     H16142   1.569  10.800  10.475  0.9893  2.4779  2.9836
  120MOL0     H16143   1.541  11.054  10.542 -1.9601 -0.6544  3.2434
  120MOL0     H16144   1.431  11.064  10.405  0.5560 -2.0696 -3.3105
  120MOL0     H16145   1.400  10.863  10.629 -0.3879  1.8744  1.2047
  120MOL0     H16146   1.325  11.013  10.613  1.7217  0.2517  1.2682
  120MOL0     H16147   1.285  10.789  10.398 -1.1788 -0.8221  2.0177
  120MOL0     H16148   1.178  10.808  10.531  0.1704 -1.4600  0.0004
  120MOL0     H16149   1.085  10.924  10.326  0.6085 -0.9575 -0.3455
  120MOL0     H16150   1.221  11.034  10.327  0.7708  0.2278  0.9970
  120MOL0     H16151   0.962  10.896  10.609  1.1787 -0.1072  0.3195
  120MOL0     H16152   0.858  10.995  10.819 -0.2984  0.4774  1.7645
  120MOL0     H16153   0.909  11.165  10.855 -0.4535 -1.9862  1.6608
  120MOL0     H16154   0.737  11.235  10.694 -0.8995  1.7255  1.5671
  120MOL0     H16155   0.669  11.175  10.845  0.0306  1.9714 -0.6828
  120MOL0     H16156   0.671  11.014  10.579  4.3978 -1.9095  2.2040
  120MOL0     H16157   0.533  11.077  10.681 -0.3838  0.1701 -1.1434
  120MOL0     H16158   0.691  10.837  10.719  0.0678  0.2219  0.3242
  120MOL0     H16159   0.513  10.876  10.712  0.8383 -0.5108  0.1241
  120MOL0     H16160   0.360  10.832  10.843 -1.4453  0.8884 -0.0769
  120MOL0     H16161   0.095  10.952  10.856  3.5193  0.8911  0.1299
  120MOL0     H16162   0.159  10.787  10.898 -0.5721 -0.3549  0.4426
  120MOL0     H16163   0.052  10.869  11.013 -0.4242 -0.5478  0.8521
  120MOL0     H16164  -0.030  11.018  11.336 -0.5396 -2.7446 -1.7342
  120MOL0     H16165  -0.266  11.009  11.429 -1.9829 -0.4538  0.2064
  120MOL0     H16166  -0.473  11.104  11.506 -0.1991  0.5320 -0.1011
  120MOL0     H16167  -0.631  11.104  11.435  0.4569 -1.4089  0.3781
  120MOL0     H16168  -0.441  10.858  11.385 -0.2046 -0.2461 -0.5931
  120MOL0     H16169  -0.580  10.872  11.489 -0.1714 -1.7984 -0.7650
  120MOL0     H16170  -0.597  10.752  11.275  3.4648  1.6223 -0.9910
  120MOL0     H16171  -0.594  10.903  11.189 -2.8759 -0.9895 -1.8817
  120MOL0     H16172  -0.804  10.830  11.414  0.1101 -4.0076 -1.8646
  120MOL0     H16173  -0.791  10.981  11.324 -0.4187  0.2488 -4.0788
  120MOL0     H16174  -0.808  10.692  11.216 -1.4661 -1.3456 -1.8575
  120MOL0     H16175  -0.821  10.839  11.111 -0.4794 -1.0666 -1.6953
  120MOL0     H16176  -1.004  10.915  11.244  1.5924  0.3535 -0.5942
  120MOL0     H16177  -1.051  10.789  11.138 -2.1120  1.8764  0.4739
  120MOL0     H16178  -0.984  10.726  11.425  1.4426 -1.3429 -0.0279
  120MOL0     H16179  -1.045  10.604  11.316  0.8912 -1.1719  4.0195
  120MOL0     H16180  -1.265  10.710  11.323 -2.2953 -1.3874  4.8744
  120MOL0     H16181  -1.184  10.871  11.377  4.3262  0.6913 -1.7124
  120MOL0     H16182  -0.396  11.220  11.081  0.9786 -1.4416 -2.6913
  120MOL0     H16183  -0.166  11.230  10.993 -1.0860  1.0809 -0.9108
  120MOL0     H16184   0.406  11.163  11.217 -1.3319 -2.7218  2.1458
  120MOL0     H16185   0.610  11.068  11.102  0.3237  1.2497  0.3763
  120MOL0     H16186   2.167  10.990  10.179 -0.4374  0.8328  1.0005
  120MOL0     H16187   2.418  10.956  10.180 -0.2709 -0.8129 -0.2578
  120MOL0     H16188   2.790  10.833  10.414 -0.6223  0.0950 -0.6524
  120MOL0     H16189   3.028  10.763  10.438 -0.8715  1.8661 -0.2849
  120MOL0     H16190   3.311  10.736  10.379  1.0459 -0.5793 -2.9232
  120MOL0     H16191   3.191  10.636  10.464 -1.4316  0.6610 -1.4887
  120MOL0     H16192   3.316  10.436  10.364 -1.0132  0.9240 -0.7185
  120MOL0     H16193   3.374  10.504  10.507  0.2748 -0.7801 -0.6644
  120MOL0     H16194   3.505  10.678  10.364 -3.4177  1.5737 -0.9877
  120MOL0     H16195   3.480  10.579  10.219 -3.5119 -1.0014 -0.3517
  120MOL0     H16196   3.627  10.472  10.447 -0.1629 -1.1477  0.0985
  120MOL0     H16197   3.682  10.558  10.302 -1.7766  2.6094  1.3365
  120MOL0     H16198   3.594  10.168  10.156 -3.0631  0.2082 -0.6133
  120MOL0     H16199   3.018  10.550  10.076 -0.6849  1.7959 -1.7047
  120MOL0     H16200   2.764  10.593  10.053 -0.8272 -1.7825  0.9536
  121MOL0     O16201   1.466   3.935  11.305 -0.2601  0.6444 -0.3125
  121MOL0     C16202   1.418   3.923  11.192  0.3688 -0.0383 -0.4782
  121MOL0     O16203   1.292   3.883  11.165 -0.8066  0.3581  0.2224
  121MOL0     C16204   1.233   3.806  11.267  0.3572  0.3992  0.6907
  121MOL0     C16205   1.156   3.870  11.367  0.2422  0.4556 -0.3724
  121MOL0     C16206   1.101   3.783  11.463  0.1801  0.3346  0.2386
  121MOL0     C16207   1.116   3.642  11.466 -0.4355  1.0597 -0.0504
  121MOL0     O16208   1.064   3.572  11.575 -0.2147 -0.8266  0.2097
  121MOL0     C16209   1.068   3.423  11.578  0.0317 -0.0328  0.9151
  121MOL0     C16210   0.933   3.358  11.538  0.0199  0.7688 -0.2789
  121MOL0     C16211   0.890   3.387  11.394  0.2824  0.5728 -0.2635
  121MOL0     C16212   0.752   3.326  11.356  0.3819  0.3682  0.3579
  121MOL0     C16213   0.709   3.376  11.211  0.0736 -0.6044 -0.5976
  121MOL0     C16214   0.580   3.319  11.150  0.1979  0.4657  0.1041
  121MOL0     C16215   0.587   3.164  11.127 -0.7337 -0.7959 -0.7374
  121MOL0     C16216   0.458   3.122  11.059  0.7643 -1.1840  0.4993
  121MOL0     N16217   0.336   3.113  11.145  0.1675 -0.0518 -0.4753
  121MOL0     C16218   0.287   2.997  11.201  0.2334 -0.5013  0.1198
  121MOL0     C16219   0.166   3.026  11.240 -0.0012  0.2776 -0.2257
  121MOL0     C16220   0.072   2.922  11.298 -0.2269 -0.5990 -0.3669
  121MOL0     C16221   0.147   2.832  11.407 -0.4398  0.7604 -0.4111
  121MOL0     C16222   0.043   2.750  11.487 -0.4707 -0.1792  0.8359
  121MOL0     C16223   0.003   2.630  11.405 -0.2441  0.7669 -0.2841
  121MOL0     O16224  -0.116   2.658  11.334 -0.0292  0.0628 -0.6817
  121MOL0     C16225  -0.239   2.696  11.399 -0.4023  0.3620 -0.0728
  121MOL0     C16226  -0.314   2.788  11.332  0.3835  0.4867  1.5643
  121MOL0     C16227  -0.435   2.829  11.381 -0.2023  0.5283  0.4611
  121MOL0     C16228  -0.503   2.945  11.304  0.9638 -0.7157  0.4384
  121MOL0     C16229  -0.497   2.763  11.494  0.2246  0.5825 -0.7139
  121MOL0     C16230  -0.637   2.794  11.538 -0.0598 -0.6965 -0.6176
  121MOL0     O16231  -0.699   2.685  11.583 -0.0741  0.0964 -0.6477
  121MOL0     C16232  -0.827   2.703  11.641 -0.5656  0.0469  0.8787
  121MOL0     C16233  -0.842   2.687  11.779  0.0606 -1.3523  0.3083
  121MOL0     C16234  -0.966   2.668  11.836 -0.0024  0.0668  0.2958
  121MOL0     C16235  -1.076   2.684  11.755 -0.4845  0.4886 -0.6094
  121MOL0     O16236  -1.191   2.652  11.823 -0.2673  0.2693  0.0926
  121MOL0     C16237  -1.319   2.656  11.754 -0.2816 -0.2014  0.4181
  121MOL0     C16238  -1.431   2.590  11.829 -0.0071  0.4100 -0.6521
  121MOL0     C16239  -1.555   2.567  11.746  0.5669 -0.4294  0.5632
  121MOL0     C16240  -1.674   2.528  11.832 -0.8270 -0.6675 -0.2298
  121MOL0     C16241  -1.774   2.471  11.737  0.3491 -0.1949 -0.7651
  121MOL0     C16242  -1.916   2.459  11.799  0.3686 -0.1374  0.2875
  121MOL0     C16243  -1.910   2.384  11.935 -0.4091 -0.4466 -0.0699
  121MOL0     C16244  -2.035   2.296  11.959  0.5602  0.7667 -0.8531
  121MOL0    Cl16245  -2.025   2.188  12.110  0.0918 -0.1209  0.4708
  121MOL0     C16246  -1.068   2.680  11.616  0.0807 -0.8654 -0.4334
  121MOL0     C16247  -0.938   2.694  11.559  0.0496  0.4967  0.9609
  121MOL0     O16248  -0.674   2.914  11.542 -0.6183  0.6409  0.0540
  121MOL0     C16249  -0.429   2.654  11.545 -0.0528 -0.9189 -1.5380
  121MOL0     C16250  -0.297   2.624  11.511  0.2788 -0.3889  0.8925
  121MOL0     N16251   0.140   3.155  11.210  0.3309 -0.3701  0.5230
  121MOL0     N16252   0.237   3.212  11.162 -1.0696  0.5796  0.8960
  121MOL0     C16253   1.178   3.588  11.349  0.8667  0.8677  0.0075
  121MOL0     C16254   1.238   3.670  11.251 -0.5387 -0.1585 -0.3948
  121MOL0     C16255   1.520   3.942  11.086  1.1450  0.4260  0.5483
  121MOL0     C16256   1.482   3.951  10.947  0.1496  0.8970  0.2330
  121MOL0     C16257   1.575   3.961  10.849 -0.4621  0.5267  0.6715
  121MOL0     C16258   1.710   3.969  10.885 -1.1985  0.3574  0.2351
  121MOL0     O16259   1.813   3.978  10.791 -0.3993 -0.6367 -0.0154
  121MOL0     C16260   1.771   3.999  10.654  0.0190 -0.7413 -0.2044
  121MOL0     C16261   1.898   4.034  10.574 -0.3037 -0.4311 -0.2622
  121MOL0     C16262   1.966   3.908  10.513  0.1780 -0.1193 -0.1983
  121MOL0     C16263   2.080   3.937  10.412 -0.4255 -0.7327  0.8356
  121MOL0     C16264   2.158   4.057  10.450 -0.6867  1.4031 -0.3443
  121MOL0     C16265   2.234   4.144  10.481 -0.6861 -0.2439  0.2692
  121MOL0     C16266   1.748   3.979  11.015 -0.0053 -0.1468  0.4522
  121MOL0     C16267   1.654   3.967  11.117  0.2339  0.4548  0.0260
  121MOL0     H16268   1.138   3.976  11.377 -4.1843 -0.1659  0.5556
  121MOL0     H16269   1.048   3.817  11.551  0.4611 -1.8085  1.3049
  121MOL0     H16270   1.149   3.382  11.517 -1.3375 -0.4193 -0.7028
  121MOL0     H16271   1.088   3.407  11.684  0.5727  2.8301  1.3370
  121MOL0     H16272   0.947   3.251  11.555 -0.3274  0.7725  0.0503
  121MOL0     H16273   0.863   3.394  11.614 -0.4541 -1.1620  0.2397
  121MOL0     H16274   0.892   3.494  11.372 -2.1199  0.5752 -0.8334
  121MOL0     H16275   0.962   3.351  11.320 -1.2629 -2.4125 -0.4668
  121MOL0     H16276   0.762   3.217  11.356  0.5479  0.3159 -2.8088
  121MOL0     H16277   0.678   3.366  11.426 -1.0217 -0.4267 -0.6228
  121MOL0     H16278   0.690   3.484  11.210 -0.4298 -0.6823 -0.0465
  121MOL0     H16279   0.786   3.346  11.139  2.3630 -0.9842  1.8599
  121MOL0     H16280   0.494   3.347  11.212 -0.6625  1.5571 -1.5065
  121MOL0     H16281   0.555   3.366  11.055 -1.6431 -2.8224 -1.2058
  121MOL0     H16282   0.670   3.129  11.064  0.5342  0.6363  0.0572
  121MOL0     H16283   0.589   3.111  11.223  0.6112 -1.8061 -1.2918
  121MOL0     H16284   0.477   3.024  11.012  2.1246 -1.0791  0.8017
  121MOL0     H16285   0.430   3.188  10.976  1.6887 -0.8939  0.4080
  121MOL0     H16286   0.336   2.901  11.211  1.4225  0.1507  0.6843
  121MOL0     H16287  -0.009   2.978  11.346 -0.6757 -2.3765  1.0692
  121MOL0     H16288   0.034   2.860  11.217 -1.6000 -1.4859  0.9009
  121MOL0     H16289   0.198   2.896  11.480 -0.4974  2.4416 -1.7722
  121MOL0     H16290   0.225   2.771  11.360 -2.1326 -2.1809  0.3057
  121MOL0     H16291  -0.046   2.808  11.514 -2.4449 -1.1171 -2.8589
  121MOL0     H16292   0.101   2.717  11.573  1.3457 -0.5172 -0.4603
  121MOL0     H16293  -0.011   2.548  11.475 -1.1267  1.7773  0.7767
  121MOL0     H16294   0.075   2.596  11.331 -0.5719  3.1960 -1.8448
  121MOL0     H16295  -0.271   2.841  11.248  1.2061  2.4153  3.1172
  121MOL0     H16296  -0.468   2.944  11.200  0.2046  0.7801  0.1398
  121MOL0     H16297  -0.611   2.930  11.305  0.8565  0.0372  0.5252
  121MOL0     H16298  -0.472   3.042  11.345  2.3968 -1.2595  0.7154
  121MOL0     H16299  -0.753   2.687  11.841 -0.7597  0.8027  1.6017
  121MOL0     H16300  -0.964   2.639  11.941  1.2033 -1.6730 -0.1769
  121MOL0     H16301  -1.349   2.760  11.734  1.6439  0.5879  1.3633
  121MOL0     H16302  -1.315   2.596  11.663  0.5987 -0.0911  0.3800
  121MOL0     H16303  -1.401   2.496  11.874  0.9994  1.1658  0.2944
  121MOL0     H16304  -1.456   2.658  11.911 -0.2662  0.1034 -0.4728
  121MOL0     H16305  -1.534   2.482  11.681 -2.0344 -1.2557  0.6685
  121MOL0     H16306  -1.579   2.656  11.687  0.9926 -0.7454 -0.1003
  121MOL0     H16307  -1.640   2.456  11.907  0.1432  2.6436  2.8368
  121MOL0     H16308  -1.704   2.616  11.890 -1.1237 -1.1803  0.4143
  121MOL0     H16309  -1.735   2.373  11.710  2.5187  0.6268 -0.7981
  121MOL0     H16310  -1.781   2.540  11.652  0.4112  0.2599 -0.4056
  121MOL0     H16311  -1.950   2.563  11.807  2.0319  0.5114 -0.4357
  121MOL0     H16312  -1.993   2.420  11.731  2.3320  1.0666 -2.8979
  121MOL0     H16313  -1.895   2.457  12.016 -0.7643  0.3827 -0.7309
  121MOL0     H16314  -1.819   2.324  11.928  1.6943  2.6882 -2.0937
  121MOL0     H16315  -2.056   2.234  11.872 -1.7020  1.7944 -1.1226
  121MOL0     H16316  -2.125   2.358  11.969  0.7878  1.1008 -0.8306
  121MOL0     H16317  -1.158   2.685  11.554  0.5927  1.6350 -1.0900
  121MOL0     H16318  -0.930   2.683  11.451 -0.7162 -2.6543  1.1492
  121MOL0     H16319  -0.475   2.585  11.615 -1.1979  1.3003  0.0150
  121MOL0     H16320  -0.240   2.553  11.570  2.1052  0.9186  0.8167
  121MOL0     H16321   1.176   3.481  11.334 -1.4376  1.0260 -1.2927
  121MOL0     H16322   1.290   3.623  11.168 -0.6917  0.5624 -0.9029
  121MOL0     H16323   1.377   3.949  10.921 -0.0303 -2.4043  0.7546
  121MOL0     H16324   1.545   3.940  10.746  0.2530  0.0730  0.5447
  121MOL0     H16325   1.723   3.914  10.603 -1.7737 -0.4126  0.8434
  121MOL0     H16326   1.699   4.081  10.661 -0.7622 -1.5426  1.9311
  121MOL0     H16327   1.968   4.074  10.648  0.7283 -2.6948  0.0553
  121MOL0     H16328   1.892   4.107  10.492  0.1297  1.6431  1.4389
  121MOL0     H16329   1.884   3.857  10.461 -0.0225 -0.1638  0.1607
  121MOL0     H16330   1.993   3.853  10.603 -1.4578  1.1834  1.1590
  121MOL0     H16331   2.034   3.966  10.318  1.1185  2.3166  0.9160
  121MOL0     H16332   2.138   3.844  10.414 -0.2045 -0.5861  2.4312
  121MOL0     H16333   2.300   4.227  10.502 -0.5043 -0.5382  0.8701
  121MOL0     H16334   1.851   4.006  11.034 -0.1746 -1.1682  3.3554
  121MOL0     H16335   1.694   3.969  11.218  3.0711  1.1817 -1.0042
  122MOL0     O16336   1.408  11.206   2.384 -0.0020  0.3262  0.7011
  122MOL0     C16337   1.488  11.210   2.480  0.1454  0.2915  0.0848
  122MOL0     O16338   1.456  11.209   2.616 -0.1771  0.1380  0.2491
  122MOL0     C16339   1.324  11.179   2.655  0.4764  0.5081  0.8982
  122MOL0     C16340   1.304  11.069   2.744  0.4317  0.1672 -0.1224
  122MOL0     C16341   1.176  11.029   2.784 -0.2655  0.2938 -0.1011
  122MOL0     C16342   1.064  11.097   2.747 -0.1453 -0.9738 -0.1581
  122MOL0     O16343   0.940  11.052   2.791 -1.2459 -0.5860  0.6310
  122MOL0     C16344   0.825  11.065   2.704  0.4629  0.6073 -0.1966
  122MOL0     C16345   0.726  10.949   2.721 -0.7835 -0.5995  0.8005
  122MOL0     C16346   0.787  10.809   2.718  0.0253  0.5182 -0.3785
  122MOL0     C16347   0.907  10.790   2.626 -0.1771 -0.0093  0.8219
  122MOL0     C16348   0.923  10.645   2.590 -0.0413  0.0043 -0.7148
  122MOL0     C16349   1.072  10.609   2.575 -0.7169  0.7983  0.0873
  122MOL0     C16350   1.151  10.718   2.500 -0.3567  0.2048 -0.2295
  122MOL0     C16351   1.282  10.663   2.445  1.0012 -0.1302  0.1988
  122MOL0     N16352   1.375  10.762   2.388  0.1218 -0.1935  0.0439
  122MOL0     C16353   1.380  10.798   2.252  0.3977  0.0915 -0.9258
  122MOL0     C16354   1.495  10.871   2.242 -0.2157 -0.8967  0.6372
  122MOL0     C16355   1.565  10.926   2.114 -0.0849  0.6598 -0.3936
  122MOL0     C16356   1.462  10.975   2.009 -0.2933 -0.1214 -0.7746
  122MOL0     C16357   1.529  11.064   1.910  0.9454 -0.8417 -0.0490
  122MOL0     C16358   1.442  11.119   1.801 -0.4559 -0.2073  0.0495
  122MOL0     O16359   1.375  11.017   1.728 -0.0634 -0.4206  0.4836
  122MOL0     C16360   1.236  11.005   1.737 -0.3340 -0.1558  0.8254
  122MOL0     C16361   1.148  11.108   1.754  0.5603  0.7084 -0.3044
  122MOL0     C16362   1.008  11.094   1.738  1.1225  0.6320  0.2517
  122MOL0     C16363   0.929  11.218   1.765  0.1769 -0.7769  0.1473
  122MOL0     C16364   0.954  10.967   1.705 -0.7274 -0.3889  0.9875
  122MOL0     C16365   0.807  10.933   1.689 -0.2026  0.2826 -0.0340
  122MOL0     O16366   0.718  11.036   1.657  0.2227 -0.2194  0.4123
  122MOL0     C16367   0.584  11.017   1.664  1.1130  0.2646 -0.6297
  122MOL0     C16368   0.503  11.034   1.784 -0.2017  0.1585  0.0309
  122MOL0     C16369   0.367  11.015   1.783  0.3487  0.6012 -0.0426
  122MOL0     C16370   0.307  10.974   1.661 -0.5727 -1.3499  0.4364
  122MOL0     O16371   0.170  10.950   1.636  0.1198  0.4825 -0.0574
  122MOL0     C16372   0.085  10.956   1.757 -0.2755  0.0782  0.2674
  122MOL0     C16373  -0.063  10.945   1.718 -0.4030  0.9552  0.6041
  122MOL0     C16374  -0.121  11.081   1.678 -0.3466  0.3846  0.1319
  122MOL0     C16375  -0.248  11.048   1.596  0.1421  0.9014  0.1411
  122MOL0     C16376  -0.310  11.183   1.553  0.1098 -0.5639 -0.4520
  122MOL0     C16377  -0.462  11.189   1.537 -0.1306  0.1932 -0.4850
  122MOL0     C16378  -0.532  11.208   1.671 -0.3833  0.1844  0.1953
  122MOL0     C16379  -0.680  11.236   1.652 -0.1900  0.5514 -0.0567
  122MOL0    Cl16380  -0.778  11.099   1.597 -0.6631  0.1505  0.0780
  122MOL0     C16381   0.386  10.951   1.548  0.1601  0.9255  0.3773
  122MOL0     C16382   0.516  10.972   1.548 -0.5965 -0.8132  0.3002
  122MOL0     O16383   0.780  10.810   1.687  0.9515 -0.2367  0.4025
  122MOL0     C16384   1.052  10.866   1.689 -0.7971  1.3234 -0.4750
  122MOL0     C16385   1.183  10.883   1.711  0.2677 -0.0121 -0.2389
  122MOL0     N16386   1.567  10.868   2.361 -0.0215 -0.2359 -0.4030
  122MOL0     N16387   1.491  10.806   2.451  0.7096 -0.0192  0.7567
  122MOL0     C16388   1.082  11.206   2.660  0.4679 -0.8442 -0.6842
  122MOL0     C16389   1.216  11.247   2.615  0.1530 -0.3033  0.3542
  122MOL0     C16390   1.635  11.210   2.439 -0.0520  0.1514  0.1337
  122MOL0     C16391   1.671  11.243   2.305 -0.7319 -0.5545 -0.2855
  122MOL0     C16392   1.813  11.240   2.275  0.8780  0.0574 -0.6116
  122MOL0     C16393   1.910  11.195   2.363  0.1039 -0.1972 -0.3014
  122MOL0     O16394   2.042  11.170   2.324  1.3342  0.4753  0.4609
  122MOL0     C16395   2.066  11.090   2.209  0.0341  0.2657  0.3744
  122MOL0     C16396   2.167  10.970   2.239  0.3531  0.1814 -0.3714
  122MOL0     C16397   2.189  10.869   2.124  0.1776 -0.0449 -0.2630
  122MOL0     C16398   2.100  10.746   2.143 -0.1916 -0.3230  0.4448
  122MOL0     C16399   2.111  10.657   2.033  0.1655 -0.3698 -0.2226
  122MOL0     C16400   2.103  10.584   1.942  0.3143 -0.2864  0.3652
  122MOL0     C16401   1.876  11.154   2.492  0.2772 -0.1132  0.1162
  122MOL0     C16402   1.736  11.173   2.528 -0.3477 -0.3410  0.0730
  122MOL0     H16403   1.396  11.023   2.780 -1.5054 -1.8250  2.7544
  122MOL0     H16404   1.160  10.937   2.840 -0.0552 -0.4169 -1.1894
  122MOL0     H16405   0.770  11.159   2.717  0.6096  0.4002  2.4514
  122MOL0     H16406   0.874  11.066   2.606  2.3530 -0.4198  0.6819
  122MOL0     H16407   0.670  10.956   2.814 -0.3385 -4.0841  1.4549
  122MOL0     H16408   0.648  10.966   2.646 -2.2548 -0.4107  2.3422
  122MOL0     H16409   0.822  10.787   2.819 -1.9126 -3.3948 -0.3725
  122MOL0     H16410   0.713  10.731   2.697  1.4349 -0.8385 -0.5468
  122MOL0     H16411   0.893  10.851   2.536 -3.2725 -1.1502  0.4108
  122MOL0     H16412   0.991  10.826   2.687  2.6976  0.6522 -3.1406
  122MOL0     H16413   0.887  10.573   2.665  0.3054 -0.4812 -1.0115
  122MOL0     H16414   0.875  10.642   2.492  0.5049 -2.2935 -0.9812
  122MOL0     H16415   1.123  10.584   2.668 -1.8443 -1.2651  0.2032
  122MOL0     H16416   1.071  10.524   2.507  0.1586  3.0380 -2.9982
  122MOL0     H16417   1.099  10.773   2.421 -1.6296 -1.6242 -0.7345
  122MOL0     H16418   1.187  10.789   2.575  1.4986  1.0841 -1.8410
  122MOL0     H16419   1.259  10.606   2.354  1.5199 -0.0544  0.0124
  122MOL0     H16420   1.340  10.601   2.514  2.9680  0.2376 -1.0287
  122MOL0     H16421   1.294  10.782   2.188 -1.4525  0.3997  1.3657
  122MOL0     H16422   1.629  11.006   2.150 -0.3712  0.1324  1.4306
  122MOL0     H16423   1.638  10.854   2.076  1.1817  1.7329 -0.0349
  122MOL0     H16424   1.383  11.019   2.071 -2.1747 -2.0194 -1.6972
  122MOL0     H16425   1.416  10.893   1.953 -0.0329  0.4436 -1.8335
  122MOL0     H16426   1.609  11.007   1.861  2.1701  1.7847 -1.3327
  122MOL0     H16427   1.567  11.151   1.964  1.4523 -1.0541 -0.0540
  122MOL0     H16428   1.519  11.170   1.743  1.0223  1.5071  3.2608
  122MOL0     H16429   1.372  11.189   1.847  0.4202  1.7040 -1.4370
  122MOL0     H16430   1.179  11.209   1.776 -0.7737  1.1766 -0.4898
  122MOL0     H16431   0.981  11.281   1.837  0.9729  0.5354 -1.5009
  122MOL0     H16432   0.909  11.284   1.680  1.5473 -0.1827  0.2633
  122MOL0     H16433   0.835  11.183   1.808  0.9107 -1.8528  0.9142
  122MOL0     H16434   0.551  11.064   1.876 -4.2227  1.4279  1.9216
  122MOL0     H16435   0.299  11.024   1.867  0.3515 -1.3037  0.1975
  122MOL0     H16436   0.104  10.871   1.822 -0.0414  1.9023  2.7195
  122MOL0     H16437   0.105  11.051   1.808 -3.5516  0.6635  0.6526
  122MOL0     H16438  -0.078  10.863   1.647 -1.4252  1.0809  0.6537
  122MOL0     H16439  -0.123  10.924   1.807 -0.0610 -3.0510  0.0693
  122MOL0     H16440  -0.038  11.138   1.633  1.2702 -1.2638  0.9080
  122MOL0     H16441  -0.146  11.139   1.767  0.3884 -0.4918  0.9257
  122MOL0     H16442  -0.213  10.995   1.507 -1.0485 -0.2294  0.3220
  122MOL0     H16443  -0.317  10.979   1.646  1.2798  0.1801  0.7471
  122MOL0     H16444  -0.259  11.208   1.459  2.2533  0.5608  0.9295
  122MOL0     H16445  -0.276  11.262   1.620 -2.1357  0.5047 -0.4788
  122MOL0     H16446  -0.486  11.275   1.474  0.5481 -1.1995 -2.7564
  122MOL0     H16447  -0.501  11.103   1.483 -2.1395  1.3872 -1.0295
  122MOL0     H16448  -0.480  11.296   1.709  0.2101  0.0374 -0.2433
  122MOL0     H16449  -0.506  11.114   1.720  1.2267  1.1171  1.1920
  122MOL0     H16450  -0.686  11.317   1.578 -1.0957  0.5052 -0.0474
  122MOL0     H16451  -0.730  11.276   1.740 -1.1446 -0.6045 -0.0569
  122MOL0     H16452   0.336  10.912   1.460  1.3187  0.8984 -0.2848
  122MOL0     H16453   0.580  10.965   1.461  2.6966  0.8328  2.3410
  122MOL0     H16454   1.028  10.765   1.658  2.3518  0.1278  0.4764
  122MOL0     H16455   1.252  10.801   1.693 -0.3194 -0.3906 -0.8612
  122MOL0     H16456   0.995  11.259   2.622  2.0307  2.7888  0.3745
  122MOL0     H16457   1.232  11.327   2.543  0.2519 -2.9286 -2.7786
  122MOL0     H16458   1.605  11.277   2.226 -0.2741 -1.6124 -1.1458
  122MOL0     H16459   1.850  11.260   2.175  1.1163 -0.0963 -0.5541
  122MOL0     H16460   1.978  11.037   2.173 -0.9022  1.4515  0.8474
  122MOL0     H16461   2.112  11.155   2.134 -1.8479  1.0451 -0.1537
  122MOL0     H16462   2.124  10.925   2.328  0.9305 -0.8425 -0.5858
  122MOL0     H16463   2.262  11.008   2.278  0.5712 -1.4713  0.8086
  122MOL0     H16464   2.289  10.825   2.129 -1.9626 -5.5222  2.8244
  122MOL0     H16465   2.177  10.928   2.032  1.5518  0.2611 -0.2650
  122MOL0     H16466   1.998  10.779   2.163 -0.3564  0.0582 -0.9433
  122MOL0     H16467   2.116  10.694   2.238  0.5024 -3.5521 -1.2802
  122MOL0     H16468   2.105  10.521   1.856  0.1342  0.8636 -0.4967
  122MOL0     H16469   1.965  11.121   2.544  1.8403  2.8798 -0.4629
  122MOL0     H16470   1.717  11.158   2.634  3.7598 -1.3517  0.8451
  123MOL0     O16471  10.056   1.899   7.177 -0.1550 -0.0837  0.8279
  123MOL0     C16472  10.029   1.990   7.097 -0.3048  0.2918 -0.5696
  123MOL0     O16473  10.106   2.026   6.985  0.3703 -0.5829 -0.2516
  123MOL0     C16474  10.232   1.959   6.977  0.5213 -0.0653  0.3750
  123MOL0     C16475  10.256   1.848   6.896 -0.6865  0.8073 -0.9512
  123MOL0     C16476  10.389   1.804   6.886 -0.6505  0.4887 -0.0493
  123MOL0     C16477  10.500   1.884   6.922 -0.2470 -0.4254 -0.7567
  123MOL0     O16478  10.632   1.864   6.896  0.3367 -0.0528  0.4676
  123MOL0     C16479  10.671   1.762   6.803 -0.1658  0.9098 -1.1480
  123MOL0     C16480  10.821   1.771   6.760  0.5870  0.2178 -0.2933
  123MOL0     C16481  10.852   1.890   6.675  0.3329 -0.3383 -0.1995
  123MOL0     C16482  11.000   1.914   6.686 -0.3876  0.2893  0.9957
  123MOL0     C16483  11.065   1.959   6.814 -0.2254  0.3724  0.3202
  123MOL0     C16484  11.210   1.959   6.809  0.1027 -0.3361 -0.2034
  123MOL0     C16485  11.270   2.005   6.937  0.6859  0.9951 -0.9341
  123MOL0     C16486  11.260   1.894   7.044  0.0588 -0.3235 -0.1878
  123MOL0     N16487  11.342   1.918   7.163 -0.4114  0.3685 -0.6296
  123MOL0     C16488  11.475   1.888   7.179 -0.4942 -0.0579 -0.2103
  123MOL0     C16489  11.524   1.952   7.292 -0.0657 -0.2137  0.6270
  123MOL0     C16490  11.658   1.950   7.341  0.7630  0.0288 -0.2931
  123MOL0     C16491  11.711   1.807   7.397  1.0093 -0.4367  0.4365
  123MOL0     C16492  11.858   1.831   7.416 -0.9706 -0.8275 -0.4233
  123MOL0     C16493  11.918   1.712   7.495 -0.6971 -0.3943 -0.1770
  123MOL0     O16494  11.934   1.598   7.403  0.6456 -0.0757 -0.1868
  123MOL0     C16495  12.045   1.518   7.392  0.8787 -0.3084 -0.0014
  123MOL0     C16496  12.026   1.388   7.335 -0.0292 -0.0185 -0.5277
  123MOL0     C16497  12.131   1.311   7.303 -0.9070 -0.4515 -0.3606
  123MOL0     C16498  12.105   1.170   7.248 -0.0030 -0.5368 -0.2907
  123MOL0     C16499  12.263   1.346   7.343 -0.4055 -0.0118 -0.5649
  123MOL0     C16500  12.378   1.253   7.339 -0.5103  0.6848 -0.3703
  123MOL0     O16501  12.497   1.321   7.319  0.2700 -0.6060  0.5598
  123MOL0     C16502  12.611   1.243   7.329 -0.3176  0.7120 -0.4328
  123MOL0     C16503  12.675   1.216   7.458 -0.2476  0.2750  0.7803
  123MOL0     C16504  12.783   1.122   7.464 -0.1298 -0.3918  0.2154
  123MOL0     C16505  12.836   1.071   7.343 -0.7029 -0.1542 -0.0612
  123MOL0     O16506  12.952   0.993   7.362  0.0201 -0.0239  0.6404
  123MOL0     C16507  13.067   1.044   7.297  1.0259  0.3351 -0.9810
  123MOL0     C16508  13.181   1.017   7.397 -0.3219  0.9323 -0.4474
  123MOL0     C16509  13.175   1.100   7.525 -0.0248  0.8886  0.4372
  123MOL0     C16510  13.303   1.064   7.602  0.4178  0.0436  0.1358
  123MOL0     C16511  13.296   1.092   7.752 -0.9479 -0.6107 -0.3596
  123MOL0     C16512  13.222   1.222   7.796  0.1882 -0.5746  0.5632
  123MOL0     C16513  13.220   1.247   7.951  1.0846 -0.6413  0.3725
  123MOL0     C16514  13.343   1.198   8.018 -0.6639 -0.1112 -0.1762
  123MOL0    Cl16515  13.327   1.212   8.197  0.0493 -0.6215 -0.1496
  123MOL0     C16516  12.777   1.097   7.218  0.1094  0.3759 -1.0294
  123MOL0     C16517  12.666   1.178   7.212  0.2013 -0.5991  0.0852
  123MOL0     O16518  12.374   1.133   7.367  0.6739  0.8844  0.2825
  123MOL0     C16519  12.282   1.476   7.410  0.9865 -0.5970 -0.1201
  123MOL0     C16520  12.172   1.558   7.435  0.4987 -0.9882 -1.0728
  123MOL0     N16521  11.414   2.026   7.342 -0.1273  0.3659  0.5964
  123MOL0     N16522  11.309   2.008   7.263  0.2277 -0.6585 -0.1336
  123MOL0     C16523  10.469   1.993   7.004  0.2806 -0.0212  0.5027
  123MOL0     C16524  10.337   2.031   7.038  0.2044  0.0781 -0.3987
  123MOL0     C16525   9.910   2.066   7.123 -0.0195  0.8000  0.9879
  123MOL0     C16526   9.859   2.158   7.024  0.3829  0.6246  0.0135
  123MOL0     C16527   9.747   2.233   7.056 -0.7721  0.3963  0.2042
  123MOL0     C16528   9.681   2.227   7.169  0.2051 -0.0052 -0.3555
  123MOL0     O16529   9.563   2.295   7.166 -0.1729  0.5965  0.0080
  123MOL0     C16530   9.474   2.288   7.280 -0.4626 -0.2681 -1.0396
  123MOL0     C16531   9.330   2.318   7.232  0.5024  0.8986  0.0659
  123MOL0     C16532   9.268   2.195   7.162  0.3645  0.3898  0.7337
  123MOL0     C16533   9.260   2.216   7.008 -1.2082  0.1101  0.0887
  123MOL0     C16534   9.128   2.183   6.961 -0.0301  0.6783 -0.5476
  123MOL0     C16535   9.009   2.153   6.931  0.0744 -0.2907  0.6011
  123MOL0     C16536   9.723   2.124   7.261  0.1371 -0.2866  1.0234
  123MOL0     C16537   9.840   2.044   7.241  0.4279  0.0554  0.3587
  123MOL0     H16538  10.169   1.792   6.862 -1.3579  1.7457 -0.7971
  123MOL0     H16539  10.405   1.718   6.822  0.2467 -1.5925  2.7765
  123MOL0     H16540  10.666   1.661   6.845  1.0687 -0.9366 -4.9825
  123MOL0     H16541  10.597   1.756   6.722  1.2609 -1.7042 -2.3994
  123MOL0     H16542  10.883   1.765   6.850  1.2533 -2.6738 -0.8507
  123MOL0     H16543  10.840   1.675   6.711  0.5127  0.5536 -0.9995
  123MOL0     H16544  10.810   1.882   6.575 -1.8573  1.0280  0.5264
  123MOL0     H16545  10.794   1.975   6.713  1.6759  0.7700 -0.5502
  123MOL0     H16546  11.047   1.820   6.655 -0.2523  1.0494 -1.2917
  123MOL0     H16547  11.026   1.987   6.608 -0.6066 -1.3584 -0.6919
  123MOL0     H16548  11.032   2.059   6.844  3.3099  0.8369  3.4668
  123MOL0     H16549  11.038   1.886   6.891  1.5832 -2.9232 -1.9410
  123MOL0     H16550  11.250   1.866   6.770  0.1263 -0.7089  0.6847
  123MOL0     H16551  11.241   2.023   6.726 -2.9664  1.6096  0.0134
  123MOL0     H16552  11.376   2.025   6.917  1.8000 -2.6249  0.5136
  123MOL0     H16553  11.223   2.097   6.973 -0.4886  0.8866 -2.1119
  123MOL0     H16554  11.303   1.804   6.999  2.7871  2.3170 -3.4844
  123MOL0     H16555  11.158   1.866   7.070 -0.4530  1.1076 -0.5359
  123MOL0     H16556  11.538   1.826   7.116  0.5420 -1.5182  2.0906
  123MOL0     H16557  11.724   2.003   7.273  1.4806 -0.4034  0.0546
  123MOL0     H16558  11.650   2.007   7.435  0.6790  0.8712 -0.8046
  123MOL0     H16559  11.691   1.724   7.329  0.4897  1.2145 -1.5637
  123MOL0     H16560  11.673   1.781   7.496  2.9573  0.3862  1.4580
  123MOL0     H16561  11.879   1.923   7.472 -1.1840 -0.3020 -1.1864
  123MOL0     H16562  11.909   1.836   7.319  1.3127 -0.8721  0.7202
  123MOL0     H16563  11.858   1.671   7.577  1.7604  0.3439  2.1068
  123MOL0     H16564  12.008   1.735   7.551 -2.3080  1.0462  1.9863
  123MOL0     H16565  11.923   1.354   7.323 -0.4024  1.3467 -1.4961
  123MOL0     H16566  12.014   1.168   7.187 -1.3452  0.7279  1.5713
  123MOL0     H16567  12.192   1.164   7.182  0.5422  1.2477  0.2050
  123MOL0     H16568  12.106   1.090   7.322 -0.4218 -1.9145 -1.7120
  123MOL0     H16569  12.638   1.262   7.549  2.9347  2.7605  0.9792
  123MOL0     H16570  12.839   1.109   7.557  1.3349  0.5395 -0.4922
  123MOL0     H16571  13.090   0.984   7.209  0.6900 -1.1451 -0.1009
  123MOL0     H16572  13.066   1.153   7.281  2.8793  0.1237 -3.0403
  123MOL0     H16573  13.196   0.911   7.420 -0.1230  0.4483 -2.6050
  123MOL0     H16574  13.267   1.050   7.337 -1.0917  2.6732 -0.6373
  123MOL0     H16575  13.085   1.074   7.582 -0.4863 -0.0080 -0.6638
  123MOL0     H16576  13.182   1.208   7.510 -0.8449  0.8263 -0.5121
  123MOL0     H16577  13.336   0.961   7.584 -0.6890  0.1276 -2.8076
  123MOL0     H16578  13.385   1.125   7.561 -0.5209  2.9597  2.2250
  123MOL0     H16579  13.401   1.094   7.785 -0.6228  1.1433 -1.3594
  123MOL0     H16580  13.254   1.006   7.803 -1.2643 -1.0902 -1.4057
  123MOL0     H16581  13.259   1.315   7.751 -1.2141  1.0350  2.5268
  123MOL0     H16582  13.120   1.213   7.757  0.5003 -3.0740  0.1944
  123MOL0     H16583  13.140   1.187   7.995 -1.5637  1.4363 -1.3323
  123MOL0     H16584  13.212   1.355   7.968  0.6487 -0.9921  2.7050
  123MOL0     H16585  13.432   1.248   7.979 -0.5020  1.5779  2.1330
  123MOL0     H16586  13.356   1.090   8.007  0.3565  0.0682 -0.8898
  123MOL0     H16587  12.820   1.043   7.134  1.8203  0.6785 -0.3828
  123MOL0     H16588  12.609   1.192   7.120 -1.2848 -3.8888  0.3373
  123MOL0     H16589  12.381   1.512   7.437  0.4817  2.0666 -1.4163
  123MOL0     H16590  12.186   1.661   7.467 -0.8095 -0.7189 -1.3087
  123MOL0     H16591  10.548   2.060   7.038  3.2610 -1.2388 -3.3081
  123MOL0     H16592  10.329   2.120   7.099  1.7432 -0.0347 -0.0035
  123MOL0     H16593   9.915   2.171   6.932 -2.1381 -1.1260 -1.9134
  123MOL0     H16594   9.723   2.289   6.967  3.6303  1.0174 -0.8074
  123MOL0     H16595   9.483   2.192   7.332  3.9678  1.4494  2.0714
  123MOL0     H16596   9.502   2.372   7.345 -1.3582  0.4638 -1.5826
  123MOL0     H16597   9.328   2.406   7.167 -1.4284 -0.6357 -2.1173
  123MOL0     H16598   9.275   2.336   7.326  0.1120 -0.1209  0.0412
  123MOL0     H16599   9.165   2.184   7.197 -0.2202  3.8731  0.3987
  123MOL0     H16600   9.320   2.101   7.185  0.4706  0.0811 -0.6489
  123MOL0     H16601   9.343   2.164   6.958 -0.1976  1.6037  0.1401
  123MOL0     H16602   9.277   2.322   6.986 -1.3622  0.3833  1.2615
  123MOL0     H16603   8.915   2.111   6.902  1.1125 -0.6829 -2.5392
  123MOL0     H16604   9.677   2.100   7.357 -2.2316  1.3501  0.3815
  123MOL0     H16605   9.860   1.971   7.319 -2.2381 -2.0635 -0.7863
  124MOL0     O16606   5.389   6.992   0.055  0.5036 -0.1869  0.3389
  124MOL0     C16607   5.412   7.008  -0.065 -0.1260 -0.0580  0.3866
  124MOL0     O16608   5.348   6.938  -0.167 -0.7497 -0.2074 -0.1220
  124MOL0     C16609   5.246   6.850  -0.147 -0.3103  0.7472  0.2300
  124MOL0     C16610   5.265   6.741  -0.063  0.0179 -0.0416  0.4049
  124MOL0     C16611   5.165   6.652  -0.031  0.1287  0.7930  0.4487
  124MOL0     C16612   5.043   6.663  -0.101 -0.2811  0.0692  0.4525
  124MOL0     O16613   4.941   6.580  -0.079  0.0118  0.5237  0.4318
  124MOL0     C16614   4.934   6.482   0.029  0.2815 -0.7221  1.0836
  124MOL0     C16615   4.788   6.424   0.030 -0.3738  0.8519 -0.3036
  124MOL0     C16616   4.666   6.504   0.075 -0.3527  0.2461  0.1693
  124MOL0     C16617   4.544   6.420   0.087  0.2413 -0.5663 -0.0177
  124MOL0     C16618   4.475   6.450   0.218 -0.3436  0.1583 -0.2219
  124MOL0     C16619   4.353   6.361   0.239 -0.2866  0.1286 -0.1169
  124MOL0     C16620   4.304   6.355   0.384  0.0549  0.3071  0.3840
  124MOL0     C16621   4.171   6.277   0.395 -0.1410 -0.2006  0.9124
  124MOL0     N16622   4.068   6.341   0.312  0.0953  0.5398 -0.5908
  124MOL0     C16623   4.013   6.465   0.341  0.0424  0.7214  0.1127
  124MOL0     C16624   3.913   6.479   0.252 -0.2759  0.4520 -0.1394
  124MOL0     C16625   3.818   6.596   0.240 -0.1084 -1.0705 -0.0491
  124MOL0     C16626   3.669   6.548   0.222 -0.4498 -0.8784 -0.3923
  124MOL0     C16627   3.564   6.662   0.218 -0.6479  0.8758 -0.3783
  124MOL0     C16628   3.433   6.592   0.182  0.5819 -0.6620 -0.4676
  124MOL0     O16629   3.313   6.667   0.233  0.5492 -0.1679  0.0977
  124MOL0     C16630   3.196   6.621   0.186 -0.0340  0.1150  0.3751
  124MOL0     C16631   3.177   6.520   0.090 -0.4333  0.0790  0.0250
  124MOL0     C16632   3.053   6.483   0.042  1.4574 -0.4314  0.5923
  124MOL0     C16633   3.057   6.386  -0.063 -0.6788  0.9659 -0.1515
  124MOL0     C16634   2.935   6.562   0.082  0.1109 -0.5865  0.4783
  124MOL0     C16635   2.795   6.547   0.026  0.4463  0.9755  0.4250
  124MOL0     O16636   2.705   6.652   0.052  0.1780 -0.1390 -0.4013
  124MOL0     C16637   2.577   6.629  -0.001 -0.2076 -0.9820 -0.1434
  124MOL0     C16638   2.531   6.709  -0.100  0.0937  1.0637 -0.2885
  124MOL0     C16639   2.393   6.700  -0.131 -0.6959  0.1290 -0.7303
  124MOL0     C16640   2.306   6.616  -0.072 -0.8120  0.4810 -0.4207
  124MOL0     O16641   2.187   6.602  -0.131 -0.2199 -0.5150 -0.4988
  124MOL0     C16642   2.123   6.475  -0.142 -0.3584  0.4622  0.3289
  124MOL0     C16643   1.970   6.478  -0.099  0.4436 -0.2295  0.3280
  124MOL0     C16644   1.908   6.333  -0.119 -0.9018  0.4601  0.8753
  124MOL0     C16645   1.778   6.321  -0.046 -0.4066  0.0982 -0.0988
  124MOL0     C16646   1.684   6.203  -0.086 -0.1211  0.2371  0.4414
  124MOL0     C16647   1.551   6.218  -0.015  0.4986  0.4959 -0.3839
  124MOL0     C16648   1.453   6.107  -0.048  0.4047 -0.5660 -0.3930
  124MOL0     C16649   1.330   6.116   0.044  0.2557  0.2765 -0.2491
  124MOL0    Cl16650   1.230   6.258   0.021 -0.2757  0.1523  0.6209
  124MOL0     C16651   2.347   6.552   0.041 -0.2278 -0.0962 -0.4074
  124MOL0     C16652   2.479   6.560   0.077 -0.6929  0.0877  0.3156
  124MOL0     O16653   2.772   6.448  -0.049 -0.4198  0.0861  0.1667
  124MOL0     C16654   2.953   6.652   0.185 -0.1318 -0.1199  0.4686
  124MOL0     C16655   3.081   6.684   0.233  0.0434  0.3552 -0.1822
  124MOL0     N16656   3.909   6.367   0.172 -0.2241  0.4268  0.7102
  124MOL0     N16657   4.000   6.284   0.215  0.3219  0.0891  0.1293
  124MOL0     C16658   5.022   6.776  -0.181  0.2483 -0.5173  0.2507
  124MOL0     C16659   5.121   6.868  -0.207 -0.0196 -0.4459 -0.5813
  124MOL0     C16660   5.516   7.113  -0.101 -0.0481  0.0420 -0.7079
  124MOL0     C16661   5.526   7.160  -0.231 -0.3887 -0.3168 -1.0277
  124MOL0     C16662   5.618   7.252  -0.262 -1.1112  0.3399 -0.1678
  124MOL0     C16663   5.706   7.302  -0.177 -0.5938 -0.0632  0.3119
  124MOL0     O16664   5.793   7.394  -0.228 -0.2815  0.4813 -0.4253
  124MOL0     C16665   5.907   7.428  -0.153 -0.3496 -0.5070 -0.1682
  124MOL0     C16666   5.887   7.545  -0.049 -0.1341  0.8520  0.4157
  124MOL0     C16667   6.008   7.613   0.020  0.0638  0.2684 -0.1430
  124MOL0     C16668   6.097   7.683  -0.080 -0.3744  0.1944 -0.4437
  124MOL0     C16669   6.220   7.720  -0.004  0.2062 -0.1383 -0.2015
  124MOL0     C16670   6.315   7.720   0.073 -0.3815  0.1033 -0.1946
  124MOL0     C16671   5.705   7.248  -0.046 -1.1849  1.3184  0.3710
  124MOL0     C16672   5.606   7.158  -0.011 -0.9906 -1.4631 -0.1456
  124MOL0     H16673   5.365   6.717  -0.030  0.3808  1.8066  0.7649
  124MOL0     H16674   5.180   6.565   0.032  0.1403  1.7608  1.8195
  124MOL0     H16675   5.009   6.404   0.009  1.0543  0.7861 -2.6452
  124MOL0     H16676   4.958   6.529   0.125  0.0906  1.1153  0.2682
  124MOL0     H16677   4.775   6.382  -0.070 -0.2678  0.2557 -0.0695
  124MOL0     H16678   4.784   6.337   0.095 -2.5560  0.3440 -1.0570
  124MOL0     H16679   4.689   6.544   0.174  1.1195  0.2336 -0.1402
  124MOL0     H16680   4.645   6.580  -0.001 -3.5143 -1.5662 -0.9599
  124MOL0     H16681   4.478   6.426   0.000 -1.6899 -1.9558  1.2950
  124MOL0     H16682   4.564   6.312   0.087 -2.8570 -1.2353 -0.8775
  124MOL0     H16683   4.537   6.427   0.305 -2.8010  0.2156  1.6448
  124MOL0     H16684   4.435   6.552   0.217  1.5923  0.9786 -1.1940
  124MOL0     H16685   4.275   6.380   0.165  0.7899  0.6932 -1.1482
  124MOL0     H16686   4.384   6.258   0.217 -0.8156  0.4119 -2.4730
  124MOL0     H16687   4.379   6.310   0.449 -0.2887  1.8977  1.9547
  124MOL0     H16688   4.280   6.453   0.427  2.8218  0.3312  2.1232
  124MOL0     H16689   4.125   6.279   0.495 -4.2761  0.3852 -0.8067
  124MOL0     H16690   4.175   6.171   0.368 -3.4439  0.5139 -3.4220
  124MOL0     H16691   4.048   6.528   0.421  5.7055 -3.0623  1.1548
  124MOL0     H16692   3.816   6.664   0.326  1.3800  0.7708 -1.3746
  124MOL0     H16693   3.847   6.661   0.157 -0.6729 -2.0375 -1.0309
  124MOL0     H16694   3.643   6.473   0.297  1.5614 -0.4364  0.8028
  124MOL0     H16695   3.668   6.499   0.124  2.1810 -0.8932 -0.4642
  124MOL0     H16696   3.583   6.746   0.151  2.0016  2.6909  2.3950
  124MOL0     H16697   3.556   6.718   0.311 -2.0920  2.3999 -1.3487
  124MOL0     H16698   3.422   6.492   0.222 -3.9880 -0.2252 -0.0511
  124MOL0     H16699   3.436   6.582   0.073 -1.1227 -0.0188 -0.6069
  124MOL0     H16700   3.257   6.464   0.043 -0.5687 -0.6635  0.6544
  124MOL0     H16701   3.004   6.299  -0.024  0.9719 -0.1667 -0.3647
  124MOL0     H16702   3.014   6.424  -0.156  1.4793 -2.4682 -2.7708
  124MOL0     H16703   3.157   6.349  -0.085 -0.0795  1.9624  0.7650
  124MOL0     H16704   2.588   6.795  -0.134  2.9757 -0.2701  0.8253
  124MOL0     H16705   2.349   6.767  -0.204 -1.3626  0.7167  0.2022
  124MOL0     H16706   2.127   6.447  -0.248 -0.8294  1.2690  0.0866
  124MOL0     H16707   2.169   6.397  -0.081  1.1450  0.0407 -1.2583
  124MOL0     H16708   1.957   6.510   0.005 -1.1740 -2.1132  0.7603
  124MOL0     H16709   1.913   6.542  -0.167 -2.7016 -2.0820  1.0412
  124MOL0     H16710   1.979   6.259  -0.081  0.5914  0.0995 -2.2496
  124MOL0     H16711   1.884   6.320  -0.225 -3.0476 -3.8086  1.6811
  124MOL0     H16712   1.802   6.321   0.060 -1.0459 -1.5089  0.0840
  124MOL0     H16713   1.717   6.410  -0.065  1.2076  1.5922  1.3302
  124MOL0     H16714   1.724   6.103  -0.067 -3.3096 -1.1716  0.4838
  124MOL0     H16715   1.657   6.204  -0.192 -1.6718 -2.1982  0.7336
  124MOL0     H16716   1.570   6.213   0.093 -0.8464 -0.7865 -0.1654
  124MOL0     H16717   1.506   6.315  -0.039  0.5953  1.2169  2.0330
  124MOL0     H16718   1.498   6.008  -0.037  0.1993 -0.9468 -2.5142
  124MOL0     H16719   1.420   6.105  -0.152  0.6499 -0.7959 -0.4680
  124MOL0     H16720   1.365   6.119   0.148 -0.1910  0.6483 -0.1057
  124MOL0     H16721   1.270   6.030   0.014  1.2117  0.6416 -3.5861
  124MOL0     H16722   2.284   6.491   0.106 -1.9902 -2.3435 -3.9107
  124MOL0     H16723   2.515   6.508   0.166 -1.0767 -0.2367  0.2840
  124MOL0     H16724   2.875   6.704   0.241 -1.0838  0.4515 -1.2934
  124MOL0     H16725   3.087   6.766   0.304  2.1782  1.0832 -1.1016
  124MOL0     H16726   4.922   6.777  -0.224 -0.3825  0.1066  1.6766
  124MOL0     H16727   5.109   6.959  -0.265 -0.3063 -0.0002  0.1621
  124MOL0     H16728   5.459   7.112  -0.302 -0.8812 -0.0759 -0.7347
  124MOL0     H16729   5.622   7.288  -0.364  2.5121 -1.9124 -0.9875
  124MOL0     H16730   5.949   7.340  -0.104 -0.2897  0.7559  2.2244
  124MOL0     H16731   5.987   7.456  -0.222 -0.2539 -2.6068 -0.9804
  124MOL0     H16732   5.822   7.500   0.028 -0.9390 -1.0806 -1.3009
  124MOL0     H16733   5.827   7.617  -0.106 -0.2076 -1.2196 -2.3260
  124MOL0     H16734   6.070   7.544   0.077  3.6897  0.6341 -3.2529
  124MOL0     H16735   5.968   7.687   0.090 -3.1388  0.4983 -1.9863
  124MOL0     H16736   6.044   7.770  -0.120 -2.4848 -0.7137  0.2177
  124MOL0     H16737   6.140   7.620  -0.158  2.2683  0.1797  0.8935
  124MOL0     H16738   6.398   7.718   0.139  0.8554  0.5810 -1.6787
  124MOL0     H16739   5.786   7.263   0.024  0.5311 -1.8304 -0.7647
  124MOL0     H16740   5.615   7.126   0.093 -2.0422 -1.2818  0.0157
  125MOL0     O16741   2.055   2.712   1.683 -0.6692  0.8309 -1.0222
  125MOL0     C16742   1.942   2.667   1.668 -0.9117  0.1511  0.2982
  125MOL0     O16743   1.880   2.659   1.555 -0.7788 -0.1204 -1.0409
  125MOL0     C16744   1.951   2.683   1.435  0.7121  0.7457 -1.4625
  125MOL0     C16745   2.063   2.607   1.393  0.5175  0.1366 -0.6259
  125MOL0     C16746   2.133   2.642   1.282  0.3317  0.6832  0.0006
  125MOL0     C16747   2.089   2.744   1.198 -0.7738  0.1446 -0.5920
  125MOL0     O16748   2.151   2.771   1.083  0.1124  0.1326 -0.3231
  125MOL0     C16749   2.297   2.775   1.097  0.2817  0.9567  0.6217
  125MOL0     C16750   2.360   2.891   1.013  0.0063 -0.3566 -0.2996
  125MOL0     C16751   2.517   2.887   1.009  0.1203  0.3590 -0.4439
  125MOL0     C16752   2.569   2.806   0.888 -0.5577  1.1335  0.0510
  125MOL0     C16753   2.721   2.788   0.882 -0.4207  0.4848  0.3163
  125MOL0     C16754   2.799   2.928   0.885  0.3162  1.3259 -0.0480
  125MOL0     C16755   2.955   2.915   0.884  0.2580  0.5026  0.0375
  125MOL0     C16756   3.007   3.050   0.833  0.1719 -0.1830  0.2806
  125MOL0     N16757   2.970   3.051   0.691  0.4532 -0.4135 -0.6203
  125MOL0     C16758   3.036   2.995   0.587 -0.0425  0.1756 -0.1931
  125MOL0     C16759   2.999   3.057   0.475  0.1488  0.3286 -0.2563
  125MOL0     C16760   3.064   3.029   0.343  0.1115 -0.2439 -0.2509
  125MOL0     C16761   3.182   3.118   0.324 -0.3687  0.0585  0.8467
  125MOL0     C16762   3.153   3.254   0.258  0.1056  0.1222 -0.1899
  125MOL0     C16763   3.284   3.350   0.251 -0.4732 -0.6746  0.2046
  125MOL0     O16764   3.384   3.271   0.188 -0.3026 -0.3028  0.0706
  125MOL0     C16765   3.516   3.299   0.202 -0.1605  0.4915  0.2626
  125MOL0     C16766   3.599   3.195   0.162 -1.0644 -0.2235  0.1085
  125MOL0     C16767   3.735   3.209   0.184 -0.0539  0.0150 -0.6708
  125MOL0     C16768   3.815   3.084   0.152 -0.2609 -0.0581  0.1621
  125MOL0     C16769   3.792   3.327   0.238  0.3900 -0.5501 -0.1493
  125MOL0     C16770   3.936   3.349   0.250  1.3207  1.0765  0.1708
  125MOL0     O16771   3.968   3.429   0.356  0.3965  0.0283 -0.4391
  125MOL0     C16772   4.097   3.444   0.400 -0.3882  0.3388  0.0293
  125MOL0     C16773   4.113   3.553   0.494 -0.0168  0.1460 -0.1178
  125MOL0     C16774   4.236   3.558   0.558  0.1856 -0.6406 -0.0233
  125MOL0     C16775   4.338   3.465   0.539  0.0092 -0.1421 -0.1006
  125MOL0     O16776   4.452   3.464   0.615  0.0380 -0.0874  0.2358
  125MOL0     C16777   4.554   3.554   0.586 -0.4304 -0.3348 -0.9660
  125MOL0     C16778   4.685   3.473   0.582 -0.3991  0.3977 -0.5883
  125MOL0     C16779   4.805   3.556   0.526 -0.4470  0.1377 -0.1442
  125MOL0     C16780   4.925   3.458   0.530  0.3991  0.3259 -0.4983
  125MOL0     C16781   5.054   3.528   0.516  0.5102 -0.0650 -0.5285
  125MOL0     C16782   5.065   3.610   0.390  0.3013 -0.1356 -0.3565
  125MOL0     C16783   5.196   3.685   0.387  0.2505 -0.1016 -0.5829
  125MOL0     C16784   5.316   3.595   0.377 -0.7273  0.2725  0.0015
  125MOL0    Cl16785   5.459   3.684   0.319  0.0140 -0.4590 -0.3964
  125MOL0     C16786   4.322   3.362   0.452 -0.0824  0.7204 -0.9765
  125MOL0     C16787   4.203   3.349   0.378  1.4159 -0.2305  0.2570
  125MOL0     O16788   4.008   3.323   0.156 -0.2916  0.1909  0.2935
  125MOL0     C16789   3.707   3.444   0.253 -0.1483  0.3838  1.1149
  125MOL0     C16790   3.572   3.428   0.232  0.4000 -0.8849 -0.5475
  125MOL0     N16791   2.902   3.154   0.508 -0.0011 -0.5910 -0.1918
  125MOL0     N16792   2.892   3.148   0.635  0.2906 -0.1256 -0.6792
  125MOL0     C16793   1.967   2.806   1.229 -0.1402  0.1024 -0.2117
  125MOL0     C16794   1.898   2.779   1.348 -0.0712 -0.3399  0.5021
  125MOL0     C16795   1.860   2.618   1.789  0.1383  1.2219  0.3887
  125MOL0     C16796   1.748   2.537   1.773 -0.5500 -1.1001 -0.4566
  125MOL0     C16797   1.668   2.503   1.881 -0.2763  0.0575  0.4758
  125MOL0     C16798   1.706   2.533   2.007 -0.5891  0.2985  0.5435
  125MOL0     O16799   1.622   2.502   2.112  0.2787 -0.6403 -0.1666
  125MOL0     C16800   1.613   2.603   2.215  1.2423  0.0782 -0.7067
  125MOL0     C16801   1.478   2.593   2.302 -0.3705 -1.1693  0.2660
  125MOL0     C16802   1.359   2.585   2.206 -0.6884 -0.3039 -0.0088
  125MOL0     C16803   1.234   2.600   2.290 -0.0176  0.1767  0.9112
  125MOL0     C16804   1.110   2.604   2.209  0.1598  0.2650 -0.8093
  125MOL0     C16805   1.001   2.603   2.161  0.3522 -0.3282 -0.5247
  125MOL0     C16806   1.827   2.607   2.021 -0.4100 -0.0559  0.0233
  125MOL0     C16807   1.909   2.644   1.917 -0.2630 -0.6126  0.1991
  125MOL0     H16808   2.096   2.537   1.469 -1.1564  0.6016  0.5898
  125MOL0     H16809   2.223   2.594   1.246  0.3388  0.9579 -0.3506
  125MOL0     H16810   2.329   2.816   1.193  0.1099 -1.6457  1.8510
  125MOL0     H16811   2.345   2.679   1.079 -2.9156 -0.8590  1.0725
  125MOL0     H16812   2.334   2.889   0.907  3.1352 -2.3420 -1.1751
  125MOL0     H16813   2.327   2.986   1.056 -1.8194 -1.7711  1.6383
  125MOL0     H16814   2.552   2.989   0.993 -0.2366  1.2351  3.3511
  125MOL0     H16815   2.549   2.854   1.109  0.7458 -0.0642 -0.7786
  125MOL0     H16816   2.521   2.709   0.898 -2.8097  2.3272  1.6274
  125MOL0     H16817   2.538   2.862   0.799 -1.6426  1.4586  0.6189
  125MOL0     H16818   2.750   2.729   0.969  1.3883 -1.1477 -1.2807
  125MOL0     H16819   2.756   2.729   0.797  3.1465  0.1128  1.8646
  125MOL0     H16820   2.744   2.984   0.810  0.3796 -0.4625 -1.5176
  125MOL0     H16821   2.774   2.985   0.975 -0.5221  1.2119 -0.2000
  125MOL0     H16822   2.981   2.893   0.988 -0.6400 -0.7956  0.0209
  125MOL0     H16823   2.978   2.828   0.821 -0.8916  1.3294 -1.6142
  125MOL0     H16824   3.116   3.054   0.841  0.2833 -0.3973 -0.8792
  125MOL0     H16825   2.955   3.125   0.892 -0.5404 -1.2048  0.9744
  125MOL0     H16826   3.125   2.933   0.592 -0.1677 -0.1198 -1.2205
  125MOL0     H16827   3.088   2.923   0.330  2.1649  0.3431 -1.6587
  125MOL0     H16828   2.987   3.059   0.271 -1.5389 -2.1459  0.6211
  125MOL0     H16829   3.246   3.060   0.257 -1.0905 -1.7826  1.6893
  125MOL0     H16830   3.236   3.130   0.418  2.2047 -0.9750 -0.4069
  125MOL0     H16831   3.075   3.309   0.312 -0.9459  2.8299 -4.0704
  125MOL0     H16832   3.115   3.227   0.159  3.6420 -4.1538 -0.6829
  125MOL0     H16833   3.310   3.404   0.343 -3.2328  0.6962  0.3041
  125MOL0     H16834   3.261   3.435   0.186 -1.1703 -2.6626 -2.3133
  125MOL0     H16835   3.555   3.107   0.117 -0.8022 -1.1691  1.6431
  125MOL0     H16836   3.890   3.114   0.078 -1.3934  1.7507 -0.3273
  125MOL0     H16837   3.868   3.047   0.239 -1.1801  0.9014  1.1674
  125MOL0     H16838   3.744   3.012   0.110 -2.7731  3.3435 -2.0439
  125MOL0     H16839   4.033   3.618   0.529  1.2858  1.5295  0.3468
  125MOL0     H16840   4.251   3.643   0.624 -1.3634  0.3972 -0.9516
  125MOL0     H16841   4.540   3.601   0.488  2.4539 -3.0101 -2.8338
  125MOL0     H16842   4.552   3.633   0.662  1.2207 -1.2571  0.0874
  125MOL0     H16843   4.700   3.430   0.681 -1.2408 -1.3267 -1.1497
  125MOL0     H16844   4.666   3.395   0.507  1.3113  0.1296 -0.7744
  125MOL0     H16845   4.838   3.637   0.591  2.0791  1.2120 -2.5301
  125MOL0     H16846   4.774   3.592   0.427  0.9473  0.7806 -0.3685
  125MOL0     H16847   4.914   3.427   0.634 -1.1153  2.2522 -0.0140
  125MOL0     H16848   4.908   3.379   0.456 -0.9299  0.8343 -0.7700
  125MOL0     H16849   5.129   3.448   0.523 -0.1506 -0.6360  0.2210
  125MOL0     H16850   5.074   3.603   0.593  0.2008  0.3511 -0.8467
  125MOL0     H16851   5.041   3.556   0.299 -0.9523  2.4621 -1.6963
  125MOL0     H16852   4.989   3.689   0.399  2.8475  2.3695  0.8348
  125MOL0     H16853   5.210   3.757   0.468  2.0203  1.2900 -2.0226
  125MOL0     H16854   5.202   3.733   0.289 -0.6533 -1.0745 -1.1462
  125MOL0     H16855   5.286   3.520   0.303 -3.7786  0.3483  1.0235
  125MOL0     H16856   5.326   3.549   0.475 -0.6188  1.2202  0.4419
  125MOL0     H16857   4.403   3.291   0.447 -0.5957 -0.2234  1.9245
  125MOL0     H16858   4.184   3.268   0.309 -0.6516  1.1164 -0.8661
  125MOL0     H16859   3.747   3.538   0.288 -1.3865  2.7678 -3.1454
  125MOL0     H16860   3.513   3.515   0.255 -0.7441 -2.2843  2.1984
  125MOL0     H16861   1.929   2.874   1.153  2.6436 -1.2526 -3.0670
  125MOL0     H16862   1.804   2.829   1.370  0.0086  0.6453 -1.2659
  125MOL0     H16863   1.726   2.508   1.670  0.9931 -0.2276 -1.0726
  125MOL0     H16864   1.570   2.459   1.862  0.2278 -0.0192 -2.2808
  125MOL0     H16865   1.697   2.593   2.283  0.0707  2.3381  1.2255
  125MOL0     H16866   1.623   2.703   2.171  0.5200 -0.4110 -2.0492
  125MOL0     H16867   1.480   2.676   2.373 -1.8510 -1.9092  1.2077
  125MOL0     H16868   1.482   2.500   2.358  2.0274 -0.5465  1.2559
  125MOL0     H16869   1.369   2.489   2.155 -0.7574 -0.9420  1.1419
  125MOL0     H16870   1.368   2.670   2.139 -0.5063  0.5586  1.0800
  125MOL0     H16871   1.227   2.696   2.342  1.2992 -0.7615  2.9149
  125MOL0     H16872   1.224   2.516   2.359  2.6613 -0.3898  0.7209
  125MOL0     H16873   0.904   2.577   2.123 -0.1927 -1.5166  1.5638
  125MOL0     H16874   1.856   2.630   2.123  1.8604  0.2235 -0.6304
  125MOL0     H16875   2.006   2.686   1.941 -0.6392 -0.3010  1.2414
  126MOL0     O16876   8.534   2.746   3.752 -0.8186 -0.4517 -0.1812
  126MOL0     C16877   8.479   2.777   3.857  0.2129 -0.4364  0.1002
  126MOL0     O16878   8.384   2.874   3.875  0.0803 -0.3621  0.1666
  126MOL0     C16879   8.385   2.988   3.786  0.4420  1.0402 -0.7365
  126MOL0     C16880   8.390   2.989   3.651  0.7027  0.6461 -0.0399
  126MOL0     C16881   8.363   3.102   3.573  0.4379  0.2834 -0.2973
  126MOL0     C16882   8.342   3.218   3.645  0.2129 -0.5098  1.5663
  126MOL0     O16883   8.307   3.329   3.564 -0.3839 -0.0648 -0.2167
  126MOL0     C16884   8.184   3.416   3.584 -0.7036 -0.0868  0.0363
  126MOL0     C16885   8.161   3.500   3.463  0.8752  0.9156 -0.1853
  126MOL0     C16886   8.140   3.422   3.334  0.3184  0.4135 -0.7763
  126MOL0     C16887   7.997   3.370   3.323 -0.2631 -0.2834 -0.0865
  126MOL0     C16888   7.981   3.231   3.373 -0.3954  0.4436 -0.7042
  126MOL0     C16889   8.041   3.124   3.282  0.1280  0.3357 -0.4280
  126MOL0     C16890   7.981   3.120   3.143 -0.4344  0.8431  0.5757
  126MOL0     C16891   7.833   3.146   3.128  1.3330 -0.0654  0.2682
  126MOL0     N16892   7.734   3.071   3.216 -0.3142 -0.1891 -0.1766
  126MOL0     C16893   7.753   2.943   3.262  0.0736  0.9369 -0.2812
  126MOL0     C16894   7.663   2.929   3.364  0.3636  0.9311  0.2582
  126MOL0     C16895   7.642   2.818   3.468  0.2099  0.9541  0.4016
  126MOL0     C16896   7.686   2.680   3.400 -0.0548 -0.5455  0.0165
  126MOL0     C16897   7.569   2.617   3.320  0.5486  0.8912 -0.1254
  126MOL0     C16898   7.566   2.660   3.172 -0.1044 -1.3718  0.2026
  126MOL0     O16899   7.502   2.570   3.082  0.5251 -0.0205 -0.2674
  126MOL0     C16900   7.361   2.570   3.072 -0.2764  0.8621 -0.4264
  126MOL0     C16901   7.309   2.475   2.983 -0.8255 -0.2885  0.1854
  126MOL0     C16902   7.178   2.484   2.936 -0.5192  0.0921  0.1188
  126MOL0     C16903   7.137   2.370   2.834 -0.4513  0.7862  0.2307
  126MOL0     C16904   7.092   2.582   2.992 -0.3451  0.5284  0.2433
  126MOL0     C16905   6.950   2.593   2.944 -0.4712 -0.2392 -0.6552
  126MOL0     O16906   6.920   2.561   2.818 -0.1556  0.0883 -0.1689
  126MOL0     C16907   6.790   2.566   2.770 -0.4886 -0.8467 -0.5767
  126MOL0     C16908   6.697   2.481   2.825  0.4792  0.5303 -0.1959
  126MOL0     C16909   6.567   2.459   2.775  0.2396 -0.4527  0.7421
  126MOL0     C16910   6.528   2.541   2.674 -0.0031 -0.5277  0.8559
  126MOL0     O16911   6.398   2.538   2.623 -0.5925 -0.2713 -0.0935
  126MOL0     C16912   6.301   2.539   2.726  0.3124  0.2314  0.0433
  126MOL0     C16913   6.153   2.504   2.677  1.1131  0.4776 -0.5747
  126MOL0     C16914   6.050   2.488   2.796  0.5235 -0.2839  0.3442
  126MOL0     C16915   5.910   2.516   2.747 -0.1608  0.3712 -0.6773
  126MOL0     C16916   5.797   2.524   2.842  0.0127  0.7124  0.3107
  126MOL0     C16917   5.671   2.509   2.776  0.0520  0.2720 -1.0000
  126MOL0     C16918   5.560   2.526   2.877  0.6808  0.1177 -0.0558
  126MOL0     C16919   5.430   2.452   2.834  0.6613 -0.1504 -0.3883
  126MOL0    Cl16920   5.282   2.488   2.951 -0.4549  0.0339 -0.0583
  126MOL0     C16921   6.618   2.639   2.619  0.6517 -0.6201  0.1113
  126MOL0     C16922   6.748   2.656   2.665 -0.6096  0.2421  0.0321
  126MOL0     O16923   6.880   2.647   3.024  0.0551  0.7037  0.5768
  126MOL0     C16924   7.142   2.663   3.099  0.3063  0.2987 -0.0967
  126MOL0     C16925   7.275   2.659   3.141 -0.1024 -0.2156  0.6124
  126MOL0     N16926   7.590   3.044   3.372 -0.5484 -0.3007  0.5990
  126MOL0     N16927   7.630   3.125   3.280 -0.4805 -0.2848  0.1108
  126MOL0     C16928   8.360   3.225   3.786  0.9983  0.1625 -0.2983
  126MOL0     C16929   8.381   3.107   3.861  1.0433 -0.1750  0.7972
  126MOL0     C16930   8.526   2.704   3.972  0.6784  0.4046 -0.6355
  126MOL0     C16931   8.622   2.603   3.963 -0.5470  0.3309 -0.5658
  126MOL0     C16932   8.656   2.521   4.081  0.8122 -0.1993  0.4848
  126MOL0     C16933   8.603   2.555   4.204  0.7389  1.1557 -0.1951
  126MOL0     O16934   8.626   2.484   4.317  0.3668  1.1211 -0.3018
  126MOL0     C16935   8.764   2.470   4.349  0.2841 -0.0259  0.3429
  126MOL0     C16936   8.822   2.603   4.403  1.2688 -0.3314 -0.4955
  126MOL0     C16937   8.962   2.592   4.462 -0.2318 -0.5341  0.5479
  126MOL0     C16938   9.056   2.519   4.363 -0.6504 -0.3431 -0.0908
  126MOL0     C16939   9.194   2.525   4.411  0.1266  0.6479 -0.3129
  126MOL0     C16940   9.306   2.531   4.453 -0.6567  0.2091  0.0764
  126MOL0     C16941   8.508   2.657   4.211 -0.0854  0.4378 -0.0515
  126MOL0     C16942   8.473   2.723   4.097 -0.4246 -0.4348  0.6509
  126MOL0     H16943   8.396   2.890   3.609 -4.9910 -0.5446  1.2104
  126MOL0     H16944   8.354   3.093   3.466 -1.3279  0.6617 -0.1963
  126MOL0     H16945   8.097   3.360   3.619 -0.4595  0.5629  1.7383
  126MOL0     H16946   8.212   3.485   3.664 -1.9703 -0.8924  1.2049
  126MOL0     H16947   8.076   3.566   3.479  1.6526  2.0085 -0.3935
  126MOL0     H16948   8.248   3.564   3.443 -0.6869  3.2190  0.0834
  126MOL0     H16949   8.144   3.489   3.248  1.6964 -2.8149 -3.4230
  126MOL0     H16950   8.215   3.345   3.315  1.5741  1.0162  1.3196
  126MOL0     H16951   7.921   3.426   3.378  0.9454  0.0994  1.2541
  126MOL0     H16952   7.966   3.370   3.218 -2.8617 -2.4899  0.5638
  126MOL0     H16953   8.030   3.227   3.471  1.2223  1.1403 -1.4508
  126MOL0     H16954   7.874   3.208   3.368 -0.2165 -0.2015 -1.7647
  126MOL0     H16955   8.148   3.144   3.274  0.3946 -1.2692 -1.5530
  126MOL0     H16956   8.017   3.025   3.324 -1.1782  0.7218 -0.2220
  126MOL0     H16957   8.031   3.196   3.082 -1.2347 -0.2351 -1.5193
  126MOL0     H16958   8.016   3.028   3.095  2.2927  1.8000  0.5842
  126MOL0     H16959   7.799   3.128   3.026 -3.7684  1.3533  1.4022
  126MOL0     H16960   7.812   3.251   3.151  2.5649  0.4360 -0.7834
  126MOL0     H16961   7.841   2.883   3.241  0.6063  1.6106  0.0125
  126MOL0     H16962   7.696   2.843   3.560 -0.6128  0.4461  1.0309
  126MOL0     H16963   7.533   2.814   3.478  0.3398  0.4646  1.8264
  126MOL0     H16964   7.713   2.615   3.484 -2.6265  0.7484  1.9959
  126MOL0     H16965   7.772   2.702   3.336 -1.0892 -1.3859 -1.7158
  126MOL0     H16966   7.475   2.650   3.365 -1.5594 -1.9540 -2.0686
  126MOL0     H16967   7.572   2.507   3.321 -2.3104  0.6242 -3.6143
  126MOL0     H16968   7.669   2.677   3.138 -0.8050  1.2145 -0.7909
  126MOL0     H16969   7.521   2.759   3.164  0.6612 -0.9306  1.0883
  126MOL0     H16970   7.374   2.402   2.936 -0.9874 -1.6970  2.0566
  126MOL0     H16971   7.047   2.325   2.877  0.7349 -0.4677  1.4886
  126MOL0     H16972   7.119   2.421   2.738 -0.1241  1.1265  0.3466
  126MOL0     H16973   7.212   2.292   2.823 -1.2057  0.2450 -1.3984
  126MOL0     H16974   6.723   2.424   2.915  3.0615  0.1738 -1.0846
  126MOL0     H16975   6.496   2.394   2.824 -1.1755  0.5760  0.1123
  126MOL0     H16976   6.321   2.462   2.800 -0.0712 -2.3098 -2.3503
  126MOL0     H16977   6.306   2.634   2.780  1.8223 -0.3257  0.9504
  126MOL0     H16978   6.120   2.583   2.608  0.7826  0.3417 -0.5706
  126MOL0     H16979   6.161   2.403   2.635  1.5034  0.0439  0.5024
  126MOL0     H16980   6.084   2.550   2.879  1.2992  0.1998 -0.3162
  126MOL0     H16981   6.039   2.387   2.836 -0.0466 -0.0546  0.7661
  126MOL0     H16982   5.908   2.607   2.686  1.5795  0.1558 -1.1105
  126MOL0     H16983   5.893   2.428   2.683  0.1508  0.0474 -0.3143
  126MOL0     H16984   5.808   2.613   2.904  0.3866  0.9786 -0.1272
  126MOL0     H16985   5.806   2.437   2.907 -0.3039 -1.2564 -2.1151
  126MOL0     H16986   5.664   2.577   2.691  0.7874  3.3344  1.2288
  126MOL0     H16987   5.657   2.408   2.737 -0.3551 -0.1897  0.2781
  126MOL0     H16988   5.530   2.631   2.882 -0.0531 -0.0516 -0.7299
  126MOL0     H16989   5.573   2.467   2.968 -0.8581 -1.3331 -0.7157
  126MOL0     H16990   5.447   2.344   2.830 -0.8267 -0.4619  0.4777
  126MOL0     H16991   5.412   2.489   2.733  0.6919 -2.2015 -1.1964
  126MOL0     H16992   6.577   2.696   2.537  0.5536 -3.0788 -1.6830
  126MOL0     H16993   6.808   2.734   2.619  1.3948 -2.1010 -1.5348
  126MOL0     H16994   7.069   2.722   3.154  1.6437  1.5027  0.4690
  126MOL0     H16995   7.295   2.726   3.223 -0.5211  0.2078  0.3753
  126MOL0     H16996   8.339   3.320   3.834 -0.8701 -0.0669 -0.5949
  126MOL0     H16997   8.388   3.104   3.970 -0.9056 -1.9543  0.9307
  126MOL0     H16998   8.663   2.578   3.866 -1.6814  3.9118 -2.1122
  126MOL0     H16999   8.720   2.435   4.070 -1.1830 -1.4877 -1.9203
  126MOL0     H17000   8.770   2.394   4.428 -0.7182  1.2309  1.6829
  126MOL0     H17001   8.825   2.434   4.266  0.2160  1.6612 -0.4781
  126MOL0     H17002   8.753   2.638   4.480 -0.9574 -1.5130 -1.8567
  126MOL0     H17003   8.816   2.679   4.325 -1.5920 -0.2069 -0.2586
  126MOL0     H17004   8.960   2.549   4.563  0.9938 -0.6193  0.5495
  126MOL0     H17005   8.993   2.697   4.472 -1.8448  0.2306 -1.7380
  126MOL0     H17006   9.066   2.573   4.269  0.3306 -1.4423 -0.6299
  126MOL0     H17007   9.028   2.413   4.356 -2.1085  0.0887 -1.4990
  126MOL0     H17008   9.402   2.528   4.500 -1.4935  0.8671  1.9504
  126MOL0     H17009   8.470   2.685   4.308  1.1209 -1.4844  1.0529
  126MOL0     H17010   8.390   2.792   4.084 -1.3491 -1.6715 -0.2138
  127MOL0     O17011   5.609   9.551   7.485  0.0888 -0.0017 -0.2281
  127MOL0     C17012   5.657   9.606   7.390 -0.3272 -0.0042  0.2326
  127MOL0     O17013   5.587   9.672   7.291 -0.1340 -0.1617  0.4605
  127MOL0     C17014   5.446   9.668   7.283  0.4105  0.9252  0.1985
  127MOL0     C17015   5.364   9.545   7.295 -0.2451 -1.1534 -0.4173
  127MOL0     C17016   5.231   9.558   7.269  0.4111 -0.3763  0.5049
  127MOL0     C17017   5.170   9.677   7.221 -0.6185 -0.1867 -0.5917
  127MOL0     O17018   5.034   9.675   7.197 -0.3995 -0.1037  0.8493
  127MOL0     C17019   4.994   9.653   7.056 -0.6143 -1.1845  0.4568
  127MOL0     C17020   4.899   9.753   6.995  0.2288 -0.2581 -1.0076
  127MOL0     C17021   4.755   9.716   7.009  0.2151 -0.1768  0.3297
  127MOL0     C17022   4.728   9.619   6.901  0.1037  0.6241  0.1278
  127MOL0     C17023   4.583   9.579   6.911  0.5788  0.7403  0.4499
  127MOL0     C17024   4.558   9.476   7.015  0.0045  0.0540 -0.0443
  127MOL0     C17025   4.412   9.418   7.002  0.5599 -0.1216 -0.3193
  127MOL0     C17026   4.378   9.354   7.142 -0.6838 -0.6417 -0.1371
  127MOL0     N17027   4.240   9.304   7.132 -0.1314 -0.5513 -0.5431
  127MOL0     C17028   4.127   9.382   7.131  0.8675  0.0087  0.6974
  127MOL0     C17029   4.022   9.295   7.119  0.8800 -0.0624  0.9583
  127MOL0     C17030   3.874   9.331   7.107 -0.2891  0.1971 -0.2294
  127MOL0     C17031   3.831   9.338   6.959 -1.0935  0.1846  0.0953
  127MOL0     C17032   3.736   9.228   6.927  0.5926 -0.0339  0.3439
  127MOL0     C17033   3.805   9.097   6.897 -0.3033  1.0077  0.0849
  127MOL0     O17034   3.698   9.001   6.871 -0.3894 -0.2706  0.4219
  127MOL0     C17035   3.612   9.029   6.762 -0.1004  0.5188  0.4822
  127MOL0     C17036   3.483   9.064   6.786  0.6903  0.5919  1.0240
  127MOL0     C17037   3.390   9.069   6.678  0.1066 -1.5215  0.8337
  127MOL0     C17038   3.239   9.083   6.711  1.3803  0.5262  0.1788
  127MOL0     C17039   3.432   9.049   6.543  0.6121 -0.3476 -0.2896
  127MOL0     C17040   3.330   9.038   6.423 -0.6114  0.4510 -0.6706
  127MOL0     O17041   3.346   8.923   6.347  0.1624 -0.0209  0.4020
  127MOL0     C17042   3.290   8.916   6.222 -0.7736  0.4996 -0.5651
  127MOL0     C17043   3.361   8.956   6.108 -0.2645 -0.1437 -0.7918
  127MOL0     C17044   3.302   8.959   5.981  0.1422  0.4343  0.0502
  127MOL0     C17045   3.174   8.905   5.955 -0.7532 -0.6560 -0.9977
  127MOL0     O17046   3.110   8.896   5.831 -0.1709 -0.1118  0.4091
  127MOL0     C17047   3.183   8.962   5.719  0.7174 -0.4217 -0.9571
  127MOL0     C17048   3.261   8.858   5.643  0.1950  1.0434 -0.3349
  127MOL0     C17049   3.312   8.918   5.499 -0.1337 -0.6465 -0.4225
  127MOL0     C17050   3.446   8.843   5.473  0.2814  0.0238  0.5419
  127MOL0     C17051   3.477   8.843   5.320  0.1991  0.3208 -0.4912
  127MOL0     C17052   3.595   8.751   5.293  0.1172 -1.3546  1.1875
  127MOL0     C17053   3.642   8.765   5.143  0.2656  0.1064 -0.1047
  127MOL0     C17054   3.770   8.689   5.127  0.0199  0.3577  0.2591
  127MOL0    Cl17055   3.774   8.520   5.193 -0.4221  0.4658 -0.2539
  127MOL0     C17056   3.101   8.850   6.066 -0.3916 -0.5879 -0.0795
  127MOL0     C17057   3.155   8.870   6.198 -0.4032 -0.1834  0.6344
  127MOL0     O17058   3.249   9.123   6.404  0.2361 -0.0908 -0.9953
  127MOL0     C17059   3.564   9.002   6.519  0.7557 -0.8232 -0.0624
  127MOL0     C17060   3.653   8.989   6.627 -0.8938  0.0491 -0.9351
  127MOL0     N17061   4.077   9.164   7.105  0.7491  0.6196 -0.9619
  127MOL0     N17062   4.203   9.174   7.120 -0.5957  0.2896  0.1037
  127MOL0     C17063   5.247   9.785   7.224  0.5889  0.9008 -0.0182
  127MOL0     C17064   5.387   9.784   7.243 -0.5577 -0.5425  0.1357
  127MOL0     C17065   5.804   9.594   7.359 -0.0056  0.6173 -1.0776
  127MOL0     C17066   5.884   9.515   7.445 -0.5419 -0.2467  0.0452
  127MOL0     C17067   6.015   9.484   7.413 -0.3185 -0.2820 -0.6200
  127MOL0     C17068   6.080   9.538   7.298 -0.6658  0.5134  0.3454
  127MOL0     O17069   6.219   9.513   7.275 -0.2562 -0.4660 -1.2040
  127MOL0     C17070   6.258   9.583   7.159  0.5360  0.0861  0.1125
  127MOL0     C17071   6.411   9.556   7.136 -0.0412  0.4349 -0.0513
  127MOL0     C17072   6.499   9.577   7.262  0.1987  0.5859  0.0125
  127MOL0     C17073   6.504   9.723   7.297 -0.0312  0.2382 -0.7582
  127MOL0     C17074   6.602   9.731   7.409  0.7560  0.2028 -0.5167
  127MOL0     C17075   6.683   9.746   7.498  0.0153  0.5708 -0.0348
  127MOL0     C17076   5.994   9.617   7.210  0.3575  0.1269  0.1690
  127MOL0     C17077   5.863   9.638   7.247  0.1829 -0.8843 -0.3249
  127MOL0     H17078   5.416   9.450   7.285  1.2561 -0.3188 -0.7587
  127MOL0     H17079   5.170   9.468   7.259  0.9129 -0.8052  1.2362
  127MOL0     H17080   5.083   9.660   6.992  1.3334 -1.8953  2.9059
  127MOL0     H17081   4.940   9.558   7.055  0.4313 -1.7933 -0.7232
  127MOL0     H17082   4.916   9.856   7.029  1.3380 -0.4574 -0.9221
  127MOL0     H17083   4.921   9.759   6.888  2.6234 -0.1695 -0.5748
  127MOL0     H17084   4.732   9.673   7.107  0.0845 -1.3390 -0.1911
  127MOL0     H17085   4.687   9.797   6.984 -0.2962  0.3424  3.0553
  127MOL0     H17086   4.748   9.653   6.799 -2.3454 -0.3033 -0.7274
  127MOL0     H17087   4.790   9.530   6.917 -1.0564  0.0465  1.6351
  127MOL0     H17088   4.523   9.669   6.924  1.2391  1.3885 -0.8874
  127MOL0     H17089   4.562   9.532   6.815 -1.4540 -1.2989  1.7806
  127MOL0     H17090   4.632   9.396   7.013  0.4165  0.3491  1.5765
  127MOL0     H17091   4.572   9.529   7.110 -0.0909 -0.3783  0.2165
  127MOL0     H17092   4.336   9.493   6.977  1.7444  1.2363 -0.0162
  127MOL0     H17093   4.393   9.341   6.927 -0.1729 -1.2853  1.0056
  127MOL0     H17094   4.390   9.421   7.227  0.0556  1.5578 -1.8560
  127MOL0     H17095   4.443   9.266   7.141  1.0024  0.5538 -1.0226
  127MOL0     H17096   4.133   9.491   7.129  0.6850  0.0745  2.1396
  127MOL0     H17097   3.822   9.249   7.157  1.3956 -0.9293 -0.2283
  127MOL0     H17098   3.856   9.430   7.149 -1.5458 -0.7964  1.7158
  127MOL0     H17099   3.916   9.331   6.891  1.1002  0.6597  2.6059
  127MOL0     H17100   3.781   9.434   6.940 -2.1905  0.0563  2.0314
  127MOL0     H17101   3.687   9.253   6.832  0.3591 -4.0442 -0.7716
  127MOL0     H17102   3.670   9.214   7.013  1.0940  3.6703  1.4767
  127MOL0     H17103   3.860   9.050   6.979  1.7354 -0.6034 -2.0768
  127MOL0     H17104   3.879   9.093   6.816  0.1135 -2.8610  0.4660
  127MOL0     H17105   3.453   9.086   6.888 -2.5583 -0.3749  0.4003
  127MOL0     H17106   3.177   9.028   6.639  1.1026 -1.6047  1.9346
  127MOL0     H17107   3.210   9.027   6.800  0.1658  0.1725 -0.4101
  127MOL0     H17108   3.211   9.187   6.727  0.8118  0.8781 -2.5120
  127MOL0     H17109   3.456   9.004   6.127 -1.1707  1.0904  0.9848
  127MOL0     H17110   3.361   9.001   5.901  2.0544 -0.5647  0.8805
  127MOL0     H17111   3.104   9.003   5.656 -0.3392 -1.1860 -0.1608
  127MOL0     H17112   3.240   9.050   5.750  2.4415 -2.3834  1.9058
  127MOL0     H17113   3.343   8.812   5.697 -3.1328 -1.0493  3.5114
  127MOL0     H17114   3.184   8.781   5.631  2.1458 -2.6111  5.9188
  127MOL0     H17115   3.343   9.022   5.500 -0.1965 -0.5522 -2.6689
  127MOL0     H17116   3.241   8.906   5.416 -1.9968  2.8366  0.4942
  127MOL0     H17117   3.520   8.890   5.538  0.9900 -0.7735  0.3302
  127MOL0     H17118   3.426   8.739   5.499  0.3000 -0.0739  0.1743
  127MOL0     H17119   3.489   8.948   5.291 -1.1475  0.6558  0.0889
  127MOL0     H17120   3.391   8.800   5.267 -0.5146  0.4606  0.5328
  127MOL0     H17121   3.676   8.782   5.360  1.7145 -2.1749 -0.2863
  127MOL0     H17122   3.570   8.646   5.310 -1.1412 -0.8958  2.3127
  127MOL0     H17123   3.662   8.868   5.113 -0.7859  0.0024 -1.2355
  127MOL0     H17124   3.570   8.726   5.070 -1.1789  0.1360  1.2494
  127MOL0     H17125   3.849   8.745   5.179 -1.1069  1.2213  1.0941
  127MOL0     H17126   3.798   8.680   5.022  3.4046  0.3559  1.0415
  127MOL0     H17127   3.006   8.797   6.058  0.5844 -2.1955 -1.6453
  127MOL0     H17128   3.105   8.832   6.287 -2.8962 -1.6041 -1.1976
  127MOL0     H17129   3.604   8.977   6.421 -3.0176 -0.5452 -1.8689
  127MOL0     H17130   3.755   8.954   6.617 -1.6091 -1.6515 -3.0413
  127MOL0     H17131   5.193   9.879   7.226 -1.7066 -0.3446  1.6938
  127MOL0     H17132   5.441   9.877   7.258 -0.4260 -0.5543 -0.2511
  127MOL0     H17133   5.852   9.485   7.544  1.8004 -1.3606  0.5483
  127MOL0     H17134   6.066   9.427   7.490  0.0884  1.8462  0.7843
  127MOL0     H17135   6.192   9.560   7.076 -3.4229  0.3416  2.9235
  127MOL0     H17136   6.235   9.688   7.180 -1.0020 -0.2348  0.1437
  127MOL0     H17137   6.443   9.613   7.048 -0.4147  3.8695  1.8554
  127MOL0     H17138   6.430   9.450   7.121 -0.1033 -0.3891  4.4060
  127MOL0     H17139   6.598   9.534   7.244  1.4990  2.6666  1.6700
  127MOL0     H17140   6.461   9.525   7.350  0.5084  2.0696  1.0571
  127MOL0     H17141   6.407   9.766   7.324  0.1779 -0.7748  1.8844
  127MOL0     H17142   6.543   9.780   7.213  1.5929 -0.5839 -0.6050
  127MOL0     H17143   6.751   9.777   7.574 -0.3290  0.7130  0.2203
  127MOL0     H17144   6.019   9.668   7.118  0.4419 -0.1870  0.0165
  127MOL0     H17145   5.805   9.694   7.175  3.1017  3.6942  0.4830
  128MOL0     O17146   8.423   9.128   1.920  0.9834  0.4509 -0.0190
  128MOL0     C17147   8.430   9.251   1.913  0.6241  0.1733  0.1769
  128MOL0     O17148   8.547   9.314   1.910 -0.1677  0.8134  0.1536
  128MOL0     C17149   8.657   9.236   1.941  0.2935  0.3584 -0.3978
  128MOL0     C17150   8.723   9.183   1.840  0.2053  0.7008  0.3658
  128MOL0     C17151   8.849   9.121   1.849  0.2380  0.3211  0.4746
  128MOL0     C17152   8.900   9.114   1.976  0.4489  0.0501 -0.2613
  128MOL0     O17153   9.016   9.044   1.997  0.4247  0.6169  0.8706
  128MOL0     C17154   9.113   9.067   1.896  0.9034  0.5314 -0.4652
  128MOL0     C17155   9.243   9.007   1.951 -1.0027  0.2268  0.2063
  128MOL0     C17156   9.369   9.028   1.869  0.2409 -1.0661  1.3620
  128MOL0     C17157   9.496   8.991   1.953 -0.5260  0.3512  0.9447
  128MOL0     C17158   9.628   9.007   1.876 -0.5672  0.2092  0.1356
  128MOL0     C17159   9.722   8.889   1.899 -0.0254  0.2706 -0.8244
  128MOL0     C17160   9.804   8.889   2.031  0.4489  0.4544  0.5210
  128MOL0     C17161   9.928   8.798   2.021 -0.1564  0.5630 -0.2348
  128MOL0     N17162   9.958   8.721   2.143 -0.3481 -0.6686 -0.1957
  128MOL0     C17163   9.886   8.613   2.183  0.1199  0.6548  0.3298
  128MOL0     C17164   9.916   8.604   2.313  0.2063  0.3338  0.3716
  128MOL0     C17165   9.843   8.498   2.402 -0.0377 -0.4824  0.1312
  128MOL0     C17166   9.744   8.571   2.488 -0.6042  0.1182  0.1137
  128MOL0     C17167   9.665   8.471   2.573  0.3869 -0.3198  0.3128
  128MOL0     C17168   9.567   8.541   2.668  0.6134 -0.2642  0.3099
  128MOL0     O17169   9.472   8.633   2.606 -0.7686  0.0027  0.0803
  128MOL0     C17170   9.359   8.658   2.674 -0.1480  0.6634 -0.6383
  128MOL0     C17171   9.272   8.560   2.687 -0.0949 -0.4895 -1.8410
  128MOL0     C17172   9.150   8.584   2.746  0.1639  0.1146 -0.1175
  128MOL0     C17173   9.070   8.467   2.793  0.2364  0.3145  0.0260
  128MOL0     C17174   9.121   8.722   2.775  1.0451  0.3904  0.5556
  128MOL0     C17175   8.992   8.752   2.836  0.1787  0.5032 -0.6730
  128MOL0     O17176   9.004   8.803   2.963 -0.1512  0.3529 -0.2211
  128MOL0     C17177   8.901   8.846   3.046  0.5224 -0.1857 -0.1262
  128MOL0     C17178   8.762   8.856   3.017 -1.2311  0.9706  0.1174
  128MOL0     C17179   8.675   8.893   3.117  0.7072  0.5965 -0.4075
  128MOL0     C17180   8.713   8.940   3.234 -0.5430 -0.8224 -0.2678
  128MOL0     O17181   8.626   8.999   3.323 -0.2509 -0.1857  0.1035
  128MOL0     C17182   8.653   9.106   3.425  0.5335  0.8275  0.1041
  128MOL0     C17183   8.527   9.110   3.517  0.5843  0.4508 -0.2992
  128MOL0     C17184   8.396   9.143   3.434 -0.8441  0.4300  0.6618
  128MOL0     C17185   8.270   9.121   3.513  0.6551  0.5671 -0.6803
  128MOL0     C17186   8.149   9.187   3.447  0.3899 -0.2858  0.4286
  128MOL0     C17187   8.101   9.107   3.321  0.0937 -0.5374 -0.4762
  128MOL0     C17188   7.958   9.157   3.289 -0.1343  0.2049  0.7687
  128MOL0     C17189   7.915   9.089   3.159 -0.8307 -0.1193  0.5084
  128MOL0    Cl17190   7.801   9.195   3.063  0.3953  0.1684 -0.4001
  128MOL0     C17191   8.856   8.938   3.267 -0.8950 -0.3633 -0.3176
  128MOL0     C17192   8.945   8.893   3.173  0.2945  0.3495 -1.1872
  128MOL0     O17193   8.890   8.755   2.776  0.4738 -0.2641  1.0442
  128MOL0     C17194   9.213   8.826   2.769 -0.4670 -0.0717  0.5258
  128MOL0     C17195   9.336   8.783   2.722 -0.2554 -0.7320 -0.2469
  128MOL0     N17196  10.011   8.695   2.347  0.0511  0.1643  0.1639
  128MOL0     N17197  10.023   8.771   2.246 -0.8264 -0.1435  0.1952
  128MOL0     C17198   8.826   9.154   2.089  0.0642 -0.1963  0.2094
  128MOL0     C17199   8.703   9.218   2.072 -0.1497 -0.5410  0.2478
  128MOL0     C17200   8.308   9.336   1.914 -0.7001 -0.8404  0.2440
  128MOL0     C17201   8.317   9.470   1.876 -0.2266  0.9908 -0.1224
  128MOL0     C17202   8.200   9.542   1.864 -0.5236 -0.2698 -0.5557
  128MOL0     C17203   8.074   9.502   1.895 -0.0624  0.2749  0.2714
  128MOL0     O17204   7.967   9.585   1.871  0.3473  0.7836 -0.0273
  128MOL0     C17205   7.937   9.676   1.972  0.7822  0.0732 -0.2866
  128MOL0     C17206   7.950   9.814   1.917  0.5514 -0.2838  0.2942
  128MOL0     C17207   7.902   9.929   2.012 -0.1180 -0.1373  0.1827
  128MOL0     C17208   7.975  10.057   1.964  0.7954  0.6934 -0.5759
  128MOL0     C17209   7.915  10.104   1.840  0.0965  0.2324 -0.9922
  128MOL0     C17210   7.858  10.148   1.742 -0.6599 -0.8815 -0.8953
  128MOL0     C17211   8.057   9.362   1.925  0.2854 -1.0238  0.0097
  128MOL0     C17212   8.171   9.285   1.939  0.5382  0.3916 -0.1560
  128MOL0     H17213   8.684   9.187   1.739 -1.7658  0.5469  1.0788
  128MOL0     H17214   8.884   9.071   1.760  0.9836 -0.4145  1.1759
  128MOL0     H17215   9.082   9.002   1.815 -2.9210 -1.5951  2.3833
  128MOL0     H17216   9.135   9.171   1.869  1.5960 -0.1548 -2.8183
  128MOL0     H17217   9.261   9.052   2.049  0.1178 -0.7881  0.4861
  128MOL0     H17218   9.229   8.900   1.967 -1.2054  0.3970  1.2311
  128MOL0     H17219   9.360   8.965   1.780  1.9667  0.3604  0.1009
  128MOL0     H17220   9.382   9.131   1.834 -1.7552 -1.8751 -2.2488
  128MOL0     H17221   9.488   9.058   2.039  0.0064  0.8478  0.6093
  128MOL0     H17222   9.481   8.888   1.986  2.0179 -1.5805 -3.0921
  128MOL0     H17223   9.603   9.017   1.770  0.4615 -2.6048 -0.4583
  128MOL0     H17224   9.679   9.098   1.910  0.8786 -0.0398 -1.2320
  128MOL0     H17225   9.668   8.793   1.897  1.0305 -0.3869  0.3966
  128MOL0     H17226   9.794   8.872   1.819  1.8888  1.6970  0.5188
  128MOL0     H17227   9.851   8.986   2.047 -0.1467  0.7879  0.2159
  128MOL0     H17228   9.735   8.863   2.112 -2.6444 -1.1194 -2.3756
  128MOL0     H17229  10.020   8.857   2.012  0.6820 -0.8743 -1.5842
  128MOL0     H17230   9.921   8.720   1.945  1.8189  0.2378 -0.1368
  128MOL0     H17231   9.806   8.563   2.129 -0.3639  0.1890  1.4624
  128MOL0     H17232   9.789   8.423   2.344 -3.1586  3.2300 -2.2976
  128MOL0     H17233   9.914   8.449   2.470 -0.5376  0.0499  1.0640
  128MOL0     H17234   9.674   8.621   2.420 -2.4035 -2.3365  0.0058
  128MOL0     H17235   9.799   8.635   2.557 -1.0242 -0.3077  0.8565
  128MOL0     H17236   9.732   8.418   2.642  0.1166  0.5422  1.2785
  128MOL0     H17237   9.617   8.396   2.510  0.6760 -0.5886  0.4109
  128MOL0     H17238   9.610   8.602   2.748  3.1672 -0.3477 -0.8918
  128MOL0     H17239   9.511   8.454   2.705  0.5597 -0.8638 -1.1241
  128MOL0     H17240   9.285   8.460   2.648 -0.7123 -1.2142 -0.2808
  128MOL0     H17241   9.137   8.405   2.854 -2.7642 -2.0895  1.1999
  128MOL0     H17242   8.991   8.486   2.867  2.0504  1.9631  1.6274
  128MOL0     H17243   9.044   8.409   2.704  1.4892 -0.9894  0.4721
  128MOL0     H17244   8.725   8.797   2.934  4.6472 -1.1686 -1.5037
  128MOL0     H17245   8.568   8.886   3.096  0.4683  0.1376  0.8606
  128MOL0     H17246   8.747   9.095   3.481  0.0724  3.8533  1.7153
  128MOL0     H17247   8.662   9.202   3.374 -2.5019  1.3579  0.3965
  128MOL0     H17248   8.512   9.009   3.556  1.2524  0.3960 -0.1896
  128MOL0     H17249   8.526   9.185   3.597 -1.5977  0.5224 -0.3259
  128MOL0     H17250   8.398   9.072   3.351  3.1037  1.5474 -0.4227
  128MOL0     H17251   8.401   9.241   3.386  0.4096 -0.0777 -0.3055
  128MOL0     H17252   8.237   9.017   3.524  1.4813  0.4192  0.7131
  128MOL0     H17253   8.282   9.162   3.614  2.3310 -1.5649  0.0731
  128MOL0     H17254   8.166   9.291   3.417 -2.3459  0.9174  2.5082
  128MOL0     H17255   8.066   9.191   3.519  1.7106 -1.5966  2.1158
  128MOL0     H17256   8.172   9.117   3.238  0.2884 -3.0257 -0.6994
  128MOL0     H17257   8.097   9.001   3.348 -2.4170 -0.4681 -0.3408
  128MOL0     H17258   7.967   9.264   3.269  0.8607  0.3515  1.8637
  128MOL0     H17259   7.884   9.147   3.369 -1.4691  0.7372 -0.3756
  128MOL0     H17260   7.853   9.002   3.186  0.3044 -0.7360  1.1993
  128MOL0     H17261   7.994   9.051   3.093 -1.2854 -1.3216  0.6232
  128MOL0     H17262   8.896   8.966   3.363 -1.1373 -2.1091  0.3223
  128MOL0     H17263   9.049   8.881   3.200 -0.4482 -0.1465  1.7949
  128MOL0     H17264   9.195   8.930   2.793 -1.7617 -0.5405  1.7308
  128MOL0     H17265   9.421   8.849   2.708 -0.6976  0.1715  1.1929
  128MOL0     H17266   8.869   9.136   2.187 -1.0352 -0.5278  0.6418
  128MOL0     H17267   8.640   9.257   2.152 -3.4022 -1.0175 -1.9001
  128MOL0     H17268   8.408   9.516   1.837 -0.1367 -1.0917 -2.6568
  128MOL0     H17269   8.208   9.649   1.843 -3.6273 -0.0036 -0.8480
  128MOL0     H17270   7.834   9.666   2.009  1.5062 -2.3019  1.2676
  128MOL0     H17271   7.998   9.667   2.062  0.5432  1.3929  0.0297
  128MOL0     H17272   7.897   9.819   1.822  1.2647  0.6863 -0.0741
  128MOL0     H17273   8.057   9.823   1.896  0.6553 -2.7839 -0.5473
  128MOL0     H17274   7.922   9.913   2.118  2.9882 -0.2949 -0.3454
  128MOL0     H17275   7.794   9.913   1.996  0.1727 -0.3960 -1.7351
  128MOL0     H17276   8.077  10.020   1.952  0.4022 -0.1285 -1.4779
  128MOL0     H17277   7.973  10.130   2.045  0.4578 -0.4753  0.5077
  128MOL0     H17278   7.794  10.199   1.672  0.6432  0.7598 -0.9676
  128MOL0     H17279   7.958   9.319   1.938 -0.1744 -0.1978 -0.6230
  128MOL0     H17280   8.174   9.177   1.948  1.9356 -0.0472 -3.8693
  129MOL0     O17281   7.785   5.306   9.456  0.5572  0.3446 -0.1248
  129MOL0     C17282   7.894   5.299   9.406  0.9412 -0.5888  0.0994
  129MOL0     O17283   7.936   5.401   9.326  0.8195  0.9449 -0.0960
  129MOL0     C17284   7.857   5.503   9.300 -1.1811 -0.0763  1.1324
  129MOL0     C17285   7.746   5.495   9.220 -0.0498 -0.1766 -0.2461
  129MOL0     C17286   7.668   5.612   9.192 -0.8708 -0.1486 -0.9042
  129MOL0     C17287   7.720   5.737   9.224 -0.3651 -0.2109 -0.1633
  129MOL0     O17288   7.637   5.843   9.179 -0.1102  0.2726  0.0050
  129MOL0     C17289   7.651   5.973   9.235 -0.9070 -0.1293  0.6553
  129MOL0     C17290   7.531   6.064   9.217 -0.4197 -0.3307  0.3361
  129MOL0     C17291   7.443   6.044   9.340  0.7448 -0.1368  0.0710
  129MOL0     C17292   7.333   6.148   9.358 -0.6944 -0.2257 -0.0755
  129MOL0     C17293   7.207   6.076   9.423 -0.0665 -0.2050  0.5276
  129MOL0     C17294   7.245   6.022   9.566 -0.5265  0.0107 -0.3942
  129MOL0     C17295   7.113   6.000   9.639  0.5976  0.7015 -0.6512
  129MOL0     C17296   7.123   5.981   9.792 -1.1402  0.0287  0.6138
  129MOL0     N17297   7.001   5.940   9.864 -0.2314  0.4781  0.1600
  129MOL0     C17298   6.879   6.002   9.869  0.4328 -0.2179 -0.1643
  129MOL0     C17299   6.814   5.909   9.939  0.1001 -0.3952  0.5223
  129MOL0     C17300   6.665   5.929   9.957 -0.2897 -0.6839 -0.0108
  129MOL0     C17301   6.627   5.971  10.101 -0.4672  1.2897 -0.6288
  129MOL0     C17302   6.476   5.975  10.130 -0.1114  0.6309 -0.0048
  129MOL0     C17303   6.399   6.074  10.041  0.0477 -0.8023 -0.4426
  129MOL0     O17304   6.271   6.066  10.099  0.4776 -0.0636 -0.0494
  129MOL0     C17305   6.163   6.054  10.009 -0.8462 -0.0678 -0.1965
  129MOL0     C17306   6.151   6.108   9.877  0.1316  0.1834 -0.4444
  129MOL0     C17307   6.044   6.082   9.796 -0.5932 -0.4533 -0.4602
  129MOL0     C17308   6.055   6.135   9.661  0.3299 -0.3061  0.0932
  129MOL0     C17309   5.933   6.020   9.857  0.8017  0.2830  0.8438
  129MOL0     C17310   5.809   5.995   9.777  0.1003 -1.3250 -0.7194
  129MOL0     O17311   5.696   6.035   9.845  0.3776 -0.3014  0.2117
  129MOL0     C17312   5.593   6.075   9.767 -0.2474 -0.3052 -0.0474
  129MOL0     C17313   5.550   6.212   9.778  0.4340  0.8196  0.0602
  129MOL0     C17314   5.456   6.261   9.692 -1.2151 -0.3135  0.0250
  129MOL0     C17315   5.399   6.186   9.593 -0.4052  0.4685 -0.7431
  129MOL0     O17316   5.297   6.239   9.515  0.1422  0.2354  0.0507
  129MOL0     C17317   5.207   6.334   9.578 -0.1454 -0.0791  0.0197
  129MOL0     C17318   5.069   6.333   9.494 -1.0239 -0.7943 -0.2254
  129MOL0     C17319   4.966   6.418   9.559  0.6025 -0.4604  0.0903
  129MOL0     C17320   4.837   6.422   9.470 -0.3518  0.4827 -0.0450
  129MOL0     C17321   4.725   6.488   9.536 -0.4735 -0.2379 -0.1554
  129MOL0     C17322   4.585   6.454   9.484 -0.5245  0.1049  0.1381
  129MOL0     C17323   4.570   6.462   9.334  0.5004 -0.0179  0.5495
  129MOL0     C17324   4.547   6.609   9.285  0.2290 -0.1916  0.1646
  129MOL0    Cl17325   4.387   6.667   9.328  0.2003  0.4985  0.3199
  129MOL0     C17326   5.424   6.048   9.589  0.3374  0.1688  0.4296
  129MOL0     C17327   5.523   5.993   9.675 -0.0213  0.0250  0.0036
  129MOL0     O17328   5.815   5.950   9.666  0.1175  0.6574 -0.1109
  129MOL0     C17329   5.932   5.987   9.991  1.4918  0.0226  0.5292
  129MOL0     C17330   6.046   6.000  10.064 -1.2138  0.0504 -1.0232
  129MOL0     N17331   6.895   5.810   9.989 -0.0452 -0.1120 -0.2773
  129MOL0     N17332   7.003   5.825   9.938  0.1021  0.2467  1.4015
  129MOL0     C17333   7.837   5.743   9.295  0.8071 -0.5568 -0.0237
  129MOL0     C17334   7.904   5.628   9.329 -1.0090  0.5352  0.4078
  129MOL0     C17335   7.985   5.189   9.427  0.3761  0.6362 -0.9926
  129MOL0     C17336   8.106   5.185   9.356 -0.2507 -0.2654  0.5725
  129MOL0     C17337   8.193   5.074   9.383 -0.0446 -0.9212  0.7391
  129MOL0     C17338   8.168   4.979   9.485  0.3138 -0.0774 -0.4344
  129MOL0     O17339   8.251   4.876   9.526 -0.2369 -0.0362  0.6002
  129MOL0     C17340   8.380   4.869   9.462  0.0200 -0.3645  0.1841
  129MOL0     C17341   8.459   4.776   9.553  0.2470 -0.5668  0.3423
  129MOL0     C17342   8.538   4.846   9.671  0.3135 -0.6796  0.8449
  129MOL0     C17343   8.593   4.747   9.772 -0.3473 -0.5573  0.4358
  129MOL0     C17344   8.698   4.666   9.710 -0.1868  0.6977  0.4596
  129MOL0     C17345   8.796   4.602   9.670  0.4593  0.4018 -0.5066
  129MOL0     C17346   8.055   4.998   9.565 -1.2587 -0.0982  0.2251
  129MOL0     C17347   7.961   5.099   9.534  0.8084  0.7579  0.5271
  129MOL0     H17348   7.719   5.399   9.177  1.4522 -0.9488  0.4751
  129MOL0     H17349   7.574   5.610   9.137 -0.8667 -0.7212 -0.9032
  129MOL0     H17350   7.669   5.954   9.341  1.8077  1.1598  0.5295
  129MOL0     H17351   7.747   6.003   9.190 -0.5377  0.3560  1.7386
  129MOL0     H17352   7.577   6.164   9.216 -0.9640 -0.0508 -1.7817
  129MOL0     H17353   7.483   6.036   9.123  3.9094 -3.5196 -1.2519
  129MOL0     H17354   7.398   5.945   9.333 -0.3618  0.0442  3.1831
  129MOL0     H17355   7.497   6.051   9.435 -1.8974  0.9641  1.6200
  129MOL0     H17356   7.363   6.217   9.437 -2.5378 -1.0786  1.4431
  129MOL0     H17357   7.311   6.208   9.270  0.0258  0.5729  0.2757
  129MOL0     H17358   7.133   6.155   9.435  1.8314  2.2837 -2.4731
  129MOL0     H17359   7.152   6.008   9.357 -1.7256  4.2389 -3.2440
  129MOL0     H17360   7.310   5.934   9.563  2.0572  1.7104  1.2803
  129MOL0     H17361   7.295   6.099   9.625 -1.9971  0.2949  0.5172
  129MOL0     H17362   7.044   6.084   9.639 -2.5757 -1.6987 -0.6821
  129MOL0     H17363   7.049   5.926   9.590 -0.9422  0.6978  1.2419
  129MOL0     H17364   7.168   6.074   9.827 -0.9585 -0.2934  1.2541
  129MOL0     H17365   7.199   5.903   9.803 -2.4138 -1.7031 -1.8646
  129MOL0     H17366   6.845   6.097   9.828  0.2996 -0.0029  0.4249
  129MOL0     H17367   6.628   6.008   9.891  1.2081 -0.7089 -0.9234
  129MOL0     H17368   6.622   5.831   9.936 -2.2004  0.1708 -0.2735
  129MOL0     H17369   6.674   6.066  10.128  2.2850  0.4581 -2.0046
  129MOL0     H17370   6.675   5.901  10.171  0.9674  1.6206 -1.2267
  129MOL0     H17371   6.474   6.007  10.235 -3.1473 -2.0072  0.9062
  129MOL0     H17372   6.432   5.875  10.136  0.6461  0.3589  3.8976
  129MOL0     H17373   6.410   6.039   9.937 -0.3446  1.3026 -1.2403
  129MOL0     H17374   6.437   6.176  10.048 -1.2553 -0.4032  1.6370
  129MOL0     H17375   6.242   6.138   9.827 -1.9918 -1.1497 -5.8501
  129MOL0     H17376   6.158   6.116   9.629 -0.0372 -1.3271 -0.5219
  129MOL0     H17377   5.985   6.097   9.586  0.1982 -0.8140  0.4665
  129MOL0     H17378   6.041   6.243   9.669 -0.2525 -0.5087  2.4468
  129MOL0     H17379   5.592   6.277   9.853  5.1320  2.1566 -3.2687
  129MOL0     H17380   5.434   6.366   9.710  1.9464  0.6998 -1.3234
  129MOL0     H17381   5.195   6.320   9.685 -1.7224  2.9818  0.3362
  129MOL0     H17382   5.252   6.433   9.569  0.9324 -0.5540 -0.0635
  129MOL0     H17383   5.096   6.371   9.395 -1.9269  1.6368  0.3977
  129MOL0     H17384   5.026   6.233   9.483  0.9878 -2.3437  4.0702
  129MOL0     H17385   5.002   6.520   9.576 -1.3506  0.3433 -0.2801
  129MOL0     H17386   4.927   6.384   9.655 -0.1108  0.4659  0.1467
  129MOL0     H17387   4.849   6.459   9.368 -4.9020  2.1828 -0.1728
  129MOL0     H17388   4.817   6.316   9.452  1.4493  0.6126 -3.4135
  129MOL0     H17389   4.745   6.595   9.526 -2.3572  0.1260 -0.3359
  129MOL0     H17390   4.727   6.454   9.640  0.9809 -2.8454 -0.9361
  129MOL0     H17391   4.555   6.352   9.507 -2.2274  0.0200 -2.1455
  129MOL0     H17392   4.516   6.526   9.529  1.5088  1.3875  1.3749
  129MOL0     H17393   4.489   6.399   9.296  0.3258  1.8155 -2.3918
  129MOL0     H17394   4.659   6.419   9.286  0.7732  0.9494  0.1769
  129MOL0     H17395   4.551   6.613   9.176  0.2799  1.2025  0.2097
  129MOL0     H17396   4.627   6.669   9.327  0.5272 -1.7461  1.9727
  129MOL0     H17397   5.369   5.987   9.518  2.4430  1.1906 -2.2627
  129MOL0     H17398   5.548   5.887   9.673  1.9124  0.3625 -3.9972
  129MOL0     H17399   5.838   5.957  10.036  0.5753  1.6133 -0.2267
  129MOL0     H17400   6.063   5.988  10.171 -0.8464  0.2203 -1.0593
  129MOL0     H17401   7.882   5.840   9.311 -2.3879  1.0517 -0.0406
  129MOL0     H17402   7.994   5.637   9.389 -1.2613 -2.5666  1.4104
  129MOL0     H17403   8.139   5.251   9.276  4.5201 -0.5257  1.9906
  129MOL0     H17404   8.269   5.068   9.306  0.7801  0.2804  1.4355
  129MOL0     H17405   8.354   4.831   9.363 -1.9839 -0.6992  0.8025
  129MOL0     H17406   8.438   4.961   9.447  0.8370 -1.3586 -4.0950
  129MOL0     H17407   8.538   4.728   9.495  3.7569  1.5785  2.9444
  129MOL0     H17408   8.392   4.699   9.592  0.8573 -0.6545  1.2346
  129MOL0     H17409   8.473   4.924   9.713  0.6222 -0.5634  1.1174
  129MOL0     H17410   8.619   4.901   9.622 -1.5502  1.7018  0.2504
  129MOL0     H17411   8.517   4.682   9.815 -2.6149  0.7360 -1.4359
  129MOL0     H17412   8.646   4.795   9.855 -0.2939  0.7385 -0.3268
  129MOL0     H17413   8.883   4.557   9.626  0.7405  0.5996 -0.1570
  129MOL0     H17414   8.032   4.925   9.642 -1.5638 -0.8479 -0.5607
  129MOL0     H17415   7.871   5.109   9.594  1.0770 -0.2521  1.1234
  130MOL0     O17416   5.027   9.843   5.076  0.3040 -0.5840 -0.2196
  130MOL0     C17417   5.145   9.828   5.105  0.0501 -0.8539 -0.4310
  130MOL0     O17418   5.199   9.776   5.215 -0.1484 -0.2491  0.0856
  130MOL0     C17419   5.123   9.687   5.292  1.0689  0.1112 -0.7159
  130MOL0     C17420   5.124   9.553   5.265  0.3739  0.2260  0.2691
  130MOL0     C17421   5.054   9.464   5.349 -0.8150 -1.1683 -0.4483
  130MOL0     C17422   4.975   9.515   5.446  0.1236  0.3720 -0.0171
  130MOL0     O17423   4.916   9.441   5.542 -0.0399  0.3093 -0.0502
  130MOL0     C17424   4.781   9.416   5.516 -0.0716  0.0198 -0.1231
  130MOL0     C17425   4.714   9.334   5.628 -0.1130  0.6265  0.5320
  130MOL0     C17426   4.567   9.289   5.594 -1.3772 -0.0659  0.0672
  130MOL0     C17427   4.479   9.417   5.591  1.0055  0.7316  0.3986
  130MOL0     C17428   4.334   9.378   5.591  0.0779 -0.2046  0.8256
  130MOL0     C17429   4.252   9.494   5.537  0.0133 -1.2198  1.0777
  130MOL0     C17430   4.100   9.460   5.545  0.5167  0.2298  0.5927
  130MOL0     C17431   4.021   9.526   5.430 -0.4574  0.3029  0.2777
  130MOL0     N17432   3.878   9.522   5.435  0.5003  0.1431 -0.0722
  130MOL0     C17433   3.794   9.429   5.371 -0.5323  0.2473  1.0268
  130MOL0     C17434   3.668   9.480   5.377  0.1683  0.4640  0.8873
  130MOL0     C17435   3.541   9.444   5.307 -0.1161 -0.3896  0.3258
  130MOL0     C17436   3.463   9.339   5.392 -0.7871 -0.6104 -0.1900
  130MOL0     C17437   3.443   9.366   5.551  0.3965 -0.1913  0.4314
  130MOL0     C17438   3.365   9.498   5.570 -0.8921  0.0899  0.1699
  130MOL0     O17439   3.314   9.516   5.705  0.6254 -0.1540  0.0096
  130MOL0     C17440   3.217   9.436   5.759  0.2219 -0.1307 -0.5708
  130MOL0     C17441   3.132   9.347   5.695 -0.2661 -0.1452 -0.1736
  130MOL0     C17442   3.023   9.278   5.751 -0.4761 -0.6494  0.3133
  130MOL0     C17443   2.948   9.192   5.653  1.1386  1.0071  1.2843
  130MOL0     C17444   2.997   9.298   5.885 -0.0477  1.1268 -0.0844
  130MOL0     C17445   2.893   9.239   5.970 -0.6934  0.3197 -0.7447
  130MOL0     O17446   2.839   9.314   6.077 -0.5892  1.1044 -0.8877
  130MOL0     C17447   2.769   9.239   6.164  0.0072  0.1156 -0.4226
  130MOL0     C17448   2.835   9.140   6.251 -0.1419  0.0718  0.2316
  130MOL0     C17449   2.754   9.060   6.342 -1.0484  1.0074  0.7107
  130MOL0     C17450   2.618   9.082   6.348  1.3938 -0.6123  0.7518
  130MOL0     O17451   2.543   9.020   6.446 -0.1733  0.1243  0.0547
  130MOL0     C17452   2.402   8.997   6.421 -0.1277 -1.1582 -0.2714
  130MOL0     C17453   2.361   8.903   6.537 -0.2184 -0.0689 -0.3768
  130MOL0     C17454   2.372   8.973   6.668 -0.1980 -0.4604  0.2573
  130MOL0     C17455   2.243   9.043   6.712 -0.3008  0.7918 -0.0347
  130MOL0     C17456   2.256   9.089   6.856 -0.0679  0.3732 -0.0759
  130MOL0     C17457   2.130   9.172   6.879 -0.5819  0.2991 -0.1780
  130MOL0     C17458   2.147   9.214   7.021 -0.2614 -0.6896 -0.0275
  130MOL0     C17459   2.043   9.331   7.043  0.6427  0.7483  0.0009
  130MOL0    Cl17460   2.099   9.477   6.963  0.0212  0.3240  0.1855
  130MOL0     C17461   2.557   9.179   6.271 -1.2153 -0.2487  0.1176
  130MOL0     C17462   2.633   9.262   6.182 -0.5342 -0.3188 -0.4886
  130MOL0     O17463   2.879   9.122   5.955 -0.4555 -0.3264 -0.4881
  130MOL0     C17464   3.081   9.388   5.959 -0.4958 -0.1341 -0.6160
  130MOL0     C17465   3.195   9.443   5.895  0.8610  0.0279 -0.3046
  130MOL0     N17466   3.672   9.594   5.460 -0.4166  0.0612  0.2058
  130MOL0     N17467   3.794   9.618   5.497  0.6073 -0.6535 -0.4807
  130MOL0     C17468   4.965   9.652   5.470  0.3751 -0.4191  0.5225
  130MOL0     C17469   5.038   9.743   5.390 -0.4673  0.5321 -0.7655
  130MOL0     C17470   5.249   9.883   5.012  0.3472  0.1136  0.3856
  130MOL0     C17471   5.387   9.891   5.037  0.7924  0.8133  0.3592
  130MOL0     C17472   5.478   9.924   4.938 -0.2615 -0.0434  0.4540
  130MOL0     C17473   5.435   9.965   4.812  0.0352  0.3118  0.4899
  130MOL0     O17474   5.509   9.994   4.699  0.1877  0.0403 -0.6759
  130MOL0     C17475   5.649  10.012   4.718  0.0230 -0.0508 -0.3341
  130MOL0     C17476   5.693  10.147   4.782 -0.4156 -0.0052  0.1279
  130MOL0     C17477   5.632  10.270   4.708  0.0673  0.1958  0.3160
  130MOL0     C17478   5.669  10.287   4.561 -0.4269  0.0379  0.0278
  130MOL0     C17479   5.803  10.332   4.523 -0.5387  0.5348 -0.6868
  130MOL0     C17480   5.917  10.368   4.494  0.6854 -0.6210 -0.2860
  130MOL0     C17481   5.296   9.950   4.782  0.0327 -0.2498  0.6042
  130MOL0     C17482   5.205   9.916   4.878  0.5799 -0.0230 -0.2686
  130MOL0     H17483   5.177   9.512   5.180  1.6599  0.6941  0.8163
  130MOL0     H17484   5.045   9.356   5.338  1.4480 -1.3589 -0.9088
  130MOL0     H17485   4.735   9.511   5.487 -0.6602 -0.6472 -1.4758
  130MOL0     H17486   4.780   9.351   5.428 -3.2725 -1.5477  0.9260
  130MOL0     H17487   4.774   9.242   5.619  1.4595  1.8101 -3.6199
  130MOL0     H17488   4.724   9.390   5.721 -0.1077  0.6199  0.5349
  130MOL0     H17489   4.561   9.239   5.497 -0.3763 -0.7173  0.3243
  130MOL0     H17490   4.533   9.219   5.672  0.4359  0.6106  1.5353
  130MOL0     H17491   4.511   9.487   5.668 -1.2556 -0.8283  2.9172
  130MOL0     H17492   4.500   9.474   5.500  1.6171  0.8454  0.6065
  130MOL0     H17493   4.314   9.297   5.521 -3.0725  0.8840  0.2795
  130MOL0     H17494   4.314   9.344   5.693 -1.2084 -2.9155 -0.2311
  130MOL0     H17495   4.267   9.583   5.598 -3.9414  0.3451  0.0258
  130MOL0     H17496   4.280   9.518   5.434 -1.1145 -0.6664  0.8908
  130MOL0     H17497   4.085   9.352   5.535  0.1089  0.3154  0.2575
  130MOL0     H17498   4.057   9.490   5.642  2.0432  0.9934  1.0644
  130MOL0     H17499   4.056   9.492   5.332 -2.4259  2.3458 -1.2609
  130MOL0     H17500   4.040   9.633   5.421  1.2414  0.0565  0.6159
  130MOL0     H17501   3.824   9.338   5.321  3.0707  2.2864 -0.9839
  130MOL0     H17502   3.484   9.537   5.297  2.0026  0.7506 -2.5500
  130MOL0     H17503   3.554   9.390   5.213 -2.0931 -3.9178  1.8875
  130MOL0     H17504   3.514   9.242   5.388 -2.4770 -1.8020  2.9858
  130MOL0     H17505   3.364   9.329   5.348 -1.5599  2.1167  0.6879
  130MOL0     H17506   3.540   9.379   5.599  0.7324 -0.3821 -0.1862
  130MOL0     H17507   3.399   9.271   5.581  0.8690  0.1539  2.3601
  130MOL0     H17508   3.277   9.501   5.505  0.7126 -1.4102 -2.2196
  130MOL0     H17509   3.430   9.582   5.543 -0.1949 -1.1956 -2.4412
  130MOL0     H17510   3.143   9.323   5.590  0.7534 -1.9977  0.3040
  130MOL0     H17511   2.866   9.247   5.604 -0.0521 -2.3876 -0.9310
  130MOL0     H17512   3.010   9.157   5.569 -2.0869  0.5834 -1.1424
  130MOL0     H17513   2.900   9.107   5.703 -1.5546  3.2761  2.8601
  130MOL0     H17514   2.940   9.119   6.239 -0.5622 -2.6987  0.7863
  130MOL0     H17515   2.804   8.994   6.412  0.4341  1.1822 -0.1334
  130MOL0     H17516   2.337   9.085   6.422  0.5723 -0.5934 -1.9653
  130MOL0     H17517   2.385   8.948   6.325 -0.9468 -0.8809 -0.2749
  130MOL0     H17518   2.257   8.870   6.528 -0.8385  1.4853  0.6607
  130MOL0     H17519   2.436   8.823   6.542 -0.9317 -0.9860 -2.7889
  130MOL0     H17520   2.451   9.047   6.667 -0.0709 -0.5350 -2.2548
  130MOL0     H17521   2.386   8.890   6.738 -2.0907  0.4593  1.8323
  130MOL0     H17522   2.219   9.124   6.643 -0.0141  0.5602 -0.4126
  130MOL0     H17523   2.167   8.964   6.707  0.2320  0.3491 -2.4484
  130MOL0     H17524   2.348   9.148   6.865  1.2126 -0.8252 -3.5523
  130MOL0     H17525   2.266   9.005   6.926 -2.2661 -0.1726 -0.3242
  130MOL0     H17526   2.136   9.258   6.811  0.8843 -0.5227 -1.1463
  130MOL0     H17527   2.034   9.120   6.871  0.5420 -1.8671 -0.1119
  130MOL0     H17528   2.248   9.252   7.039  0.3337 -1.8405 -0.8020
  130MOL0     H17529   2.137   9.133   7.094  3.4744 -0.2323  1.2161
  130MOL0     H17530   2.034   9.340   7.151 -1.1491 -2.4232  0.2527
  130MOL0     H17531   1.947   9.295   7.004  2.0678 -1.4350 -1.7720
  130MOL0     H17532   2.453   9.203   6.287 -0.4904  1.4247  3.1598
  130MOL0     H17533   2.574   9.343   6.140  0.3742  1.2539  1.0984
  130MOL0     H17534   3.056   9.414   6.061  1.7385  3.0209 -0.7234
  130MOL0     H17535   3.263   9.508   5.949  2.3949 -0.0433 -2.0794
  130MOL0     H17536   4.894   9.688   5.544 -0.7987 -1.4057 -0.0879
  130MOL0     H17537   5.031   9.850   5.403 -0.8023  0.4107  0.1204
  130MOL0     H17538   5.425   9.850   5.130  0.6014 -1.4870 -0.5225
  130MOL0     H17539   5.585   9.906   4.951  0.1894  0.5682 -2.0119
  130MOL0     H17540   5.694   9.939   4.786 -3.9641 -0.8184  1.8346
  130MOL0     H17541   5.702  10.000   4.624 -2.2688  1.3219 -1.8993
  130MOL0     H17542   5.801  10.154   4.767 -0.0087 -0.5191  2.4038
  130MOL0     H17543   5.671  10.165   4.888 -1.5438  0.9792 -0.2532
  130MOL0     H17544   5.658  10.365   4.755  0.4292  0.3082 -0.1082
  130MOL0     H17545   5.522  10.267   4.708  0.0404 -1.2765 -2.0719
  130MOL0     H17546   5.601  10.364   4.523  0.7492  0.5805 -1.0582
  130MOL0     H17547   5.645  10.195   4.508 -2.5900  0.9535 -0.7221
  130MOL0     H17548   6.008  10.410   4.455  0.5380  0.9482  0.9994
  130MOL0     H17549   5.265   9.966   4.679  0.6215  1.3935  0.6585
  130MOL0     H17550   5.104   9.920   4.839  0.2320  0.0669  0.5993
  131MOL0     O17551   5.897   5.409  10.020 -1.4000 -0.0524 -0.1262
  131MOL0     C17552   5.941   5.524   9.993 -0.2910 -0.0433 -0.7083
  131MOL0     O17553   5.861   5.632   9.954 -0.0905 -0.3783 -0.0950
  131MOL0     C17554   5.733   5.627   9.992  0.0030 -0.1118 -0.5096
  131MOL0     C17555   5.640   5.636   9.896 -0.5533  0.3699 -0.0755
  131MOL0     C17556   5.503   5.653   9.919 -0.1163  0.4770  0.9228
  131MOL0     C17557   5.457   5.672  10.045 -0.3257  0.2348 -0.1437
  131MOL0     O17558   5.331   5.694  10.093  0.0908  0.3641  0.4484
  131MOL0     C17559   5.227   5.661  10.002 -0.2888  0.2651 -0.2837
  131MOL0     C17560   5.092   5.693  10.064  0.1547  0.1112 -0.7832
  131MOL0     C17561   4.988   5.640   9.957 -0.8415 -0.2653  0.3852
  131MOL0     C17562   4.855   5.697  10.004  0.3156 -0.2816 -0.2752
  131MOL0     C17563   4.738   5.633   9.925 -0.0696  0.4743 -1.3762
  131MOL0     C17564   4.673   5.725   9.815  0.0977 -0.4944  0.5045
  131MOL0     C17565   4.548   5.655   9.744 -0.4212  0.3893  0.0823
  131MOL0     C17566   4.574   5.511   9.705  0.6288  0.9832 -0.1650
  131MOL0     N17567   4.471   5.449   9.622  0.2230  0.3286 -0.6718
  131MOL0     C17568   4.470   5.311   9.595  0.5550  0.1342 -0.6895
  131MOL0     C17569   4.341   5.275   9.562  0.7152  0.1854 -0.2170
  131MOL0     C17570   4.292   5.146   9.508  0.3955  0.0209  0.6142
  131MOL0     C17571   4.336   5.033   9.597  0.1014  0.6201  0.3111
  131MOL0     C17572   4.238   4.996   9.712  0.3488 -0.2117  1.3071
  131MOL0     C17573   4.217   5.094   9.826 -0.5407  0.2370  0.3739
  131MOL0     O17574   4.171   5.029   9.947 -0.3196 -0.9159 -0.2706
  131MOL0     C17575   4.032   5.018   9.962  0.5638  0.5859  0.6972
  131MOL0     C17576   3.973   5.021  10.087  0.3518  0.2345  1.0254
  131MOL0     C17577   3.838   4.996  10.115 -0.4318  0.0057  0.2703
  131MOL0     C17578   3.789   4.980  10.254 -0.1100 -0.5726 -0.5053
  131MOL0     C17579   3.752   4.975  10.002 -0.5309 -0.6152  0.4966
  131MOL0     C17580   3.609   4.970  10.003 -1.5374  0.1442 -0.3660
  131MOL0     O17581   3.548   4.995   9.885 -0.0560 -0.0925 -0.8082
  131MOL0     C17582   3.412   4.965   9.878 -1.0960 -0.7468  1.0468
  131MOL0     C17583   3.374   4.829   9.884  0.5984 -0.4064  0.8392
  131MOL0     C17584   3.240   4.792   9.873  0.1060  0.6492  0.8239
  131MOL0     C17585   3.141   4.892   9.854 -0.6846 -0.1361 -0.0404
  131MOL0     O17586   3.005   4.880   9.846  1.0183 -0.1373  0.1929
  131MOL0     C17587   2.953   4.743   9.846 -0.5773 -0.7150  0.3226
  131MOL0     C17588   2.819   4.731   9.902  0.0968  0.0834 -0.7178
  131MOL0     C17589   2.758   4.594   9.889 -0.1556  0.1300 -0.2490
  131MOL0     C17590   2.624   4.598   9.972 -0.2073  0.5161  1.1550
  131MOL0     C17591   2.587   4.452   9.993  0.3776 -0.8365  0.5839
  131MOL0     C17592   2.441   4.443  10.017  0.0892  0.1013 -0.4871
  131MOL0     C17593   2.411   4.304  10.067 -0.7213 -0.0101 -0.2703
  131MOL0     C17594   2.262   4.267  10.065 -1.7348 -0.3316  0.1935
  131MOL0    Cl17595   2.236   4.099  10.099  0.4718 -0.0842 -0.3221
  131MOL0     C17596   3.184   5.026   9.848 -0.2130  0.7001  0.4669
  131MOL0     C17597   3.321   5.071   9.857 -0.1719 -0.7293  0.4554
  131MOL0     O17598   3.551   4.927  10.106  0.8000  0.2287 -0.5628
  131MOL0     C17599   3.813   4.977   9.867  0.1115 -0.4550 -0.4401
  131MOL0     C17600   3.943   4.997   9.855  0.2777 -0.0554 -0.4122
  131MOL0     N17601   4.269   5.398   9.571 -0.1947  0.2310  0.2294
  131MOL0     N17602   4.344   5.497   9.603 -0.3878  1.2702 -0.2002
  131MOL0     C17603   5.553   5.659  10.146 -1.1137 -0.6985  0.3695
  131MOL0     C17604   5.687   5.637  10.125 -0.3546 -1.0141  0.9953
  131MOL0     C17605   6.087   5.549   9.979  0.7980 -0.8326  0.0362
  131MOL0     C17606   6.168   5.441  10.020  0.1067 -0.2845 -0.8924
  131MOL0     C17607   6.306   5.472  10.020  0.7620 -0.9268 -0.0583
  131MOL0     C17608   6.357   5.597   9.987  0.4010  0.0767 -0.0893
  131MOL0     O17609   6.496   5.616   9.956  0.5650 -0.1503 -0.2706
  131MOL0     C17610   6.576   5.503   9.918 -0.2018 -0.1080 -0.1754
  131MOL0     C17611   6.713   5.546   9.865  0.2054 -1.0102  0.1194
  131MOL0     C17612   6.705   5.614   9.727 -1.3090 -0.8014  0.4454
  131MOL0     C17613   6.842   5.635   9.668 -0.3153 -0.2218  0.0867
  131MOL0     C17614   6.844   5.672   9.524 -0.4465 -0.4771 -0.8145
  131MOL0     C17615   6.853   5.705   9.409  0.3454 -0.4305  1.0357
  131MOL0     C17616   6.274   5.703   9.942  0.8750  0.2006  0.7597
  131MOL0     C17617   6.131   5.686   9.944  0.0891  0.0231 -0.6057
  131MOL0     H17618   5.681   5.634   9.795 -0.0981 -0.4488  0.1223
  131MOL0     H17619   5.427   5.669   9.844 -2.5318  0.2787  3.1994
  131MOL0     H17620   5.237   5.731   9.918  0.5332 -0.7403 -1.0561
  131MOL0     H17621   5.242   5.555   9.976  2.6824  0.1133  1.5351
  131MOL0     H17622   5.079   5.640  10.158  3.2447 -0.5900 -0.6302
  131MOL0     H17623   5.097   5.798  10.097  1.5347 -0.3337  0.5242
  131MOL0     H17624   5.023   5.668   9.858  1.2543  0.1187  1.1757
  131MOL0     H17625   4.993   5.531   9.965 -0.7323 -0.5721 -2.8728
  131MOL0     H17626   4.850   5.687  10.113  1.5770  0.6032 -0.1248
  131MOL0     H17627   4.871   5.803   9.981  2.8634 -0.7639 -0.9425
  131MOL0     H17628   4.770   5.542   9.874  1.7122 -0.9545  1.9644
  131MOL0     H17629   4.666   5.602  10.002  1.0701  3.1499  0.9609
  131MOL0     H17630   4.646   5.819   9.865 -0.3294 -0.0212 -0.5759
  131MOL0     H17631   4.747   5.746   9.736  1.4846 -1.6122  1.4680
  131MOL0     H17632   4.455   5.669   9.799 -2.4793 -1.0472 -2.7986
  131MOL0     H17633   4.532   5.706   9.648 -0.1629  0.2491 -0.0350
  131MOL0     H17634   4.581   5.455   9.799  0.2256  0.7344 -0.2811
  131MOL0     H17635   4.669   5.508   9.651 -0.0119 -2.8353 -1.3669
  131MOL0     H17636   4.555   5.244   9.599 -0.7515 -1.4979  1.7164
  131MOL0     H17637   4.184   5.153   9.493  0.5311  0.9522  0.0186
  131MOL0     H17638   4.350   5.129   9.417 -2.3744  2.7243 -1.8716
  131MOL0     H17639   4.436   5.047   9.639 -0.1245  0.1089  1.0435
  131MOL0     H17640   4.341   4.946   9.530 -0.1987  2.9722 -3.0269
  131MOL0     H17641   4.271   4.899   9.751 -0.8648 -2.1107 -1.9942
  131MOL0     H17642   4.142   4.980   9.663  0.4288  0.3348  0.9700
  131MOL0     H17643   4.132   5.155   9.793 -1.5251 -1.6877 -0.8042
  131MOL0     H17644   4.306   5.156   9.836 -1.1893  1.6812 -2.0252
  131MOL0     H17645   4.049   5.029  10.164  0.2489 -1.7118  1.3850
  131MOL0     H17646   3.720   5.063  10.272 -1.2819 -1.1319 -2.1143
  131MOL0     H17647   3.742   4.881  10.258  1.7505 -1.7206 -3.5750
  131MOL0     H17648   3.873   4.993  10.323 -1.4621  3.3363  0.6499
  131MOL0     H17649   3.448   4.750   9.893  1.0937 -0.3292 -1.7103
  131MOL0     H17650   3.231   4.685   9.883  1.2855  0.5029  0.5109
  131MOL0     H17651   2.940   4.730   9.738  1.1169  0.3504 -0.0424
  131MOL0     H17652   3.018   4.670   9.895 -1.1517  0.3336  2.8322
  131MOL0     H17653   2.825   4.764  10.006  0.2863 -0.2863 -0.6083
  131MOL0     H17654   2.763   4.807   9.846  1.9322  0.7289 -1.7489
  131MOL0     H17655   2.824   4.522   9.939 -0.4698  2.0790  3.3214
  131MOL0     H17656   2.745   4.568   9.784 -1.6969  0.9638 -0.2930
  131MOL0     H17657   2.621   4.643  10.072 -0.1708  0.5332  1.1486
  131MOL0     H17658   2.558   4.647   9.900  2.7158  3.2302  0.1105
  131MOL0     H17659   2.635   4.415  10.084  0.1557 -0.3375  0.9075
  131MOL0     H17660   2.611   4.390   9.906 -0.3320  1.4209 -1.3137
  131MOL0     H17661   2.401   4.510  10.093  0.5733 -2.0336  1.7971
  131MOL0     H17662   2.393   4.455   9.920 -0.8359  0.7100  0.0280
  131MOL0     H17663   2.435   4.300  10.173  2.4494  0.2432 -0.8895
  131MOL0     H17664   2.465   4.228  10.009 -1.5591 -1.7563  1.1150
  131MOL0     H17665   2.234   4.306   9.966 -0.2157 -1.8076 -0.8764
  131MOL0     H17666   2.218   4.333  10.141 -0.8171  1.7630 -1.0037
  131MOL0     H17667   3.105   5.099   9.841 -1.3522 -0.6206 -1.2453
  131MOL0     H17668   3.334   5.178   9.845  0.5595 -0.9814 -1.5014
  131MOL0     H17669   3.757   4.984   9.774 -0.9162 -0.4084  0.1628
  131MOL0     H17670   3.963   4.996   9.749 -0.8248 -1.5898 -0.6475
  131MOL0     H17671   5.517   5.665  10.248 -1.2113  2.5400  0.2385
  131MOL0     H17672   5.761   5.632  10.204  2.7395  0.7464 -1.5295
  131MOL0     H17673   6.129   5.344  10.048  0.8822 -0.1996  0.6332
  131MOL0     H17674   6.364   5.384  10.045  2.1436  0.1359  0.5853
  131MOL0     H17675   6.586   5.433  10.001 -2.6898 -1.4146 -0.8658
  131MOL0     H17676   6.531   5.442   9.839 -0.0167 -1.9167  1.0695
  131MOL0     H17677   6.765   5.451   9.847  1.5670  0.0618 -2.0900
  131MOL0     H17678   6.764   5.604   9.942  0.6392 -1.3392  0.0814
  131MOL0     H17679   6.660   5.713   9.738  1.0432  0.5001 -0.8658
  131MOL0     H17680   6.638   5.562   9.658 -1.1694 -0.8477  0.3432
  131MOL0     H17681   6.892   5.537   9.672 -1.9095 -1.0327  2.3756
  131MOL0     H17682   6.896   5.713   9.724 -2.3706  2.9002 -2.0071
  131MOL0     H17683   6.853   5.732   9.306 -1.0377  3.1845  1.8220
  131MOL0     H17684   6.316   5.795   9.904 -0.8518  0.4201 -0.7930
  131MOL0     H17685   6.062   5.765   9.917  0.1121  0.8091  1.4722
  132MOL0     O17686   2.809   2.667   7.765 -0.5316 -0.0974  0.0470
  132MOL0     C17687   2.789   2.727   7.869 -0.4929  0.8110 -1.3452
  132MOL0     O17688   2.670   2.787   7.914  0.1144  0.2516  0.1781
  132MOL0     C17689   2.559   2.749   7.852  0.3623  0.4115  0.0439
  132MOL0     C17690   2.500   2.626   7.875  0.3147  0.2045  0.6865
  132MOL0     C17691   2.376   2.592   7.816  0.1877 -0.6784 -0.3142
  132MOL0     C17692   2.309   2.686   7.732  0.2063 -0.1699  0.4530
  132MOL0     O17693   2.191   2.666   7.664 -0.4266  0.0195 -0.1388
  132MOL0     C17694   2.144   2.529   7.675 -0.3487  0.5778 -0.7925
  132MOL0     C17695   1.999   2.525   7.623 -0.3405  0.4138  0.1685
  132MOL0     C17696   1.944   2.383   7.593 -0.3041  0.3443 -0.3582
  132MOL0     C17697   1.917   2.316   7.729  0.0104 -0.0666  0.2733
  132MOL0     C17698   1.862   2.169   7.717 -0.1944  0.6768  0.1140
  132MOL0     C17699   1.869   2.089   7.846 -0.1331 -1.2450 -0.2899
  132MOL0     C17700   1.785   1.953   7.846  1.0499  0.3895 -0.1294
  132MOL0     C17701   1.793   1.885   7.986 -0.7760  0.1464  0.3636
  132MOL0     N17702   1.711   1.756   7.992 -0.0916 -0.4048 -0.4507
  132MOL0     C17703   1.582   1.746   8.042 -0.0869 -0.3788 -0.0897
  132MOL0     C17704   1.559   1.616   8.031  0.8564 -0.8372  1.3599
  132MOL0     C17705   1.437   1.543   8.085 -0.0296  0.0798 -0.0186
  132MOL0     C17706   1.421   1.546   8.232  0.8693 -0.1637 -0.6146
  132MOL0     C17707   1.305   1.460   8.306 -0.6655 -0.2405 -0.6593
  132MOL0     C17708   1.166   1.477   8.248  0.0658 -0.0431 -0.1599
  132MOL0     O17709   1.094   1.393   8.344  0.1243  0.3837 -0.3282
  132MOL0     C17710   0.961   1.404   8.357 -0.0023 -0.6376 -0.1948
  132MOL0     C17711   0.896   1.350   8.465 -0.1907  0.0047  0.0635
  132MOL0     C17712   0.758   1.358   8.480  0.4392  0.6134 -0.2078
  132MOL0     C17713   0.699   1.276   8.595 -0.2980 -0.1417  0.0927
  132MOL0     C17714   0.679   1.442   8.398 -0.5346 -0.0884 -0.3286
  132MOL0     C17715   0.531   1.470   8.427  0.2950  0.6185  0.3168
  132MOL0     O17716   0.482   1.547   8.328 -0.1631 -0.1388 -0.0147
  132MOL0     C17717   0.350   1.570   8.313 -0.5069  0.3893 -1.5274
  132MOL0     C17718   0.330   1.695   8.256 -0.2112 -0.0319  0.3816
  132MOL0     C17719   0.194   1.737   8.243  0.0570 -0.4487 -0.7144
  132MOL0     C17720   0.083   1.658   8.287 -0.2980 -0.3995 -0.2516
  132MOL0     O17721  -0.044   1.708   8.263 -0.0784 -0.0683  0.2307
  132MOL0     C17722  -0.074   1.793   8.155  0.5549  0.7570 -0.5589
  132MOL0     C17723  -0.230   1.824   8.175  0.0870 -0.7226  0.4279
  132MOL0     C17724  -0.292   1.893   8.039 -0.1300  0.0596 -1.3878
  132MOL0     C17725  -0.429   1.963   8.062  0.5037 -0.1205 -0.2793
  132MOL0     C17726  -0.478   2.010   7.926  0.8385  0.0848  0.5915
  132MOL0     C17727  -0.604   2.089   7.908  0.3102  0.1637 -0.3902
  132MOL0     C17728  -0.725   2.002   7.934  0.3396  0.1350 -0.3131
  132MOL0     C17729  -0.857   2.083   7.905 -0.1215 -0.1670  0.2956
  132MOL0    Cl17730  -0.977   1.989   7.996 -0.1226  0.3698 -0.2524
  132MOL0     C17731   0.111   1.527   8.332  0.3308 -0.2281  0.0711
  132MOL0     C17732   0.237   1.484   8.343 -0.3420  0.8496 -0.4441
  132MOL0     O17733   0.469   1.430   8.526 -0.4039  0.2964  0.8241
  132MOL0     C17734   0.745   1.502   8.295 -0.3538  0.0789 -0.4586
  132MOL0     C17735   0.888   1.481   8.278  0.7586 -0.0580  0.5332
  132MOL0     N17736   1.666   1.553   7.971  0.8595  0.1399  0.1961
  132MOL0     N17737   1.754   1.638   7.946 -0.5197 -0.6502 -0.3910
  132MOL0     C17738   2.363   2.810   7.709 -0.7388  0.0175 -0.4646
  132MOL0     C17739   2.479   2.841   7.778  0.2309  0.3516 -0.3364
  132MOL0     C17740   2.907   2.746   7.953 -0.5074  0.6814  0.2201
  132MOL0     C17741   2.891   2.799   8.081  0.1552  0.3457  0.9086
  132MOL0     C17742   3.001   2.813   8.170  0.2790 -0.1905 -0.3150
  132MOL0     C17743   3.128   2.785   8.132  0.1467 -0.2736 -0.0613
  132MOL0     O17744   3.229   2.802   8.221 -0.0796 -0.0023 -0.3437
  132MOL0     C17745   3.359   2.731   8.208  0.5464  0.0449 -0.1721
  132MOL0     C17746   3.424   2.752   8.340  0.0524  0.1672  0.0639
  132MOL0     C17747   3.335   2.714   8.462  0.4524 -0.0032 -0.0977
  132MOL0     C17748   3.415   2.707   8.592  0.7231  0.0146  0.5574
  132MOL0     C17749   3.336   2.622   8.681  0.5881  1.1492 -0.8427
  132MOL0     C17750   3.276   2.544   8.757  0.0747  0.2015  0.1421
  132MOL0     C17751   3.147   2.728   8.009 -0.0574 -0.0629  0.1243
  132MOL0     C17752   3.040   2.707   7.922 -0.0672 -0.7309  0.3347
  132MOL0     H17753   2.554   2.557   7.939 -2.6040 -1.8101  1.1643
  132MOL0     H17754   2.336   2.493   7.838  1.7711 -0.8570  2.0517
  132MOL0     H17755   2.210   2.463   7.618  2.7989  1.4377  1.5779
  132MOL0     H17756   2.148   2.498   7.780  0.6712 -0.2984 -1.0768
  132MOL0     H17757   1.942   2.566   7.707  2.0769 -0.6561  2.5062
  132MOL0     H17758   1.991   2.584   7.531  1.2965 -2.6812 -2.1586
  132MOL0     H17759   1.851   2.393   7.536 -0.8083 -3.0727 -0.3445
  132MOL0     H17760   2.004   2.328   7.521 -0.6567 -1.6493  0.7742
  132MOL0     H17761   2.008   2.325   7.788 -1.7644  2.4263  2.8989
  132MOL0     H17762   1.841   2.380   7.776  0.2210  0.7667 -0.4814
  132MOL0     H17763   1.754   2.181   7.699  0.0526  4.0537  0.2280
  132MOL0     H17764   1.915   2.123   7.634  1.4317  1.9778  0.3747
  132MOL0     H17765   1.974   2.063   7.865  0.2396 -0.2260 -0.8652
  132MOL0     H17766   1.830   2.148   7.930 -0.2884 -1.3408 -0.2954
  132MOL0     H17767   1.683   1.968   7.811  0.6588 -1.0467  0.3082
  132MOL0     H17768   1.827   1.887   7.770  1.2915  1.4051 -0.8920
  132MOL0     H17769   1.758   1.959   8.059  0.3883  0.8112  0.2742
  132MOL0     H17770   1.896   1.851   8.003 -1.0324 -0.7070  0.2556
  132MOL0     H17771   1.510   1.816   8.083 -2.1594 -2.4619  0.0821
  132MOL0     H17772   1.343   1.590   8.054  0.1527  1.7642  1.8117
  132MOL0     H17773   1.438   1.435   8.068  1.3357 -0.8406  4.5226
  132MOL0     H17774   1.409   1.650   8.264  3.1270  0.1372 -0.5785
  132MOL0     H17775   1.516   1.518   8.279  1.4661 -0.0308 -1.7160
  132MOL0     H17776   1.307   1.481   8.413  0.9933 -0.3035 -0.6531
  132MOL0     H17777   1.343   1.357   8.306 -0.3227 -0.1169  0.6537
  132MOL0     H17778   1.156   1.449   8.143 -0.4871  2.6178 -0.8878
  132MOL0     H17779   1.135   1.582   8.241 -2.4455 -0.5883  1.5542
  132MOL0     H17780   0.963   1.287   8.523  0.7790 -0.3417 -1.3709
  132MOL0     H17781   0.774   1.216   8.647 -0.6352  0.1092  0.8959
  132MOL0     H17782   0.670   1.349   8.672 -3.4635 -0.0946 -0.9912
  132MOL0     H17783   0.613   1.219   8.559 -1.7202  0.5599  2.1654
  132MOL0     H17784   0.406   1.761   8.216 -1.7382  1.5338 -0.1134
  132MOL0     H17785   0.179   1.839   8.209 -0.1686  0.1790  1.1686
  132MOL0     H17786  -0.021   1.889   8.157  0.1139  0.9973 -0.1891
  132MOL0     H17787  -0.058   1.736   8.063 -0.1909  0.0256 -0.2401
  132MOL0     H17788  -0.291   1.734   8.185  0.2047 -0.8310  0.1733
  132MOL0     H17789  -0.239   1.886   8.265  1.0995 -1.9054  1.3742
  132MOL0     H17790  -0.317   1.812   7.969  0.0876 -1.0852 -0.1858
  132MOL0     H17791  -0.215   1.964   8.008 -0.7522  1.1422 -0.5061
  132MOL0     H17792  -0.501   1.892   8.104 -1.0356  1.7005  0.3389
  132MOL0     H17793  -0.410   2.051   8.123  1.0536 -0.1835 -0.3562
  132MOL0     H17794  -0.476   1.917   7.869 -1.4845 -0.0025  0.5569
  132MOL0     H17795  -0.403   2.084   7.893 -0.7387  2.0428  1.2085
  132MOL0     H17796  -0.578   2.165   7.982  3.2212 -2.5808  1.6668
  132MOL0     H17797  -0.620   2.123   7.805 -1.3522 -1.2535 -0.6411
  132MOL0     H17798  -0.711   1.958   8.033 -3.0922  1.2863  0.7954
  132MOL0     H17799  -0.733   1.908   7.878  0.8957 -3.7059  5.2541
  132MOL0     H17800  -0.869   2.091   7.796  2.4145  0.8224  0.0184
  132MOL0     H17801  -0.848   2.183   7.947 -2.2912 -1.4550  4.3846
  132MOL0     H17802   0.031   1.461   8.365  2.9537 -3.1663  1.0101
  132MOL0     H17803   0.256   1.383   8.377 -0.9474  0.5440 -0.9828
  132MOL0     H17804   0.686   1.556   8.220  0.3315  0.1780 -0.9330
  132MOL0     H17805   0.928   1.511   8.182 -0.5905  1.0560  0.2818
  132MOL0     H17806   2.320   2.898   7.662 -1.5550  1.1647  2.2272
  132MOL0     H17807   2.516   2.941   7.756  1.2679  0.0173 -0.1289
  132MOL0     H17808   2.799   2.836   8.127  0.1476  1.4719  0.0459
  132MOL0     H17809   2.981   2.860   8.266  0.0502 -1.0914  0.0958
  132MOL0     H17810   3.351   2.623   8.189 -1.1866 -0.2203  1.6938
  132MOL0     H17811   3.424   2.775   8.133 -0.3877  1.9576  0.0603
  132MOL0     H17812   3.441   2.860   8.352 -1.0027  0.3566 -0.0784
  132MOL0     H17813   3.524   2.708   8.345 -0.7646 -1.6834  0.8520
  132MOL0     H17814   3.281   2.623   8.436  2.3647 -1.6734  1.4900
  132MOL0     H17815   3.274   2.804   8.474  0.0714 -0.2015 -0.5266
  132MOL0     H17816   3.435   2.807   8.631 -0.8893 -0.1812  1.9580
  132MOL0     H17817   3.503   2.647   8.566 -2.0053 -3.0567 -2.4283
  132MOL0     H17818   3.228   2.479   8.828 -1.6891  1.3085  0.0412
  132MOL0     H17819   3.245   2.698   7.976 -0.5959 -0.0390 -1.5637
  132MOL0     H17820   3.064   2.680   7.820  1.8622  3.2530 -0.4348
  133MOL0     O17821   5.455   1.439  10.030 -0.1606 -0.1283  0.7061
  133MOL0     C17822   5.544   1.361  10.062  0.2429  0.0714 -0.0184
  133MOL0     O17823   5.603   1.269   9.982 -0.2958 -0.2993  0.2890
  133MOL0     C17824   5.546   1.249   9.857  1.3865  0.1185  0.1831
  133MOL0     C17825   5.502   1.117   9.832  0.6625 -1.0538 -0.5139
  133MOL0     C17826   5.445   1.085   9.708 -0.3118 -0.4019 -0.2449
  133MOL0     C17827   5.427   1.177   9.608 -0.0918 -0.1833 -0.0967
  133MOL0     O17828   5.376   1.139   9.485  0.5026  0.1208  0.1090
  133MOL0     C17829   5.455   1.049   9.408  0.4089 -0.3095  0.0484
  133MOL0     C17830   5.388   1.029   9.275 -0.2391  0.2660 -0.2683
  133MOL0     C17831   5.444   0.910   9.194  0.2991 -0.3730  0.3623
  133MOL0     C17832   5.413   0.930   9.044 -0.2496  0.0801 -0.4508
  133MOL0     C17833   5.466   0.806   8.965 -0.0382 -0.4720  0.5256
  133MOL0     C17834   5.468   0.844   8.812 -0.1705 -0.0161 -0.0149
  133MOL0     C17835   5.603   0.805   8.752 -0.1347  0.2803  1.2245
  133MOL0     C17836   5.598   0.829   8.601 -0.6478  0.9068  0.0209
  133MOL0     N17837   5.564   0.965   8.567  0.1518  0.4680  0.5244
  133MOL0     C17838   5.451   1.009   8.493  0.5252  0.3489 -0.3164
  133MOL0     C17839   5.472   1.140   8.478 -0.4706 -0.8559  0.0993
  133MOL0     C17840   5.388   1.231   8.403  0.1830 -0.4974  0.0799
  133MOL0     C17841   5.346   1.348   8.499  0.4736  0.1676  0.2643
  133MOL0     C17842   5.232   1.303   8.591 -0.5892 -0.5407 -0.0640
  133MOL0     C17843   5.108   1.227   8.536 -0.3833  0.5923 -0.3360
  133MOL0     O17844   5.055   1.278   8.422 -0.0004 -0.4655 -0.1093
  133MOL0     C17845   4.939   1.230   8.363 -0.5650 -0.0751  0.6858
  133MOL0     C17846   4.845   1.154   8.421 -0.5084  0.0414 -0.1032
  133MOL0     C17847   4.735   1.103   8.351 -0.2154  0.2703 -0.2436
  133MOL0     C17848   4.627   1.037   8.431 -0.8146 -0.3200  0.3034
  133MOL0     C17849   4.719   1.136   8.219 -0.7460 -0.5704  0.1967
  133MOL0     C17850   4.609   1.092   8.131  0.7177 -0.4771  0.0840
  133MOL0     O17851   4.606   1.133   8.004  0.4795  0.5373 -0.5865
  133MOL0     C17852   4.489   1.126   7.939 -0.4032  0.0638  0.4093
  133MOL0     C17853   4.465   1.033   7.835  0.6426  0.1070  0.0750
  133MOL0     C17854   4.346   1.025   7.764  0.1775 -0.0290  0.3356
  133MOL0     C17855   4.242   1.106   7.804 -0.1109 -0.1743  0.3184
  133MOL0     O17856   4.114   1.096   7.761 -0.5623 -0.3799  0.4375
  133MOL0     C17857   4.073   0.979   7.698 -0.8430  0.7314  0.0647
  133MOL0     C17858   3.924   0.975   7.687 -0.1047  0.3462 -0.4039
  133MOL0     C17859   3.877   0.882   7.571 -0.4718 -0.3303  0.4626
  133MOL0     C17860   3.723   0.846   7.583  0.6904  0.1586 -0.7761
  133MOL0     C17861   3.646   0.790   7.460  0.8040 -0.0233  0.0851
  133MOL0     C17862   3.710   0.654   7.418 -0.3647  0.0049  0.1440
  133MOL0     C17863   3.645   0.604   7.293  0.0448 -0.0851 -0.5981
  133MOL0     C17864   3.687   0.459   7.257 -0.4020  0.3999  0.2180
  133MOL0    Cl17865   3.862   0.451   7.253 -0.4436  0.2095  0.1191
  133MOL0     C17866   4.264   1.203   7.903 -0.1951 -0.3420  0.1028
  133MOL0     C17867   4.390   1.226   7.961 -0.4301 -0.4640  0.3211
  133MOL0     O17868   4.532   1.004   8.173  0.3882 -0.7260  0.4360
  133MOL0     C17869   4.811   1.223   8.164 -0.4970 -0.7123  0.8759
  133MOL0     C17870   4.917   1.273   8.231 -0.2408 -0.0400 -0.2800
  133MOL0     N17871   5.594   1.184   8.536  0.3384  0.3938 -0.0026
  133MOL0     N17872   5.647   1.073   8.585  0.2628 -0.5400 -0.7212
  133MOL0     C17873   5.470   1.307   9.628  0.4648 -0.5005 -0.3598
  133MOL0     C17874   5.529   1.341   9.752  1.2150 -0.3419  0.2765
  133MOL0     C17875   5.600   1.387  10.201  0.0063  0.2100  0.6554
  133MOL0     C17876   5.726   1.345  10.239  0.0655 -0.3381  0.8263
  133MOL0     C17877   5.767   1.366  10.370  0.0192 -0.4135 -0.1496
  133MOL0     C17878   5.693   1.452  10.464  1.0437 -0.8581  0.1763
  133MOL0     O17879   5.744   1.458  10.589 -0.0121 -0.0434  0.5535
  133MOL0     C17880   5.669   1.526  10.698 -0.2581  0.6950  0.3455
  133MOL0     C17881   5.715   1.461  10.837  0.9387 -0.9657  0.6722
  133MOL0     C17882   5.858   1.452  10.866 -0.5795 -0.5062 -0.7122
  133MOL0     C17883   5.952   1.574  10.816  0.0476 -0.0861  0.2451
  133MOL0     C17884   5.886   1.690  10.884  0.1392 -0.1539 -0.3127
  133MOL0     C17885   5.837   1.777  10.957 -0.6809 -0.1694  0.1723
  133MOL0     C17886   5.572   1.506  10.417 -0.5445  0.5235  0.3376
  133MOL0     C17887   5.527   1.474  10.289 -0.9416  0.3870 -0.3957
  133MOL0     H17888   5.498   1.049   9.916 -2.8365  0.8900  1.1002
  133MOL0     H17889   5.420   0.980   9.697 -1.4032 -0.3554  1.3815
  133MOL0     H17890   5.560   1.078   9.399  0.2685  0.3084  0.3499
  133MOL0     H17891   5.453   0.957   9.467  0.4176  1.2199  2.6101
  133MOL0     H17892   5.280   1.022   9.292 -0.3948  1.0855 -0.8420
  133MOL0     H17893   5.403   1.119   9.215  2.5040  0.8982  1.2176
  133MOL0     H17894   5.548   0.897   9.226  1.4564 -0.2252 -2.9346
  133MOL0     H17895   5.389   0.823   9.233  0.3344  0.2444  1.8490
  133MOL0     H17896   5.305   0.935   9.032 -0.6234  0.8309  2.5242
  133MOL0     H17897   5.465   1.021   9.014  2.7754 -1.1858  0.5344
  133MOL0     H17898   5.571   0.783   8.987 -0.6185 -1.2982  2.6455
  133MOL0     H17899   5.417   0.711   8.989 -0.5162  0.3384  3.0653
  133MOL0     H17900   5.392   0.786   8.759  1.7135 -2.3043 -0.3763
  133MOL0     H17901   5.440   0.949   8.801  1.5727  0.3079 -1.9311
  133MOL0     H17902   5.683   0.868   8.790  2.7394 -1.0207 -2.0689
  133MOL0     H17903   5.633   0.700   8.766 -0.5406  0.1861  1.4077
  133MOL0     H17904   5.514   0.772   8.560  0.1793  0.8826 -1.7252
  133MOL0     H17905   5.694   0.792   8.565 -2.0989 -1.7849 -1.3798
  133MOL0     H17906   5.363   0.954   8.462  0.5688 -0.3138  0.6937
  133MOL0     H17907   5.449   1.279   8.326  2.6104 -1.3492  1.3616
  133MOL0     H17908   5.308   1.182   8.348  0.0677 -0.2603  0.0329
  133MOL0     H17909   5.314   1.435   8.441  2.0913 -0.0700 -1.0926
  133MOL0     H17910   5.427   1.380   8.565  2.0988  1.6601 -2.2656
  133MOL0     H17911   5.195   1.396   8.636  1.0828 -0.5201  1.3397
  133MOL0     H17912   5.270   1.246   8.676 -1.0328  0.9531  1.1693
  133MOL0     H17913   5.034   1.229   8.616 -1.1983 -0.5138 -1.0305
  133MOL0     H17914   5.127   1.119   8.534 -3.9934 -0.3032  2.6135
  133MOL0     H17915   4.867   1.141   8.527  1.2169  1.2224 -0.2650
  133MOL0     H17916   4.529   1.077   8.404 -0.8130 -1.7362 -2.1108
  133MOL0     H17917   4.621   0.934   8.394  2.2642 -0.2024 -0.7900
  133MOL0     H17918   4.649   1.026   8.538  1.1043 -3.4697 -0.2803
  133MOL0     H17919   4.538   0.957   7.810  1.8872  1.9634 -2.3782
  133MOL0     H17920   4.332   0.943   7.695 -1.4291  0.4254  0.0842
  133MOL0     H17921   4.123   0.983   7.601  1.0246 -0.4998  0.9092
  133MOL0     H17922   4.117   0.898   7.757  1.7207  1.0986 -1.2016
  133MOL0     H17923   3.876   0.945   7.780 -1.6482  1.2410 -0.8865
  133MOL0     H17924   3.889   1.076   7.668  0.5014  1.1232  2.2387
  133MOL0     H17925   3.939   0.792   7.573 -0.9577 -0.6688  0.4152
  133MOL0     H17926   3.900   0.932   7.477 -1.3268 -0.2507  0.2905
  133MOL0     H17927   3.716   0.761   7.652 -0.7076  0.1523 -0.8983
  133MOL0     H17928   3.683   0.934   7.633  0.9844 -0.7501  1.1353
  133MOL0     H17929   3.639   0.864   7.380 -0.2209  1.2775  1.3210
  133MOL0     H17930   3.541   0.766   7.476  0.8725 -0.7931 -0.5568
  133MOL0     H17931   3.819   0.655   7.409 -0.2971 -0.3025  0.8752
  133MOL0     H17932   3.684   0.595   7.506  0.9617  1.4347  1.5545
  133MOL0     H17933   3.675   0.664   7.207  1.3284 -0.3524 -0.3490
  133MOL0     H17934   3.537   0.613   7.307  0.3366  2.7482  0.4698
  133MOL0     H17935   3.653   0.434   7.156  0.6231 -0.7401  0.1319
  133MOL0     H17936   3.651   0.380   7.324 -1.7698  1.4100  0.7341
  133MOL0     H17937   4.191   1.278   7.932 -0.3398 -0.3533 -0.2297
  133MOL0     H17938   4.413   1.306   8.031 -2.3305  0.1742  0.2656
  133MOL0     H17939   4.816   1.261   8.062  3.0424  1.7171  1.7788
  133MOL0     H17940   4.977   1.355   8.193 -2.4015  1.8494  0.1677
  133MOL0     H17941   5.454   1.383   9.552 -1.7211  3.9183  3.8864
  133MOL0     H17942   5.559   1.441   9.781 -2.5654  0.8217  0.7045
  133MOL0     H17943   5.781   1.289  10.163  1.2145 -1.5282  2.4670
  133MOL0     H17944   5.856   1.316  10.406  0.2012 -0.9775 -1.3264
  133MOL0     H17945   5.667   1.635  10.694 -1.1254  0.7318  1.4835
  133MOL0     H17946   5.564   1.497  10.687 -0.1568 -0.0889  1.2682
  133MOL0     H17947   5.654   1.371  10.848  0.5297 -0.3960  4.1642
  133MOL0     H17948   5.670   1.509  10.925  0.7272  0.3093 -0.1138
  133MOL0     H17949   5.888   1.355  10.825 -0.8538 -0.5518 -0.8050
  133MOL0     H17950   5.873   1.425  10.971  4.1183 -0.6504 -1.1904
  133MOL0     H17951   5.968   1.573  10.708  2.5516  2.5795  0.4836
  133MOL0     H17952   6.052   1.559  10.859  0.8400 -0.0426 -1.5060
  133MOL0     H17953   5.805   1.853  11.026 -2.1434 -0.7747  0.2093
  133MOL0     H17954   5.523   1.579  10.481  1.3427  4.3121 -2.2095
  133MOL0     H17955   5.435   1.520  10.253 -1.1200 -0.6930 -1.3994
  134MOL0     O17956   9.691   9.500   9.677  0.4938  0.0041  0.4753
  134MOL0     C17957   9.758   9.482   9.571  0.6141  0.0589 -0.2097
  134MOL0     O17958   9.715   9.427   9.454  0.0202 -0.2125 -0.8342
  134MOL0     C17959   9.590   9.379   9.447  0.5408 -0.0035 -0.2889
  134MOL0     C17960   9.468   9.434   9.489  0.4269 -0.1212  0.0913
  134MOL0     C17961   9.352   9.355   9.471 -0.1479 -0.2244 -0.1435
  134MOL0     C17962   9.342   9.242   9.385 -0.3214 -0.0009 -0.2137
  134MOL0     O17963   9.224   9.190   9.355  0.9970 -0.2382 -0.2313
  134MOL0     C17964   9.221   9.080   9.260 -0.4467 -0.9546  0.4215
  134MOL0     C17965   9.068   9.037   9.240 -0.5789 -0.3877 -0.5999
  134MOL0     C17966   8.985   9.153   9.183  0.3324 -0.4457 -0.2185
  134MOL0     C17967   8.848   9.120   9.125  0.3159 -0.3338  0.7028
  134MOL0     C17968   8.752   9.049   9.217  0.2577  1.0358  0.5922
  134MOL0     C17969   8.623   9.002   9.141 -0.0154  0.3022 -0.3826
  134MOL0     C17970   8.534   8.912   9.226  0.6521  0.0599 -0.1291
  134MOL0     C17971   8.467   8.985   9.345 -0.3314  0.2038  0.0289
  134MOL0     N17972   8.321   8.967   9.346 -1.3395  0.4482 -0.6276
  134MOL0     C17973   8.274   8.843   9.308 -0.2592 -1.4229  0.5282
  134MOL0     C17974   8.142   8.861   9.334  1.2850 -0.1493 -0.8406
  134MOL0     C17975   8.017   8.775   9.316 -0.2684 -0.1875 -0.5991
  134MOL0     C17976   8.035   8.640   9.386 -0.3207  0.1384  0.2732
  134MOL0     C17977   7.955   8.524   9.336 -0.1221  0.2659  0.2232
  134MOL0     C17978   7.807   8.526   9.377 -0.1520 -0.2076  0.6830
  134MOL0     O17979   7.751   8.394   9.358  0.3429 -0.1078 -0.5445
  134MOL0     C17980   7.615   8.370   9.341 -0.5348 -0.7716  0.3504
  134MOL0     C17981   7.577   8.308   9.224 -0.4472 -0.3707  0.5143
  134MOL0     C17982   7.449   8.266   9.199 -0.6245  0.1040  0.2227
  134MOL0     C17983   7.424   8.188   9.073  0.4651  0.5463  0.7712
  134MOL0     C17984   7.356   8.279   9.303  0.0820 -0.2566 -0.7152
  134MOL0     C17985   7.220   8.234   9.292  0.4071  0.4981  0.5932
  134MOL0     O17986   7.163   8.217   9.169 -0.4166 -1.2133 -0.4094
  134MOL0     C17987   7.051   8.143   9.173 -0.0446  0.2240 -0.8942
  134MOL0     C17988   6.930   8.216   9.188  0.0074 -1.6670 -0.0751
  134MOL0     C17989   6.806   8.166   9.159  0.1087 -0.2281 -0.2525
  134MOL0     C17990   6.790   8.031   9.126 -0.7949 -0.1584 -0.1869
  134MOL0     O17991   6.672   7.971   9.108 -0.0482 -0.4360 -0.3945
  134MOL0     C17992   6.570   8.022   9.203 -0.4774  0.3362 -1.2423
  134MOL0     C17993   6.453   7.921   9.226 -0.6723 -0.4920  0.3731
  134MOL0     C17994   6.503   7.799   9.305  0.6565 -0.5018  0.1976
  134MOL0     C17995   6.398   7.703   9.365 -0.0593 -0.1623  0.3512
  134MOL0     C17996   6.289   7.764   9.451  0.4225  0.3295 -0.6843
  134MOL0     C17997   6.165   7.792   9.365 -0.8727  0.2164  0.5034
  134MOL0     C17998   6.062   7.865   9.457 -0.0253 -0.2802  0.0126
  134MOL0     C17999   5.922   7.892   9.391 -0.0815 -0.2359  0.7970
  134MOL0    Cl18000   5.865   7.751   9.290 -0.1458  0.1999  0.3378
  134MOL0     C18001   6.913   7.951   9.108 -0.2148 -0.3676  0.3240
  134MOL0     C18002   7.042   8.009   9.117  0.4945 -0.0786 -0.1538
  134MOL0     O18003   7.167   8.207   9.402 -0.5746  0.8705 -0.0643
  134MOL0     C18004   7.397   8.335   9.428  0.4779 -0.3832 -0.6550
  134MOL0     C18005   7.527   8.375   9.445 -0.6900 -1.0098 -0.0004
  134MOL0     N18006   8.126   8.993   9.374 -0.2841  0.1719  0.2703
  134MOL0     N18007   8.227   9.057   9.385 -0.0486 -0.6136  0.2970
  134MOL0     C18008   9.462   9.191   9.342 -0.1764  0.3461 -0.3853
  134MOL0     C18009   9.580   9.260   9.379 -0.1505  0.0707 -0.9348
  134MOL0     C18010   9.899   9.518   9.584 -0.8191 -0.4028  0.4651
  134MOL0     C18011   9.960   9.531   9.708 -0.8281 -0.1980 -0.5861
  134MOL0     C18012  10.100   9.565   9.720 -0.0031  0.2410  0.1179
  134MOL0     C18013  10.182   9.585   9.609  0.0378 -0.0224 -0.7647
  134MOL0     O18014  10.315   9.614   9.624  0.0434  1.0142  0.2777
  134MOL0     C18015  10.384   9.617   9.750 -0.5785 -0.5039  0.2853
  134MOL0     C18016  10.536   9.633   9.727  1.2579 -0.4218 -0.1767
  134MOL0     C18017  10.579   9.716   9.596  0.0570  0.4082  1.1015
  134MOL0     C18018  10.725   9.752   9.596 -0.8643  0.2751 -0.3643
  134MOL0     C18019  10.813   9.644   9.541 -0.2608 -0.8319  0.2666
  134MOL0     C18020  10.902   9.573   9.499  0.3562  0.2788 -0.0119
  134MOL0     C18021  10.127   9.561   9.482  0.6316  0.2165 -0.2795
  134MOL0     C18022   9.983   9.539   9.462  0.2646  0.6569 -0.7973
  134MOL0     H18023   9.464   9.527   9.544  3.5116 -0.8448  1.7906
  134MOL0     H18024   9.255   9.393   9.502 -0.9236 -1.9795 -0.3063
  134MOL0     H18025   9.267   9.119   9.169  2.5019 -1.2187  1.7012
  134MOL0     H18026   9.284   8.997   9.294  1.2410  0.7519  1.6666
  134MOL0     H18027   9.072   8.959   9.164 -1.0076 -1.4406  0.4138
  134MOL0     H18028   9.024   8.994   9.331 -0.4970  1.6941  0.4791
  134MOL0     H18029   8.963   9.222   9.265  1.9707 -0.0195 -0.0940
  134MOL0     H18030   9.051   9.202   9.110  2.3238 -0.3885  1.5252
  134MOL0     H18031   8.803   9.210   9.084  2.1737  0.6007  0.6073
  134MOL0     H18032   8.860   9.056   9.036 -0.3214 -1.0075  1.0916
  134MOL0     H18033   8.798   8.953   9.242  0.6383  0.5591 -1.7014
  134MOL0     H18034   8.722   9.122   9.293 -0.9407  1.3527 -0.1537
  134MOL0     H18035   8.563   9.080   9.093  0.8637  0.5655 -1.0636
  134MOL0     H18036   8.660   8.945   9.055  0.9940  1.2458 -0.6004
  134MOL0     H18037   8.455   8.872   9.161 -0.9029  0.3421  1.5342
  134MOL0     H18038   8.591   8.832   9.275  0.0850  0.0884  0.5858
  134MOL0     H18039   8.499   9.089   9.344 -0.6865  0.3090 -0.4612
  134MOL0     H18040   8.507   8.939   9.436  0.0602 -1.7428 -1.0721
  134MOL0     H18041   8.328   8.756   9.272 -2.7927 -1.9496 -2.5095
  134MOL0     H18042   7.931   8.829   9.356  1.6051  1.5433  1.3821
  134MOL0     H18043   7.991   8.773   9.209 -0.5499 -2.0347 -0.5294
  134MOL0     H18044   8.024   8.646   9.495 -2.0379 -0.8092  0.1949
  134MOL0     H18045   8.142   8.622   9.372 -0.4211 -1.1712  1.0657
  134MOL0     H18046   7.984   8.429   9.382 -2.2120 -0.0698  0.9595
  134MOL0     H18047   7.966   8.506   9.228  2.7966 -0.4491  0.5440
  134MOL0     H18048   7.760   8.592   9.302 -2.3414 -1.1926  1.1079
  134MOL0     H18049   7.788   8.567   9.476 -0.6032 -0.3438  0.6557
  134MOL0     H18050   7.661   8.298   9.156 -2.4986  1.2049 -2.4399
  134MOL0     H18051   7.508   8.183   9.002 -1.1589  0.6211 -1.2629
  134MOL0     H18052   7.392   8.086   9.095 -1.8399  0.9601 -0.3249
  134MOL0     H18053   7.339   8.231   9.018 -1.4575 -2.2768  1.3466
  134MOL0     H18054   6.939   8.318   9.225  0.5919 -1.4222 -0.8628
  134MOL0     H18055   6.739   8.251   9.155 -1.3777 -1.3646 -0.4079
  134MOL0     H18056   6.614   8.038   9.302  1.0237  0.3535 -1.8714
  134MOL0     H18057   6.525   8.115   9.168  0.1723  1.0713 -0.1721
  134MOL0     H18058   6.379   7.975   9.285 -1.0314  0.3643 -0.8315
  134MOL0     H18059   6.405   7.898   9.131 -2.2164  3.2483  0.0957
  134MOL0     H18060   6.563   7.839   9.387 -0.6031  2.1931 -0.0776
  134MOL0     H18061   6.573   7.738   9.249  0.9267 -4.0480  3.9226
  134MOL0     H18062   6.365   7.644   9.279 -1.2756  0.0540  0.6577
  134MOL0     H18063   6.456   7.626   9.418  2.5274  0.1843 -1.7637
  134MOL0     H18064   6.336   7.848   9.503 -0.9132 -1.4089  3.8732
  134MOL0     H18065   6.255   7.706   9.538  0.5026  0.9277 -0.2452
  134MOL0     H18066   6.188   7.848   9.273  0.6340 -0.7610  0.2514
  134MOL0     H18067   6.115   7.701   9.332 -1.1198  0.7424 -0.6179
  134MOL0     H18068   6.104   7.960   9.490  0.1209 -1.7150  4.6625
  134MOL0     H18069   6.049   7.795   9.539  0.5394  1.5321  1.7191
  134MOL0     H18070   5.925   7.976   9.321 -0.0363 -0.7733  0.1446
  134MOL0     H18071   5.857   7.922   9.474 -2.2302 -3.2107  0.3662
  134MOL0     H18072   6.908   7.845   9.086 -1.3875 -0.9066  2.9024
  134MOL0     H18073   7.133   7.951   9.102  1.8791  2.1506 -1.0487
  134MOL0     H18074   7.338   8.335   9.518  0.6099  0.3791 -0.5592
  134MOL0     H18075   7.570   8.420   9.533  1.6862 -0.4990 -1.3377
  134MOL0     H18076   9.473   9.099   9.285 -0.5402  0.1100 -0.0834
  134MOL0     H18077   9.679   9.219   9.358  1.4636  1.9568  2.2149
  134MOL0     H18078   9.912   9.515   9.804  0.0022  2.6646  0.4187
  134MOL0     H18079  10.137   9.589   9.819 -3.7488  1.6638  1.3541
  134MOL0     H18080  10.358   9.705   9.809  0.6659 -0.4743  0.8095
  134MOL0     H18081  10.380   9.533   9.819  1.5735 -0.7388  0.2067
  134MOL0     H18082  10.589   9.537   9.724  1.5918 -0.3056  1.0962
  134MOL0     H18083  10.575   9.701   9.804  2.8453  2.1654 -3.0515
  134MOL0     H18084  10.517   9.806   9.589  0.5289  0.6073 -2.5861
  134MOL0     H18085  10.557   9.652   9.510  0.3743  0.4980  0.9492
  134MOL0     H18086  10.753   9.767   9.701 -1.1188 -1.7916  0.0525
  134MOL0     H18087  10.737   9.837   9.529 -1.4181  0.2288 -0.5228
  134MOL0     H18088  10.964   9.498   9.453  0.4310  0.2428  0.1445
  134MOL0     H18089  10.182   9.567   9.388  1.5554  1.0243  0.2855
  134MOL0     H18090   9.937   9.528   9.363 -0.7317  4.0086 -0.8326
  135MOL0     O18091   6.360   6.403   9.698 -0.4779  0.4566 -0.2400
  135MOL0     C18092   6.447   6.390   9.614 -0.6672  0.3095 -0.3450
  135MOL0     O18093   6.421   6.368   9.484 -0.0368 -0.1962  0.6454
  135MOL0     C18094   6.290   6.379   9.446 -0.6859  1.2567  0.0265
  135MOL0     C18095   6.242   6.265   9.379  0.6225  0.0309 -0.2293
  135MOL0     C18096   6.100   6.248   9.350 -0.3948  0.0051  0.0568
  135MOL0     C18097   6.008   6.353   9.378 -0.2038 -0.1817 -0.6502
  135MOL0     O18098   5.883   6.343   9.335  0.5355  0.3089 -0.5789
  135MOL0     C18099   5.803   6.247   9.419 -0.0714 -0.1624 -0.5226
  135MOL0     C18100   5.694   6.177   9.333  0.2197  0.6518 -0.1587
  135MOL0     C18101   5.585   6.271   9.277 -0.2193  0.0355  0.0618
  135MOL0     C18102   5.494   6.166   9.192 -0.7485 -0.0722  0.2109
  135MOL0     C18103   5.358   6.229   9.157  0.2875 -0.0173  0.0625
  135MOL0     C18104   5.349   6.279   9.019  1.1755  0.0655  0.5507
  135MOL0     C18105   5.468   6.332   8.941  0.0097  0.5007 -0.4487
  135MOL0     C18106   5.418   6.388   8.811  0.1448 -0.4745 -0.6988
  135MOL0     N18107   5.343   6.295   8.722  0.2588  0.0691  0.3150
  135MOL0     C18108   5.413   6.203   8.659 -0.2631  0.1406 -0.0575
  135MOL0     C18109   5.325   6.131   8.585  0.2569  0.3852  0.1504
  135MOL0     C18110   5.354   6.017   8.499  0.0003  0.4521 -0.1013
  135MOL0     C18111   5.355   6.042   8.348  0.4152 -0.0568 -0.1099
  135MOL0     C18112   5.240   5.979   8.265 -0.0308 -0.1378 -0.6282
  135MOL0     C18113   5.246   5.827   8.256 -0.2376  0.7924  0.7703
  135MOL0     O18114   5.362   5.787   8.174  0.2221 -0.2858  0.0908
  135MOL0     C18115   5.404   5.660   8.157  0.2062  0.3479 -0.1547
  135MOL0     C18116   5.334   5.554   8.219  0.2787 -0.4793 -0.5154
  135MOL0     C18117   5.362   5.421   8.201  0.3697  0.5278 -0.5080
  135MOL0     C18118   5.288   5.317   8.280  0.0301  0.3183 -0.2093
  135MOL0     C18119   5.470   5.387   8.114  0.1026  0.1091 -0.1568
  135MOL0     C18120   5.499   5.242   8.078 -0.3519 -0.2186  0.1915
  135MOL0     O18121   5.393   5.149   8.061 -0.2670  0.2576 -1.1425
  135MOL0     C18122   5.410   5.017   8.082  1.1943  0.0901  0.2172
  135MOL0     C18123   5.500   4.942   8.150 -0.0298  0.4772  0.0606
  135MOL0     C18124   5.493   4.802   8.162  0.1792  0.7687  0.3662
  135MOL0     C18125   5.385   4.737   8.100  0.2721 -0.9810 -0.1563
  135MOL0     O18126   5.375   4.602   8.108  0.0185  0.3555 -0.0040
  135MOL0     C18127   5.248   4.539   8.120  0.1503 -0.3264 -0.4629
  135MOL0     C18128   5.256   4.415   8.210 -0.8431  0.0593 -0.3576
  135MOL0     C18129   5.144   4.321   8.179 -0.0813 -0.4076  0.6602
  135MOL0     C18130   5.021   4.347   8.255 -0.1248 -0.5176  0.6839
  135MOL0     C18131   4.895   4.284   8.186 -1.5287 -0.3859  0.1670
  135MOL0     C18132   4.774   4.272   8.274 -0.4403  0.2940 -0.2112
  135MOL0     C18133   4.659   4.229   8.190  0.5864 -0.4833 -1.0810
  135MOL0     C18134   4.664   4.088   8.132 -0.2704 -0.6710 -0.4540
  135MOL0    Cl18135   4.501   4.049   8.078  0.3204  0.0288 -0.6379
  135MOL0     C18136   5.298   4.809   8.024  0.1814 -0.6487 -0.3861
  135MOL0     C18137   5.309   4.944   8.014 -0.1968 -0.2431  0.5281
  135MOL0     O18138   5.616   5.213   8.070  0.6498  0.1966  0.7422
  135MOL0     C18139   5.549   5.492   8.059  1.3404 -0.1492  0.1433
  135MOL0     C18140   5.518   5.624   8.086  0.3636  0.5731 -0.0407
  135MOL0     N18141   5.201   6.188   8.601  0.0062  0.3287 -0.5918
  135MOL0     N18142   5.211   6.281   8.682 -0.2564  0.5088 -0.2475
  135MOL0     C18143   6.060   6.466   9.430 -0.6209 -0.0616 -0.7494
  135MOL0     C18144   6.202   6.489   9.461  0.0670  0.1134 -1.2186
  135MOL0     C18145   6.588   6.391   9.650  0.3638 -0.5429 -0.1757
  135MOL0     C18146   6.695   6.411   9.559  0.6108 -1.2714 -0.9019
  135MOL0     C18147   6.836   6.403   9.597  0.3299  0.7108  0.1967
  135MOL0     C18148   6.868   6.372   9.728  0.0650 -0.6597 -0.9539
  135MOL0     O18149   6.997   6.354   9.790 -0.3108 -0.1671  0.3025
  135MOL0     C18150   7.099   6.449   9.767 -0.0889 -0.5739 -0.9048
  135MOL0     C18151   7.189   6.423   9.639  1.3116  0.0597 -0.0853
  135MOL0     C18152   7.313   6.508   9.641 -0.0495  0.3806 -0.2460
  135MOL0     C18153   7.437   6.438   9.690  0.2514  0.1103  0.4525
  135MOL0     C18154   7.508   6.515   9.785  0.6175 -0.8731 -0.1518
  135MOL0     C18155   7.592   6.574   9.856  0.3025  0.9876 -0.5505
  135MOL0     C18156   6.765   6.347   9.818  0.3948  0.6095 -0.1645
  135MOL0     C18157   6.631   6.360   9.781 -0.4508 -0.0581 -0.7929
  135MOL0     H18158   6.310   6.186   9.349 -0.7935 -1.2550 -0.1916
  135MOL0     H18159   6.070   6.161   9.293  0.4362  0.6820 -1.4992
  135MOL0     H18160   5.852   6.161   9.466  0.5135 -1.0053 -2.5515
  135MOL0     H18161   5.757   6.301   9.502  1.8615 -0.8058  1.0530
  135MOL0     H18162   5.748   6.125   9.253 -1.0280 -1.2388  0.1714
  135MOL0     H18163   5.651   6.098   9.395  0.9490  1.7907  1.9120
  135MOL0     H18164   5.524   6.317   9.355 -1.1173 -1.2364  0.1522
  135MOL0     H18165   5.630   6.341   9.206 -0.3653 -0.5777 -0.6519
  135MOL0     H18166   5.555   6.126   9.111  1.2956 -1.6786  2.3935
  135MOL0     H18167   5.476   6.073   9.246  3.4380 -0.6453  0.9773
  135MOL0     H18168   5.277   6.158   9.173 -0.5177  1.1537  1.3986
  135MOL0     H18169   5.336   6.309   9.229  0.8066 -0.0458  0.2589
  135MOL0     H18170   5.315   6.191   8.964  0.4020  0.6550  0.0738
  135MOL0     H18171   5.271   6.352   8.996  1.2745  0.0013 -0.0028
  135MOL0     H18172   5.515   6.409   9.003 -0.0893 -0.0607  0.3411
  135MOL0     H18173   5.542   6.259   8.907 -0.2422 -1.4011  2.6295
  135MOL0     H18174   5.513   6.409   8.760  1.5395 -0.3401  1.7850
  135MOL0     H18175   5.350   6.473   8.817 -1.3654 -1.1042 -5.2062
  135MOL0     H18176   5.520   6.184   8.658 -0.3325 -0.2489 -0.6314
  135MOL0     H18177   5.446   5.974   8.540 -2.0951 -1.8094  2.6384
  135MOL0     H18178   5.272   5.947   8.520 -1.2265  1.6631 -0.6810
  135MOL0     H18179   5.452   6.003   8.316  0.3583 -1.9965  1.8912
  135MOL0     H18180   5.343   6.151   8.337  0.0209  0.3552  3.3778
  135MOL0     H18181   5.238   6.015   8.162 -0.7558  0.7285 -0.3289
  135MOL0     H18182   5.147   6.018   8.308  1.7529  1.1461  2.4051
  135MOL0     H18183   5.152   5.792   8.211 -0.6287 -1.1069  2.9311
  135MOL0     H18184   5.250   5.773   8.350  2.4674  1.0923  0.8946
  135MOL0     H18185   5.250   5.583   8.282  1.6738 -0.4563  1.4417
  135MOL0     H18186   5.369   5.272   8.338 -0.6500  1.4384  1.7356
  135MOL0     H18187   5.224   5.359   8.358 -1.0353 -2.4517  0.4994
  135MOL0     H18188   5.220   5.250   8.227 -0.4086 -0.8625  1.7505
  135MOL0     H18189   5.571   5.000   8.209 -1.3113  1.6473  0.5052
  135MOL0     H18190   5.570   4.747   8.216 -0.0618 -0.4344 -0.4761
  135MOL0     H18191   5.173   4.607   8.162 -2.1200 -3.1424  0.3532
  135MOL0     H18192   5.220   4.513   8.017  0.2348 -0.2445 -0.5081
  135MOL0     H18193   5.346   4.358   8.188 -2.6672 -3.3611  0.4221
  135MOL0     H18194   5.259   4.432   8.318  0.4980 -2.2859  0.0477
  135MOL0     H18195   5.175   4.217   8.188 -2.5083 -1.3774 -1.1950
  135MOL0     H18196   5.123   4.337   8.073  0.5708  0.1224  0.5993
  135MOL0     H18197   5.024   4.298   8.353  0.7273 -1.4796  0.1934
  135MOL0     H18198   4.988   4.451   8.264 -0.7762 -0.2665 -3.0685
  135MOL0     H18199   4.918   4.190   8.136  1.3993  0.1238  0.3906
  135MOL0     H18200   4.875   4.347   8.099 -2.0279 -2.0095 -0.9413
  135MOL0     H18201   4.787   4.202   8.356 -1.8433  0.7122  0.3997
  135MOL0     H18202   4.757   4.375   8.308 -2.6925  0.3852 -1.3638
  135MOL0     H18203   4.638   4.296   8.107 -3.3701 -0.2541 -0.0624
  135MOL0     H18204   4.571   4.246   8.252  0.8548 -1.5371 -0.3636
  135MOL0     H18205   4.692   4.013   8.207  1.1765  0.1110 -0.1687
  135MOL0     H18206   4.738   4.098   8.051  0.3420  2.3741  0.3598
  135MOL0     H18207   5.219   4.755   7.971 -0.6079 -1.2162  1.3065
  135MOL0     H18208   5.233   5.005   7.966  0.7630  0.6171  0.0387
  135MOL0     H18209   5.636   5.475   7.995  0.4772  1.1330 -1.4686
  135MOL0     H18210   5.575   5.700   8.034  1.8633 -1.0644 -0.9065
  135MOL0     H18211   5.996   6.552   9.445  0.4932  0.8321 -1.0322
  135MOL0     H18212   6.238   6.582   9.504 -2.5077  2.1120 -3.0534
  135MOL0     H18213   6.678   6.433   9.454  0.6163 -0.2105 -0.6978
  135MOL0     H18214   6.911   6.419   9.521 -0.4082 -1.0525 -0.9773
  135MOL0     H18215   7.057   6.551   9.768 -0.5872 -0.7753  0.4848
  135MOL0     H18216   7.163   6.445   9.855 -0.6541  1.1715 -0.3522
  135MOL0     H18217   7.132   6.439   9.547  2.3944  2.7542 -0.3722
  135MOL0     H18218   7.213   6.316   9.630  2.0090  0.1188  0.9433
  135MOL0     H18219   7.286   6.603   9.689  0.9678 -0.6297  2.5407
  135MOL0     H18220   7.339   6.541   9.540 -0.7730 -0.3872 -0.7015
  135MOL0     H18221   7.494   6.410   9.601  0.5268 -0.3033  0.7496
  135MOL0     H18222   7.413   6.340   9.733 -1.4113 -0.2803 -1.2584
  135MOL0     H18223   7.660   6.608   9.931  0.9362 -0.6216 -0.3540
  135MOL0     H18224   6.783   6.317   9.921 -0.9189  2.0278  0.5237
  135MOL0     H18225   6.554   6.334   9.854 -0.0642  2.1207  0.4951
  136MOL0     O18226  11.363   8.325   3.552 -0.6060  0.3291 -0.1015
  136MOL0     C18227  11.459   8.381   3.504 -0.5239 -0.7636 -0.6344
  136MOL0     O18228  11.450   8.498   3.436 -0.0331  0.5658  0.5055
  136MOL0     C18229  11.330   8.565   3.430  0.2415 -0.5067  0.3166
  136MOL0     C18230  11.330   8.705   3.432 -0.2091 -1.2024 -0.5541
  136MOL0     C18231  11.207   8.775   3.418 -0.7335  0.2576 -1.1772
  136MOL0     C18232  11.084   8.713   3.402  0.7354  0.6878  0.3663
  136MOL0     O18233  10.972   8.793   3.388  0.5142  0.7616 -0.4894
  136MOL0     C18234  10.844   8.724   3.400  0.5616  0.0464  0.1083
  136MOL0     C18235  10.733   8.833   3.407 -0.2052  0.5856  0.0898
  136MOL0     C18236  10.596   8.783   3.352 -0.5684 -0.0758  0.3109
  136MOL0     C18237  10.486   8.809   3.454 -0.1514 -0.8721 -0.5311
  136MOL0     C18238  10.354   8.749   3.410 -0.2138 -0.4809  0.3071
  136MOL0     C18239  10.266   8.734   3.533  0.1581 -0.1223 -0.6753
  136MOL0     C18240  10.129   8.668   3.482 -0.0455 -0.4252  0.2640
  136MOL0     C18241  10.043   8.630   3.608 -0.1299 -0.0697  0.1918
  136MOL0     N18242   9.923   8.547   3.558 -0.8119 -0.3396 -0.9879
  136MOL0     C18243   9.796   8.586   3.594 -0.5283 -0.0710 -0.5161
  136MOL0     C18244   9.712   8.498   3.530 -0.0158 -0.1547  0.2341
  136MOL0     C18245   9.563   8.510   3.517  0.9350  1.0621  0.4158
  136MOL0     C18246   9.486   8.462   3.643 -0.0144  0.8382 -0.4374
  136MOL0     C18247   9.520   8.541   3.779 -0.4149  0.0648 -0.3707
  136MOL0     C18248   9.418   8.507   3.886 -0.2496 -0.1615 -0.1574
  136MOL0     O18249   9.295   8.557   3.845  0.5328 -0.3173  0.1204
  136MOL0     C18250   9.184   8.496   3.901  0.4650 -0.0559 -0.0664
  136MOL0     C18251   9.185   8.448   4.040  0.0746 -0.2047  0.1545
  136MOL0     C18252   9.060   8.413   4.099 -1.1715 -0.1456 -0.5430
  136MOL0     C18253   9.057   8.366   4.246 -0.6923 -0.1258  0.9806
  136MOL0     C18254   8.936   8.414   4.021  0.6653  0.1603  0.1011
  136MOL0     C18255   8.795   8.367   4.078 -0.1424  0.2342 -0.3212
  136MOL0     O18256   8.688   8.412   4.005 -0.3835 -0.0075 -1.2706
  136MOL0     C18257   8.558   8.387   4.042  0.0820 -0.2671  0.1065
  136MOL0     C18258   8.515   8.272   4.112 -0.0799  1.2289 -0.9350
  136MOL0     C18259   8.380   8.261   4.137 -0.5693 -0.4527  0.4739
  136MOL0     C18260   8.278   8.338   4.077  0.0295 -0.5823  0.7260
  136MOL0     O18261   8.151   8.310   4.109  0.4550 -0.4025  0.0700
  136MOL0     C18262   8.047   8.414   4.078  0.4230  0.2199 -0.4224
  136MOL0     C18263   7.914   8.372   4.141  0.1366  0.3684 -0.1260
  136MOL0     C18264   7.837   8.256   4.076  0.5368  0.2275  0.1730
  136MOL0     C18265   7.718   8.213   4.165 -1.5825 -0.4005 -1.1124
  136MOL0     C18266   7.670   8.079   4.115  0.6988  0.0383 -0.1062
  136MOL0     C18267   7.540   8.044   4.188 -1.3849  0.2442 -0.7962
  136MOL0     C18268   7.482   7.918   4.137  0.5567  0.8297 -0.5298
  136MOL0     C18269   7.569   7.793   4.152 -0.1825 -0.4224 -0.0762
  136MOL0    Cl18270   7.575   7.740   4.324 -0.3893  0.1013 -0.2142
  136MOL0     C18271   8.326   8.444   3.991 -0.5233  0.6872 -0.2595
  136MOL0     C18272   8.466   8.468   3.978  0.8231  0.0300  0.1441
  136MOL0     O18273   8.790   8.313   4.188 -0.8774 -1.0162  0.0915
  136MOL0     C18274   8.942   8.471   3.893  0.4144  0.2131  0.1710
  136MOL0     C18275   9.064   8.518   3.835  0.8518  0.0657  0.1581
  136MOL0     N18276   9.795   8.423   3.446 -0.9166  0.2506 -0.2635
  136MOL0     N18277   9.921   8.457   3.464 -0.3580 -0.2262  0.4252
  136MOL0     C18278  11.088   8.572   3.390  0.3845  0.2060 -0.3931
  136MOL0     C18279  11.215   8.505   3.395  0.5025 -0.0767  0.6539
  136MOL0     C18280  11.582   8.305   3.512 -0.1896  0.4299 -0.6408
  136MOL0     C18281  11.593   8.191   3.604 -0.0796  0.2085 -0.2279
  136MOL0     C18282  11.722   8.144   3.622 -0.0906 -0.1968 -0.8159
  136MOL0     C18283  11.831   8.202   3.560 -0.6742  0.3640  0.3482
  136MOL0     O18284  11.951   8.150   3.609 -0.2481 -0.2816 -0.3018
  136MOL0     C18285  12.073   8.189   3.543  0.2295  0.0022 -0.3255
  136MOL0     C18286  12.193   8.095   3.572  0.9090  0.6291 -0.8772
  136MOL0     C18287  12.309   8.155   3.503 -0.1176 -0.5022  0.8714
  136MOL0     C18288  12.449   8.089   3.520  0.5904 -0.3106  0.4317
  136MOL0     C18289  12.491   8.083   3.663 -0.2510  0.8310 -0.3778
  136MOL0     C18290  12.519   8.057   3.781  0.1478 -0.2515  0.4619
  136MOL0     C18291  11.826   8.305   3.466 -0.1742  0.2133 -0.3520
  136MOL0     C18292  11.695   8.362   3.449  0.0329  0.1543  0.0606
  136MOL0     H18293  11.409   8.777   3.453 -1.4417 -0.0626  0.3797
  136MOL0     H18294  11.206   8.884   3.427 -0.8638  0.1065  1.6647
  136MOL0     H18295  10.830   8.656   3.316  0.0934  1.0054 -0.6116
  136MOL0     H18296  10.837   8.666   3.492  1.3566 -2.7610 -1.4942
  136MOL0     H18297  10.736   8.873   3.509  0.5922 -0.1212  0.3549
  136MOL0     H18298  10.775   8.913   3.346  1.2304  0.9087  1.4398
  136MOL0     H18299  10.558   8.834   3.263  1.2051 -0.1097 -0.4986
  136MOL0     H18300  10.591   8.676   3.331  0.3573 -0.0881  0.1078
  136MOL0     H18301  10.515   8.755   3.545  1.4557 -2.0005 -1.6611
  136MOL0     H18302  10.486   8.918   3.469  1.9404 -1.0274  1.2324
  136MOL0     H18303  10.313   8.806   3.326  1.7511  0.8499  0.1701
  136MOL0     H18304  10.356   8.648   3.368 -2.6415 -0.0178 -1.1315
  136MOL0     H18305  10.308   8.679   3.618 -0.1598  1.4229  0.5342
  136MOL0     H18306  10.251   8.838   3.564  0.0548 -0.0217 -1.0622
  136MOL0     H18307  10.074   8.741   3.421 -0.0106 -2.5318 -2.5085
  136MOL0     H18308  10.144   8.580   3.419 -1.1828  0.1455 -0.8658
  136MOL0     H18309  10.006   8.719   3.660 -0.6153  0.1373 -0.4900
  136MOL0     H18310  10.105   8.572   3.677 -1.6926 -1.3902  0.5375
  136MOL0     H18311   9.775   8.671   3.659  0.7211 -0.5931  0.6139
  136MOL0     H18312   9.523   8.608   3.489 -1.2204  0.3582  0.8852
  136MOL0     H18313   9.521   8.459   3.430  0.6858  0.0564  1.1097
  136MOL0     H18314   9.513   8.357   3.654 -1.2253  0.6301  0.6264
  136MOL0     H18315   9.378   8.456   3.630  0.0069 -0.5116 -0.0992
  136MOL0     H18316   9.529   8.649   3.761 -3.6615  1.0360  2.6965
  136MOL0     H18317   9.620   8.518   3.819  0.5949  3.7478 -0.4167
  136MOL0     H18318   9.448   8.544   3.985 -2.1064 -0.1385  0.4413
  136MOL0     H18319   9.421   8.399   3.901 -0.8696 -0.6746 -3.1498
  136MOL0     H18320   9.267   8.440   4.109 -0.8282  0.4365  1.3398
  136MOL0     H18321   9.053   8.257   4.242  3.6604 -0.4285  0.2351
  136MOL0     H18322   9.151   8.395   4.295 -0.3618  1.8181 -0.6713
  136MOL0     H18323   8.981   8.412   4.310 -0.7709  3.1751 -1.2661
  136MOL0     H18324   8.575   8.201   4.169 -1.2699  1.8186  1.1738
  136MOL0     H18325   8.347   8.184   4.206 -1.8007 -0.0152  0.3928
  136MOL0     H18326   8.078   8.514   4.109  3.6769 -1.0195  0.8707
  136MOL0     H18327   8.020   8.406   3.973 -2.5514 -3.3715  0.3699
  136MOL0     H18328   7.936   8.345   4.244 -0.4269  2.2980  0.5508
  136MOL0     H18329   7.855   8.465   4.140 -0.6540 -0.1221 -0.2993
  136MOL0     H18330   7.918   8.183   4.068 -0.1050 -0.4223 -0.4795
  136MOL0     H18331   7.807   8.293   3.978 -0.2717  1.3917  0.8370
  136MOL0     H18332   7.746   8.214   4.271 -0.6241  2.2754 -1.3082
  136MOL0     H18333   7.638   8.288   4.165  0.1281  1.6862  2.1792
  136MOL0     H18334   7.751   8.007   4.130 -0.7857 -1.2800  2.2946
  136MOL0     H18335   7.656   8.079   4.007 -0.6766 -0.2317  0.0590
  136MOL0     H18336   7.569   8.030   4.292  0.0786 -2.1507 -1.4374
  136MOL0     H18337   7.462   8.120   4.192 -1.1626  0.5221 -1.4710
  136MOL0     H18338   7.446   7.926   4.034  0.8444 -0.6000 -0.7591
  136MOL0     H18339   7.391   7.905   4.197  1.0718  3.1755  0.9015
  136MOL0     H18340   7.669   7.809   4.109  0.0677  1.8992  1.2021
  136MOL0     H18341   7.530   7.713   4.088 -0.9436  0.0888 -0.2703
  136MOL0     H18342   8.257   8.501   3.930  0.2304  0.6372 -1.1890
  136MOL0     H18343   8.486   8.535   3.895 -2.3839 -1.1435 -1.7279
  136MOL0     H18344   8.847   8.477   3.841 -0.6131 -0.5801  1.8592
  136MOL0     H18345   9.073   8.560   3.735  1.8763  0.1134  0.2646
  136MOL0     H18346  10.997   8.520   3.362 -1.2823  1.8298  1.7299
  136MOL0     H18347  11.215   8.400   3.369  0.9659  0.0689  0.0466
  136MOL0     H18348  11.505   8.152   3.654  0.2314 -0.5985 -0.2972
  136MOL0     H18349  11.745   8.053   3.676  1.3792  0.1173 -0.8705
  136MOL0     H18350  12.062   8.183   3.434  0.1561 -0.9718 -0.2718
  136MOL0     H18351  12.091   8.294   3.568 -0.8125 -0.2544  1.7239
  136MOL0     H18352  12.176   7.996   3.530  0.8149  0.1973  0.1580
  136MOL0     H18353  12.215   8.097   3.679  0.7804  1.3664 -0.8535
  136MOL0     H18354  12.315   8.258   3.539 -2.3420 -0.7404  2.1077
  136MOL0     H18355  12.294   8.168   3.396 -0.3049  1.2468  1.0784
  136MOL0     H18356  12.533   8.126   3.461  0.3814 -2.0204 -1.0177
  136MOL0     H18357  12.442   7.986   3.486  2.5792 -1.1129  2.2030
  136MOL0     H18358  12.545   8.039   3.883 -0.1413  1.3695  0.8506
  136MOL0     H18359  11.910   8.350   3.414  1.2418 -2.4343 -0.5182
  136MOL0     H18360  11.684   8.450   3.386  2.2311 -0.6739 -1.6092
  137MOL0     O18361   2.327   1.885   8.018  0.0452  0.1956 -0.9636
  137MOL0     C18362   2.424   1.967   8.009 -0.4516  0.1307  0.1235
  137MOL0     O18363   2.449   2.052   7.903 -0.5466  0.1783 -0.8997
  137MOL0     C18364   2.374   2.034   7.788 -0.8904 -0.6346  1.0973
  137MOL0     C18365   2.389   1.923   7.711  0.5378  1.0148  0.0494
  137MOL0     C18366   2.325   1.911   7.588 -0.4549  0.9837 -0.6454
  137MOL0     C18367   2.254   2.016   7.539 -0.1798  0.3177  0.4784
  137MOL0     O18368   2.181   2.008   7.420  0.7245 -0.1630  0.5355
  137MOL0     C18369   2.145   1.881   7.359 -0.2470 -0.1308  0.0484
  137MOL0     C18370   2.013   1.890   7.278 -0.3814 -0.5852  0.2657
  137MOL0     C18371   1.929   1.763   7.270 -0.2253 -0.3923 -0.3167
  137MOL0     C18372   1.838   1.755   7.392  0.7250  0.6736  0.5288
  137MOL0     C18373   1.749   1.637   7.385 -0.5618  0.1391 -0.2015
  137MOL0     C18374   1.664   1.630   7.512 -0.1963  0.7797 -0.8914
  137MOL0     C18375   1.595   1.491   7.522 -0.6338  0.7573  0.4984
  137MOL0     C18376   1.521   1.467   7.657 -0.1942  0.4262 -0.3647
  137MOL0     N18377   1.408   1.554   7.646 -0.2924 -0.4419 -0.6274
  137MOL0     C18378   1.405   1.685   7.691 -1.0702 -0.7726  0.0594
  137MOL0     C18379   1.283   1.721   7.686  0.0183  0.5188  0.9945
  137MOL0     C18380   1.235   1.853   7.734  0.3899 -0.6804 -0.0221
  137MOL0     C18381   1.133   1.922   7.647 -0.5039  0.1090  0.1739
  137MOL0     C18382   1.073   2.054   7.701  0.1547 -0.2566  0.4877
  137MOL0     C18383   0.970   2.118   7.620  0.3609  0.4272  0.7409
  137MOL0     O18384   0.851   2.037   7.605  0.2824  0.4691  0.3701
  137MOL0     C18385   0.739   2.115   7.589 -0.1246 -0.3037 -0.9742
  137MOL0     C18386   0.665   2.156   7.703 -0.2546 -0.0106 -0.8291
  137MOL0     C18387   0.542   2.211   7.694  0.6128 -0.5629 -0.2509
  137MOL0     C18388   0.481   2.262   7.827  0.0485 -0.1695 -0.2047
  137MOL0     C18389   0.498   2.243   7.563 -0.7030 -0.9681 -0.4866
  137MOL0     C18390   0.368   2.316   7.544  0.1494  0.2433 -1.2399
  137MOL0     O18391   0.313   2.339   7.423 -0.1008  0.2307 -0.7292
  137MOL0     C18392   0.187   2.383   7.408  0.1016  0.4364  1.0313
  137MOL0     C18393   0.076   2.316   7.460  0.3608  0.0375 -0.5484
  137MOL0     C18394  -0.051   2.360   7.442  0.0394  0.0531 -0.9713
  137MOL0     C18395  -0.079   2.489   7.392  0.4216 -0.0917  0.3538
  137MOL0     O18396  -0.203   2.544   7.395  0.0069  0.0538 -0.5699
  137MOL0     C18397  -0.309   2.469   7.456  0.6783  0.6247  0.0533
  137MOL0     C18398  -0.446   2.542   7.465 -0.0444 -0.1530 -0.3295
  137MOL0     C18399  -0.567   2.457   7.474 -0.2290  0.2412 -0.3935
  137MOL0     C18400  -0.694   2.548   7.473  0.7420 -0.3109  0.4961
  137MOL0     C18401  -0.810   2.461   7.520 -0.4025 -0.0312  0.5706
  137MOL0     C18402  -0.937   2.533   7.559  0.3211 -0.7517 -0.2407
  137MOL0     C18403  -0.938   2.573   7.706 -0.2626 -0.5522 -0.2668
  137MOL0     C18404  -1.052   2.666   7.736 -1.3526  0.6302  0.1337
  137MOL0    Cl18405  -1.214   2.595   7.674  0.0236  0.3381  0.1921
  137MOL0     C18406   0.028   2.566   7.349 -0.0910 -0.1824  0.5885
  137MOL0     C18407   0.157   2.513   7.360 -0.0733  0.0616  0.5739
  137MOL0     O18408   0.309   2.360   7.644  0.1196 -0.7961 -0.0847
  137MOL0     C18409   0.571   2.199   7.452  0.2001  0.0591  0.3617
  137MOL0     C18410   0.695   2.149   7.461 -1.1460  0.1224 -0.9962
  137MOL0     N18411   1.207   1.622   7.639 -0.6279 -0.1812  0.3441
  137MOL0     N18412   1.283   1.519   7.614 -0.4969  0.3010 -0.1131
  137MOL0     C18413   2.243   2.137   7.611 -0.8712  0.1525 -0.1611
  137MOL0     C18414   2.297   2.140   7.740 -1.0976 -0.0249  0.9418
  137MOL0     C18415   2.503   1.993   8.131 -0.1450 -0.5281 -0.7240
  137MOL0     C18416   2.622   2.072   8.121  0.6067  0.3862  0.4277
  137MOL0     C18417   2.711   2.088   8.233 -0.5606 -0.6378 -0.1619
  137MOL0     C18418   2.676   2.029   8.364  0.5979 -1.3081 -0.3453
  137MOL0     O18419   2.745   2.046   8.476  0.1251  0.0714  0.2611
  137MOL0     C18420   2.884   2.096   8.482 -0.0524 -0.4097  0.1546
  137MOL0     C18421   2.868   2.250   8.493 -0.5453 -0.2825 -0.6337
  137MOL0     C18422   2.994   2.338   8.492 -0.4259  0.0907 -0.8647
  137MOL0     C18423   2.982   2.480   8.528 -0.0348 -0.1353 -0.1307
  137MOL0     C18424   2.935   2.498   8.666 -0.1424  0.5466 -0.2946
  137MOL0     C18425   2.892   2.526   8.778  0.1280 -0.4936 -0.0558
  137MOL0     C18426   2.554   1.962   8.369  0.1741 -0.9623  0.3129
  137MOL0     C18427   2.469   1.951   8.252 -0.7094 -0.1091  0.3273
  137MOL0     H18428   2.435   1.838   7.761 -0.6430  2.2302  3.4910
  137MOL0     H18429   2.355   1.832   7.520  2.2149 -0.7117  2.2408
  137MOL0     H18430   2.232   1.845   7.303  0.7663 -0.3924  1.7242
  137MOL0     H18431   2.132   1.809   7.440 -1.3258 -1.0555 -0.9200
  137MOL0     H18432   1.957   1.973   7.321  1.3900  1.2198 -0.7131
  137MOL0     H18433   2.028   1.929   7.176  1.5683  3.4533  1.8732
  137MOL0     H18434   1.874   1.788   7.179  0.9527 -0.7199 -1.1380
  137MOL0     H18435   1.988   1.674   7.247  0.1791 -0.8139  2.0476
  137MOL0     H18436   1.900   1.740   7.481  2.2098 -1.0827 -0.7431
  137MOL0     H18437   1.776   1.844   7.409 -2.2842 -1.5998  2.6091
  137MOL0     H18438   1.680   1.653   7.302  0.9407 -0.4301 -1.6163
  137MOL0     H18439   1.802   1.544   7.365  1.2750  0.5792  2.1290
  137MOL0     H18440   1.726   1.647   7.600 -1.2237 -0.1398  0.0417
  137MOL0     H18441   1.596   1.716   7.508 -0.6168  0.4502 -0.9106
  137MOL0     H18442   1.525   1.485   7.438 -0.0154  1.8352 -0.1196
  137MOL0     H18443   1.673   1.418   7.501 -1.5436  0.4018 -1.9805
  137MOL0     H18444   1.586   1.487   7.742  0.9569  0.8464 -1.3123
  137MOL0     H18445   1.486   1.364   7.664 -1.8754  0.9788 -0.2064
  137MOL0     H18446   1.492   1.738   7.730 -1.6149 -0.4633  0.8654
  137MOL0     H18447   1.196   1.843   7.835  2.5009  1.3661  1.1042
  137MOL0     H18448   1.323   1.918   7.739  0.8047 -1.2074 -0.2438
  137MOL0     H18449   1.049   1.853   7.632  0.3176 -1.3890  2.0220
  137MOL0     H18450   1.181   1.927   7.548 -2.1853 -2.0218 -0.8525
  137MOL0     H18451   1.156   2.126   7.704  1.6425 -1.6566 -2.5652
  137MOL0     H18452   1.036   2.043   7.803  1.7954 -1.0565  1.0197
  137MOL0     H18453   1.013   2.132   7.520 -2.4889  0.2444 -0.6383
  137MOL0     H18454   0.940   2.220   7.646 -0.9734 -0.3831  2.6292
  137MOL0     H18455   0.710   2.120   7.794  0.4429 -0.6280 -1.4057
  137MOL0     H18456   0.547   2.244   7.912  0.8058 -1.1920 -0.9725
  137MOL0     H18457   0.454   2.368   7.822  0.9998  0.3111  2.7658
  137MOL0     H18458   0.393   2.200   7.842  1.4637 -2.2408  0.0237
  137MOL0     H18459   0.085   2.219   7.508 -1.0727 -0.2844 -0.8983
  137MOL0     H18460  -0.130   2.299   7.483  0.1393  0.9768  0.6941
  137MOL0     H18461  -0.325   2.377   7.399  0.2162 -0.7214  2.2528
  137MOL0     H18462  -0.279   2.450   7.559  2.4027  2.0531 -0.1427
  137MOL0     H18463  -0.465   2.600   7.556  3.1133  0.9336 -0.2373
  137MOL0     H18464  -0.453   2.604   7.374  2.0009  0.6361  0.0101
  137MOL0     H18465  -0.560   2.409   7.572 -1.9726  2.9060  1.1711
  137MOL0     H18466  -0.576   2.387   7.391 -1.0965  1.0295 -0.9885
  137MOL0     H18467  -0.691   2.626   7.549  0.5400 -2.2647  2.6449
  137MOL0     H18468  -0.705   2.606   7.381  0.4892  0.6913  1.1396
  137MOL0     H18469  -0.772   2.407   7.608 -3.0169  2.3079  3.3782
  137MOL0     H18470  -0.829   2.391   7.439 -1.4545 -0.2573  1.0049
  137MOL0     H18471  -0.953   2.620   7.495 -0.5476 -0.1138  0.8020
  137MOL0     H18472  -1.007   2.454   7.533  2.8838 -3.6928  1.1349
  137MOL0     H18473  -0.844   2.620   7.737 -0.8145 -0.5902  1.5831
  137MOL0     H18474  -0.956   2.478   7.758 -0.1004  0.1904  1.2125
  137MOL0     H18475  -1.050   2.764   7.688 -0.4576  1.3696  1.5949
  137MOL0     H18476  -1.048   2.683   7.844  3.2695  1.6333  0.0387
  137MOL0     H18477   0.007   2.667   7.317 -2.5336 -0.2277  1.8975
  137MOL0     H18478   0.249   2.557   7.325  0.8857  1.3607  4.3086
  137MOL0     H18479   0.524   2.219   7.357 -1.6613 -0.5091  1.1115
  137MOL0     H18480   0.762   2.113   7.383  1.8489 -0.1047  1.4669
  137MOL0     H18481   2.195   2.226   7.573 -0.5742  0.3597 -0.0578
  137MOL0     H18482   2.283   2.224   7.806 -1.5306  0.3771  0.3463
  137MOL0     H18483   2.654   2.117   8.027  0.7932 -1.1367 -0.2741
  137MOL0     H18484   2.803   2.145   8.230  0.6654 -2.6070 -1.5751
  137MOL0     H18485   2.941   2.055   8.566 -0.0661  1.4921  1.1414
  137MOL0     H18486   2.940   2.072   8.391 -1.1869 -1.1677 -0.3625
  137MOL0     H18487   2.814   2.275   8.585 -0.5081  1.2671 -1.0067
  137MOL0     H18488   2.813   2.273   8.401  2.2479 -2.9549 -3.2040
  137MOL0     H18489   3.035   2.329   8.391  0.9496 -0.8193 -0.2598
  137MOL0     H18490   3.066   2.284   8.555 -1.8668 -0.7177  0.1604
  137MOL0     H18491   2.908   2.520   8.458 -2.1043  0.7333  2.4055
  137MOL0     H18492   3.074   2.537   8.512 -0.0154 -0.7619 -2.7070
  137MOL0     H18493   2.856   2.536   8.879  0.0162  0.2526 -0.1635
  137MOL0     H18494   2.519   1.923   8.465 -2.5803 -1.2528 -0.7255
  137MOL0     H18495   2.368   1.915   8.267 -1.0719  0.0745 -1.4458
  138MOL0     O18496   9.320   2.044   4.715 -0.2610  0.0056 -1.1469
  138MOL0     C18497   9.352   2.009   4.829  0.1946  0.3187 -0.5347
  138MOL0     O18498   9.272   1.958   4.928  0.0085 -0.1327  0.0654
  138MOL0     C18499   9.143   1.924   4.918  0.0683  0.6813  0.2101
  138MOL0     C18500   9.054   1.952   4.813  0.1597  0.2366  0.4142
  138MOL0     C18501   8.924   1.913   4.821  0.1391 -0.1622  0.4254
  138MOL0     C18502   8.879   1.829   4.933 -1.0810  0.1591  0.1174
  138MOL0     O18503   8.764   1.767   4.927 -0.4498  0.5536 -0.2750
  138MOL0     C18504   8.695   1.751   4.804  0.5805 -0.8595 -0.3842
  138MOL0     C18505   8.628   1.614   4.812  0.6057  0.3766 -0.7463
  138MOL0     C18506   8.486   1.645   4.868 -0.1897  0.5028  0.5376
  138MOL0     C18507   8.398   1.530   4.844 -0.4323 -0.0275 -0.1106
  138MOL0     C18508   8.277   1.553   4.921 -1.0178  0.6394  0.7375
  138MOL0     C18509   8.160   1.607   4.839 -0.7777 -0.3891 -0.3162
  138MOL0     C18510   8.038   1.656   4.931  0.2003 -0.2970 -0.2010
  138MOL0     C18511   7.917   1.682   4.834  0.1218 -0.0877 -0.1678
  138MOL0     N18512   7.811   1.745   4.912 -0.2578  0.0941 -0.0971
  138MOL0     C18513   7.718   1.835   4.866 -0.9720 -0.5197 -0.6709
  138MOL0     C18514   7.643   1.867   4.979 -0.6284 -0.0811  0.4085
  138MOL0     C18515   7.513   1.940   4.976  0.2842 -0.2017  0.3179
  138MOL0     C18516   7.514   2.052   5.084 -0.0637 -0.2236  0.0653
  138MOL0     C18517   7.443   2.004   5.212 -0.2427 -1.0697 -0.3267
  138MOL0     C18518   7.479   2.085   5.342 -0.1652 -0.4367  0.9928
  138MOL0     O18519   7.473   2.226   5.327  0.4666  0.4638 -0.1280
  138MOL0     C18520   7.353   2.286   5.302  0.6952 -0.0016 -0.5617
  138MOL0     C18521   7.372   2.412   5.249 -0.5743 -0.9177 -0.3149
  138MOL0     C18522   7.264   2.482   5.206 -1.1126  0.2786 -1.0218
  138MOL0     C18523   7.293   2.596   5.114 -1.2822 -0.0051  0.7549
  138MOL0     C18524   7.131   2.450   5.243 -0.1161  0.2157  1.0727
  138MOL0     C18525   7.010   2.533   5.200 -0.0339  0.4860  0.1278
  138MOL0     O18526   6.913   2.467   5.138  0.4563 -0.1387 -0.4369
  138MOL0     C18527   6.787   2.517   5.138 -0.0118 -0.9037 -1.0448
  138MOL0     C18528   6.748   2.651   5.116 -0.5284 -0.0961  0.2932
  138MOL0     C18529   6.624   2.705   5.138 -0.4592  0.6428 -0.6801
  138MOL0     C18530   6.517   2.620   5.180  0.5854 -0.2258  0.0370
  138MOL0     O18531   6.387   2.641   5.190  0.6773 -0.3905 -0.7416
  138MOL0     C18532   6.340   2.706   5.073  0.0371 -0.7436  0.2949
  138MOL0     C18533   6.188   2.709   5.078 -0.0243 -1.0307  0.2334
  138MOL0     C18534   6.118   2.619   4.979  0.4434  1.0499  0.2813
  138MOL0     C18535   5.976   2.597   5.023  0.1785  0.4159  0.1589
  138MOL0     C18536   5.918   2.487   4.933 -1.0448 -0.3280 -0.2245
  138MOL0     C18537   5.769   2.464   4.950  0.2685 -0.1127  0.2847
  138MOL0     C18538   5.680   2.572   4.882 -0.0787 -0.2478 -0.0823
  138MOL0     C18539   5.689   2.581   4.730 -0.5656  0.6946  0.0396
  138MOL0    Cl18540   5.566   2.714   4.681  0.1479 -0.3610 -0.1909
  138MOL0     C18541   6.554   2.481   5.191  0.0547  0.7769 -0.8713
  138MOL0     C18542   6.684   2.434   5.174  0.3231 -0.5691  0.6597
  138MOL0     O18543   7.013   2.653   5.219 -0.5478  0.1542 -0.6086
  138MOL0     C18544   7.113   2.329   5.313  0.3184 -0.4816 -0.8533
  138MOL0     C18545   7.222   2.239   5.340 -0.1528 -0.2564  0.3476
  138MOL0     N18546   7.689   1.800   5.090 -0.5121  0.0237 -0.6199
  138MOL0     N18547   7.786   1.726   5.045 -0.3512  0.4365  0.2809
  138MOL0     C18548   8.968   1.813   5.043 -0.0084 -0.1327  1.0002
  138MOL0     C18549   9.093   1.859   5.034 -0.0178 -0.6930  0.8621
  138MOL0     C18550   9.496   2.024   4.872  0.2539 -0.1063  0.2705
  138MOL0     C18551   9.554   1.954   4.980  0.4602 -0.9039 -1.1802
  138MOL0     C18552   9.690   1.957   5.003  0.0048 -0.0052  0.2061
  138MOL0     C18553   9.775   2.031   4.921  0.5552  0.3517 -0.2685
  138MOL0     O18554   9.907   2.047   4.933  0.6687  0.1036  0.0669
  138MOL0     C18555   9.981   1.966   5.027 -0.4036 -0.1070  0.1133
  138MOL0     C18556  10.023   1.833   4.970 -0.8200  0.2421  0.2363
  138MOL0     C18557  10.137   1.782   5.062  0.3996  0.0173  0.1580
  138MOL0     C18558  10.200   1.647   5.015  0.1914  0.0480 -0.5233
  138MOL0     C18559  10.269   1.658   4.882 -0.4977 -0.0762 -0.2004
  138MOL0     C18560  10.319   1.648   4.773 -0.5116 -0.0813 -0.4305
  138MOL0     C18561   9.719   2.095   4.811 -0.2458  0.7837  0.0771
  138MOL0     C18562   9.583   2.089   4.787 -0.8485 -0.1641  1.4924
  138MOL0     H18563   9.102   2.009   4.734  2.1784  0.7815  1.9318
  138MOL0     H18564   8.855   1.936   4.740 -1.0703 -3.6856  0.2728
  138MOL0     H18565   8.629   1.838   4.802  1.9080  0.1820 -0.2367
  138MOL0     H18566   8.766   1.746   4.720  2.2165 -0.6095  0.9186
  138MOL0     H18567   8.616   1.566   4.714 -0.6979  3.0863 -2.0331
  138MOL0     H18568   8.675   1.546   4.884  0.5145 -1.7949 -2.6227
  138MOL0     H18569   8.490   1.665   4.976 -0.2244 -3.0230  1.3131
  138MOL0     H18570   8.443   1.729   4.813  1.4635  1.8636  1.2324
  138MOL0     H18571   8.390   1.508   4.737 -0.0745  1.2672 -0.4273
  138MOL0     H18572   8.449   1.445   4.890  1.7668  1.3406  0.1332
  138MOL0     H18573   8.245   1.457   4.963 -0.8899 -0.2043 -1.0214
  138MOL0     H18574   8.293   1.621   5.006  3.3270 -1.1017  1.5767
  138MOL0     H18575   8.187   1.693   4.777  1.6871 -0.5193  0.4810
  138MOL0     H18576   8.135   1.526   4.770  4.1884 -1.8728 -0.7706
  138MOL0     H18577   8.017   1.575   5.002  2.0718  0.5928  1.4622
  138MOL0     H18578   8.064   1.749   4.983  0.1402  0.6545 -1.8140
  138MOL0     H18579   7.876   1.586   4.802  0.0058  0.3169 -1.2579
  138MOL0     H18580   7.954   1.744   4.752  2.0722 -0.8598  0.0777
  138MOL0     H18581   7.700   1.869   4.765 -1.9231 -1.4037 -0.8264
  138MOL0     H18582   7.507   1.978   4.874  0.1956 -1.7779 -0.2903
  138MOL0     H18583   7.433   1.866   4.983  1.9467 -2.0998  0.1427
  138MOL0     H18584   7.454   2.140   5.058 -0.8578 -0.4111  1.1923
  138MOL0     H18585   7.619   2.077   5.101  0.1381 -1.5189  0.8640
  138MOL0     H18586   7.474   1.901   5.233  0.5565 -0.7337  0.1826
  138MOL0     H18587   7.334   2.002   5.200 -0.6411  0.7494  2.1178
  138MOL0     H18588   7.583   2.062   5.366 -0.1515 -3.4250 -1.2488
  138MOL0     H18589   7.414   2.056   5.426 -1.1388  0.0259  0.4221
  138MOL0     H18590   7.474   2.445   5.231  0.4375 -1.1698  3.8624
  138MOL0     H18591   7.235   2.594   5.021 -1.3144 -4.0040  0.6864
  138MOL0     H18592   7.261   2.688   5.163  0.1261  1.0151 -0.1426
  138MOL0     H18593   7.400   2.611   5.093 -1.1235 -0.2237  1.3851
  138MOL0     H18594   6.829   2.723   5.101 -0.7627  0.6138  2.1754
  138MOL0     H18595   6.606   2.812   5.136 -2.2315  0.5529  2.7608
  138MOL0     H18596   6.376   2.809   5.070 -0.5395 -0.5375 -2.0419
  138MOL0     H18597   6.372   2.657   4.980  0.6340 -2.3702  1.3199
  138MOL0     H18598   6.145   2.679   5.174 -2.7112  1.6978  0.0234
  138MOL0     H18599   6.152   2.812   5.067 -2.4368 -1.5563  2.3136
  138MOL0     H18600   6.173   2.525   4.973 -2.8072 -0.8947 -2.1412
  138MOL0     H18601   6.120   2.659   4.877 -0.4887 -2.0466 -1.0535
  138MOL0     H18602   5.977   2.555   5.124 -1.2820  0.0254  0.0437
  138MOL0     H18603   5.916   2.688   5.023 -1.5144 -0.5055 -3.4291
  138MOL0     H18604   5.964   2.390   4.957  0.4538  0.2306 -0.6852
  138MOL0     H18605   5.939   2.491   4.825  1.4201 -1.2735  0.1355
  138MOL0     H18606   5.746   2.366   4.906  1.1689  0.1458 -0.7947
  138MOL0     H18607   5.750   2.453   5.057  0.6035  4.9253  1.1145
  138MOL0     H18608   5.704   2.665   4.934 -2.7795 -1.2717  3.3238
  138MOL0     H18609   5.578   2.545   4.912  1.3272 -3.5367  2.3144
  138MOL0     H18610   5.684   2.480   4.689  1.7006 -0.5511  2.5346
  138MOL0     H18611   5.787   2.614   4.694 -0.8748 -0.1379 -1.6816
  138MOL0     H18612   6.486   2.399   5.212 -0.3090  1.7092  1.8996
  138MOL0     H18613   6.690   2.331   5.206  0.2811  0.1440  3.1305
  138MOL0     H18614   7.016   2.294   5.346  0.7092  0.3468  1.3434
  138MOL0     H18615   7.200   2.146   5.390  1.5533  0.0599  1.7940
  138MOL0     H18616   8.933   1.754   5.127  1.5352 -3.2123 -0.3513
  138MOL0     H18617   9.151   1.842   5.125  1.4014  0.1617  0.1510
  138MOL0     H18618   9.500   1.888   5.047  1.2021  2.4667  3.2185
  138MOL0     H18619   9.738   1.901   5.083  1.6182 -2.7465 -2.4253
  138MOL0     H18620  10.070   2.029   5.029 -0.3464  0.3684 -4.7212
  138MOL0     H18621   9.941   1.963   5.128  0.1305  1.9983  0.4198
  138MOL0     H18622  10.063   1.841   4.869  0.6746  0.2619  0.8049
  138MOL0     H18623   9.950   1.751   4.977  0.0525 -0.3799  3.8862
  138MOL0     H18624  10.097   1.766   5.163 -4.3544  2.7902 -1.0154
  138MOL0     H18625  10.220   1.853   5.073  1.0391 -0.6842 -0.0001
  138MOL0     H18626  10.116   1.579   5.001  0.6092 -0.4772 -0.5088
  138MOL0     H18627  10.270   1.618   5.093 -1.0163 -0.6005  0.3570
  138MOL0     H18628  10.361   1.637   4.675  1.9421 -0.1585  0.5635
  138MOL0     H18629   9.783   2.164   4.757  0.1719 -0.4951 -1.1433
  138MOL0     H18630   9.546   2.131   4.694  2.3688  0.6242  0.4254
  139MOL0     O18631   6.550   7.831   5.831 -0.3924 -0.1295  0.6171
  139MOL0     C18632   6.517   7.949   5.860 -0.1855 -0.1799  1.4922
  139MOL0     O18633   6.401   7.989   5.926  0.0738 -0.2086  0.7598
  139MOL0     C18634   6.290   7.907   5.919  0.1049  0.1627 -0.3623
  139MOL0     C18635   6.188   7.927   6.016 -0.2859 -0.2278 -0.1552
  139MOL0     C18636   6.059   7.869   6.015 -0.0561  0.3966 -0.7927
  139MOL0     C18637   6.041   7.765   5.925 -1.2482 -0.5015 -0.4601
  139MOL0     O18638   5.933   7.685   5.913  0.8332  0.4525 -0.1555
  139MOL0     C18639   5.795   7.736   5.933 -0.7225 -0.4502  0.2843
  139MOL0     C18640   5.694   7.623   5.920 -0.3298 -0.0926  0.6981
  139MOL0     C18641   5.696   7.545   5.788 -0.6702 -0.7284  0.1209
  139MOL0     C18642   5.621   7.416   5.809  0.2510  0.5758 -0.5959
  139MOL0     C18643   5.639   7.319   5.691 -0.3552 -0.4197 -0.1279
  139MOL0     C18644   5.777   7.261   5.664  0.5901  0.0704  0.5235
  139MOL0     C18645   5.848   7.302   5.532  0.0432  0.0274 -0.4296
  139MOL0     C18646   5.985   7.233   5.495 -0.3329 -0.0961  0.0384
  139MOL0     N18647   6.006   7.236   5.351  0.3861  0.0463 -0.4299
  139MOL0     C18648   6.090   7.320   5.274  0.0015 -0.0003  0.4108
  139MOL0     C18649   6.093   7.275   5.149 -0.4009  0.0380 -0.3562
  139MOL0     C18650   6.155   7.352   5.043 -0.0579 -0.2170  1.1210
  139MOL0     C18651   6.281   7.430   5.066  0.0352 -0.3166  0.4920
  139MOL0     C18652   6.343   7.472   4.924  0.0680  0.4905 -0.2634
  139MOL0     C18653   6.483   7.534   4.928  0.1501 -0.7592  0.3581
  139MOL0     O18654   6.474   7.661   4.985  0.2267 -0.5081  0.5013
  139MOL0     C18655   6.465   7.774   4.908 -1.0658  0.0667 -0.2660
  139MOL0     C18656   6.496   7.902   4.971  0.7760  0.5532  0.2068
  139MOL0     C18657   6.509   8.016   4.897  0.4777 -0.2790  0.9796
  139MOL0     C18658   6.561   8.143   4.961  0.9237 -0.1880 -0.5877
  139MOL0     C18659   6.479   8.017   4.756 -0.3421  0.3080 -0.1066
  139MOL0     C18660   6.487   8.133   4.664  0.2368 -0.3451 -0.0528
  139MOL0     O18661   6.523   8.098   4.539  0.5987  0.0506  0.7125
  139MOL0     C18662   6.519   8.195   4.446 -0.8066 -0.1582  0.1011
  139MOL0     C18663   6.631   8.269   4.433 -0.2499 -0.4472  0.3718
  139MOL0     C18664   6.639   8.362   4.326 -0.4933  0.5764  0.6645
  139MOL0     C18665   6.526   8.381   4.239  0.0064 -0.4464 -0.2686
  139MOL0     O18666   6.536   8.470   4.135 -0.1595  0.6013 -0.4105
  139MOL0     C18667   6.430   8.478   4.034  0.4801 -0.4094  0.9181
  139MOL0     C18668   6.438   8.364   3.931 -0.1353 -0.1379 -0.1179
  139MOL0     C18669   6.331   8.365   3.821  0.5156  0.2749 -0.2304
  139MOL0     C18670   6.350   8.265   3.705  0.3791  0.5348  0.7601
  139MOL0     C18671   6.250   8.262   3.593 -0.1202  0.1083  0.6116
  139MOL0     C18672   6.106   8.224   3.637  0.5464 -0.2828 -0.4159
  139MOL0     C18673   6.009   8.260   3.524  0.5090  0.2948 -0.3160
  139MOL0     C18674   5.967   8.407   3.522 -0.6383 -0.3609 -0.2202
  139MOL0    Cl18675   5.878   8.450   3.367 -0.0822 -0.0396 -0.2579
  139MOL0     C18676   6.408   8.314   4.263 -0.0685  0.6275 -0.6262
  139MOL0     C18677   6.410   8.209   4.358  0.8722 -0.0502 -0.0713
  139MOL0     O18678   6.433   8.236   4.697 -0.4650  0.4317  0.0585
  139MOL0     C18679   6.438   7.887   4.696 -0.0077 -0.3197 -0.7876
  139MOL0     C18680   6.425   7.774   4.777  0.0674 -0.0171  0.1394
  139MOL0     N18681   6.012   7.164   5.144 -0.3024 -0.6156 -0.1725
  139MOL0     N18682   5.960   7.142   5.268 -0.9589 -0.9331  0.0152
  139MOL0     C18683   6.142   7.737   5.826  0.5277 -0.8127 -0.4184
  139MOL0     C18684   6.261   7.806   5.828  0.9818 -0.4051  0.2004
  139MOL0     C18685   6.612   8.052   5.807 -0.4709  1.0424  0.1784
  139MOL0     C18686   6.609   8.180   5.865  1.0032 -0.3916 -0.5592
  139MOL0     C18687   6.705   8.274   5.831 -0.2555 -0.7930 -0.1204
  139MOL0     C18688   6.800   8.248   5.741 -0.3139 -0.1906  0.2245
  139MOL0     O18689   6.884   8.347   5.704 -0.2121 -0.4009 -0.1267
  139MOL0     C18690   6.836   8.485   5.701  0.0801 -0.0379  0.1267
  139MOL0     C18691   6.883   8.559   5.567 -1.0313  0.4612  1.2409
  139MOL0     C18692   7.035   8.565   5.548 -1.0499 -0.9603  0.5526
  139MOL0     C18693   7.086   8.534   5.403 -0.6433 -0.1201 -0.1966
  139MOL0     C18694   7.234   8.538   5.390  0.3456  0.4708 -0.2496
  139MOL0     C18695   7.352   8.544   5.358  0.1728  0.5798  0.1628
  139MOL0     C18696   6.806   8.130   5.677  0.5003  0.1924  0.2370
  139MOL0     C18697   6.715   8.027   5.712 -0.6227 -0.2985  0.3502
  139MOL0     H18698   6.214   8.010   6.082 -2.2982  1.4462 -1.3576
  139MOL0     H18699   5.980   7.884   6.088 -0.3092  0.0583 -0.9890
  139MOL0     H18700   5.781   7.778   6.033  2.4872  2.6633 -0.3421
  139MOL0     H18701   5.792   7.822   5.865  5.2443  0.3939  0.5327
  139MOL0     H18702   5.712   7.552   6.001 -2.8106 -1.2705  0.3156
  139MOL0     H18703   5.591   7.661   5.932 -0.5680 -0.5916  0.2562
  139MOL0     H18704   5.657   7.602   5.703  0.3853 -1.1986 -0.7034
  139MOL0     H18705   5.799   7.523   5.760 -0.7169  0.2219 -0.8842
  139MOL0     H18706   5.664   7.364   5.895 -2.4697  1.0260  1.1384
  139MOL0     H18707   5.518   7.441   5.834  0.1885 -1.1310  1.0631
  139MOL0     H18708   5.564   7.242   5.709 -3.3900  2.0454 -1.2118
  139MOL0     H18709   5.610   7.362   5.594 -1.1748 -0.6793 -0.0036
  139MOL0     H18710   5.839   7.292   5.748 -0.6651 -0.6002  1.7298
  139MOL0     H18711   5.755   7.154   5.671 -0.8408  0.2331 -0.7566
  139MOL0     H18712   5.772   7.287   5.455  1.5955 -0.2287 -1.9831
  139MOL0     H18713   5.867   7.409   5.515  2.0444 -0.4575 -1.6886
  139MOL0     H18714   5.988   7.129   5.529 -0.7336 -0.2266 -0.3314
  139MOL0     H18715   6.069   7.290   5.537 -1.2794  1.6110 -0.2906
  139MOL0     H18716   6.155   7.401   5.307  0.6355 -0.4112  0.1908
  139MOL0     H18717   6.173   7.282   4.961  2.6541  1.3969  0.2141
  139MOL0     H18718   6.078   7.417   5.001 -1.1176 -1.5534  0.8937
  139MOL0     H18719   6.350   7.371   5.127  0.7737 -2.2302 -2.0287
  139MOL0     H18720   6.258   7.516   5.130 -0.6801 -2.1949  2.9272
  139MOL0     H18721   6.270   7.543   4.886 -2.7528 -1.8027  0.5147
  139MOL0     H18722   6.342   7.388   4.854 -1.8712  1.0178 -0.9213
  139MOL0     H18723   6.517   7.543   4.824  1.2232  4.1144  0.8578
  139MOL0     H18724   6.554   7.470   4.981  1.8794 -1.2929 -2.3997
  139MOL0     H18725   6.529   7.904   5.074 -0.2250  1.7864  0.5380
  139MOL0     H18726   6.484   8.190   5.023  1.3750  2.9249 -2.1932
  139MOL0     H18727   6.652   8.121   5.018  1.1289  0.1062 -0.7971
  139MOL0     H18728   6.580   8.225   4.891 -3.2193 -2.2669 -4.6728
  139MOL0     H18729   6.715   8.237   4.494 -1.0599 -2.7229  0.4159
  139MOL0     H18730   6.732   8.417   4.317  0.9160 -1.9742 -2.1328
  139MOL0     H18731   6.329   8.489   4.076 -0.0058 -0.5166 -0.2015
  139MOL0     H18732   6.452   8.572   3.981  2.1697 -0.0485  2.1710
  139MOL0     H18733   6.533   8.363   3.877 -0.4370 -0.7627 -0.6537
  139MOL0     H18734   6.432   8.271   3.988  2.6087  0.2731  0.9753
  139MOL0     H18735   6.333   8.465   3.776  1.4907  0.3264 -0.1042
  139MOL0     H18736   6.229   8.356   3.860  0.8467  0.9074  0.8458
  139MOL0     H18737   6.440   8.293   3.650  0.5366 -2.0067 -0.3674
  139MOL0     H18738   6.352   8.166   3.750 -2.5093  0.0020 -0.0571
  139MOL0     H18739   6.290   8.187   3.524 -1.2557 -0.1182  0.1815
  139MOL0     H18740   6.250   8.365   3.557  3.2979  0.8079  2.1970
  139MOL0     H18741   6.103   8.114   3.636 -1.3361 -0.2970 -2.4636
  139MOL0     H18742   6.076   8.275   3.729  1.6780  0.3039 -0.3580
  139MOL0     H18743   5.918   8.201   3.540 -0.1627  1.1474 -0.8892
  139MOL0     H18744   6.056   8.233   3.428 -0.7764  1.1243 -1.2030
  139MOL0     H18745   6.053   8.474   3.533 -0.5312 -0.5440  0.0731
  139MOL0     H18746   5.900   8.425   3.606 -1.1492  0.4223 -0.7744
  139MOL0     H18747   6.316   8.305   4.207 -1.1270 -0.3853  1.2012
  139MOL0     H18748   6.320   8.152   4.377  0.7219 -0.2645 -1.3870
  139MOL0     H18749   6.403   7.880   4.593  0.7518  0.2476 -1.0978
  139MOL0     H18750   6.367   7.699   4.724  1.4049  0.7421 -2.5464
  139MOL0     H18751   6.132   7.660   5.750  0.8203 -1.0909 -0.1791
  139MOL0     H18752   6.334   7.779   5.751  4.5488  1.4570  2.6678
  139MOL0     H18753   6.536   8.200   5.942 -1.3499 -0.9344 -2.5157
  139MOL0     H18754   6.714   8.359   5.898  0.0914 -1.0692  0.1872
  139MOL0     H18755   6.727   8.499   5.701 -0.3254 -2.5406  1.3783
  139MOL0     H18756   6.880   8.545   5.781  0.9265  3.1334 -2.5082
  139MOL0     H18757   6.836   8.658   5.563 -2.3277 -0.1297  1.5414
  139MOL0     H18758   6.839   8.503   5.484 -0.8620  0.6428  1.0263
  139MOL0     H18759   7.088   8.500   5.618 -1.0649 -2.6118 -0.9134
  139MOL0     H18760   7.075   8.666   5.564  1.0065 -1.3092 -1.6996
  139MOL0     H18761   7.041   8.600   5.327  2.6983 -1.3225 -3.5287
  139MOL0     H18762   7.063   8.428   5.389  1.7935 -1.0174  1.8053
  139MOL0     H18763   7.453   8.548   5.321  1.5057  0.0731  3.3941
  139MOL0     H18764   6.868   8.110   5.589 -0.7153 -0.8265 -0.4217
  139MOL0     H18765   6.703   7.930   5.664 -0.0584 -0.7125  1.0206
  140MOL0     O18766   9.551   9.334   6.401  0.5847 -0.1566 -0.4570
  140MOL0     C18767   9.646   9.402   6.428 -0.4024  0.0089 -0.5054
  140MOL0     O18768   9.650   9.528   6.466 -0.2189 -0.8278 -0.4641
  140MOL0     C18769   9.529   9.583   6.496  0.0272  0.1616 -0.0615
  140MOL0     C18770   9.457   9.639   6.397 -0.0618 -0.3444  0.4372
  140MOL0     C18771   9.335   9.706   6.425 -0.2375 -0.8926  0.1836
  140MOL0     C18772   9.286   9.705   6.560 -0.3649 -1.9406  0.4978
  140MOL0     O18773   9.172   9.773   6.578  1.0626 -1.0802 -0.2396
  140MOL0     C18774   9.103   9.772   6.700 -0.1461 -0.8447 -1.1869
  140MOL0     C18775   8.979   9.857   6.672 -0.4010 -0.3404 -0.2687
  140MOL0     C18776   8.887   9.796   6.567  0.2768  0.8054 -0.8301
  140MOL0     C18777   8.759   9.877   6.551 -0.1087  0.3794  0.9866
  140MOL0     C18778   8.663   9.819   6.434 -0.5289 -0.7759  0.2174
  140MOL0     C18779   8.538   9.903   6.417 -0.4832  0.1788 -0.5842
  140MOL0     C18780   8.434   9.871   6.316  0.3135 -0.3645 -0.1794
  140MOL0     C18781   8.320   9.962   6.337  0.3387 -0.8890 -1.0612
  140MOL0     N18782   8.201   9.925   6.260 -0.1722 -0.8372  0.2337
  140MOL0     C18783   8.210   9.914   6.124 -0.4383 -0.3192  0.4161
  140MOL0     C18784   8.118   9.824   6.098 -0.3488 -0.1079  0.5747
  140MOL0     C18785   8.099   9.763   5.963 -0.2072  1.0783 -0.2778
  140MOL0     C18786   8.118   9.845   5.839  0.0593  0.1224  0.3073
  140MOL0     C18787   8.079   9.761   5.717 -0.2842  0.2091 -0.3860
  140MOL0     C18788   7.927   9.712   5.701  0.6277 -0.3261 -0.3929
  140MOL0     O18789   7.852   9.837   5.687 -0.7663  0.2422  0.0840
  140MOL0     C18790   7.733   9.847   5.752  0.3921 -0.7228 -1.1275
  140MOL0     C18791   7.693   9.947   5.839  0.9869  0.7882 -0.1696
  140MOL0     C18792   7.565   9.960   5.900 -0.9546 -0.0214 -1.0350
  140MOL0     C18793   7.544  10.072   6.000  0.5748 -1.3971 -0.0073
  140MOL0     C18794   7.471   9.862   5.876 -0.4874  0.1501 -0.0112
  140MOL0     C18795   7.342   9.845   5.953 -0.1154 -0.0245  0.6690
  140MOL0     O18796   7.282   9.956   6.020  0.3291 -0.1668  0.9239
  140MOL0     C18797   7.169   9.936   6.087 -0.6704  0.5309  0.1802
  140MOL0     C18798   7.046   9.938   6.010  0.6045  0.0141 -0.1108
  140MOL0     C18799   6.924   9.908   6.063 -0.3696 -0.4027 -0.3655
  140MOL0     C18800   6.925   9.880   6.200 -0.0700  0.3513 -0.5404
  140MOL0     O18801   6.810   9.860   6.272 -0.2159 -0.6280 -0.2016
  140MOL0     C18802   6.697   9.935   6.238 -0.5969  0.4021 -0.6347
  140MOL0     C18803   6.595   9.943   6.347  0.5455 -0.3935 -0.2553
  140MOL0     C18804   6.493  10.055   6.323 -0.6099  0.0449 -0.7068
  140MOL0     C18805   6.365  10.022   6.402 -0.7361 -0.7470  0.6355
  140MOL0     C18806   6.264  10.134   6.392 -0.2029 -0.1996  1.0263
  140MOL0     C18807   6.157  10.102   6.501 -0.3423  0.0483  0.6284
  140MOL0     C18808   6.025  10.182   6.489 -0.7255  0.0580 -0.0154
  140MOL0     C18809   5.926  10.136   6.599  0.2825 -0.6904 -0.6988
  140MOL0    Cl18810   5.801  10.254   6.625  0.0570 -0.0138  0.0911
  140MOL0     C18811   7.037   9.864   6.274 -0.1590 -0.5472 -0.5691
  140MOL0     C18812   7.163   9.897   6.221  0.0276  0.4267 -0.3335
  140MOL0     O18813   7.293   9.735   5.939  0.0293 -0.4331 -0.0706
  140MOL0     C18814   7.500   9.764   5.772 -0.8453 -0.1535 -0.5019
  140MOL0     C18815   7.626   9.761   5.722 -0.5196  0.2294 -0.3685
  140MOL0     N18816   8.038   9.792   6.214 -0.1812 -0.3755 -0.1167
  140MOL0     N18817   8.107   9.845   6.310  0.2144  0.8447 -0.1943
  140MOL0     C18818   9.361   9.639   6.656  0.8346 -0.6179  0.8951
  140MOL0     C18819   9.481   9.577   6.624  0.1401  0.6199 -0.3065
  140MOL0     C18820   9.782   9.339   6.393 -1.2243 -0.9466  0.3550
  140MOL0     C18821   9.886   9.422   6.343 -0.3640  0.6769  0.8589
  140MOL0     C18822  10.005   9.369   6.292  0.1039 -0.4817  0.8767
  140MOL0     C18823  10.024   9.227   6.286 -0.2828  0.6990 -0.5647
  140MOL0     O18824  10.133   9.167   6.233 -0.5761  0.0144  0.5916
  140MOL0     C18825  10.228   9.244   6.165 -0.3871  1.1458 -0.2222
  140MOL0     C18826  10.361   9.171   6.147  0.3439 -0.0587  0.7157
  140MOL0     C18827  10.400   9.096   6.279 -0.1761 -0.3147  0.3072
  140MOL0     C18828  10.522   9.024   6.244 -0.5477  0.5690 -0.0865
  140MOL0     C18829  10.565   8.936   6.358  0.5887 -1.3716  0.6555
  140MOL0     C18830  10.592   8.872   6.457 -0.3889 -1.2750  0.1831
  140MOL0     C18831   9.921   9.141   6.337 -0.7252 -0.8462  0.2389
  140MOL0     C18832   9.811   9.201   6.399  0.6307 -0.0969  0.3126
  140MOL0     H18833   9.501   9.624   6.299  1.0432 -3.8797  1.3216
  140MOL0     H18834   9.277   9.756   6.349  0.5211  0.4073  0.4383
  140MOL0     H18835   9.071   9.675   6.739 -1.1414 -0.1490 -0.2114
  140MOL0     H18836   9.166   9.805   6.784 -1.6467 -4.3872  1.6455
  140MOL0     H18837   8.928   9.861   6.768  0.1352  0.2986 -0.0009
  140MOL0     H18838   9.014   9.958   6.646 -0.1897 -0.2879  0.2220
  140MOL0     H18839   8.937   9.782   6.470  2.8254  4.3733 -0.2717
  140MOL0     H18840   8.860   9.698   6.605 -0.8431  2.0038  1.6815
  140MOL0     H18841   8.707   9.883   6.647 -0.2250 -2.2235  1.1346
  140MOL0     H18842   8.791   9.976   6.517 -1.4044  0.2299 -0.8378
  140MOL0     H18843   8.719   9.823   6.340  2.0968  0.9178  1.7185
  140MOL0     H18844   8.639   9.713   6.442 -3.5172 -0.1292  1.0605
  140MOL0     H18845   8.492   9.882   6.515  0.2465  1.0446 -0.0383
  140MOL0     H18846   8.554  10.011   6.416 -0.7271  0.2264  0.0491
  140MOL0     H18847   8.458   9.869   6.210  2.3380 -0.6111  0.2494
  140MOL0     H18848   8.396   9.771   6.337 -0.0899 -0.3270 -0.7273
  140MOL0     H18849   8.354  10.067   6.331  0.0221 -0.5413  1.6815
  140MOL0     H18850   8.293   9.952   6.443  0.3727 -0.5447 -1.0175
  140MOL0     H18851   8.282   9.936   6.045 -2.4883 -0.7078 -1.6653
  140MOL0     H18852   8.169   9.679   5.952 -1.7435  0.1298 -4.4286
  140MOL0     H18853   7.997   9.724   5.968  0.9144 -2.0809  0.9166
  140MOL0     H18854   8.221   9.881   5.831 -0.5513  1.7658 -0.8126
  140MOL0     H18855   8.050   9.931   5.846 -0.6638 -0.3256 -0.8174
  140MOL0     H18856   8.150   9.678   5.715 -1.3627 -0.7164 -1.5942
  140MOL0     H18857   8.106   9.822   5.631  0.2349  1.2939  0.5258
  140MOL0     H18858   7.893   9.662   5.792 -0.8954  0.5656 -0.4300
  140MOL0     H18859   7.928   9.644   5.615  1.4614 -0.5639 -0.2025
  140MOL0     H18860   7.765  10.027   5.857  2.3417 -0.6387  1.0183
  140MOL0     H18861   7.530  10.038   6.103 -0.0299 -1.4981 -0.1221
  140MOL0     H18862   7.628  10.142   6.008 -1.1351  0.8241 -0.4657
  140MOL0     H18863   7.451  10.126   5.980  0.1838 -1.7481  0.8147
  140MOL0     H18864   7.056   9.964   5.905  0.3939  0.0691 -0.1180
  140MOL0     H18865   6.838   9.910   5.998  1.0625  0.1800 -2.3341
  140MOL0     H18866   6.726  10.033   6.199 -1.4870  0.7928 -0.3410
  140MOL0     H18867   6.647   9.884   6.154  1.6447 -2.0303 -0.6162
  140MOL0     H18868   6.547   9.845   6.361  2.5548 -1.4749 -0.5583
  140MOL0     H18869   6.648   9.956   6.442  0.4467  0.7366 -0.3449
  140MOL0     H18870   6.472  10.063   6.216  2.0231 -0.8223 -1.3638
  140MOL0     H18871   6.533  10.155   6.341 -1.1530  0.3696 -1.2546
  140MOL0     H18872   6.328   9.932   6.353 -0.7005  0.2427 -1.3042
  140MOL0     H18873   6.391   9.999   6.506 -1.0024  2.3540  1.5069
  140MOL0     H18874   6.224  10.139   6.290 -1.9094 -1.0793  1.6179
  140MOL0     H18875   6.300  10.234   6.418 -0.5503 -0.4925  2.7412
  140MOL0     H18876   6.134   9.995   6.495  1.0410 -0.2275 -0.4460
  140MOL0     H18877   6.215  10.113   6.593  1.7627 -1.0251 -0.5080
  140MOL0     H18878   5.985  10.174   6.388  2.3448  3.4944 -1.7538
  140MOL0     H18879   6.040  10.288   6.510 -2.4390  1.2484 -3.9753
  140MOL0     H18880   5.978  10.114   6.693 -1.1303  0.4441  0.3926
  140MOL0     H18881   5.878  10.043   6.567 -1.1407 -0.5241  0.7851
  140MOL0     H18882   7.025   9.851   6.381 -1.8661 -2.7706 -0.9664
  140MOL0     H18883   7.254   9.895   6.279  0.7731 -1.3147 -1.4713
  140MOL0     H18884   7.429   9.688   5.740  0.4503 -2.1213  1.0291
  140MOL0     H18885   7.645   9.685   5.648 -2.5222 -0.1102 -0.5943
  140MOL0     H18886   9.337   9.649   6.762 -2.7743  0.6478  0.1246
  140MOL0     H18887   9.527   9.519   6.704 -0.7393  0.4023  0.0582
  140MOL0     H18888   9.866   9.528   6.348 -1.0391  0.6365 -0.4511
  140MOL0     H18889  10.085   9.425   6.245 -0.1446 -1.5216 -0.8648
  140MOL0     H18890  10.191   9.264   6.064 -0.0703 -2.4741 -1.1725
  140MOL0     H18891  10.262   9.330   6.224  0.2926  0.7390 -0.0095
  140MOL0     H18892  10.439   9.242   6.116  1.9597 -2.4899 -1.1313
  140MOL0     H18893  10.347   9.101   6.065 -0.0151  1.3111 -0.4276
  140MOL0     H18894  10.320   9.025   6.305 -0.9863  1.0476  1.6655
  140MOL0     H18895  10.412   9.163   6.365 -3.1501 -0.9833  1.3548
  140MOL0     H18896  10.607   9.091   6.225  1.3566 -1.8659 -0.6092
  140MOL0     H18897  10.505   8.958   6.158  0.0647 -1.9372  1.6153
  140MOL0     H18898  10.620   8.824   6.549  4.4391  0.8639  0.1301
  140MOL0     H18899   9.941   9.035   6.320  0.8378 -0.5763  0.1820
  140MOL0     H18900   9.740   9.135   6.448  1.3340 -0.7611  0.4552
  141MOL0     O18901   7.495   4.940   0.115 -0.1161  0.1954 -0.2250
  141MOL0     C18902   7.608   4.914   0.161  0.6756 -0.3351  0.1285
  141MOL0     O18903   7.635   4.886   0.292 -0.0081  0.1920 -0.8654
  141MOL0     C18904   7.538   4.909   0.385  0.6037 -0.7337 -1.0192
  141MOL0     C18905   7.512   4.812   0.471  0.2133  0.7108  0.0564
  141MOL0     C18906   7.409   4.825   0.562 -0.0756 -0.0329  0.4397
  141MOL0     C18907   7.328   4.938   0.572  0.1621  0.4926  0.8503
  141MOL0     O18908   7.223   4.939   0.652 -0.0291 -0.0460 -0.4747
  141MOL0     C18909   7.256   4.985   0.785  0.1935  0.3839 -1.4849
  141MOL0     C18910   7.110   5.016   0.840  0.0683 -0.5182 -1.4612
  141MOL0     C18911   7.027   4.896   0.858  0.4140  0.1646  1.1074
  141MOL0     C18912   6.893   4.926   0.928 -0.2023  0.4534  0.8159
  141MOL0     C18913   6.797   4.809   0.921  0.1206 -0.1834  0.2657
  141MOL0     C18914   6.664   4.815   1.006 -0.3936 -0.4444 -0.1967
  141MOL0     C18915   6.558   4.904   0.938  1.2335  0.2187  0.2124
  141MOL0     C18916   6.467   4.962   1.043  0.1510  0.5371  0.8088
  141MOL0     N18917   6.389   4.853   1.102  0.1844 -0.5543 -0.0053
  141MOL0     C18918   6.382   4.811   1.229 -0.8048  0.6635  0.5847
  141MOL0     C18919   6.290   4.723   1.241 -0.2708  0.2875 -0.1961
  141MOL0     C18920   6.265   4.633   1.359 -0.0349  0.0813 -0.1486
  141MOL0     C18921   6.128   4.598   1.403 -0.5824 -0.6094 -0.4089
  141MOL0     C18922   6.077   4.709   1.489  0.4686  0.6858 -0.6028
  141MOL0     C18923   5.938   4.683   1.550  0.1658 -0.8390  0.0954
  141MOL0     O18924   5.910   4.754   1.674 -0.4312 -0.0710 -0.0837
  141MOL0     C18925   5.773   4.757   1.720 -0.1585  0.5862  0.9177
  141MOL0     C18926   5.738   4.856   1.809 -0.9204 -0.0075 -0.0618
  141MOL0     C18927   5.613   4.859   1.864 -0.0896 -0.3689 -0.0767
  141MOL0     C18928   5.573   4.979   1.949 -0.2094 -0.5365  0.4214
  141MOL0     C18929   5.508   4.767   1.821 -0.1033 -0.3181 -0.5467
  141MOL0     C18930   5.371   4.762   1.883  1.2059  0.1430  0.2002
  141MOL0     O18931   5.303   4.648   1.865  0.4754  0.2853  0.4564
  141MOL0     C18932   5.189   4.610   1.934  0.0077 -0.4981 -0.4945
  141MOL0     C18933   5.095   4.525   1.879  0.0776 -0.0363  0.0782
  141MOL0     C18934   4.976   4.500   1.945 -0.2580  0.0841  0.0118
  141MOL0     C18935   4.943   4.559   2.061  0.6429  0.2974  0.4278
  141MOL0     O18936   4.827   4.536   2.136 -1.0135  0.0108  0.0536
  141MOL0     C18937   4.710   4.514   2.067  0.4602 -0.3876  0.3101
  141MOL0     C18938   4.593   4.569   2.149  0.0263  0.6239  1.4724
  141MOL0     C18939   4.471   4.593   2.060  0.1896 -0.2552 -0.5053
  141MOL0     C18940   4.370   4.484   2.089  0.2122  0.0081  0.3874
  141MOL0     C18941   4.249   4.528   2.003  0.4694  0.2737 -0.4916
  141MOL0     C18942   4.124   4.445   2.029 -0.8673  0.2547  1.2431
  141MOL0     C18943   4.007   4.482   1.937 -0.2982 -0.4296  0.4772
  141MOL0     C18944   4.041   4.438   1.792  0.6610  0.5473  0.1617
  141MOL0    Cl18945   4.067   4.261   1.781 -0.0109 -0.1602 -0.1591
  141MOL0     C18946   5.033   4.643   2.119  0.1322 -0.3271  0.5919
  141MOL0     C18947   5.164   4.661   2.060  0.5581  0.9219  0.3498
  141MOL0     O18948   5.318   4.868   1.919 -0.5001 -0.2496  0.5663
  141MOL0     C18949   5.546   4.663   1.736  0.0699  0.0939  0.3094
  141MOL0     C18950   5.680   4.656   1.689 -0.2060  0.0756  0.6765
  141MOL0     N18951   6.234   4.708   1.122 -0.1123 -0.0808 -0.1725
  141MOL0     N18952   6.304   4.775   1.033  0.0614 -0.4695 -0.6323
  141MOL0     C18953   7.356   5.046   0.486 -0.1077  0.3311 -0.8383
  141MOL0     C18954   7.467   5.034   0.403 -0.3805  0.5589 -0.5633
  141MOL0     C18955   7.711   4.909   0.061 -0.8515 -0.1826  0.3549
  141MOL0     C18956   7.841   4.881   0.109 -0.5407 -0.2904  0.1784
  141MOL0     C18957   7.942   4.847   0.018  0.3984 -1.0496  0.0788
  141MOL0     C18958   7.915   4.847  -0.129 -0.1728  0.5675 -0.4401
  141MOL0     O18959   8.011   4.816  -0.225  0.2189 -0.1783  0.0183
  141MOL0     C18960   8.142   4.799  -0.180 -0.7388  0.6776 -0.5047
  141MOL0     C18961   8.240   4.782  -0.300 -0.9061 -0.0793 -0.3544
  141MOL0     C18962   8.211   4.643  -0.368  0.1386  0.2553  0.8416
  141MOL0     C18963   8.307   4.620  -0.489 -0.2595  0.2123  0.0294
  141MOL0     C18964   8.271   4.491  -0.551 -0.1982 -0.2862  0.2218
  141MOL0     C18965   8.257   4.393  -0.625  0.3220  0.1014 -0.4825
  141MOL0     C18966   7.788   4.882  -0.172  0.6250  0.2625 -0.6024
  141MOL0     C18967   7.691   4.899  -0.080  0.0770  0.0574 -0.2321
  141MOL0     H18968   7.570   4.721   0.472  3.0542  2.2978  3.7662
  141MOL0     H18969   7.391   4.742   0.630  1.4471 -4.2292 -3.8019
  141MOL0     H18970   7.317   4.909   0.834  0.1187  1.0322 -0.3488
  141MOL0     H18971   7.314   5.078   0.787  4.3018 -1.9354 -0.3916
  141MOL0     H18972   7.127   5.071   0.933  0.4349  0.9699 -2.3810
  141MOL0     H18973   7.060   5.093   0.781 -0.7026  3.3179  3.5731
  141MOL0     H18974   7.004   4.866   0.755 -0.1730  1.2360  0.8994
  141MOL0     H18975   7.080   4.817   0.911  1.0691 -0.0191  0.1941
  141MOL0     H18976   6.915   4.930   1.035  0.4372  2.0838  0.6650
  141MOL0     H18977   6.840   5.014   0.890 -1.9216 -0.0658  1.9556
  141MOL0     H18978   6.774   4.795   0.815  0.3139  0.0453  0.1925
  141MOL0     H18979   6.848   4.719   0.958 -0.4261 -1.3299 -1.6369
  141MOL0     H18980   6.628   4.714   1.028 -3.5715  0.9377  1.6962
  141MOL0     H18981   6.684   4.857   1.105 -1.5875  0.3923 -0.2859
  141MOL0     H18982   6.594   4.995   0.890  1.2301  0.9479  1.5389
  141MOL0     H18983   6.497   4.854   0.862  1.7800 -0.8662  0.4676
  141MOL0     H18984   6.389   5.025   0.998 -0.0007 -0.0987  0.1717
  141MOL0     H18985   6.516   5.017   1.125 -0.5592 -0.3837  1.8868
  141MOL0     H18986   6.430   4.854   1.317  3.6886  1.1714 -1.8042
  141MOL0     H18987   6.320   4.539   1.346 -2.1942 -1.1238 -0.9585
  141MOL0     H18988   6.317   4.688   1.439  0.2151  0.8782 -0.8400
  141MOL0     H18989   6.120   4.505   1.460  0.1285 -0.6271 -0.3299
  141MOL0     H18990   6.066   4.594   1.313  0.7428 -0.9412 -1.3400
  141MOL0     H18991   6.077   4.802   1.431  1.8274  3.8783  3.9605
  141MOL0     H18992   6.146   4.711   1.574 -0.8379 -0.9002  0.5604
  141MOL0     H18993   5.932   4.577   1.575 -1.4357 -0.4881  1.2963
  141MOL0     H18994   5.862   4.716   1.479  1.1365  4.0477  0.9788
  141MOL0     H18995   5.812   4.926   1.845 -1.0904 -0.7403  1.7907
  141MOL0     H18996   5.651   5.051   1.976 -1.0558  0.0709  1.3504
  141MOL0     H18997   5.498   5.043   1.901 -1.3990  0.4454  3.3574
  141MOL0     H18998   5.528   4.936   2.039 -1.1686 -1.4126 -0.4664
  141MOL0     H18999   5.125   4.475   1.787  1.9635  1.1320  0.0077
  141MOL0     H19000   4.902   4.438   1.894 -0.3406  0.5281 -0.4262
  141MOL0     H19001   4.720   4.563   1.969  1.3797 -2.1471 -0.5240
  141MOL0     H19002   4.696   4.410   2.038  0.2295 -0.2182 -0.2240
  141MOL0     H19003   4.573   4.516   2.243 -0.3001  1.9559  2.1798
  141MOL0     H19004   4.627   4.664   2.191  1.5464  0.8149 -0.1022
  141MOL0     H19005   4.513   4.579   1.960  2.0113 -0.3685  0.2295
  141MOL0     H19006   4.432   4.694   2.076 -3.1121 -1.3497 -0.9142
  141MOL0     H19007   4.397   4.380   2.070  0.9052  0.6805 -2.8984
  141MOL0     H19008   4.348   4.493   2.196 -0.6521  0.7996  0.1545
  141MOL0     H19009   4.280   4.530   1.899  1.1499 -0.9847 -0.3317
  141MOL0     H19010   4.235   4.631   2.037  0.1178  0.0114  0.1959
  141MOL0     H19011   4.147   4.340   2.008  0.9382  0.9770 -0.7416
  141MOL0     H19012   4.095   4.451   2.134  0.7835 -0.5662  1.7809
  141MOL0     H19013   4.007   4.591   1.940  1.5416 -0.3708 -0.2743
  141MOL0     H19014   3.908   4.439   1.956  0.6634 -2.2006  1.8677
  141MOL0     H19015   4.128   4.498   1.762 -0.2066  1.8639  0.1676
  141MOL0     H19016   3.957   4.475   1.733 -0.0471 -0.7188  0.3577
  141MOL0     H19017   4.998   4.700   2.204  2.7453  0.8836  0.9280
  141MOL0     H19018   5.241   4.716   2.113  2.9034  0.5033 -2.3750
  141MOL0     H19019   5.480   4.580   1.711 -2.1985  2.2853 -1.4412
  141MOL0     H19020   5.712   4.575   1.625  2.1175  2.2030 -1.0371
  141MOL0     H19021   7.298   5.138   0.493 -3.2737 -1.3678 -2.8717
  141MOL0     H19022   7.493   5.119   0.340 -0.8941  0.0016 -1.5575
  141MOL0     H19023   7.863   4.882   0.215  1.2840  0.3693 -0.1726
  141MOL0     H19024   8.041   4.813   0.046  1.6357  1.0941 -1.3625
  141MOL0     H19025   8.164   4.890  -0.123  0.1195 -1.7157  3.3994
  141MOL0     H19026   8.149   4.715  -0.110  0.3513  0.7076 -0.5605
  141MOL0     H19027   8.341   4.781  -0.259 -0.4795 -0.0669 -1.3641
  141MOL0     H19028   8.234   4.865  -0.371 -0.5589  0.4076  0.1838
  141MOL0     H19029   8.107   4.630  -0.397  0.3990 -4.3656  1.2041
  141MOL0     H19030   8.241   4.560  -0.304  2.5150  0.7611  0.4774
  141MOL0     H19031   8.408   4.615  -0.447 -0.1221  3.6617  0.3979
  141MOL0     H19032   8.302   4.696  -0.567 -0.4884 -0.7693 -0.9424
  141MOL0     H19033   8.265   4.302  -0.683  1.1421 -1.1933  1.5519
  141MOL0     H19034   7.763   4.875  -0.277  2.3134 -2.9274 -0.9360
  141MOL0     H19035   7.589   4.901  -0.117 -0.6731  1.4216  1.7326
  142MOL0     O19036   1.473   4.803   1.160 -0.5030 -0.6088 -1.2793
  142MOL0     C19037   1.407   4.853   1.250  0.7108  0.7048  1.2611
  142MOL0     O19038   1.355   4.788   1.361 -0.2623 -0.4158 -0.1186
  142MOL0     C19039   1.383   4.655   1.368 -0.8312 -0.1387 -0.0140
  142MOL0     C19040   1.503   4.630   1.435 -0.1925 -0.2389  0.3221
  142MOL0     C19041   1.555   4.504   1.456  0.4285  0.9168 -0.0362
  142MOL0     C19042   1.488   4.392   1.392 -0.4950 -0.0625 -0.4369
  142MOL0     O19043   1.542   4.259   1.405 -0.2348 -0.0719 -0.5482
  142MOL0     C19044   1.682   4.243   1.369 -0.3820  0.3716 -0.2794
  142MOL0     C19045   1.694   4.112   1.283  0.1946 -0.3838  0.6487
  142MOL0     C19046   1.684   3.993   1.375 -0.2728 -0.3363  0.8966
  142MOL0     C19047   1.688   3.860   1.298 -0.0094  0.2200  0.5843
  142MOL0     C19048   1.582   3.768   1.362  0.2259 -0.1571 -0.3976
  142MOL0     C19049   1.574   3.628   1.309  0.1675 -0.0936 -0.1977
  142MOL0     C19050   1.706   3.557   1.278  0.2033 -0.1687  0.3412
  142MOL0     C19051   1.678   3.416   1.232  0.3826  0.0668 -0.2421
  142MOL0     N19052   1.794   3.357   1.165 -0.9426  0.8334 -0.5811
  142MOL0     C19053   1.871   3.411   1.069 -0.4501 -0.3629  0.2716
  142MOL0     C19054   1.974   3.327   1.067 -1.0681  0.1332 -0.5577
  142MOL0     C19055   2.093   3.335   0.982 -0.8920 -1.1464  0.9359
  142MOL0     C19056   2.134   3.483   0.950  0.1056 -0.2256 -0.2340
  142MOL0     C19057   2.146   3.584   1.070  0.1635 -0.0700 -0.1525
  142MOL0     C19058   2.272   3.665   1.062  0.4658  0.1888  1.0041
  142MOL0     O19059   2.281   3.736   0.936  0.2979  0.2390  0.2094
  142MOL0     C19060   2.394   3.809   0.910 -0.4990 -0.1529 -0.0190
  142MOL0     C19061   2.404   3.871   0.790 -0.6169 -0.1433  0.0379
  142MOL0     C19062   2.525   3.932   0.755 -0.3371  0.1216 -0.3550
  142MOL0     C19063   2.522   4.019   0.629  0.2584  0.1793  0.0342
  142MOL0     C19064   2.646   3.923   0.836 -0.3201 -0.0658 -0.6610
  142MOL0     C19065   2.775   3.994   0.793  0.3272  1.1296  0.8558
  142MOL0     O19066   2.878   3.973   0.878  0.2192  0.2865  0.4642
  142MOL0     C19067   3.000   4.015   0.842 -0.7595  0.3530  0.3135
  142MOL0     C19068   3.035   4.146   0.845  0.9418  0.2760 -0.1665
  142MOL0     C19069   3.171   4.184   0.813 -0.3733 -0.8480 -0.5420
  142MOL0     C19070   3.271   4.090   0.795  0.2546  0.0634 -0.3158
  142MOL0     O19071   3.399   4.127   0.781  0.0369  0.2112  0.4994
  142MOL0     C19072   3.477   4.066   0.678 -0.8922  0.3734 -0.0698
  142MOL0     C19073   3.598   4.145   0.638  0.1175  0.7994 -0.2282
  142MOL0     C19074   3.597   4.298   0.667  0.1680  0.4626  0.1473
  142MOL0     C19075   3.629   4.323   0.816 -0.0502 -0.7496 -0.4066
  142MOL0     C19076   3.681   4.464   0.834 -0.2511  0.0701 -0.1335
  142MOL0     C19077   3.761   4.480   0.966 -0.9295  0.0026  0.5817
  142MOL0     C19078   3.835   4.615   0.972 -0.9342 -0.0573 -0.7434
  142MOL0     C19079   3.954   4.601   1.061 -0.1526 -0.0816 -0.2374
  142MOL0    Cl19080   4.034   4.760   1.060  0.2095  0.1930 -0.1534
  142MOL0     C19081   3.227   3.958   0.776 -0.0009 -0.0455  0.6850
  142MOL0     C19082   3.096   3.917   0.809  0.0487  0.5693  0.7011
  142MOL0     O19083   2.788   4.045   0.686  0.3184  0.4973  0.2756
  142MOL0     C19084   2.634   3.852   0.956 -0.0534 -0.8351  0.0969
  142MOL0     C19085   2.508   3.796   0.996  0.0869  0.7666  1.0156
  142MOL0     N19086   1.959   3.230   1.164 -0.2871 -0.0629 -0.2945
  142MOL0     N19087   1.850   3.244   1.227  0.1277  0.9650 -0.8046
  142MOL0     C19088   1.374   4.414   1.316 -0.2127  0.0011 -0.4414
  142MOL0     C19089   1.317   4.546   1.310  0.0981  0.1792  0.5986
  142MOL0     C19090   1.351   4.986   1.251  0.1503 -0.3961 -0.1170
  142MOL0     C19091   1.391   5.072   1.145 -0.5420  0.6223  0.0147
  142MOL0     C19092   1.346   5.209   1.149  0.0211 -0.7560  0.6490
  142MOL0     C19093   1.272   5.252   1.261  0.1339 -0.3410  0.2841
  142MOL0     O19094   1.217   5.379   1.276  0.2164 -0.2761 -0.2091
  142MOL0     C19095   1.278   5.484   1.196 -0.0368  0.7830 -0.1457
  142MOL0     C19096   1.256   5.620   1.261  0.0903  0.5220 -0.0162
  142MOL0     C19097   1.118   5.670   1.228  0.3198 -0.2228 -0.6820
  142MOL0     C19098   1.109   5.804   1.293  0.1375 -0.4267 -0.4323
  142MOL0     C19099   0.967   5.860   1.282 -0.1026 -0.7036 -0.2442
  142MOL0     C19100   0.852   5.895   1.262 -0.2203 -1.0064 -0.4259
  142MOL0     C19101   1.241   5.169   1.369 -0.1203 -0.2495 -0.0809
  142MOL0     C19102   1.277   5.035   1.364  0.0221 -0.6814 -0.2969
  142MOL0     H19103   1.548   4.713   1.489  1.4411 -0.2132 -1.0322
  142MOL0     H19104   1.652   4.504   1.506  0.4305  0.3407 -0.0380
  142MOL0     H19105   1.719   4.331   1.315  2.3280 -0.9261 -0.6755
  142MOL0     H19106   1.751   4.230   1.452 -0.6676  0.1273 -0.0792
  142MOL0     H19107   1.616   4.118   1.206  2.3134 -0.2088 -1.6304
  142MOL0     H19108   1.789   4.099   1.230  1.1104  0.8147  1.9336
  142MOL0     H19109   1.771   4.007   1.439  0.3688  0.8026 -0.1844
  142MOL0     H19110   1.590   3.992   1.432 -1.3887  2.3768 -0.7356
  142MOL0     H19111   1.675   3.867   1.190  0.7848  0.9792  0.5329
  142MOL0     H19112   1.783   3.811   1.320 -1.1486 -1.5324  1.9137
  142MOL0     H19113   1.601   3.765   1.470  0.9410  1.5752 -0.4390
  142MOL0     H19114   1.493   3.827   1.342 -0.1993 -0.4794  0.4813
  142MOL0     H19115   1.506   3.572   1.373  0.0924  0.0420 -0.1581
  142MOL0     H19116   1.520   3.637   1.214  1.6737 -2.5820 -1.3828
  142MOL0     H19117   1.753   3.607   1.192 -0.7699 -0.0960 -0.1686
  142MOL0     H19118   1.770   3.562   1.366 -0.8638  0.9856  1.0873
  142MOL0     H19119   1.594   3.422   1.163  0.5925  0.8043 -0.4461
  142MOL0     H19120   1.657   3.356   1.320  0.3045 -0.5010 -0.6444
  142MOL0     H19121   1.851   3.494   1.001  1.6054  0.1190  0.1870
  142MOL0     H19122   2.171   3.275   1.029  1.3513 -0.0234 -1.1497
  142MOL0     H19123   2.080   3.276   0.891  1.6090  1.6215 -1.4627
  142MOL0     H19124   2.064   3.527   0.878  0.8445  1.6075  0.1048
  142MOL0     H19125   2.231   3.477   0.899 -0.1970  4.4789 -1.8061
  142MOL0     H19126   2.139   3.524   1.162 -0.8302 -1.2916 -0.9824
  142MOL0     H19127   2.057   3.645   1.057  0.0510 -0.7899 -3.9923
  142MOL0     H19128   2.352   3.593   1.079  2.5418  2.0175 -0.3782
  142MOL0     H19129   2.284   3.744   1.137 -1.6012  1.8851 -0.2988
  142MOL0     H19130   2.316   3.867   0.726  0.7481 -1.3657 -1.8712
  142MOL0     H19131   2.537   4.122   0.660 -4.7113  1.6092 -1.3004
  142MOL0     H19132   2.604   3.981   0.567  1.8532  0.7785  1.6891
  142MOL0     H19133   2.431   4.011   0.568 -0.4419  0.7396  0.9756
  142MOL0     H19134   2.958   4.216   0.872 -3.2222 -3.4478 -1.1755
  142MOL0     H19135   3.208   4.286   0.816 -1.7585 -0.1902 -2.9734
  142MOL0     H19136   3.519   3.972   0.715  0.8524  0.6259 -1.2656
  142MOL0     H19137   3.415   4.057   0.588 -1.1721  0.3703  0.1208
  142MOL0     H19138   3.697   4.104   0.662  0.4023  2.5237  1.9272
  142MOL0     H19139   3.586   4.145   0.529  0.3188  1.0189 -0.2527
  142MOL0     H19140   3.503   4.353   0.658  0.1109  0.2692 -0.5279
  142MOL0     H19141   3.671   4.344   0.600  0.6266 -0.5718 -0.0681
  142MOL0     H19142   3.539   4.304   0.876 -0.8545  2.2463 -0.4979
  142MOL0     H19143   3.707   4.249   0.839  0.3912  0.2098  1.4895
  142MOL0     H19144   3.604   4.542   0.823  1.8722  2.4042  0.5387
  142MOL0     H19145   3.755   4.487   0.757 -0.0320 -1.9854 -0.5740
  142MOL0     H19146   3.693   4.471   1.051 -1.5417 -0.3744  0.0678
  142MOL0     H19147   3.832   4.397   0.963 -2.3583 -1.4148  2.9455
  142MOL0     H19148   3.768   4.697   1.001  1.6087  0.8873  3.4092
  142MOL0     H19149   3.880   4.640   0.876  2.8949  2.9471  1.4821
  142MOL0     H19150   4.018   4.518   1.029  2.0906  1.2554  0.5479
  142MOL0     H19151   3.924   4.579   1.164  1.3413 -1.2287 -0.0032
  142MOL0     H19152   3.285   3.868   0.760 -0.3012  0.0052 -0.8257
  142MOL0     H19153   3.071   3.813   0.793  2.2558 -0.1338  1.5015
  142MOL0     H19154   2.715   3.834   1.026  1.3277  0.2704 -1.1633
  142MOL0     H19155   2.502   3.752   1.095 -2.0467  0.8347  0.9545
  142MOL0     H19156   1.321   4.337   1.260  0.6395  0.4615 -1.9522
  142MOL0     H19157   1.223   4.552   1.256  0.5353 -0.7897 -0.3017
  142MOL0     H19158   1.456   5.037   1.066 -0.2916  2.0834 -0.4559
  142MOL0     H19159   1.377   5.285   1.078 -0.1881 -0.4059  0.9270
  142MOL0     H19160   1.383   5.463   1.176 -0.9494 -1.8374 -2.7028
  142MOL0     H19161   1.230   5.478   1.098  0.6596 -2.7380 -0.3983
  142MOL0     H19162   1.322   5.697   1.221 -0.9801  1.0767 -0.7751
  142MOL0     H19163   1.279   5.606   1.367  0.1027  0.0655 -0.0744
  142MOL0     H19164   1.049   5.600   1.278  0.8967 -0.7237 -0.5733
  142MOL0     H19165   1.098   5.682   1.121 -2.3398 -3.6343 -0.7368
  142MOL0     H19166   1.181   5.862   1.235  0.7671  0.3342  1.0698
  142MOL0     H19167   1.137   5.811   1.398  0.5317 -1.9477 -0.4011
  142MOL0     H19168   0.756   5.942   1.265  0.7165  1.4707 -3.7117
  142MOL0     H19169   1.185   5.218   1.449 -0.2319  1.5940 -1.2230
  142MOL0     H19170   1.264   4.976   1.455  1.4700  1.9207  1.7374
  143MOL0     O19171   2.711   7.024   1.802 -0.3011 -0.5455  0.4812
  143MOL0     C19172   2.739   7.137   1.765  0.8189 -0.3651 -0.5492
  143MOL0     O19173   2.649   7.251   1.749  0.0348  0.0971 -0.3869
  143MOL0     C19174   2.510   7.227   1.760  0.3165 -0.5942  0.2402
  143MOL0     C19175   2.438   7.111   1.721 -0.1454 -0.3751  0.4508
  143MOL0     C19176   2.302   7.100   1.746  0.3181  0.2248 -0.5645
  143MOL0     C19177   2.227   7.202   1.817 -0.4662 -0.0625 -0.6266
  143MOL0     O19178   2.099   7.170   1.834 -0.9612  0.1850 -0.1964
  143MOL0     C19179   2.016   7.273   1.883  0.2909 -0.3228 -0.4150
  143MOL0     C19180   1.872   7.213   1.903 -0.1723 -0.1325  0.6193
  143MOL0     C19181   1.871   7.116   2.022 -0.5822  0.0346 -0.0916
  143MOL0     C19182   1.733   7.055   2.053 -0.3366 -0.1024  0.3249
  143MOL0     C19183   1.744   6.943   2.166 -0.3560  0.9750 -0.4326
  143MOL0     C19184   1.791   7.000   2.302  0.1564 -0.1950  0.3157
  143MOL0     C19185   1.681   7.097   2.360 -0.4047 -0.6257  0.7449
  143MOL0     C19186   1.762   7.221   2.407  0.0767  1.0534 -0.0132
  143MOL0     N19187   1.668   7.318   2.461  0.1052 -0.3376 -0.4165
  143MOL0     C19188   1.592   7.398   2.374  0.4388 -0.6788 -0.8942
  143MOL0     C19189   1.522   7.477   2.459 -0.0242  0.4008  0.9596
  143MOL0     C19190   1.416   7.581   2.419  0.7379  0.8176  0.3776
  143MOL0     C19191   1.278   7.512   2.437  0.3040 -0.1429  0.3124
  143MOL0     C19192   1.178   7.618   2.382  0.3196 -0.0635 -0.3608
  143MOL0     C19193   1.037   7.594   2.437  0.5683 -0.8947 -0.4795
  143MOL0     O19194   0.969   7.525   2.336  0.6156  0.4553  0.5319
  143MOL0     C19195   0.841   7.489   2.366  0.5057  0.4163 -0.3443
  143MOL0     C19196   0.750   7.584   2.326  0.6326  0.2008 -0.2870
  143MOL0     C19197   0.610   7.567   2.351 -0.4752 -0.5620  0.1158
  143MOL0     C19198   0.524   7.680   2.308  0.6777 -0.1366  0.8461
  143MOL0     C19199   0.573   7.452   2.437  0.2595 -0.4536  0.6464
  143MOL0     C19200   0.431   7.417   2.462  0.0808 -0.3076  1.4592
  143MOL0     O19201   0.339   7.513   2.428 -0.0216  0.6179 -0.5785
  143MOL0     C19202   0.201   7.486   2.431  0.3980 -0.8257  0.4297
  143MOL0     C19203   0.117   7.587   2.471  0.1579 -0.2887 -0.1043
  143MOL0     C19204  -0.025   7.574   2.489 -0.2513 -0.3198 -1.0355
  143MOL0     C19205  -0.091   7.451   2.449 -0.4847  0.1782 -0.2192
  143MOL0     O19206  -0.225   7.441   2.450 -0.1693 -0.1209  0.5546
  143MOL0     C19207  -0.305   7.533   2.522 -0.2416 -1.2309  0.5697
  143MOL0     C19208  -0.436   7.474   2.568  1.1675  0.4347  0.8382
  143MOL0     C19209  -0.519   7.570   2.661  0.2293  1.0010  0.0552
  143MOL0     C19210  -0.655   7.519   2.693  0.0888  0.4251 -0.5895
  143MOL0     C19211  -0.764   7.524   2.583  0.1681 -0.0851 -0.2614
  143MOL0     C19212  -0.902   7.473   2.641  1.0230 -0.8632  0.1875
  143MOL0     C19213  -1.019   7.528   2.569  0.0285 -0.4561  0.0700
  143MOL0     C19214  -1.144   7.472   2.630  0.2767 -0.6457 -0.3869
  143MOL0    Cl19215  -1.243   7.589   2.724  0.0357 -0.1632 -0.1458
  143MOL0     C19216  -0.007   7.352   2.391  0.1959  0.5230 -0.4450
  143MOL0     C19217   0.134   7.366   2.382  0.3316 -1.2737 -0.1875
  143MOL0     O19218   0.406   7.307   2.507  0.4468  0.1137  0.1848
  143MOL0     C19219   0.664   7.356   2.463 -0.5159 -1.0252 -0.2199
  143MOL0     C19220   0.799   7.372   2.429  0.1272 -0.0106 -0.4730
  143MOL0     N19221   1.566   7.451   2.586  0.5835 -0.2930 -0.2608
  143MOL0     N19222   1.653   7.364   2.587  0.4496  0.3781  0.2250
  143MOL0     C19223   2.292   7.324   1.834 -0.3710  0.2053  0.0604
  143MOL0     C19224   2.432   7.338   1.809  0.6269  0.0724  0.1949
  143MOL0     C19225   2.891   7.153   1.765  0.0522 -0.8651  0.1409
  143MOL0     C19226   2.936   7.282   1.773 -0.2308 -0.3137  0.7356
  143MOL0     C19227   3.074   7.310   1.772  0.2890  0.6500 -0.0276
  143MOL0     C19228   3.167   7.212   1.774  0.9134 -0.5397  0.4366
  143MOL0     O19229   3.294   7.258   1.781  0.0470 -0.3481  0.1884
  143MOL0     C19230   3.405   7.166   1.755 -0.1241  0.0464 -0.2065
  143MOL0     C19231   3.476   7.119   1.888  0.0878  0.0027 -0.5191
  143MOL0     C19232   3.394   7.000   1.944 -0.5722 -0.2977 -0.8062
  143MOL0     C19233   3.466   6.945   2.072 -0.0533  0.1876  0.6469
  143MOL0     C19234   3.373   6.843   2.133 -0.5024 -0.2202  1.2554
  143MOL0     C19235   3.308   6.750   2.180  0.4369  0.8445 -0.3626
  143MOL0     C19236   3.125   7.078   1.769  0.2657 -0.7748 -0.4089
  143MOL0     C19237   2.989   7.055   1.765 -0.5206  0.4553  0.6823
  143MOL0     H19238   2.495   7.030   1.676  0.2260  0.8311 -1.3660
  143MOL0     H19239   2.245   7.010   1.727  0.8203 -0.3202  0.4092
  143MOL0     H19240   2.053   7.320   1.975  3.2571 -0.8045 -1.2651
  143MOL0     H19241   2.012   7.352   1.809  0.5440  1.0740  1.0116
  143MOL0     H19242   1.796   7.289   1.923  0.4407  0.6004  0.2195
  143MOL0     H19243   1.844   7.159   1.812  2.4431 -0.2969 -0.1675
  143MOL0     H19244   1.931   7.033   1.985  0.3556  0.5687  0.1794
  143MOL0     H19245   1.932   7.158   2.103  0.7559 -0.2775 -0.9037
  143MOL0     H19246   1.657   7.129   2.080  0.4653  0.5698  0.7977
  143MOL0     H19247   1.691   7.026   1.957 -1.6960  2.8064 -0.0579
  143MOL0     H19248   1.649   6.892   2.185  0.7465 -0.1492  2.7125
  143MOL0     H19249   1.817   6.873   2.124 -0.6669  0.4117 -0.0371
  143MOL0     H19250   1.796   6.917   2.373  0.7250  1.1883  1.9691
  143MOL0     H19251   1.891   7.043   2.301 -0.0258  0.4023  2.4308
  143MOL0     H19252   1.589   7.122   2.308 -2.3166 -1.8575  3.3194
  143MOL0     H19253   1.646   7.039   2.446 -0.0134 -1.0700  0.6098
  143MOL0     H19254   1.822   7.266   2.326  4.2288 -3.3905  0.1224
  143MOL0     H19255   1.835   7.192   2.483 -1.4262 -1.1822  0.6662
  143MOL0     H19256   1.580   7.392   2.267 -0.2414 -0.5557 -0.8301
  143MOL0     H19257   1.420   7.669   2.484  0.8684  0.1133  1.3532
  143MOL0     H19258   1.430   7.601   2.313 -0.1173  0.7495  0.2440
  143MOL0     H19259   1.254   7.492   2.541 -2.0518  0.7029  0.0043
  143MOL0     H19260   1.269   7.429   2.367  1.3176 -0.2965  0.3493
  143MOL0     H19261   1.188   7.608   2.274  1.3677  1.1052 -0.3923
  143MOL0     H19262   1.203   7.721   2.410 -0.9350 -0.0747  0.9765
  143MOL0     H19263   0.982   7.685   2.462  0.3856 -1.7551  2.5851
  143MOL0     H19264   1.052   7.539   2.530 -1.0326 -0.2970  0.1700
  143MOL0     H19265   0.783   7.675   2.277 -0.4387  0.1590 -1.1191
  143MOL0     H19266   0.464   7.642   2.225  0.1683  0.8479  0.7369
  143MOL0     H19267   0.452   7.708   2.386 -3.1791  0.7573 -2.6591
  143MOL0     H19268   0.567   7.772   2.267 -1.5502 -0.3042 -2.1847
  143MOL0     H19269   0.168   7.678   2.502  0.4582 -0.5480  0.1751
  143MOL0     H19270  -0.077   7.662   2.525  1.2503  0.6335 -1.1092
  143MOL0     H19271  -0.255   7.565   2.614 -1.3297 -0.7377  1.0051
  143MOL0     H19272  -0.317   7.621   2.459 -1.6368 -0.5284  1.7587
  143MOL0     H19273  -0.495   7.447   2.480  0.2504 -1.9572  2.0668
  143MOL0     H19274  -0.431   7.375   2.615  4.2354 -1.0139 -2.1103
  143MOL0     H19275  -0.542   7.662   2.606 -0.0222  1.1116  0.3418
  143MOL0     H19276  -0.466   7.595   2.754  1.7836  1.5637 -0.9491
  143MOL0     H19277  -0.645   7.418   2.736 -1.6010  0.0581 -1.0110
  143MOL0     H19278  -0.689   7.590   2.769  1.8197  1.1191 -0.4108
  143MOL0     H19279  -0.730   7.468   2.495  1.5289  2.6437 -1.5899
  143MOL0     H19280  -0.776   7.628   2.553 -1.8309  0.1277  1.1237
  143MOL0     H19281  -0.903   7.364   2.634  1.4542 -0.7926 -1.4712
  143MOL0     H19282  -0.905   7.498   2.747 -1.4689 -3.2127  0.7724
  143MOL0     H19283  -1.009   7.490   2.467  0.2094 -0.5848  0.1359
  143MOL0     H19284  -1.018   7.637   2.571 -2.2247 -0.3635 -0.7869
  143MOL0     H19285  -1.131   7.385   2.696 -1.7403 -2.2701 -2.0014
  143MOL0     H19286  -1.201   7.439   2.543 -1.3918  0.3681  0.2672
  143MOL0     H19287  -0.039   7.249   2.386  3.2414 -0.5669  0.5107
  143MOL0     H19288   0.187   7.282   2.339 -0.7388 -1.5242 -1.0552
  143MOL0     H19289   0.636   7.266   2.517 -3.3135 -0.5160 -0.6614
  143MOL0     H19290   0.879   7.303   2.453  0.7275 -0.4591 -3.4302
  143MOL0     H19291   2.260   7.407   1.895 -1.0776  0.4079 -0.5726
  143MOL0     H19292   2.478   7.433   1.834  0.5038  0.4058 -0.7672
  143MOL0     H19293   2.861   7.359   1.794  0.4991  0.1271  1.7968
  143MOL0     H19294   3.108   7.411   1.793 -0.8179  0.3015  4.3892
  143MOL0     H19295   3.367   7.091   1.685 -1.6803 -1.3463  2.0162
  143MOL0     H19296   3.478   7.222   1.696  0.8054 -1.7756 -0.8495
  143MOL0     H19297   3.476   7.199   1.961  0.8263 -1.3480  1.0338
  143MOL0     H19298   3.576   7.084   1.857  0.3948  0.1705  0.2687
  143MOL0     H19299   3.393   6.922   1.867 -2.1488  0.6542 -1.8071
  143MOL0     H19300   3.294   7.031   1.973 -0.1049 -0.8819  1.6477
  143MOL0     H19301   3.475   7.032   2.139 -0.0960 -0.4670  1.5232
  143MOL0     H19302   3.562   6.897   2.050 -0.3389 -0.8869  1.6216
  143MOL0     H19303   3.255   6.672   2.229  2.5891 -0.1837  0.4425
  143MOL0     H19304   3.199   6.999   1.763  0.5905 -0.3973 -1.6069
  143MOL0     H19305   2.966   6.950   1.754  2.1107 -0.0364 -1.1370
  144MOL0     O19306   1.656   4.844  10.075 -0.3519  0.9425 -0.4316
  144MOL0     C19307   1.731   4.748  10.089  0.1893 -0.7386 -1.0200
  144MOL0     O19308   1.696   4.612  10.088 -0.8991  0.3086  0.2621
  144MOL0     C19309   1.561   4.589  10.093 -1.0159  0.5346 -0.2912
  144MOL0     C19310   1.511   4.484  10.019 -0.2310  0.2255 -0.6750
  144MOL0     C19311   1.380   4.437  10.035  0.4062  0.0424 -0.4455
  144MOL0     C19312   1.298   4.493  10.132  0.1192 -0.0173  0.1016
  144MOL0     O19313   1.175   4.433  10.146 -0.4562  0.0215  0.2233
  144MOL0     C19314   1.064   4.510  10.181 -0.3729 -0.3126  0.8536
  144MOL0     C19315   1.027   4.601  10.057 -0.3962 -0.0101 -0.3283
  144MOL0     C19316   0.882   4.653  10.061  0.6139  0.1912  0.2484
  144MOL0     C19317   0.777   4.554  10.006 -0.2081  0.5808 -0.4205
  144MOL0     C19318   0.639   4.605  10.012 -0.0307 -0.7565 -0.1982
  144MOL0     C19319   0.529   4.512   9.985 -0.2751  0.0002  0.2401
  144MOL0     C19320   0.395   4.570  10.003 -0.7067  0.2662  0.1455
  144MOL0     C19321   0.287   4.464  10.000  0.9389 -0.9073 -0.1708
  144MOL0     N19322   0.149   4.521  10.023 -0.1643  0.0310 -0.1263
  144MOL0     C19323   0.046   4.501   9.949 -0.5642 -0.0089 -0.5389
  144MOL0     C19324  -0.056   4.573   9.992 -0.6760  0.5596 -0.4145
  144MOL0     C19325  -0.200   4.584   9.949  0.1072 -0.2136 -0.4863
  144MOL0     C19326  -0.297   4.581  10.069 -0.3534  0.4333  0.2468
  144MOL0     C19327  -0.446   4.609  10.013 -0.7295 -0.0222 -0.2716
  144MOL0     C19328  -0.530   4.656  10.125 -0.0439  0.7312  0.1415
  144MOL0     O19329  -0.563   4.548  10.213  0.2139  0.4560  0.7009
  144MOL0     C19330  -0.656   4.559  10.307 -0.0154  0.2637 -0.1249
  144MOL0     C19331  -0.655   4.451  10.395  0.6995  0.5703 -0.2678
  144MOL0     C19332  -0.734   4.432  10.515 -0.6354  0.1876  0.9456
  144MOL0     C19333  -0.701   4.306  10.594  0.4216  0.0100 -0.1813
  144MOL0     C19334  -0.826   4.530  10.537 -0.2322  0.3996  0.0179
  144MOL0     C19335  -0.917   4.530  10.654 -0.4827  0.4664 -0.6611
  144MOL0     O19336  -1.027   4.610  10.642 -0.1720 -0.1366 -0.8148
  144MOL0     C19337  -1.128   4.599  10.734 -0.1501  0.2441  0.8833
  144MOL0     C19338  -1.112   4.635  10.869  0.3427  0.8424 -0.3701
  144MOL0     C19339  -1.216   4.620  10.958  0.4564 -0.0633  0.5941
  144MOL0     C19340  -1.339   4.565  10.918 -0.1213  0.3296 -0.8233
  144MOL0     O19341  -1.435   4.559  11.014 -0.1372 -0.8468  0.5934
  144MOL0     C19342  -1.569   4.574  10.955 -0.6460 -0.8092  0.5199
  144MOL0     C19343  -1.667   4.598  11.062 -0.7740  0.6835 -0.5325
  144MOL0     C19344  -1.685   4.481  11.158 -0.0191  0.1670 -0.2939
  144MOL0     C19345  -1.820   4.491  11.220  0.6026  0.1668 -0.1609
  144MOL0     C19346  -1.835   4.387  11.333  0.0015 -0.2328  0.4878
  144MOL0     C19347  -1.973   4.399  11.409  0.5896  0.7554 -0.1668
  144MOL0     C19348  -1.960   4.308  11.535 -0.4549  0.6930 -0.4255
  144MOL0     C19349  -1.952   4.158  11.499 -0.1564 -0.0641 -0.2047
  144MOL0    Cl19350  -2.084   4.114  11.393 -0.3076  0.1300  0.0286
  144MOL0     C19351  -1.360   4.524  10.788  1.4155 -0.1576 -1.1480
  144MOL0     C19352  -1.256   4.547  10.699 -0.4121  0.3527 -0.4092
  144MOL0     O19353  -0.888   4.458  10.753 -0.3514  0.2470  0.4036
  144MOL0     C19354  -0.830   4.637  10.447  0.8201  0.2384 -0.5557
  144MOL0     C19355  -0.751   4.652  10.331 -0.0525 -0.0538 -0.5393
  144MOL0     N19356  -0.010   4.631  10.108 -0.3756 -0.6213 -0.3209
  144MOL0     N19357   0.112   4.606  10.124  0.3140 -0.3044 -0.9556
  144MOL0     C19358   1.343   4.598  10.212 -0.0979  0.5666 -0.0550
  144MOL0     C19359   1.478   4.641  10.189  0.1830 -0.1689 -0.1069
  144MOL0     C19360   1.870   4.780  10.111  0.0573 -0.3180  0.4899
  144MOL0     C19361   1.913   4.911  10.140  0.5253  0.0848 -0.4252
  144MOL0     C19362   2.046   4.938  10.169  0.0824 -0.8066 -0.7688
  144MOL0     C19363   2.143   4.845  10.157  0.1533 -0.2070  0.9491
  144MOL0     O19364   2.271   4.878  10.176 -0.5826  0.4538 -0.0050
  144MOL0     C19365   2.379   4.808  10.107 -0.2016 -0.6080  0.0141
  144MOL0     C19366   2.497   4.899  10.115 -0.0171 -0.3067 -0.6785
  144MOL0     C19367   2.464   5.041  10.055 -0.0622 -0.2917  0.4800
  144MOL0     C19368   2.587   5.131  10.063 -0.3422  0.7135  0.0133
  144MOL0     C19369   2.695   5.105   9.974 -0.0130  0.3186  0.3295
  144MOL0     C19370   2.776   5.084   9.888  0.0020 -0.5146  0.0915
  144MOL0     C19371   2.103   4.716  10.118  0.1376  0.5042  0.6095
  144MOL0     C19372   1.963   4.679  10.102 -0.3117 -0.0462  0.0095
  144MOL0     H19373   1.573   4.447   9.938  0.5260  0.1133 -0.0575
  144MOL0     H19374   1.361   4.346   9.978  2.8435 -1.6960  1.2834
  144MOL0     H19375   0.983   4.437  10.186  0.1923 -1.0163  0.1186
  144MOL0     H19376   1.070   4.556  10.279 -0.8342  0.1275  0.6769
  144MOL0     H19377   1.097   4.684  10.067  0.3222 -0.6075 -0.3471
  144MOL0     H19378   1.062   4.551   9.966  0.5825 -0.2629  0.1754
  144MOL0     H19379   0.851   4.664  10.166  1.2145  1.9140  0.2636
  144MOL0     H19380   0.869   4.752  10.017 -1.3648  1.4967  3.3613
  144MOL0     H19381   0.814   4.525   9.907  1.3550 -0.0718  0.3118
  144MOL0     H19382   0.784   4.465  10.070  1.4426  1.9812  1.4934
  144MOL0     H19383   0.626   4.648  10.112  4.5302  1.6659 -0.3749
  144MOL0     H19384   0.636   4.679   9.932 -0.0638 -1.0210 -0.4419
  144MOL0     H19385   0.548   4.476   9.883  2.2341 -0.7294  0.8831
  144MOL0     H19386   0.535   4.430  10.057 -2.0489  0.9338  1.5103
  144MOL0     H19387   0.400   4.624  10.099  0.5082  1.7272 -0.6881
  144MOL0     H19388   0.364   4.646   9.932 -0.2587  1.2440  0.9682
  144MOL0     H19389   0.303   4.382  10.071 -2.1495 -1.0710  0.4411
  144MOL0     H19390   0.281   4.433   9.895  0.5965  1.6612 -0.9681
  144MOL0     H19391   0.054   4.436   9.862  1.2662  0.9858 -1.1710
  144MOL0     H19392  -0.220   4.673   9.889 -0.1051 -0.1001 -0.2477
  144MOL0     H19393  -0.231   4.496   9.891  1.0502 -1.3460  0.6621
  144MOL0     H19394  -0.266   4.651  10.147  3.2687  1.3370 -1.7812
  144MOL0     H19395  -0.289   4.475  10.096  2.2634  0.4367 -0.2071
  144MOL0     H19396  -0.481   4.512   9.976  2.3145 -1.7196  0.9194
  144MOL0     H19397  -0.450   4.673   9.925  0.1701 -0.8504 -0.9347
  144MOL0     H19398  -0.622   4.692  10.078  0.0287  0.2194 -0.4103
  144MOL0     H19399  -0.482   4.742  10.171  2.5734 -0.4023 -0.2856
  144MOL0     H19400  -0.587   4.371  10.366 -0.4336  0.2085 -2.0311
  144MOL0     H19401  -0.662   4.320  10.696 -0.1383 -0.7255  0.1477
  144MOL0     H19402  -0.790   4.245  10.614  0.1275  0.3720 -0.3853
  144MOL0     H19403  -0.637   4.238  10.537 -0.0108 -2.7067  2.3154
  144MOL0     H19404  -1.012   4.661  10.903  0.8913  2.1521 -2.7408
  144MOL0     H19405  -1.217   4.646  11.064 -2.1262  1.6321  0.2643
  144MOL0     H19406  -1.559   4.662  10.891  1.0581 -2.2228 -1.3000
  144MOL0     H19407  -1.606   4.488  10.899 -0.8870 -0.8040  0.6714
  144MOL0     H19408  -1.622   4.680  11.119 -0.7333  0.6710 -0.5458
  144MOL0     H19409  -1.759   4.633  11.016 -2.1300 -0.6203  1.0815
  144MOL0     H19410  -1.615   4.486  11.242  0.6226  0.2681 -0.8285
  144MOL0     H19411  -1.664   4.387  11.107  0.9134  0.9939 -1.4883
  144MOL0     H19412  -1.847   4.593  11.249 -2.7139 -0.7196  0.3008
  144MOL0     H19413  -1.890   4.462  11.142  1.1188  1.2397 -1.0466
  144MOL0     H19414  -1.750   4.409  11.398  0.1742 -0.1002  0.2172
  144MOL0     H19415  -1.829   4.287  11.291 -0.8135  1.1526 -3.3488
  144MOL0     H19416  -1.991   4.502  11.438  1.6155  0.6361  0.9780
  144MOL0     H19417  -2.051   4.360  11.343  1.9894 -0.8096 -0.9865
  144MOL0     H19418  -2.046   4.324  11.600 -0.7587 -1.4730 -0.2143
  144MOL0     H19419  -1.870   4.332  11.593  0.1631 -2.9201  0.3219
  144MOL0     H19420  -1.966   4.092  11.585  0.8829  0.1016  0.1111
  144MOL0     H19421  -1.861   4.133  11.443 -0.7209  0.6864 -1.4858
  144MOL0     H19422  -1.445   4.464  10.759 -2.6721  2.4433  3.9121
  144MOL0     H19423  -1.289   4.533  10.597 -0.7904  3.5178 -0.8534
  144MOL0     H19424  -0.907   4.711  10.465  2.4081  1.6039  1.0225
  144MOL0     H19425  -0.775   4.732  10.262  2.1851  2.2659  1.1640
  144MOL0     H19426   1.297   4.648  10.296  0.8434 -1.2224  1.6058
  144MOL0     H19427   1.513   4.724  10.248  0.2674  0.2953 -0.7947
  144MOL0     H19428   1.837   4.988  10.143  1.7730  1.3598 -0.3502
  144MOL0     H19429   2.062   5.038  10.206 -0.4863  1.0883 -4.9939
  144MOL0     H19430   2.403   4.712  10.153 -2.6812 -1.3389 -0.0463
  144MOL0     H19431   2.354   4.787  10.002  0.2654  2.7938 -0.9097
  144MOL0     H19432   2.581   4.856  10.059  0.7795 -0.1475  0.3579
  144MOL0     H19433   2.525   4.911  10.220 -1.1530  0.9844 -0.4901
  144MOL0     H19434   2.395   5.094  10.121 -2.1677  0.2270 -1.9974
  144MOL0     H19435   2.430   5.031   9.952 -1.4666 -1.6452  1.0275
  144MOL0     H19436   2.642   5.129  10.157  3.9226  3.3857 -2.1221
  144MOL0     H19437   2.550   5.232  10.046  0.4108  0.7717 -1.4169
  144MOL0     H19438   2.863   5.082   9.825 -1.1081 -1.8593 -1.4549
  144MOL0     H19439   2.181   4.641  10.104 -0.6854 -0.7662  2.3964
  144MOL0     H19440   1.930   4.576  10.091 -0.8226 -0.0157  1.0884
  145MOL0     O19441   5.549   7.668   0.147 -0.0972  0.3379 -0.3875
  145MOL0     C19442   5.520   7.670   0.028  0.0655  0.6418 -0.3293
  145MOL0     O19443   5.441   7.583  -0.036  0.1022  0.8424 -0.2862
  145MOL0     C19444   5.337   7.516   0.033 -0.4105  0.7161 -0.6804
  145MOL0     C19445   5.258   7.569   0.137 -1.1447  0.2865 -0.0735
  145MOL0     C19446   5.176   7.481   0.207 -0.1913  0.2001  0.3176
  145MOL0     C19447   5.148   7.345   0.152  0.3259 -0.4331  0.4697
  145MOL0     O19448   5.050   7.265   0.204  0.1404  0.3083  0.9140
  145MOL0     C19449   5.033   7.265   0.348  0.3603  0.1919 -0.0356
  145MOL0     C19450   4.887   7.301   0.373  0.7956 -0.5115  0.0028
  145MOL0     C19451   4.866   7.341   0.523  0.1592  0.2139 -0.0194
  145MOL0     C19452   4.835   7.217   0.611  0.5198  0.6956 -0.0150
  145MOL0     C19453   4.783   7.278   0.738 -0.2477 -0.0079  0.6373
  145MOL0     C19454   4.749   7.191   0.855 -0.5985  0.0144 -0.1403
  145MOL0     C19455   4.623   7.113   0.838 -0.2100  0.4731 -0.6280
  145MOL0     C19456   4.559   7.098   0.981  0.7170  0.3928  0.2719
  145MOL0     N19457   4.437   7.015   0.981 -0.6517 -0.5175  0.2617
  145MOL0     C19458   4.332   7.045   0.902 -0.6268 -0.2644 -0.0314
  145MOL0     C19459   4.252   6.948   0.937 -0.9153 -0.2935 -0.1177
  145MOL0     C19460   4.107   6.952   0.895  0.4435  0.4289 -0.0703
  145MOL0     C19461   4.029   7.005   1.006  0.5626 -0.3503  0.4052
  145MOL0     C19462   4.013   6.900   1.123  0.0778  0.3674 -0.5179
  145MOL0     C19463   3.928   6.950   1.235 -0.5136 -0.5871 -0.6082
  145MOL0     O19464   3.789   6.983   1.211  0.4321  0.1298  0.3216
  145MOL0     C19465   3.711   6.886   1.162 -0.3703 -0.4520 -0.6027
  145MOL0     C19466   3.740   6.754   1.173  0.5938  0.5680 -0.2405
  145MOL0     C19467   3.653   6.661   1.126  0.6794  0.0172  2.0915
  145MOL0     C19468   3.708   6.515   1.131  0.5586 -0.2619  0.1408
  145MOL0     C19469   3.527   6.698   1.063  0.0373  0.4496  0.1771
  145MOL0     C19470   3.435   6.596   1.012  0.3520 -0.3709  0.0804
  145MOL0     O19471   3.300   6.631   1.010  0.6981 -0.0623  0.6017
  145MOL0     C19472   3.204   6.531   0.994  0.6285  0.9339 -0.1942
  145MOL0     C19473   3.210   6.417   0.904  0.5516  0.5384  0.4766
  145MOL0     C19474   3.104   6.328   0.903 -0.1163  0.1704  0.1925
  145MOL0     C19475   2.983   6.346   0.970  0.1493  0.0304 -0.2135
  145MOL0     O19476   2.883   6.255   0.955  0.2745 -0.1190 -0.6862
  145MOL0     C19477   2.838   6.230   0.820 -0.3650 -0.2631 -0.6386
  145MOL0     C19478   2.683   6.242   0.815 -0.0075  0.1098  0.5654
  145MOL0     C19479   2.602   6.111   0.811  0.2755  0.3865 -0.1595
  145MOL0     C19480   2.451   6.140   0.784  0.6119 -0.0311 -0.6037
  145MOL0     C19481   2.383   6.022   0.713  0.6415 -0.7511 -0.0388
  145MOL0     C19482   2.223   6.033   0.717 -0.7757  0.3538  0.4346
  145MOL0     C19483   2.164   5.921   0.639 -0.9007 -0.3271 -0.4428
  145MOL0     C19484   2.016   5.898   0.668 -1.2332 -0.4093  0.0435
  145MOL0    Cl19485   1.919   6.048   0.662 -0.1803 -0.4720 -0.5954
  145MOL0     C19486   2.971   6.459   1.052  0.1634  0.1705 -0.4965
  145MOL0     C19487   3.082   6.540   1.060  0.6642 -0.5760  0.1000
  145MOL0     O19488   3.477   6.488   0.979 -0.1900 -0.1488  0.5837
  145MOL0     C19489   3.491   6.832   1.068 -0.0672  0.0157 -0.4216
  145MOL0     C19490   3.587   6.926   1.111 -0.2973  0.3852  0.9493
  145MOL0     N19491   4.312   6.855   1.025  0.2036 -0.1204  1.0850
  145MOL0     N19492   4.425   6.907   1.059 -0.6203 -0.3862  0.2333
  145MOL0     C19493   5.217   7.304   0.043  0.8838  0.4544 -0.1190
  145MOL0     C19494   5.317   7.389  -0.018  0.1399  0.7143 -0.0893
  145MOL0     C19495   5.594   7.759  -0.055  0.9882 -0.4288  0.0690
  145MOL0     C19496   5.680   7.854   0.004 -0.8780  0.2404  0.8901
  145MOL0     C19497   5.768   7.926  -0.083 -0.2713 -0.0558  0.3722
  145MOL0     C19498   5.763   7.911  -0.224  0.3354  0.3186 -0.7997
  145MOL0     O19499   5.858   7.983  -0.283  0.8711 -0.4372  0.4126
  145MOL0     C19500   5.877   7.961  -0.426  0.7027 -0.3665 -0.4524
  145MOL0     C19501   5.996   7.875  -0.470 -0.7325 -1.0878 -0.0042
  145MOL0     C19502   5.971   7.720  -0.453  0.0192 -1.0310 -0.5943
  145MOL0     C19503   6.037   7.633  -0.561  0.4737 -0.5661 -0.6569
  145MOL0     C19504   6.185   7.618  -0.551  0.0403  0.7143 -0.2329
  145MOL0     C19505   6.306   7.613  -0.538  0.6579  0.1405  0.0587
  145MOL0     C19506   5.679   7.810  -0.277  0.3249 -1.2244 -0.2086
  145MOL0     C19507   5.593   7.738  -0.193  0.5195 -0.1389  0.4618
  145MOL0     H19508   5.278   7.670   0.170 -1.5141 -0.3730  2.4188
  145MOL0     H19509   5.134   7.516   0.301 -1.8399 -1.9895  0.4789
  145MOL0     H19510   5.050   7.163   0.385  1.0131  0.9260  1.8108
  145MOL0     H19511   5.107   7.334   0.390  0.1470  0.0240  0.6257
  145MOL0     H19512   4.871   7.396   0.320 -0.4646 -1.2669 -1.0214
  145MOL0     H19513   4.817   7.230   0.329  1.4073 -0.0616 -1.7910
  145MOL0     H19514   4.957   7.391   0.558 -1.8286  1.9512  3.1025
  145MOL0     H19515   4.798   7.425   0.539 -0.8000 -0.2102 -1.6283
  145MOL0     H19516   4.762   7.146   0.573  1.8677 -1.8641  1.8596
  145MOL0     H19517   4.923   7.158   0.636 -0.2375 -0.4095  0.0946
  145MOL0     H19518   4.859   7.351   0.765 -0.9483  2.6114 -3.4649
  145MOL0     H19519   4.701   7.345   0.708  1.2642  1.7751  0.2600
  145MOL0     H19520   4.833   7.124   0.879 -0.8998 -0.1700  0.4177
  145MOL0     H19521   4.740   7.262   0.937  0.9321  0.9866 -0.7756
  145MOL0     H19522   4.556   7.164   0.769 -0.4243  0.6839 -0.2639
  145MOL0     H19523   4.646   7.020   0.785 -0.7883  0.7743 -1.4226
  145MOL0     H19524   4.551   7.199   1.024 -1.9405  0.5738 -0.4633
  145MOL0     H19525   4.629   7.048   1.049  1.9095  1.5196 -0.0779
  145MOL0     H19526   4.318   7.127   0.832  0.9544  0.0396 -0.0310
  145MOL0     H19527   4.092   7.030   0.819 -4.1240  1.7207  1.7948
  145MOL0     H19528   4.070   6.853   0.870 -0.1026  0.4470  0.6334
  145MOL0     H19529   3.928   7.015   0.966  1.0087 -2.0171 -1.2876
  145MOL0     H19530   4.070   7.097   1.049 -0.4224  0.3460 -0.1064
  145MOL0     H19531   4.111   6.879   1.168  1.3300  2.7456 -1.8684
  145MOL0     H19532   3.977   6.808   1.077 -1.0831  1.2264 -1.3709
  145MOL0     H19533   3.969   7.032   1.294 -1.1954 -1.2015  0.7458
  145MOL0     H19534   3.922   6.872   1.310 -1.2746  0.6929  0.7254
  145MOL0     H19535   3.828   6.724   1.229  1.3353  1.8009 -0.7121
  145MOL0     H19536   3.807   6.504   1.176  2.3097  0.6338 -3.2188
  145MOL0     H19537   3.639   6.449   1.184 -0.3702 -0.7762 -1.6209
  145MOL0     H19538   3.730   6.479   1.030  1.4242  0.3044  0.1153
  145MOL0     H19539   3.301   6.399   0.847  0.4993 -0.8844  0.7935
  145MOL0     H19540   3.125   6.235   0.851 -1.2021 -1.7225  2.9570
  145MOL0     H19541   2.886   6.299   0.750  2.8529 -0.7203  0.9338
  145MOL0     H19542   2.869   6.131   0.786  0.1635 -0.0786 -0.6992
  145MOL0     H19543   2.652   6.301   0.902  2.7972  1.7031  0.6435
  145MOL0     H19544   2.640   6.292   0.728 -2.0992  0.3823  1.6952
  145MOL0     H19545   2.610   6.072   0.913 -2.4754  1.0235  0.3935
  145MOL0     H19546   2.636   6.037   0.738 -1.7189  0.8342 -1.6265
  145MOL0     H19547   2.392   6.173   0.869  0.4731  2.1190 -1.4564
  145MOL0     H19548   2.450   6.219   0.708  1.8285  0.2167 -0.3848
  145MOL0     H19549   2.416   5.929   0.760 -2.2300 -1.2888  1.1115
  145MOL0     H19550   2.403   6.022   0.605 -3.2344  1.1870 -0.9525
  145MOL0     H19551   2.180   6.037   0.818 -2.6393  0.3007 -0.3085
  145MOL0     H19552   2.204   6.130   0.670  0.3008  1.0543  1.3839
  145MOL0     H19553   2.224   5.833   0.663 -3.0829 -1.5842  0.6048
  145MOL0     H19554   2.177   5.935   0.531 -0.9218  1.2797 -0.2680
  145MOL0     H19555   2.015   5.869   0.773  0.0432  0.0657  0.1951
  145MOL0     H19556   1.976   5.827   0.595 -0.8057 -1.0402  0.4208
  145MOL0     H19557   2.882   6.469   1.114 -0.6656 -1.0151 -1.4365
  145MOL0     H19558   3.084   6.627   1.126  2.7672  0.9906 -1.8439
  145MOL0     H19559   3.394   6.870   1.037  0.4576  0.8435 -1.0846
  145MOL0     H19560   3.562   7.032   1.109  0.0230  0.4531 -0.8579
  145MOL0     H19561   5.201   7.207  -0.001 -1.4800  1.0654 -0.7202
  145MOL0     H19562   5.387   7.350  -0.091  1.8079  0.1229  1.7635
  145MOL0     H19563   5.692   7.851   0.111  2.5569  1.1450  0.6372
  145MOL0     H19564   5.839   7.994  -0.036  0.7855 -1.8937  1.5209
  145MOL0     H19565   5.788   7.934  -0.483 -2.1261 -0.6742  3.7387
  145MOL0     H19566   5.914   8.052  -0.476 -2.4030  1.3186  0.0615
  145MOL0     H19567   6.088   7.905  -0.420 -0.8093 -0.5116 -0.1931
  145MOL0     H19568   6.004   7.885  -0.579  2.0012  3.1406  0.3603
  145MOL0     H19569   5.866   7.707  -0.481  0.5871  0.4976 -3.8766
  145MOL0     H19570   5.992   7.685  -0.351 -1.3511 -2.8368 -0.8718
  145MOL0     H19571   6.013   7.671  -0.661  4.3135  1.3173 -1.0681
  145MOL0     H19572   6.000   7.530  -0.558  1.6326 -1.0003  2.4713
  145MOL0     H19573   6.410   7.585  -0.531  1.0455  0.8199 -2.2700
  145MOL0     H19574   5.685   7.774  -0.379 -0.9873 -1.5281 -0.1993
  145MOL0     H19575   5.528   7.669  -0.245  3.1803 -1.8245 -0.8446
  146MOL0     O19576   5.743   4.544   9.255  0.7720 -0.2418 -0.5435
  146MOL0     C19577   5.843   4.481   9.294  0.0406 -0.3115 -0.9882
  146MOL0     O19578   5.839   4.370   9.383 -0.4251  0.3134 -1.1244
  146MOL0     C19579   5.719   4.312   9.412 -0.8148  0.2822 -0.0079
  146MOL0     C19580   5.668   4.315   9.546  0.9649 -0.5193 -0.5680
  146MOL0     C19581   5.553   4.253   9.574  0.1539 -0.2056  0.6165
  146MOL0     C19582   5.488   4.180   9.469 -0.6241 -0.3894  0.6947
  146MOL0     O19583   5.356   4.146   9.491 -0.7496  1.5189 -0.1527
  146MOL0     C19584   5.306   4.025   9.432 -0.2221 -0.2914 -0.7482
  146MOL0     C19585   5.169   4.022   9.492  0.4849  0.0065 -0.3928
  146MOL0     C19586   5.091   3.911   9.419  0.8216  0.5295 -0.1893
  146MOL0     C19587   4.960   3.864   9.478  0.9965 -0.0694 -0.3693
  146MOL0     C19588   4.873   3.789   9.381 -0.1040  0.6615  0.3644
  146MOL0     C19589   4.760   3.733   9.469 -0.5928 -0.7000 -0.4634
  146MOL0     C19590   4.658   3.652   9.391  0.1341 -0.8045  1.0434
  146MOL0     C19591   4.533   3.619   9.474 -0.2167 -0.2602  0.4059
  146MOL0     N19592   4.456   3.519   9.408  0.3503  0.2755  1.0411
  146MOL0     C19593   4.419   3.521   9.270 -0.4261 -0.3251  0.5317
  146MOL0     C19594   4.366   3.403   9.240  0.0448  0.4019  0.2173
  146MOL0     C19595   4.286   3.360   9.118 -0.1597  0.1382 -0.5244
  146MOL0     C19596   4.139   3.406   9.133  0.1174  0.5675  0.5448
  146MOL0     C19597   4.077   3.336   9.252  0.1100 -0.5378 -0.4189
  146MOL0     C19598   3.924   3.324   9.248 -0.2790  0.0808 -0.0584
  146MOL0     O19599   3.873   3.256   9.361 -0.0489  0.8967 -0.4048
  146MOL0     C19600   3.744   3.291   9.394  0.4522 -0.1999  0.5729
  146MOL0     C19601   3.651   3.322   9.296 -0.6004 -0.8358  0.0212
  146MOL0     C19602   3.513   3.344   9.321 -0.3692 -0.3797  0.0495
  146MOL0     C19603   3.421   3.374   9.200 -0.7652  0.6225  0.0890
  146MOL0     C19604   3.469   3.330   9.453 -0.6378 -0.4763 -0.1951
  146MOL0     C19605   3.328   3.342   9.494 -0.0324 -1.1397 -0.3842
  146MOL0     O19606   3.284   3.267   9.599  0.4476  0.5604 -0.7549
  146MOL0     C19607   3.148   3.268   9.619 -0.2540 -0.2741  0.5061
  146MOL0     C19608   3.105   3.374   9.698 -0.1714 -0.2877 -0.5472
  146MOL0     C19609   2.970   3.372   9.743 -0.4095  0.1839 -0.4612
  146MOL0     C19610   2.876   3.273   9.713  0.0315  0.2876  0.4546
  146MOL0     O19611   2.752   3.272   9.770  0.7272  0.8748  0.2764
  146MOL0     C19612   2.653   3.170   9.732 -0.1933 -0.3360 -0.1164
  146MOL0     C19613   2.521   3.195   9.808 -0.1237 -0.2404 -0.8776
  146MOL0     C19614   2.438   3.298   9.741  0.0677  0.7959  0.5469
  146MOL0     C19615   2.355   3.233   9.630  0.1394 -0.3933 -0.5772
  146MOL0     C19616   2.253   3.336   9.578  0.2053 -0.8493  0.1616
  146MOL0     C19617   2.181   3.283   9.452  0.9200 -0.0077 -0.1378
  146MOL0     C19618   2.066   3.379   9.431  0.2606  0.0916 -0.0887
  146MOL0     C19619   1.944   3.352   9.514  0.1877  0.1274  0.0283
  146MOL0    Cl19620   1.890   3.187   9.478 -0.0385 -0.5068 -0.1678
  146MOL0     C19621   2.926   3.164   9.635  0.2957 -0.1545  0.7556
  146MOL0     C19622   3.057   3.167   9.588 -0.2127 -0.1656 -0.0052
  146MOL0     O19623   3.256   3.431   9.439  0.0096  0.4800  0.7300
  146MOL0     C19624   3.564   3.297   9.557 -0.2346  0.6046 -0.7613
  146MOL0     C19625   3.700   3.280   9.528  0.3646  0.0896 -0.2408
  146MOL0     N19626   4.377   3.324   9.354  0.5511 -0.7260  0.1233
  146MOL0     N19627   4.425   3.398   9.453 -0.2523  0.8404 -0.4348
  146MOL0     C19628   5.557   4.170   9.349  0.1120 -0.0872  0.0660
  146MOL0     C19629   5.672   4.224   9.317 -0.4318 -0.3476 -0.0722
  146MOL0     C19630   5.972   4.527   9.249 -0.0190  0.3129  0.0438
  146MOL0     C19631   5.986   4.657   9.216 -1.2239  0.6208 -0.1388
  146MOL0     C19632   6.117   4.713   9.181 -0.2816  0.3840 -0.3067
  146MOL0     C19633   6.229   4.633   9.162  0.1661  0.5886  0.6473
  146MOL0     O19634   6.339   4.694   9.109 -0.8419  0.2117  0.7568
  146MOL0     C19635   6.386   4.628   8.985  0.9416 -0.3372  0.9271
  146MOL0     C19636   6.298   4.669   8.860  0.3207 -0.0160 -0.9402
  146MOL0     C19637   6.342   4.802   8.805  0.2533 -0.9343 -0.1972
  146MOL0     C19638   6.251   4.826   8.684 -0.2328  0.2800 -0.4426
  146MOL0     C19639   6.103   4.825   8.705 -0.0728  0.4879 -0.1830
  146MOL0     C19640   5.986   4.833   8.738  0.9428  0.1764 -0.7228
  146MOL0     C19641   6.215   4.500   9.197  0.7245  0.7055 -0.7743
  146MOL0     C19642   6.086   4.438   9.236  0.1496  0.1128  0.4268
  146MOL0     H19643   5.727   4.372   9.618 -0.5670 -0.1961  0.4676
  146MOL0     H19644   5.505   4.254   9.671 -0.5748 -2.6342  0.3578
  146MOL0     H19645   5.292   4.035   9.324 -0.7686 -0.6795 -0.7109
  146MOL0     H19646   5.362   3.939   9.469 -0.5266  0.5708  1.9111
  146MOL0     H19647   5.177   4.002   9.600 -0.4530 -0.1685 -0.3459
  146MOL0     H19648   5.113   4.116   9.487 -0.7452 -0.6699  0.0556
  146MOL0     H19649   5.077   3.950   9.317 -0.5358 -0.6658 -0.4980
  146MOL0     H19650   5.164   3.831   9.411  4.4108  3.5093  0.3270
  146MOL0     H19651   4.985   3.799   9.563 -0.9279  0.5616  0.7499
  146MOL0     H19652   4.898   3.948   9.511  1.3525  1.2454 -2.8501
  146MOL0     H19653   4.843   3.854   9.298  1.3398 -1.8367 -2.2931
  146MOL0     H19654   4.928   3.700   9.351 -2.3356 -0.9438  0.8187
  146MOL0     H19655   4.806   3.671   9.547 -0.3943  1.1145  0.9405
  146MOL0     H19656   4.704   3.814   9.518  0.3268 -1.1318  1.3944
  146MOL0     H19657   4.634   3.716   9.305 -2.4372 -0.6374  1.8283
  146MOL0     H19658   4.713   3.564   9.356 -0.7271 -0.2850 -1.8958
  146MOL0     H19659   4.475   3.711   9.487  1.8633  1.3689 -1.0578
  146MOL0     H19660   4.543   3.575   9.574 -3.2505  0.2845  1.0322
  146MOL0     H19661   4.428   3.603   9.199 -0.3539 -2.7560 -2.4790
  146MOL0     H19662   4.334   3.406   9.032 -0.5117  1.3109 -0.1042
  146MOL0     H19663   4.291   3.253   9.093  1.2847  0.5712 -2.3409
  146MOL0     H19664   4.092   3.378   9.039 -0.3503  0.2628  0.8654
  146MOL0     H19665   4.119   3.514   9.130 -1.0461  0.4477 -4.7273
  146MOL0     H19666   4.109   3.379   9.347 -0.5720  1.8718 -1.2117
  146MOL0     H19667   4.108   3.231   9.254  0.3712 -0.5175 -2.0261
  146MOL0     H19668   3.895   3.262   9.163  0.8651 -1.2771  0.4896
  146MOL0     H19669   3.890   3.427   9.241  1.3363  0.5410 -2.1687
  146MOL0     H19670   3.675   3.348   9.194  2.6915 -2.9531  0.1272
  146MOL0     H19671   3.347   3.294   9.194 -1.7456  1.2377  2.5565
  146MOL0     H19672   3.373   3.470   9.222 -0.0964  0.9595  0.0922
  146MOL0     H19673   3.470   3.385   9.103 -0.8022  2.7260  0.2747
  146MOL0     H19674   3.176   3.442   9.746 -1.5970  1.0100 -0.1922
  146MOL0     H19675   2.958   3.460   9.806  0.5592 -0.0413  0.0536
  146MOL0     H19676   2.637   3.190   9.626  1.0704 -2.3235 -0.7489
  146MOL0     H19677   2.690   3.067   9.736 -0.8226 -0.5390  1.3051
  146MOL0     H19678   2.471   3.098   9.815  1.1171 -0.7738  2.5431
  146MOL0     H19679   2.543   3.230   9.909 -2.4688  1.3349 -0.8303
  146MOL0     H19680   2.511   3.368   9.698  0.2850  0.8024  0.9180
  146MOL0     H19681   2.369   3.354   9.804 -3.5031 -0.6157 -1.8167
  146MOL0     H19682   2.418   3.203   9.546 -0.1629  1.7897 -1.6741
  146MOL0     H19683   2.291   3.153   9.667 -1.0335 -0.7429 -3.1432
  146MOL0     H19684   2.304   3.433   9.570  1.1663 -0.8134  4.2707
  146MOL0     H19685   2.172   3.352   9.649  0.1891  0.2754 -0.0814
  146MOL0     H19686   2.251   3.299   9.370  0.1654  1.1784 -0.5742
  146MOL0     H19687   2.155   3.177   9.448  0.8473 -0.0533  1.2129
  146MOL0     H19688   2.043   3.355   9.327  2.6429 -0.1931 -0.6190
  146MOL0     H19689   2.090   3.486   9.429 -0.5515  0.2689 -1.7932
  146MOL0     H19690   1.865   3.419   9.480 -0.5589 -2.2043 -3.3128
  146MOL0     H19691   1.965   3.353   9.621 -2.0050 -1.0757  0.5301
  146MOL0     H19692   2.876   3.071   9.611  0.9761  0.2335 -2.6636
  146MOL0     H19693   3.099   3.084   9.533 -1.3757 -0.1868 -0.9048
  146MOL0     H19694   3.529   3.279   9.658 -2.9517 -1.3519 -1.9136
  146MOL0     H19695   3.766   3.247   9.608 -1.8162 -0.8790  1.2766
  146MOL0     H19696   5.513   4.107   9.272 -0.6233  1.3648 -0.7483
  146MOL0     H19697   5.715   4.204   9.219  0.1508 -3.6860  0.7509
  146MOL0     H19698   5.893   4.713   9.221 -1.6319 -0.1243  1.0076
  146MOL0     H19699   6.135   4.819   9.168  0.9636  0.1733 -0.3629
  146MOL0     H19700   6.486   4.661   8.956  0.9610  0.8953  2.2584
  146MOL0     H19701   6.387   4.520   9.002  2.1015 -0.1907  1.9190
  146MOL0     H19702   6.199   4.658   8.905  1.5801  3.8176  3.6927
  146MOL0     H19703   6.316   4.592   8.784  0.6956  2.9628 -4.1159
  146MOL0     H19704   6.446   4.805   8.772  0.1099  2.2515 -0.7368
  146MOL0     H19705   6.335   4.877   8.884  0.8825 -1.9872  0.8800
  146MOL0     H19706   6.290   4.768   8.600 -0.1161  2.2665 -1.8227
  146MOL0     H19707   6.278   4.927   8.652  0.0897  0.2414 -0.2978
  146MOL0     H19708   5.885   4.841   8.773  0.7980 -0.1015 -1.0807
  146MOL0     H19709   6.303   4.438   9.192  0.0900 -0.4318  1.1727
  146MOL0     H19710   6.075   4.336   9.270  0.3877  0.3697  1.3115
  147MOL0     O19711   6.447  11.093   2.603 -0.0731 -0.5404  0.7328
  147MOL0     C19712   6.415  10.981   2.560 -0.1439 -0.2441  0.1804
  147MOL0     O19713   6.291  10.926   2.562 -0.2916  0.3005  0.3279
  147MOL0     C19714   6.173  10.998   2.558  1.5568  0.3462  0.4730
  147MOL0     C19715   6.159  11.139   2.525 -0.0942 -0.3057  0.8971
  147MOL0     C19716   6.028  11.196   2.503  0.3150  0.3469  0.1226
  147MOL0     C19717   5.914  11.108   2.514 -0.4645  0.0931 -0.3710
  147MOL0     O19718   5.787  11.161   2.495 -0.2847  0.7937  0.2628
  147MOL0     C19719   5.714  11.211   2.608 -1.1348  0.8509 -0.6275
  147MOL0     C19720   5.607  11.314   2.569 -0.1763  0.3629  0.3133
  147MOL0     C19721   5.648  11.455   2.521 -0.4134  0.8157 -0.0972
  147MOL0     C19722   5.761  11.463   2.420  0.1281 -0.8950 -0.4040
  147MOL0     C19723   5.730  11.388   2.292  0.8865  0.4690  0.3960
  147MOL0     C19724   5.860  11.401   2.197  0.2007 -0.2152 -0.2939
  147MOL0     C19725   5.850  11.325   2.061  0.8796  0.0660 -0.5472
  147MOL0     C19726   5.916  11.190   2.067  0.5519  0.0556  0.6524
  147MOL0     N19727   6.063  11.203   2.059  0.1784  0.6153 -0.8664
  147MOL0     C19728   6.142  11.226   2.162 -0.4267 -0.1297 -0.5758
  147MOL0     C19729   6.261  11.269   2.108  0.1223  0.2731  0.7876
  147MOL0     C19730   6.381  11.318   2.192 -0.4284 -0.2792  0.8375
  147MOL0     C19731   6.477  11.409   2.113 -0.0871  0.3080  0.1856
  147MOL0     C19732   6.597  11.327   2.050 -0.1950  0.0820 -0.0550
  147MOL0     C19733   6.713  11.269   2.138  0.5707  1.1418  0.1651
  147MOL0     O19734   6.787  11.377   2.202  0.1086  0.0075  0.0074
  147MOL0     C19735   6.855  11.325   2.309  0.0443 -0.2744  0.5190
  147MOL0     C19736   6.974  11.259   2.288  1.0907 -0.6133  0.8875
  147MOL0     C19737   7.045  11.192   2.382 -0.4311  0.5798 -0.6442
  147MOL0     C19738   7.180  11.131   2.336  1.0572  0.4214  0.3060
  147MOL0     C19739   6.986  11.177   2.511 -0.5989  0.3219 -0.1289
  147MOL0     C19740   7.028  11.096   2.627 -0.2346 -0.1448  0.4038
  147MOL0     O19741   6.933  11.061   2.719  0.1674  0.2182 -0.2940
  147MOL0     C19742   6.974  10.975   2.816 -0.5387 -0.4297  0.4352
  147MOL0     C19743   6.998  10.842   2.790 -0.0159 -0.2484  0.2687
  147MOL0     C19744   7.048  10.756   2.895 -0.3586  0.2024  0.9426
  147MOL0     C19745   7.043  10.795   3.023  0.4145  0.0722 -0.2685
  147MOL0     O19746   7.070  10.699   3.115  0.6420 -0.5580 -0.5406
  147MOL0     C19747   6.989  10.681   3.233  0.5604  0.2222  0.7941
  147MOL0     C19748   6.855  10.611   3.213 -0.3394  0.2269  0.5185
  147MOL0     C19749   6.885  10.469   3.136  0.2203  0.3342  0.0322
  147MOL0     C19750   6.764  10.375   3.146  1.0325 -1.2942  0.0836
  147MOL0     C19751   6.768  10.231   3.108  0.2038 -0.4850 -0.3423
  147MOL0     C19752   6.856  10.144   3.198  0.2961  0.0272  0.2980
  147MOL0     C19753   6.859   9.997   3.162 -0.1059  0.9782 -0.1524
  147MOL0     C19754   6.912   9.954   3.030  0.0359 -0.0109  0.8522
  147MOL0    Cl19755   7.083   9.997   3.016  0.0886  0.0984 -0.1365
  147MOL0     C19756   6.998  10.925   3.058 -0.3109 -0.1468  0.2764
  147MOL0     C19757   6.965  11.008   2.950  0.1219 -0.1946  0.6881
  147MOL0     O19758   7.149  11.062   2.627 -0.2933 -0.5235  0.5077
  147MOL0     C19759   6.866  11.251   2.534 -0.2125 -0.9637  0.2376
  147MOL0     C19760   6.804  11.329   2.434  0.7083 -0.1881 -0.4417
  147MOL0     N19761   6.248  11.261   1.969  0.8100 -0.2128 -0.1974
  147MOL0     N19762   6.123  11.227   1.940 -0.8426  0.0716  0.2817
  147MOL0     C19763   5.924  10.971   2.549  0.0338  0.2579 -0.6625
  147MOL0     C19764   6.054  10.923   2.568  0.0922  0.1318 -0.2071
  147MOL0     C19765   6.517  10.900   2.516 -0.7367 -0.5053 -0.3044
  147MOL0     C19766   6.490  10.782   2.452 -0.0024 -0.6660 -0.0411
  147MOL0     C19767   6.589  10.719   2.376  0.5836  0.7537 -0.5744
  147MOL0     C19768   6.724  10.760   2.377  0.3598 -0.9396  0.7930
  147MOL0     O19769   6.837  10.714   2.310  0.2628  0.4719  0.4605
  147MOL0     C19770   6.828  10.580   2.267  0.5584  0.4307 -0.5134
  147MOL0     C19771   6.944  10.536   2.175  0.4193  1.0250 -0.0508
  147MOL0     C19772   7.072  10.607   2.208  0.7564  0.2893  0.1439
  147MOL0     C19773   7.182  10.520   2.143  0.0758  0.5130  0.3238
  147MOL0     C19774   7.171  10.492   1.999 -0.6459 -0.3185  0.1230
  147MOL0     C19775   7.165  10.464   1.883 -0.3748 -0.4407  1.1735
  147MOL0     C19776   6.754  10.882   2.448 -0.3417  0.7187 -0.3411
  147MOL0     C19777   6.655  10.946   2.516  0.7723 -0.1541  1.2336
  147MOL0     H19778   6.246  11.203   2.511  1.1628 -1.5020  2.7654
  147MOL0     H19779   6.016  11.303   2.497 -2.2162  0.0641 -2.1037
  147MOL0     H19780   5.668  11.129   2.665  0.7805  0.7322  0.8760
  147MOL0     H19781   5.787  11.252   2.680 -0.8840 -0.7373  0.0690
  147MOL0     H19782   5.543  11.270   2.492  1.2479  0.5332 -1.0235
  147MOL0     H19783   5.542  11.329   2.656  0.9338 -0.3694  1.3040
  147MOL0     H19784   5.560  11.500   2.473 -1.5471  2.5967  3.3532
  147MOL0     H19785   5.666  11.517   2.608 -1.0678  2.0217 -0.7906
  147MOL0     H19786   5.766  11.570   2.397 -0.7215 -0.4140  1.4707
  147MOL0     H19787   5.856  11.434   2.464 -1.4331 -3.2009  1.7279
  147MOL0     H19788   5.705  11.285   2.318  1.5777  0.3219  0.5026
  147MOL0     H19789   5.646  11.431   2.238  0.7867  0.9193  0.8958
  147MOL0     H19790   5.875  11.509   2.193  2.8384 -0.5305 -0.2229
  147MOL0     H19791   5.948  11.363   2.249  1.4892 -1.9226 -3.5076
  147MOL0     H19792   5.743  11.321   2.040  0.5439  2.4450  0.4238
  147MOL0     H19793   5.893  11.389   1.984  0.8641  0.4883 -0.2092
  147MOL0     H19794   5.887  11.127   1.982  4.1682  0.3616 -0.9822
  147MOL0     H19795   5.885  11.140   2.159  1.0015  0.1377  0.8524
  147MOL0     H19796   6.108  11.239   2.265  0.2946 -2.0410 -0.0499
  147MOL0     H19797   6.344  11.375   2.279 -1.3918  0.6771 -0.1688
  147MOL0     H19798   6.434  11.230   2.229 -0.1584 -0.5208 -0.1114
  147MOL0     H19799   6.525  11.478   2.184  1.5939 -0.1750 -0.4469
  147MOL0     H19800   6.410  11.452   2.038 -1.1206 -2.8096 -0.8213
  147MOL0     H19801   6.648  11.393   1.979  1.1565  2.6107  2.9810
  147MOL0     H19802   6.557  11.246   1.988  1.3927 -1.5686  0.9770
  147MOL0     H19803   6.772  11.204   2.071 -1.7394 -1.3836  0.3931
  147MOL0     H19804   6.672  11.209   2.219 -3.7817  6.3845  2.3813
  147MOL0     H19805   7.017  11.256   2.188 -1.0697  1.7210 -0.2363
  147MOL0     H19806   7.182  11.142   2.227 -0.8806  0.5300  0.2572
  147MOL0     H19807   7.266  11.180   2.384  1.7379  0.1521 -0.6151
  147MOL0     H19808   7.181  11.026   2.367 -0.2590 -1.4662 -5.0544
  147MOL0     H19809   7.005  10.805   2.689  3.9318 -1.9401  1.0031
  147MOL0     H19810   7.081  10.658   2.864 -1.5669  0.0546  0.0672
  147MOL0     H19811   7.048  10.627   3.307  0.9477 -0.5722 -0.0707
  147MOL0     H19812   6.975  10.784   3.267 -1.0989  0.8996 -1.6550
  147MOL0     H19813   6.810  10.578   3.308 -0.2439 -1.7166 -0.0596
  147MOL0     H19814   6.789  10.674   3.153  1.0728  1.5147  0.2732
  147MOL0     H19815   6.967  10.416   3.187  2.5358  1.5768 -2.1532
  147MOL0     H19816   6.913  10.488   3.032  0.4353  2.3538  0.4258
  147MOL0     H19817   6.721  10.374   3.247  1.7569 -1.6935  0.3977
  147MOL0     H19818   6.689  10.419   3.080  0.8848 -1.1511  0.3467
  147MOL0     H19819   6.806  10.230   3.005  2.7779 -2.6873  0.5274
  147MOL0     H19820   6.668  10.188   3.111 -0.6378  1.3887  0.0497
  147MOL0     H19821   6.961  10.168   3.214  0.5399  1.3916 -2.6879
  147MOL0     H19822   6.805  10.138   3.294 -1.6841 -2.8823 -0.7934
  147MOL0     H19823   6.754   9.966   3.168 -0.1266  0.9387 -0.6934
  147MOL0     H19824   6.904   9.942   3.245 -1.3268  1.3438  0.7740
  147MOL0     H19825   6.863  10.019   2.957  1.0845  3.4667  3.0216
  147MOL0     H19826   6.891   9.851   2.998  3.0201 -0.5227  0.2354
  147MOL0     H19827   7.009  10.965   3.158 -0.4651 -1.3242  0.7794
  147MOL0     H19828   6.956  11.113   2.976  0.7225 -0.0659  0.3730
  147MOL0     H19829   6.808  11.255   2.626  0.2016  5.0260  0.6830
  147MOL0     H19830   6.708  11.374   2.457  1.4521  0.8931  0.6464
  147MOL0     H19831   5.837  10.907   2.546  0.0566  0.1965 -0.1398
  147MOL0     H19832   6.064  10.821   2.605  2.9529 -0.0655 -1.2932
  147MOL0     H19833   6.387  10.756   2.433 -0.6524  0.9737  1.0735
  147MOL0     H19834   6.555  10.638   2.312 -3.3742  0.6348  1.3783
  147MOL0     H19835   6.825  10.518   2.357  0.3214  0.9215 -0.1793
  147MOL0     H19836   6.734  10.557   2.215 -0.7990 -0.1862  2.0556
  147MOL0     H19837   6.914  10.555   2.072 -1.0360 -2.2305 -0.3422
  147MOL0     H19838   6.940  10.428   2.190 -0.2767  0.9755 -0.5187
  147MOL0     H19839   7.079  10.612   2.317 -2.8067  2.0340  0.4150
  147MOL0     H19840   7.081  10.712   2.177 -2.6218  0.5362 -0.2970
  147MOL0     H19841   7.186  10.425   2.197 -1.2572  1.5334  2.3797
  147MOL0     H19842   7.280  10.561   2.169  0.6715  1.1137 -2.5148
  147MOL0     H19843   7.171  10.430   1.781 -4.2809  0.2753  0.5301
  147MOL0     H19844   6.857  10.916   2.453 -0.2856  0.6761 -1.0275
  147MOL0     H19845   6.697  11.028   2.572  0.4869  1.0192 -0.2102
  148MOL0     O19846   1.977   8.124   6.092 -0.2055 -0.8286 -0.2833
  148MOL0     C19847   2.012   8.044   6.178 -0.7397  0.3702  0.1600
  148MOL0     O19848   1.962   8.033   6.305 -0.2963  0.1176  0.0630
  148MOL0     C19849   1.889   8.138   6.351 -0.3777  0.0583  0.7980
  148MOL0     C19850   1.953   8.266   6.372  0.2591 -0.3202  0.4009
  148MOL0     C19851   1.887   8.372   6.438  0.4245  0.5528  1.3740
  148MOL0     C19852   1.750   8.360   6.453 -0.0451  0.8464  0.5511
  148MOL0     O19853   1.687   8.473   6.497 -0.6390 -0.2749 -0.4476
  148MOL0     C19854   1.550   8.482   6.509 -0.2438  0.4542  0.1920
  148MOL0     C19855   1.509   8.627   6.491  0.2607  0.1114 -0.4981
  148MOL0     C19856   1.357   8.634   6.462  0.9784  0.5884  0.1052
  148MOL0     C19857   1.302   8.765   6.396 -0.3728  0.0824 -0.0228
  148MOL0     C19858   1.158   8.735   6.325 -0.2632 -0.1289  0.7521
  148MOL0     C19859   1.039   8.730   6.427 -0.6288 -0.1843  0.1680
  148MOL0     C19860   0.986   8.871   6.456  0.8209  0.8877 -0.5873
  148MOL0     C19861   0.908   8.941   6.344  0.0243  0.4442  0.2653
  148MOL0     N19862   0.799   8.852   6.290 -0.0563  0.0202  0.1151
  148MOL0     C19863   0.692   8.819   6.365 -1.2634  0.1456  0.1404
  148MOL0     C19864   0.638   8.717   6.287 -0.0893  0.5465 -0.1470
  148MOL0     C19865   0.513   8.647   6.312 -0.5282  0.3171 -0.1052
  148MOL0     C19866   0.456   8.661   6.451  0.9073 -0.6323  0.6873
  148MOL0     C19867   0.528   8.586   6.564  0.1037 -1.5803  0.7935
  148MOL0     C19868   0.589   8.458   6.526 -0.3550  0.9265 -0.0149
  148MOL0     O19869   0.641   8.409   6.653  0.9868  0.0545 -0.2733
  148MOL0     C19870   0.772   8.370   6.663 -0.3444 -0.6311  0.7825
  148MOL0     C19871   0.803   8.238   6.682  0.2875  0.1135 -0.3284
  148MOL0     C19872   0.931   8.189   6.697  0.1494  0.2291 -0.4299
  148MOL0     C19873   0.962   8.049   6.706  0.8121  0.4135 -0.1409
  148MOL0     C19874   1.041   8.283   6.687  0.0975 -0.2233 -0.0125
  148MOL0     C19875   1.185   8.262   6.701  0.6516 -0.4767  0.5794
  148MOL0     O19876   1.234   8.178   6.798 -0.1385  0.4533  0.0051
  148MOL0     C19877   1.364   8.171   6.819 -0.3842  0.3366 -0.0096
  148MOL0     C19878   1.427   8.228   6.926  0.5077 -0.3773 -0.5759
  148MOL0     C19879   1.557   8.221   6.945  0.4378  0.4521  0.4965
  148MOL0     C19880   1.639   8.166   6.844 -0.4413  0.2588 -0.4623
  148MOL0     O19881   1.775   8.169   6.857  0.9584  0.1205  0.8486
  148MOL0     C19882   1.853   8.210   6.753 -0.5837 -0.0851 -0.2554
  148MOL0     C19883   1.989   8.124   6.749 -0.2301  0.1023  0.8512
  148MOL0     C19884   1.955   7.972   6.726  0.4371 -0.4777 -0.2621
  148MOL0     C19885   2.085   7.890   6.729  0.7086 -0.5662 -0.1304
  148MOL0     C19886   2.059   7.748   6.769  0.1454  0.5695  0.2635
  148MOL0     C19887   1.952   7.679   6.675  0.0131  0.5576 -0.4600
  148MOL0     C19888   1.919   7.534   6.722  0.2661 -0.7037  0.0392
  148MOL0     C19889   1.823   7.475   6.626  0.4864  0.4232  0.1136
  148MOL0    Cl19890   1.655   7.549   6.647 -0.1797  0.5807 -0.1111
  148MOL0     C19891   1.580   8.100   6.736 -0.7107 -0.3806  0.6829
  148MOL0     C19892   1.439   8.103   6.714  0.1415  0.2993  0.0537
  148MOL0     O19893   1.255   8.325   6.621  0.7110  0.2180  0.1189
  148MOL0     C19894   1.009   8.416   6.670 -0.0586  0.3671 -0.0938
  148MOL0     C19895   0.879   8.463   6.668 -0.7802 -0.5439  0.3709
  148MOL0     N19896   0.711   8.694   6.174  0.1447 -0.2288 -0.7031
  148MOL0     N19897   0.808   8.780   6.179  0.7538  0.6914  0.2783
  148MOL0     C19898   1.689   8.233   6.429 -0.1909  0.4433 -0.2637
  148MOL0     C19899   1.763   8.120   6.388  0.1749 -0.0581  0.2109
  148MOL0     C19900   2.115   7.947   6.132 -0.7262  0.1774 -0.2436
  148MOL0     C19901   2.173   7.946   6.002  0.1464 -0.2967 -0.3467
  148MOL0     C19902   2.282   7.867   5.966  0.4634 -0.3792  0.0016
  148MOL0     C19903   2.338   7.783   6.060 -0.2820 -0.3939  0.0724
  148MOL0     O19904   2.439   7.698   6.028 -0.5017 -0.3642  0.0831
  148MOL0     C19905   2.496   7.607   6.126 -0.0948 -0.7105  0.3417
  148MOL0     C19906   2.588   7.514   6.052  0.6103  0.1997  0.8015
  148MOL0     C19907   2.725   7.559   6.010  0.5264  0.0210  0.5823
  148MOL0     C19908   2.735   7.586   5.858  0.2220 -1.2499 -0.2802
  148MOL0     C19909   2.731   7.463   5.777 -0.3576  0.3823 -0.1849
  148MOL0     C19910   2.724   7.352   5.722 -0.6317  0.7951  0.8682
  148MOL0     C19911   2.278   7.780   6.189 -1.1125  0.6798  1.0503
  148MOL0     C19912   2.167   7.857   6.220 -0.3334  0.5417 -0.0506
  148MOL0     H19913   2.052   8.289   6.335 -1.5460  1.9581 -3.7019
  148MOL0     H19914   1.950   8.456   6.461  1.1768  0.0706  1.0956
  148MOL0     H19915   1.518   8.436   6.415  4.5496  0.7961 -1.8994
  148MOL0     H19916   1.499   8.437   6.594 -1.7769  0.8060 -0.5055
  148MOL0     H19917   1.529   8.692   6.577  1.1085  1.2747 -1.5295
  148MOL0     H19918   1.559   8.672   6.404  0.0003  0.3217 -0.5409
  148MOL0     H19919   1.329   8.550   6.396 -0.8852 -0.2552  1.8605
  148MOL0     H19920   1.292   8.613   6.547  1.9613  1.1063  1.0017
  148MOL0     H19921   1.291   8.842   6.473  0.4703  0.7670 -0.5773
  148MOL0     H19922   1.372   8.795   6.318 -1.3665 -2.4601 -2.0625
  148MOL0     H19923   1.142   8.803   6.241  0.3766  1.6507  1.9980
  148MOL0     H19924   1.164   8.640   6.272 -1.2509  0.2601 -0.1007
  148MOL0     H19925   0.956   8.669   6.391 -1.8752  0.1589  2.3242
  148MOL0     H19926   1.066   8.689   6.524 -1.0747 -0.5750  0.1303
  148MOL0     H19927   0.923   8.881   6.545  0.9171  3.0073 -0.6931
  148MOL0     H19928   1.080   8.921   6.479  0.4850  0.2513  2.5105
  148MOL0     H19929   0.980   8.967   6.265 -1.6529  1.6208 -0.9696
  148MOL0     H19930   0.872   9.035   6.387 -1.6469 -0.5094  1.0510
  148MOL0     H19931   0.659   8.863   6.458 -2.3187 -0.7784  0.2212
  148MOL0     H19932   0.438   8.681   6.240  0.4249  1.2625 -0.6673
  148MOL0     H19933   0.544   8.545   6.286 -1.6823  0.1555 -0.9356
  148MOL0     H19934   0.352   8.625   6.448  0.6971 -0.2699 -3.6223
  148MOL0     H19935   0.449   8.766   6.479 -3.1955 -0.8636  1.1221
  148MOL0     H19936   0.455   8.580   6.646 -1.7068  0.5857 -0.5637
  148MOL0     H19937   0.610   8.654   6.590 -0.3995  0.3863 -2.2961
  148MOL0     H19938   0.668   8.478   6.453 -0.8743 -0.0761 -0.8736
  148MOL0     H19939   0.517   8.394   6.474  0.4185  1.5308 -1.9383
  148MOL0     H19940   0.722   8.166   6.686  0.3513 -0.0929 -1.9622
  148MOL0     H19941   1.052   8.022   6.762  0.5586 -3.5530 -1.3284
  148MOL0     H19942   0.889   8.010   6.777  0.2953 -0.4170 -1.1011
  148MOL0     H19943   0.975   8.009   6.605  0.5408 -1.3788  0.5024
  148MOL0     H19944   1.370   8.275   7.005  0.8115  0.3715 -0.7997
  148MOL0     H19945   1.611   8.263   7.029  0.7680 -2.3563  1.8099
  148MOL0     H19946   1.811   8.206   6.652  0.4440  1.1982 -0.7655
  148MOL0     H19947   1.874   8.316   6.773 -2.5923  0.4731 -0.9412
  148MOL0     H19948   2.056   8.148   6.666 -1.0132  0.7670  0.3980
  148MOL0     H19949   2.038   8.116   6.847 -2.1146 -1.9686  1.7207
  148MOL0     H19950   1.900   7.968   6.632 -0.0577  1.3969 -0.1034
  148MOL0     H19951   1.889   7.943   6.808 -0.3924  0.6496 -0.5035
  148MOL0     H19952   2.135   7.884   6.632  2.1659  0.2526  0.5333
  148MOL0     H19953   2.148   7.945   6.800 -1.3596  2.2011 -0.2978
  148MOL0     H19954   2.015   7.748   6.870 -1.5011  1.5505 -0.4108
  148MOL0     H19955   2.154   7.695   6.761  0.1292  0.5387  0.2721
  148MOL0     H19956   1.863   7.741   6.665  0.7931  2.0897  1.4269
  148MOL0     H19957   1.987   7.671   6.571  2.6130 -3.5549  0.5113
  148MOL0     H19958   1.872   7.550   6.819 -0.1081  0.9956 -0.3963
  148MOL0     H19959   2.012   7.476   6.727  2.4332  2.5350  3.8022
  148MOL0     H19960   1.827   7.368   6.649 -0.1859 -0.1347 -2.1124
  148MOL0     H19961   1.850   7.472   6.520 -2.6474  1.5895 -0.8375
  148MOL0     H19962   1.656   8.064   6.668  1.8286  0.9641  2.6400
  148MOL0     H19963   1.392   8.068   6.622  2.0464 -0.6357 -0.6224
  148MOL0     H19964   1.092   8.486   6.666  1.7632 -1.7794 -1.7808
  148MOL0     H19965   0.858   8.568   6.650  1.1422  0.1362  1.6984
  148MOL0     H19966   1.595   8.201   6.472  1.2855 -0.1516  2.8283
  148MOL0     H19967   1.723   8.019   6.388  0.5866 -0.2201  0.1679
  148MOL0     H19968   2.130   8.007   5.923 -1.5083  0.5891  1.1526
  148MOL0     H19969   2.313   7.866   5.862  2.5383 -3.7709  0.5008
  148MOL0     H19970   2.560   7.659   6.197  0.4157  0.8495 -1.2097
  148MOL0     H19971   2.420   7.542   6.171  1.0438 -1.1733  1.6562
  148MOL0     H19972   2.530   7.491   5.962 -0.3221  0.9305  1.1896
  148MOL0     H19973   2.601   7.426   6.115  0.5616 -0.6483 -0.3313
  148MOL0     H19974   2.796   7.485   6.047 -0.5887 -0.4772  1.7863
  148MOL0     H19975   2.749   7.658   6.051 -1.9324  1.9073 -2.0919
  148MOL0     H19976   2.824   7.650   5.852 -0.8543  0.8786  3.1242
  148MOL0     H19977   2.647   7.641   5.825  0.7110 -0.9723 -1.1564
  148MOL0     H19978   2.711   7.256   5.676 -1.9052  1.6482 -0.6622
  148MOL0     H19979   2.328   7.728   6.270  0.1586  2.9179  1.7944
  148MOL0     H19980   2.123   7.852   6.320  0.1855  0.4565  0.1780
  149MOL0     O19981   8.971   1.085   9.006  0.2726 -0.1603 -0.2400
  149MOL0     C19982   9.046   1.054   8.911 -0.7395 -0.8787  0.4368
  149MOL0     O19983   9.019   1.082   8.779  0.0190 -0.2315  0.2263
  149MOL0     C19984   8.886   1.127   8.756 -0.8821 -0.6878 -0.3218
  149MOL0     C19985   8.842   1.252   8.790  0.2801 -0.1246  0.0613
  149MOL0     C19986   8.708   1.285   8.771 -0.3545 -0.4596  0.5270
  149MOL0     C19987   8.618   1.200   8.700  0.2715 -0.2456 -0.1111
  149MOL0     O19988   8.492   1.251   8.661 -0.1846  0.6198 -0.6865
  149MOL0     C19989   8.470   1.226   8.518 -0.0657  0.6125  0.2646
  149MOL0     C19990   8.380   1.342   8.475  0.6544 -0.4837 -0.3483
  149MOL0     C19991   8.366   1.357   8.319  0.7081  0.4842 -0.5975
  149MOL0     C19992   8.265   1.465   8.280  0.9905 -0.7954  0.5319
  149MOL0     C19993   8.247   1.463   8.126  0.3063  0.5604  0.7679
  149MOL0     C19994   8.156   1.574   8.082  0.1145 -0.2934  0.0666
  149MOL0     C19995   8.224   1.716   8.107  0.4514 -0.4109  0.2942
  149MOL0     C19996   8.140   1.826   8.043 -0.1829  0.1088 -0.2206
  149MOL0     N19997   8.010   1.859   8.092  0.5135  0.2483 -0.2344
  149MOL0     C19998   7.884   1.804   8.077  0.5570 -0.0451  0.4830
  149MOL0     C19999   7.808   1.894   8.147  0.0613  0.2957 -0.1668
  149MOL0     C20000   7.661   1.887   8.157  0.0234 -0.1646 -0.0996
  149MOL0     C20001   7.581   2.019   8.110 -1.0508 -0.1828 -0.3900
  149MOL0     C20002   7.604   2.052   7.962 -0.0100 -0.0608 -1.1263
  149MOL0     C20003   7.541   2.183   7.916 -0.1529  0.4206  0.4867
  149MOL0     O20004   7.403   2.189   7.926 -0.0951  0.0566  0.2696
  149MOL0     C20005   7.342   2.297   7.868  0.3124 -0.1213 -0.3356
  149MOL0     C20006   7.288   2.296   7.745  0.6998  0.4094  1.0561
  149MOL0     C20007   7.234   2.412   7.686 -0.2648  0.4624 -1.0132
  149MOL0     C20008   7.175   2.395   7.543  0.5832  0.0651 -0.0378
  149MOL0     C20009   7.234   2.540   7.749  0.2933 -0.7700  0.2530
  149MOL0     C20010   7.167   2.661   7.697  0.1822  0.2602  0.1710
  149MOL0     O20011   7.116   2.751   7.787  0.8714  0.7680 -0.0839
  149MOL0     C20012   7.043   2.866   7.748 -0.2696 -0.0186  0.0251
  149MOL0     C20013   6.959   2.872   7.643  0.4509  0.0662  0.3718
  149MOL0     C20014   6.878   2.982   7.605  0.9173  0.0489 -0.3842
  149MOL0     C20015   6.889   3.090   7.692 -0.4921  0.1702  0.5387
  149MOL0     O20016   6.819   3.210   7.666  0.0051  1.1703 -0.2180
  149MOL0     C20017   6.747   3.218   7.545 -0.3007 -0.0021  0.6122
  149MOL0     C20018   6.664   3.351   7.523 -0.1393 -0.7106 -0.4254
  149MOL0     C20019   6.765   3.474   7.508  0.7725  0.8244 -0.3996
  149MOL0     C20020   6.700   3.610   7.480 -0.0869 -0.3802  0.2067
  149MOL0     C20021   6.681   3.646   7.336  0.2746 -0.4490 -0.5875
  149MOL0     C20022   6.810   3.683   7.271  0.2587 -1.0183 -0.2327
  149MOL0     C20023   6.795   3.748   7.132 -0.0877  0.5886  0.2881
  149MOL0     C20024   6.931   3.773   7.062 -0.0055  0.0527 -0.1584
  149MOL0    Cl20025   7.040   3.879   7.146  0.5689  0.2466 -0.0857
  149MOL0     C20026   6.951   3.077   7.821  0.0925 -0.6829  0.4706
  149MOL0     C20027   7.043   2.977   7.837  0.6223  1.2244 -0.2167
  149MOL0     O20028   7.178   2.677   7.575  0.5462 -0.0599  0.0888
  149MOL0     C20029   7.287   2.542   7.882  0.4484 -0.2418  0.2714
  149MOL0     C20030   7.336   2.424   7.938 -0.2448  1.1264  0.3190
  149MOL0     N20031   7.884   1.987   8.208  0.6514  0.0546 -0.6611
  149MOL0     N20032   8.003   1.968   8.175 -0.1932  0.3041  0.3867
  149MOL0     C20033   8.661   1.068   8.665  0.2040  0.4105 -0.3144
  149MOL0     C20034   8.796   1.035   8.692  0.6386  0.2180  0.5344
  149MOL0     C20035   9.184   1.002   8.955 -0.3077 -0.2494  0.4994
  149MOL0     C20036   9.207   0.971   9.092  0.7257  0.2104  0.6797
  149MOL0     C20037   9.331   0.916   9.125  0.9234  0.1754 -0.4132
  149MOL0     C20038   9.430   0.911   9.026  0.4843  0.3439 -0.0485
  149MOL0     O20039   9.556   0.862   9.035 -0.0968  0.9485 -0.5620
  149MOL0     C20040   9.595   0.811   9.165  1.2062  0.6062  0.2632
  149MOL0     C20041   9.749   0.770   9.156  0.7756  0.2500  0.9455
  149MOL0     C20042   9.780   0.641   9.251  0.1716 -0.1897  0.2769
  149MOL0     C20043   9.789   0.664   9.398 -0.2925 -0.2908  0.6179
  149MOL0     C20044   9.675   0.715   9.465  0.6898 -1.0103  0.3981
  149MOL0     C20045   9.577   0.764   9.518  0.0414  0.1125  0.0684
  149MOL0     C20046   9.407   0.942   8.890  0.3724  0.9232  0.5346
  149MOL0     C20047   9.285   0.990   8.856  1.0009  0.7239 -0.4195
  149MOL0     H20048   8.910   1.321   8.840 -0.1182 -1.3608  2.4634
  149MOL0     H20049   8.679   1.379   8.817 -1.0116 -0.2100 -0.3751
  149MOL0     H20050   8.565   1.225   8.464  0.4417  0.0999  1.1661
  149MOL0     H20051   8.411   1.134   8.513  1.5602 -0.6009  2.1630
  149MOL0     H20052   8.280   1.331   8.517  1.1427 -2.0795  0.4884
  149MOL0     H20053   8.425   1.431   8.519  2.0368 -0.4170 -1.7752
  149MOL0     H20054   8.466   1.365   8.274  2.1279 -1.0374  2.0265
  149MOL0     H20055   8.325   1.266   8.274 -0.8076  0.2122  1.2330
  149MOL0     H20056   8.172   1.433   8.327  2.3565 -1.6292  2.8412
  149MOL0     H20057   8.290   1.564   8.320  1.8254  0.4594 -2.8218
  149MOL0     H20058   8.343   1.472   8.075 -0.2242 -0.8373 -0.5613
  149MOL0     H20059   8.204   1.362   8.128  1.7642 -0.0758  1.2335
  149MOL0     H20060   8.124   1.560   7.978 -0.1668  2.3123 -0.2830
  149MOL0     H20061   8.057   1.566   8.128  0.8854 -1.4515  1.6181
  149MOL0     H20062   8.236   1.731   8.215  1.8350 -0.4412  0.1630
  149MOL0     H20063   8.324   1.711   8.063 -0.9746 -2.9723 -3.0744
  149MOL0     H20064   8.118   1.801   7.938 -1.5459  0.2004  0.0361
  149MOL0     H20065   8.205   1.913   8.055 -0.3188 -0.0784  2.3635
  149MOL0     H20066   7.852   1.716   8.023 -1.0649 -0.2848  1.7809
  149MOL0     H20067   7.607   1.800   8.118 -1.6662  0.6094  0.4276
  149MOL0     H20068   7.634   1.874   8.262  0.2894  2.0584  0.2851
  149MOL0     H20069   7.621   2.101   8.171  0.3390 -0.9352 -0.2479
  149MOL0     H20070   7.480   2.027   8.150 -0.5586  2.5033  0.5658
  149MOL0     H20071   7.560   1.970   7.905  0.6625 -0.5535 -0.9435
  149MOL0     H20072   7.710   2.066   7.942 -0.0660  0.9355 -0.7934
  149MOL0     H20073   7.571   2.205   7.814 -1.7124 -0.2488 -0.1635
  149MOL0     H20074   7.585   2.259   7.981 -1.9091  1.1846  0.8543
  149MOL0     H20075   7.300   2.205   7.688  0.2090  1.0311 -0.0696
  149MOL0     H20076   7.092   2.463   7.522 -1.8258 -2.7389 -0.1643
  149MOL0     H20077   7.249   2.402   7.463  0.8982 -3.2275 -0.1698
  149MOL0     H20078   7.137   2.293   7.537 -0.1416  0.4167 -2.6241
  149MOL0     H20079   6.955   2.785   7.578 -2.7834 -0.0707  0.5730
  149MOL0     H20080   6.817   2.974   7.515  3.1674 -1.9458 -1.8396
  149MOL0     H20081   6.827   3.217   7.470 -0.4188 -1.0697  0.4825
  149MOL0     H20082   6.682   3.134   7.521  0.5517 -0.5950  0.3377
  149MOL0     H20083   6.597   3.339   7.438  0.2849 -0.0575 -0.8675
  149MOL0     H20084   6.604   3.370   7.613  3.0237  0.4442  1.6359
  149MOL0     H20085   6.844   3.458   7.434  0.0934 -0.8619 -0.8099
  149MOL0     H20086   6.801   3.482   7.610 -0.7302  1.9261  0.0861
  149MOL0     H20087   6.600   3.621   7.522 -1.0184 -0.9330 -1.7584
  149MOL0     H20088   6.767   3.687   7.520  0.3054 -1.2426  1.2533
  149MOL0     H20089   6.612   3.730   7.336 -0.3542 -0.7647  3.5644
  149MOL0     H20090   6.634   3.563   7.283 -2.7699 -0.0473  1.2790
  149MOL0     H20091   6.863   3.764   7.322  1.2988  0.2572 -3.1206
  149MOL0     H20092   6.873   3.594   7.272  2.8511  0.7234  0.2810
  149MOL0     H20093   6.730   3.834   7.121  1.0987  1.4058 -0.6061
  149MOL0     H20094   6.744   3.667   7.079 -0.5035  1.0665 -0.0398
  149MOL0     H20095   6.907   3.826   6.969  2.1569 -1.0699 -1.4419
  149MOL0     H20096   6.981   3.676   7.050  1.7472  0.4367  2.9300
  149MOL0     H20097   6.934   3.164   7.884 -2.6889 -0.9073  0.1366
  149MOL0     H20098   7.104   2.966   7.926 -1.7480  3.5718  1.8631
  149MOL0     H20099   7.279   2.627   7.949 -0.3516 -0.6999  0.7705
  149MOL0     H20100   7.398   2.420   8.027  1.9547  0.4799 -1.1643
  149MOL0     H20101   8.587   0.998   8.629  1.3900 -0.1007 -1.8989
  149MOL0     H20102   8.831   0.936   8.667  0.4309  0.9838 -3.5276
  149MOL0     H20103   9.133   0.995   9.169  1.7162 -0.2543  1.8082
  149MOL0     H20104   9.357   0.893   9.228 -0.0398 -2.7512 -0.7222
  149MOL0     H20105   9.573   0.891   9.237  0.1849 -0.3645  1.0669
  149MOL0     H20106   9.532   0.724   9.186 -0.1786  1.2986 -0.8156
  149MOL0     H20107   9.817   0.852   9.179  0.9103 -0.2351  2.4115
  149MOL0     H20108   9.770   0.737   9.054  2.8453  1.3272  0.9858
  149MOL0     H20109   9.874   0.601   9.213 -0.7875 -1.5876 -0.7367
  149MOL0     H20110   9.703   0.566   9.227  0.6403 -0.4143 -0.5805
  149MOL0     H20111   9.871   0.735   9.409 -1.5478  1.5916 -1.3617
  149MOL0     H20112   9.830   0.572   9.443  0.9444 -0.7854 -1.3689
  149MOL0     H20113   9.500   0.819   9.568 -0.2381 -0.5387  0.3729
  149MOL0     H20114   9.474   0.929   8.805  1.5382 -0.9709  1.6800
  149MOL0     H20115   9.257   1.004   8.752 -1.5059  0.3075  0.1284
  150MOL0     O20116   7.914  11.080  10.070  0.1006 -0.2046 -0.2204
  150MOL0     C20117   7.914  11.205  10.067  0.7391 -0.3890 -1.0528
  150MOL0     O20118   7.991  11.289   9.986  0.6948  0.4183 -0.4436
  150MOL0     C20119   8.084  11.225   9.905  0.6628 -0.2595  0.7019
  150MOL0     C20120   8.097  11.264   9.771  0.6946  0.1445 -0.1786
  150MOL0     C20121   8.177  11.198   9.682 -0.0009  1.0925 -0.6706
  150MOL0     C20122   8.258  11.091   9.722 -0.7154  1.0298  0.2357
  150MOL0     O20123   8.335  11.036   9.634 -0.1203 -0.2312  0.2081
  150MOL0     C20124   8.416  10.919   9.672 -0.4268 -0.0373 -0.1033
  150MOL0     C20125   8.501  10.865   9.551 -0.0202  0.4893 -0.1946
  150MOL0     C20126   8.616  10.788   9.602 -0.1543 -0.2861  0.2486
  150MOL0     C20127   8.697  10.715   9.488  0.2588 -0.2727  0.5145
  150MOL0     C20128   8.816  10.799   9.453 -0.0598  0.5769 -1.3688
  150MOL0     C20129   8.893  10.772   9.326  0.3235 -0.4444 -0.1956
  150MOL0     C20130   8.973  10.634   9.332 -0.0681  0.5900  0.1449
  150MOL0     C20131   9.072  10.617   9.223 -0.1376  0.1568  0.3179
  150MOL0     N20132   9.118  10.476   9.205 -0.4323  0.6906  0.1503
  150MOL0     C20133   9.210  10.414   9.284  0.4884 -0.6428  0.8001
  150MOL0     C20134   9.243  10.302   9.213 -0.0135  0.5448  0.0252
  150MOL0     C20135   9.332  10.193   9.259  0.2445 -0.8156 -0.0682
  150MOL0     C20136   9.483  10.194   9.224 -0.6838 -0.5113 -0.4890
  150MOL0     C20137   9.508  10.205   9.066 -0.0846 -0.2770 -0.2146
  150MOL0     C20138   9.651  10.242   9.044 -1.0378  0.9297 -0.2435
  150MOL0     O20139   9.675  10.290   8.918 -0.0800  0.8163  0.1746
  150MOL0     C20140   9.802  10.310   8.862  0.1811 -0.5768  0.0537
  150MOL0     C20141   9.816  10.388   8.747 -0.2225  0.3353  0.1043
  150MOL0     C20142   9.936  10.407   8.687 -0.5554  0.6227 -0.2015
  150MOL0     C20143   9.947  10.502   8.571 -0.4541  0.9511 -0.0590
  150MOL0     C20144  10.049  10.337   8.729  0.3928 -0.6036 -0.3144
  150MOL0     C20145  10.180  10.323   8.653  0.2807 -1.1123 -0.8348
  150MOL0     O20146  10.277  10.277   8.742 -0.4765  0.3297 -0.4001
  150MOL0     C20147  10.416  10.266   8.717  0.2561  0.3696  0.5320
  150MOL0     C20148  10.503  10.232   8.815  0.6249 -0.0701  0.0374
  150MOL0     C20149  10.644  10.207   8.793 -1.6369  0.1724  0.7464
  150MOL0     C20150  10.703  10.225   8.662 -0.1579  0.0907 -1.2242
  150MOL0     O20151  10.837  10.220   8.641 -0.1648  0.3640 -0.4478
  150MOL0     C20152  10.934  10.245   8.747  0.1187  0.5513  0.5146
  150MOL0     C20153  11.017  10.124   8.784 -0.0788  0.0691  0.8125
  150MOL0     C20154  11.126  10.160   8.883 -0.1684  1.1250  1.3074
  150MOL0     C20155  11.193  10.022   8.911 -1.1842 -0.7060 -0.3516
  150MOL0     C20156  11.309  10.054   8.992 -0.2427  0.4072  0.5658
  150MOL0     C20157  11.423  10.083   8.888  0.3459  0.5805  0.7901
  150MOL0     C20158  11.561  10.070   8.957 -0.4222 -1.0657 -0.6586
  150MOL0     C20159  11.631   9.937   8.962 -0.0415  0.5174  0.5160
  150MOL0    Cl20160  11.802   9.960   8.964  0.0266 -0.0596 -0.0814
  150MOL0     C20161  10.611  10.255   8.558  0.0665  0.3772 -0.5159
  150MOL0     C20162  10.470  10.279   8.584 -0.1500  0.3177  0.1253
  150MOL0     O20163  10.184  10.325   8.536  0.1117  0.3857  0.3859
  150MOL0     C20164  10.040  10.274   8.854 -0.4357  0.2244  0.3149
  150MOL0     C20165   9.916  10.265   8.920 -0.1901 -0.0327 -0.0357
  150MOL0     N20166   9.172  10.298   9.095 -0.0241 -0.4974 -0.3075
  150MOL0     N20167   9.091  10.399   9.097  0.1439 -0.9591 -0.3126
  150MOL0     C20168   8.252  11.043   9.855  0.1273  0.2224  0.2030
  150MOL0     C20169   8.166  11.116   9.941  0.5445 -0.2952 -0.0944
  150MOL0     C20170   7.835  11.268  10.184  0.0368 -0.0235  0.6320
  150MOL0     C20171   7.844  11.406  10.212  0.6192  0.6801  0.2749
  150MOL0     C20172   7.792  11.456  10.330 -0.2312  0.3633  0.5542
  150MOL0     C20173   7.718  11.375  10.426 -0.2392  0.5654  0.7166
  150MOL0     O20174   7.667  11.449  10.526 -0.0568  0.2573 -0.6715
  150MOL0     C20175   7.586  11.388  10.618  0.3143 -0.2433 -0.2121
  150MOL0     C20176   7.544  11.480  10.736 -0.1096  0.6076  0.8500
  150MOL0     C20177   7.493  11.609  10.681  0.3103 -0.0996 -0.0298
  150MOL0     C20178   7.427  11.700  10.787 -0.4041  0.3948  0.4540
  150MOL0     C20179   7.523  11.733  10.892 -0.3366 -0.5332 -0.6846
  150MOL0     C20180   7.609  11.768  10.965  0.2117  0.4045 -0.3419
  150MOL0     C20181   7.699  11.243  10.397  0.2350  0.6782 -1.2709
  150MOL0     C20182   7.760  11.194  10.281 -0.3274 -0.2726 -0.7172
  150MOL0     H20183   8.046  11.356   9.746 -0.4595 -0.3897  0.1585
  150MOL0     H20184   8.188  11.237   9.582  0.2518  1.7159 -0.4035
  150MOL0     H20185   8.486  10.946   9.751  0.8346 -0.0939 -1.1742
  150MOL0     H20186   8.351  10.840   9.711  0.6916 -0.2012  1.5167
  150MOL0     H20187   8.437  10.806   9.485 -0.5143  1.9594 -1.0577
  150MOL0     H20188   8.541  10.947   9.491  0.2676  0.7338  0.3261
  150MOL0     H20189   8.688  10.853   9.653  1.9756 -1.9139 -0.4868
  150MOL0     H20190   8.581  10.717   9.678  0.7151  2.0788  3.0573
  150MOL0     H20191   8.729  10.617   9.523 -3.2348 -0.8512  2.5738
  150MOL0     H20192   8.634  10.706   9.399 -1.2795  0.2352  1.5094
  150MOL0     H20193   8.780  10.901   9.439 -0.6404  0.9821  2.1575
  150MOL0     H20194   8.882  10.800   9.541 -1.4451  2.4744 -0.3051
  150MOL0     H20195   8.824  10.771   9.240 -0.5281  0.7945  0.4516
  150MOL0     H20196   8.967  10.849   9.305 -0.3253  1.1200  2.8296
  150MOL0     H20197   9.035  10.635   9.422  1.7970 -1.5774 -1.0124
  150MOL0     H20198   8.907  10.547   9.340  0.4870  0.0701 -0.7972
  150MOL0     H20199   9.154  10.686   9.243  1.4366 -2.5038  4.2917
  150MOL0     H20200   9.019  10.649   9.132 -1.1151  0.3631  0.9433
  150MOL0     H20201   9.242  10.453   9.379  2.7222  2.1736 -0.9634
  150MOL0     H20202   9.321  10.174   9.366  1.4945  0.3623  0.3018
  150MOL0     H20203   9.292  10.109   9.202  2.9638 -0.7434 -2.2780
  150MOL0     H20204   9.525  10.101   9.262 -2.4722  0.3595  4.3571
  150MOL0     H20205   9.535  10.271   9.282 -0.5890 -1.0262  0.1156
  150MOL0     H20206   9.446  10.287   9.030 -0.1693  0.2995  1.1486
  150MOL0     H20207   9.488  10.113   9.010 -1.9679  0.3807 -0.7046
  150MOL0     H20208   9.719  10.158   9.065  2.3310  2.6834 -3.0602
  150MOL0     H20209   9.674  10.319   9.119  0.0630  1.5478 -1.1778
  150MOL0     H20210   9.726  10.440   8.714 -1.0388  1.3980  3.5697
  150MOL0     H20211   9.949  10.446   8.477 -2.9048 -1.5880  1.2462
  150MOL0     H20212   9.852  10.555   8.576 -0.5582  0.6418  3.5052
  150MOL0     H20213  10.036  10.566   8.572  1.7431 -1.7948 -1.9254
  150MOL0     H20214  10.458  10.213   8.912  0.2724  3.7873  0.7709
  150MOL0     H20215  10.701  10.169   8.877 -0.4972 -2.5419 -1.1142
  150MOL0     H20216  11.003  10.323   8.714  0.7996  0.2376  1.1817
  150MOL0     H20217  10.888  10.291   8.835 -1.3320 -0.6614  0.4375
  150MOL0     H20218  10.955  10.037   8.805 -0.9254  0.4197 -0.1388
  150MOL0     H20219  11.065  10.102   8.688 -0.0491  0.4874  0.7306
  150MOL0     H20220  11.074  10.190   8.974 -1.0488 -2.0478  1.9604
  150MOL0     H20221  11.192  10.241   8.848 -0.0535 -0.0832 -1.5973
  150MOL0     H20222  11.124   9.967   8.976  2.2042 -3.0662  1.5046
  150MOL0     H20223  11.211   9.948   8.833 -0.9598 -1.1825  0.1519
  150MOL0     H20224  11.338   9.975   9.062 -1.0948  0.9878  1.6030
  150MOL0     H20225  11.290  10.142   9.055 -0.1576 -0.0912  1.2987
  150MOL0     H20226  11.429  10.005   8.812 -1.9236  1.6870 -0.6438
  150MOL0     H20227  11.405  10.181   8.844 -3.2439  0.6594  2.0900
  150MOL0     H20228  11.559  10.106   9.060 -0.0778 -0.2936 -0.9118
  150MOL0     H20229  11.622  10.148   8.910 -2.1256  0.2068 -0.8396
  150MOL0     H20230  11.613   9.872   8.876  0.7816  2.3198 -1.0822
  150MOL0     H20231  11.598   9.876   9.047  2.7733  1.6474  2.6148
  150MOL0     H20232  10.656  10.255   8.459  0.7831 -2.1204 -0.2415
  150MOL0     H20233  10.405  10.305   8.501 -0.1062  2.0650  0.5893
  150MOL0     H20234  10.120  10.224   8.905  0.1212  1.3252  0.5583
  150MOL0     H20235   9.916  10.200   9.007 -0.2326 -1.8124 -1.2943
  150MOL0     H20236   8.312  10.962   9.893 -1.9866 -2.2494 -1.4070
  150MOL0     H20237   8.154  11.080  10.043 -2.3610 -1.5088 -0.7681
  150MOL0     H20238   7.901  11.468  10.144  3.0597 -2.5803 -0.9498
  150MOL0     H20239   7.811  11.559  10.360 -2.2773  0.5825  1.2537
  150MOL0     H20240   7.491  11.360  10.571  0.0577  2.8735 -1.8046
  150MOL0     H20241   7.627  11.293  10.655  2.0280 -0.3915 -2.3098
  150MOL0     H20242   7.626  11.503  10.804  1.5220  0.9172 -1.1405
  150MOL0     H20243   7.479  11.413  10.794  1.8709 -1.1237  1.1936
  150MOL0     H20244   7.417  11.590  10.604  0.8764 -1.8117 -0.1952
  150MOL0     H20245   7.579  11.662  10.640  0.1101  0.0874 -0.2123
  150MOL0     H20246   7.342  11.651  10.836  1.3879 -0.2959  3.0775
  150MOL0     H20247   7.392  11.788  10.731  0.5270  2.7638  3.3291
  150MOL0     H20248   7.700  11.786  11.019 -0.2483  0.3082  0.4855
  150MOL0     H20249   7.665  11.171  10.471  2.2462 -1.2220 -2.0855
  150MOL0     H20250   7.773  11.086  10.281  1.8713 -0.1083  1.7663
  151MOL0     O20251   0.339   5.324   2.001  0.2799 -0.5496 -0.0223
  151MOL0     C20252   0.410   5.420   2.006  0.5901 -0.0510  0.1417
  151MOL0     O20253   0.475   5.467   1.898 -0.5104  0.1110  0.2834
  151MOL0     C20254   0.543   5.362   1.829 -0.3281 -0.2178  0.5496
  151MOL0     C20255   0.682   5.359   1.850 -0.6306  0.0432  0.2564
  151MOL0     C20256   0.765   5.251   1.812 -0.1157  0.1085  0.5873
  151MOL0     C20257   0.709   5.151   1.734  0.0748  0.9728 -0.1420
  151MOL0     O20258   0.801   5.057   1.693 -0.6306 -0.4654  0.6261
  151MOL0     C20259   0.763   4.963   1.592 -1.1062  0.6137 -0.7014
  151MOL0     C20260   0.878   4.860   1.566 -0.7860 -0.6517 -0.1433
  151MOL0     C20261   0.831   4.786   1.452  0.4297  0.1350  0.1615
  151MOL0     C20262   0.924   4.666   1.415 -0.1478 -0.0949 -0.4048
  151MOL0     C20263   0.906   4.593   1.275 -0.2519 -0.0154 -0.9060
  151MOL0     C20264   0.922   4.684   1.152 -0.3620 -0.2960 -0.7109
  151MOL0     C20265   1.045   4.785   1.157  0.8949  0.6429 -0.4525
  151MOL0     C20266   1.059   4.885   1.042 -0.1568 -0.4256  0.3055
  151MOL0     N20267   0.953   4.978   1.056 -0.1506  0.0197 -0.0265
  151MOL0     C20268   0.946   5.098   1.132  0.2838  0.1157  0.0684
  151MOL0     C20269   0.825   5.148   1.094  0.3506 -0.4638 -0.7438
  151MOL0     C20270   0.772   5.281   1.129  0.2072  0.7356  0.4116
  151MOL0     C20271   0.883   5.399   1.122  1.6616  0.5661 -0.7462
  151MOL0     C20272   0.943   5.410   0.981  0.1786 -0.1498 -0.8375
  151MOL0     C20273   0.844   5.504   0.887 -1.1902  0.1443 -1.0329
  151MOL0     O20274   0.864   5.633   0.931  0.1863 -0.9232  0.1751
  151MOL0     C20275   0.777   5.728   0.886  0.3504  0.5169 -1.2399
  151MOL0     C20276   0.794   5.822   0.787 -0.6229 -0.3506  0.5639
  151MOL0     C20277   0.685   5.897   0.730  0.6807  0.2572 -0.1542
  151MOL0     C20278   0.703   5.987   0.613  0.3193 -0.0504 -0.2656
  151MOL0     C20279   0.557   5.889   0.790 -0.3282 -0.3026  0.0165
  151MOL0     C20280   0.439   5.967   0.753  0.0368 -0.2295 -0.0682
  151MOL0     O20281   0.366   6.001   0.861  0.3654 -1.1820 -0.2498
  151MOL0     C20282   0.243   6.074   0.858 -0.7238 -0.1872 -0.2427
  151MOL0     C20283   0.123   6.009   0.823  0.5237 -0.4562  0.2068
  151MOL0     C20284   0.003   6.076   0.804 -0.0882  0.3021  0.5092
  151MOL0     C20285  -0.006   6.218   0.819 -0.4722  0.0108 -0.5220
  151MOL0     O20286  -0.114   6.293   0.797 -0.5134 -0.1578  0.3945
  151MOL0     C20287  -0.244   6.245   0.775 -0.4686  0.4833  0.3848
  151MOL0     C20288  -0.344   6.336   0.713 -0.4943  0.4365  0.2371
  151MOL0     C20289  -0.445   6.256   0.629 -0.4647 -0.1695  0.2126
  151MOL0     C20290  -0.562   6.208   0.709  0.2294  0.3759 -0.1018
  151MOL0     C20291  -0.684   6.295   0.714 -0.2932  0.4508  0.3274
  151MOL0     C20292  -0.779   6.258   0.600 -0.1227  0.3508 -0.6904
  151MOL0     C20293  -0.915   6.336   0.615  0.2303  0.2644 -0.0995
  151MOL0     C20294  -0.992   6.298   0.740 -0.3726  0.6564  1.0069
  151MOL0    Cl20295  -1.150   6.362   0.745 -0.1914  0.4485  0.2619
  151MOL0     C20296   0.112   6.281   0.853  0.3559 -0.1654 -0.2280
  151MOL0     C20297   0.235   6.212   0.875  0.0805 -0.7072 -0.2692
  151MOL0     O20298   0.403   5.982   0.635  0.2603 -0.7226 -0.2561
  151MOL0     C20299   0.543   5.802   0.905  0.2935  0.3475 -0.0648
  151MOL0     C20300   0.647   5.725   0.948 -0.9177  0.4000  0.3861
  151MOL0     N20301   0.766   5.061   1.004  0.4832 -0.2866  0.3854
  151MOL0     N20302   0.842   4.965   0.979  0.2526  0.1178  0.1314
  151MOL0     C20303   0.564   5.152   1.701  0.1562  0.0679 -0.5031
  151MOL0     C20304   0.480   5.262   1.753  0.2022  0.0186 -0.3065
  151MOL0     C20305   0.386   5.517   2.114 -0.3422  0.6747  0.0371
  151MOL0     C20306   0.326   5.476   2.232  0.5625 -0.2563 -0.7127
  151MOL0     C20307   0.297   5.572   2.331  0.8259  0.3790  0.0164
  151MOL0     C20308   0.329   5.702   2.320  0.4217 -0.2239 -0.3311
  151MOL0     O20309   0.297   5.794   2.417 -0.1137 -1.1070  0.3666
  151MOL0     C20310   0.183   5.768   2.498  0.9016  0.3482 -0.0291
  151MOL0     C20311   0.053   5.760   2.429  1.1664 -0.0574  0.6538
  151MOL0     C20312  -0.005   5.897   2.400  1.3588  0.7546  0.2213
  151MOL0     C20313  -0.117   5.886   2.297  0.1988 -0.2379 -0.0667
  151MOL0     C20314  -0.240   5.819   2.326  0.6831  0.5053  0.1260
  151MOL0     C20315  -0.353   5.773   2.338  0.1266 -0.1060 -0.4252
  151MOL0     C20316   0.402   5.743   2.211  0.4026 -0.1968 -0.4425
  151MOL0     C20317   0.431   5.651   2.104  0.1738 -1.1925 -0.0461
  151MOL0     H20318   0.735   5.428   1.915  1.8607 -1.2553 -0.2840
  151MOL0     H20319   0.864   5.258   1.855 -0.6003 -0.5808  1.8543
  151MOL0     H20320   0.682   4.902   1.633  1.9780 -1.6848  2.6329
  151MOL0     H20321   0.740   5.021   1.502 -0.4029 -1.0190 -1.9798
  151MOL0     H20322   0.971   4.911   1.538 -0.8802 -1.0780 -1.3015
  151MOL0     H20323   0.880   4.795   1.654 -3.0673  0.9697  1.2130
  151MOL0     H20324   0.735   4.734   1.465  1.1234 -1.1282  0.3416
  151MOL0     H20325   0.812   4.856   1.370  2.4088 -0.1423 -0.5836
  151MOL0     H20326   1.029   4.697   1.424  0.3471 -1.1848 -1.9776
  151MOL0     H20327   0.914   4.588   1.491  1.0844 -0.2984 -0.4210
  151MOL0     H20328   0.976   4.510   1.258  0.8613  1.2258 -2.7902
  151MOL0     H20329   0.805   4.551   1.276 -0.9855  1.6516  0.6305
  151MOL0     H20330   0.929   4.620   1.064  2.3950 -0.6301 -0.3431
  151MOL0     H20331   0.839   4.754   1.140  0.0761 -0.1698 -3.8377
  151MOL0     H20332   1.037   4.848   1.247 -1.8442  0.2783 -0.3522
  151MOL0     H20333   1.138   4.730   1.173 -0.1968 -0.6997  1.8507
  151MOL0     H20334   1.047   4.832   0.947 -3.6855  1.7583 -0.6650
  151MOL0     H20335   1.158   4.928   1.032  1.0713 -3.2541 -0.9098
  151MOL0     H20336   1.016   5.146   1.199  0.0682  1.5189 -0.6605
  151MOL0     H20337   0.688   5.289   1.059 -2.5533 -2.5691  2.9596
  151MOL0     H20338   0.742   5.274   1.234  4.4857  2.3021  1.9597
  151MOL0     H20339   0.960   5.380   1.198  0.7847 -0.6416 -0.1198
  151MOL0     H20340   0.828   5.489   1.152  1.9841  0.6695 -0.4501
  151MOL0     H20341   0.964   5.313   0.936 -0.8246 -0.4027 -0.7902
  151MOL0     H20342   1.034   5.471   0.986  0.7022 -1.0222  0.9221
  151MOL0     H20343   0.738   5.478   0.898 -1.7094  2.7135  1.3841
  151MOL0     H20344   0.870   5.506   0.781  3.9842  3.2101 -0.0477
  151MOL0     H20345   0.888   5.821   0.735 -0.0418 -0.7680  1.5870
  151MOL0     H20346   0.802   6.027   0.634  0.0703 -0.7118  2.5902
  151MOL0     H20347   0.708   5.928   0.522 -0.3450 -0.6348  0.0676
  151MOL0     H20348   0.634   6.071   0.599  1.1878  0.8761  0.8180
  151MOL0     H20349   0.128   5.903   0.801 -1.1971  0.0352 -3.4908
  151MOL0     H20350  -0.071   6.013   0.757 -0.4515  0.1527  1.2709
  151MOL0     H20351  -0.236   6.160   0.706  3.9421  1.5753 -0.7697
  151MOL0     H20352  -0.286   6.217   0.872 -1.1167  0.9538  0.2459
  151MOL0     H20353  -0.388   6.406   0.785  0.6551  1.1234  0.2935
  151MOL0     H20354  -0.284   6.402   0.650 -2.6788  0.2343 -2.2279
  151MOL0     H20355  -0.402   6.170   0.577 -1.9067 -1.1936  0.6681
  151MOL0     H20356  -0.490   6.319   0.551  0.4795 -0.0311 -0.2407
  151MOL0     H20357  -0.602   6.112   0.674  0.5400 -0.4240  1.6456
  151MOL0     H20358  -0.529   6.184   0.810  1.4975 -0.4994 -0.6966
  151MOL0     H20359  -0.653   6.400   0.710 -0.3704  0.4584 -0.1109
  151MOL0     H20360  -0.726   6.285   0.815 -0.5056  4.0938  0.7440
  151MOL0     H20361  -0.738   6.284   0.503 -1.3390  5.3885 -0.1621
  151MOL0     H20362  -0.784   6.149   0.602  2.0764  0.1447 -2.5621
  151MOL0     H20363  -0.989   6.310   0.540 -2.1378  1.4302  1.6744
  151MOL0     H20364  -0.893   6.444   0.611 -0.0978  0.4035  1.1877
  151MOL0     H20365  -0.944   6.333   0.832 -2.8215  2.1076  1.8546
  151MOL0     H20366  -1.000   6.189   0.738  0.4173  0.5627 -2.4633
  151MOL0     H20367   0.127   6.388   0.862 -2.6512  0.2475  1.3071
  151MOL0     H20368   0.329   6.262   0.895 -0.7354  0.2876  1.2529
  151MOL0     H20369   0.456   5.816   0.969 -0.4430  5.3992 -1.7515
  151MOL0     H20370   0.644   5.676   1.044  2.6671  1.4806  1.1917
  151MOL0     H20371   0.511   5.065   1.662 -1.5127  0.1095  1.4872
  151MOL0     H20372   0.375   5.246   1.735  0.2080 -3.1441  1.6258
  151MOL0     H20373   0.291   5.373   2.239  1.6481 -0.7435 -2.0152
  151MOL0     H20374   0.231   5.540   2.412 -1.5794  2.3505 -1.0280
  151MOL0     H20375   0.194   5.683   2.566  2.7275  0.5882  0.0211
  151MOL0     H20376   0.178   5.838   2.582  0.3729 -2.7359  2.7100
  151MOL0     H20377  -0.029   5.711   2.482 -0.7355 -1.2056 -2.9567
  151MOL0     H20378   0.072   5.697   2.341  0.2669  1.2830 -0.5510
  151MOL0     H20379   0.070   5.961   2.353  1.5679  1.4417  1.4280
  151MOL0     H20380  -0.056   5.951   2.481 -0.8390  2.1334 -1.9376
  151MOL0     H20381  -0.072   5.841   2.207 -1.6963  2.1345 -2.3409
  151MOL0     H20382  -0.139   5.987   2.264 -0.4957  0.2815  1.8689
  151MOL0     H20383  -0.452   5.735   2.353 -0.7491  3.0047  3.2865
  151MOL0     H20384   0.445   5.842   2.202  0.1090 -0.0426 -0.1731
  151MOL0     H20385   0.486   5.697   2.023 -3.2192  2.6846 -0.5096
  152MOL0     O20386   3.208   6.007   9.312  0.0571  0.1238  0.3395
  152MOL0     C20387   3.189   6.119   9.265  0.4072  1.0551 -0.4845
  152MOL0     O20388   3.075   6.189   9.252  0.2358 -0.6161  0.0283
  152MOL0     C20389   2.968   6.142   9.323 -0.2158 -0.0368  0.0763
  152MOL0     C20390   2.878   6.047   9.262 -0.1859 -0.5124 -0.1507
  152MOL0     C20391   2.766   5.999   9.330 -1.0014 -0.4585 -1.2529
  152MOL0     C20392   2.733   6.060   9.452 -0.1257  0.0718 -0.2961
  152MOL0     O20393   2.614   6.030   9.507  0.6127 -0.8739  0.4786
  152MOL0     C20394   2.529   6.151   9.505  0.9073 -0.0460  0.3097
  152MOL0     C20395   2.387   6.111   9.540 -0.7058 -0.6931  0.0489
  152MOL0     C20396   2.310   6.228   9.591  0.0918 -0.6460 -0.2305
  152MOL0     C20397   2.336   6.258   9.747  0.8014  0.5791  0.1106
  152MOL0     C20398   2.224   6.336   9.812 -0.7303  0.2315 -0.0255
  152MOL0     C20399   2.215   6.336   9.966  0.0606  0.3853  0.4196
  152MOL0     C20400   2.071   6.380  10.002  0.3725  0.4696 -0.1935
  152MOL0     C20401   2.056   6.537   9.989  0.3928 -0.2830  0.3377
  152MOL0     N20402   1.931   6.589  10.024  0.2811 -0.1013  0.1317
  152MOL0     C20403   1.818   6.570   9.950  0.4290  0.5937 -0.3331
  152MOL0     C20404   1.736   6.679   9.976 -0.1480  0.6680 -0.7564
  152MOL0     C20405   1.599   6.693   9.916  0.4331 -0.1149 -0.7771
  152MOL0     C20406   1.496   6.638  10.019  0.1902 -0.1265 -0.0155
  152MOL0     C20407   1.451   6.759  10.110 -0.3955  0.0216  1.3362
  152MOL0     C20408   1.386   6.734  10.238 -0.3774  0.2221  0.7152
  152MOL0     O20409   1.258   6.664  10.219  0.6439  0.1024 -0.1602
  152MOL0     C20410   1.139   6.719  10.181  0.5582  0.2855  0.5328
  152MOL0     C20411   1.025   6.636  10.194 -0.2019  0.4033 -0.2892
  152MOL0     C20412   0.901   6.679  10.160  0.1803  1.1640  0.3684
  152MOL0     C20413   0.789   6.586  10.177 -0.0116  0.8833 -0.2353
  152MOL0     C20414   0.886   6.818  10.119  0.1886  0.9994 -0.6200
  152MOL0     C20415   0.756   6.873  10.085  0.3380 -0.8405 -0.1596
  152MOL0     O20416   0.742   7.011  10.101  0.7238  0.6991 -0.4109
  152MOL0     C20417   0.650   7.075  10.028  0.0634  0.1405  0.1094
  152MOL0     C20418   0.624   7.052   9.891 -0.6624  0.6781 -0.7185
  152MOL0     C20419   0.535   7.131   9.814 -0.1184  1.1159 -0.1809
  152MOL0     C20420   0.478   7.248   9.866  0.1540 -0.2336 -0.8019
  152MOL0     O20421   0.402   7.330   9.787  0.4788  0.7717 -0.5301
  152MOL0     C20422   0.450   7.341   9.654  0.1191  0.2967  0.0964
  152MOL0     C20423   0.349   7.285   9.553  0.7002 -0.1883  0.4560
  152MOL0     C20424   0.237   7.389   9.527  0.3575 -0.0628  0.1696
  152MOL0     C20425   0.100   7.326   9.493  0.0383 -0.1875 -0.1669
  152MOL0     C20426   0.087   7.272   9.346 -0.7127  0.4113 -0.5095
  152MOL0     C20427  -0.038   7.181   9.335  0.4660 -0.1128  0.6405
  152MOL0     C20428  -0.004   7.046   9.397  0.0237 -0.2063  0.1141
  152MOL0     C20429  -0.118   6.944   9.387  0.7039 -0.4336 -1.0314
  152MOL0    Cl20430  -0.204   6.948   9.233  0.0291  0.3651 -0.4954
  152MOL0     C20431   0.503   7.276  10.005 -0.2058  0.2699  0.5494
  152MOL0     C20432   0.591   7.187  10.080  0.5416 -0.7689  1.3514
  152MOL0     O20433   0.674   6.802  10.032  0.5099 -0.2379  0.1937
  152MOL0     C20434   0.994   6.906  10.118 -0.0796 -0.7743  0.1067
  152MOL0     C20435   1.125   6.856  10.139 -0.6140  0.4141  0.1632
  152MOL0     N20436   1.804   6.753  10.066 -0.1482 -0.3244  0.0006
  152MOL0     N20437   1.922   6.708  10.095  0.0864  1.0297  0.4417
  152MOL0     C20438   2.822   6.156   9.511 -0.0432  1.3685  0.3390
  152MOL0     C20439   2.941   6.193   9.454 -0.6832  0.6405 -0.0218
  152MOL0     C20440   3.308   6.175   9.192 -0.6907 -0.5644 -0.4019
  152MOL0     C20441   3.446   6.135   9.226 -0.3237  0.2355 -0.3102
  152MOL0     C20442   3.553   6.199   9.149 -0.4631  0.1403  0.8184
  152MOL0     C20443   3.531   6.282   9.043  1.1638 -0.3812  1.2165
  152MOL0     O20444   3.642   6.316   8.970  0.1733  0.0440  0.3442
  152MOL0     C20445   3.630   6.428   8.880 -0.2796 -0.2096  0.1659
  152MOL0     C20446   3.784   6.440   8.829 -0.3982  0.3796  0.1060
  152MOL0     C20447   3.878   6.515   8.925 -0.1464  0.0759  0.0978
  152MOL0     C20448   4.018   6.537   8.863  0.4142  0.9300  0.8239
  152MOL0     C20449   4.025   6.652   8.768 -0.0623  0.7562 -0.2887
  152MOL0     C20450   4.031   6.758   8.711 -0.0034 -0.2099 -0.1544
  152MOL0     C20451   3.394   6.329   9.026  0.1272  0.0063 -0.1556
  152MOL0     C20452   3.289   6.279   9.101 -0.7868  0.2639 -0.6580
  152MOL0     H20453   2.893   6.021   9.158  1.5495  0.0559 -0.0773
  152MOL0     H20454   2.699   5.922   9.292 -2.6087 -0.4710  1.3237
  152MOL0     H20455   2.572   6.218   9.580  0.5199 -1.3201  1.7230
  152MOL0     H20456   2.531   6.196   9.406  0.9736  1.8408  1.1315
  152MOL0     H20457   2.330   6.070   9.456 -2.0115  1.9618 -0.4537
  152MOL0     H20458   2.395   6.040   9.623 -1.7559  0.3188  1.0524
  152MOL0     H20459   2.321   6.320   9.533  1.1982 -0.1753  0.6727
  152MOL0     H20460   2.203   6.211   9.584 -0.7794  2.7642  2.2212
  152MOL0     H20461   2.330   6.158   9.793 -2.7831  0.7273  0.1825
  152MOL0     H20462   2.433   6.306   9.765  0.3673  1.0744  1.1841
  152MOL0     H20463   2.229   6.437   9.771 -0.2835 -0.7333 -2.4995
  152MOL0     H20464   2.129   6.292   9.780 -0.7148  0.5670 -0.5458
  152MOL0     H20465   2.218   6.236  10.011 -0.1191 -0.3051 -1.0319
  152MOL0     H20466   2.290   6.401  10.013  0.1171  2.4379 -2.2585
  152MOL0     H20467   2.000   6.337   9.930  0.3158 -0.3786  0.3535
  152MOL0     H20468   2.038   6.347  10.102  0.1807 -2.1232 -1.0457
  152MOL0     H20469   2.067   6.556   9.882 -1.2088 -0.8938  0.0254
  152MOL0     H20470   2.139   6.595  10.029 -1.0911  1.8720  0.5102
  152MOL0     H20471   1.806   6.491   9.876 -1.9487  0.4876  0.0919
  152MOL0     H20472   1.572   6.797   9.896  1.8456 -0.0728 -2.8072
  152MOL0     H20473   1.604   6.640   9.821  2.0787  0.7332 -1.2096
  152MOL0     H20474   1.538   6.562  10.086 -0.5928 -0.2375  0.3649
  152MOL0     H20475   1.410   6.590   9.971  2.0523 -2.0579 -1.6206
  152MOL0     H20476   1.385   6.814  10.043 -2.1757 -0.6089  2.5150
  152MOL0     H20477   1.544   6.812  10.135 -0.0775  0.0660  0.1409
  152MOL0     H20478   1.371   6.825  10.297  2.3205 -0.4189  2.5694
  152MOL0     H20479   1.448   6.674  10.305 -2.0142 -0.1314  1.9801
  152MOL0     H20480   1.046   6.534  10.222  2.3418  0.8687 -0.2787
  152MOL0     H20481   0.762   6.551  10.077  1.0369  1.0698 -0.6015
  152MOL0     H20482   0.824   6.502  10.237 -0.6487  1.4423  0.9407
  152MOL0     H20483   0.705   6.636  10.226  1.6514  3.5228  0.1647
  152MOL0     H20484   0.675   6.971   9.840  0.5474  2.6191 -2.7811
  152MOL0     H20485   0.508   7.096   9.715 -2.0676  1.6939  0.1087
  152MOL0     H20486   0.456   7.449   9.638 -1.0073  0.1191 -1.7677
  152MOL0     H20487   0.552   7.302   9.646  1.2237  2.6575  1.6148
  152MOL0     H20488   0.407   7.271   9.461  1.8945  1.7727  0.8491
  152MOL0     H20489   0.303   7.192   9.585  0.1429 -0.4493 -1.0036
  152MOL0     H20490   0.273   7.448   9.442 -0.5157 -1.9559 -1.6170
  152MOL0     H20491   0.232   7.459   9.611  0.9847  0.5969 -0.3213
  152MOL0     H20492   0.068   7.247   9.561  0.8992  0.4816  1.0468
  152MOL0     H20493   0.027   7.404   9.518  1.6045  0.5083  2.6912
  152MOL0     H20494   0.178   7.213   9.335 -0.0121  1.5793 -1.0978
  152MOL0     H20495   0.092   7.355   9.275 -0.2457  2.2461  1.5836
  152MOL0     H20496  -0.126   7.221   9.387  1.2453  0.8084  1.2850
  152MOL0     H20497  -0.067   7.178   9.230  0.9881  0.3442  0.4755
  152MOL0     H20498   0.015   7.048   9.505 -0.7216  1.8278  0.2384
  152MOL0     H20499   0.080   7.004   9.340  0.0352  0.5098 -0.3960
  152MOL0     H20500  -0.189   6.945   9.469 -0.5859 -1.9543 -2.0675
  152MOL0     H20501  -0.068   6.847   9.393  2.5719  0.5206  0.0411
  152MOL0     H20502   0.464   7.360  10.062  0.4148  1.7446 -1.1136
  152MOL0     H20503   0.618   7.206  10.183 -0.4062 -0.2762  1.5284
  152MOL0     H20504   0.978   7.012  10.105  2.5043 -0.1438  1.4382
  152MOL0     H20505   1.214   6.916  10.124 -0.8624  0.3914 -1.5228
  152MOL0     H20506   2.793   6.202   9.605 -0.4112  3.0075 -0.5413
  152MOL0     H20507   3.008   6.261   9.505  0.1334 -0.0664 -0.1290
  152MOL0     H20508   3.456   6.074   9.315 -1.2586  0.3714 -0.0974
  152MOL0     H20509   3.657   6.172   9.168 -0.2686  0.9379  0.9133
  152MOL0     H20510   3.559   6.394   8.805  1.3273 -0.8291 -1.1277
  152MOL0     H20511   3.597   6.517   8.933 -0.2586  1.2979 -2.2104
  152MOL0     H20512   3.779   6.495   8.735  0.2911 -2.6295 -1.8366
  152MOL0     H20513   3.826   6.344   8.797  0.5999  1.8236 -3.4193
  152MOL0     H20514   3.895   6.468   9.021  3.1446  1.7901  0.5012
  152MOL0     H20515   3.834   6.610   8.956 -2.0715 -0.4763 -0.7811
  152MOL0     H20516   4.050   6.441   8.823 -2.0814  0.5647 -0.4338
  152MOL0     H20517   4.095   6.560   8.938  1.1995 -2.5303  1.2362
  152MOL0     H20518   4.044   6.855   8.667  1.4977 -0.9257 -1.3589
  152MOL0     H20519   3.365   6.404   8.953  1.9263  1.1887  0.2661
  152MOL0     H20520   3.191   6.320   9.079 -1.2864 -1.1392 -1.1964
  153MOL0     O20521   3.315   8.421   0.879 -0.1163  0.6512  0.5814
  153MOL0     C20522   3.320   8.329   0.802 -0.6769  0.3982  0.5647
  153MOL0     O20523   3.222   8.294   0.712  0.2718  0.3986 -0.7246
  153MOL0     C20524   3.101   8.353   0.705  0.1992 -0.1352  0.6341
  153MOL0     C20525   3.036   8.325   0.585 -0.1246 -0.0866 -0.5699
  153MOL0     C20526   2.897   8.345   0.572 -0.1146 -0.2901  0.5903
  153MOL0     C20527   2.827   8.399   0.678  0.1913 -0.2663 -0.0557
  153MOL0     O20528   2.697   8.431   0.664  0.0844 -0.7946  0.2683
  153MOL0     C20529   2.613   8.349   0.740 -0.4466  0.4590 -0.1319
  153MOL0     C20530   2.470   8.406   0.742 -1.2127 -0.6933  0.6665
  153MOL0     C20531   2.386   8.324   0.840  0.0492 -0.5942  0.6589
  153MOL0     C20532   2.245   8.384   0.819  0.7398  0.2539  0.7482
  153MOL0     C20533   2.140   8.314   0.900  0.1836  0.2370 -0.1134
  153MOL0     C20534   1.996   8.371   0.890  0.1811  0.7618 -0.6653
  153MOL0     C20535   1.898   8.303   1.001 -1.5752  0.6805  1.1297
  153MOL0     C20536   1.755   8.364   1.000  0.5162 -0.1828 -0.9894
  153MOL0     N20537   1.653   8.308   0.900 -0.0288  0.5333  0.2100
  153MOL0     C20538   1.664   8.323   0.764 -0.3788  0.3100 -0.2667
  153MOL0     C20539   1.567   8.238   0.710  0.0248 -0.0049  0.4897
  153MOL0     C20540   1.556   8.209   0.563 -0.2711 -0.2385  0.1145
  153MOL0     C20541   1.444   8.285   0.500  0.0897 -0.4132  0.3227
  153MOL0     C20542   1.299   8.244   0.529  0.2796  0.8177 -0.8000
  153MOL0     C20543   1.191   8.334   0.475  1.0065 -0.2729  0.0917
  153MOL0     O20544   1.068   8.281   0.518 -0.2827  0.1401 -0.2283
  153MOL0     C20545   0.957   8.316   0.451  1.3772  0.5648 -0.1098
  153MOL0     C20546   0.842   8.233   0.470  0.2957 -0.9612 -0.8320
  153MOL0     C20547   0.718   8.250   0.399  0.7641 -0.0902  0.8557
  153MOL0     C20548   0.615   8.148   0.433  0.5985  1.0408 -0.2104
  153MOL0     C20549   0.715   8.359   0.301  0.3106  0.4503 -0.1342
  153MOL0     C20550   0.598   8.409   0.228  0.4028  0.6350 -0.1232
  153MOL0     O20551   0.621   8.490   0.124  0.2273  0.3229  0.0923
  153MOL0     C20552   0.515   8.548   0.058  0.7043 -0.5954  0.3585
  153MOL0     C20553   0.513   8.688   0.035 -0.1932 -0.7017 -0.2335
  153MOL0     C20554   0.413   8.755  -0.032 -0.1707  0.0688  0.2004
  153MOL0     C20555   0.302   8.669  -0.079  0.4497 -0.5010  0.5199
  153MOL0     O20556   0.188   8.717  -0.139 -0.2178  1.1825  0.1220
  153MOL0     C20557   0.198   8.848  -0.188  0.2455  1.2854  0.3286
  153MOL0     C20558   0.070   8.878  -0.273 -0.2694  0.7794 -0.5963
  153MOL0     C20559   0.047   9.022  -0.314  0.1438 -0.6902  0.8748
  153MOL0     C20560  -0.084   9.048  -0.395 -0.4234  0.1366  0.4945
  153MOL0     C20561  -0.213   9.023  -0.321 -0.1425  0.6233  1.0416
  153MOL0     C20562  -0.337   9.015  -0.417 -0.2583  0.6820  0.4392
  153MOL0     C20563  -0.460   8.952  -0.345  0.1328 -0.0476 -0.2274
  153MOL0     C20564  -0.582   9.028  -0.387  0.4383  0.0977  0.1843
  153MOL0    Cl20565  -0.639   9.008  -0.554 -0.2406  0.1019 -0.4968
  153MOL0     C20566   0.308   8.538  -0.074  1.0126  0.5545 -0.7233
  153MOL0     C20567   0.409   8.474  -0.002 -0.6624  0.3088 -0.1332
  153MOL0     O20568   0.493   8.362   0.265 -0.6489 -0.7330 -0.7425
  153MOL0     C20569   0.832   8.434   0.285  0.8265 -0.0606  0.9618
  153MOL0     C20570   0.945   8.427   0.365  0.3308  0.3461 -0.0035
  153MOL0     N20571   1.496   8.180   0.817 -0.9702 -0.2104 -0.7761
  153MOL0     N20572   1.554   8.223   0.925  0.1657 -0.3255  0.2928
  153MOL0     C20573   2.886   8.428   0.800 -0.1435  0.3820  0.9555
  153MOL0     C20574   3.029   8.407   0.817  0.1378 -0.0294 -0.3138
  153MOL0     C20575   3.440   8.252   0.806 -1.1750 -0.3290 -0.2602
  153MOL0     C20576   3.429   8.115   0.772 -0.0389 -0.0939 -1.1232
  153MOL0     C20577   3.547   8.038   0.757  0.5034  0.4921 -0.0041
  153MOL0     C20578   3.676   8.092   0.779 -0.3541 -0.8536  0.1690
  153MOL0     O20579   3.778   8.006   0.768 -0.0859  0.2178  0.3688
  153MOL0     C20580   3.907   8.057   0.786  0.9051 -0.1356 -0.1559
  153MOL0     C20581   4.034   7.979   0.784 -0.5263 -0.9697  1.1780
  153MOL0     C20582   4.164   8.053   0.829 -0.5331  0.4499  0.1811
  153MOL0     C20583   4.162   8.114   0.966  0.2928 -0.4396 -0.3589
  153MOL0     C20584   4.304   8.147   1.019  1.1179 -0.2847 -0.2521
  153MOL0     C20585   4.408   8.173   1.074  0.7889 -0.0089 -1.0103
  153MOL0     C20586   3.682   8.229   0.816  0.0522 -0.0132 -0.0689
  153MOL0     C20587   3.566   8.307   0.825 -0.5359 -0.5196 -0.7200
  153MOL0     H20588   3.088   8.269   0.509  1.0591  1.7624 -1.1963
  153MOL0     H20589   2.833   8.316   0.490  0.0775 -3.5706  1.4500
  153MOL0     H20590   2.605   8.247   0.702  2.0442 -1.4914  3.9622
  153MOL0     H20591   2.646   8.338   0.844 -1.5367  0.0442  0.1826
  153MOL0     H20592   2.481   8.505   0.786 -1.0061 -0.2914 -0.2810
  153MOL0     H20593   2.429   8.407   0.641 -2.1696 -0.6911  1.0447
  153MOL0     H20594   2.381   8.219   0.810  0.1089 -0.8195  1.4285
  153MOL0     H20595   2.430   8.333   0.939  2.7796  1.3393 -0.5967
  153MOL0     H20596   2.253   8.491   0.843 -1.5434  0.0628  2.7699
  153MOL0     H20597   2.221   8.385   0.713  1.0578  0.3367  0.6743
  153MOL0     H20598   2.148   8.209   0.870  3.8474 -0.2255  1.9286
  153MOL0     H20599   2.167   8.330   1.004  2.1362 -0.1684 -0.5262
  153MOL0     H20600   2.007   8.479   0.907  0.8041  0.4094  1.5979
  153MOL0     H20601   1.977   8.351   0.785  0.0338 -2.3109 -0.1570
  153MOL0     H20602   1.891   8.194   0.991 -2.0655  0.8645 -1.0608
  153MOL0     H20603   1.935   8.338   1.097 -1.0912  2.0197  0.4677
  153MOL0     H20604   1.759   8.473   0.990 -1.3353  0.1314  0.9366
  153MOL0     H20605   1.707   8.333   1.094  1.5484 -1.7506 -0.9319
  153MOL0     H20606   1.738   8.381   0.709 -1.9161  3.1640  0.4602
  153MOL0     H20607   1.651   8.241   0.519 -0.5551  4.1044  2.1231
  153MOL0     H20608   1.546   8.101   0.552  1.6300 -0.3939 -0.4214
  153MOL0     H20609   1.457   8.286   0.391 -1.3257 -1.4100  0.1090
  153MOL0     H20610   1.452   8.392   0.523  0.8491 -1.0004  3.1160
  153MOL0     H20611   1.294   8.248   0.638 -0.2186 -0.6799 -0.7477
  153MOL0     H20612   1.274   8.140   0.507 -1.9965  1.1247 -0.0234
  153MOL0     H20613   1.193   8.334   0.365 -1.1553 -0.6100  0.0061
  153MOL0     H20614   1.198   8.438   0.508  0.0326 -0.2851  0.3665
  153MOL0     H20615   0.844   8.137   0.521 -2.0791  0.1337  1.5865
  153MOL0     H20616   0.621   8.083   0.345  0.3521 -1.6080  1.6162
  153MOL0     H20617   0.642   8.099   0.527  1.8314 -1.6227 -1.8250
  153MOL0     H20618   0.516   8.190   0.453  1.2267  2.2794  0.3966
  153MOL0     H20619   0.590   8.750   0.081 -0.4983  0.5541 -1.3701
  153MOL0     H20620   0.408   8.863  -0.043  2.2579  0.2782  0.6146
  153MOL0     H20621   0.180   8.913  -0.102 -0.1366 -0.3940  1.5754
  153MOL0     H20622   0.286   8.864  -0.250 -0.1659 -3.3429 -1.8578
  153MOL0     H20623   0.084   8.819  -0.365  0.9941  1.2202 -0.7054
  153MOL0     H20624  -0.016   8.843  -0.215  1.2061 -1.1291  0.5255
  153MOL0     H20625   0.120   9.054  -0.389 -0.9163 -1.6483 -0.6301
  153MOL0     H20626   0.051   9.082  -0.223  0.3560  0.2726  0.2449
  153MOL0     H20627  -0.092   9.149  -0.435 -0.0694  0.0739  0.2635
  153MOL0     H20628  -0.085   8.985  -0.484 -3.5631  2.8067 -1.5728
  153MOL0     H20629  -0.241   9.094  -0.243 -2.1306 -0.2524  1.1828
  153MOL0     H20630  -0.206   8.928  -0.269  2.3036  0.9481  1.4415
  153MOL0     H20631  -0.355   9.120  -0.439 -1.5401  0.3264 -0.2982
  153MOL0     H20632  -0.312   8.950  -0.501 -2.9705  0.2595 -0.1181
  153MOL0     H20633  -0.452   8.945  -0.236  1.1145  0.4163 -0.2592
  153MOL0     H20634  -0.476   8.849  -0.378 -1.7276 -0.6126  2.1361
  153MOL0     H20635  -0.571   9.134  -0.363 -0.6450  0.3110 -0.1921
  153MOL0     H20636  -0.662   8.991  -0.321 -0.5009 -0.4895 -1.2403
  153MOL0     H20637   0.225   8.474  -0.103  4.8501 -5.1371 -0.8210
  153MOL0     H20638   0.401   8.370   0.027  1.7778  0.3358  0.9090
  153MOL0     H20639   0.832   8.529   0.232  2.0252  0.3679  1.6641
  153MOL0     H20640   1.021   8.503   0.346  0.1791  0.5890  0.3411
  153MOL0     H20641   2.829   8.458   0.887  2.1423  1.1778  2.2505
  153MOL0     H20642   3.066   8.435   0.915 -0.1265 -0.9146  0.0464
  153MOL0     H20643   3.338   8.057   0.761 -0.3415 -0.6690  2.7579
  153MOL0     H20644   3.540   7.931   0.743 -1.3544  0.6718 -0.6712
  153MOL0     H20645   3.923   8.139   0.714 -1.7599  1.4154  0.8632
  153MOL0     H20646   3.907   8.105   0.884  0.6649  2.6747 -1.4198
  153MOL0     H20647   4.055   7.938   0.685 -0.8656 -0.6566  0.9711
  153MOL0     H20648   4.013   7.891   0.845 -0.2136 -2.7017 -1.0578
  153MOL0     H20649   4.191   8.129   0.755  0.3840 -1.6138 -1.7435
  153MOL0     H20650   4.243   7.977   0.838 -1.6148 -0.5046  2.0061
  153MOL0     H20651   4.104   8.059   1.042  1.0076 -2.1671 -1.0157
  153MOL0     H20652   4.109   8.210   0.968 -1.4419 -1.1816  4.7171
  153MOL0     H20653   4.496   8.191   1.133 -2.5951 -0.2694  4.9654
  153MOL0     H20654   3.775   8.285   0.822 -0.4970  1.5903 -3.8435
  153MOL0     H20655   3.563   8.412   0.852  2.0358 -0.1171 -1.7297
  154MOL0     O20656   1.495  10.139   1.424  0.0200 -1.3113  0.0346
  154MOL0     C20657   1.582  10.207   1.475  0.1160 -0.0946  1.1018
  154MOL0     O20658   1.564  10.326   1.543  1.1100  0.0411  0.2146
  154MOL0     C20659   1.431  10.363   1.567  0.2307  0.0974  0.1957
  154MOL0     C20660   1.383  10.360   1.701 -0.3246 -0.7923  0.0423
  154MOL0     C20661   1.244  10.403   1.718  0.2382 -0.4328 -0.3468
  154MOL0     C20662   1.161  10.447   1.611  0.6240 -1.2237 -0.6209
  154MOL0     O20663   1.036  10.492   1.644 -0.9033  0.3454  0.2986
  154MOL0     C20664   0.933  10.504   1.550  0.0284  0.0703 -0.2281
  154MOL0     C20665   0.856  10.384   1.494  0.3825 -0.9958 -0.0003
  154MOL0     C20666   0.780  10.440   1.366  0.0584 -0.7017 -0.2117
  154MOL0     C20667   0.682  10.330   1.312  0.1016  0.2828 -1.1489
  154MOL0     C20668   0.616  10.375   1.186  0.0592  0.2395  0.5196
  154MOL0     C20669   0.560  10.251   1.108  0.0020 -0.1182 -0.4520
  154MOL0     C20670   0.521  10.291   0.966  0.1464  0.7232  0.6274
  154MOL0     C20671   0.459  10.167   0.893 -0.7447 -0.0236  0.8097
  154MOL0     N20672   0.414  10.222   0.768 -0.0016 -0.0599  0.0489
  154MOL0     C20673   0.365  10.138   0.671 -0.2213  0.5342  0.6915
  154MOL0     C20674   0.291  10.204   0.582 -0.4642  0.4241  0.5130
  154MOL0     C20675   0.228  10.151   0.459 -0.5820  0.5350 -0.8824
  154MOL0     C20676   0.287  10.208   0.326 -0.4840  0.1094  0.2894
  154MOL0     C20677   0.196  10.187   0.210 -0.6169 -0.0833  0.5281
  154MOL0     C20678   0.247  10.256   0.078  0.9826  0.5101  0.3403
  154MOL0     O20679   0.383  10.236   0.053 -0.0790 -0.3447 -0.7192
  154MOL0     C20680   0.431  10.132  -0.021 -0.2623 -0.3545  0.2616
  154MOL0     C20681   0.353  10.050  -0.107 -0.1723 -0.3507 -0.3107
  154MOL0     C20682   0.410   9.958  -0.186  0.8595  0.3290 -0.3914
  154MOL0     C20683   0.311   9.877  -0.272 -0.3242 -0.1397 -0.0881
  154MOL0     C20684   0.551   9.930  -0.168  0.2270  0.0916  0.1925
  154MOL0     C20685   0.616   9.806  -0.228 -0.0294 -0.4920 -0.2145
  154MOL0     O20686   0.754   9.812  -0.245 -0.5450  0.5457 -0.3516
  154MOL0     C20687   0.834   9.716  -0.293  0.6436 -0.1870  0.3015
  154MOL0     C20688   0.813   9.577  -0.283  0.3032 -0.4296 -0.7426
  154MOL0     C20689   0.896   9.474  -0.334  0.2076 -0.0817 -0.4666
  154MOL0     C20690   1.008   9.519  -0.404 -0.6875 -0.0017  0.0602
  154MOL0     O20691   1.100   9.432  -0.458 -0.9253  0.6457  0.0724
  154MOL0     C20692   1.115   9.414  -0.600 -0.3098 -0.3725 -0.0804
  154MOL0     C20693   1.133   9.268  -0.637 -0.2190  0.4244  0.1836
  154MOL0     C20694   1.278   9.206  -0.620  0.1944  0.0157  0.4748
  154MOL0     C20695   1.272   9.046  -0.631 -1.3607 -0.4896  0.1448
  154MOL0     C20696   1.420   8.987  -0.618 -0.2732 -0.5151  0.2067
  154MOL0     C20697   1.493   8.990  -0.478  0.1173  0.2094  0.0216
  154MOL0     C20698   1.629   8.916  -0.475 -0.4316  0.3090 -0.1564
  154MOL0     C20699   1.745   8.995  -0.529  0.2125  0.6016  1.0131
  154MOL0    Cl20700   1.898   8.898  -0.532  0.3319 -0.2770  0.2216
  154MOL0     C20701   1.036   9.656  -0.413  0.3019 -0.6491  0.5977
  154MOL0     C20702   0.947   9.750  -0.354 -0.4438 -0.1657 -0.2722
  154MOL0     O20703   0.542   9.715  -0.267 -0.5216 -0.0246 -0.0769
  154MOL0     C20704   0.626  10.010  -0.082  0.2645 -0.1569  0.4350
  154MOL0     C20705   0.567  10.111  -0.010 -0.8556  0.5713  0.1838
  154MOL0     N20706   0.295  10.335   0.638  1.0014  0.5995  0.4314
  154MOL0     N20707   0.356  10.339   0.750  0.1030 -0.6232 -0.0886
  154MOL0     C20708   1.219  10.438   1.484  0.4298  0.4529  0.0698
  154MOL0     C20709   1.346  10.405   1.461 -0.0471  0.3698  0.0045
  154MOL0     C20710   1.722  10.166   1.456  0.4148 -0.7578 -0.4474
  154MOL0     C20711   1.815  10.261   1.500 -1.0445 -0.4568  0.4572
  154MOL0     C20712   1.951  10.239   1.497  0.3539  0.5947  0.0642
  154MOL0     C20713   1.996  10.114   1.444  0.0948  0.5520  0.4354
  154MOL0     O20714   2.126  10.090   1.426 -0.0383  0.0238  0.5409
  154MOL0     C20715   2.155  10.092   1.280 -0.6547  0.7251  0.4572
  154MOL0     C20716   2.299  10.131   1.250 -0.4641 -0.3906 -0.8539
  154MOL0     C20717   2.330  10.282   1.285  0.5263  0.8711 -1.2171
  154MOL0     C20718   2.468  10.333   1.264 -0.4400  0.5388  0.8808
  154MOL0     C20719   2.587  10.234   1.270 -0.4460 -0.8843 -0.7804
  154MOL0     C20720   2.673  10.153   1.275  0.0359  0.4668 -0.3685
  154MOL0     C20721   1.903  10.021   1.403  0.6318 -0.1065  0.5859
  154MOL0     C20722   1.771  10.042   1.411  0.3345  0.0719  0.4178
  154MOL0     H20723   1.447  10.334   1.785  0.0872  1.3568  0.4569
  154MOL0     H20724   1.203  10.389   1.817  3.0163  1.4492  1.2008
  154MOL0     H20725   0.857  10.556   1.610  0.3232 -1.4931  1.5981
  154MOL0     H20726   0.968  10.579   1.478 -1.5457  1.5179  0.4444
  154MOL0     H20727   0.928  10.305   1.471  1.0999 -0.8600  1.6330
  154MOL0     H20728   0.782  10.344   1.564 -2.0883  3.1116  0.1144
  154MOL0     H20729   0.727  10.531   1.397  3.4697  0.8709  1.5276
  154MOL0     H20730   0.852  10.461   1.286 -0.4621 -0.4105 -0.6082
  154MOL0     H20731   0.750  10.245   1.304  0.7175  0.7477 -0.9531
  154MOL0     H20732   0.606  10.326   1.390  1.9504  0.6185  0.7773
  154MOL0     H20733   0.544  10.453   1.214  3.2578  4.1813 -1.1131
  154MOL0     H20734   0.687  10.424   1.118 -0.7317  1.8436  0.7909
  154MOL0     H20735   0.638  10.174   1.107 -0.8059 -0.9612 -1.7575
  154MOL0     H20736   0.469  10.220   1.160 -2.4840  3.5045 -2.2641
  154MOL0     H20737   0.457  10.379   0.962 -0.3477  0.3183 -1.5724
  154MOL0     H20738   0.619  10.315   0.926 -0.7531  0.8942 -1.6141
  154MOL0     H20739   0.372  10.139   0.952 -1.7933 -0.6715 -0.9640
  154MOL0     H20740   0.528  10.083   0.878  1.3146  1.5209  1.2476
  154MOL0     H20741   0.383  10.030   0.672  0.4534  0.6237  2.4981
  154MOL0     H20742   0.221  10.042   0.453 -0.9904  0.5519 -0.7518
  154MOL0     H20743   0.123  10.181   0.468  0.2094  2.9131  1.7696
  154MOL0     H20744   0.376  10.150   0.301 -1.1134 -0.8282  0.1984
  154MOL0     H20745   0.323  10.311   0.340  1.1644 -0.5467  1.2110
  154MOL0     H20746   0.091  10.215   0.223 -1.1780 -0.8818 -1.7319
  154MOL0     H20747   0.200  10.081   0.182 -2.0169  0.4452 -2.0271
  154MOL0     H20748   0.215  10.360   0.088 -3.2142 -0.7589  2.7417
  154MOL0     H20749   0.179  10.219  -0.000  0.3200 -0.9958  1.5705
  154MOL0     H20750   0.245  10.061  -0.099 -0.1844 -0.2612 -0.6018
  154MOL0     H20751   0.280   9.792  -0.210 -0.2534  0.8156  1.3186
  154MOL0     H20752   0.227   9.947  -0.284 -1.7101 -1.4648  1.3293
  154MOL0     H20753   0.360   9.853  -0.366 -0.6703  1.0185 -0.5856
  154MOL0     H20754   0.730   9.545  -0.222  1.3733 -2.3352 -0.2017
  154MOL0     H20755   0.887   9.367  -0.318  0.8065  0.0720  1.0950
  154MOL0     H20756   1.038   9.459  -0.664 -0.3086  1.2883  1.0243
  154MOL0     H20757   1.206   9.472  -0.617  1.6726 -2.6402  2.0027
  154MOL0     H20758   1.067   9.201  -0.581  0.6470 -1.9197 -1.4282
  154MOL0     H20759   1.102   9.252  -0.741  0.3402 -1.2698  0.2332
  154MOL0     H20760   1.319   9.235  -0.523 -2.6186  4.0050  0.7167
  154MOL0     H20761   1.346   9.244  -0.697 -1.4672  0.8736 -0.6221
  154MOL0     H20762   1.204   9.020  -0.549 -1.4459  0.9275  0.5415
  154MOL0     H20763   1.213   9.020  -0.720  0.2148  1.0341 -1.4333
  154MOL0     H20764   1.481   9.031  -0.697 -1.5105  0.1748 -0.3832
  154MOL0     H20765   1.404   8.882  -0.647 -0.0913 -1.2321  2.4762
  154MOL0     H20766   1.493   9.090  -0.436 -1.9998  0.6787 -0.9310
  154MOL0     H20767   1.432   8.940  -0.402 -0.9861  2.4732  0.7129
  154MOL0     H20768   1.620   8.829  -0.541 -0.4067 -0.4345  0.7983
  154MOL0     H20769   1.642   8.896  -0.368 -1.9764  2.6296  0.5335
  154MOL0     H20770   1.766   9.087  -0.473  0.8136  0.3243  1.2645
  154MOL0     H20771   1.704   9.023  -0.626 -1.5723 -0.5417  1.4070
  154MOL0     H20772   1.128   9.694  -0.457 -1.3002  4.1113  0.8540
  154MOL0     H20773   0.953   9.856  -0.378 -3.3528  0.0216 -0.5133
  154MOL0     H20774   0.726   9.984  -0.050  0.8921  0.6435 -0.7698
  154MOL0     H20775   0.625  10.169   0.061 -2.6303  2.6481  0.0525
  154MOL0     H20776   1.155  10.466   1.401 -0.5954 -0.1259  0.6431
  154MOL0     H20777   1.391  10.410   1.362  2.4746  1.2128  1.0958
  154MOL0     H20778   1.793  10.361   1.538  0.8378  0.7389 -1.3243
  154MOL0     H20779   2.021  10.317   1.524 -0.1453  0.2354  2.6770
  154MOL0     H20780   2.142   9.992   1.236 -0.3149  0.5561  0.7394
  154MOL0     H20781   2.092  10.173   1.243 -2.8409  0.2795  2.9260
  154MOL0     H20782   2.306  10.103   1.145  0.0134 -0.6228 -0.7616
  154MOL0     H20783   2.360  10.055   1.300 -0.3545 -0.2174 -0.7224
  154MOL0     H20784   2.305  10.294   1.391 -1.3501  0.8040 -1.6189
  154MOL0     H20785   2.261  10.344   1.227  0.7849  0.0142 -2.4806
  154MOL0     H20786   2.482  10.421   1.327 -1.0895 -1.0608  3.4174
  154MOL0     H20787   2.481  10.382   1.168  0.1753  0.4133  0.8949
  154MOL0     H20788   2.750  10.078   1.284  0.6716  1.3517  3.1061
  154MOL0     H20789   1.933   9.932   1.349  1.7622  1.0095 -0.7117
  154MOL0     H20790   1.704   9.964   1.377  1.1402  0.3107 -1.8744
  155MOL0     O20791   0.151   6.872   3.917 -0.3056  0.9285  0.1530
  155MOL0     C20792   0.099   6.863   4.031  0.5125  0.5052  0.1076
  155MOL0     O20793  -0.030   6.887   4.058 -0.3786  0.3150  0.0123
  155MOL0     C20794  -0.108   6.911   3.948 -0.0122  0.0693 -0.4897
  155MOL0     C20795  -0.164   7.035   3.947 -0.0495 -0.2226  0.3992
  155MOL0     C20796  -0.250   7.073   3.845  0.2796  0.1328 -0.1194
  155MOL0     C20797  -0.285   6.988   3.742 -0.0583 -0.8209  0.1209
  155MOL0     O20798  -0.370   7.034   3.639 -0.5508  0.0724 -0.9921
  155MOL0     C20799  -0.498   7.086   3.679 -0.2030  0.3587  0.0977
  155MOL0     C20800  -0.587   7.055   3.557 -0.0679  0.3783 -0.0627
  155MOL0     C20801  -0.725   7.099   3.592 -0.3880 -0.4831 -0.2172
  155MOL0     C20802  -0.840   7.045   3.501  0.4057 -0.7218  0.6827
  155MOL0     C20803  -0.981   7.105   3.539 -0.4511  0.0248  0.3183
  155MOL0     C20804  -0.972   7.255   3.527  0.3079 -0.8373 -0.2548
  155MOL0     C20805  -1.111   7.307   3.486 -0.9877  0.1590  0.7360
  155MOL0     C20806  -1.226   7.281   3.580  0.9246  0.1051  0.6495
  155MOL0     N20807  -1.344   7.311   3.504 -0.7889  1.1025 -0.0171
  155MOL0     C20808  -1.406   7.246   3.394 -0.4057 -0.2366 -1.2016
  155MOL0     C20809  -1.513   7.319   3.373  0.4746 -0.2508  1.2721
  155MOL0     C20810  -1.622   7.288   3.271  1.0126 -0.2068  0.0778
  155MOL0     C20811  -1.710   7.406   3.222 -0.0674 -1.1888  0.4605
  155MOL0     C20812  -1.838   7.343   3.155 -0.2541 -0.2519 -0.1345
  155MOL0     C20813  -1.941   7.451   3.110  0.3552 -0.2239 -0.6816
  155MOL0     O20814  -2.000   7.516   3.230 -0.2335 -0.0338  0.5230
  155MOL0     C20815  -2.135   7.529   3.230  0.4628 -0.6079 -0.1087
  155MOL0     C20816  -2.180   7.654   3.252 -0.0377 -0.1808  0.6944
  155MOL0     C20817  -2.314   7.671   3.290  0.7159 -0.1885  0.5847
  155MOL0     C20818  -2.365   7.809   3.316 -0.2462  0.4356 -0.9228
  155MOL0     C20819  -2.410   7.564   3.292  0.4555 -0.5972 -0.0815
  155MOL0     C20820  -2.552   7.583   3.320  0.3685  0.2468 -0.0131
  155MOL0     O20821  -2.618   7.701   3.280 -0.1330  0.1237 -0.2841
  155MOL0     C20822  -2.760   7.703   3.289 -0.7631 -0.2916  0.0178
  155MOL0     C20823  -2.849   7.606   3.240 -0.5623 -0.3451  0.0176
  155MOL0     C20824  -2.987   7.619   3.241 -0.2049  0.8696  0.2741
  155MOL0     C20825  -3.043   7.716   3.316 -0.2773 -0.6258  0.6419
  155MOL0     O20826  -3.180   7.708   3.332  0.5280 -0.6300 -0.3211
  155MOL0     C20827  -3.230   7.765   3.455 -0.4130  0.2499 -0.1914
  155MOL0     C20828  -3.375   7.734   3.481 -0.1664  0.0569 -0.0688
  155MOL0     C20829  -3.461   7.814   3.382  0.1739 -0.4179  0.5102
  155MOL0     C20830  -3.604   7.815   3.439  0.0056  0.1893  0.6710
  155MOL0     C20831  -3.714   7.876   3.346 -0.4797 -0.5979 -0.0541
  155MOL0     C20832  -3.851   7.833   3.392  0.9374 -0.5839 -0.2963
  155MOL0     C20833  -3.950   7.881   3.291 -0.5856 -0.0538  0.6150
  155MOL0     C20834  -4.085   7.814   3.302 -0.0129  0.2202  0.7258
  155MOL0    Cl20835  -4.183   7.863   3.436  0.1087 -0.5503 -0.2535
  155MOL0     C20836  -2.961   7.818   3.371  0.0125 -0.5462 -0.0814
  155MOL0     C20837  -2.823   7.813   3.358 -0.0181  0.5456  0.0374
  155MOL0     O20838  -2.604   7.484   3.370 -0.0469 -0.3147  0.2410
  155MOL0     C20839  -2.362   7.435   3.267 -1.0653  1.3952  0.7237
  155MOL0     C20840  -2.221   7.417   3.225  0.1136 -0.2739 -1.2294
  155MOL0     N20841  -1.506   7.436   3.445 -0.2227  0.0932  0.2367
  155MOL0     N20842  -1.413   7.427   3.526  0.1039  1.4962 -0.5797
  155MOL0     C20843  -0.236   6.853   3.752 -0.1948 -0.0863 -0.2305
  155MOL0     C20844  -0.148   6.813   3.860  0.9413  0.1895 -0.2062
  155MOL0     C20845   0.181   6.826   4.144 -0.7396 -0.7696 -0.8038
  155MOL0     C20846   0.123   6.773   4.262  0.3676  0.5461  0.2585
  155MOL0     C20847   0.209   6.746   4.373  0.2301  0.3568 -0.0829
  155MOL0     C20848   0.353   6.742   4.364  0.3604 -0.1049 -0.4896
  155MOL0     O20849   0.433   6.713   4.470 -0.1239 -0.0094  0.0040
  155MOL0     C20850   0.367   6.695   4.607 -0.1064 -0.0026  1.0870
  155MOL0     C20851   0.475   6.640   4.697 -0.0578  0.2474  0.7534
  155MOL0     C20852   0.599   6.734   4.694  0.3559 -0.1291 -1.0100
  155MOL0     C20853   0.710   6.699   4.797  0.1160 -0.6256 -0.5208
  155MOL0     C20854   0.778   6.571   4.771  0.0258 -0.8717  0.7748
  155MOL0     C20855   0.842   6.478   4.740 -0.3470  0.6695 -0.1590
  155MOL0     C20856   0.406   6.782   4.241  1.4211 -0.0923  0.7380
  155MOL0     C20857   0.321   6.818   4.134  0.2140  0.2344  0.8583
  155MOL0     H20858  -0.143   7.105   4.027 -0.7952  1.1587 -0.5778
  155MOL0     H20859  -0.300   7.168   3.860 -0.9052 -0.4791 -0.1026
  155MOL0     H20860  -0.541   7.018   3.753  0.4769  0.0706  0.2421
  155MOL0     H20861  -0.502   7.187   3.719 -2.5684  0.9850 -1.5285
  155MOL0     H20862  -0.561   7.112   3.467 -2.6908  0.4599 -0.8550
  155MOL0     H20863  -0.589   6.948   3.534  1.0705 -0.2230  2.3575
  155MOL0     H20864  -0.755   7.082   3.696 -1.7312 -0.5490 -0.5920
  155MOL0     H20865  -0.719   7.207   3.581 -2.1319 -0.3827 -0.4598
  155MOL0     H20866  -0.827   7.070   3.395  2.9803 -1.8403  0.6610
  155MOL0     H20867  -0.845   6.937   3.520  1.9303 -0.4218  3.1337
  155MOL0     H20868  -1.057   7.069   3.469 -0.2094  0.0726  0.0263
  155MOL0     H20869  -1.011   7.099   3.644  1.0195  2.0997  0.9237
  155MOL0     H20870  -0.935   7.313   3.612 -1.0707  0.8213 -0.7328
  155MOL0     H20871  -0.908   7.289   3.445  1.5320 -0.8863  0.6377
  155MOL0     H20872  -1.097   7.415   3.479  2.8078 -0.2376 -0.5807
  155MOL0     H20873  -1.132   7.268   3.386  2.5680  1.2025 -0.5881
  155MOL0     H20874  -1.230   7.341   3.671  0.2142  2.2091 -0.7025
  155MOL0     H20875  -1.220   7.174   3.601  0.9886 -0.4522 -1.8412
  155MOL0     H20876  -1.387   7.152   3.344  2.7986  0.7665 -2.1043
  155MOL0     H20877  -1.570   7.247   3.184  2.4084  1.2737  0.1768
  155MOL0     H20878  -1.693   7.210   3.302 -2.2578  1.4035 -2.6760
  155MOL0     H20879  -1.650   7.471   3.158  0.7194 -3.0681 -0.7899
  155MOL0     H20880  -1.733   7.472   3.307  1.3942 -1.4999  1.1313
  155MOL0     H20881  -1.888   7.264   3.212  0.1312 -1.5535 -1.5454
  155MOL0     H20882  -1.805   7.300   3.060 -0.4773 -1.3706  0.2777
  155MOL0     H20883  -2.023   7.396   3.061 -2.4569  1.1795  2.0937
  155MOL0     H20884  -1.893   7.516   3.036  2.0297  0.6729  1.1059
  155MOL0     H20885  -2.117   7.743   3.253  3.1167 -2.2576 -0.0052
  155MOL0     H20886  -2.430   7.802   3.404 -0.8862 -0.7902 -1.4782
  155MOL0     H20887  -2.276   7.872   3.332 -1.1420  1.3172  0.9054
  155MOL0     H20888  -2.428   7.838   3.232 -2.1075 -2.3398 -0.6117
  155MOL0     H20889  -2.797   7.524   3.191  3.5885  2.3841 -0.7098
  155MOL0     H20890  -3.051   7.559   3.177 -1.6794  0.8714  1.6857
  155MOL0     H20891  -3.169   7.728   3.538 -3.9436 -0.3665  2.3515
  155MOL0     H20892  -3.219   7.874   3.453  2.0546  0.1199  1.8073
  155MOL0     H20893  -3.384   7.626   3.462 -0.3984  0.2320 -1.0055
  155MOL0     H20894  -3.403   7.754   3.585 -3.7736 -1.4124 -0.6130
  155MOL0     H20895  -3.468   7.767   3.284  1.2722 -1.2912  0.8403
  155MOL0     H20896  -3.439   7.921   3.377 -1.9667  0.0040 -2.1076
  155MOL0     H20897  -3.625   7.713   3.474  2.3307 -0.8762 -0.7994
  155MOL0     H20898  -3.593   7.875   3.530 -1.3866  1.8396 -0.1881
  155MOL0     H20899  -3.694   7.839   3.245  2.8233 -1.4949  0.8065
  155MOL0     H20900  -3.709   7.985   3.346  0.5550 -0.5975 -2.0527
  155MOL0     H20901  -3.843   7.725   3.401  0.2662 -0.5407  0.9257
  155MOL0     H20902  -3.864   7.872   3.494  1.5691 -2.0766  0.3757
  155MOL0     H20903  -3.903   7.870   3.193  2.1098  2.0548  1.5203
  155MOL0     H20904  -3.975   7.987   3.301 -0.6929  0.4897 -3.6085
  155MOL0     H20905  -4.085   7.706   3.285 -1.0774  0.4642 -1.1572
  155MOL0     H20906  -4.139   7.840   3.210  2.0231  3.6356  0.3416
  155MOL0     H20907  -3.004   7.905   3.419 -1.8333 -0.7828 -1.2031
  155MOL0     H20908  -2.773   7.896   3.406  1.8521 -1.6445  2.0965
  155MOL0     H20909  -2.427   7.352   3.289 -2.2329  2.5262  1.7204
  155MOL0     H20910  -2.187   7.315   3.212  0.1708 -0.2726 -1.0897
  155MOL0     H20911  -0.261   6.779   3.677 -0.0676 -0.2977 -0.0701
  155MOL0     H20912  -0.114   6.712   3.877 -0.0459 -0.2114 -0.5248
  155MOL0     H20913   0.018   6.780   4.287  0.3894 -2.4330  1.5191
  155MOL0     H20914   0.157   6.732   4.467 -0.0628  2.0368  0.0423
  155MOL0     H20915   0.321   6.787   4.646 -2.3541 -0.1679 -0.8959
  155MOL0     H20916   0.289   6.618   4.596 -0.7579  0.7743  0.0467
  155MOL0     H20917   0.501   6.539   4.663  0.0561 -0.5579  3.0210
  155MOL0     H20918   0.433   6.609   4.793 -1.4844 -0.5720 -0.0975
  155MOL0     H20919   0.567   6.836   4.715  0.4684 -0.3036  0.0781
  155MOL0     H20920   0.644   6.738   4.594 -1.4188  2.0540 -1.7929
  155MOL0     H20921   0.658   6.688   4.892  1.3016 -0.8330  0.1231
  155MOL0     H20922   0.776   6.786   4.806 -2.2296  0.9951  3.1441
  155MOL0     H20923   0.909   6.396   4.723 -0.2259  0.8935 -0.7635
  155MOL0     H20924   0.512   6.766   4.222  1.3117 -2.8517  2.0614
  155MOL0     H20925   0.370   6.842   4.040  0.8322  0.7197  1.2999
  156MOL0     O20926   6.447   5.784   1.296  0.5064  0.0957 -0.0917
  156MOL0     C20927   6.459   5.864   1.204 -0.8346  0.0943  0.0742
  156MOL0     O20928   6.382   5.978   1.177  0.1876  0.4589  0.5744
  156MOL0     C20929   6.259   6.007   1.237  0.2761 -0.2576 -0.0566
  156MOL0     C20930   6.200   6.131   1.206 -0.3021 -0.8639 -0.9116
  156MOL0     C20931   6.073   6.164   1.247  0.6410 -0.5108 -0.0428
  156MOL0     C20932   6.004   6.092   1.352 -0.4371 -0.0944  0.6132
  156MOL0     O20933   5.885   6.123   1.401  0.0928 -0.0232 -0.0229
  156MOL0     C20934   5.856   6.260   1.415  0.0435  0.3633 -0.1999
  156MOL0     C20935   5.729   6.288   1.499 -0.3052  0.0114 -0.9886
  156MOL0     C20936   5.603   6.223   1.461 -0.5120 -0.7618 -0.2293
  156MOL0     C20937   5.508   6.182   1.566  0.3975 -0.2693  0.0169
  156MOL0     C20938   5.451   6.302   1.651 -0.2738 -0.1653 -1.1562
  156MOL0     C20939   5.345   6.389   1.584  0.4285  0.3894  0.9119
  156MOL0     C20940   5.221   6.312   1.525  0.6711  0.6547  0.3747
  156MOL0     C20941   5.146   6.218   1.627  0.3721  0.4225 -0.4914
  156MOL0     N20942   5.026   6.175   1.557 -0.0653 -0.8131  0.3027
  156MOL0     C20943   5.021   6.066   1.476 -0.6285  0.5211  0.4105
  156MOL0     C20944   4.889   6.058   1.440  0.7842 -0.4405 -0.4869
  156MOL0     C20945   4.825   5.957   1.359  0.2971  0.4590 -0.0699
  156MOL0     C20946   4.862   5.979   1.218 -0.1710 -0.5559  0.8500
  156MOL0     C20947   4.790   5.882   1.121 -0.1307  0.1727 -0.4544
  156MOL0     C20948   4.851   5.741   1.132 -0.3989  0.2725 -0.6132
  156MOL0     O20949   4.835   5.683   1.005 -0.0567  0.2997 -0.0460
  156MOL0     C20950   4.726   5.605   0.974 -0.1544  0.0234  0.4068
  156MOL0     C20951   4.621   5.574   1.054 -0.0649  0.3980 -0.1292
  156MOL0     C20952   4.528   5.471   1.029  0.5076 -0.8772 -0.0912
  156MOL0     C20953   4.451   5.428   1.149 -0.8106  0.2378  0.7454
  156MOL0     C20954   4.515   5.419   0.892 -0.2501 -0.7344 -0.1963
  156MOL0     C20955   4.420   5.321   0.836  0.7727 -0.6743 -0.0800
  156MOL0     O20956   4.314   5.287   0.917 -0.0268 -0.3194 -0.3203
  156MOL0     C20957   4.199   5.223   0.873  0.6006 -1.1397  0.5517
  156MOL0     C20958   4.141   5.130   0.958  0.9617  0.3074 -0.1677
  156MOL0     C20959   4.027   5.060   0.914 -1.0030  0.2522 -0.2842
  156MOL0     C20960   3.966   5.078   0.790 -0.2748  0.2198  0.6422
  156MOL0     O20961   3.845   5.019   0.775 -0.0215 -0.1182 -0.0069
  156MOL0     C20962   3.804   4.982   0.644 -0.1055 -0.2046  0.5119
  156MOL0     C20963   3.706   4.867   0.664  0.1188 -0.9017 -0.2749
  156MOL0     C20964   3.633   4.826   0.533  0.4240  0.1127  0.4010
  156MOL0     C20965   3.552   4.694   0.542  0.5954  0.0353 -0.4890
  156MOL0     C20966   3.456   4.668   0.427 -0.0615 -0.8910 -0.0846
  156MOL0     C20967   3.375   4.548   0.439 -0.2259  0.4868  0.2345
  156MOL0     C20968   3.279   4.541   0.561 -0.8172  0.8770 -0.2060
  156MOL0     C20969   3.153   4.615   0.529  0.2416 -0.8973  0.5485
  156MOL0    Cl20970   3.038   4.606   0.675  0.1984  0.1430 -0.2203
  156MOL0     C20971   4.030   5.172   0.707 -0.1428  0.3520  0.4140
  156MOL0     C20972   4.138   5.250   0.755 -1.0552  0.6958 -0.3753
  156MOL0     O20973   4.435   5.285   0.714  0.0911  0.7219 -0.9002
  156MOL0     C20974   4.621   5.452   0.808 -0.3629 -0.2745 -0.4606
  156MOL0     C20975   4.721   5.544   0.846 -0.6211 -1.6767  0.7712
  156MOL0     N20976   4.831   6.170   1.490  0.2637 -0.6958 -0.4881
  156MOL0     N20977   4.905   6.236   1.570 -0.2087 -0.1462  0.0201
  156MOL0     C20978   6.065   5.973   1.382 -0.0642 -0.4056  0.4889
  156MOL0     C20979   6.183   5.926   1.327 -0.6369 -0.3491 -0.3219
  156MOL0     C20980   6.576   5.847   1.115 -0.8818 -0.6773 -0.1455
  156MOL0     C20981   6.634   5.958   1.042 -1.2105  0.5373 -0.3342
  156MOL0     C20982   6.755   5.954   0.976 -0.0451  0.4399  0.0590
  156MOL0     C20983   6.823   5.835   0.979 -0.0381 -0.6648  0.1816
  156MOL0     O20984   6.948   5.837   0.924  0.2201  0.1272  0.5131
  156MOL0     C20985   7.025   5.717   0.903  0.4608 -1.0390 -0.0144
  156MOL0     C20986   7.137   5.746   0.804 -0.2122 -0.5069  0.5744
  156MOL0     C20987   7.261   5.820   0.859  0.6680  0.7644  0.5402
  156MOL0     C20988   7.298   5.950   0.786 -0.3465  0.2144  0.4881
  156MOL0     C20989   7.196   6.053   0.815 -0.8063  0.0512  0.5195
  156MOL0     C20990   7.113   6.142   0.823  0.0048  0.2399 -0.6714
  156MOL0     C20991   6.776   5.721   1.047 -0.1311  0.1305  0.6702
  156MOL0     C20992   6.654   5.732   1.111  0.7672 -0.0274  0.2280
  156MOL0     H20993   6.245   6.204   1.141  0.3543  0.4642  0.9415
  156MOL0     H20994   6.033   6.257   1.207 -2.7919 -1.6013  0.5224
  156MOL0     H20995   5.944   6.317   1.446  0.7274  1.3541 -3.5617
  156MOL0     H20996   5.837   6.297   1.314 -0.9495 -0.8308 -0.4689
  156MOL0     H20997   5.754   6.239   1.594 -0.1671 -2.4772 -2.2357
  156MOL0     H20998   5.722   6.397   1.508 -2.1837  0.0001 -1.7916
  156MOL0     H20999   5.554   6.292   1.391  0.6556  0.0919 -0.2262
  156MOL0     H21000   5.633   6.128   1.416  1.7448 -0.2511  0.0691
  156MOL0     H21001   5.433   6.107   1.537 -0.1005  1.5712 -4.3114
  156MOL0     H21002   5.572   6.139   1.643  1.0204 -0.4931 -0.6113
  156MOL0     H21003   5.415   6.253   1.742  2.9815  1.1311  1.0062
  156MOL0     H21004   5.536   6.368   1.672 -1.3125  0.6600  0.7321
  156MOL0     H21005   5.321   6.466   1.658  2.8669 -0.0129  2.2292
  156MOL0     H21006   5.386   6.438   1.496 -1.0460 -1.4994 -0.9326
  156MOL0     H21007   5.153   6.389   1.489  2.4175  1.7556 -0.7194
  156MOL0     H21008   5.248   6.248   1.440  0.7898  0.2651  0.7021
  156MOL0     H21009   5.113   6.282   1.710 -0.5317 -1.3574  0.6020
  156MOL0     H21010   5.195   6.127   1.664 -0.0988  0.4525  0.2323
  156MOL0     H21011   5.097   5.993   1.454 -0.2523  1.4545 -1.7043
  156MOL0     H21012   4.851   5.856   1.393 -2.1412 -0.4680 -0.6833
  156MOL0     H21013   4.715   5.957   1.360  0.1613 -2.8221  2.7820
  156MOL0     H21014   4.967   5.977   1.189  0.0323  0.7456  1.4206
  156MOL0     H21015   4.822   6.076   1.187  0.5678 -0.4685  0.1202
  156MOL0     H21016   4.813   5.918   1.020  4.4001 -0.6697  0.0654
  156MOL0     H21017   4.684   5.871   1.146  0.3527 -1.0016  1.2799
  156MOL0     H21018   4.816   5.684   1.218 -2.3231  1.5162 -0.5144
  156MOL0     H21019   4.961   5.741   1.134 -0.4014  1.1492 -0.4407
  156MOL0     H21020   4.622   5.624   1.151  1.6250  1.3677 -0.5921
  156MOL0     H21021   4.442   5.498   1.233 -0.3890  0.0181  0.9763
  156MOL0     H21022   4.344   5.427   1.127 -1.1673  2.0712  2.1469
  156MOL0     H21023   4.477   5.325   1.174 -2.0611 -0.5051 -0.8082
  156MOL0     H21024   4.185   5.110   1.055 -0.0716 -1.5887 -0.0352
  156MOL0     H21025   3.978   4.994   0.984 -0.9023  0.1347 -0.3252
  156MOL0     H21026   3.758   5.062   0.585  1.4589 -0.1116 -0.6440
  156MOL0     H21027   3.896   4.957   0.592  2.4110  2.9332  3.0282
  156MOL0     H21028   3.760   4.781   0.705  0.9050 -0.2641  0.0566
  156MOL0     H21029   3.629   4.899   0.734 -1.2976 -1.9918 -1.2615
  156MOL0     H21030   3.712   4.820   0.458  0.7629  1.9231  0.5727
  156MOL0     H21031   3.562   4.905   0.504  0.0147 -1.1261 -2.3176
  156MOL0     H21032   3.623   4.612   0.557  1.9753  1.6166  2.3727
  156MOL0     H21033   3.496   4.690   0.636 -0.6609 -1.1678 -1.2501
  156MOL0     H21034   3.518   4.655   0.338  1.3480 -0.1062  0.7345
  156MOL0     H21035   3.398   4.760   0.416 -0.7874 -1.3477 -0.1271
  156MOL0     H21036   3.316   4.544   0.348 -0.9434 -2.1739  0.7428
  156MOL0     H21037   3.441   4.461   0.430 -0.8404  0.0004  0.4037
  156MOL0     H21038   3.333   4.567   0.653 -0.6607  1.7790 -0.5388
  156MOL0     H21039   3.257   4.438   0.588  3.9903 -0.3062  0.0838
  156MOL0     H21040   3.100   4.567   0.445  0.7870  0.2150 -0.4696
  156MOL0     H21041   3.171   4.718   0.496  1.1747 -1.0699  0.4894
  156MOL0     H21042   3.993   5.180   0.605  2.7548  0.7403 -0.7072
  156MOL0     H21043   4.175   5.330   0.691  2.5983 -0.8135 -0.4318
  156MOL0     H21044   4.628   5.414   0.707  0.9021  1.2109 -0.9613
  156MOL0     H21045   4.798   5.552   0.770 -2.6054  0.2246 -1.1736
  156MOL0     H21046   6.000   5.908   1.440  0.1940 -0.0527  1.1770
  156MOL0     H21047   6.210   5.822   1.344  0.4845  0.2693  2.0045
  156MOL0     H21048   6.586   6.054   1.056  1.8827  1.7820  3.8613
  156MOL0     H21049   6.798   6.038   0.923 -1.4951  0.2566 -1.5195
  156MOL0     H21050   7.067   5.689   1.000  3.6664  0.1225 -0.9518
  156MOL0     H21051   6.956   5.641   0.866  1.8783 -1.9931 -0.8117
  156MOL0     H21052   7.091   5.810   0.728  2.8565  1.8832  0.5450
  156MOL0     H21053   7.172   5.649   0.766  0.8524  1.2302 -3.4534
  156MOL0     H21054   7.336   5.741   0.850 -0.4823 -0.5837  2.0568
  156MOL0     H21055   7.250   5.832   0.968  1.8463  0.0093  0.7617
  156MOL0     H21056   7.317   5.928   0.681 -0.1502  2.2013  0.0659
  156MOL0     H21057   7.391   5.982   0.835  0.8451 -0.0414 -1.5041
  156MOL0     H21058   7.036   6.215   0.832 -0.3338 -0.1462 -0.3574
  156MOL0     H21059   6.825   5.624   1.049 -0.6290 -0.1200  1.0570
  156MOL0     H21060   6.622   5.642   1.163 -0.1377  1.2922  2.1110
  157MOL0     O21061   9.840   4.009   7.371 -0.5889  0.3344  0.1991
  157MOL0     C21062   9.835   3.990   7.245 -0.2321 -0.6846 -0.2389
  157MOL0     O21063   9.943   3.988   7.175 -0.1450 -0.9016  0.1469
  157MOL0     C21064  10.072   3.979   7.239  0.0394 -0.4625 -0.1151
  157MOL0     C21065  10.135   4.085   7.308 -0.1311 -0.5189  0.8904
  157MOL0     C21066  10.273   4.074   7.338  0.0011 -0.1557  0.0881
  157MOL0     C21067  10.350   3.962   7.309  0.0880 -0.4595  0.1593
  157MOL0     O21068  10.486   3.959   7.331  0.0293 -0.4886 -0.2922
  157MOL0     C21069  10.531   3.856   7.420  0.4556 -0.2224  0.0392
  157MOL0     C21070  10.689   3.848   7.419 -0.0691  0.5199  0.9575
  157MOL0     C21071  10.737   3.815   7.279 -0.0581  0.9448 -0.8439
  157MOL0     C21072  10.843   3.917   7.229 -0.4046 -1.2406  0.9556
  157MOL0     C21073  10.873   3.918   7.074 -0.7272 -0.0742  0.3985
  157MOL0     C21074  10.962   4.030   7.024 -0.1626 -0.1187  0.3812
  157MOL0     C21075  11.053   3.994   6.920 -0.7612  0.6354  0.9837
  157MOL0     C21076  10.990   3.970   6.780 -0.3564 -0.5868  0.4456
  157MOL0     N21077  10.889   4.075   6.737 -0.3154  0.4342  0.2364
  157MOL0     C21078  10.912   4.205   6.715  0.4259 -0.4299  0.8523
  157MOL0     C21079  10.795   4.259   6.665 -0.3379 -0.8685  0.8421
  157MOL0     C21080  10.779   4.405   6.620 -0.3810 -0.6835  0.2937
  157MOL0     C21081  10.694   4.414   6.494  0.3345 -0.1414  0.6503
  157MOL0     C21082  10.539   4.407   6.516 -0.8886 -0.4301 -0.5574
  157MOL0     C21083  10.455   4.382   6.394 -0.1063  0.2055  0.2754
  157MOL0     O21084  10.314   4.351   6.427 -0.0550 -0.1762  0.6039
  157MOL0     C21085  10.220   4.459   6.444  0.5305  0.0338  0.0654
  157MOL0     C21086  10.255   4.591   6.474  0.3562 -0.4923 -0.5785
  157MOL0     C21087  10.156   4.688   6.501  0.3852  0.1391 -0.3100
  157MOL0     C21088  10.217   4.834   6.529  0.3961  0.3792 -0.0946
  157MOL0     C21089  10.024   4.653   6.513  0.8903 -0.6921  0.0735
  157MOL0     C21090   9.917   4.756   6.529 -0.7399  0.9766 -0.3966
  157MOL0     O21091   9.941   4.860   6.607 -0.2884  0.2460  0.1388
  157MOL0     C21092   9.851   4.960   6.634 -0.1550  0.2375 -0.1235
  157MOL0     C21093   9.863   5.024   6.756  0.8840  0.5346 -0.2395
  157MOL0     C21094   9.756   5.108   6.798  0.4207  0.4200 -0.2879
  157MOL0     C21095   9.645   5.146   6.726  0.3348  0.1990  0.2080
  157MOL0     O21096   9.549   5.237   6.760 -0.2978 -0.5152  0.2572
  157MOL0     C21097   9.585   5.326   6.868 -0.7947  0.9226 -0.0706
  157MOL0     C21098   9.482   5.433   6.881  0.5561 -0.3005  0.3645
  157MOL0     C21099   9.332   5.385   6.895 -1.0452 -0.6185 -0.0701
  157MOL0     C21100   9.300   5.331   7.029 -0.4198  0.7026 -0.4236
  157MOL0     C21101   9.152   5.290   7.039  0.1072  0.7645  0.1385
  157MOL0     C21102   9.050   5.405   7.025 -0.0602  0.1120 -0.5626
  157MOL0     C21103   8.908   5.364   7.074 -0.3414 -0.0639 -0.1306
  157MOL0     C21104   8.849   5.245   7.000  0.9552 -0.2410  0.4749
  157MOL0    Cl21105   8.664   5.248   7.023  0.2383  0.6280 -0.0008
  157MOL0     C21106   9.639   5.086   6.596  0.0092  1.0459  0.8890
  157MOL0     C21107   9.740   4.997   6.555 -0.5991  0.6494  0.0458
  157MOL0     O21108   9.811   4.727   6.472  0.7785 -0.2532  0.1908
  157MOL0     C21109   9.985   4.519   6.486 -0.6204  0.3150  0.3377
  157MOL0     C21110  10.086   4.426   6.459  0.9931  0.4489 -0.0273
  157MOL0     N21111  10.701   4.167   6.649  0.1667  0.2618 -0.3087
  157MOL0     N21112  10.759   4.056   6.696 -0.6465 -0.1796 -0.3525
  157MOL0     C21113  10.293   3.858   7.233  0.1963  0.0365  0.2722
  157MOL0     C21114  10.150   3.868   7.205 -0.0079  0.4190 -1.0078
  157MOL0     C21115   9.702   3.984   7.181  0.6240  0.8751  0.0381
  157MOL0     C21116   9.685   3.953   7.039  0.6834  0.2599 -0.4561
  157MOL0     C21117   9.558   3.926   6.984 -0.1344  0.4254 -0.6070
  157MOL0     C21118   9.443   3.932   7.062 -0.9918 -0.3097 -1.4443
  157MOL0     O21119   9.319   3.898   7.019  0.6016  0.1429 -0.3051
  157MOL0     C21120   9.284   3.907   6.876 -0.3021  0.0158  0.0613
  157MOL0     C21121   9.152   3.991   6.864 -0.2852 -1.0718  0.8752
  157MOL0     C21122   9.014   3.921   6.853  0.7938 -0.7533  0.1719
  157MOL0     C21123   8.893   4.015   6.874 -0.2052 -0.5866  0.1868
  157MOL0     C21124   8.769   3.938   6.889 -0.0662 -0.0706 -0.8707
  157MOL0     C21125   8.660   3.884   6.910 -0.7137 -0.6917  0.5250
  157MOL0     C21126   9.456   3.972   7.201  0.5007 -0.3711  1.2102
  157MOL0     C21127   9.580   4.005   7.255  0.4930 -0.2560  0.0495
  157MOL0     H21128  10.074   4.167   7.344 -0.8322 -1.1754  1.2399
  157MOL0     H21129  10.323   4.155   7.390  2.8648 -1.4296 -0.5005
  157MOL0     H21130  10.501   3.873   7.524  1.1845 -1.7668  0.5475
  157MOL0     H21131  10.500   3.754   7.394 -2.4413 -0.0460  2.3035
  157MOL0     H21132  10.745   3.935   7.456  5.3352 -1.9628 -0.3514
  157MOL0     H21133  10.708   3.771   7.494  2.3893  0.1851  0.0687
  157MOL0     H21134  10.795   3.723   7.279  2.4105  2.3569  0.8112
  157MOL0     H21135  10.657   3.802   7.206  1.2161 -1.6447 -1.8861
  157MOL0     H21136  10.804   4.016   7.251 -1.1645 -1.1597 -0.5879
  157MOL0     H21137  10.938   3.888   7.276  0.3695 -1.3412 -0.6014
  157MOL0     H21138  10.899   3.815   7.051 -3.0852 -0.6203 -0.0072
  157MOL0     H21139  10.782   3.928   7.015 -2.7939 -0.4738  3.3004
  157MOL0     H21140  10.904   4.114   6.985 -2.0931 -1.0235  1.1207
  157MOL0     H21141  11.027   4.062   7.106  0.7542 -2.0138  0.4564
  157MOL0     H21142  11.133   4.068   6.914  0.9769 -1.2588 -2.3458
  157MOL0     H21143  11.109   3.904   6.947  3.1879  1.5717 -2.9508
  157MOL0     H21144  10.927   3.883   6.803  1.7118 -2.1778  0.3798
  157MOL0     H21145  11.068   3.948   6.706  0.4806  0.9223  0.8360
  157MOL0     H21146  11.003   4.264   6.712 -0.2770  0.6316 -1.1363
  157MOL0     H21147  10.735   4.463   6.702 -0.2275 -1.6147  1.0601
  157MOL0     H21148  10.879   4.447   6.605 -1.4516  1.8143 -0.2738
  157MOL0     H21149  10.728   4.345   6.416 -1.0683  0.2360 -0.3330
  157MOL0     H21150  10.711   4.519   6.466  0.7509 -0.2335  0.5511
  157MOL0     H21151  10.508   4.505   6.553  2.8250  0.6955 -0.0372
  157MOL0     H21152  10.519   4.327   6.589  3.3523  0.7198  2.1931
  157MOL0     H21153  10.500   4.288   6.360  2.9974 -0.4856  5.3223
  157MOL0     H21154  10.479   4.458   6.320 -1.0612 -0.4905 -0.7953
  157MOL0     H21155  10.356   4.628   6.459  0.0212  1.2789  1.1315
  157MOL0     H21156  10.180   4.908   6.458 -0.2575 -0.0633 -0.2268
  157MOL0     H21157  10.189   4.862   6.631  1.4243  0.6282  0.1360
  157MOL0     H21158  10.324   4.831   6.509  0.3152 -0.6774 -0.3898
  157MOL0     H21159   9.942   4.989   6.820 -0.6079 -0.3392  1.1929
  157MOL0     H21160   9.760   5.139   6.901  0.0540 -0.5722  0.0347
  157MOL0     H21161   9.592   5.264   6.957  0.1419 -0.1869 -0.8805
  157MOL0     H21162   9.683   5.371   6.852  1.3405 -3.4307 -0.7180
  157MOL0     H21163   9.499   5.490   6.973 -2.2452 -1.1623  1.5277
  157MOL0     H21164   9.500   5.501   6.797 -1.1515 -1.9169 -1.4083
  157MOL0     H21165   9.314   5.312   6.816 -0.3884  1.6504 -2.4629
  157MOL0     H21166   9.281   5.479   6.873 -0.1563 -0.6074 -2.3584
  157MOL0     H21167   9.369   5.248   7.046 -0.0961  1.4396  2.3135
  157MOL0     H21168   9.325   5.400   7.109  0.3826 -0.2618  0.1791
  157MOL0     H21169   9.149   5.240   7.137  0.6377  1.0342  0.2993
  157MOL0     H21170   9.136   5.213   6.963  2.4742 -1.1119  1.3917
  157MOL0     H21171   9.076   5.491   7.087 -1.4552 -1.9486  3.2283
  157MOL0     H21172   9.041   5.427   6.919 -0.1683  0.0838 -0.5591
  157MOL0     H21173   8.849   5.456   7.069 -2.9429 -1.6293 -0.1401
  157MOL0     H21174   8.918   5.344   7.181  1.7460  2.6250  0.2795
  157MOL0     H21175   8.892   5.160   7.054  4.6828  1.5483  0.5979
  157MOL0     H21176   8.869   5.227   6.894  1.3806 -0.2540  0.5557
  157MOL0     H21177   9.571   5.124   6.521  1.6584 -1.5584 -2.2021
  157MOL0     H21178   9.735   4.959   6.453  2.9723  0.9615 -0.3811
  157MOL0     H21179   9.882   4.488   6.494 -0.0353 -1.7440  0.5985
  157MOL0     H21180  10.061   4.320   6.457 -1.8311  0.9118  2.5040
  157MOL0     H21181  10.357   3.776   7.202 -0.5290 -1.5730  2.7173
  157MOL0     H21182  10.120   3.785   7.141 -4.5485  0.5638  0.5665
  157MOL0     H21183   9.773   3.950   6.975  0.8378 -1.3378 -0.1976
  157MOL0     H21184   9.547   3.888   6.883 -0.0791  1.1248 -0.8811
  157MOL0     H21185   9.360   3.964   6.823  2.5075 -1.4861  2.2385
  157MOL0     H21186   9.264   3.805   6.843  1.1612 -0.0610 -0.6401
  157MOL0     H21187   9.161   4.052   6.774  1.6200  0.4780  2.0447
  157MOL0     H21188   9.136   4.068   6.939 -3.1686  0.3479 -1.0062
  157MOL0     H21189   9.000   3.850   6.935 -0.2419 -0.6094  0.1276
  157MOL0     H21190   8.998   3.882   6.752  1.9961  2.4858 -1.4183
  157MOL0     H21191   8.893   4.085   6.790  0.6669  0.9167  1.3980
  157MOL0     H21192   8.912   4.076   6.963  0.6488 -1.9122  0.9485
  157MOL0     H21193   8.567   3.833   6.920 -1.9868  0.8050 -2.4769
  157MOL0     H21194   9.372   3.974   7.270  0.6346  0.9149  1.3525
  157MOL0     H21195   9.577   4.023   7.362 -2.1242 -1.6112  0.3009
  158MOL0     O21196   8.663  10.294   9.160 -0.2603  0.0241 -0.1840
  158MOL0     C21197   8.663  10.244   9.271 -0.1621 -1.5307  0.0262
  158MOL0     O21198   8.551  10.244   9.355 -0.4475 -0.0196 -0.2090
  158MOL0     C21199   8.455  10.338   9.349  0.4537 -0.4959 -0.1675
  158MOL0     C21200   8.325  10.309   9.375  0.1075  0.4871  0.1686
  158MOL0     C21201   8.224  10.402   9.351 -0.4888  0.9589 -0.7109
  158MOL0     C21202   8.249  10.534   9.314  0.4377  0.2522 -0.5409
  158MOL0     O21203   8.144  10.630   9.294 -0.2421 -0.2722 -0.3599
  158MOL0     C21204   8.153  10.737   9.393  0.1097  0.3281  0.4549
  158MOL0     C21205   8.006  10.787   9.414  0.6288  0.2962 -0.1562
  158MOL0     C21206   7.947  10.773   9.562 -0.2448  0.0638 -0.0601
  158MOL0     C21207   7.969  10.904   9.637 -0.2480 -0.2030 -0.1605
  158MOL0     C21208   7.897  10.900   9.770 -0.2133  0.0589  0.2179
  158MOL0     C21209   7.748  10.852   9.776 -0.2735 -0.1575  0.2579
  158MOL0     C21210   7.675  10.906   9.903  0.5706 -0.6710 -0.7532
  158MOL0     C21211   7.527  10.869   9.917 -0.1897  0.7831 -0.8669
  158MOL0     N21212   7.453  10.871   9.793 -0.4197 -0.9365 -0.7017
  158MOL0     C21213   7.401  10.760   9.735 -0.2867 -0.3979 -0.0108
  158MOL0     C21214   7.317  10.804   9.633 -0.2856  0.7186 -0.5747
  158MOL0     C21215   7.245  10.723   9.529  0.1549 -0.0783  0.9851
  158MOL0     C21216   7.352  10.626   9.466  0.1449 -0.6648 -0.2870
  158MOL0     C21217   7.421  10.697   9.350 -0.4534  0.5735  0.4909
  158MOL0     C21218   7.542  10.777   9.397 -0.0635 -0.6587  0.4662
  158MOL0     O21219   7.589  10.844   9.277 -0.7336 -0.1565  0.6557
  158MOL0     C21220   7.528  10.967   9.248 -0.6384 -0.7233 -0.5352
  158MOL0     C21221   7.588  11.035   9.152  0.8697 -0.2576  0.5210
  158MOL0     C21222   7.553  11.171   9.115  0.2577  0.3186  0.6560
  158MOL0     C21223   7.631  11.240   9.002  0.6599 -0.1265 -0.6336
  158MOL0     C21224   7.454  11.238   9.183 -0.3805 -0.1309  0.7669
  158MOL0     C21225   7.419  11.382   9.171  1.2000 -0.4262  0.3970
  158MOL0     O21226   7.285  11.396   9.192  0.0930  0.1271  0.0430
  158MOL0     C21227   7.244  11.519   9.226  0.6677  0.4564  0.1751
  158MOL0     C21228   7.191  11.552   9.353 -0.3922 -1.2359 -0.4995
  158MOL0     C21229   7.147  11.674   9.384  0.3984  0.7748 -0.3488
  158MOL0     C21230   7.160  11.783   9.289  0.0684  0.7775 -0.4237
  158MOL0     O21231   7.115  11.909   9.326  0.3957  0.1123 -0.1815
  158MOL0     C21232   7.060  12.003   9.230  0.2561  0.6452  0.3131
  158MOL0     C21233   6.965  12.085   9.302  0.7266 -0.0011 -0.3993
  158MOL0     C21234   6.882  12.164   9.198 -0.2324 -0.3783 -0.0446
  158MOL0     C21235   6.958  12.272   9.133 -0.8671 -0.7765  0.6904
  158MOL0     C21236   6.883  12.358   9.026 -0.0533  0.6154  0.4103
  158MOL0     C21237   6.794  12.473   9.068  0.5187 -1.0739 -0.0347
  158MOL0     C21238   6.762  12.550   8.940  0.9881 -0.2777  0.2874
  158MOL0     C21239   6.722  12.697   8.962  0.2868  0.2236  0.2818
  158MOL0    Cl21240   6.680  12.759   8.801  0.0464  0.0009 -0.1397
  158MOL0     C21241   7.215  11.757   9.161  0.4088 -1.2559  0.8327
  158MOL0     C21242   7.254  11.626   9.135 -0.2511  0.3380  0.4936
  158MOL0     O21243   7.500  11.470   9.150  0.8124  0.7158 -0.4687
  158MOL0     C21244   7.385  11.162   9.275  0.3401  0.4962  1.4577
  158MOL0     C21245   7.429  11.034   9.316  0.6719 -0.9110  0.1401
  158MOL0     N21246   7.315  10.941   9.640 -0.0788 -0.0086  0.4231
  158MOL0     N21247   7.398  10.983   9.741  0.2939 -0.2031  0.0376
  158MOL0     C21248   8.385  10.573   9.303 -0.7888 -0.6729  0.3701
  158MOL0     C21249   8.486  10.473   9.321  0.3124  0.3506  0.5134
  158MOL0     C21250   8.777  10.163   9.301  0.4209  1.0258 -0.2492
  158MOL0     C21251   8.893  10.166   9.218  0.4726 -0.0007 -0.6739
  158MOL0     C21252   9.000  10.073   9.238 -0.2386 -0.4356 -0.3987
  158MOL0     C21253   8.993   9.982   9.348  0.2944 -0.1769  0.2874
  158MOL0     O21254   9.105   9.906   9.367  0.4879  0.3897  0.4765
  158MOL0     C21255   9.124   9.833   9.480 -0.3660 -0.0503 -0.3936
  158MOL0     C21256   9.263   9.754   9.471  0.0017  0.2651  0.0285
  158MOL0     C21257   9.371   9.856   9.452 -0.0670 -0.4430  1.3852
  158MOL0     C21258   9.394   9.958   9.569 -0.7276 -0.0985  0.3082
  158MOL0     C21259   9.438   9.879   9.686  0.4517 -0.0073 -0.7493
  158MOL0     C21260   9.490   9.810   9.765 -0.2231 -0.0476 -0.9664
  158MOL0     C21261   8.877   9.984   9.427 -0.8068 -1.0626 -0.0496
  158MOL0     C21262   8.771  10.073   9.407  0.3606 -0.7451 -0.5328
  158MOL0     H21263   8.309  10.206   9.405 -0.1144  0.8116  1.2086
  158MOL0     H21264   8.124  10.360   9.359  0.5643 -1.4691  0.6547
  158MOL0     H21265   8.202  10.714   9.487  1.5856 -1.0053 -0.5965
  158MOL0     H21266   8.210  10.818   9.346 -0.8657  0.9124  0.2308
  158MOL0     H21267   7.987  10.890   9.381 -0.7770 -0.2927 -1.2978
  158MOL0     H21268   7.940  10.729   9.349  0.8004  0.2435 -0.2836
  158MOL0     H21269   7.841  10.746   9.552  0.1033 -1.2291 -0.4547
  158MOL0     H21270   8.000  10.697   9.620 -3.0313 -0.7446  1.6167
  158MOL0     H21271   8.075  10.906   9.666 -0.2730 -0.4986 -0.0452
  158MOL0     H21272   7.933  10.992   9.584  0.5349  2.3723  3.2449
  158MOL0     H21273   7.945  10.833   9.843 -2.2546 -0.4893  1.1365
  158MOL0     H21274   7.905  11.000   9.813 -0.1656 -0.7892  2.3126
  158MOL0     H21275   7.706  10.901   9.687  0.1419 -1.2132 -0.5382
  158MOL0     H21276   7.759  10.744   9.766  2.4276 -0.2372  2.7454
  158MOL0     H21277   7.734  10.868   9.987 -0.8413 -1.5491 -0.1240
  158MOL0     H21278   7.680  11.015   9.890 -1.1985 -0.5707 -0.8985
  158MOL0     H21279   7.481  10.943   9.984 -3.5935 -1.6747 -0.2033
  158MOL0     H21280   7.524  10.768   9.960  2.0723  0.3673 -1.5621
  158MOL0     H21281   7.432  10.661   9.766 -3.1139 -0.7845  1.9077
  158MOL0     H21282   7.173  10.662   9.586 -0.7468  0.9720  0.9999
  158MOL0     H21283   7.193  10.782   9.453 -0.9732 -0.5309  1.3765
  158MOL0     H21284   7.286  10.550   9.422 -2.1633  0.0107  1.7868
  158MOL0     H21285   7.418  10.572   9.534 -0.6675 -1.8035 -0.3844
  158MOL0     H21286   7.358  10.756   9.282 -0.6949  0.4299  0.5932
  158MOL0     H21287   7.451  10.608   9.294  1.5841  0.3851  1.7660
  158MOL0     H21288   7.616  10.713   9.447  1.1797  2.0861  2.3671
  158MOL0     H21289   7.503  10.848   9.471 -2.3775  2.4330 -3.2984
  158MOL0     H21290   7.659  10.977   9.095  0.5897  0.3356 -0.4541
  158MOL0     H21291   7.561  11.296   8.939  0.0121  2.2905  2.0178
  158MOL0     H21292   7.698  11.314   9.047 -0.3221  0.9724 -0.9237
  158MOL0     H21293   7.670  11.170   8.927 -3.0597 -0.0384 -2.9065
  158MOL0     H21294   7.181  11.470   9.423  0.8209 -2.4319 -1.6565
  158MOL0     H21295   7.125  11.686   9.489 -0.9661 -1.0189 -0.3870
  158MOL0     H21296   7.148  12.058   9.195  1.2053  0.1187  1.7999
  158MOL0     H21297   7.025  11.944   9.145 -0.6271  0.7984  0.5666
  158MOL0     H21298   6.899  12.016   9.356  2.1925 -0.4473  0.9149
  158MOL0     H21299   7.007  12.148   9.381 -2.3585 -0.5516  1.8629
  158MOL0     H21300   6.792  12.212   9.237  0.3380  1.2450 -0.6585
  158MOL0     H21301   6.841  12.097   9.122 -1.6925  2.7316 -2.1966
  158MOL0     H21302   6.994  12.337   9.214  0.1782  1.6546 -1.5950
  158MOL0     H21303   7.042  12.220   9.084 -1.9121 -1.4755 -0.4046
  158MOL0     H21304   6.830  12.275   8.978  0.6296 -1.3341  2.8076
  158MOL0     H21305   6.950  12.405   8.953  0.3919  1.7075  1.4883
  158MOL0     H21306   6.703  12.427   9.108  0.2753  0.7214  1.5994
  158MOL0     H21307   6.847  12.528   9.146 -0.1165 -1.9539  1.0325
  158MOL0     H21308   6.685  12.497   8.883  0.1339  2.9128 -1.7980
  158MOL0     H21309   6.850  12.569   8.878  0.9903  1.6015  0.8008
  158MOL0     H21310   6.806  12.754   9.003 -0.4793  0.9293  0.9171
  158MOL0     H21311   6.627  12.695   9.017 -0.0138  0.7197 -0.2186
  158MOL0     H21312   7.209  11.836   9.087  1.4581 -1.7171  0.2393
  158MOL0     H21313   7.303  11.606   9.040  0.2015  1.0881  0.5617
  158MOL0     H21314   7.305  11.211   9.330 -2.0682 -0.9785 -0.5253
  158MOL0     H21315   7.375  10.987   9.397 -1.0124  1.5150  0.5245
  158MOL0     H21316   8.405  10.678   9.285 -1.6107 -0.2488  1.7296
  158MOL0     H21317   8.590  10.497   9.299  0.1733 -0.1753 -0.7805
  158MOL0     H21318   8.897  10.245   9.144  1.6015  1.1308  0.5469
  158MOL0     H21319   9.089  10.078   9.176 -0.9194  1.3372 -1.3190
  158MOL0     H21320   9.122   9.895   9.570 -1.3779  0.1125 -0.5168
  158MOL0     H21321   9.048   9.755   9.481  0.9085 -1.4074 -2.1913
  158MOL0     H21322   9.269   9.689   9.383  1.2616  3.4742 -2.4747
  158MOL0     H21323   9.270   9.698   9.564 -1.0412 -0.1289 -0.1081
  158MOL0     H21324   9.352   9.918   9.364  2.6696  0.2571  1.1971
  158MOL0     H21325   9.448   9.780   9.435  0.6632  0.9027 -2.0637
  158MOL0     H21326   9.299  10.006   9.596 -0.3385  0.8800 -0.0252
  158MOL0     H21327   9.469  10.034   9.548  0.4447 -1.6647 -1.5628
  158MOL0     H21328   9.544   9.746   9.833 -1.1290 -0.4784 -0.6287
  158MOL0     H21329   8.878   9.926   9.520 -0.4146 -0.8797  0.0611
  158MOL0     H21330   8.684  10.068   9.472  1.1657  1.8931  0.8722
  159MOL0     O21331   0.751   0.889   7.903  0.0811 -0.1363 -0.3839
  159MOL0     C21332   0.804   0.912   7.796  0.9455  0.0502 -0.5901
  159MOL0     O21333   0.753   0.989   7.695 -0.0180  0.4809  0.0236
  159MOL0     C21334   0.632   1.053   7.705 -0.9327  0.7687 -0.0793
  159MOL0     C21335   0.629   1.174   7.646  0.4154 -0.7398  0.5741
  159MOL0     C21336   0.511   1.254   7.671 -0.4721 -0.1478 -0.0176
  159MOL0     C21337   0.398   1.205   7.737 -0.6183  0.0808 -0.6313
  159MOL0     O21338   0.284   1.273   7.749  0.0424  0.1209  0.4003
  159MOL0     C21339   0.262   1.413   7.698  0.0891  0.9217 -0.2303
  159MOL0     C21340   0.148   1.476   7.773 -0.2760 -0.0961  0.4850
  159MOL0     C21341   0.130   1.622   7.727 -0.0303 -0.0412 -0.3915
  159MOL0     C21342   0.049   1.628   7.597  0.9467  0.4956  0.2911
  159MOL0     C21343  -0.032   1.755   7.566 -0.1115 -0.4652  0.1929
  159MOL0     C21344  -0.139   1.768   7.672 -0.2834  0.4434  0.0009
  159MOL0     C21345  -0.270   1.839   7.621 -0.3334  0.5873 -0.8282
  159MOL0     C21346  -0.232   1.983   7.591 -0.0696  0.3708  0.7442
  159MOL0     N21347  -0.347   2.042   7.515 -0.6626 -0.5030  0.1592
  159MOL0     C21348  -0.370   1.999   7.387  0.1452  0.7469  0.3501
  159MOL0     C21349  -0.489   2.052   7.353  0.3786 -0.1292 -0.6328
  159MOL0     C21350  -0.556   2.029   7.223 -0.2219  0.2839  0.4873
  159MOL0     C21351  -0.457   2.071   7.111 -0.3200  0.3540 -0.6841
  159MOL0     C21352  -0.408   2.215   7.129 -0.5101  0.1363 -0.8256
  159MOL0     C21353  -0.520   2.317   7.105  0.4713 -0.7280 -0.0202
  159MOL0     O21354  -0.585   2.277   6.976  0.5647 -0.7603 -0.4494
  159MOL0     C21355  -0.721   2.309   6.963  0.2889 -0.7029  0.2862
  159MOL0     C21356  -0.789   2.402   7.042  0.6380  0.4091 -0.0983
  159MOL0     C21357  -0.924   2.441   7.000 -0.2128 -0.9024 -0.0616
  159MOL0     C21358  -1.004   2.541   7.072 -0.1914  0.4791 -0.0562
  159MOL0     C21359  -0.988   2.368   6.895  0.3542  0.4634  0.6696
  159MOL0     C21360  -1.134   2.372   6.872  0.0841  0.5966  0.9227
  159MOL0     O21361  -1.166   2.365   6.743 -0.0283 -0.3283 -0.1990
  159MOL0     C21362  -1.291   2.384   6.709  0.3359 -1.2155  0.0742
  159MOL0     C21363  -1.353   2.301   6.609 -0.5471 -0.5376 -0.2417
  159MOL0     C21364  -1.478   2.338   6.558  0.2495 -0.2330 -0.0902
  159MOL0     C21365  -1.541   2.460   6.592  0.2406  0.9345 -0.3504
  159MOL0     O21366  -1.661   2.494   6.542  0.0756 -0.2126  0.6074
  159MOL0     C21367  -1.742   2.386   6.489 -0.1996 -0.7948 -0.3150
  159MOL0     C21368  -1.885   2.436   6.495  0.1714 -0.8146 -0.0255
  159MOL0     C21369  -1.917   2.459   6.639  0.9309  0.0403  0.2869
  159MOL0     C21370  -2.061   2.403   6.677  0.7414  0.5513 -0.1548
  159MOL0     C21371  -2.168   2.487   6.606 -0.3960  0.3562 -0.0744
  159MOL0     C21372  -2.310   2.464   6.658  0.6771 -0.0417  0.0473
  159MOL0     C21373  -2.429   2.544   6.592  0.0016 -0.2573 -0.2054
  159MOL0     C21374  -2.552   2.535   6.661 -0.3404  0.0047 -0.2413
  159MOL0    Cl21375  -2.649   2.678   6.641 -0.4430  0.2264 -0.0333
  159MOL0     C21376  -1.480   2.549   6.687  0.5163  1.6948  0.1241
  159MOL0     C21377  -1.363   2.507   6.743  0.4395  0.3880 -1.1331
  159MOL0     O21378  -1.214   2.356   6.963 -0.2116 -0.1976 -0.2678
  159MOL0     C21379  -0.914   2.284   6.808 -1.1756 -0.5498 -0.5467
  159MOL0     C21380  -0.774   2.268   6.839  0.5279 -0.7705  0.1852
  159MOL0     N21381  -0.536   2.123   7.464  0.3908 -0.6438 -0.5915
  159MOL0     N21382  -0.451   2.116   7.561  0.2101  0.0210  0.4083
  159MOL0     C21383   0.400   1.076   7.792 -0.2390 -0.2933  0.6239
  159MOL0     C21384   0.521   0.998   7.771  0.4589  0.1176  0.1448
  159MOL0     C21385   0.945   0.857   7.765  0.7326  0.0690 -0.0359
  159MOL0     C21386   1.009   0.895   7.648 -0.5352 -1.2858  0.4888
  159MOL0     C21387   1.131   0.846   7.609  0.8371  0.5143 -0.2703
  159MOL0     C21388   1.193   0.747   7.688 -0.1197 -0.5975  0.3106
  159MOL0     O21389   1.307   0.681   7.650  0.3237  0.2059 -0.0412
  159MOL0     C21390   1.381   0.753   7.555  0.1078  0.7124  0.0510
  159MOL0     C21391   1.510   0.682   7.535 -0.3331 -0.0505  0.3933
  159MOL0     C21392   1.610   0.697   7.646 -0.4907  0.1297  0.3300
  159MOL0     C21393   1.739   0.625   7.613  0.4697  0.2236  0.0839
  159MOL0     C21394   1.839   0.656   7.718  0.2975  0.0397  1.2828
  159MOL0     C21395   1.923   0.691   7.799 -0.1670  0.3288 -0.3878
  159MOL0     C21396   1.140   0.709   7.809  0.5249 -0.2704  0.1968
  159MOL0     C21397   1.021   0.766   7.853  0.8205 -0.1116 -0.0132
  159MOL0     H21398   0.704   1.219   7.583 -1.8291  1.5764 -0.6098
  159MOL0     H21399   0.517   1.348   7.617 -0.5343 -1.2591 -2.0549
  159MOL0     H21400   0.355   1.466   7.718 -0.2055  1.3029  0.1565
  159MOL0     H21401   0.238   1.407   7.591  2.5387  2.2379 -0.9078
  159MOL0     H21402   0.062   1.408   7.767  2.1362 -3.3141 -2.5998
  159MOL0     H21403   0.166   1.489   7.880 -1.8882  1.8007  0.5881
  159MOL0     H21404   0.082   1.679   7.808  1.5814 -0.8490  1.2104
  159MOL0     H21405   0.226   1.667   7.702 -0.1564 -0.2516 -1.2926
  159MOL0     H21406   0.116   1.605   7.513  0.2129  0.2237 -0.2408
  159MOL0     H21407  -0.027   1.549   7.586 -0.0818  1.4570  0.3095
  159MOL0     H21408   0.037   1.839   7.574  0.6142 -0.9465 -0.8162
  159MOL0     H21409  -0.079   1.760   7.467  0.6355  0.7362 -0.1119
  159MOL0     H21410  -0.161   1.672   7.721 -0.8056  0.5257 -0.0580
  159MOL0     H21411  -0.092   1.817   7.758  3.8563  0.4033 -1.9924
  159MOL0     H21412  -0.310   1.796   7.529 -2.5823 -0.8280  0.7096
  159MOL0     H21413  -0.346   1.826   7.698  0.8191  0.4053  0.3277
  159MOL0     H21414  -0.139   1.993   7.534  0.5432 -0.1624  1.6406
  159MOL0     H21415  -0.221   2.038   7.684  0.7739 -0.1667  0.9711
  159MOL0     H21416  -0.306   1.934   7.328  1.1499  0.8094  1.3404
  159MOL0     H21417  -0.579   1.922   7.211 -0.4114  0.4933 -1.2793
  159MOL0     H21418  -0.648   2.086   7.207 -0.4758 -0.3790 -0.5570
  159MOL0     H21419  -0.510   2.037   7.021 -0.0896 -1.1349 -0.2718
  159MOL0     H21420  -0.372   2.007   7.133 -1.3950 -0.2591  2.1881
  159MOL0     H21421  -0.332   2.246   7.057 -1.0725  0.6623 -1.1936
  159MOL0     H21422  -0.362   2.217   7.228 -0.8589  0.0556 -0.6596
  159MOL0     H21423  -0.480   2.418   7.099  2.3939 -1.4677 -0.1942
  159MOL0     H21424  -0.586   2.320   7.193 -0.3156 -0.3985 -0.6059
  159MOL0     H21425  -0.753   2.450   7.132 -0.4329  3.1063 -1.0135
  159MOL0     H21426  -1.059   2.612   7.010 -0.7064 -1.4078 -1.8686
  159MOL0     H21427  -1.089   2.492   7.120 -0.2716  0.4238 -0.2524
  159MOL0     H21428  -0.947   2.592   7.151 -0.5352  0.5408  0.1518
  159MOL0     H21429  -1.307   2.204   6.599 -0.6364 -0.7771  1.4589
  159MOL0     H21430  -1.521   2.281   6.476 -2.7144  1.5153  0.1052
  159MOL0     H21431  -1.701   2.369   6.389  2.0298 -0.7873  0.5474
  159MOL0     H21432  -1.742   2.291   6.543 -4.3906 -0.0893  1.3034
  159MOL0     H21433  -1.894   2.525   6.431 -1.0061 -1.3738 -0.6850
  159MOL0     H21434  -1.950   2.357   6.456 -0.2370 -1.3538  1.6658
  159MOL0     H21435  -1.937   2.566   6.652 -0.6574 -0.1152 -0.5926
  159MOL0     H21436  -1.837   2.424   6.705 -0.9472 -2.2564  1.5112
  159MOL0     H21437  -2.060   2.296   6.654 -2.1538  0.8332 -2.0093
  159MOL0     H21438  -2.077   2.416   6.785 -0.1270  0.8784 -0.3239
  159MOL0     H21439  -2.157   2.466   6.499 -0.1713  0.3541 -0.0513
  159MOL0     H21440  -2.135   2.592   6.611  1.1683 -0.0623 -0.9608
  159MOL0     H21441  -2.336   2.358   6.660  0.5145 -0.1746 -3.6008
  159MOL0     H21442  -2.319   2.497   6.762 -1.1476  0.4335 -0.2278
  159MOL0     H21443  -2.450   2.520   6.487  1.5157 -0.0051 -0.5909
  159MOL0     H21444  -2.388   2.645   6.596  1.8733 -0.9716  3.7463
  159MOL0     H21445  -2.542   2.519   6.768  2.1769  1.0967 -0.2490
  159MOL0     H21446  -2.613   2.454   6.617  0.8340 -0.5799 -0.8394
  159MOL0     H21447  -1.533   2.639   6.716 -0.3383  0.8898  1.1329
  159MOL0     H21448  -1.322   2.563   6.826 -0.7037 -1.4652  0.7885
  159MOL0     H21449  -0.945   2.226   6.722  0.3319 -1.6546 -0.3904
  159MOL0     H21450  -0.714   2.213   6.767  1.5447 -1.4255  1.4971
  159MOL0     H21451   0.303   1.046   7.829  0.0233 -0.0273  1.5748
  159MOL0     H21452   0.512   0.895   7.803 -1.7612  1.1402  3.2362
  159MOL0     H21453   0.969   0.978   7.590 -0.4228 -1.5194  0.0773
  159MOL0     H21454   1.175   0.891   7.521 -0.9591  3.1579  0.0541
  159MOL0     H21455   1.318   0.738   7.467  0.2203  1.1987 -0.1160
  159MOL0     H21456   1.397   0.855   7.593 -3.2914  0.8165  1.5175
  159MOL0     H21457   1.551   0.728   7.444 -0.0390 -1.0670  0.0056
  159MOL0     H21458   1.492   0.581   7.499  0.3956  0.6914 -2.3881
  159MOL0     H21459   1.553   0.642   7.721  0.5849  1.9167  2.5806
  159MOL0     H21460   1.617   0.804   7.663  0.0642  1.0513 -4.3886
  159MOL0     H21461   1.775   0.643   7.511  1.5254  0.9504  0.5711
  159MOL0     H21462   1.715   0.518   7.614 -0.0109  0.3273  0.6485
  159MOL0     H21463   1.999   0.720   7.869  0.3500 -0.1532 -0.7410
  159MOL0     H21464   1.190   0.638   7.874  3.0186  1.0858 -0.0911
  159MOL0     H21465   0.968   0.738   7.943  0.7315  1.4580  0.4627
  160MOL0     O21466   4.812   5.420  10.849  0.1491  0.2142 -0.3327
  160MOL0     C21467   4.803   5.529  10.787 -1.1944  0.6561 -0.0231
  160MOL0     O21468   4.909   5.615  10.771  0.1967  0.1472  0.4710
  160MOL0     C21469   5.025   5.573  10.807 -0.3557  0.9500  0.2732
  160MOL0     C21470   5.131   5.539  10.711  1.3137  0.9591 -0.5315
  160MOL0     C21471   5.259   5.520  10.758 -0.1566 -0.1215 -0.3074
  160MOL0     C21472   5.301   5.528  10.897  0.4486  0.2410  1.0198
  160MOL0     O21473   5.436   5.529  10.935  0.3791 -0.1457  0.1988
  160MOL0     C21474   5.539   5.514  10.836  1.3071  0.7274 -0.6981
  160MOL0     C21475   5.676   5.515  10.898 -0.0610  0.5662 -1.1438
  160MOL0     C21476   5.785   5.474  10.788  0.2441 -0.3984  0.5375
  160MOL0     C21477   5.924   5.431  10.840  0.1917 -0.2521  0.1468
  160MOL0     C21478   6.000   5.323  10.753 -0.2583 -0.2982 -0.0887
  160MOL0     C21479   6.050   5.368  10.614 -0.7145 -0.1765 -0.0090
  160MOL0     C21480   6.049   5.263  10.508  0.3339  0.9136  0.3800
  160MOL0     C21481   5.972   5.298  10.377  0.4213 -0.1287  0.4671
  160MOL0     N21482   5.823   5.300  10.403  0.4774 -0.5745 -0.4562
  160MOL0     C21483   5.737   5.404  10.435  0.1434  0.1157  0.2920
  160MOL0     C21484   5.612   5.346  10.429  0.2477  0.1893  0.6994
  160MOL0     C21485   5.480   5.423  10.448  0.6571  0.0245  0.0619
  160MOL0     C21486   5.380   5.410  10.331 -0.4813 -0.8116 -0.4370
  160MOL0     C21487   5.240   5.480  10.355  0.0402  1.1564  0.4503
  160MOL0     C21488   5.134   5.398  10.289  0.2185 -0.4986 -0.2858
  160MOL0     O21489   5.018   5.459  10.337 -0.1700  0.0476  0.4711
  160MOL0     C21490   4.901   5.433  10.278 -0.3808 -0.1015  0.9771
  160MOL0     C21491   4.883   5.346  10.163 -0.3250 -0.0816 -0.5050
  160MOL0     C21492   4.761   5.307  10.109  0.0698 -0.4226 -0.0443
  160MOL0     C21493   4.765   5.231   9.985  0.2915 -0.4374 -0.1321
  160MOL0     C21494   4.642   5.359  10.172  1.0098 -0.2529  0.2291
  160MOL0     C21495   4.507   5.346  10.113 -0.3820 -0.3195 -0.6282
  160MOL0     O21496   4.411   5.409  10.169 -0.6099  0.0058 -0.3213
  160MOL0     C21497   4.296   5.415  10.100  0.2269  1.0516  0.3255
  160MOL0     C21498   4.176   5.373  10.167  0.6357  0.2990 -0.4084
  160MOL0     C21499   4.052   5.373  10.107 -0.3577  0.0177 -0.1561
  160MOL0     C21500   4.040   5.413   9.969 -0.2373  0.4671 -0.6800
  160MOL0     O21501   3.917   5.414   9.906  0.0228 -0.2126  1.0082
  160MOL0     C21502   3.807   5.349   9.974 -0.1000 -0.5620 -0.0102
  160MOL0     C21503   3.684   5.370   9.883  0.4817 -0.1508  0.5834
  160MOL0     C21504   3.634   5.514   9.883 -0.3237  0.1724  0.2874
  160MOL0     C21505   3.487   5.520   9.863 -0.0462  0.6580  1.1899
  160MOL0     C21506   3.412   5.507  10.003  0.0577  0.3771  0.3786
  160MOL0     C21507   3.262   5.535   9.988 -0.0101 -0.6251 -0.3973
  160MOL0     C21508   3.186   5.535  10.130 -0.5162 -0.3064  1.1609
  160MOL0     C21509   3.153   5.393  10.181  0.4119 -0.1934 -0.1623
  160MOL0    Cl21510   3.020   5.319  10.087  0.0100 -0.4211  0.6118
  160MOL0     C21511   4.150   5.458   9.905 -0.0494 -0.9470  0.1228
  160MOL0     C21512   4.276   5.460   9.970  0.3382 -0.2720  0.5369
  160MOL0     O21513   4.491   5.279  10.013 -0.1630  0.2308 -0.2038
  160MOL0     C21514   4.660   5.449  10.281 -0.0382  0.3867 -0.7073
  160MOL0     C21515   4.792   5.481  10.336  0.8773 -0.5268  0.1471
  160MOL0     N21516   5.626   5.215  10.394  0.4601 -0.4295  0.9290
  160MOL0     N21517   5.751   5.193  10.381  0.4900  0.0603  0.4186
  160MOL0     C21518   5.190   5.555  10.988 -0.0752  0.0867  0.3274
  160MOL0     C21519   5.059   5.581  10.937  0.4712  0.4760 -0.1360
  160MOL0     C21520   4.684   5.582  10.729  0.4377  0.3459 -0.5232
  160MOL0     C21521   4.659   5.717  10.713 -0.0149  0.6219  0.4490
  160MOL0     C21522   4.547   5.755  10.639 -0.0949  0.0864  0.1682
  160MOL0     C21523   4.446   5.669  10.594  0.0463  0.3621  0.3547
  160MOL0     O21524   4.337   5.700  10.514 -0.3966  0.5148  0.5948
  160MOL0     C21525   4.323   5.836  10.476  0.1379 -0.1587 -0.0865
  160MOL0     C21526   4.425   5.905  10.377  0.0794  0.5531 -0.0081
  160MOL0     C21527   4.491   5.800  10.289 -0.1191 -0.4494  0.7704
  160MOL0     C21528   4.582   5.857  10.187  0.5766 -0.2699  0.3692
  160MOL0     C21529   4.496   5.933  10.090  1.1927 -0.3093 -0.2538
  160MOL0     C21530   4.434   6.002  10.009  0.1151 -0.1280 -0.8379
  160MOL0     C21531   4.463   5.533  10.624 -0.2431  0.1193 -0.1109
  160MOL0     C21532   4.585   5.499  10.681 -0.3240  0.1529 -0.3653
  160MOL0     H21533   5.113   5.544  10.604  0.7225  1.8821 -0.4011
  160MOL0     H21534   5.339   5.501  10.687  0.5201 -0.5573  0.5504
  160MOL0     H21535   5.523   5.413  10.799 -1.8198  0.3851  1.2380
  160MOL0     H21536   5.544   5.591  10.758  4.2544  1.2318 -0.1561
  160MOL0     H21537   5.704   5.607  10.951  2.2476 -0.7460  0.0644
  160MOL0     H21538   5.667   5.431  10.967  0.8740  0.6656 -0.8837
  160MOL0     H21539   5.746   5.388  10.733 -0.4068  0.3393 -0.1927
  160MOL0     H21540   5.793   5.555  10.715  0.5098 -1.2613 -0.4115
  160MOL0     H21541   5.991   5.517  10.850 -2.8546  2.3677 -0.3396
  160MOL0     H21542   5.917   5.394  10.943 -0.6697  0.3422  0.3142
  160MOL0     H21543   6.084   5.278  10.807 -0.4576  1.3573  1.7281
  160MOL0     H21544   5.926   5.243  10.744  0.6986 -1.1886 -0.2651
  160MOL0     H21545   5.982   5.449  10.586 -1.1270 -0.0757  1.1862
  160MOL0     H21546   6.151   5.406  10.632 -0.1338 -2.7520  3.3212
  160MOL0     H21547   6.151   5.244  10.473  0.1021 -3.0231  1.2901
  160MOL0     H21548   6.014   5.164  10.541 -0.5905  1.0620 -0.1230
  160MOL0     H21549   5.980   5.218  10.304 -2.5348  0.0646 -0.1919
  160MOL0     H21550   6.014   5.395  10.346 -2.4498  0.9924 -0.2153
  160MOL0     H21551   5.766   5.506  10.456  0.2753  0.3160 -0.8263
  160MOL0     H21552   5.423   5.386  10.534  0.7383  0.2966  0.2346
  160MOL0     H21553   5.511   5.527  10.464  2.4947 -0.7506  2.1382
  160MOL0     H21554   5.358   5.302  10.330 -0.3230 -0.8593  0.3760
  160MOL0     H21555   5.432   5.446  10.242 -1.9408  1.3528 -0.4738
  160MOL0     H21556   5.248   5.581  10.313  2.2845  1.2339  0.9051
  160MOL0     H21557   5.229   5.485  10.464  0.2326 -3.0069  0.8158
  160MOL0     H21558   5.128   5.289  10.301 -0.6904 -0.5521 -1.0558
  160MOL0     H21559   5.146   5.403  10.180  2.3615 -1.1577 -0.1095
  160MOL0     H21560   4.976   5.312  10.120  0.2489 -0.0485  0.6772
  160MOL0     H21561   4.857   5.178   9.960  1.3572  0.7141  1.1624
  160MOL0     H21562   4.688   5.153   9.995 -2.9214  2.5617  0.7920
  160MOL0     H21563   4.734   5.298   9.905  2.6578 -0.4567 -1.1260
  160MOL0     H21564   4.189   5.331  10.266 -0.4726  0.8233 -0.0243
  160MOL0     H21565   3.968   5.327  10.159 -1.1758 -0.2518 -1.6653
  160MOL0     H21566   3.841   5.250  10.003  0.3683 -0.5865 -0.6091
  160MOL0     H21567   3.790   5.400  10.069  0.1049  0.8964 -0.7244
  160MOL0     H21568   3.714   5.334   9.784 -0.8373 -0.6566  0.3548
  160MOL0     H21569   3.611   5.303   9.929 -0.8605  0.3919 -0.7069
  160MOL0     H21570   3.686   5.571   9.806  1.0941 -1.0050  0.3299
  160MOL0     H21571   3.667   5.555   9.979 -0.1227 -0.7600  0.6346
  160MOL0     H21572   3.462   5.618   9.822  0.2434 -0.9014 -3.2276
  160MOL0     H21573   3.460   5.451   9.782  3.1456 -1.0907  1.4770
  160MOL0     H21574   3.446   5.595  10.058 -0.2535 -0.2845  1.6672
  160MOL0     H21575   3.439   5.418  10.059  0.8033  1.3445  1.5990
  160MOL0     H21576   3.260   5.637   9.947  2.3461 -1.1701 -2.1009
  160MOL0     H21577   3.212   5.478   9.909  0.8666 -1.2908 -0.4881
  160MOL0     H21578   3.095   5.596  10.128 -2.1922 -2.6536 -0.9709
  160MOL0     H21579   3.254   5.572  10.206  0.7600  0.7629 -0.4335
  160MOL0     H21580   3.125   5.406  10.286 -0.8411  2.7323 -0.7691
  160MOL0     H21581   3.242   5.330  10.174  0.9240  0.1388  2.5559
  160MOL0     H21582   4.136   5.488   9.801  0.7295  2.2110  0.8155
  160MOL0     H21583   4.372   5.481   9.923  0.3575  0.8237  1.0411
  160MOL0     H21584   4.568   5.483  10.327 -0.9352 -2.4809 -0.1629
  160MOL0     H21585   4.798   5.547  10.422 -1.5321  0.1921 -0.1659
  160MOL0     H21586   5.209   5.599  11.086 -0.1935  1.6754 -0.3244
  160MOL0     H21587   4.979   5.620  11.000  0.2521  3.0210 -1.8317
  160MOL0     H21588   4.738   5.785  10.745 -0.3538  0.7716  0.9806
  160MOL0     H21589   4.533   5.862  10.624  1.4843  0.1302 -1.3960
  160MOL0     H21590   4.218   5.851  10.451 -0.0577  1.5479  1.6080
  160MOL0     H21591   4.322   5.899  10.565 -0.4479  0.1431 -0.3069
  160MOL0     H21592   4.508   5.961  10.420  0.1881  0.9132 -0.6683
  160MOL0     H21593   4.361   5.965  10.311 -0.9239 -0.5790 -0.0928
  160MOL0     H21594   4.413   5.740  10.243  0.6579 -0.0139 -1.2614
  160MOL0     H21595   4.554   5.727  10.339  1.3547  0.8675  0.9411
  160MOL0     H21596   4.639   5.773  10.147  0.2011 -0.8770  1.0712
  160MOL0     H21597   4.646   5.931  10.235  0.4049 -0.9306  1.6808
  160MOL0     H21598   4.416   6.072   9.930 -1.5805 -0.8183 -1.1068
  160MOL0     H21599   4.383   5.463  10.604  1.2413 -2.0255  1.0278
  160MOL0     H21600   4.599   5.393  10.697 -1.9679  0.1022  1.0067
  161MOL0     O21601   8.740   1.421  11.183  0.4426  0.2792  0.0029
  161MOL0     C21602   8.700   1.528  11.218  0.3338  0.1127  0.3731
  161MOL0     O21603   8.738   1.592  11.329  0.4259  0.3733 -0.1073
  161MOL0     C21604   8.852   1.557  11.394  0.5337  0.1754  0.2254
  161MOL0     C21605   8.931   1.659  11.450  0.0904  0.3229 -0.4255
  161MOL0     C21606   9.051   1.629  11.520 -0.5502  0.4338 -0.9591
  161MOL0     C21607   9.068   1.498  11.569  0.5989 -0.4549  1.1101
  161MOL0     O21608   9.181   1.481  11.643  0.5547  0.0274  0.1803
  161MOL0     C21609   9.263   1.385  11.585 -0.3371 -0.2507  0.3303
  161MOL0     C21610   9.414   1.415  11.588 -0.7618 -0.9816 -0.0314
  161MOL0     C21611   9.464   1.438  11.728  0.2263 -0.8561 -0.4808
  161MOL0     C21612   9.601   1.508  11.729  0.1711  0.4025  0.0291
  161MOL0     C21613   9.709   1.395  11.739 -0.4556  0.6866 -0.5431
  161MOL0     C21614   9.743   1.359  11.889 -0.2960  0.1003  1.0935
  161MOL0     C21615   9.885   1.305  11.873 -1.1299 -0.5319  0.1394
  161MOL0     C21616   9.927   1.238  11.994  0.4084 -0.5225 -0.1955
  161MOL0     N21617  10.075   1.217  11.991  0.1838  0.2128 -0.4951
  161MOL0     C21618  10.143   1.126  11.918  0.3975 -1.4275  0.3645
  161MOL0     C21619  10.269   1.136  11.938  0.0100 -0.2973 -0.4579
  161MOL0     C21620  10.379   1.077  11.861 -0.5758  0.5130 -0.3384
  161MOL0     C21621  10.379   0.927  11.884 -0.3124 -0.2828  0.0003
  161MOL0     C21622  10.503   0.847  11.866 -0.1148  0.3870 -0.4621
  161MOL0     C21623  10.487   0.693  11.893 -0.7376 -0.3027 -0.5438
  161MOL0     O21624  10.400   0.652  12.001 -0.1647 -0.2977 -0.5900
  161MOL0     C21625  10.267   0.635  11.979  0.1832 -0.3440  0.2952
  161MOL0     C21626  10.206   0.636  11.851 -0.6171  0.2220  0.1808
  161MOL0     C21627  10.067   0.613  11.839 -0.6388 -1.1002  0.3035
  161MOL0     C21628  10.006   0.622  11.706  0.7400  0.4455  0.2308
  161MOL0     C21629   9.994   0.591  11.956  0.0946  0.2305  0.4849
  161MOL0     C21630   9.856   0.556  11.961 -0.9903 -0.0302  0.0243
  161MOL0     O21631   9.839   0.434  12.015  0.0072 -0.2480 -0.4868
  161MOL0     C21632   9.706   0.397  12.040  0.1676  0.9299  0.4014
  161MOL0     C21633   9.643   0.307  11.953  0.1736  0.1056 -0.6683
  161MOL0     C21634   9.518   0.256  11.978  0.0830 -0.1955 -0.4972
  161MOL0     C21635   9.443   0.303  12.081  0.8323  0.4484  0.1071
  161MOL0     O21636   9.317   0.244  12.097 -0.0286  0.2217 -0.4637
  161MOL0     C21637   9.229   0.320  12.184  0.5142 -0.0886  0.7200
  161MOL0     C21638   9.095   0.255  12.212  0.1065  0.2509 -0.1422
  161MOL0     C21639   8.980   0.347  12.262 -0.4057  0.2654  0.7126
  161MOL0     C21640   8.873   0.258  12.323  0.5400 -0.6380 -1.0991
  161MOL0     C21641   8.751   0.347  12.360 -0.1731  0.1618  0.2195
  161MOL0     C21642   8.644   0.249  12.421 -0.2829  0.3913  1.0139
  161MOL0     C21643   8.504   0.315  12.453  0.3374 -0.2624 -0.1106
  161MOL0     C21644   8.525   0.457  12.516  0.5909  0.0986 -0.1354
  161MOL0    Cl21645   8.365   0.486  12.586  0.0072 -0.1435 -0.1607
  161MOL0     C21646   9.505   0.389  12.172  0.1738  0.2824 -0.6386
  161MOL0     C21647   9.637   0.437  12.158  0.7607  0.2021  0.2954
  161MOL0     O21648   9.764   0.630  11.940 -0.1044 -0.2307  0.0549
  161MOL0     C21649  10.056   0.596  12.079  0.1239 -0.3386  0.0646
  161MOL0     C21650  10.197   0.609  12.091  0.6027 -0.5765 -0.0365
  161MOL0     N21651  10.281   1.226  12.035  0.4386 -0.1457  0.0758
  161MOL0     N21652  10.166   1.282  12.070 -0.0517  0.2353  1.0605
  161MOL0     C21653   8.983   1.395  11.526 -1.2530 -0.2329  0.7917
  161MOL0     C21654   8.873   1.424  11.444  0.1921 -0.8687  0.1480
  161MOL0     C21655   8.591   1.578  11.124  0.0921  1.3070  1.3701
  161MOL0     C21656   8.515   1.696  11.151  0.2911  0.2036 -0.0959
  161MOL0     C21657   8.404   1.730  11.067 -0.3429  0.2520  0.3321
  161MOL0     C21658   8.379   1.654  10.947  0.8862  0.5215  0.1223
  161MOL0     O21659   8.282   1.689  10.852  0.0325  0.4097 -0.4925
  161MOL0     C21660   8.208   1.813  10.864  0.6083  0.4153 -0.3482
  161MOL0     C21661   8.115   1.833  10.748 -0.7729 -0.6654  0.4527
  161MOL0     C21662   8.035   1.713  10.708 -0.1461  1.4193  0.6491
  161MOL0     C21663   7.918   1.765  10.623  0.1605  0.2189  0.2034
  161MOL0     C21664   7.835   1.665  10.549  0.8126 -0.0454 -1.7092
  161MOL0     C21665   7.773   1.605  10.466  0.8810  0.0901  0.0608
  161MOL0     C21666   8.460   1.546  10.917  0.5409  0.2912 -0.0689
  161MOL0     C21667   8.569   1.505  11.002  0.1843  0.0074 -0.5163
  161MOL0     H21668   8.901   1.758  11.418 -0.6341  0.2079 -0.1154
  161MOL0     H21669   9.124   1.700  11.558  0.9150 -1.4735 -0.0533
  161MOL0     H21670   9.242   1.294  11.643 -1.0493 -0.4921 -0.2858
  161MOL0     H21671   9.231   1.362  11.483 -0.1729 -0.2262  0.2723
  161MOL0     H21672   9.467   1.328  11.548 -3.4653 -1.6723 -2.4560
  161MOL0     H21673   9.437   1.495  11.516  0.2234 -1.5585 -0.3740
  161MOL0     H21674   9.392   1.507  11.772  1.3271  0.0357 -0.0085
  161MOL0     H21675   9.469   1.350  11.793 -1.0225 -2.0898 -1.9612
  161MOL0     H21676   9.610   1.578  11.646 -0.3484  0.8781  0.3607
  161MOL0     H21677   9.607   1.578  11.813  1.7954  1.1648 -0.6800
  161MOL0     H21678   9.694   1.305  11.679 -0.4769 -0.5904  1.2839
  161MOL0     H21679   9.802   1.440  11.704  0.8559 -1.6770 -0.3410
  161MOL0     H21680   9.747   1.450  11.949 -1.7402 -1.2521  3.4191
  161MOL0     H21681   9.668   1.287  11.923 -0.5522  0.3569  1.0733
  161MOL0     H21682   9.894   1.230  11.795 -5.2184  1.5769 -2.7581
  161MOL0     H21683   9.955   1.385  11.846 -1.2136  0.0660  1.6077
  161MOL0     H21684   9.865   1.149  12.012 -0.1100  0.0116  0.7093
  161MOL0     H21685   9.894   1.301  12.077  0.1864  0.0801 -0.7350
  161MOL0     H21686  10.097   1.067  11.840 -0.8797 -0.0352  0.0040
  161MOL0     H21687  10.367   1.090  11.753 -4.4037 -2.1447 -0.4207
  161MOL0     H21688  10.474   1.126  11.885  1.1747 -1.5047 -2.7156
  161MOL0     H21689  10.301   0.896  11.813 -2.1981  2.3017  0.7889
  161MOL0     H21690  10.346   0.907  11.986  0.9432  0.3039  0.5379
  161MOL0     H21691  10.579   0.881  11.937  1.0009  3.9269 -3.0723
  161MOL0     H21692  10.546   0.872  11.769  1.2815  1.3195  0.3710
  161MOL0     H21693  10.585   0.657  11.926 -1.5890 -0.1354  2.5310
  161MOL0     H21694  10.470   0.637  11.801 -0.7247 -1.4629  0.1419
  161MOL0     H21695  10.249   0.657  11.754  0.9085  0.6506  0.9217
  161MOL0     H21696  10.080   0.640  11.627 -0.2934  0.5573 -0.7259
  161MOL0     H21697   9.945   0.534  11.683 -3.0983  2.9650 -0.0315
  161MOL0     H21698   9.938   0.707  11.698  2.4902  1.7786 -1.5294
  161MOL0     H21699   9.693   0.264  11.867  0.4352 -0.2107 -0.3567
  161MOL0     H21700   9.473   0.170  11.929  0.8224 -0.1426 -1.2939
  161MOL0     H21701   9.270   0.333  12.284  0.9960  1.0282  0.3897
  161MOL0     H21702   9.218   0.419  12.140 -2.0786  0.6948  2.8425
  161MOL0     H21703   9.068   0.207  12.117 -0.5976  1.3179 -0.5099
  161MOL0     H21704   9.106   0.180  12.291  2.5936  4.0162  3.5327
  161MOL0     H21705   8.936   0.405  12.180  2.0822  2.6210  0.8953
  161MOL0     H21706   9.016   0.421  12.334  1.3529  0.8437 -0.7018
  161MOL0     H21707   8.849   0.184  12.246  1.5813 -0.5193 -1.5625
  161MOL0     H21708   8.907   0.212  12.416  2.0536  2.6642  0.1442
  161MOL0     H21709   8.724   0.407  12.273  1.4776  1.6633  0.6772
  161MOL0     H21710   8.784   0.408  12.444 -1.6848 -2.0144  2.5246
  161MOL0     H21711   8.621   0.169  12.350  0.6418  0.0261  1.1117
  161MOL0     H21712   8.685   0.205  12.512  2.9080  0.0427 -0.4611
  161MOL0     H21713   8.454   0.247  12.522 -0.8387  0.2574 -0.4385
  161MOL0     H21714   8.447   0.317  12.360 -0.3395 -1.5125  0.2634
  161MOL0     H21715   8.552   0.528  12.437  1.9915  3.4137  3.0295
  161MOL0     H21716   8.601   0.461  12.595 -0.2750  0.7254  0.6930
  161MOL0     H21717   9.461   0.421  12.266  0.9610  0.1621 -0.2165
  161MOL0     H21718   9.671   0.512  12.229 -2.2736 -0.2051  2.3801
  161MOL0     H21719   9.995   0.584  12.167 -0.2637  0.5686 -0.0705
  161MOL0     H21720  10.255   0.586  12.179 -0.1562 -1.9770  0.1264
  161MOL0     H21721   9.011   1.299  11.568 -0.2123 -1.7177 -2.8679
  161MOL0     H21722   8.812   1.335  11.426  2.4804 -2.1296 -2.1009
  161MOL0     H21723   8.543   1.755  11.237  2.7522  2.6403 -2.3857
  161MOL0     H21724   8.341   1.814  11.093 -1.9139 -0.0913 -2.0158
  161MOL0     H21725   8.159   1.815  10.961  1.5340 -0.5905  0.1613
  161MOL0     H21726   8.274   1.900  10.874 -0.0312  1.1441 -2.0491
  161MOL0     H21727   8.162   1.870  10.656  0.0792 -0.6836  0.8707
  161MOL0     H21728   8.052   1.917  10.779 -0.6747 -0.5607  0.3718
  161MOL0     H21729   7.983   1.657  10.787 -2.1895 -1.4357 -2.4513
  161MOL0     H21730   8.094   1.641  10.651  1.1517  0.7575  2.7085
  161MOL0     H21731   7.956   1.841  10.554  0.0277  1.1790  1.1559
  161MOL0     H21732   7.856   1.822  10.693  1.5135  1.5654  0.3632
  161MOL0     H21733   7.717   1.544  10.399 -0.6742 -0.9562  2.1801
  161MOL0     H21734   8.437   1.500  10.821  4.6567  2.7454 -2.5369
  161MOL0     H21735   8.615   1.412  10.971  1.9944  0.2096  1.4070
  162MOL0     O21736   6.338   6.110   2.160 -0.2561  0.1020 -0.1449
  162MOL0     C21737   6.311   5.992   2.171 -0.9394  0.3484 -0.3239
  162MOL0     O21738   6.189   5.921   2.182 -0.0427 -0.0171 -0.0589
  162MOL0     C21739   6.079   5.978   2.226  0.8523 -0.1605  0.2642
  162MOL0     C21740   6.076   6.092   2.303 -0.5315 -0.3402  0.4027
  162MOL0     C21741   5.955   6.164   2.330  0.2501 -0.4231 -0.7447
  162MOL0     C21742   5.830   6.116   2.280  0.9211  0.4473 -0.2450
  162MOL0     O21743   5.713   6.177   2.320 -0.0255  0.1371 -0.1185
  162MOL0     C21744   5.591   6.095   2.311 -1.6945  0.0962 -0.0076
  162MOL0     C21745   5.473   6.190   2.317 -0.2517  0.4396  1.0865
  162MOL0     C21746   5.341   6.128   2.262 -0.1143  0.2579  0.0204
  162MOL0     C21747   5.231   6.234   2.267  0.7522 -0.1590 -0.2422
  162MOL0     C21748   5.097   6.175   2.205  0.3284  0.0719  0.5146
  162MOL0     C21749   4.984   6.269   2.222  0.7409 -0.5001 -0.1386
  162MOL0     C21750   4.843   6.207   2.183 -0.4772  0.6383  0.2615
  162MOL0     C21751   4.850   6.173   2.030  0.2378  0.4519  0.0015
  162MOL0     N21752   4.719   6.142   1.977  0.4920  0.3711  0.5548
  162MOL0     C21753   4.693   6.103   1.847 -0.3686  0.6996 -0.2919
  162MOL0     C21754   4.564   6.059   1.839  0.1400 -0.1254 -0.3797
  162MOL0     C21755   4.501   6.001   1.713 -0.3325  0.1418  0.0165
  162MOL0     C21756   4.421   6.107   1.649 -0.0069 -0.1395  1.4387
  162MOL0     C21757   4.278   6.126   1.713 -0.4558  0.2355  0.2557
  162MOL0     C21758   4.171   6.023   1.665  0.0027  0.2260 -0.1484
  162MOL0     O21759   4.048   6.065   1.730  0.9948  0.0387 -0.4427
  162MOL0     C21760   3.956   5.962   1.732 -0.1474 -0.3313  0.2441
  162MOL0     C21761   3.854   5.968   1.837  0.3294 -0.3235  0.8297
  162MOL0     C21762   3.752   5.876   1.848  0.4309 -0.1152  1.0729
  162MOL0     C21763   3.649   5.888   1.965 -0.5649 -0.1457  0.5652
  162MOL0     C21764   3.742   5.771   1.754 -0.7973 -0.5220  0.3106
  162MOL0     C21765   3.617   5.693   1.743 -0.0531 -0.1613  0.3694
  162MOL0     O21766   3.634   5.559   1.766  0.3423  0.4498 -0.0512
  162MOL0     C21767   3.521   5.479   1.773  0.3119  1.0019  0.5464
  162MOL0     C21768   3.435   5.465   1.664 -0.3172  0.2164  1.0452
  162MOL0     C21769   3.315   5.396   1.668 -0.1250  0.2951 -0.0173
  162MOL0     C21770   3.280   5.324   1.784 -0.1910 -0.8703 -0.8466
  162MOL0     O21771   3.165   5.255   1.778 -1.1149  0.1875 -0.2975
  162MOL0     C21772   3.098   5.220   1.909  0.3892  0.2907  0.9631
  162MOL0     C21773   2.948   5.199   1.884 -0.0463  0.2691  0.8073
  162MOL0     C21774   2.873   5.319   1.831 -0.2316 -0.1645 -1.5157
  162MOL0     C21775   2.717   5.287   1.815 -0.2493 -0.3881 -1.3280
  162MOL0     C21776   2.647   5.292   1.953  0.4489  0.1619 -0.5871
  162MOL0     C21777   2.491   5.287   1.936 -0.0563  0.2010 -0.2737
  162MOL0     C21778   2.412   5.305   2.068  0.5245 -0.3250  0.2302
  162MOL0     C21779   2.274   5.364   2.058 -0.3148  0.4723  0.2566
  162MOL0    Cl21780   2.172   5.246   1.963 -0.1539  0.1404 -0.0747
  162MOL0     C21781   3.371   5.329   1.885 -0.7135  0.0281  0.0662
  162MOL0     C21782   3.481   5.411   1.890 -0.1161 -0.7421 -0.8611
  162MOL0     O21783   3.507   5.751   1.725  1.1520  0.2805 -0.7017
  162MOL0     C21784   3.836   5.760   1.651 -0.0943  0.2118  1.0185
  162MOL0     C21785   3.948   5.853   1.644 -0.8485  0.4643 -0.1380
  162MOL0     N21786   4.519   6.057   1.970  0.8454  0.6380 -0.3595
  162MOL0     N21787   4.609   6.106   2.048 -0.4354  0.2167  0.5725
  162MOL0     C21788   5.845   6.007   2.186  0.3269 -0.5878 -0.5397
  162MOL0     C21789   5.963   5.936   2.170 -0.6547 -0.0102  0.3925
  162MOL0     C21790   6.431   5.897   2.199 -0.0147  0.3259 -0.5788
  162MOL0     C21791   6.555   5.942   2.150  0.8264  0.0760  0.6436
  162MOL0     C21792   6.672   5.868   2.167  0.2376  0.2239 -0.5723
  162MOL0     C21793   6.669   5.752   2.252  0.0698 -0.2116  0.3660
  162MOL0     O21794   6.790   5.696   2.276 -0.0673 -0.2679 -0.1890
  162MOL0     C21795   6.808   5.566   2.329  0.3497  0.4460  0.3406
  162MOL0     C21796   6.961   5.543   2.338  0.4240 -0.2169 -1.0675
  162MOL0     C21797   7.024   5.577   2.476  0.2589  0.2856  0.2695
  162MOL0     C21798   7.147   5.489   2.492 -0.2305  0.6628 -0.6159
  162MOL0     C21799   7.224   5.521   2.611 -0.6280  0.0791 -1.1365
  162MOL0     C21800   7.311   5.526   2.702  0.5183 -0.0838  0.0468
  162MOL0     C21801   6.552   5.715   2.322 -0.3301 -0.3884 -0.1119
  162MOL0     C21802   6.429   5.784   2.288  0.2787 -0.0919  1.2272
  162MOL0     H21803   6.160   6.135   2.356 -0.8075 -0.0846  0.6308
  162MOL0     H21804   5.968   6.247   2.399  3.6986 -1.4087 -0.0182
  162MOL0     H21805   5.601   6.044   2.215  4.1534 -0.6447  0.5980
  162MOL0     H21806   5.585   6.026   2.396 -0.1761 -1.6421 -1.2262
  162MOL0     H21807   5.464   6.218   2.422 -1.3331  3.8151  0.1956
  162MOL0     H21808   5.492   6.267   2.242  2.8415 -1.5986 -0.4489
  162MOL0     H21809   5.353   6.090   2.160  0.2255 -1.4383  0.6477
  162MOL0     H21810   5.296   6.057   2.332  1.4982  0.8401  1.7344
  162MOL0     H21811   5.223   6.274   2.368 -0.3073 -2.8024  0.8000
  162MOL0     H21812   5.264   6.310   2.195 -2.4123  0.3994 -1.2973
  162MOL0     H21813   5.108   6.159   2.098 -1.5263  0.8451  0.1713
  162MOL0     H21814   5.084   6.073   2.244  1.0071 -0.7176 -1.2363
  162MOL0     H21815   4.983   6.304   2.325  1.1762 -1.1036  0.0697
  162MOL0     H21816   4.999   6.360   2.161  1.8774 -1.4285 -1.3003
  162MOL0     H21817   4.830   6.117   2.244 -0.5586  1.4225  1.4105
  162MOL0     H21818   4.757   6.271   2.199 -1.8857 -0.6222 -1.7473
  162MOL0     H21819   4.917   6.092   1.999 -2.5641 -2.4876  1.1142
  162MOL0     H21820   4.869   6.268   1.980  2.0001  0.9773  1.5820
  162MOL0     H21821   4.750   6.125   1.758  0.5869 -1.1558 -0.1933
  162MOL0     H21822   4.576   5.963   1.643  0.1778  1.8393 -0.4089
  162MOL0     H21823   4.445   5.910   1.739  0.5791 -0.0819  1.2822
  162MOL0     H21824   4.404   6.104   1.541 -0.6511  0.0388  1.5337
  162MOL0     H21825   4.475   6.199   1.672 -1.9154  1.6757 -0.8065
  162MOL0     H21826   4.249   6.228   1.685  1.0396  0.0578 -2.2322
  162MOL0     H21827   4.296   6.126   1.821 -1.2868  1.7178  0.4148
  162MOL0     H21828   4.199   5.923   1.700 -0.3059  0.1312 -0.1678
  162MOL0     H21829   4.176   6.030   1.556 -1.1642  3.0220 -0.1094
  162MOL0     H21830   3.858   6.054   1.904 -0.6639  1.4777 -1.2864
  162MOL0     H21831   3.582   5.971   1.943 -0.5149 -0.1399  0.4366
  162MOL0     H21832   3.593   5.797   1.990 -2.6894  0.7176 -0.7763
  162MOL0     H21833   3.696   5.925   2.057 -1.3694  3.7012 -0.4161
  162MOL0     H21834   3.470   5.509   1.572 -0.5523  1.6956  1.6289
  162MOL0     H21835   3.242   5.392   1.588 -0.3910  1.2297  0.1662
  162MOL0     H21836   3.149   5.135   1.955  0.3956  0.1998  0.7865
  162MOL0     H21837   3.105   5.296   1.988  1.9345  0.1033  1.0498
  162MOL0     H21838   2.916   5.116   1.820  2.3138  0.5992 -0.9525
  162MOL0     H21839   2.909   5.175   1.984  1.6734 -1.6184  1.0910
  162MOL0     H21840   2.913   5.336   1.730 -0.2496 -0.9202 -1.6541
  162MOL0     H21841   2.894   5.401   1.900 -1.5492  1.0110 -2.4390
  162MOL0     H21842   2.675   5.361   1.747 -0.7032  1.4560  0.8244
  162MOL0     H21843   2.695   5.193   1.763  0.0855 -0.2572 -1.7098
  162MOL0     H21844   2.693   5.378   2.001  2.7823  0.2126 -2.6801
  162MOL0     H21845   2.663   5.196   2.002 -0.8259  0.8144  1.1922
  162MOL0     H21846   2.452   5.360   1.864 -3.8316 -0.3619  0.9702
  162MOL0     H21847   2.458   5.190   1.897 -0.4014  0.6790 -1.2058
  162MOL0     H21848   2.460   5.373   2.139  0.1326 -2.1727  2.3640
  162MOL0     H21849   2.408   5.205   2.113 -0.5967  0.3564  1.7087
  162MOL0     H21850   2.291   5.454   1.998  2.9196  0.5160  1.0547
  162MOL0     H21851   2.240   5.393   2.158  0.7779  2.0785  0.1988
  162MOL0     H21852   3.358   5.287   1.984  2.0708  0.9379  0.9174
  162MOL0     H21853   3.541   5.421   1.979 -1.7061 -1.4206  0.3227
  162MOL0     H21854   3.818   5.679   1.582  0.2171 -0.0867  1.2826
  162MOL0     H21855   4.020   5.840   1.564  3.5176  4.8141  2.5224
  162MOL0     H21856   5.762   5.968   2.127 -0.0892  2.5636 -2.2643
  162MOL0     H21857   5.968   5.855   2.098  1.3153  0.5026 -0.1186
  162MOL0     H21858   6.550   6.033   2.092 -2.7034  0.4895  1.3300
  162MOL0     H21859   6.762   5.895   2.114 -0.4292  0.8518 -1.4178
  162MOL0     H21860   6.746   5.548   2.417  0.2535 -4.3557 -0.4444
  162MOL0     H21861   6.761   5.493   2.263  2.1001 -0.7289  0.3147
  162MOL0     H21862   7.022   5.604   2.271  1.0569  0.6818  0.2895
  162MOL0     H21863   6.990   5.438   2.326  3.3726  0.0923  1.8557
  162MOL0     H21864   6.947   5.555   2.551 -0.0902  0.6061  0.0052
  162MOL0     H21865   7.039   5.685   2.483 -0.6108  0.4433 -0.1938
  162MOL0     H21866   7.215   5.507   2.408  2.3352  0.2831  1.2388
  162MOL0     H21867   7.112   5.386   2.492 -1.0760  0.7642 -5.0738
  162MOL0     H21868   7.382   5.543   2.780  0.0921 -0.3806  0.5055
  162MOL0     H21869   6.545   5.626   2.383  1.9937 -0.7372 -0.2917
  162MOL0     H21870   6.331   5.739   2.302 -1.2409  2.5709 -0.0652
  163MOL0     O21871   0.024   1.763   5.682 -0.9872 -0.1457  1.3486
  163MOL0     C21872  -0.007   1.645   5.696  0.1442 -0.3966  0.4765
  163MOL0     O21873  -0.145   1.605   5.736 -0.3782 -0.4474  0.4823
  163MOL0     C21874  -0.234   1.709   5.751  0.2564 -0.2439  0.7425
  163MOL0     C21875  -0.219   1.819   5.832  0.6396  0.5477 -0.6152
  163MOL0     C21876  -0.326   1.910   5.854 -0.6344 -0.2423 -0.1343
  163MOL0     C21877  -0.450   1.900   5.788 -0.4775 -0.4678 -1.1148
  163MOL0     O21878  -0.525   2.013   5.781  0.4145 -0.0364  0.0911
  163MOL0     C21879  -0.663   2.006   5.776  0.0586 -0.0330 -0.3868
  163MOL0     C21880  -0.708   2.147   5.782  0.2196  0.1730 -0.8660
  163MOL0     C21881  -0.859   2.160   5.797 -0.6400 -0.8467  0.1126
  163MOL0     C21882  -0.907   2.307   5.787 -0.6044  0.0881 -0.4106
  163MOL0     C21883  -1.049   2.320   5.835 -0.1603  0.3204  0.0480
  163MOL0     C21884  -1.140   2.427   5.763 -0.0278  0.1897  0.9335
  163MOL0     C21885  -1.282   2.430   5.820  0.3940 -0.0864  0.4106
  163MOL0     C21886  -1.303   2.537   5.936  0.3178 -0.2234  0.8177
  163MOL0     N21887  -1.447   2.560   5.981 -0.2378 -1.1649  0.2913
  163MOL0     C21888  -1.476   2.654   6.077  0.2040 -0.2650  0.3100
  163MOL0     C21889  -1.609   2.640   6.106 -0.6057  0.1238 -0.3865
  163MOL0     C21890  -1.684   2.711   6.212  1.3002 -0.0721 -0.4389
  163MOL0     C21891  -1.809   2.781   6.151 -0.6614 -0.1913  0.1802
  163MOL0     C21892  -1.904   2.837   6.259  0.8483  0.7164 -0.5053
  163MOL0     C21893  -2.022   2.908   6.205 -0.2481  0.2570 -0.6525
  163MOL0     O21894  -2.108   2.944   6.314 -0.5462 -0.3423 -0.1891
  163MOL0     C21895  -2.242   2.937   6.297  0.6106  0.0163 -0.6692
  163MOL0     C21896  -2.304   2.987   6.183  0.1173 -0.0702  0.3676
  163MOL0     C21897  -2.442   2.986   6.173 -0.6429 -0.5063 -0.3583
  163MOL0     C21898  -2.506   3.048   6.046  0.2625  0.7900 -0.0299
  163MOL0     C21899  -2.517   2.905   6.265 -0.0152 -0.1560 -0.3671
  163MOL0     C21900  -2.663   2.896   6.250 -0.3986  0.1547 -0.1980
  163MOL0     O21901  -2.752   2.953   6.338 -0.0865 -0.6071 -0.7557
  163MOL0     C21902  -2.889   2.921   6.332 -1.0054 -0.0941 -0.1409
  163MOL0     C21903  -2.973   3.022   6.280 -0.3560  0.2467 -0.5031
  163MOL0     C21904  -3.113   2.999   6.266 -0.4191  1.4494  0.3716
  163MOL0     C21905  -3.171   2.868   6.278 -0.4324  0.4044  0.5835
  163MOL0     O21906  -3.303   2.849   6.270  0.4412 -0.7014 -0.6337
  163MOL0     C21907  -3.356   2.721   6.249  0.1332 -0.6167  0.7864
  163MOL0     C21908  -3.515   2.713   6.245  0.5622  0.1515 -0.6753
  163MOL0     C21909  -3.566   2.804   6.131 -0.3197 -0.3437 -0.0734
  163MOL0     C21910  -3.712   2.806   6.135  0.3532  1.0722 -0.1503
  163MOL0     C21911  -3.767   2.916   6.047 -0.1272 -0.1115  0.4577
  163MOL0     C21912  -3.922   2.902   6.046  0.2143  0.2284 -0.0511
  163MOL0     C21913  -3.994   3.017   5.973  0.8838 -0.1134 -0.0466
  163MOL0     C21914  -4.131   2.966   5.932 -0.2294 -0.0854  0.3885
  163MOL0    Cl21915  -4.227   2.896   6.073 -0.0235  0.3999  0.1504
  163MOL0     C21916  -3.076   2.775   6.324 -0.2935  0.2312  0.4635
  163MOL0     C21917  -2.942   2.796   6.351  1.5236  0.7546 -0.2248
  163MOL0     O21918  -2.695   2.830   6.154  0.7199 -0.5289 -0.1100
  163MOL0     C21919  -2.456   2.857   6.377 -0.4670 -0.6089 -0.4040
  163MOL0     C21920  -2.321   2.871   6.393  0.3334  0.4667 -0.4499
  163MOL0     N21921  -1.661   2.544   6.022 -0.3705  0.0071  0.7224
  163MOL0     N21922  -1.563   2.496   5.945 -0.1957 -0.4459 -0.1307
  163MOL0     C21923  -0.462   1.796   5.699  0.2141 -0.5068  0.3033
  163MOL0     C21924  -0.355   1.704   5.690  0.4398  0.8317  0.5690
  163MOL0     C21925   0.093   1.543   5.663  0.1461 -0.1106 -0.9021
  163MOL0     C21926   0.057   1.408   5.659  0.0533  0.3477 -0.1970
  163MOL0     C21927   0.147   1.299   5.659  0.0310 -0.1672 -1.0747
  163MOL0     C21928   0.280   1.327   5.651  0.2685 -0.6317 -0.2072
  163MOL0     O21929   0.366   1.232   5.619  0.3191 -0.2751 -0.4393
  163MOL0     C21930   0.493   1.270   5.564 -0.3583  0.8569  0.3285
  163MOL0     C21931   0.540   1.129   5.515 -0.6997  0.2967  0.4781
  163MOL0     C21932   0.579   1.053   5.634  0.8578  0.9628 -0.8078
  163MOL0     C21933   0.687   0.953   5.609  0.1462  0.5395 -1.3580
  163MOL0     C21934   0.647   0.847   5.514 -0.2860  0.1669  0.0687
  163MOL0     C21935   0.627   0.771   5.424  0.0802  1.0807  0.6962
  163MOL0     C21936   0.316   1.467   5.669 -1.0514  0.6156 -0.1738
  163MOL0     C21937   0.221   1.570   5.684  0.2384 -0.4676  0.6419
  163MOL0     H21938  -0.125   1.834   5.885  0.2608 -0.8568  0.5272
  163MOL0     H21939  -0.302   1.983   5.931  1.6461 -0.0539 -0.9230
  163MOL0     H21940  -0.701   1.952   5.689  0.3299  0.7197 -0.9810
  163MOL0     H21941  -0.701   1.952   5.863 -1.2593  0.9635 -0.3195
  163MOL0     H21942  -0.658   2.196   5.867 -0.7010  1.5379 -1.0859
  163MOL0     H21943  -0.675   2.192   5.688  1.5307  0.5084 -0.2787
  163MOL0     H21944  -0.902   2.106   5.713  0.7062 -2.7300  0.5626
  163MOL0     H21945  -0.897   2.113   5.888 -0.5182 -1.2902 -0.0619
  163MOL0     H21946  -0.844   2.371   5.850  0.1525 -0.7219 -0.3364
  163MOL0     H21947  -0.904   2.351   5.687  0.5522  1.1156  0.0414
  163MOL0     H21948  -1.093   2.222   5.812  2.3371 -0.7731 -0.3775
  163MOL0     H21949  -1.054   2.322   5.944 -0.6331  0.1782  0.0330
  163MOL0     H21950  -1.090   2.524   5.768  0.6449 -0.0708 -0.2651
  163MOL0     H21951  -1.142   2.394   5.659 -2.5840  2.5199  0.1214
  163MOL0     H21952  -1.354   2.455   5.741 -1.6344 -2.1811  1.4853
  163MOL0     H21953  -1.313   2.331   5.854 -0.6886  0.2442  0.4302
  163MOL0     H21954  -1.263   2.635   5.908  0.0472  0.0286  1.3012
  163MOL0     H21955  -1.245   2.512   6.026 -0.7813  1.5268  2.0989
  163MOL0     H21956  -1.415   2.732   6.123 -0.1354  1.8726 -2.5799
  163MOL0     H21957  -1.723   2.639   6.285  0.2944  0.2259 -0.6663
  163MOL0     H21958  -1.620   2.788   6.256 -0.5371  0.5397  1.3220
  163MOL0     H21959  -1.858   2.719   6.076 -3.6478  1.4125  0.6598
  163MOL0     H21960  -1.779   2.870   6.095 -2.3697  0.9273  0.9523
  163MOL0     H21961  -1.856   2.911   6.323  0.8518  0.4480 -0.1929
  163MOL0     H21962  -1.938   2.747   6.310  3.6798 -1.0881 -1.5298
  163MOL0     H21963  -2.072   2.847   6.129  0.6562  0.1817 -1.1977
  163MOL0     H21964  -1.988   3.001   6.157 -1.8863  1.5799  0.6161
  163MOL0     H21965  -2.244   3.023   6.100  1.7346 -0.0809  1.4729
  163MOL0     H21966  -2.564   2.973   5.993  1.1347  0.8724 -1.1506
  163MOL0     H21967  -2.574   3.127   6.077 -1.0786 -0.5045  0.4326
  163MOL0     H21968  -2.431   3.097   5.983  0.6207  0.2512 -0.0361
  163MOL0     H21969  -2.939   3.122   6.252  1.2238  0.0850  0.6906
  163MOL0     H21970  -3.191   3.070   6.241 -2.7103 -0.9515  0.2951
  163MOL0     H21971  -3.315   2.697   6.150  1.1476  1.9420  0.4987
  163MOL0     H21972  -3.323   2.653   6.328  0.7676  1.7100  2.6238
  163MOL0     H21973  -3.539   2.607   6.235  2.9919 -0.2932 -3.1516
  163MOL0     H21974  -3.561   2.755   6.335 -2.4427 -2.2511 -0.9220
  163MOL0     H21975  -3.525   2.770   6.036  1.8739  1.6446  0.0731
  163MOL0     H21976  -3.524   2.901   6.159  2.3777 -1.6555  0.8086
  163MOL0     H21977  -3.749   2.712   6.093  2.9740  0.2007 -0.7019
  163MOL0     H21978  -3.758   2.809   6.235  1.9689 -0.8650  0.7047
  163MOL0     H21979  -3.724   2.897   5.948  0.8521 -0.3568  0.9296
  163MOL0     H21980  -3.735   3.009   6.094  3.9671 -1.5022  0.7515
  163MOL0     H21981  -3.957   2.802   6.021  1.1181  0.3173 -1.8496
  163MOL0     H21982  -3.954   2.908   6.150  1.9443  1.9869  0.4462
  163MOL0     H21983  -3.939   3.036   5.881  2.9880 -0.1782  1.1371
  163MOL0     H21984  -3.983   3.106   6.036  4.0671 -0.7276  0.4482
  163MOL0     H21985  -4.120   2.891   5.852 -0.1103  1.2255 -0.8768
  163MOL0     H21986  -4.192   3.043   5.883 -1.7248  0.0335  2.3300
  163MOL0     H21987  -3.105   2.671   6.335  2.2652 -0.4541  1.4426
  163MOL0     H21988  -2.882   2.710   6.379  0.0162 -0.4850 -0.6189
  163MOL0     H21989  -2.511   2.791   6.443  3.1831 -1.5641  1.9637
  163MOL0     H21990  -2.262   2.825   6.473 -0.3728  0.8502  0.3007
  163MOL0     H21991  -0.550   1.783   5.637  0.9020 -0.8031 -0.6390
  163MOL0     H21992  -0.363   1.620   5.621 -0.4254 -0.7700  2.5138
  163MOL0     H21993  -0.047   1.383   5.677  0.2294  1.6138  3.2588
  163MOL0     H21994   0.121   1.194   5.649  1.3473 -0.7819  1.2576
  163MOL0     H21995   0.483   1.333   5.475  3.7788  1.2605 -0.0406
  163MOL0     H21996   0.561   1.336   5.619 -0.5095  3.1110 -2.0113
  163MOL0     H21997   0.626   1.164   5.456  0.9991  1.8553  3.6294
  163MOL0     H21998   0.472   1.076   5.448  1.5910 -0.8016 -1.1056
  163MOL0     H21999   0.492   1.005   5.679  2.3968  0.9654  2.4575
  163MOL0     H22000   0.626   1.120   5.707  1.1821 -1.4075  1.2700
  163MOL0     H22001   0.710   0.905   5.705  0.1448 -0.8264 -2.0140
  163MOL0     H22002   0.780   0.995   5.572  1.8267 -1.3332  0.4450
  163MOL0     H22003   0.620   0.691   5.353  3.5236  0.7776  0.5304
  163MOL0     H22004   0.422   1.490   5.666  0.2833 -3.4733  3.7739
  163MOL0     H22005   0.253   1.671   5.704 -1.1712 -0.0327  0.8437
  164MOL0     O22006   7.091   7.125   8.855 -0.0658  0.1333 -0.0341
  164MOL0     C22007   7.001   7.136   8.939 -0.1507  0.1066 -0.2426
  164MOL0     O22008   7.023   7.202   9.060 -0.0146 -0.4571 -1.0577
  164MOL0     C22009   7.154   7.248   9.088 -0.1459  0.0716  0.6388
  164MOL0     C22010   7.226   7.342   9.008  0.4880  0.1513  0.9434
  164MOL0     C22011   7.344   7.383   9.050 -0.2979  0.7581 -1.2889
  164MOL0     C22012   7.404   7.329   9.173  1.2232  0.4090  0.1841
  164MOL0     O22013   7.513   7.393   9.230 -0.1480  0.4366 -0.5720
  164MOL0     C22014   7.599   7.331   9.330 -0.6325  1.0679  0.3496
  164MOL0     C22015   7.547   7.369   9.472  0.5862  0.6450 -0.3003
  164MOL0     C22016   7.562   7.517   9.521 -0.2198  0.6985 -0.5818
  164MOL0     C22017   7.693   7.534   9.591  0.4716 -0.0030 -0.2050
  164MOL0     C22018   7.716   7.670   9.663  0.3217  0.4750 -0.3702
  164MOL0     C22019   7.851   7.720   9.705 -0.5413  0.0924 -0.1554
  164MOL0     C22020   7.830   7.837   9.796 -0.7226 -0.1373 -0.1168
  164MOL0     C22021   7.959   7.919   9.790  0.6906  0.1207 -0.4329
  164MOL0     N22022   8.066   7.841   9.858 -0.4863 -0.1131  0.6517
  164MOL0     C22023   8.086   7.826   9.995 -0.6944 -0.1678 -0.2133
  164MOL0     C22024   8.207   7.771  10.018 -0.2905 -0.3109 -1.2962
  164MOL0     C22025   8.272   7.734  10.145  0.8329 -0.6620  0.1546
  164MOL0     C22026   8.281   7.845  10.248 -0.0956  0.0545  0.0403
  164MOL0     C22027   8.161   7.845  10.341 -0.6804 -0.4569  0.7563
  164MOL0     C22028   8.150   7.719  10.434 -0.2682 -0.2647 -0.2409
  164MOL0     O22029   8.022   7.743  10.500 -0.0525 -0.2717 -0.1271
  164MOL0     C22030   7.902   7.718  10.440  0.4314  0.0011 -0.3718
  164MOL0     C22031   7.794   7.743  10.522  0.3766  0.6813  0.4309
  164MOL0     C22032   7.665   7.734  10.470  0.3349 -0.5423 -0.1035
  164MOL0     C22033   7.552   7.756  10.565 -0.4888  0.5418 -1.0879
  164MOL0     C22034   7.646   7.693  10.333  0.1292  0.2929  0.0091
  164MOL0     C22035   7.523   7.674  10.261  0.0748  0.9979 -0.3021
  164MOL0     O22036   7.524   7.643  10.131  0.4281 -0.4838  0.5700
  164MOL0     C22037   7.412   7.591  10.077  0.2430  0.1688 -0.5904
  164MOL0     C22038   7.401   7.453  10.091 -0.6758 -0.2646 -0.6483
  164MOL0     C22039   7.288   7.388  10.035 -0.1202  0.3685  0.0768
  164MOL0     C22040   7.187   7.461   9.967 -0.4094  0.4291  0.5119
  164MOL0     O22041   7.088   7.388   9.902 -0.1231  0.5884  0.4597
  164MOL0     C22042   7.037   7.444   9.781 -0.4309 -0.5607 -0.3593
  164MOL0     C22043   6.964   7.332   9.699 -0.5089 -0.0449  0.4511
  164MOL0     C22044   7.046   7.204   9.682  0.0217 -0.3889 -0.0160
  164MOL0     C22045   6.992   7.110   9.583  0.9014  0.3744 -0.1553
  164MOL0     C22046   7.072   6.980   9.598 -0.2570  0.2559 -0.2802
  164MOL0     C22047   7.051   6.874   9.489 -0.8034 -0.4982 -0.2431
  164MOL0     C22048   6.900   6.841   9.505 -0.5688  0.1477 -0.4708
  164MOL0     C22049   6.845   6.735   9.406 -0.0523 -0.1412 -0.0412
  164MOL0    Cl22050   6.872   6.819   9.244 -0.0035 -0.3823 -0.4368
  164MOL0     C22051   7.199   7.603   9.959 -0.3215 -0.0713 -0.4787
  164MOL0     C22052   7.312   7.665  10.013  0.3797  0.0042 -0.0965
  164MOL0     O22053   7.412   7.691  10.324 -0.1352 -0.5024  0.7927
  164MOL0     C22054   7.764   7.664  10.259  0.2370  0.4699  1.3699
  164MOL0     C22055   7.891   7.676  10.315  0.0930 -0.1222  0.6714
  164MOL0     N22056   8.266   7.761   9.896 -0.2548 -0.4324  0.6791
  164MOL0     N22057   8.183   7.790   9.798 -0.2314  0.3028 -0.2813
  164MOL0     C22058   7.340   7.231   9.246  0.3725  0.5779  0.0796
  164MOL0     C22059   7.213   7.190   9.204  0.2408 -0.6042  0.6106
  164MOL0     C22060   6.870   7.075   8.910  0.7477  0.9640 -0.1766
  164MOL0     C22061   6.840   7.014   8.790  0.2812 -0.0653  0.1019
  164MOL0     C22062   6.708   6.971   8.763  0.3287 -0.5884  0.1402
  164MOL0     C22063   6.604   6.971   8.859 -0.2774 -0.0980 -0.0695
  164MOL0     O22064   6.486   6.915   8.831 -0.4547 -0.2881  0.6860
  164MOL0     C22065   6.370   6.946   8.910 -0.5420 -0.0372 -0.0756
  164MOL0     C22066   6.246   6.893   8.856 -0.1849 -0.0795  0.1168
  164MOL0     C22067   6.190   6.983   8.751 -0.7147 -0.6578  0.2744
  164MOL0     C22068   6.060   6.946   8.675 -0.0666  0.3072 -0.2006
  164MOL0     C22069   5.950   6.910   8.768 -0.1572  0.8378  0.2524
  164MOL0     C22070   5.855   6.882   8.834 -0.5757  0.5737  0.3940
  164MOL0     C22071   6.640   7.034   8.974  0.9772 -0.5795 -0.1390
  164MOL0     C22072   6.764   7.091   9.000  0.1695 -0.9388  0.1844
  164MOL0     H22073   7.177   7.374   8.917  1.1279  1.3237  0.9966
  164MOL0     H22074   7.396   7.457   8.991  1.7144  0.3428 -0.1225
  164MOL0     H22075   7.611   7.222   9.326  0.3322  1.1704  0.2113
  164MOL0     H22076   7.699   7.369   9.310 -0.3513  0.4222  0.4967
  164MOL0     H22077   7.441   7.343   9.475  1.0175 -1.7811 -2.5645
  164MOL0     H22078   7.590   7.303   9.547 -4.2218 -2.3369  0.2388
  164MOL0     H22079   7.562   7.580   9.431 -0.7339  0.4882 -0.7344
  164MOL0     H22080   7.471   7.540   9.578 -0.4051 -1.5702  0.1356
  164MOL0     H22081   7.699   7.448   9.659  0.7568 -0.9938 -1.4428
  164MOL0     H22082   7.773   7.524   9.517 -0.8390 -2.1998 -1.4321
  164MOL0     H22083   7.668   7.740   9.595  1.1837  0.9711 -0.4786
  164MOL0     H22084   7.657   7.679   9.755 -0.6175  0.8378 -0.9920
  164MOL0     H22085   7.901   7.639   9.758  1.6377  1.2808 -0.2601
  164MOL0     H22086   7.921   7.744   9.625 -0.1719  0.9843  0.4092
  164MOL0     H22087   7.751   7.901   9.756  2.1641  2.3414 -2.3123
  164MOL0     H22088   7.810   7.789   9.893  0.2580  1.4858  0.9303
  164MOL0     H22089   7.954   8.006   9.857 -0.2614 -0.3119  0.0734
  164MOL0     H22090   7.986   7.949   9.689  2.3218 -2.7421 -0.9675
  164MOL0     H22091   8.017   7.843  10.077  0.7237 -0.4621  1.1037
  164MOL0     H22092   8.216   7.646  10.178  0.5325 -1.2588 -1.7717
  164MOL0     H22093   8.374   7.697  10.130  0.2074 -1.3392 -3.3503
  164MOL0     H22094   8.294   7.945  10.204 -1.9404 -0.8619 -2.9026
  164MOL0     H22095   8.370   7.831  10.310 -0.5261  2.1752  1.2410
  164MOL0     H22096   8.066   7.863  10.289  0.4298 -3.5759 -2.7450
  164MOL0     H22097   8.177   7.923  10.416  3.1525 -0.4675  0.1349
  164MOL0     H22098   8.227   7.714  10.511  0.3553  1.7805 -0.6534
  164MOL0     H22099   8.153   7.623  10.381 -0.0252  0.0429 -0.8039
  164MOL0     H22100   7.816   7.798  10.613 -2.6010  1.9536  0.5127
  164MOL0     H22101   7.593   7.803  10.655 -1.9266  0.5719 -0.4239
  164MOL0     H22102   7.484   7.832  10.526  0.3341  0.9994 -1.6776
  164MOL0     H22103   7.491   7.669  10.589 -0.3717  0.4002 -1.2997
  164MOL0     H22104   7.484   7.399  10.136  2.4822  0.7053 -4.6309
  164MOL0     H22105   7.283   7.279  10.040  0.7711  0.3710  3.3935
  164MOL0     H22106   6.969   7.529   9.798 -0.6131 -0.2819 -2.3297
  164MOL0     H22107   7.117   7.483   9.717 -1.1263  0.4749 -0.6247
  164MOL0     H22108   6.868   7.317   9.748 -0.9766 -1.5277 -0.8296
  164MOL0     H22109   6.959   7.366   9.595  0.0964 -0.5586  0.2484
  164MOL0     H22110   7.058   7.151   9.778  0.6138 -1.8978 -0.8913
  164MOL0     H22111   7.146   7.234   9.650 -0.1797 -0.4060 -0.6704
  164MOL0     H22112   6.885   7.092   9.601  0.7603  0.8058 -0.5328
  164MOL0     H22113   6.998   7.151   9.482 -0.5223 -0.7120 -0.7154
  164MOL0     H22114   7.042   6.939   9.695  3.2453  2.7817  2.1521
  164MOL0     H22115   7.180   7.002   9.602 -0.1164 -0.4922  0.2275
  164MOL0     H22116   7.086   6.917   9.394  1.4910  0.5529  0.9730
  164MOL0     H22117   7.119   6.793   9.516  1.2393  1.0704 -0.4031
  164MOL0     H22118   6.836   6.929   9.498 -0.6600  0.0734 -0.5770
  164MOL0     H22119   6.871   6.804   9.604  2.1790 -0.5545  0.1440
  164MOL0     H22120   6.741   6.705   9.424 -0.3479  0.7730 -0.1835
  164MOL0     H22121   6.904   6.643   9.398 -1.4041 -1.0300 -0.1813
  164MOL0     H22122   7.131   7.663   9.899 -1.4248  1.1567  1.8370
  164MOL0     H22123   7.327   7.771   9.995 -2.1947  0.3289 -0.8321
  164MOL0     H22124   7.774   7.635  10.155 -0.7383  2.1444  0.7533
  164MOL0     H22125   7.977   7.647  10.256  0.9926  2.4121  0.6515
  164MOL0     H22126   7.384   7.184   9.334 -0.1200  1.1559  0.6447
  164MOL0     H22127   7.155   7.120   9.262  1.0252 -1.5284  0.2932
  164MOL0     H22128   6.914   6.994   8.713 -1.2230  1.1534 -1.7663
  164MOL0     H22129   6.685   6.922   8.668 -1.0146 -1.9036  1.0965
  164MOL0     H22130   6.386   6.891   9.004 -2.3453  2.1395  1.6426
  164MOL0     H22131   6.355   7.052   8.930 -0.5341 -0.3689  1.9338
  164MOL0     H22132   6.182   6.884   8.944  1.5896  0.4471  1.5315
  164MOL0     H22133   6.261   6.788   8.829 -1.4649 -0.6003  1.2443
  164MOL0     H22134   6.260   6.989   8.668 -0.5068 -0.8320  0.4375
  164MOL0     H22135   6.164   7.082   8.789 -0.1805  0.1222 -1.3330
  164MOL0     H22136   6.092   6.855   8.624 -1.0039 -0.5497  0.6912
  164MOL0     H22137   6.038   7.024   8.602  2.8393 -0.6865 -2.3096
  164MOL0     H22138   5.779   6.871   8.909  1.3935  1.7188  2.7138
  164MOL0     H22139   6.569   7.045   9.055  0.8368  0.4624 -0.3923
  164MOL0     H22140   6.770   7.144   9.095 -2.0802 -1.3557  0.5960
  165MOL0     O22141   1.452   6.998   8.836  0.3800  0.4323 -0.4827
  165MOL0     C22142   1.493   7.105   8.798  0.4738 -0.2421  0.0448
  165MOL0     O22143   1.445   7.225   8.838 -0.4889 -0.4664  0.0227
  165MOL0     C22144   1.332   7.244   8.914  0.6460  0.0369 -0.4131
  165MOL0     C22145   1.211   7.178   8.891 -0.6380 -0.1015  0.3123
  165MOL0     C22146   1.089   7.218   8.965  0.2772  1.1786  0.6143
  165MOL0     C22147   1.106   7.305   9.073  0.2766 -0.0926  0.3108
  165MOL0     O22148   1.009   7.366   9.150 -0.6282  0.2045  0.1426
  165MOL0     C22149   0.876   7.322   9.136  1.4771 -0.0674 -1.3424
  165MOL0     C22150   0.790   7.443   9.181  0.0134  0.2072 -0.1440
  165MOL0     C22151   0.785   7.467   9.325 -0.0132 -0.7482 -0.5016
  165MOL0     C22152   0.706   7.591   9.366 -0.3877 -0.3526  0.2936
  165MOL0     C22153   0.554   7.567   9.345 -0.7416 -0.3128  0.3535
  165MOL0     C22154   0.497   7.651   9.230  0.0057 -0.4396  0.6461
  165MOL0     C22155   0.343   7.613   9.210 -0.1548 -0.0159 -0.1861
  165MOL0     C22156   0.275   7.688   9.089 -0.1334  0.3437 -0.1024
  165MOL0     N22157   0.139   7.648   9.059  0.0609 -0.6158  0.2769
  165MOL0     C22158   0.039   7.613   9.146 -0.0685 -0.0497 -0.3000
  165MOL0     C22159  -0.072   7.591   9.069 -0.4281 -0.9099 -1.0613
  165MOL0     C22160  -0.209   7.586   9.119 -0.4697  0.3418  0.5132
  165MOL0     C22161  -0.260   7.453   9.166  0.5061 -0.9483 -0.3199
  165MOL0     C22162  -0.396   7.473   9.246  0.0687  0.0640  0.3551
  165MOL0     C22163  -0.441   7.335   9.303  0.7852 -0.7052  0.2379
  165MOL0     O22164  -0.357   7.303   9.413 -0.7360  0.3900 -0.4288
  165MOL0     C22165  -0.402   7.192   9.478 -0.1865 -0.1969  0.3297
  165MOL0     C22166  -0.511   7.104   9.457 -0.4420  0.1418  0.2000
  165MOL0     C22167  -0.533   6.996   9.540 -0.8441 -0.2548 -0.2200
  165MOL0     C22168  -0.652   6.907   9.505  0.3107 -0.7683  0.1417
  165MOL0     C22169  -0.444   6.970   9.641  0.6663 -0.5427 -0.1520
  165MOL0     C22170  -0.455   6.849   9.738 -0.1189  0.0954  0.0954
  165MOL0     O22171  -0.338   6.828   9.805  0.8689  0.8130  0.3893
  165MOL0     C22172  -0.317   6.724   9.889 -0.1099  0.1771 -0.8258
  165MOL0     C22173  -0.211   6.632   9.863 -0.8507 -0.4642  0.4146
  165MOL0     C22174  -0.171   6.536   9.957 -0.5609  0.1997 -0.0562
  165MOL0     C22175  -0.254   6.519  10.067  0.8179 -0.2873 -0.0244
  165MOL0     O22176  -0.258   6.418  10.156 -0.1394  0.5096 -0.4487
  165MOL0     C22177  -0.206   6.291  10.113 -0.5797 -0.6982  0.6304
  165MOL0     C22178  -0.199   6.172  10.200  0.0991 -0.4005 -0.0563
  165MOL0     C22179  -0.112   6.062  10.134  0.0308 -0.1572  0.5988
  165MOL0     C22180  -0.166   6.022   9.998  0.2610  0.0255  0.2401
  165MOL0     C22181  -0.112   5.884   9.949  0.6566  0.3730 -0.3932
  165MOL0     C22182  -0.201   5.770  10.000  0.5590 -0.6428  0.1732
  165MOL0     C22183  -0.195   5.643   9.914 -0.0156  0.1704  0.0779
  165MOL0     C22184  -0.256   5.533   9.995 -0.3710  0.4713  0.1646
  165MOL0    Cl22185  -0.429   5.560  10.013  0.6545  0.0763  0.0746
  165MOL0     C22186  -0.361   6.607  10.090 -0.3173 -0.8314  0.5409
  165MOL0     C22187  -0.384   6.713  10.005  0.1956 -0.2587  0.0930
  165MOL0     O22188  -0.553   6.775   9.742 -0.1612  0.4846  0.0945
  165MOL0     C22189  -0.332   7.052   9.666  0.0231 -0.7500  0.6436
  165MOL0     C22190  -0.321   7.168   9.591  0.0718  1.0180  0.5750
  165MOL0     N22191  -0.035   7.606   8.941 -0.1168  0.4082  0.0974
  165MOL0     N22192   0.089   7.634   8.936 -0.2559 -0.4199 -0.3838
  165MOL0     C22193   1.225   7.370   9.093 -0.3619  1.0428 -0.3706
  165MOL0     C22194   1.333   7.337   9.012 -0.2133 -0.5640  0.2749
  165MOL0     C22195   1.618   7.110   8.727 -0.5646 -0.3425 -0.3927
  165MOL0     C22196   1.721   7.018   8.747 -0.2651 -0.1343  0.2467
  165MOL0     C22197   1.850   7.041   8.686 -0.1683 -0.0229  0.7514
  165MOL0     C22198   1.876   7.146   8.597 -0.5476  0.1289  0.4216
  165MOL0     O22199   2.003   7.144   8.533 -0.1585 -0.4817 -0.3100
  165MOL0     C22200   2.048   7.242   8.437 -0.5671  0.2671  0.8765
  165MOL0     C22201   2.168   7.182   8.366  0.6237 -0.4642  0.5579
  165MOL0     C22202   2.297   7.173   8.455 -0.4185 -0.3739  0.3002
  165MOL0     C22203   2.423   7.157   8.378  0.3418  0.2208  0.2710
  165MOL0     C22204   2.548   7.195   8.436 -0.2762  0.6406  0.0024
  165MOL0     C22205   2.658   7.213   8.481  0.1613  0.5239 -0.2929
  165MOL0     C22206   1.769   7.237   8.576  0.5027  0.2903 -0.6467
  165MOL0     C22207   1.645   7.221   8.646 -0.7659 -0.2393  0.9116
  165MOL0     H22208   1.197   7.102   8.815 -1.2395 -1.0229  1.3278
  165MOL0     H22209   0.994   7.172   8.939  1.7404 -1.5108 -0.3217
  165MOL0     H22210   0.849   7.307   9.031  1.2918  0.1224 -1.3217
  165MOL0     H22211   0.852   7.229   9.188  2.2783 -1.3844 -3.2094
  165MOL0     H22212   0.830   7.535   9.136  0.5141  0.6932  1.2390
  165MOL0     H22213   0.687   7.434   9.144  0.5906 -0.2061 -1.7317
  165MOL0     H22214   0.752   7.379   9.380  0.4025 -0.5360  0.0999
  165MOL0     H22215   0.888   7.482   9.358 -0.6331  0.2180  1.0954
  165MOL0     H22216   0.724   7.591   9.474 -0.4316 -1.4810  0.3119
  165MOL0     H22217   0.748   7.682   9.322 -0.1185 -1.2710 -1.4440
  165MOL0     H22218   0.541   7.459   9.341  6.7711 -1.7146 -0.3530
  165MOL0     H22219   0.504   7.606   9.435 -1.4223 -1.2371  0.3930
  165MOL0     H22220   0.515   7.758   9.245  0.2726 -0.7853  3.0745
  165MOL0     H22221   0.558   7.628   9.142  0.9271  1.5954  0.6948
  165MOL0     H22222   0.326   7.506   9.197  0.3761  0.1440 -2.6236
  165MOL0     H22223   0.289   7.646   9.300 -0.1586 -0.3011 -0.0835
  165MOL0     H22224   0.339   7.682   9.000  0.0331 -0.5661  0.0714
  165MOL0     H22225   0.261   7.790   9.126  1.1190  0.3676  0.3586
  165MOL0     H22226   0.035   7.612   9.255  0.8756  0.8845 -0.2434
  165MOL0     H22227  -0.219   7.659   9.200 -3.0723  1.4046 -0.6560
  165MOL0     H22228  -0.271   7.620   9.035  0.3297 -0.2175 -0.3207
  165MOL0     H22229  -0.188   7.405   9.233  1.7768 -1.8467 -2.2530
  165MOL0     H22230  -0.272   7.378   9.088  0.4798 -0.7756 -0.4819
  165MOL0     H22231  -0.471   7.511   9.176 -0.7128 -0.6681  0.7792
  165MOL0     H22232  -0.401   7.542   9.330  4.6874  1.6181 -0.3931
  165MOL0     H22233  -0.435   7.258   9.225 -1.5624 -0.6579 -0.0617
  165MOL0     H22234  -0.543   7.342   9.340  0.8572 -0.3107  0.3609
  165MOL0     H22235  -0.570   7.114   9.367 -3.0805 -3.8643  1.2371
  165MOL0     H22236  -0.694   6.947   9.413  1.1676  0.6867  0.3515
  165MOL0     H22237  -0.622   6.802   9.499  0.9039 -0.5284 -1.8906
  165MOL0     H22238  -0.731   6.913   9.580 -1.8843 -1.8807 -1.9299
  165MOL0     H22239  -0.143   6.645   9.779 -1.7596 -1.8559 -0.6033
  165MOL0     H22240  -0.100   6.457   9.935 -2.5684 -1.9383  0.7261
  165MOL0     H22241  -0.280   6.265  10.037 -1.8623 -0.1726  1.6626
  165MOL0     H22242  -0.099   6.304  10.093 -0.5500  0.0989  1.2502
  165MOL0     H22243  -0.150   6.203  10.293  2.1123 -0.9800 -0.8768
  165MOL0     H22244  -0.297   6.126  10.214  1.1103 -2.1003  2.0123
  165MOL0     H22245  -0.114   5.972  10.196  2.6926 -0.3728  0.4844
  165MOL0     H22246  -0.007   6.092  10.126 -0.2646  0.7015 -0.2934
  165MOL0     H22247  -0.275   6.028  10.004  0.2925  1.2222 -0.1691
  165MOL0     H22248  -0.144   6.094   9.919  2.0210 -1.7311 -0.9670
  165MOL0     H22249  -0.010   5.861   9.979 -0.3038 -1.7044  1.5887
  165MOL0     H22250  -0.121   5.882   9.840 -1.3731  1.4996 -0.3001
  165MOL0     H22251  -0.165   5.753  10.101 -1.9088  0.6879  1.3652
  165MOL0     H22252  -0.299   5.809  10.028  0.8440  0.0948  0.1808
  165MOL0     H22253  -0.089   5.619   9.902 -0.6377 -3.4267  0.6046
  165MOL0     H22254  -0.241   5.655   9.815 -0.3312  0.7683  0.2936
  165MOL0     H22255  -0.211   5.527  10.095 -0.6033 -2.9358  0.1872
  165MOL0     H22256  -0.242   5.432   9.955 -4.0406  0.1877 -0.7897
  165MOL0     H22257  -0.420   6.595  10.180  1.8321 -1.4504  1.9616
  165MOL0     H22258  -0.464   6.783  10.031  1.3955  0.6615  1.4603
  165MOL0     H22259  -0.253   7.035   9.739 -2.5035  0.3713  3.8663
  165MOL0     H22260  -0.233   7.231   9.601  0.0478  1.0195  0.7742
  165MOL0     H22261   1.238   7.439   9.176 -0.9415  0.5631  0.1381
  165MOL0     H22262   1.434   7.377   9.024 -0.6340  0.4529  0.6068
  165MOL0     H22263   1.715   6.930   8.810 -2.1856  0.8376  1.5305
  165MOL0     H22264   1.930   6.968   8.691  1.0411  1.3485  2.4524
  165MOL0     H22265   1.972   7.277   8.366  2.2020  1.3400 -1.7495
  165MOL0     H22266   2.087   7.322   8.500  1.6088 -2.2893  3.0367
  165MOL0     H22267   2.184   7.243   8.276 -1.5609  1.3220  1.2943
  165MOL0     H22268   2.142   7.084   8.327 -0.5938 -0.8450  2.2239
  165MOL0     H22269   2.292   7.085   8.519 -0.7428 -1.7762 -1.5402
  165MOL0     H22270   2.302   7.272   8.502  1.9357  0.2448 -1.0959
  165MOL0     H22271   2.408   7.216   8.287 -3.4537  0.2781  0.7932
  165MOL0     H22272   2.444   7.055   8.345 -1.1279 -0.0792  0.2069
  165MOL0     H22273   2.754   7.228   8.525  0.9585 -1.4781 -1.2343
  165MOL0     H22274   1.776   7.326   8.513 -0.1408  2.1039  1.6986
  165MOL0     H22275   1.571   7.299   8.627 -0.9269 -0.8535 -1.2893
  166MOL0     O22276   6.885   6.579   0.709 -0.3331  0.4571  0.0882
  166MOL0     C22277   6.948   6.509   0.790  0.7056  0.7698 -0.5521
  166MOL0     O22278   6.895   6.397   0.861 -0.5623  0.9314  0.0779
  166MOL0     C22279   6.760   6.376   0.865 -0.5202 -0.0370 -0.6332
  166MOL0     C22280   6.673   6.389   0.767 -0.2167  0.2336  0.9626
  166MOL0     C22281   6.534   6.388   0.791 -1.1454  0.1570  0.3583
  166MOL0     C22282   6.485   6.355   0.916 -0.5434 -0.3597 -1.3183
  166MOL0     O22283   6.354   6.363   0.942 -0.5728  0.7120  0.5071
  166MOL0     C22284   6.317   6.481   1.022 -0.1481  0.0630  0.1371
  166MOL0     C22285   6.184   6.531   0.967 -0.5060  0.6249 -0.3350
  166MOL0     C22286   6.060   6.447   1.007 -0.5510  0.0081  0.4101
  166MOL0     C22287   5.928   6.486   0.939 -0.3595  0.0706  0.2768
  166MOL0     C22288   5.800   6.455   1.023 -0.1649 -0.3973  0.5866
  166MOL0     C22289   5.674   6.472   0.950  0.4350 -0.7278  0.5143
  166MOL0     C22290   5.549   6.443   1.031  0.7433  0.1146  0.2915
  166MOL0     C22291   5.432   6.408   0.943  0.0571  0.8453  0.4021
  166MOL0     N22292   5.310   6.393   1.035 -0.2141  0.1167 -0.0690
  166MOL0     C22293   5.189   6.332   0.992 -0.0324 -0.2024  0.7586
  166MOL0     C22294   5.096   6.361   1.086 -0.2841  0.2653  0.8364
  166MOL0     C22295   4.956   6.324   1.104 -0.2678  0.3266 -0.7717
  166MOL0     C22296   4.870   6.448   1.075 -0.6364  0.9409  0.1575
  166MOL0     C22297   4.720   6.426   1.108 -0.7685  0.0240 -0.3644
  166MOL0     C22298   4.691   6.387   1.258  0.1088 -0.0425  0.1157
  166MOL0     O22299   4.555   6.399   1.300  0.1370  0.1459  0.0881
  166MOL0     C22300   4.463   6.301   1.283 -0.1035 -0.2281 -0.8649
  166MOL0     C22301   4.485   6.186   1.203 -0.3238  0.3811  0.0644
  166MOL0     C22302   4.378   6.097   1.183  0.2787 -0.4716 -0.3835
  166MOL0     C22303   4.406   5.987   1.075  0.4437 -0.4466  0.9534
  166MOL0     C22304   4.252   6.121   1.246 -0.0185  0.4591 -0.3877
  166MOL0     C22305   4.134   6.036   1.224 -0.2851 -0.0747 -0.0034
  166MOL0     O22306   4.065   6.010   1.335  0.6244  0.3966 -0.2034
  166MOL0     C22307   3.949   5.933   1.323  0.7882 -0.0492 -0.0439
  166MOL0     C22308   3.831   6.008   1.332 -0.6473 -0.4782  0.1479
  166MOL0     C22309   3.706   5.950   1.339 -0.5937  0.7512  0.1937
  166MOL0     C22310   3.700   5.815   1.314 -0.9357  0.0062 -0.1351
  166MOL0     O22311   3.582   5.742   1.303 -0.2975  0.0704 -0.1133
  166MOL0     C22312   3.461   5.804   1.351  1.4004  0.0451 -0.6566
  166MOL0     C22313   3.348   5.701   1.337 -0.5967  0.3357 -0.2455
  166MOL0     C22314   3.208   5.751   1.381 -0.1237  0.0856  0.0785
  166MOL0     C22315   3.115   5.625   1.386  0.2989  0.1402  0.3739
  166MOL0     C22316   2.966   5.657   1.371 -1.0334  0.5410  0.0393
  166MOL0     C22317   2.863   5.556   1.434  0.2510 -0.1686 -0.0682
  166MOL0     C22318   2.717   5.606   1.404 -0.3819 -0.1801 -0.5097
  166MOL0     C22319   2.619   5.496   1.446  0.2692 -0.9563  0.5410
  166MOL0    Cl22320   2.621   5.349   1.344  0.2417 -0.0524  0.1892
  166MOL0     C22321   3.823   5.747   1.303  0.7303  0.9919 -0.0768
  166MOL0     C22322   3.943   5.802   1.298  0.2555 -0.6690  0.4969
  166MOL0     O22323   4.121   5.977   1.118  0.4291  0.3284 -0.1626
  166MOL0     C22324   4.234   6.233   1.326 -0.2872 -0.4938 -0.4496
  166MOL0     C22325   4.341   6.318   1.351 -0.2682  0.5414  0.3914
  166MOL0     N22326   5.154   6.432   1.192 -0.0567  0.1319  0.0622
  166MOL0     N22327   5.279   6.451   1.155 -0.4769  0.2806 -0.4957
  166MOL0     C22328   6.579   6.321   1.012  0.5895  0.3920 -0.1610
  166MOL0     C22329   6.713   6.333   0.987 -0.1855 -0.6646 -0.4336
  166MOL0     C22330   7.089   6.549   0.813  0.2623 -0.4555  0.0360
  166MOL0     C22331   7.166   6.583   0.696 -0.5450 -0.2675  0.3274
  166MOL0     C22332   7.290   6.636   0.712 -0.0146  0.1513 -0.0428
  166MOL0     C22333   7.364   6.633   0.830 -0.2349 -0.5164  0.0005
  166MOL0     O22334   7.495   6.667   0.845 -0.0120 -0.6880 -0.2495
  166MOL0     C22335   7.591   6.692   0.738 -0.2594 -0.3479  0.7153
  166MOL0     C22336   7.725   6.721   0.806  0.0762 -0.1623  0.2894
  166MOL0     C22337   7.766   6.870   0.813  0.8165  0.4840 -0.4985
  166MOL0     C22338   7.902   6.900   0.857 -0.0916 -0.1708  0.0113
  166MOL0     C22339   7.962   6.811   0.952  0.1607  0.7072  1.0084
  166MOL0     C22340   7.997   6.727   1.024 -0.3265  0.4577 -0.1378
  166MOL0     C22341   7.289   6.594   0.943 -0.6598 -0.6219  0.3373
  166MOL0     C22342   7.154   6.546   0.934  0.5120  1.1901 -0.7975
  166MOL0     H22343   6.714   6.410   0.668  0.2529 -1.7364  0.7039
  166MOL0     H22344   6.466   6.404   0.708  2.3224  0.8809 -2.6139
  166MOL0     H22345   6.304   6.453   1.126 -0.1443  1.0646  0.4154
  166MOL0     H22346   6.384   6.564   0.996  1.0780 -1.4339 -1.7971
  166MOL0     H22347   6.164   6.627   1.014 -3.4414 -0.1720  0.2171
  166MOL0     H22348   6.203   6.556   0.862 -2.1578 -0.8805 -1.0535
  166MOL0     H22349   6.079   6.341   0.985 -1.6170 -0.1983  0.4319
  166MOL0     H22350   6.048   6.456   1.115 -1.7051  1.3877  0.1930
  166MOL0     H22351   5.932   6.594   0.925 -0.4172  0.1132  0.5729
  166MOL0     H22352   5.933   6.436   0.842  1.0709  0.8770 -0.0905
  166MOL0     H22353   5.791   6.351   1.057 -3.1418  0.0884  1.5964
  166MOL0     H22354   5.790   6.523   1.109 -0.5394 -0.6252  0.7254
  166MOL0     H22355   5.672   6.575   0.912 -0.4626 -1.4520 -1.6010
  166MOL0     H22356   5.685   6.412   0.859  0.2006  2.0760 -1.4781
  166MOL0     H22357   5.576   6.365   1.104  2.0289  1.1391  0.9531
  166MOL0     H22358   5.515   6.523   1.098 -1.1867 -1.8730  1.8631
  166MOL0     H22359   5.446   6.320   0.878 -0.5619  1.1597 -0.1677
  166MOL0     H22360   5.420   6.489   0.871  1.9682  1.6009  0.8641
  166MOL0     H22361   5.170   6.277   0.901  0.7800  1.3303 -0.3743
  166MOL0     H22362   4.935   6.232   1.049  1.6173  0.0953 -1.1574
  166MOL0     H22363   4.936   6.293   1.207 -2.1093 -1.2310 -1.5203
  166MOL0     H22364   4.893   6.485   0.975  2.1140 -0.5818  0.1273
  166MOL0     H22365   4.896   6.537   1.133 -0.5254  0.5200  0.7701
  166MOL0     H22366   4.674   6.360   1.035  2.3538 -0.8403 -1.7058
  166MOL0     H22367   4.662   6.519   1.098 -0.9688  0.2627  2.2401
  166MOL0     H22368   4.755   6.438   1.330 -2.6786 -0.5564  3.2248
  166MOL0     H22369   4.722   6.282   1.268  3.5103  0.7745 -0.7313
  166MOL0     H22370   4.577   6.164   1.149 -0.8040 -2.7436  0.3184
  166MOL0     H22371   4.376   5.889   1.114 -2.2475  0.8340  2.4080
  166MOL0     H22372   4.343   6.001   0.986 -0.3637 -1.6389  1.3001
  166MOL0     H22373   4.511   5.994   1.044  0.1698  0.2064  0.1398
  166MOL0     H22374   3.844   6.116   1.333 -1.0598 -0.3746 -2.0050
  166MOL0     H22375   3.619   6.011   1.363 -0.6628 -0.1132  2.4904
  166MOL0     H22376   3.472   5.840   1.453  1.7202 -1.2774 -0.2104
  166MOL0     H22377   3.439   5.885   1.280  2.1770  0.0846 -0.8671
  166MOL0     H22378   3.352   5.665   1.233 -0.0674 -0.8634  0.1621
  166MOL0     H22379   3.369   5.607   1.389  2.2806  0.7835 -0.4405
  166MOL0     H22380   3.162   5.821   1.311 -0.9326 -1.3474 -0.8802
  166MOL0     H22381   3.219   5.802   1.477 -3.5489  0.0008  0.6232
  166MOL0     H22382   3.145   5.555   1.308 -0.3215  0.6687 -0.3490
  166MOL0     H22383   3.133   5.566   1.476  1.8384  0.0669  0.0452
  166MOL0     H22384   2.940   5.669   1.266 -1.5900 -0.0091  0.1120
  166MOL0     H22385   2.945   5.754   1.417  0.8599  0.8514  0.3374
  166MOL0     H22386   2.892   5.455   1.405  3.2496 -0.6485  3.7615
  166MOL0     H22387   2.876   5.545   1.542  2.0954  0.7515 -0.1616
  166MOL0     H22388   2.707   5.630   1.298  2.3989  2.2475 -0.3565
  166MOL0     H22389   2.689   5.697   1.459 -2.7856 -0.5530 -1.0040
  166MOL0     H22390   2.518   5.536   1.453  1.2695  1.5747  2.2579
  166MOL0     H22391   2.651   5.468   1.547 -0.2572 -0.7708  0.7594
  166MOL0     H22392   3.822   5.645   1.266 -0.7244  0.9931 -0.1227
  166MOL0     H22393   4.039   5.753   1.284 -1.3848 -3.5820 -1.7513
  166MOL0     H22394   4.142   6.250   1.381 -0.3671  4.2665 -1.5917
  166MOL0     H22395   4.335   6.399   1.423 -2.1541 -1.1727  2.3000
  166MOL0     H22396   6.551   6.283   1.109  0.2701 -1.9196 -1.0913
  166MOL0     H22397   6.799   6.305   1.047  1.4169 -0.7323 -2.6034
  166MOL0     H22398   7.120   6.570   0.599 -0.9989 -2.6072  0.7987
  166MOL0     H22399   7.350   6.670   0.627  0.6572  3.1304  1.4556
  166MOL0     H22400   7.603   6.602   0.677  0.6039 -0.8603  1.6226
  166MOL0     H22401   7.552   6.775   0.678 -0.1949 -1.5442 -1.0809
  166MOL0     H22402   7.790   6.667   0.736 -0.1498  1.0904 -0.9195
  166MOL0     H22403   7.741   6.663   0.897 -2.8655 -1.1438  0.3106
  166MOL0     H22404   7.699   6.912   0.890  0.2075 -1.1467 -0.0995
  166MOL0     H22405   7.752   6.930   0.723  1.5901  1.0252 -0.2690
  166MOL0     H22406   7.915   7.003   0.893 -0.5608  0.6883 -2.1350
  166MOL0     H22407   7.961   6.919   0.767 -2.8206  0.4949 -1.7690
  166MOL0     H22408   8.029   6.650   1.092  0.8652  1.6463  0.7012
  166MOL0     H22409   7.331   6.591   1.043  0.0445  1.2998  0.1371
  166MOL0     H22410   7.087   6.515   1.014  1.6062 -0.8371 -0.6036
  167MOL0     O22411  11.271   0.265   2.272 -0.9751 -0.1329  0.6260
  167MOL0     C22412  11.323   0.366   2.224 -0.2124 -0.1867 -0.1102
  167MOL0     O22413  11.256   0.483   2.187  0.1885  0.2255 -0.2009
  167MOL0     C22414  11.121   0.485   2.192  0.1371  1.4000  0.8082
  167MOL0     C22415  11.068   0.595   2.256 -0.0946  0.0944 -0.2779
  167MOL0     C22416  10.930   0.613   2.277  1.2451  0.5588  0.1773
  167MOL0     C22417  10.838   0.516   2.239 -0.0568  0.3427 -0.0822
  167MOL0     O22418  10.699   0.535   2.239  0.3985 -0.5884 -0.7970
  167MOL0     C22419  10.646   0.631   2.332  0.0662 -0.3130 -0.2496
  167MOL0     C22420  10.510   0.594   2.378  1.0546  1.0037 -0.7123
  167MOL0     C22421  10.406   0.585   2.275 -0.4603  0.6372  0.6675
  167MOL0     C22422  10.260   0.545   2.318 -0.4140  1.0950  0.4985
  167MOL0     C22423  10.166   0.558   2.202  0.5087  0.0523  1.1276
  167MOL0     C22424  10.016   0.514   2.238 -0.0181  0.4425 -0.2418
  167MOL0     C22425   9.914   0.479   2.128 -0.6563  0.2676 -0.5898
  167MOL0     C22426   9.877   0.617   2.058  0.2434  0.2315  0.9128
  167MOL0     N22427   9.771   0.605   1.956 -0.0466  0.1013 -0.2756
  167MOL0     C22428   9.640   0.579   1.973 -1.0287  0.0900 -0.3535
  167MOL0     C22429   9.592   0.559   1.850 -0.1967  0.0176  0.4962
  167MOL0     C22430   9.455   0.526   1.822  0.3270 -0.4634  0.1084
  167MOL0     C22431   9.454   0.389   1.744  0.4639 -0.5791 -0.1209
  167MOL0     C22432   9.314   0.335   1.702 -0.1108 -0.1995  0.1490
  167MOL0     C22433   9.217   0.284   1.809  0.3317  0.5341 -0.0333
  167MOL0     O22434   9.101   0.216   1.748 -0.0305 -0.2057 -0.0141
  167MOL0     C22435   8.980   0.190   1.814  0.2182 -0.6221 -0.2942
  167MOL0     C22436   8.960   0.237   1.945  0.9072 -0.2847 -0.2765
  167MOL0     C22437   8.841   0.221   2.013  0.2208  0.3811  0.4982
  167MOL0     C22438   8.837   0.279   2.157 -0.9289 -0.4880 -0.4641
  167MOL0     C22439   8.736   0.149   1.949  0.2029 -0.0407  0.3711
  167MOL0     C22440   8.599   0.151   2.011  0.2305 -0.8861  0.7515
  167MOL0     O22441   8.509   0.080   1.943 -0.2278  0.1595 -0.8655
  167MOL0     C22442   8.379   0.088   1.980 -1.3193  1.4385 -0.7682
  167MOL0     C22443   8.331  -0.007   2.074 -0.4173  0.7752  0.8257
  167MOL0     C22444   8.196  -0.018   2.089  0.0579  0.7806  0.0047
  167MOL0     C22445   8.103   0.064   2.018  0.0817 -0.6893 -0.9203
  167MOL0     O22446   7.968   0.038   2.021  0.0421 -0.5807  0.4366
  167MOL0     C22447   7.878   0.093   1.924  0.2242  0.1151  0.3495
  167MOL0     C22448   7.738   0.031   1.955  0.8971  0.4444  0.3832
  167MOL0     C22449   7.637   0.076   1.851 -0.4115  0.6396  0.0825
  167MOL0     C22450   7.489   0.039   1.887  0.4680 -0.3667 -0.0943
  167MOL0     C22451   7.392   0.107   1.784  0.4332 -0.1478  0.5381
  167MOL0     C22452   7.388   0.059   1.640 -0.1514  0.5157 -0.0655
  167MOL0     C22453   7.313   0.151   1.550 -0.0186  0.0134 -0.5621
  167MOL0     C22454   7.316   0.093   1.410 -1.2026  0.1202  0.0301
  167MOL0    Cl22455   7.232  -0.067   1.395 -0.1475 -0.1780 -0.8789
  167MOL0     C22456   8.163   0.159   1.927  0.2495  0.2077 -0.3115
  167MOL0     C22457   8.299   0.170   1.911  0.0040  0.5016 -0.3697
  167MOL0     O22458   8.569   0.223   2.109 -0.4225 -0.2491  0.1070
  167MOL0     C22459   8.761   0.090   1.822 -0.6427  1.0194  0.7386
  167MOL0     C22460   8.888   0.105   1.757  0.8542 -0.9087  0.9151
  167MOL0     N22461   9.694   0.566   1.755 -0.2361 -1.0187 -0.1475
  167MOL0     N22462   9.800   0.585   1.824 -0.3937  0.1245  0.0754
  167MOL0     C22463  10.892   0.395   2.194 -0.2791  1.6399  0.8602
  167MOL0     C22464  11.025   0.379   2.165 -0.6590 -0.2008  0.6175
  167MOL0     C22465  11.473   0.387   2.237  0.4705  1.1098 -0.9624
  167MOL0     C22466  11.544   0.472   2.159 -0.7601 -0.0702  0.3843
  167MOL0     C22467  11.689   0.494   2.172  0.1232  0.9990  0.4773
  167MOL0     C22468  11.758   0.427   2.277  0.3320  0.5536  0.3014
  167MOL0     O22469  11.896   0.442   2.304 -0.5615 -0.2945 -0.2191
  167MOL0     C22470  11.953   0.574   2.296  0.2810  0.2239 -0.2660
  167MOL0     C22471  12.080   0.572   2.389  0.7077 -0.1047 -0.1724
  167MOL0     C22472  12.148   0.703   2.396  0.9699 -0.5660  0.0527
  167MOL0     C22473  12.091   0.780   2.512  0.1733 -0.4301  0.3653
  167MOL0     C22474  12.113   0.924   2.506  0.2622 -0.2420 -0.1275
  167MOL0     C22475  12.143   1.043   2.511 -0.4016  0.6107  0.0831
  167MOL0     C22476  11.683   0.339   2.357  0.7451  0.5852 -0.3827
  167MOL0     C22477  11.541   0.314   2.340 -0.5745 -0.7869  0.3496
  167MOL0     H22478  11.135   0.676   2.281 -0.2802 -0.3037  1.6159
  167MOL0     H22479  10.896   0.709   2.315 -1.1460 -0.1446 -0.0567
  167MOL0     H22480  10.717   0.633   2.416  1.4398 -1.9287 -1.3182
  167MOL0     H22481  10.642   0.735   2.297  2.5165  0.4350  1.4260
  167MOL0     H22482  10.519   0.498   2.428  0.1500  1.2670 -0.0147
  167MOL0     H22483  10.470   0.667   2.450 -0.8821 -1.0808  0.4474
  167MOL0     H22484  10.396   0.682   2.226 -0.7270 -0.1175 -0.8110
  167MOL0     H22485  10.445   0.515   2.200  1.0078 -1.2161  2.9776
  167MOL0     H22486  10.270   0.440   2.345  0.8027  1.3770  1.2310
  167MOL0     H22487  10.218   0.607   2.398  0.2038  2.3713 -0.1259
  167MOL0     H22488  10.174   0.660   2.163 -3.0479 -0.6208 -2.0560
  167MOL0     H22489  10.201   0.491   2.123  1.0460  0.1347  1.2969
  167MOL0     H22490  10.014   0.428   2.305  0.8337 -0.2947 -1.1405
  167MOL0     H22491   9.963   0.584   2.304 -2.5306 -1.3659 -0.1804
  167MOL0     H22492   9.962   0.405   2.063  0.4062  0.1210  0.3427
  167MOL0     H22493   9.823   0.443   2.177 -1.8169  2.5038 -0.9625
  167MOL0     H22494   9.959   0.660   1.999 -1.4866  1.6728 -0.5337
  167MOL0     H22495   9.841   0.693   2.128 -0.7312 -2.0771  3.0387
  167MOL0     H22496   9.581   0.576   2.064 -0.9945  3.4671 -0.0921
  167MOL0     H22497   9.407   0.512   1.919  3.1005 -1.2710  1.4382
  167MOL0     H22498   9.401   0.605   1.768  1.5613  0.9317  0.8487
  167MOL0     H22499   9.500   0.312   1.807  1.2306  1.7443  2.3599
  167MOL0     H22500   9.513   0.402   1.653  2.0493  1.1320  1.0654
  167MOL0     H22501   9.331   0.250   1.634 -0.4744 -1.7304  1.8729
  167MOL0     H22502   9.265   0.412   1.641  3.5889  1.6429 -0.8046
  167MOL0     H22503   9.189   0.372   1.868 -0.5845 -0.6579  1.3805
  167MOL0     H22504   9.258   0.222   1.889  1.0588  1.0736  0.0182
  167MOL0     H22505   9.037   0.300   1.990  0.5208 -0.0635  0.0777
  167MOL0     H22506   8.928   0.333   2.185 -1.9593  3.2058 -3.4257
  167MOL0     H22507   8.771   0.365   2.150 -0.0261  0.0915 -3.2689
  167MOL0     H22508   8.809   0.199   2.227  0.2635 -0.8357 -0.3561
  167MOL0     H22509   8.393  -0.076   2.131  3.4873  0.7093 -2.9883
  167MOL0     H22510   8.162  -0.092   2.161 -1.2256  0.6074 -0.7473
  167MOL0     H22511   7.885   0.202   1.922  2.2313  0.0828  2.0970
  167MOL0     H22512   7.911   0.054   1.827 -0.1821 -1.3426  0.7674
  167MOL0     H22513   7.735  -0.079   1.955 -2.6324  0.4092 -0.4729
  167MOL0     H22514   7.692   0.075   2.044 -1.0736 -3.1142  1.3626
  167MOL0     H22515   7.668   0.024   1.759  1.3927  1.4834  0.1835
  167MOL0     H22516   7.625   0.184   1.851 -1.1176  0.6075  2.1029
  167MOL0     H22517   7.477  -0.069   1.873  2.0172 -0.6730  0.7294
  167MOL0     H22518   7.466   0.073   1.988  0.1599  2.4962 -1.0329
  167MOL0     H22519   7.415   0.212   1.763  0.8890 -0.4757 -0.6629
  167MOL0     H22520   7.289   0.093   1.818 -0.0386 -0.0810 -0.8071
  167MOL0     H22521   7.492   0.051   1.606 -0.7836 -0.9663 -1.8242
  167MOL0     H22522   7.346  -0.041   1.652 -1.8276  1.2892  0.9491
  167MOL0     H22523   7.371   0.244   1.539 -0.6823  0.6995  1.2629
  167MOL0     H22524   7.213   0.182   1.582 -1.0980 -3.3137 -0.3667
  167MOL0     H22525   7.418   0.070   1.376 -1.7403 -0.5576 -1.1738
  167MOL0     H22526   7.276   0.162   1.336 -1.1361  0.3550  0.2111
  167MOL0     H22527   8.100   0.228   1.871  1.9404 -1.2576 -4.3955
  167MOL0     H22528   8.356   0.230   1.841 -0.3394 -0.1326 -1.2058
  167MOL0     H22529   8.686   0.023   1.782  0.4532 -0.2459  0.7287
  167MOL0     H22530   8.908   0.056   1.662  1.5306 -1.1655  1.1841
  167MOL0     H22531  10.840   0.305   2.165  2.6713 -0.7952  2.4953
  167MOL0     H22532  11.058   0.287   2.118  2.1979 -0.3905  2.7106
  167MOL0     H22533  11.506   0.521   2.070 -0.9045 -2.3083 -0.8638
  167MOL0     H22534  11.744   0.561   2.107 -1.8820 -0.4931 -3.0280
  167MOL0     H22535  11.969   0.597   2.190  1.2703  0.6555 -0.0385
  167MOL0     H22536  11.889   0.652   2.340  0.1796 -0.2405  0.4213
  167MOL0     H22537  12.147   0.499   2.343 -1.7751 -0.7225 -3.0915
  167MOL0     H22538  12.052   0.539   2.489 -0.5823  0.7820 -0.2210
  167MOL0     H22539  12.131   0.761   2.305  0.3372 -1.7810 -0.6203
  167MOL0     H22540  12.254   0.681   2.408  1.2979  1.6633  1.9319
  167MOL0     H22541  12.144   0.746   2.601  1.2815 -0.1163 -0.1552
  167MOL0     H22542  11.983   0.763   2.523 -0.1446  0.3948 -1.2066
  167MOL0     H22543  12.187   1.141   2.514  0.0122  0.5084 -1.6349
  167MOL0     H22544  11.735   0.276   2.428 -1.0272  0.2623  0.6816
  167MOL0     H22545  11.505   0.232   2.402  0.8446 -1.2391  0.6268
  168MOL0     O22546   5.971   2.293   9.315  0.4532 -0.6976  0.3298
  168MOL0     C22547   6.058   2.233   9.378 -0.1184  0.5802  0.9343
  168MOL0     O22548   6.078   2.096   9.386 -0.0744  1.0428  0.0491
  168MOL0     C22549   5.996   2.023   9.305 -0.3102  0.5482  0.1181
  168MOL0     C22550   5.864   2.008   9.337 -0.3152 -0.3923 -0.7567
  168MOL0     C22551   5.787   1.921   9.265 -0.3892  0.5298 -0.2524
  168MOL0     C22552   5.838   1.844   9.160 -0.1858 -0.4387 -0.6410
  168MOL0     O22553   5.761   1.758   9.094 -0.0298  1.1754  0.6069
  168MOL0     C22554   5.640   1.801   9.043  0.4178  0.2124  0.3913
  168MOL0     C22555   5.613   1.711   8.918 -0.3871 -0.6428  0.0683
  168MOL0     C22556   5.588   1.560   8.953  0.9153 -0.8137 -0.6353
  168MOL0     C22557   5.529   1.483   8.839  0.9176  0.5107 -0.7238
  168MOL0     C22558   5.503   1.341   8.889  0.0662  0.2965  0.1839
  168MOL0     C22559   5.389   1.319   8.992 -0.3725 -0.1167  0.1605
  168MOL0     C22560   5.267   1.417   8.984 -0.4898 -0.1792  0.2260
  168MOL0     C22561   5.141   1.361   9.063 -0.0816  0.0041 -0.0674
  168MOL0     N22562   5.108   1.226   9.041 -0.2522 -0.3052  0.1599
  168MOL0     C22563   5.049   1.179   8.926 -0.0371  0.8554  0.7255
  168MOL0     C22564   5.011   1.056   8.955  0.3276  0.8449 -0.0285
  168MOL0     C22565   4.935   0.963   8.870 -0.0667  0.7339  0.3195
  168MOL0     C22566   5.016   0.851   8.813  0.1007  0.1257  0.0154
  168MOL0     C22567   4.943   0.739   8.729  0.5116 -0.3232 -0.2969
  168MOL0     C22568   4.848   0.795   8.617 -0.5101 -0.0528  0.2152
  168MOL0     O22569   4.723   0.839   8.669  0.6415 -0.5912  0.1004
  168MOL0     C22570   4.605   0.763   8.669 -0.6712 -0.4344  0.2630
  168MOL0     C22571   4.550   0.709   8.549 -0.7607  0.1840 -0.2009
  168MOL0     C22572   4.431   0.640   8.541 -0.4591 -0.2981 -0.6872
  168MOL0     C22573   4.409   0.549   8.417 -0.3351  0.0746 -1.1041
  168MOL0     C22574   4.350   0.634   8.656  0.2182 -0.5607 -0.2356
  168MOL0     C22575   4.214   0.575   8.655 -0.6629 -0.4148  0.3816
  168MOL0     O22576   4.170   0.530   8.778  0.6682  0.0702  0.2029
  168MOL0     C22577   4.059   0.445   8.770 -0.0652 -0.1953 -0.2495
  168MOL0     C22578   4.074   0.311   8.747 -0.5914  0.0351  0.3942
  168MOL0     C22579   3.975   0.218   8.728  0.0511  0.2473 -1.2227
  168MOL0     C22580   3.848   0.263   8.747  0.3690  0.3322  0.2168
  168MOL0     O22581   3.746   0.168   8.744 -0.1547  0.0871  0.3839
  168MOL0     C22582   3.608   0.210   8.761  0.0342  0.7005  0.0541
  168MOL0     C22583   3.543   0.070   8.778  0.1349 -0.1939  0.7577
  168MOL0     C22584   3.389   0.085   8.782 -0.1886  0.0455  0.7990
  168MOL0     C22585   3.325   0.059   8.642  0.0483 -0.5529 -0.3818
  168MOL0     C22586   3.176   0.101   8.636  0.1312 -0.3083 -0.6753
  168MOL0     C22587   3.064   0.049   8.719 -0.3502 -0.2688 -0.5221
  168MOL0     C22588   3.041  -0.102   8.698 -0.8055  0.0164 -0.1614
  168MOL0     C22589   2.924  -0.155   8.774  0.1369  0.4933 -0.3419
  168MOL0    Cl22590   2.768  -0.083   8.707 -0.3840  0.2644 -0.5642
  168MOL0     C22591   3.826   0.401   8.781  0.6463  0.6346  0.0937
  168MOL0     C22592   3.927   0.487   8.793  0.5434  0.5477  0.5669
  168MOL0     O22593   4.162   0.560   8.546  0.1018 -0.4670 -0.3511
  168MOL0     C22594   4.396   0.701   8.780  0.6281  0.2968 -0.2955
  168MOL0     C22595   4.524   0.758   8.789 -0.9460 -0.3805 -0.2816
  168MOL0     N22596   5.035   1.032   9.093 -0.5528  0.5959  0.3178
  168MOL0     N22597   5.105   1.126   9.137  0.0035  0.5089  0.2174
  168MOL0     C22598   5.967   1.859   9.129  0.5306 -0.3465 -0.5703
  168MOL0     C22599   6.048   1.942   9.199 -0.2186  0.2225  0.1689
  168MOL0     C22600   6.145   2.324   9.459  0.3005  0.9217 -0.1679
  168MOL0     C22601   6.138   2.470   9.457 -0.7337  0.4389  0.5681
  168MOL0     C22602   6.219   2.547   9.545  0.3685  0.1832  0.1911
  168MOL0     C22603   6.308   2.487   9.631  0.8071 -0.4129  0.2807
  168MOL0     O22604   6.387   2.553   9.720 -0.6618 -0.2419 -0.7121
  168MOL0     C22605   6.378   2.698   9.736 -0.2598 -0.1603  0.2419
  168MOL0     C22606   6.466   2.726   9.851 -0.1207  0.0980 -0.5011
  168MOL0     C22607   6.408   2.832   9.945 -0.3168 -0.3016 -0.0777
  168MOL0     C22608   6.495   2.847  10.072 -0.1205  0.5718 -0.2241
  168MOL0     C22609   6.637   2.868  10.037  0.7311 -0.6133  0.2359
  168MOL0     C22610   6.748   2.875   9.992  0.3750 -0.5102  0.3776
  168MOL0     C22611   6.309   2.348   9.639 -0.3903 -0.0640  0.0895
  168MOL0     C22612   6.237   2.270   9.552  0.5858 -0.0276  0.2411
  168MOL0     H22613   5.823   2.043   9.431 -3.1774 -5.5512  0.3159
  168MOL0     H22614   5.684   1.895   9.290  0.4189 -1.0424  1.7050
  168MOL0     H22615   5.553   1.791   9.110 -1.2823  4.3718 -0.8747
  168MOL0     H22616   5.641   1.905   9.011 -1.7306 -0.4717 -2.2454
  168MOL0     H22617   5.523   1.747   8.867  0.1505 -0.3933 -0.7259
  168MOL0     H22618   5.690   1.724   8.841 -1.1088  1.0247 -0.4169
  168MOL0     H22619   5.685   1.515   8.979  1.1693 -1.0634 -1.9607
  168MOL0     H22620   5.527   1.555   9.044 -0.7025  0.6920 -1.5805
  168MOL0     H22621   5.438   1.527   8.797  0.9369  1.8991  0.6006
  168MOL0     H22622   5.607   1.489   8.763  0.1625  0.3174 -1.5359
  168MOL0     H22623   5.466   1.290   8.799  2.0709 -1.5249  0.3100
  168MOL0     H22624   5.598   1.301   8.925  1.1413 -0.9463 -3.6033
  168MOL0     H22625   5.353   1.216   8.986  0.0944 -0.2511 -0.4403
  168MOL0     H22626   5.433   1.325   9.092  2.5040  1.8429 -1.1066
  168MOL0     H22627   5.304   1.512   9.023  1.1699 -0.2857 -0.9656
  168MOL0     H22628   5.240   1.424   8.878  0.1106 -2.2080 -0.1010
  168MOL0     H22629   5.059   1.416   9.016 -0.3763 -0.7236 -0.4080
  168MOL0     H22630   5.142   1.392   9.168 -1.2321  1.8594 -0.5488
  168MOL0     H22631   5.034   1.237   8.835  2.3870  0.8430  0.2582
  168MOL0     H22632   4.867   0.906   8.934  0.0360  0.0657 -0.1635
  168MOL0     H22633   4.866   1.008   8.797  1.6841 -1.2274 -2.7360
  168MOL0     H22634   5.058   0.794   8.897  2.1577  0.1695 -0.9283
  168MOL0     H22635   5.080   0.904   8.742 -2.7515  1.0967 -2.0338
  168MOL0     H22636   4.894   0.666   8.793 -2.2781  1.5797 -0.0805
  168MOL0     H22637   5.019   0.676   8.681  1.3198 -0.2743  0.8702
  168MOL0     H22638   4.838   0.732   8.528 -0.7253 -0.4860  0.5421
  168MOL0     H22639   4.886   0.883   8.565  0.8705 -1.0140 -0.4624
  168MOL0     H22640   4.613   0.707   8.461  0.3265  0.6732  0.5431
  168MOL0     H22641   4.506   0.548   8.365  0.5754 -0.2333  0.5263
  168MOL0     H22642   4.385   0.446   8.442 -2.6795  1.0292  1.0008
  168MOL0     H22643   4.340   0.591   8.344 -1.9753 -0.9601 -0.1867
  168MOL0     H22644   4.176   0.275   8.734 -1.1672 -1.5002 -0.0468
  168MOL0     H22645   4.006   0.118   8.698 -0.5348 -0.0725 -0.7820
  168MOL0     H22646   3.597   0.265   8.855  1.7197 -0.5047  1.0077
  168MOL0     H22647   3.573   0.258   8.669 -1.3303 -1.0346 -0.4025
  168MOL0     H22648   3.565   0.004   8.692  0.6019  1.1179 -0.1685
  168MOL0     H22649   3.570   0.026   8.874 -1.5027  1.5161  2.0712
  168MOL0     H22650   3.365   0.186   8.816  1.9743  0.7671  0.3528
  168MOL0     H22651   3.346   0.016   8.855  0.3270  0.5525  1.5930
  168MOL0     H22652   3.383   0.110   8.564 -0.3539  0.2522 -0.1686
  168MOL0     H22653   3.339  -0.048   8.626 -2.7974 -1.4165  2.0709
  168MOL0     H22654   3.133   0.097   8.535  2.7686 -0.8775 -1.8797
  168MOL0     H22655   3.171   0.208   8.659  0.3515 -0.9096  2.6223
  168MOL0     H22656   3.068   0.074   8.826 -2.5049 -1.7965 -0.0141
  168MOL0     H22657   2.982   0.112   8.683 -1.3480 -1.1732  0.1079
  168MOL0     H22658   3.129  -0.161   8.725 -2.3122 -2.4555 -0.3429
  168MOL0     H22659   3.014  -0.119   8.594  0.9789 -3.9096 -0.1510
  168MOL0     H22660   2.938  -0.128   8.879 -1.3970 -0.4526  0.1340
  168MOL0     H22661   2.904  -0.263   8.772 -4.0158  1.0906  0.1416
  168MOL0     H22662   3.725   0.432   8.803 -0.1084 -1.1387 -0.7405
  168MOL0     H22663   3.908   0.592   8.811 -0.9436  1.0044 -2.8391
  168MOL0     H22664   4.332   0.700   8.867 -1.9015  1.9061 -2.0177
  168MOL0     H22665   4.560   0.802   8.881  1.5718  1.7529 -2.1334
  168MOL0     H22666   6.009   1.805   9.044 -1.3980 -1.2180 -1.0234
  168MOL0     H22667   6.150   1.957   9.165 -0.1561  1.0900  0.7185
  168MOL0     H22668   6.071   2.506   9.380 -0.5577 -1.9987 -0.8354
  168MOL0     H22669   6.215   2.655   9.533  0.8358  0.6336  3.1031
  168MOL0     H22670   6.418   2.757   9.653  1.5978 -1.5035  0.1217
  168MOL0     H22671   6.278   2.739   9.753 -0.4333 -1.0709  1.5460
  168MOL0     H22672   6.565   2.753   9.816 -0.1872  3.6578  1.5303
  168MOL0     H22673   6.479   2.635   9.911  3.8726  1.4048  0.9733
  168MOL0     H22674   6.303   2.817   9.971  0.0950  0.1683  2.0551
  168MOL0     H22675   6.416   2.932   9.900  0.0018  0.6461  1.9556
  168MOL0     H22676   6.496   2.756  10.131  1.3670  0.8374  0.1980
  168MOL0     H22677   6.452   2.919  10.143 -0.6119 -1.6874  1.8987
  168MOL0     H22678   6.854   2.866   9.975  0.0039 -2.8817 -1.0893
  168MOL0     H22679   6.372   2.295   9.710 -3.2937 -0.2356  2.7272
  168MOL0     H22680   6.242   2.162   9.562 -1.1165 -0.0198  1.6456
  169MOL0     O22681   2.081  11.245   3.007  0.4549  0.5330 -0.0541
  169MOL0     C22682   2.001  11.219   2.915  0.7785 -0.3379  0.0448
  169MOL0     O22683   2.023  11.136   2.809 -0.2317  0.2583  0.1495
  169MOL0     C22684   2.151  11.121   2.769  0.0472 -0.0378 -0.1979
  169MOL0     C22685   2.194  11.188   2.658  0.1033 -0.7563 -0.6231
  169MOL0     C22686   2.328  11.175   2.611 -0.5680  0.2593 -0.4536
  169MOL0     C22687   2.419  11.097   2.686  0.4646  0.3940  0.5724
  169MOL0     O22688   2.538  11.065   2.630  0.3960 -0.0159  0.6544
  169MOL0     C22689   2.665  11.067   2.705 -0.0881 -0.6137  1.4282
  169MOL0     C22690   2.774  11.001   2.616 -0.2392 -0.4305  1.1303
  169MOL0     C22691   2.812  11.091   2.495  1.3648 -0.1186 -0.0745
  169MOL0     C22692   2.938  11.033   2.431  0.7567  1.1228 -0.9394
  169MOL0     C22693   3.079  11.043   2.504  0.6673  0.4966 -0.3336
  169MOL0     C22694   3.090  11.171   2.582 -0.2133 -0.1961 -0.7234
  169MOL0     C22695   3.222  11.200   2.654 -0.0566 -0.5358  1.2865
  169MOL0     C22696   3.355  11.198   2.567  0.3929  0.5066 -0.2108
  169MOL0     N22697   3.348  11.277   2.441 -0.5525  0.1633  0.2278
  169MOL0     C22698   3.349  11.209   2.314  0.1053  0.3753  0.2548
  169MOL0     C22699   3.387  11.303   2.228 -0.2260  0.0230 -0.1764
  169MOL0     C22700   3.399  11.272   2.081  0.3734  1.1459  0.0097
  169MOL0     C22701   3.267  11.296   2.003  0.1152 -0.1724 -0.2395
  169MOL0     C22702   3.149  11.224   2.069  0.0094  0.9512  0.5021
  169MOL0     C22703   3.030  11.217   1.978  0.6235  0.2125 -0.8100
  169MOL0     O22704   2.982  11.352   1.986  0.4946  0.1115  0.0463
  169MOL0     C22705   2.877  11.392   1.909  0.4391 -0.6205 -0.0085
  169MOL0     C22706   2.819  11.318   1.807  0.3160 -0.0721 -0.5881
  169MOL0     C22707   2.723  11.370   1.723  0.8263 -0.6147  0.0716
  169MOL0     C22708   2.661  11.272   1.631  0.8474 -1.0799 -0.8286
  169MOL0     C22709   2.681  11.506   1.751 -0.1282 -0.0603 -0.4443
  169MOL0     C22710   2.565  11.571   1.687 -0.2500  0.0677  0.4540
  169MOL0     O22711   2.584  11.706   1.652 -0.9711 -0.3584 -0.2407
  169MOL0     C22712   2.482  11.797   1.627 -0.5806  0.6098  0.0699
  169MOL0     C22713   2.505  11.894   1.527  0.5391  0.1938  0.4772
  169MOL0     C22714   2.395  11.974   1.475 -0.5764  0.1493 -0.2595
  169MOL0     C22715   2.262  11.966   1.519 -0.0403 -0.5048  0.6042
  169MOL0     O22716   2.161  12.040   1.451  0.5776  0.3085 -0.4953
  169MOL0     C22717   2.026  11.993   1.469  0.4656  0.0134 -0.2240
  169MOL0     C22718   1.931  12.041   1.350 -0.8967  0.1787  0.2701
  169MOL0     C22719   1.924  12.198   1.332 -0.3937  0.0164 -0.1785
  169MOL0     C22720   1.774  12.234   1.307 -0.4205 -0.0704  0.7098
  169MOL0     C22721   1.752  12.379   1.257 -0.1559  0.0739 -0.1246
  169MOL0     C22722   1.606  12.405   1.212  0.1442 -0.1539  0.9598
  169MOL0     C22723   1.591  12.540   1.141 -0.1917  0.0251 -0.7700
  169MOL0     C22724   1.439  12.557   1.101 -0.5442 -0.6102  0.7462
  169MOL0    Cl22725   1.428  12.681   0.987 -0.2750 -0.1232  0.1634
  169MOL0     C22726   2.248  11.879   1.630  0.4509 -0.4439 -0.0108
  169MOL0     C22727   2.350  11.791   1.676 -0.2178 -0.2474  1.3859
  169MOL0     O22728   2.462  11.501   1.670 -0.1276  0.2384 -0.1616
  169MOL0     C22729   2.740  11.572   1.860 -0.3497 -0.2991  0.7043
  169MOL0     C22730   2.825  11.509   1.939  0.3740 -0.8171 -0.8681
  169MOL0     N22731   3.421  11.418   2.294  0.5573  0.2949 -0.1060
  169MOL0     N22732   3.405  11.404   2.420 -0.1713  0.0501  0.3163
  169MOL0     C22733   2.377  11.031   2.807 -0.4887  0.4237 -0.0208
  169MOL0     C22734   2.242  11.041   2.842  0.3035  0.3478 -0.3592
  169MOL0     C22735   1.876  11.289   2.926  1.3404 -0.3402  0.2564
  169MOL0     C22736   1.752  11.219   2.898 -0.2764  0.2770 -0.5861
  169MOL0     C22737   1.637  11.299   2.914  0.4876 -0.1322  0.2313
  169MOL0     C22738   1.633  11.435   2.944 -0.4987 -0.3693  0.4682
  169MOL0     O22739   1.520  11.523   2.945 -0.0835  0.4077  0.8636
  169MOL0     C22740   1.392  11.482   2.902 -1.1421 -0.4567  0.0679
  169MOL0     C22741   1.294  11.598   2.884 -0.2933  0.0030 -0.2622
  169MOL0     C22742   1.324  11.697   2.770  0.5132 -0.4909  0.3300
  169MOL0     C22743   1.431  11.800   2.809 -0.8086  0.4099 -0.0034
  169MOL0     C22744   1.467  11.899   2.704 -0.0624  0.5454 -0.5679
  169MOL0     C22745   1.486  11.974   2.613 -0.8057  0.0672  0.3838
  169MOL0     C22746   1.758  11.494   2.980  0.0216  0.0189  0.3185
  169MOL0     C22747   1.876  11.419   2.973  0.1539 -0.0192 -0.0318
  169MOL0     H22748   2.122  11.254   2.613 -0.8414 -0.8936  0.6603
  169MOL0     H22749   2.340  11.233   2.519  0.3322  0.3374 -0.2977
  169MOL0     H22750   2.689  11.168   2.740 -0.2893  0.8207 -2.1610
  169MOL0     H22751   2.649  11.002   2.792  0.7805 -2.6917  0.1254
  169MOL0     H22752   2.863  10.987   2.679  0.6594 -3.9969 -0.7263
  169MOL0     H22753   2.738  10.904   2.581 -1.7929  0.0984  1.1863
  169MOL0     H22754   2.731  11.087   2.421  1.0012 -2.7169  0.3791
  169MOL0     H22755   2.829  11.192   2.532 -0.7123 -0.7150  2.8240
  169MOL0     H22756   2.921  10.926   2.421 -0.7077  1.3742 -1.3579
  169MOL0     H22757   2.946  11.079   2.332  0.2421  0.1023 -1.4689
  169MOL0     H22758   3.109  10.957   2.564 -0.8475  0.4143  0.3463
  169MOL0     H22759   3.157  11.050   2.427  1.1683  3.6834  0.3369
  169MOL0     H22760   3.073  11.255   2.514  1.1131  0.3581 -0.4098
  169MOL0     H22761   3.012  11.165   2.659  0.1586  3.5743  0.1596
  169MOL0     H22762   3.219  11.300   2.697  0.1522 -0.0431  0.1898
  169MOL0     H22763   3.224  11.132   2.740 -0.9902  1.2916  2.8255
  169MOL0     H22764   3.371  11.092   2.542 -1.7259 -0.1968  1.1106
  169MOL0     H22765   3.436  11.238   2.628  1.0921  0.4476 -1.0666
  169MOL0     H22766   3.310  11.113   2.280  1.4168  0.2957 -1.1144
  169MOL0     H22767   3.474  11.346   2.053  0.7042  1.5610  1.8566
  169MOL0     H22768   3.440  11.170   2.079  2.2436  1.7675  1.9280
  169MOL0     H22769   3.272  11.265   1.898  0.0809  3.6167 -1.4944
  169MOL0     H22770   3.250  11.403   1.993  3.9263  0.7068  1.0642
  169MOL0     H22771   3.121  11.274   2.162 -0.7124 -0.1737  0.9107
  169MOL0     H22772   3.187  11.126   2.098 -1.1944  0.7207  1.3651
  169MOL0     H22773   2.967  11.144   2.030  1.9613  0.9016  2.0163
  169MOL0     H22774   3.071  11.197   1.879  1.2485  0.7713 -0.6769
  169MOL0     H22775   2.862  11.219   1.799  2.6296  0.6495  1.4760
  169MOL0     H22776   2.744  11.211   1.593  0.4767 -1.1175 -1.5868
  169MOL0     H22777   2.594  11.214   1.695  0.1602  1.2598  0.7068
  169MOL0     H22778   2.603  11.324   1.554 -0.4963  1.4732  1.7104
  169MOL0     H22779   2.601  11.911   1.479 -1.4125 -0.4829 -4.1998
  169MOL0     H22780   2.422  12.048   1.400  3.4907 -2.1901 -1.4097
  169MOL0     H22781   2.008  11.886   1.484 -1.8061  0.3755 -0.0467
  169MOL0     H22782   1.989  12.038   1.562  1.3720 -1.3866  0.8776
  169MOL0     H22783   1.952  11.996   1.253  2.5434 -2.5677  2.0542
  169MOL0     H22784   1.834  12.003   1.384 -0.0183 -1.4590  0.9953
  169MOL0     H22785   1.986  12.238   1.250  0.1765  0.0018  0.2383
  169MOL0     H22786   1.963  12.243   1.424 -0.4669 -2.3460  1.0957
  169MOL0     H22787   1.735  12.162   1.234  0.7600  1.8766 -2.0220
  169MOL0     H22788   1.718  12.220   1.400 -3.8321 -3.5485 -1.5590
  169MOL0     H22789   1.805  12.379   1.162  0.9918 -0.0724  0.5052
  169MOL0     H22790   1.786  12.450   1.334 -0.4876 -3.3924  3.5754
  169MOL0     H22791   1.589  12.329   1.135  1.7106  1.1286 -0.7476
  169MOL0     H22792   1.530  12.387   1.288  0.9920 -0.3078  1.7914
  169MOL0     H22793   1.660  12.546   1.058  0.3870 -3.8341 -0.7521
  169MOL0     H22794   1.618  12.619   1.212 -3.1784 -0.0502  0.6260
  169MOL0     H22795   1.380  12.584   1.189  0.1570  2.2135  0.4691
  169MOL0     H22796   1.414  12.458   1.061 -2.4156 -0.2137  0.8791
  169MOL0     H22797   2.147  11.883   1.672  1.0947  1.7264  1.5057
  169MOL0     H22798   2.324  11.714   1.748 -2.2242 -1.7524 -0.7883
  169MOL0     H22799   2.700  11.669   1.889 -2.5871 -1.1562  0.6676
  169MOL0     H22800   2.862  11.570   2.020  0.6434  0.6491 -2.0504
  169MOL0     H22801   2.443  10.966   2.863 -0.6543 -0.2122 -0.5511
  169MOL0     H22802   2.211  10.978   2.925 -1.2486 -0.9718 -1.8740
  169MOL0     H22803   1.762  11.117   2.863  1.7178 -1.0400  3.2145
  169MOL0     H22804   1.548  11.241   2.895  0.1185  0.6530 -0.5029
  169MOL0     H22805   1.416  11.430   2.808  1.4972 -1.8195  1.3731
  169MOL0     H22806   1.360  11.399   2.965 -2.3128 -0.5103 -0.5697
  169MOL0     H22807   1.297  11.660   2.975  1.5208  0.4335 -0.5853
  169MOL0     H22808   1.193  11.558   2.867  0.5679 -2.2396 -0.3453
  169MOL0     H22809   1.229  11.751   2.759  2.4309  3.1134 -0.1310
  169MOL0     H22810   1.369  11.654   2.680  2.2956  2.1787 -0.1820
  169MOL0     H22811   1.527  11.749   2.803 -1.3951 -0.8948  1.1804
  169MOL0     H22812   1.424  11.856   2.903  0.1450  2.5386 -1.1386
  169MOL0     H22813   1.494  12.052   2.540 -1.3620 -0.2008  0.0329
  169MOL0     H22814   1.753  11.590   3.030  1.1943 -0.8812  2.3174
  169MOL0     H22815   1.971  11.449   3.016  0.7373 -3.7096  1.6609
  170MOL0     O22816   0.037   2.848   3.621  0.2228 -0.5200  0.1933
  170MOL0     C22817   0.009   2.806   3.506 -0.1974  0.1521 -0.1805
  170MOL0     O22818  -0.062   2.696   3.480 -0.1177  0.4482 -0.6102
  170MOL0     C22819  -0.115   2.622   3.587 -0.1283 -1.5163 -0.1517
  170MOL0     C22820  -0.101   2.485   3.581 -0.3864  0.4709  0.4846
  170MOL0     C22821  -0.168   2.399   3.675 -0.3339  0.4152 -0.3810
  170MOL0     C22822  -0.241   2.453   3.790 -1.1476 -0.7729  0.6040
  170MOL0     O22823  -0.300   2.386   3.893 -0.1748 -0.3635 -0.6343
  170MOL0     C22824  -0.330   2.241   3.871 -0.3096  0.1251 -0.6282
  170MOL0     C22825  -0.436   2.180   3.964  0.3983 -0.5931 -0.5694
  170MOL0     C22826  -0.553   2.285   3.989  0.0563  0.2990 -0.2155
  170MOL0     C22827  -0.680   2.214   4.046 -0.3568  0.5664 -0.0526
  170MOL0     C22828  -0.790   2.313   4.095 -0.5664  0.6260  0.0328
  170MOL0     C22829  -0.910   2.230   4.140 -0.8620  0.2693 -0.9798
  170MOL0     C22830  -1.029   2.320   4.169  0.8560 -0.2242  0.2875
  170MOL0     C22831  -1.155   2.231   4.184  1.3693  0.1807 -0.7440
  170MOL0     N22832  -1.201   2.190   4.055  0.0160 -0.2976  0.1677
  170MOL0     C22833  -1.282   2.268   3.975  0.3153  0.0938 -0.0842
  170MOL0     C22834  -1.342   2.186   3.888 -0.6861  0.3729 -0.4363
  170MOL0     C22835  -1.446   2.224   3.789 -0.0243  0.0576  0.0107
  170MOL0     C22836  -1.558   2.320   3.845  0.1358 -0.7291 -0.1742
  170MOL0     C22837  -1.664   2.354   3.735  0.2242  0.2074 -0.2315
  170MOL0     C22838  -1.755   2.474   3.777  0.2386  0.6646 -0.9743
  170MOL0     O22839  -1.847   2.422   3.877  0.5079  0.5096 -0.9347
  170MOL0     C22840  -1.988   2.409   3.861 -0.0882 -0.9475  0.9051
  170MOL0     C22841  -2.064   2.364   3.971 -0.6154 -0.0587 -0.5384
  170MOL0     C22842  -2.205   2.332   3.960 -0.6354 -1.0651 -0.2382
  170MOL0     C22843  -2.265   2.278   4.085 -0.1468  0.1421  0.0470
  170MOL0     C22844  -2.273   2.364   3.842  0.3486 -0.1611  0.1762
  170MOL0     C22845  -2.421   2.353   3.825  0.6474  0.7440 -0.4306
  170MOL0     O22846  -2.472   2.416   3.717 -0.1757 -0.4322 -0.2175
  170MOL0     C22847  -2.602   2.420   3.674 -0.6187  0.4870 -0.8479
  170MOL0     C22848  -2.704   2.341   3.727  0.4129  0.1791  0.3850
  170MOL0     C22849  -2.828   2.343   3.667  0.1899 -0.3992  1.0503
  170MOL0     C22850  -2.854   2.428   3.557 -0.6684 -0.6181 -0.1742
  170MOL0     O22851  -2.977   2.422   3.495 -1.1218  0.2419 -0.4913
  170MOL0     C22852  -3.060   2.535   3.528  0.4610 -0.0230  0.0377
  170MOL0     C22853  -3.116   2.521   3.673 -0.1698  0.4461 -0.0889
  170MOL0     C22854  -3.195   2.392   3.692  0.0823 -0.2516  0.3676
  170MOL0     C22855  -3.252   2.384   3.830 -1.3305 -0.6605 -0.8607
  170MOL0     C22856  -3.380   2.293   3.829 -0.0732  0.5548 -0.4930
  170MOL0     C22857  -3.413   2.271   3.977  0.0876 -0.0408  0.1838
  170MOL0     C22858  -3.555   2.207   3.998 -0.1403 -0.3747  0.5947
  170MOL0     C22859  -3.582   2.193   4.148 -0.2667  0.0239 -0.3776
  170MOL0    Cl22860  -3.464   2.087   4.241 -0.9371  0.2001  0.2503
  170MOL0     C22861  -2.756   2.517   3.507  0.2463  0.4362 -0.0318
  170MOL0     C22862  -2.630   2.508   3.563 -0.5224  0.4799 -0.3159
  170MOL0     O22863  -2.485   2.288   3.902  0.2749  0.0525  0.4286
  170MOL0     C22864  -2.192   2.413   3.732 -0.0510  0.5801 -0.5094
  170MOL0     C22865  -2.056   2.433   3.744  0.6708 -0.6010 -0.3398
  170MOL0     N22866  -1.304   2.056   3.912  0.7392  0.1333  0.1553
  170MOL0     N22867  -1.206   2.060   4.009  0.5654 -0.1765  0.4054
  170MOL0     C22868  -0.251   2.593   3.788  0.1870  0.5280 -0.4544
  170MOL0     C22869  -0.195   2.677   3.689  0.4003 -0.0630 -0.8983
  170MOL0     C22870   0.083   2.877   3.393 -0.0013 -0.0385  0.0589
  170MOL0     C22871   0.106   2.812   3.271 -0.8734  0.5096 -0.4632
  170MOL0     C22872   0.172   2.882   3.173  0.2941 -0.2044  0.2459
  170MOL0     C22873   0.213   3.015   3.192  0.4980  0.3157 -0.4448
  170MOL0     O22874   0.285   3.067   3.087 -0.1341  0.2146  1.0098
  170MOL0     C22875   0.290   3.215   3.079  0.0523  0.0963  0.1780
  170MOL0     C22876   0.425   3.260   3.141  0.2954 -0.7356 -0.3319
  170MOL0     C22877   0.547   3.187   3.084 -0.0740 -0.0279  0.3617
  170MOL0     C22878   0.686   3.214   3.153  1.1221 -0.6316 -0.4081
  170MOL0     C22879   0.748   3.345   3.108 -0.4633 -0.7359 -0.2425
  170MOL0     C22880   0.788   3.453   3.079 -0.1051 -0.4689  0.0714
  170MOL0     C22881   0.191   3.079   3.317  0.3462  0.3778 -0.2524
  170MOL0     C22882   0.122   3.011   3.412  0.3769 -0.2824 -0.2016
  170MOL0     H22883  -0.056   2.436   3.495 -0.4492  2.3628 -0.6807
  170MOL0     H22884  -0.158   2.292   3.664  0.7406  0.3941  0.6006
  170MOL0     H22885  -0.359   2.228   3.766  0.0470 -2.6753 -0.4565
  170MOL0     H22886  -0.239   2.182   3.887  0.5575  1.5422 -0.1282
  170MOL0     H22887  -0.479   2.090   3.920 -4.2587 -0.1826  2.4388
  170MOL0     H22888  -0.390   2.163   4.063  0.4829  0.0546 -0.4923
  170MOL0     H22889  -0.521   2.362   4.060 -0.5259  2.3929 -2.1000
  170MOL0     H22890  -0.585   2.343   3.902 -1.1034  2.5498  1.5989
  170MOL0     H22891  -0.714   2.141   3.972  0.7448  1.1614 -1.1692
  170MOL0     H22892  -0.645   2.156   4.133 -0.0676  2.8036  1.4105
  170MOL0     H22893  -0.764   2.379   4.178 -2.3635  2.0983 -0.5051
  170MOL0     H22894  -0.808   2.363   3.999 -0.5130 -1.1493 -0.9589
  170MOL0     H22895  -0.939   2.155   4.066  0.9724 -0.6495 -0.8150
  170MOL0     H22896  -0.871   2.181   4.230  3.7985  2.7270 -1.3832
  170MOL0     H22897  -1.017   2.380   4.259 -0.1862 -0.8500  0.8713
  170MOL0     H22898  -1.034   2.387   4.083  1.8065  0.0323  0.4200
  170MOL0     H22899  -1.227   2.295   4.236  0.3781 -0.9123 -0.7300
  170MOL0     H22900  -1.135   2.141   4.243 -1.5466 -1.3454 -1.8432
  170MOL0     H22901  -1.299   2.375   3.984  1.4389  0.1975  1.1555
  170MOL0     H22902  -1.400   2.268   3.699  0.2032  3.0948  1.4849
  170MOL0     H22903  -1.493   2.132   3.753  1.5637  0.4897 -3.6972
  170MOL0     H22904  -1.510   2.409   3.886 -0.3453 -1.6038  2.4521
  170MOL0     H22905  -1.610   2.279   3.931 -1.0619  0.5808 -0.2451
  170MOL0     H22906  -1.722   2.262   3.724 -0.8277  0.5374  2.0212
  170MOL0     H22907  -1.610   2.376   3.642  0.8496  1.0260  0.3061
  170MOL0     H22908  -1.812   2.510   3.690 -0.7660 -0.5143 -0.8335
  170MOL0     H22909  -1.693   2.555   3.816 -1.2994  1.8772 -0.9542
  170MOL0     H22910  -2.005   2.326   4.053  0.1741  2.7524  0.3186
  170MOL0     H22911  -2.308   2.181   4.057 -1.3463  0.8956 -0.8258
  170MOL0     H22912  -2.194   2.263   4.167  0.6731 -0.5861 -0.7755
  170MOL0     H22913  -2.357   2.335   4.102 -0.6485 -0.2864 -1.1764
  170MOL0     H22914  -2.680   2.258   3.792  1.0802 -1.2054 -1.5323
  170MOL0     H22915  -2.910   2.278   3.695 -2.1950  1.4967 -0.9326
  170MOL0     H22916  -3.015   2.633   3.514 -0.7906  0.6180  0.2844
  170MOL0     H22917  -3.146   2.536   3.460  0.9457  1.3194 -0.5850
  170MOL0     H22918  -3.042   2.522   3.754 -0.4684  0.8068  0.1822
  170MOL0     H22919  -3.185   2.605   3.685 -2.3150 -1.2738  0.2633
  170MOL0     H22920  -3.127   2.308   3.676  4.6948  3.1659 -0.0890
  170MOL0     H22921  -3.266   2.400   3.609  1.7533  0.5209 -1.0566
  170MOL0     H22922  -3.177   2.356   3.904 -0.0510  0.6276 -1.5943
  170MOL0     H22923  -3.274   2.489   3.854  1.5263  0.6832 -3.3527
  170MOL0     H22924  -3.351   2.198   3.784  2.9530 -0.6250  3.4473
  170MOL0     H22925  -3.465   2.353   3.794  1.4628  2.4862 -1.0907
  170MOL0     H22926  -3.336   2.205   4.017 -0.2132 -0.0801  0.7071
  170MOL0     H22927  -3.405   2.367   4.029  0.5843 -1.4846  2.9382
  170MOL0     H22928  -3.558   2.107   3.953 -1.0727 -1.2625  2.5316
  170MOL0     H22929  -3.628   2.274   3.952  0.3313  1.1084  1.9129
  170MOL0     H22930  -3.677   2.141   4.162  0.8308 -1.2885  3.6783
  170MOL0     H22931  -3.596   2.286   4.204 -2.5072 -0.1499 -0.5606
  170MOL0     H22932  -2.778   2.591   3.431 -1.4179  1.5022  1.4244
  170MOL0     H22933  -2.544   2.556   3.517 -0.8220  2.0879  0.6954
  170MOL0     H22934  -2.239   2.430   3.635  1.3827  0.2344 -1.2965
  170MOL0     H22935  -2.000   2.467   3.658  0.7291 -0.0939 -0.1043
  170MOL0     H22936  -0.308   2.618   3.877 -0.0601  0.1087 -0.4911
  170MOL0     H22937  -0.232   2.777   3.709 -2.5297 -1.6134  2.5735
  170MOL0     H22938   0.070   2.712   3.247 -0.6658  0.2701  0.1942
  170MOL0     H22939   0.196   2.846   3.073 -2.1056  0.1305 -0.5256
  170MOL0     H22940   0.292   3.256   2.978 -0.2372  0.4567  0.3159
  170MOL0     H22941   0.202   3.257   3.129  1.0029  0.1163  1.9085
  170MOL0     H22942   0.431   3.240   3.249  0.9640 -2.6657 -0.6739
  170MOL0     H22943   0.430   3.367   3.123  0.5217 -0.5550  0.7267
  170MOL0     H22944   0.547   3.213   2.978 -1.0432  1.7746  0.7676
  170MOL0     H22945   0.536   3.078   3.080  0.1683 -0.0554  0.3978
  170MOL0     H22946   0.761   3.138   3.133  2.7571  0.6553  0.6197
  170MOL0     H22947   0.661   3.207   3.259  1.5049  0.7165 -0.2147
  170MOL0     H22948   0.820   3.550   3.048 -4.0897  0.1529 -2.8329
  170MOL0     H22949   0.226   3.181   3.331  1.8725 -0.3033  1.2212
  170MOL0     H22950   0.102   3.061   3.506 -3.4618  0.6717 -1.3563
  171MOL0     O22951   4.483   8.670   9.676  0.9822 -0.3350 -0.0246
  171MOL0     C22952   4.496   8.745   9.582  0.4387 -0.0561  0.7355
  171MOL0     O22953   4.432   8.742   9.455  0.7311 -0.1583 -0.1990
  171MOL0     C22954   4.340   8.647   9.431  0.9644 -0.7077  0.2276
  171MOL0     C22955   4.336   8.615   9.301  0.2174 -0.5660 -0.0536
  171MOL0     C22956   4.256   8.503   9.265 -0.4158 -1.0713 -0.0497
  171MOL0     C22957   4.175   8.428   9.349  0.3235  0.6574 -0.1417
  171MOL0     O22958   4.118   8.321   9.298 -0.6309 -0.5361  1.5483
  171MOL0     C22959   4.002   8.358   9.215 -0.0719 -0.9222  0.4656
  171MOL0     C22960   3.884   8.286   9.274 -0.1226 -0.7899 -0.7810
  171MOL0     C22961   3.757   8.300   9.187 -1.1946 -0.2410  0.1751
  171MOL0     C22962   3.645   8.233   9.257 -0.0612  0.0707  0.6315
  171MOL0     C22963   3.511   8.228   9.188  0.9100 -0.9045  0.6944
  171MOL0     C22964   3.449   8.363   9.174  0.7870 -0.6145 -0.4400
  171MOL0     C22965   3.322   8.375   9.086  0.1890 -0.3222  0.8482
  171MOL0     C22966   3.215   8.276   9.115  0.0239  0.3083 -0.0162
  171MOL0     N22967   3.098   8.278   9.024 -0.4429  0.1624 -0.5087
  171MOL0     C22968   2.988   8.338   9.059  0.8143 -0.1258  0.9194
  171MOL0     C22969   2.901   8.327   8.950  0.2291  0.4051  0.0614
  171MOL0     C22970   2.760   8.376   8.928  0.1009  0.5106 -0.4967
  171MOL0     C22971   2.653   8.300   9.014 -0.0792  0.5818 -0.3919
  171MOL0     C22972   2.627   8.360   9.156  0.4769 -0.2868  0.1236
  171MOL0     C22973   2.540   8.489   9.150  0.2608 -0.4051  0.3927
  171MOL0     O22974   2.514   8.548   9.279 -0.1308 -0.9576  0.0477
  171MOL0     C22975   2.435   8.654   9.277  0.9578 -1.0974  0.8359
  171MOL0     C22976   2.425   8.754   9.179 -0.8591 -0.0453 -0.1221
  171MOL0     C22977   2.335   8.866   9.176 -0.6709 -0.5378 -0.9053
  171MOL0     C22978   2.316   8.946   9.048 -0.5180 -1.2063  0.1300
  171MOL0     C22979   2.249   8.877   9.293 -0.1588  0.5872 -0.1972
  171MOL0     C22980   2.160   8.993   9.332  0.6400 -0.0017  0.9237
  171MOL0     O22981   2.080   8.982   9.441 -0.1508 -0.3186 -0.4100
  171MOL0     C22982   1.992   9.083   9.478  0.0423  0.1614 -0.5179
  171MOL0     C22983   1.867   9.096   9.409  0.2640 -0.0918 -0.3399
  171MOL0     C22984   1.761   9.170   9.456 -0.4761 -0.3617 -0.1347
  171MOL0     C22985   1.785   9.265   9.559 -0.0470 -0.3098  0.4330
  171MOL0     O22986   1.678   9.335   9.613  0.1951  0.8659  0.0891
  171MOL0     C22987   1.537   9.300   9.571 -0.9307 -0.3245  0.1447
  171MOL0     C22988   1.440   9.366   9.671  0.2096  0.2913 -0.0709
  171MOL0     C22989   1.439   9.521   9.666  0.3168 -0.7293  0.3605
  171MOL0     C22990   1.420   9.584   9.528 -0.2803 -0.1321  0.1676
  171MOL0     C22991   1.406   9.743   9.539  0.1804  0.0434 -0.2813
  171MOL0     C22992   1.407   9.809   9.400 -0.0308  0.7423 -0.9070
  171MOL0     C22993   1.524   9.776   9.312 -0.5225 -0.5509  0.2406
  171MOL0     C22994   1.523   9.867   9.193  0.0368  0.3801 -0.1267
  171MOL0    Cl22995   1.650   9.838   9.071  0.4946 -0.6746 -0.1744
  171MOL0     C22996   1.924   9.276   9.610 -0.0974 -0.5523 -0.1518
  171MOL0     C22997   2.026   9.187   9.565 -0.5502 -0.3209 -0.7900
  171MOL0     O22998   2.167   9.091   9.252 -0.8828 -0.2492  0.0130
  171MOL0     C22999   2.256   8.775   9.393  0.2662  1.0769 -0.1499
  171MOL0     C23000   2.346   8.666   9.384  0.3504  0.0793 -0.2443
  171MOL0     N23001   2.975   8.252   8.855  0.1736 -0.2471  0.1604
  171MOL0     N23002   3.092   8.229   8.901 -0.0224 -0.0310 -0.1660
  171MOL0     C23003   4.180   8.466   9.482  0.7764  0.8886 -0.3168
  171MOL0     C23004   4.258   8.572   9.522 -0.0730  0.6014 -0.8000
  171MOL0     C23005   4.605   8.845   9.594  0.7369 -0.3956  0.3132
  171MOL0     C23006   4.602   8.961   9.512 -0.5605  0.6326  0.3596
  171MOL0     C23007   4.707   9.052   9.518 -0.2593  0.3505 -0.4016
  171MOL0     C23008   4.812   9.037   9.610  0.0050 -0.9405 -1.0693
  171MOL0     O23009   4.916   9.138   9.609  0.8555  0.0660 -0.5532
  171MOL0     C23010   5.002   9.148   9.730 -0.2034  0.2923  0.1892
  171MOL0     C23011   5.069   9.283   9.735 -0.6019 -0.2465 -0.3568
  171MOL0     C23012   4.961   9.390   9.720  0.0934 -0.1251  0.1874
  171MOL0     C23013   5.012   9.527   9.783 -0.1735  0.2543  0.3957
  171MOL0     C23014   4.917   9.645   9.756  0.2622 -0.9307  0.1799
  171MOL0     C23015   4.833   9.729   9.751  0.6120 -0.8514  0.0684
  171MOL0     C23016   4.816   8.921   9.692  0.1787  0.3699  0.4389
  171MOL0     C23017   4.713   8.829   9.681 -0.2312 -0.1243  0.1311
  171MOL0     H23018   4.402   8.660   9.227  1.8529 -2.0506  0.4458
  171MOL0     H23019   4.246   8.482   9.159 -1.9517  0.2238 -0.1942
  171MOL0     H23020   3.995   8.467   9.214  2.7004 -0.6857 -0.8083
  171MOL0     H23021   4.003   8.318   9.113 -0.6566  0.2685 -0.0381
  171MOL0     H23022   3.901   8.179   9.288  1.3545 -0.3774  0.7952
  171MOL0     H23023   3.857   8.335   9.368  3.7200  0.6600 -0.2861
  171MOL0     H23024   3.735   8.405   9.163  2.4278  0.1960 -2.2009
  171MOL0     H23025   3.781   8.245   9.095  0.6695  1.5604 -0.5063
  171MOL0     H23026   3.683   8.133   9.279  2.1412  0.2194 -2.0028
  171MOL0     H23027   3.631   8.284   9.353 -1.3675 -2.0497  1.6468
  171MOL0     H23028   3.519   8.180   9.089 -1.1817 -2.7295  1.3245
  171MOL0     H23029   3.448   8.158   9.244 -1.8683  1.8191  1.2451
  171MOL0     H23030   3.415   8.391   9.275  2.0205  0.2468 -0.2437
  171MOL0     H23031   3.518   8.434   9.128  0.3989  0.1706  0.1633
  171MOL0     H23032   3.280   8.476   9.088 -1.7324 -1.0875  1.3338
  171MOL0     H23033   3.351   8.361   8.981  0.1773  0.0927  0.7881
  171MOL0     H23034   3.184   8.292   9.219  1.1109 -0.8328  0.5040
  171MOL0     H23035   3.253   8.173   9.117  0.4590  0.4714  1.1404
  171MOL0     H23036   2.963   8.378   9.157 -0.8942  4.8034 -1.2137
  171MOL0     H23037   2.769   8.482   8.953 -2.0093  0.6454 -0.1620
  171MOL0     H23038   2.737   8.376   8.821  3.2287 -0.7095 -1.2855
  171MOL0     H23039   2.702   8.203   9.028  2.9502  2.0055 -0.2199
  171MOL0     H23040   2.557   8.294   8.962 -0.5492 -1.6328  0.6023
  171MOL0     H23041   2.724   8.386   9.200 -1.0346  1.8699  2.5120
  171MOL0     H23042   2.574   8.280   9.208  1.0934 -0.1120  1.0464
  171MOL0     H23043   2.444   8.470   9.101  0.1938  0.8431  0.0004
  171MOL0     H23044   2.586   8.558   9.078 -0.5931 -1.4979 -1.2475
  171MOL0     H23045   2.497   8.743   9.098 -0.9099 -0.3623 -0.1224
  171MOL0     H23046   2.342   9.052   9.059  2.1061 -1.7301 -0.3803
  171MOL0     H23047   2.376   8.908   8.966  0.3136  0.8513 -0.2647
  171MOL0     H23048   2.208   8.956   9.031 -0.7479  3.0206  2.4973
  171MOL0     H23049   1.843   9.022   9.333 -0.2298 -0.8072  0.4932
  171MOL0     H23050   1.663   9.161   9.410 -1.0067  0.5779  0.7776
  171MOL0     H23051   1.509   9.325   9.468 -2.7789 -2.1859  0.1259
  171MOL0     H23052   1.526   9.192   9.582  1.2469 -0.5531  0.4639
  171MOL0     H23053   1.341   9.328   9.648  0.2250  0.0043  0.3219
  171MOL0     H23054   1.471   9.335   9.771 -0.8413 -0.3470  0.0722
  171MOL0     H23055   1.531   9.565   9.705  0.1374  0.6544 -0.6842
  171MOL0     H23056   1.355   9.552   9.730  1.8669 -0.1269  2.1804
  171MOL0     H23057   1.502   9.568   9.457 -1.5081  0.7738 -1.5313
  171MOL0     H23058   1.332   9.539   9.481 -0.2790 -0.6703  0.6733
  171MOL0     H23059   1.468   9.789   9.618 -1.7815 -1.5783  2.3862
  171MOL0     H23060   1.312   9.767   9.589 -0.4598  0.1186 -1.5006
  171MOL0     H23061   1.318   9.776   9.345 -0.3056  1.2531 -0.7743
  171MOL0     H23062   1.405   9.918   9.406  2.4939  1.0928 -3.8640
  171MOL0     H23063   1.518   9.673   9.277 -0.3345 -0.9274  1.3030
  171MOL0     H23064   1.612   9.795   9.374 -2.0529  3.9971  1.4565
  171MOL0     H23065   1.535   9.970   9.227  1.3694  0.1941  0.0168
  171MOL0     H23066   1.428   9.853   9.140  0.0130 -0.9827  0.2420
  171MOL0     H23067   1.947   9.347   9.689 -1.5039 -0.0638 -0.1449
  171MOL0     H23068   2.127   9.186   9.606 -0.3730  1.3763 -1.1202
  171MOL0     H23069   2.214   8.781   9.493 -2.8746  1.0653 -1.3512
  171MOL0     H23070   2.334   8.594   9.465  1.8631 -1.0068 -0.9363
  171MOL0     H23071   4.115   8.418   9.555  0.5063 -0.3032 -1.3093
  171MOL0     H23072   4.250   8.597   9.628 -1.4725 -2.4755 -0.0643
  171MOL0     H23073   4.517   8.983   9.449 -0.5356  0.1810  0.1635
  171MOL0     H23074   4.709   9.145   9.462  2.2729 -0.8646 -2.5647
  171MOL0     H23075   4.938   9.143   9.818  2.8118  2.7948  2.8116
  171MOL0     H23076   5.075   9.067   9.729  1.8793  2.0296  1.0157
  171MOL0     H23077   5.131   9.303   9.647 -0.0244 -0.3591  0.0181
  171MOL0     H23078   5.123   9.306   9.827 -0.0907  0.9162 -0.9276
  171MOL0     H23079   4.875   9.357   9.780  0.8274 -0.8396  0.8818
  171MOL0     H23080   4.932   9.403   9.616  0.5619 -0.5798 -0.0054
  171MOL0     H23081   5.115   9.546   9.750  0.3084 -1.2965  0.9476
  171MOL0     H23082   5.014   9.517   9.892  2.4860  2.0199  0.6217
  171MOL0     H23083   4.757   9.805   9.752  1.2803 -0.1475 -0.9418
  171MOL0     H23084   4.901   8.904   9.759  1.0154  1.0514 -0.4191
  171MOL0     H23085   4.722   8.737   9.737 -1.1218  0.5087  1.3778
  172MOL0     O23086  10.327   5.630   6.611 -1.1286  0.1794  0.5168
  172MOL0     C23087  10.414   5.616   6.697 -0.8273 -0.0954 -0.6676
  172MOL0     O23088  10.405   5.642   6.829 -0.0372  0.1440 -0.1000
  172MOL0     C23089  10.285   5.672   6.881  0.0818 -0.4726 -0.3553
  172MOL0     C23090  10.224   5.804   6.892 -0.1553  0.8640 -0.5709
  172MOL0     C23091  10.100   5.823   6.943 -0.4786  0.4834  0.9486
  172MOL0     C23092  10.028   5.710   6.989  0.0194  0.5659  0.4555
  172MOL0     O23093   9.901   5.728   7.044  0.5730  0.0225  0.3968
  172MOL0     C23094   9.847   5.858   7.067 -0.2588  1.7308  0.6724
  172MOL0     C23095   9.715   5.844   7.133 -0.3012  0.1702  0.0215
  172MOL0     C23096   9.606   5.764   7.049 -0.9293 -0.3822  0.0606
  172MOL0     C23097   9.478   5.748   7.132  0.4365  0.7515 -0.0376
  172MOL0     C23098   9.392   5.881   7.148  0.5088  0.4897  0.6355
  172MOL0     C23099   9.273   5.842   7.237 -0.6723  0.0785  0.0996
  172MOL0     C23100   9.181   5.967   7.249 -0.8148 -0.5658 -1.0035
  172MOL0     C23101   9.083   5.969   7.373 -0.2452 -0.1236  0.3620
  172MOL0     N23102   8.974   5.876   7.349  0.4877  0.5079  0.0894
  172MOL0     C23103   8.945   5.751   7.410 -0.5802 -0.1252 -0.1072
  172MOL0     C23104   8.824   5.722   7.384  0.9460 -0.4213  0.4622
  172MOL0     C23105   8.771   5.583   7.416 -0.1199  0.5092 -0.4601
  172MOL0     C23106   8.659   5.544   7.320  0.4770 -0.0967  0.1025
  172MOL0     C23107   8.588   5.413   7.366  0.7969 -0.6497 -0.5506
  172MOL0     C23108   8.489   5.442   7.480 -0.8194  0.6789  0.4548
  172MOL0     O23109   8.420   5.314   7.505  0.0010  0.2329  0.0668
  172MOL0     C23110   8.292   5.317   7.554 -0.1818 -0.6730  0.1655
  172MOL0     C23111   8.231   5.190   7.557  0.1248  0.6186  0.7372
  172MOL0     C23112   8.097   5.174   7.592  0.3590  0.7265 -0.0493
  172MOL0     C23113   8.042   5.025   7.577 -0.2186  0.1517 -0.4201
  172MOL0     C23114   8.013   5.288   7.606 -0.5662 -0.1428  0.0613
  172MOL0     C23115   7.866   5.283   7.617 -0.0436 -0.2072  1.2158
  172MOL0     O23116   7.808   5.171   7.649 -0.3307 -1.0682  0.8663
  172MOL0     C23117   7.678   5.141   7.619  0.9189  0.2988 -0.2543
  172MOL0     C23118   7.597   5.216   7.533  0.2610  0.4900  0.2133
  172MOL0     C23119   7.461   5.181   7.516 -0.6048 -0.5870  0.0853
  172MOL0     C23120   7.407   5.070   7.579 -0.0595  0.9260 -0.1405
  172MOL0     O23121   7.287   5.034   7.536  0.8086  0.5311 -0.6206
  172MOL0     C23122   7.204   4.975   7.641  0.0075  0.1492  0.1444
  172MOL0     C23123   7.067   4.975   7.593  0.5837 -0.4595  0.4475
  172MOL0     C23124   7.005   5.108   7.568  0.0090  0.2845 -1.0009
  172MOL0     C23125   6.851   5.098   7.545  0.9318 -0.5508 -0.1959
  172MOL0     C23126   6.779   5.236   7.550 -0.1684 -0.5258  0.1779
  172MOL0     C23127   6.639   5.235   7.492  0.4954  0.8736 -0.1837
  172MOL0     C23128   6.576   5.368   7.501 -0.2406  0.5964 -0.7718
  172MOL0     C23129   6.415   5.376   7.497  0.1160 -0.4152  0.6060
  172MOL0    Cl23130   6.396   5.526   7.391 -0.2212 -0.4730 -0.2119
  172MOL0     C23131   7.485   4.997   7.673 -0.7791 -0.3253 -0.2178
  172MOL0     C23132   7.618   5.027   7.686  0.4582  0.7428  1.0552
  172MOL0     O23133   7.808   5.387   7.593 -0.2262 -0.1241 -0.3686
  172MOL0     C23134   8.074   5.417   7.595 -0.7684 -0.4283 -0.8294
  172MOL0     C23135   8.212   5.433   7.574 -0.8334 -0.6157  0.6328
  172MOL0     N23136   8.766   5.826   7.323 -0.2387  0.3482  0.1477
  172MOL0     N23137   8.854   5.916   7.305  0.1374 -0.0750  0.9676
  172MOL0     C23138  10.087   5.583   6.996  1.1644  0.2581  0.6849
  172MOL0     C23139  10.214   5.566   6.939  0.1550  0.1731 -0.5473
  172MOL0     C23140  10.544   5.563   6.643 -0.1952 -0.2034  0.3773
  172MOL0     C23141  10.578   5.567   6.505 -0.2095  1.3925  0.2462
  172MOL0     C23142  10.708   5.524   6.463  1.3883  0.0700  0.1733
  172MOL0     C23143  10.793   5.460   6.546  0.7451  0.6642  0.0798
  172MOL0     O23144  10.903   5.406   6.492 -0.0170  0.1993 -0.1268
  172MOL0     C23145  10.991   5.329   6.575  0.6915 -0.5994 -0.3087
  172MOL0     C23146  11.095   5.247   6.491  0.1498  0.7679 -0.3732
  172MOL0     C23147  11.020   5.123   6.435  0.2434 -0.5913 -0.3401
  172MOL0     C23148  11.117   5.019   6.375 -0.3340 -0.1713 -0.0080
  172MOL0     C23149  11.100   5.011   6.230 -0.2533 -0.1869  0.2752
  172MOL0     C23150  11.087   5.013   6.113 -0.1163 -1.3377 -0.9605
  172MOL0     C23151  10.759   5.457   6.685 -0.8292 -0.0824 -0.3082
  172MOL0     C23152  10.642   5.513   6.732 -0.0104  0.9239 -0.2911
  172MOL0     H23153  10.273   5.887   6.843 -0.4570 -0.5799 -3.4899
  172MOL0     H23154  10.055   5.922   6.942 -1.2295  0.2028  2.6631
  172MOL0     H23155   9.917   5.915   7.129  0.1765  1.8447  0.0890
  172MOL0     H23156   9.844   5.900   6.966 -0.6801 -1.2216 -0.6363
  172MOL0     H23157   9.723   5.798   7.232 -2.4719  2.1859  1.2131
  172MOL0     H23158   9.672   5.944   7.136 -2.0306 -0.3440 -3.2863
  172MOL0     H23159   9.575   5.812   6.955 -1.8568 -2.4030 -0.7345
  172MOL0     H23160   9.650   5.667   7.023  0.5241  0.5819 -1.2903
  172MOL0     H23161   9.421   5.666   7.087  1.0335  0.4377 -0.2381
  172MOL0     H23162   9.503   5.710   7.231 -1.5639 -0.4115  0.0600
  172MOL0     H23163   9.439   5.966   7.198  0.3282  0.7045  0.4408
  172MOL0     H23164   9.362   5.903   7.045 -0.3650  0.6379  0.9118
  172MOL0     H23165   9.225   5.753   7.194  0.3463  0.7875 -2.6656
  172MOL0     H23166   9.303   5.806   7.336 -1.3487 -1.7016 -0.2986
  172MOL0     H23167   9.242   6.058   7.257  0.4219 -1.4169 -0.4162
  172MOL0     H23168   9.120   5.978   7.160 -0.9802  1.0237 -0.7289
  172MOL0     H23169   9.040   6.068   7.392 -1.3155 -0.7358  1.2221
  172MOL0     H23170   9.128   5.940   7.469 -1.7570 -0.8963  0.8697
  172MOL0     H23171   9.018   5.694   7.467 -0.3559  0.1686 -0.0946
  172MOL0     H23172   8.851   5.509   7.411 -1.7688 -1.4412  0.4536
  172MOL0     H23173   8.725   5.576   7.515  0.0129 -1.1732 -0.4869
  172MOL0     H23174   8.698   5.534   7.218 -3.1946  0.3315 -1.4915
  172MOL0     H23175   8.580   5.619   7.313 -1.4800 -2.0436  0.3334
  172MOL0     H23176   8.665   5.342   7.398 -0.6213 -2.1257 -0.2484
  172MOL0     H23177   8.546   5.368   7.276  1.5565  2.4681 -2.6412
  172MOL0     H23178   8.418   5.521   7.454 -0.7852  0.1441 -1.4393
  172MOL0     H23179   8.538   5.485   7.568  1.1568  1.6258 -1.0158
  172MOL0     H23180   8.288   5.099   7.539 -2.0925 -1.1349  1.9983
  172MOL0     H23181   8.121   4.953   7.556 -2.2353 -1.7721 -1.9354
  172MOL0     H23182   8.005   4.983   7.671  0.8440 -4.6717 -1.8615
  172MOL0     H23183   7.978   5.031   7.488  1.9371 -0.2920 -2.0807
  172MOL0     H23184   7.640   5.297   7.476  0.1857  1.0792  0.9769
  172MOL0     H23185   7.389   5.236   7.456  1.4064 -2.0073 -4.0747
  172MOL0     H23186   7.242   4.874   7.659 -0.3345  0.3583  2.2665
  172MOL0     H23187   7.211   5.030   7.735  1.6621  0.0905  0.0815
  172MOL0     H23188   7.056   4.933   7.493 -1.6561  0.5458  0.2161
  172MOL0     H23189   6.999   4.922   7.661 -0.9417  1.1966  0.2849
  172MOL0     H23190   7.072   5.153   7.494  0.1895  0.4231 -0.7589
  172MOL0     H23191   7.023   5.161   7.662  0.5207 -0.2819 -0.7714
  172MOL0     H23192   6.826   5.056   7.447 -1.2952  0.6207 -0.2097
  172MOL0     H23193   6.805   5.026   7.612 -2.1650  1.0093 -0.4487
  172MOL0     H23194   6.829   5.307   7.483 -2.6090 -0.4622 -1.7365
  172MOL0     H23195   6.780   5.259   7.656 -0.6344 -2.9866  0.7896
  172MOL0     H23196   6.634   5.208   7.386  2.0675 -0.1101 -0.0521
  172MOL0     H23197   6.590   5.154   7.547  1.5513 -1.9103 -2.9872
  172MOL0     H23198   6.627   5.445   7.442  1.8722  1.1744  1.6724
  172MOL0     H23199   6.598   5.391   7.605  3.6754 -2.0534 -0.8401
  172MOL0     H23200   6.361   5.392   7.590  0.1061 -3.0315  1.1396
  172MOL0     H23201   6.370   5.286   7.453 -1.7686 -0.0717  1.7385
  172MOL0     H23202   7.445   4.912   7.728 -0.9278 -0.3101 -0.3017
  172MOL0     H23203   7.683   4.964   7.747  0.9088  1.1082  0.9576
  172MOL0     H23204   8.022   5.509   7.620  1.5496  1.4257 -2.2605
  172MOL0     H23205   8.254   5.532   7.560  2.7777 -2.1838 -0.7190
  172MOL0     H23206  10.040   5.488   7.020  1.7969 -0.2570 -0.0372
  172MOL0     H23207  10.253   5.465   6.943  0.0771  0.1799  1.4640
  172MOL0     H23208  10.504   5.595   6.431  0.0272 -0.5767 -0.8095
  172MOL0     H23209  10.732   5.526   6.357  1.3237  3.4805  0.1104
  172MOL0     H23210  11.049   5.405   6.628 -0.6851 -1.3215  2.3932
  172MOL0     H23211  10.941   5.264   6.647 -0.5174 -0.3939 -0.9390
  172MOL0     H23212  11.174   5.210   6.555 -2.3788 -0.8711  2.0216
  172MOL0     H23213  11.136   5.302   6.405  2.5072  1.2694  1.0050
  172MOL0     H23214  10.952   5.155   6.356  2.0158 -0.7195 -2.0105
  172MOL0     H23215  10.951   5.088   6.512 -1.1777  3.6834  0.5883
  172MOL0     H23216  11.086   4.927   6.425  0.8427  0.0882  1.2408
  172MOL0     H23217  11.219   5.029   6.411 -0.5135 -3.0638  1.5497
  172MOL0     H23218  11.054   5.039   6.014 -1.3480  0.3388 -0.1655
  172MOL0     H23219  10.824   5.408   6.756 -1.8641 -3.8094 -1.6996
  172MOL0     H23220  10.622   5.516   6.839  0.9017 -0.0462 -0.0770
  173MOL0     O23221  11.203   9.656   3.149  0.1699  0.1504  0.2338
  173MOL0     C23222  11.286   9.564   3.139 -0.2513 -0.2645 -0.3032
  173MOL0     O23223  11.256   9.429   3.135  0.7120 -0.0254 -0.6488
  173MOL0     C23224  11.130   9.383   3.156 -0.5598 -1.4551  0.2744
  173MOL0     C23225  11.060   9.428   3.263 -0.6119 -0.6159 -0.1144
  173MOL0     C23226  10.935   9.379   3.293  0.6522 -0.4224 -1.2005
  173MOL0     C23227  10.882   9.274   3.221 -0.4841 -0.4537  1.0141
  173MOL0     O23228  10.759   9.214   3.249  1.1366 -0.3150  0.7713
  173MOL0     C23229  10.663   9.283   3.328 -0.6195  0.1689  0.0525
  173MOL0     C23230  10.551   9.185   3.357  0.7831  0.9249 -0.1462
  173MOL0     C23231  10.426   9.249   3.419 -0.4287  0.2004 -0.1483
  173MOL0     C23232  10.315   9.144   3.453 -0.4870 -0.1315  0.1484
  173MOL0     C23233  10.169   9.190   3.471  0.1768 -0.7455  0.2706
  173MOL0     C23234  10.085   9.059   3.481  0.7693 -0.3628  0.5227
  173MOL0     C23235   9.931   9.106   3.505  0.3547 -0.6968  0.4555
  173MOL0     C23236   9.862   8.981   3.565 -0.9229  0.2505  0.1308
  173MOL0     N23237   9.720   9.005   3.562  1.0465  0.0749  0.0233
  173MOL0     C23238   9.641   8.963   3.456 -0.4110  0.2034  0.3186
  173MOL0     C23239   9.516   8.991   3.504  0.2370  0.0359 -0.0901
  173MOL0     C23240   9.390   8.971   3.438 -0.1755 -0.1945  0.4437
  173MOL0     C23241   9.332   8.832   3.425 -0.9691  0.2477  0.6078
  173MOL0     C23242   9.298   8.768   3.557 -0.7380  0.2981 -0.5913
  173MOL0     C23243   9.192   8.845   3.631  0.4257 -0.4168  0.4230
  173MOL0     O23244   9.077   8.872   3.565 -0.1577 -0.1341  0.3443
  173MOL0     C23245   8.963   8.904   3.624  0.7503 -0.3130 -0.7252
  173MOL0     C23246   8.927   9.038   3.657  0.1469 -0.2703  0.2780
  173MOL0     C23247   8.810   9.061   3.725  0.4066 -0.2504  0.5023
  173MOL0     C23248   8.798   9.197   3.794  0.7584 -0.3683  0.2644
  173MOL0     C23249   8.736   8.949   3.763 -0.2964  0.0710 -0.4131
  173MOL0     C23250   8.602   8.960   3.830 -0.0059 -0.0737 -0.3902
  173MOL0     O23251   8.561   8.845   3.880 -0.0996 -0.0056 -0.2759
  173MOL0     C23252   8.427   8.838   3.897  0.4372 -0.8060 -0.5224
  173MOL0     C23253   8.346   8.790   3.802  1.1407 -0.0899  0.7471
  173MOL0     C23254   8.210   8.765   3.839  0.5774 -0.4092 -0.2565
  173MOL0     C23255   8.150   8.808   3.952 -0.1361  0.0088 -0.4836
  173MOL0     O23256   8.014   8.796   3.963  0.1241  0.3201 -0.5979
  173MOL0     C23257   7.947   8.883   4.055  0.0421  0.7821  0.5309
  173MOL0     C23258   7.800   8.852   4.030 -0.2692 -0.8432  0.1317
  173MOL0     C23259   7.754   8.715   4.071 -0.0309  0.2471 -0.5640
  173MOL0     C23260   7.602   8.706   4.097  0.2312  0.3905 -0.4523
  173MOL0     C23261   7.534   8.653   3.972 -0.2837 -0.7079  0.1707
  173MOL0     C23262   7.513   8.493   3.971  0.4585  0.4022  0.1263
  173MOL0     C23263   7.400   8.438   4.067 -1.1564 -0.1567  0.0883
  173MOL0     C23264   7.263   8.502   4.054  0.1992  0.0080 -0.1504
  173MOL0    Cl23265   7.175   8.454   3.908  0.5214 -0.3457 -0.7493
  173MOL0     C23266   8.235   8.863   4.041 -0.6763 -0.8706 -0.0308
  173MOL0     C23267   8.371   8.875   4.019 -0.4805  0.2531  0.6243
  173MOL0     O23268   8.530   9.064   3.823 -0.9428 -0.4756 -0.2713
  173MOL0     C23269   8.766   8.815   3.726  0.5304 -0.0738 -0.4958
  173MOL0     C23270   8.872   8.805   3.645  0.6987  0.1518  0.2568
  173MOL0     N23271   9.526   9.062   3.622 -0.5176  0.0907  0.9159
  173MOL0     N23272   9.643   9.061   3.660 -0.4088 -0.6072  0.3126
  173MOL0     C23273  10.949   9.231   3.110 -0.7812 -0.3044 -0.3234
  173MOL0     C23274  11.066   9.295   3.073 -1.1757 -0.2047  0.0033
  173MOL0     C23275  11.437   9.600   3.130  0.6965  0.1867  0.4090
  173MOL0     C23276  11.476   9.728   3.158 -0.0974 -0.1318  0.6363
  173MOL0     C23277  11.617   9.761   3.145 -0.1291  1.0040 -0.3480
  173MOL0     C23278  11.710   9.666   3.090  0.0758 -0.1960  0.1798
  173MOL0     O23279  11.840   9.697   3.081  0.1828 -0.3785  0.7430
  173MOL0     C23280  11.922   9.640   3.180 -0.2257  0.1570 -0.2202
  173MOL0     C23281  12.071   9.694   3.179  0.4775  0.2783  0.3020
  173MOL0     C23282  12.060   9.843   3.170 -0.1841  0.2557  1.2281
  173MOL0     C23283  12.195   9.915   3.206  0.3424 -0.0099 -0.4585
  173MOL0     C23284  12.168  10.050   3.168  0.2135 -0.4132  0.2058
  173MOL0     C23285  12.138  10.168   3.158 -0.6135 -0.2105  0.7145
  173MOL0     C23286  11.669   9.535   3.080 -0.2889  0.7507 -0.1997
  173MOL0     C23287  11.532   9.506   3.096  0.0982 -0.3494 -0.3290
  173MOL0     H23288  11.105   9.496   3.336 -1.3482  0.6087 -0.7648
  173MOL0     H23289  10.881   9.432   3.370  3.6342  0.1360  0.6971
  173MOL0     H23290  10.706   9.315   3.423 -1.1959 -1.4164  0.8794
  173MOL0     H23291  10.632   9.373   3.275  2.8012  1.4171 -0.0776
  173MOL0     H23292  10.511   9.150   3.261  0.8680 -0.6159  0.3498
  173MOL0     H23293  10.580   9.100   3.419 -1.7961 -0.4295 -0.6151
  173MOL0     H23294  10.447   9.317   3.502  2.4353 -0.5215 -0.1967
  173MOL0     H23295  10.378   9.302   3.336  0.8279  0.9487 -0.4315
  173MOL0     H23296  10.326   9.064   3.379  0.2986  0.6674 -0.6244
  173MOL0     H23297  10.344   9.094   3.546 -0.8507  0.4360  0.5737
  173MOL0     H23298  10.161   9.255   3.559 -0.1786  0.5444 -0.6835
  173MOL0     H23299  10.147   9.238   3.376  1.4967 -0.2274  0.1967
  173MOL0     H23300  10.085   8.997   3.391 -2.1927 -1.1381  0.9488
  173MOL0     H23301  10.120   8.995   3.562 -0.6000 -0.3228  1.1620
  173MOL0     H23302   9.940   9.195   3.568  2.3203  1.1241 -2.1500
  173MOL0     H23303   9.890   9.137   3.408  1.0816 -1.0138  0.0396
  173MOL0     H23304   9.911   8.958   3.660 -0.9462  0.7502  0.2631
  173MOL0     H23305   9.883   8.895   3.501 -1.2020  0.6752 -0.5422
  173MOL0     H23306   9.667   8.929   3.356 -0.4322  3.6419 -0.9973
  173MOL0     H23307   9.312   9.034   3.483 -0.8515 -1.0875  0.5488
  173MOL0     H23308   9.407   9.013   3.338 -0.4186  1.8085  1.1966
  173MOL0     H23309   9.394   8.762   3.367 -1.6891 -0.9038  1.2063
  173MOL0     H23310   9.242   8.853   3.367 -0.8827  1.4777  0.8758
  173MOL0     H23311   9.387   8.752   3.619 -1.8980  4.1032  2.4727
  173MOL0     H23312   9.249   8.673   3.533 -2.7350  1.4060 -1.1428
  173MOL0     H23313   9.236   8.941   3.660 -2.3828  0.2346  2.9854
  173MOL0     H23314   9.161   8.801   3.726 -0.7969  1.9328  1.1902
  173MOL0     H23315   8.993   9.114   3.616 -1.3189  0.2448 -1.2481
  173MOL0     H23316   8.894   9.249   3.784  1.0502 -0.8447  0.5829
  173MOL0     H23317   8.726   9.266   3.747 -1.4082 -1.2723  2.0432
  173MOL0     H23318   8.776   9.200   3.901 -1.3122  1.1131 -0.1232
  173MOL0     H23319   8.391   8.750   3.712 -1.4742 -0.9676 -0.2824
  173MOL0     H23320   8.142   8.719   3.768 -0.8525  2.6001 -0.9656
  173MOL0     H23321   7.961   8.863   4.162  0.2786 -0.0818  0.3473
  173MOL0     H23322   7.974   8.987   4.036  6.9360 -0.8151 -1.2440
  173MOL0     H23323   7.754   8.920   4.102  1.3162  1.2017 -0.6918
  173MOL0     H23324   7.777   8.879   3.927  0.1123  0.4506  0.3736
  173MOL0     H23325   7.805   8.694   4.165  0.1888  0.5545 -0.6133
  173MOL0     H23326   7.785   8.638   4.000  3.4959  0.4415  0.5903
  173MOL0     H23327   7.588   8.632   4.176 -1.1776  0.8713 -0.2183
  173MOL0     H23328   7.561   8.799   4.137 -1.2822 -1.0638  1.5939
  173MOL0     H23329   7.589   8.685   3.883 -0.8055 -2.5082 -0.8607
  173MOL0     H23330   7.435   8.699   3.968 -1.1377 -2.5553 -1.3876
  173MOL0     H23331   7.489   8.462   3.869 -0.2810  2.7136 -0.4575
  173MOL0     H23332   7.608   8.447   4.002  1.1014 -0.2067 -2.5274
  173MOL0     H23333   7.427   8.459   4.171 -1.0483 -0.5199  0.1366
  173MOL0     H23334   7.398   8.329   4.067  2.2868 -0.5099  4.2911
  173MOL0     H23335   7.262   8.611   4.063 -1.4881 -0.0629  0.9781
  173MOL0     H23336   7.181   8.489   4.124  0.0501  0.7339 -0.1842
  173MOL0     H23337   8.185   8.891   4.134  0.5537  3.1598 -0.3928
  173MOL0     H23338   8.420   8.916   4.107  0.5468 -0.0191  0.1989
  173MOL0     H23339   8.725   8.719   3.755  2.9598 -1.3400 -1.0338
  173MOL0     H23340   8.903   8.708   3.606 -1.3550  0.0808 -1.3662
  173MOL0     H23341  10.901   9.158   3.044  0.9040 -1.5373 -0.2565
  173MOL0     H23342  11.123   9.271   2.984 -0.4760 -2.7064  1.0488
  173MOL0     H23343  11.407   9.808   3.183  0.8131  0.2971  1.8942
  173MOL0     H23344  11.663   9.856   3.170 -3.0634  2.8946 -1.6952
  173MOL0     H23345  11.888   9.669   3.280  0.9955 -3.6315  1.4839
  173MOL0     H23346  11.931   9.532   3.169  2.5279  0.2872  0.1479
  173MOL0     H23347  12.129   9.662   3.092  0.3939  0.2428  0.2589
  173MOL0     H23348  12.125   9.665   3.270 -1.1400 -0.3696  1.0945
  173MOL0     H23349  11.978   9.872   3.237 -1.3466 -2.8458  1.2921
  173MOL0     H23350  12.037   9.868   3.066  2.6796 -1.2968  0.1198
  173MOL0     H23351  12.281   9.878   3.150  2.2377  0.8005  1.7346
  173MOL0     H23352  12.217   9.916   3.313  1.7807  1.2887 -0.7392
  173MOL0     H23353  12.101  10.269   3.157 -0.0697 -0.0002  1.2371
  173MOL0     H23354  11.742   9.457   3.059  1.1577  2.1977 -0.6914
  173MOL0     H23355  11.493   9.410   3.062 -1.4858  0.1943 -0.1340
  174MOL0     O23356  10.015   6.132   1.322  0.6343 -0.1298  0.8659
  174MOL0     C23357  10.099   6.192   1.382 -1.8109 -0.2488  0.1000
  174MOL0     O23358  10.086   6.312   1.450  0.3113 -0.4329 -0.6694
  174MOL0     C23359   9.962   6.360   1.480 -0.8103 -0.2455 -0.0308
  174MOL0     C23360   9.923   6.371   1.617  0.9038  0.0122  0.5898
  174MOL0     C23361   9.794   6.416   1.649  0.1012  0.1390  0.3057
  174MOL0     C23362   9.696   6.439   1.546 -0.1373 -0.6661 -0.1181
  174MOL0     O23363   9.568   6.483   1.565 -0.0758  0.3051  0.2135
  174MOL0     C23364   9.514   6.496   1.699 -0.1050  0.5961 -0.0384
  174MOL0     C23365   9.379   6.561   1.698  0.4721 -0.4420 -0.0927
  174MOL0     C23366   9.256   6.479   1.650  0.1171 -0.8097 -0.2945
  174MOL0     C23367   9.131   6.551   1.619  0.3859 -0.9228  0.6776
  174MOL0     C23368   9.040   6.489   1.511  0.0016  0.5978 -1.4165
  174MOL0     C23369   8.985   6.351   1.556  0.7407  0.4986  0.2482
  174MOL0     C23370   8.892   6.295   1.450 -0.2556  0.3257 -0.1304
  174MOL0     C23371   8.859   6.148   1.476 -0.4780  1.1762  0.3851
  174MOL0     N23372   8.810   6.100   1.345 -0.1519  0.4931  0.4280
  174MOL0     C23373   8.683   6.129   1.286 -0.3167  0.9557 -0.1947
  174MOL0     C23374   8.692   6.060   1.172 -0.0529  0.1794  0.3426
  174MOL0     C23375   8.593   6.025   1.054  0.0416  0.0517 -0.3510
  174MOL0     C23376   8.472   5.949   1.102  0.0042  0.1563 -0.4810
  174MOL0     C23377   8.404   5.876   0.987 -0.0261 -0.1867 -0.0877
  174MOL0     C23378   8.286   5.807   1.038 -0.3201  0.1066  0.0611
  174MOL0     O23379   8.234   5.734   0.923 -0.6798 -0.1991  0.7732
  174MOL0     C23380   8.097   5.711   0.903 -0.7353  0.0654 -0.2215
  174MOL0     C23381   7.990   5.783   0.966  0.1952  0.1125 -0.1314
  174MOL0     C23382   7.858   5.752   0.941  0.5832  0.1578  0.2432
  174MOL0     C23383   7.762   5.838   1.021  0.9014 -0.2340  1.1275
  174MOL0     C23384   7.819   5.642   0.852  0.1845 -0.4195 -0.4375
  174MOL0     C23385   7.685   5.590   0.811  0.8103  0.4153 -0.9129
  174MOL0     O23386   7.684   5.492   0.715 -0.2386  0.3471 -0.4992
  174MOL0     C23387   7.566   5.468   0.653 -0.1027  0.9204  0.0461
  174MOL0     C23388   7.521   5.558   0.560  0.1909  0.2484  0.2554
  174MOL0     C23389   7.396   5.533   0.495  0.3087  0.8084 -0.3327
  174MOL0     C23390   7.312   5.427   0.531  0.1146 -0.1569 -0.5500
  174MOL0     O23391   7.189   5.433   0.475  0.5155  0.4739 -0.1762
  174MOL0     C23392   7.085   5.351   0.528  0.7010  0.4670 -0.3083
  174MOL0     C23393   6.952   5.396   0.467  0.9290 -0.4106 -0.8765
  174MOL0     C23394   6.890   5.505   0.555 -0.0878  0.1382 -0.7257
  174MOL0     C23395   6.759   5.554   0.500  0.0004 -0.3592  0.0248
  174MOL0     C23396   6.693   5.672   0.574  0.7583 -0.4651  0.3265
  174MOL0     C23397   6.614   5.619   0.699  0.1512  0.1969 -0.5197
  174MOL0     C23398   6.530   5.736   0.756  0.3918 -0.2317  0.6698
  174MOL0     C23399   6.413   5.706   0.851 -0.3025  0.2551  0.2286
  174MOL0    Cl23400   6.301   5.599   0.767  0.0778 -0.1976  0.2587
  174MOL0     C23401   7.353   5.334   0.640 -0.6797 -0.8403  0.5686
  174MOL0     C23402   7.484   5.366   0.698 -0.0978 -0.4809  0.5937
  174MOL0     O23403   7.590   5.650   0.855  0.0967 -0.0987 -0.8879
  174MOL0     C23404   7.924   5.579   0.785  0.1610 -0.3562  0.0788
  174MOL0     C23405   8.061   5.609   0.804 -0.7381 -0.6125  0.0902
  174MOL0     N23406   8.807   5.990   1.170 -0.1982 -0.2018  0.1668
  174MOL0     N23407   8.881   6.020   1.266 -0.5199 -0.5545 -0.6974
  174MOL0     C23408   9.744   6.436   1.418  0.1725 -0.5002 -0.0687
  174MOL0     C23409   9.877   6.395   1.381  1.0317 -0.7160  0.4083
  174MOL0     C23410  10.233   6.132   1.383  0.2374 -0.0442 -0.8982
  174MOL0     C23411  10.272   6.035   1.300  0.6886  1.1825  0.3029
  174MOL0     C23412  10.387   5.962   1.318 -0.1444  0.0741 -0.5024
  174MOL0     C23413  10.471   5.987   1.428 -0.2311  0.8795  0.3170
  174MOL0     O23414  10.590   5.916   1.457 -0.4082 -0.3664 -0.2957
  174MOL0     C23415  10.643   5.823   1.356  0.8371 -0.3269 -0.5627
  174MOL0     C23416  10.729   5.732   1.444 -1.0442  0.0679 -0.2614
  174MOL0     C23417  10.837   5.807   1.527 -0.5011 -0.4248 -0.2595
  174MOL0     C23418  10.935   5.713   1.607  0.2446  1.9060  0.2506
  174MOL0     C23419  11.067   5.779   1.632 -0.1156  0.0971  0.4440
  174MOL0     C23420  11.166   5.847   1.644  0.0823  0.6517  0.0828
  174MOL0     C23421  10.435   6.096   1.511  0.0148  0.1466  1.0993
  174MOL0     C23422  10.318   6.166   1.483  0.0977 -0.2561  0.1338
  174MOL0     H23423   9.978   6.333   1.702 -1.0164  0.5657  2.1545
  174MOL0     H23424   9.764   6.415   1.753  1.1759  2.4520  0.6870
  174MOL0     H23425   9.519   6.395   1.740  2.5678  0.1121 -1.3152
  174MOL0     H23426   9.565   6.562   1.769 -0.0029  1.0688 -0.5467
  174MOL0     H23427   9.358   6.585   1.803  1.2659 -2.2423  0.5060
  174MOL0     H23428   9.383   6.650   1.634  2.1395  0.2851  0.9598
  174MOL0     H23429   9.293   6.425   1.561  3.1975 -1.0585  1.0011
  174MOL0     H23430   9.226   6.408   1.728 -1.3491  0.6581  0.5305
  174MOL0     H23431   9.075   6.566   1.711  0.4482 -0.9915  0.7278
  174MOL0     H23432   9.144   6.654   1.585  1.2487 -1.1368  0.3172
  174MOL0     H23433   8.954   6.553   1.486  0.6735  1.2096 -2.2028
  174MOL0     H23434   9.094   6.484   1.416 -1.4873 -1.4580 -2.2272
  174MOL0     H23435   9.064   6.279   1.578  0.4719  0.6768  1.9740
  174MOL0     H23436   8.917   6.369   1.640 -0.3577  3.1506 -1.1126
  174MOL0     H23437   8.800   6.351   1.434  0.6111  0.9750 -3.8561
  174MOL0     H23438   8.937   6.308   1.351 -1.6366  0.2454 -0.7898
  174MOL0     H23439   8.786   6.132   1.556  0.9781 -2.6667  1.1987
  174MOL0     H23440   8.944   6.083   1.500 -1.9689 -1.2051 -0.3868
  174MOL0     H23441   8.596   6.188   1.314 -0.0270  1.7714 -0.9619
  174MOL0     H23442   8.580   6.119   1.001  2.4608  0.4721 -0.3090
  174MOL0     H23443   8.650   5.955   0.992  3.4188 -0.5124  3.0578
  174MOL0     H23444   8.400   6.008   1.159  1.5467  2.5555 -0.8680
  174MOL0     H23445   8.509   5.869   1.165 -0.2215  0.0347 -0.5002
  174MOL0     H23446   8.468   5.816   0.923  0.2568 -1.9005  1.6993
  174MOL0     H23447   8.368   5.952   0.917  0.3943  0.3003  0.2163
  174MOL0     H23448   8.216   5.882   1.073 -0.5687 -0.5649  1.0555
  174MOL0     H23449   8.306   5.736   1.119  1.3183  1.2930  0.7572
  174MOL0     H23450   8.015   5.865   1.034 -0.0102 -0.4613  0.6490
  174MOL0     H23451   7.726   5.761   1.090 -1.0165 -2.6365 -2.3031
  174MOL0     H23452   7.808   5.925   1.069  4.9898 -1.4175 -0.2525
  174MOL0     H23453   7.676   5.871   0.962  0.7373 -1.7915  0.4429
  174MOL0     H23454   7.590   5.637   0.533  0.3561 -0.3814 -1.2119
  174MOL0     H23455   7.373   5.596   0.410 -0.8693 -2.9255 -3.0631
  174MOL0     H23456   7.111   5.252   0.489  3.5409  1.0797 -0.2227
  174MOL0     H23457   7.082   5.352   0.637 -0.0312 -0.4100 -0.3134
  174MOL0     H23458   6.965   5.440   0.368 -0.9222 -0.7757 -1.3162
  174MOL0     H23459   6.873   5.320   0.468  0.9063 -0.4252  1.5372
  174MOL0     H23460   6.956   5.592   0.562 -0.3765  0.2339  2.6388
  174MOL0     H23461   6.884   5.480   0.662  0.5108  1.2926 -0.4039
  174MOL0     H23462   6.786   5.593   0.401  2.5518 -0.0597  0.7717
  174MOL0     H23463   6.688   5.477   0.467 -0.9084  1.4161 -2.4253
  174MOL0     H23464   6.630   5.726   0.503  0.1079 -0.9428  0.5356
  174MOL0     H23465   6.772   5.743   0.600  2.8460 -2.6856  0.4407
  174MOL0     H23466   6.549   5.533   0.681 -0.0935  0.3612 -0.4200
  174MOL0     H23467   6.682   5.585   0.777 -1.4077  0.4323  0.9877
  174MOL0     H23468   6.482   5.791   0.675  0.8901 -1.8806 -0.8004
  174MOL0     H23469   6.592   5.813   0.803 -1.4345  3.0334 -1.8127
  174MOL0     H23470   6.364   5.798   0.882 -0.2420 -0.3240  2.1990
  174MOL0     H23471   6.455   5.665   0.944 -1.0393 -1.6508 -0.2366
  174MOL0     H23472   7.295   5.255   0.686 -1.0164  0.7341  3.0051
  174MOL0     H23473   7.514   5.314   0.788  1.1806 -1.3682 -0.3110
  174MOL0     H23474   7.911   5.505   0.707 -0.1220  0.2868 -0.5016
  174MOL0     H23475   8.140   5.572   0.740  0.5734  3.4664 -0.9499
  174MOL0     H23476   9.675   6.454   1.336  1.9693  1.2180 -1.2848
  174MOL0     H23477   9.920   6.400   1.282  0.1778  2.3176  0.0788
  174MOL0     H23478  10.228   6.041   1.201  0.4774  1.6005  0.4215
  174MOL0     H23479  10.416   5.894   1.239 -2.3157 -0.1728 -1.1752
  174MOL0     H23480  10.566   5.761   1.312  0.8094 -0.0835 -0.8598
  174MOL0     H23481  10.702   5.867   1.275 -0.3436 -0.7001 -1.6566
  174MOL0     H23482  10.782   5.657   1.386 -0.2974  0.1953  0.2389
  174MOL0     H23483  10.678   5.686   1.530  4.4758 -0.2695  3.3760
  174MOL0     H23484  10.806   5.873   1.608 -0.1665 -0.7030  0.0974
  174MOL0     H23485  10.901   5.860   1.455 -3.3896  1.0837 -1.8753
  174MOL0     H23486  10.958   5.627   1.544  2.1386  2.0558  0.6591
  174MOL0     H23487  10.894   5.670   1.699  0.2678 -1.6333 -1.2420
  174MOL0     H23488  11.246   5.917   1.650 -1.6528  2.6790  0.6360
  174MOL0     H23489  10.504   6.115   1.593  0.0371  2.0987  0.6811
  174MOL0     H23490  10.290   6.240   1.557 -1.6234  0.0965 -0.8196
  175MOL0     O23491   6.357   9.557   0.758 -0.6213 -0.4771  0.1981
  175MOL0     C23492   6.431   9.464   0.753 -0.1654  0.2442 -0.1751
  175MOL0     O23493   6.387   9.335   0.763  0.4537  0.4193  0.7676
  175MOL0     C23494   6.255   9.302   0.743 -0.0324  0.3721 -0.5866
  175MOL0     C23495   6.224   9.177   0.803  0.7072  0.3505 -0.5977
  175MOL0     C23496   6.097   9.132   0.813 -0.2712  0.2177 -0.4371
  175MOL0     C23497   5.988   9.204   0.761 -0.2608 -0.2259 -0.5486
  175MOL0     O23498   5.867   9.140   0.783  0.3856  0.1649  0.4326
  175MOL0     C23499   5.753   9.171   0.697 -0.3670 -0.0099  0.0834
  175MOL0     C23500   5.675   9.286   0.768  0.7482 -0.6091  0.2720
  175MOL0     C23501   5.547   9.340   0.695 -0.4994  0.4358 -0.5598
  175MOL0     C23502   5.418   9.271   0.747  0.4370 -0.7450  0.1961
  175MOL0     C23503   5.304   9.303   0.645  0.7838 -0.0698 -0.1894
  175MOL0     C23504   5.289   9.457   0.620  0.1245  0.2984 -0.1866
  175MOL0     C23505   5.205   9.479   0.495  0.6610  0.2134 -0.1418
  175MOL0     C23506   5.054   9.433   0.505 -0.2377 -1.0158 -0.8935
  175MOL0     N23507   4.970   9.545   0.548  0.5089  0.7532  0.1182
  175MOL0     C23508   4.977   9.591   0.681  0.1028 -0.1866 -0.1018
  175MOL0     C23509   4.901   9.706   0.678 -0.0210 -1.0313  0.0992
  175MOL0     C23510   4.886   9.802   0.788 -0.2137 -0.6347 -0.2671
  175MOL0     C23511   5.019   9.879   0.803 -0.6872 -0.7972 -0.1345
  175MOL0     C23512   5.017   9.933   0.946 -0.3808 -0.1316  0.1742
  175MOL0     C23513   5.129  10.026   0.978  0.2594 -0.0231  0.6380
  175MOL0     O23514   5.237   9.941   1.010  0.0746 -0.3589  0.1787
  175MOL0     C23515   5.359  10.000   1.042 -0.6040  0.2443  0.3956
  175MOL0     C23516   5.404  10.122   0.993 -0.6253 -0.7361  0.6187
  175MOL0     C23517   5.521  10.180   1.028  0.0349  0.3505 -0.2416
  175MOL0     C23518   5.548  10.319   0.977 -0.4014 -0.0654  0.0380
  175MOL0     C23519   5.602  10.119   1.120 -0.3966  0.0459  0.4811
  175MOL0     C23520   5.719  10.188   1.164  0.0303 -0.3052 -0.6673
  175MOL0     O23521   5.709  10.305   1.235 -0.6617  0.1513 -0.0070
  175MOL0     C23522   5.821  10.381   1.284  0.1619  0.5242 -0.3865
  175MOL0     C23523   5.796  10.469   1.392 -0.1923 -0.3586 -0.0207
  175MOL0     C23524   5.895  10.564   1.433  0.6293 -1.1261 -0.0823
  175MOL0     C23525   6.017  10.574   1.366  0.0572 -0.1428  0.4255
  175MOL0     O23526   6.118  10.668   1.396 -0.5513  0.5436  0.2325
  175MOL0     C23527   6.105  10.745   1.525  0.1558 -0.4911  0.8535
  175MOL0     C23528   6.148  10.640   1.634  0.1630 -0.0375  0.6645
  175MOL0     C23529   6.279  10.557   1.608 -0.0050 -0.3479  0.5550
  175MOL0     C23530   6.401  10.633   1.572 -0.2672 -0.2388  0.5658
  175MOL0     C23531   6.478  10.551   1.472  0.3851 -0.2238  0.1502
  175MOL0     C23532   6.532  10.416   1.528 -1.2373 -0.3394 -0.0077
  175MOL0     C23533   6.550  10.314   1.417 -0.4104  0.2527  0.1387
  175MOL0     C23534   6.653  10.369   1.320 -1.0695  0.2437 -0.5471
  175MOL0    Cl23535   6.673  10.235   1.203  0.4110 -0.3740  0.5080
  175MOL0     C23536   6.029  10.488   1.257 -0.5125 -0.0776  0.2498
  175MOL0     C23537   5.936  10.392   1.215 -0.8737  0.4526 -0.4125
  175MOL0     O23538   5.823  10.131   1.132 -0.2201  0.2162  0.5548
  175MOL0     C23539   5.566   9.989   1.166 -0.1170  0.5844  0.7951
  175MOL0     C23540   5.447   9.932   1.121 -0.4608 -0.0416  0.1627
  175MOL0     N23541   4.859   9.726   0.547  0.1907 -0.3700 -0.0571
  175MOL0     N23542   4.904   9.634   0.468  0.5436 -0.3135  0.0439
  175MOL0     C23543   6.013   9.323   0.699  0.0558  0.9070 -0.6582
  175MOL0     C23544   6.148   9.377   0.694 -0.6104  0.9838  0.6288
  175MOL0     C23545   6.572   9.501   0.756  0.0676  0.0923  0.6867
  175MOL0     C23546   6.676   9.405   0.771 -0.2425 -0.2817 -1.1280
  175MOL0     C23547   6.807   9.445   0.759  0.6148  0.0377  0.1260
  175MOL0     C23548   6.833   9.583   0.738 -0.0722 -0.1187  1.1788
  175MOL0     O23549   6.966   9.605   0.735  0.2621  0.5395 -0.0685
  175MOL0     C23550   7.008   9.732   0.707 -0.4364 -0.5000 -0.5491
  175MOL0     C23551   7.162   9.741   0.706  0.2912  0.4309 -0.2990
  175MOL0     C23552   7.234   9.665   0.588  0.3356 -0.4014  0.5085
  175MOL0     C23553   7.260   9.742   0.452  1.0679 -0.3235 -0.0006
  175MOL0     C23554   7.352   9.851   0.484  0.0262  0.1277 -0.7174
  175MOL0     C23555   7.437   9.930   0.514 -0.5856 -0.4715 -0.5722
  175MOL0     C23556   6.735   9.676   0.720 -0.6053 -0.3693 -0.3959
  175MOL0     C23557   6.610   9.638   0.731  0.4526 -0.6330 -0.0177
  175MOL0     H23558   6.299   9.106   0.836  0.8718  1.7022  2.1813
  175MOL0     H23559   6.080   9.033   0.854 -0.5306 -0.3398 -1.8402
  175MOL0     H23560   5.786   9.188   0.595  0.1848  0.9686  0.4103
  175MOL0     H23561   5.689   9.082   0.700 -1.3453  0.7028  1.5058
  175MOL0     H23562   5.659   9.263   0.874  1.2501  1.1681  0.7741
  175MOL0     H23563   5.744   9.371   0.765  1.7270 -1.3478  0.9756
  175MOL0     H23564   5.553   9.447   0.719  1.4842  0.1658  0.3641
  175MOL0     H23565   5.560   9.333   0.587  2.4442 -1.1527 -0.1920
  175MOL0     H23566   5.433   9.163   0.749 -0.7425 -0.9206  0.5074
  175MOL0     H23567   5.391   9.308   0.846 -1.8752  0.5607 -0.8281
  175MOL0     H23568   5.319   9.247   0.553  1.9428  1.9095 -1.2772
  175MOL0     H23569   5.211   9.271   0.693 -0.8915  4.0804 -0.2398
  175MOL0     H23570   5.247   9.507   0.708  0.3285  0.6265 -0.2727
  175MOL0     H23571   5.385   9.507   0.603  0.1129  0.2255 -0.4834
  175MOL0     H23572   5.201   9.580   0.452 -2.2157 -0.2346 -1.1959
  175MOL0     H23573   5.248   9.425   0.410  0.4036  0.4922 -0.4524
  175MOL0     H23574   5.046   9.349   0.575 -2.2311 -0.0481  0.1241
  175MOL0     H23575   5.006   9.413   0.408 -0.7275 -1.4501 -0.5662
  175MOL0     H23576   5.035   9.546   0.762 -0.3855 -0.5478  0.0480
  175MOL0     H23577   4.802   9.868   0.764 -1.7790 -1.5043  2.4176
  175MOL0     H23578   4.861   9.744   0.877 -1.6600  0.2836 -0.0403
  175MOL0     H23579   5.035   9.963   0.735  1.5719  1.2543  2.6599
  175MOL0     H23580   5.100   9.805   0.800 -1.6045 -1.7980 -2.1334
  175MOL0     H23581   5.010   9.854   1.021 -1.2661 -1.7151 -1.5225
  175MOL0     H23582   4.924   9.991   0.951 -2.4485 -3.1469 -0.9171
  175MOL0     H23583   5.098  10.078   1.069 -3.4238 -0.2076 -0.3538
  175MOL0     H23584   5.153  10.091   0.893 -2.2712 -2.3467 -2.1118
  175MOL0     H23585   5.351  10.193   0.931  0.5758  0.7828  1.2748
  175MOL0     H23586   5.649  10.348   0.947 -1.9376  3.9656 -1.9154
  175MOL0     H23587   5.480  10.341   0.894  0.1540  0.0354 -0.3935
  175MOL0     H23588   5.532  10.387   1.061  1.1422  0.8067 -0.3414
  175MOL0     H23589   5.694  10.468   1.430 -0.1181 -1.2285  0.2020
  175MOL0     H23590   5.880  10.638   1.511  2.6791  3.7985 -3.8185
  175MOL0     H23591   6.175  10.829   1.519  0.0793 -0.4721  0.1161
  175MOL0     H23592   6.006  10.787   1.541 -0.3665 -0.2994 -2.2806
  175MOL0     H23593   6.163  10.687   1.732  1.9542  3.1519 -0.9777
  175MOL0     H23594   6.069  10.564   1.636 -0.7087  0.7381 -1.5487
  175MOL0     H23595   6.242  10.486   1.532 -0.2776 -0.6934  1.0035
  175MOL0     H23596   6.294  10.495   1.697  0.0947 -2.8742 -1.1076
  175MOL0     H23597   6.371  10.718   1.510 -0.4435 -0.7771 -0.1028
  175MOL0     H23598   6.456  10.665   1.660 -2.6272  1.7099  1.4650
  175MOL0     H23599   6.563  10.614   1.443 -0.4582  1.5585  1.3694
  175MOL0     H23600   6.415  10.543   1.383 -1.0632  0.5918  1.0566
  175MOL0     H23601   6.628  10.417   1.580  0.4198 -3.5232 -2.5939
  175MOL0     H23602   6.459  10.378   1.600 -1.1804  0.2890  0.3819
  175MOL0     H23603   6.454  10.305   1.364  0.5462  4.3682 -2.8344
  175MOL0     H23604   6.571  10.220   1.468 -3.2515  1.0948  3.2108
  175MOL0     H23605   6.752  10.377   1.365 -1.6719  2.7326  0.4873
  175MOL0     H23606   6.630  10.461   1.266 -1.4017  0.9835  0.8063
  175MOL0     H23607   6.120  10.498   1.199 -3.6011  0.5843 -5.1682
  175MOL0     H23608   5.947  10.332   1.126  1.5456  2.1798 -1.3630
  175MOL0     H23609   5.634   9.937   1.233  0.0260 -1.2505 -0.7108
  175MOL0     H23610   5.434   9.830   1.156 -1.3087  0.6200  1.8577
  175MOL0     H23611   5.927   9.382   0.667  1.1663  3.1044  0.1766
  175MOL0     H23612   6.166   9.473   0.649 -0.6325  0.3130 -0.8734
  175MOL0     H23613   6.650   9.300   0.781 -1.4807  0.1065 -0.0447
  175MOL0     H23614   6.889   9.375   0.777  1.2670  0.7934  0.1627
  175MOL0     H23615   6.962   9.768   0.615 -1.7878 -0.0619  0.2653
  175MOL0     H23616   6.983   9.793   0.794  0.4093 -0.8982 -0.0126
  175MOL0     H23617   7.206   9.703   0.798 -0.9674 -3.4797 -1.1284
  175MOL0     H23618   7.181   9.848   0.693 -5.2035  1.4509 -2.5922
  175MOL0     H23619   7.171   9.579   0.562  0.5780 -0.7748  1.1382
  175MOL0     H23620   7.325   9.625   0.634  0.9964 -1.9286 -1.9326
  175MOL0     H23621   7.166   9.791   0.424  2.0371 -0.0948 -3.3125
  175MOL0     H23622   7.290   9.683   0.365 -2.0614 -0.4500 -1.1191
  175MOL0     H23623   7.518   9.997   0.532  0.8785 -2.8004  2.3325
  175MOL0     H23624   6.752   9.783   0.707  1.2790 -0.8909 -3.5884
  175MOL0     H23625   6.534   9.716   0.741 -1.6788 -2.6883  0.8927
  176MOL0     O23626   2.435  10.607   5.321  0.2171  0.1678  0.7615
  176MOL0     C23627   2.398  10.581   5.204 -0.3080 -0.2251 -0.1220
  176MOL0     O23628   2.277  10.577   5.158  0.9501  0.2643  0.3860
  176MOL0     C23629   2.184  10.581   5.261  0.1985 -0.5071 -0.9122
  176MOL0     C23630   2.152  10.698   5.333  0.4882  0.2936 -0.2883
  176MOL0     C23631   2.027  10.705   5.400 -0.4680  0.1189 -1.2033
  176MOL0     C23632   1.939  10.590   5.418  0.2187  0.3104 -0.4254
  176MOL0     O23633   1.817  10.582   5.481 -0.8244  0.2760 -1.1967
  176MOL0     C23634   1.772  10.702   5.547 -1.1110  0.7290  0.8300
  176MOL0     C23635   1.638  10.676   5.628  0.2021 -0.0390 -0.6455
  176MOL0     C23636   1.577  10.810   5.681 -0.3203 -0.0782 -0.1692
  176MOL0     C23637   1.650  10.873   5.805 -0.4471  0.3033  0.1957
  176MOL0     C23638   1.727  10.996   5.760 -0.5391 -0.3869  0.0672
  176MOL0     C23639   1.642  11.120   5.731  0.3216  0.1337 -0.0719
  176MOL0     C23640   1.732  11.234   5.695 -0.3629 -0.6912  0.5566
  176MOL0     C23641   1.661  11.347   5.626  0.1899 -0.3861 -0.4401
  176MOL0     N23642   1.748  11.467   5.625 -0.3729 -0.1314  0.2032
  176MOL0     C23643   1.887  11.461   5.595  0.3914  0.1439  0.1775
  176MOL0     C23644   1.921  11.588   5.623  0.4221  0.6293 -0.5501
  176MOL0     C23645   2.063  11.641   5.617 -0.1481 -0.8163  0.7669
  176MOL0     C23646   2.122  11.661   5.758  1.1918 -0.7226  1.2875
  176MOL0     C23647   2.262  11.722   5.744 -0.5812  0.2921 -0.3079
  176MOL0     C23648   2.337  11.720   5.882 -0.7519  0.2645  0.7347
  176MOL0     O23649   2.480  11.695   5.848  0.1971 -0.0057  0.9725
  176MOL0     C23650   2.571  11.689   5.947 -0.2395 -0.2782  0.4270
  176MOL0     C23651   2.554  11.694   6.086  0.0995  0.2730  0.3514
  176MOL0     C23652   2.657  11.679   6.183  0.2588 -1.0684 -0.2020
  176MOL0     C23653   2.608  11.694   6.329 -1.3853  0.1407  0.8912
  176MOL0     C23654   2.791  11.666   6.145 -0.1222  0.0990  0.7971
  176MOL0     C23655   2.912  11.656   6.239  0.2255 -0.7124  0.1100
  176MOL0     O23656   3.018  11.596   6.188 -0.0754  0.2282 -0.7198
  176MOL0     C23657   3.135  11.594   6.259 -0.2109 -0.5000  0.1690
  176MOL0     C23658   3.216  11.485   6.218 -0.1974 -0.1205 -0.8749
  176MOL0     C23659   3.346  11.471   6.270 -0.2546 -0.0112 -0.9437
  176MOL0     C23660   3.401  11.560   6.363  0.6766 -1.2739  0.3356
  176MOL0     O23661   3.526  11.545   6.419  0.4112 -0.0188 -0.2349
  176MOL0     C23662   3.536  11.594   6.558  0.0604  0.4846  0.5960
  176MOL0     C23663   3.651  11.527   6.637  0.5023 -0.3114  0.0343
  176MOL0     C23664   3.786  11.578   6.602 -0.0211  1.0079 -0.4088
  176MOL0     C23665   3.897  11.503   6.685 -0.9991 -0.4807  0.0385
  176MOL0     C23666   4.026  11.485   6.613  0.3414  0.5536 -0.3858
  176MOL0     C23667   4.113  11.384   6.675 -1.1882  0.0606  0.1200
  176MOL0     C23668   4.252  11.383   6.605 -1.4774  0.4494 -0.2839
  176MOL0     C23669   4.350  11.296   6.685 -1.5325  0.7551 -0.1873
  176MOL0    Cl23670   4.292  11.136   6.640  0.4062 -0.1227  0.4539
  176MOL0     C23671   3.330  11.677   6.386  1.0428  0.8545  0.8203
  176MOL0     C23672   3.199  11.695   6.342 -0.3677  0.2870  0.0269
  176MOL0     O23673   2.901  11.705   6.353  0.0855 -0.1742  1.3381
  176MOL0     C23674   2.816  11.667   6.008 -0.0585  0.2422 -0.5566
  176MOL0     C23675   2.708  11.675   5.918 -0.6302  0.2350 -0.2700
  176MOL0     N23676   1.807  11.662   5.646 -0.5626  0.2717  0.0857
  176MOL0     N23677   1.710  11.588   5.640  0.1554  0.0520  0.0621
  176MOL0     C23678   1.996  10.473   5.366  0.3255 -0.2925  0.3267
  176MOL0     C23679   2.118  10.464   5.294  0.1108  0.1703 -0.5988
  176MOL0     C23680   2.513  10.536   5.133 -0.5026 -1.4219 -0.0710
  176MOL0     C23681   2.496  10.452   5.035  0.1179  0.2808  0.2530
  176MOL0     C23682   2.601  10.398   4.964  0.6179 -0.3569  1.0207
  176MOL0     C23683   2.734  10.444   4.979  0.4147 -0.1937  0.1485
  176MOL0     O23684   2.822  10.389   4.898 -0.7658 -0.0454  0.1890
  176MOL0     C23685   2.952  10.437   4.864 -0.3816  0.6039 -0.2962
  176MOL0     C23686   2.992  10.371   4.731 -0.5662  0.0268 -0.4006
  176MOL0     C23687   3.045  10.230   4.760 -0.1164 -0.1034  0.6436
  176MOL0     C23688   3.199  10.231   4.776 -0.5989  0.3963  0.1703
  176MOL0     C23689   3.273  10.104   4.773  0.1900 -1.0641  0.7078
  176MOL0     C23690   3.320   9.996   4.769 -0.7440  0.4980 -0.1068
  176MOL0     C23691   2.754  10.543   5.075 -0.2161 -0.5968  0.1234
  176MOL0     C23692   2.650  10.582   5.150 -1.5974 -0.7527 -0.9125
  176MOL0     H23693   2.214  10.786   5.318  1.1412 -0.0383  0.3938
  176MOL0     H23694   2.006  10.800   5.448 -4.3830 -1.9747  1.8634
  176MOL0     H23695   1.842  10.735   5.624 -1.5563 -0.1808  1.6494
  176MOL0     H23696   1.761  10.774   5.466  1.6971  0.1640 -0.1789
  176MOL0     H23697   1.565  10.619   5.570 -0.4710 -1.0325  1.1076
  176MOL0     H23698   1.658  10.614   5.717  0.1729  1.5593  0.5175
  176MOL0     H23699   1.577  10.882   5.599  2.2241 -1.3831 -1.4575
  176MOL0     H23700   1.475  10.785   5.711  0.1514  0.1365  1.6838
  176MOL0     H23701   1.570  10.906   5.872  1.9222  1.2191  2.7557
  176MOL0     H23702   1.718  10.800   5.850 -1.3863 -0.7447 -0.0250
  176MOL0     H23703   1.783  11.035   5.845 -0.4634  1.3612 -0.7349
  176MOL0     H23704   1.786  10.962   5.675 -0.7546 -2.9526  0.8754
  176MOL0     H23705   1.573  11.100   5.648  1.9114 -0.1725 -1.3813
  176MOL0     H23706   1.589  11.141   5.824  1.9934 -0.5617  1.0756
  176MOL0     H23707   1.785  11.265   5.786  0.5600 -0.6928  0.0362
  176MOL0     H23708   1.805  11.191   5.626 -1.0456 -3.1219  1.2228
  176MOL0     H23709   1.565  11.379   5.670  0.3309 -1.9113  1.1001
  176MOL0     H23710   1.633  11.312   5.526  0.6089 -1.9315 -0.0439
  176MOL0     H23711   1.948  11.377   5.563  0.7108  0.7589 -0.8976
  176MOL0     H23712   2.126  11.569   5.564  0.1321 -1.8094  2.4108
  176MOL0     H23713   2.064  11.734   5.559 -1.4739 -0.5806  1.0999
  176MOL0     H23714   2.119  11.563   5.806  1.6760 -1.2610  0.2533
  176MOL0     H23715   2.062  11.731   5.817 -1.4998 -2.0244  0.2785
  176MOL0     H23716   2.275  11.822   5.701  0.3163 -0.0706 -0.9189
  176MOL0     H23717   2.311  11.663   5.666 -1.7359 -0.6795 -0.3354
  176MOL0     H23718   2.305  11.640   5.949  1.8246 -0.2234  1.5047
  176MOL0     H23719   2.315  11.813   5.934 -4.1428 -1.0165  1.8462
  176MOL0     H23720   2.451  11.695   6.123  0.3185  0.7701  0.9644
  176MOL0     H23721   2.498  11.702   6.327 -1.2664  2.5155  1.2732
  176MOL0     H23722   2.637  11.605   6.384 -2.5781 -0.4006  0.6857
  176MOL0     H23723   2.642  11.784   6.380  4.9929 -2.0971  1.4930
  176MOL0     H23724   3.175  11.425   6.137 -1.1644 -1.3362  0.4471
  176MOL0     H23725   3.411  11.389   6.244 -0.2604 -0.2325 -0.2754
  176MOL0     H23726   3.569  11.697   6.545  1.9311 -0.3926 -3.0073
  176MOL0     H23727   3.442  11.596   6.615 -0.0636  0.6982  0.3876
  176MOL0     H23728   3.638  11.564   6.740  0.0583  1.4962 -0.6316
  176MOL0     H23729   3.641  11.419   6.625 -0.6689 -0.2621  0.3789
  176MOL0     H23730   3.787  11.688   6.606 -0.6363  1.4969 -5.9935
  176MOL0     H23731   3.800  11.569   6.494  0.9527 -0.1598 -0.1987
  176MOL0     H23732   3.916  11.564   6.774 -0.1439  0.8805 -1.0332
  176MOL0     H23733   3.861  11.405   6.719 -0.8844 -0.0766  1.4150
  176MOL0     H23734   4.076  11.581   6.599  2.7287 -0.8152 -2.2053
  176MOL0     H23735   4.001  11.448   6.513  1.8654  2.7839 -1.6832
  176MOL0     H23736   4.137  11.429   6.772 -0.7214 -0.7760  0.3992
  176MOL0     H23737   4.064  11.287   6.685 -0.2449 -0.2465  2.3881
  176MOL0     H23738   4.294  11.483   6.597  1.0004 -0.5583 -0.7012
  176MOL0     H23739   4.246  11.361   6.498  1.5032  0.0720 -0.4485
  176MOL0     H23740   4.359  11.312   6.792  1.8271 -1.4224  0.0198
  176MOL0     H23741   4.448  11.321   6.642 -1.7618  1.1893 -0.4556
  176MOL0     H23742   3.364  11.761   6.446 -2.7450  0.9178  3.2368
  176MOL0     H23743   3.143  11.787   6.357 -0.7504 -0.3961  3.7690
  176MOL0     H23744   2.918  11.659   5.975  0.0621 -0.5834 -0.0193
  176MOL0     H23745   2.737  11.655   5.816 -0.1650 -3.6660  0.4739
  176MOL0     H23746   1.941  10.379   5.368 -0.1551 -0.0358 -0.3672
  176MOL0     H23747   2.143  10.367   5.254  1.9915  0.0897  0.6788
  176MOL0     H23748   2.404  10.404   5.003  0.3233  2.0695 -3.6820
  176MOL0     H23749   2.590  10.323   4.886  0.6886  0.1538  0.5091
  176MOL0     H23750   2.944  10.546   4.859 -0.1914  0.7599  1.8798
  176MOL0     H23751   3.022  10.415   4.946 -1.7180 -3.0749  0.0728
  176MOL0     H23752   3.077  10.428   4.691  3.4955 -3.4106  2.3702
  176MOL0     H23753   2.904  10.361   4.667 -0.6583 -0.8383 -0.1527
  176MOL0     H23754   3.027  10.167   4.673  0.2886  1.7258 -0.8192
  176MOL0     H23755   3.001  10.173   4.842 -1.0646 -2.1850 -1.2137
  176MOL0     H23756   3.230  10.268   4.874 -0.5370 -0.2946  0.4164
  176MOL0     H23757   3.234  10.298   4.697 -2.4836  0.7458 -0.4275
  176MOL0     H23758   3.352   9.894   4.776  1.4294  1.2249  2.4973
  176MOL0     H23759   2.853  10.581   5.096 -0.9316  0.2530  2.2294
  176MOL0     H23760   2.674  10.663   5.219  0.6120 -0.7544 -1.5969
  177MOL0     O23761   7.792   3.300   6.659 -0.3720  0.1705  0.2336
  177MOL0     C23762   7.815   3.197   6.596 -0.8155  0.3274  0.5813
  177MOL0     O23763   7.753   3.147   6.485 -0.2322 -1.1694  0.4894
  177MOL0     C23764   7.656   3.218   6.428  0.4875  0.0700 -0.1840
  177MOL0     C23765   7.659   3.186   6.296  0.3207 -0.4560  0.1381
  177MOL0     C23766   7.548   3.242   6.224  0.0430  0.3223  0.3464
  177MOL0     C23767   7.446   3.312   6.288 -0.1320  0.4328  0.5309
  177MOL0     O23768   7.354   3.359   6.194  0.2469 -0.0215 -0.1144
  177MOL0     C23769   7.252   3.451   6.234  0.0228  0.0805  0.0136
  177MOL0     C23770   7.157   3.459   6.113  0.0130 -0.5373 -0.3941
  177MOL0     C23771   7.048   3.562   6.143  0.0637  0.9167 -0.1693
  177MOL0     C23772   6.945   3.586   6.030 -0.5820  0.2543  0.1396
  177MOL0     C23773   6.834   3.686   6.067  0.1504  1.0454  0.2634
  177MOL0     C23774   6.720   3.610   6.137 -0.8220  0.9832  0.6615
  177MOL0     C23775   6.586   3.666   6.101 -0.7434  0.5233 -0.1826
  177MOL0     C23776   6.468   3.597   6.157  0.1084 -0.1071 -0.2191
  177MOL0     N23777   6.342   3.647   6.090 -0.0881  0.5814 -0.6163
  177MOL0     C23778   6.222   3.585   6.107 -0.0354 -0.2718 -0.1741
  177MOL0     C23779   6.132   3.663   6.036 -0.2066 -0.5863 -1.2037
  177MOL0     C23780   5.982   3.643   6.014  1.4172  0.4720 -0.4017
  177MOL0     C23781   5.908   3.747   5.944 -0.1430  0.7566  1.0292
  177MOL0     C23782   5.760   3.726   5.949  0.6369 -0.6728  0.1154
  177MOL0     C23783   5.713   3.584   5.907  0.3661 -0.5790 -0.6618
  177MOL0     O23784   5.581   3.603   5.849  0.0997 -0.1041  0.5139
  177MOL0     C23785   5.520   3.490   5.804  0.1330 -0.8558  0.1482
  177MOL0     C23786   5.553   3.361   5.828 -0.2354 -0.7633 -0.4189
  177MOL0     C23787   5.494   3.247   5.776  0.1586  0.9800 -0.5627
  177MOL0     C23788   5.532   3.105   5.829 -0.1037  0.1983  0.5038
  177MOL0     C23789   5.405   3.269   5.671  0.4908 -0.0629 -1.0143
  177MOL0     C23790   5.342   3.157   5.604 -0.7708  0.4893 -0.1549
  177MOL0     O23791   5.211   3.159   5.588  0.1886 -0.2233  0.3150
  177MOL0     C23792   5.153   3.064   5.502 -0.0107  0.5850 -0.4543
  177MOL0     C23793   5.065   3.095   5.396 -0.5943 -0.4547 -0.1819
  177MOL0     C23794   4.997   2.999   5.328  0.7034 -0.6286 -0.1014
  177MOL0     C23795   5.013   2.867   5.364 -0.1307  1.4015  0.2466
  177MOL0     O23796   4.943   2.762   5.315  1.0941 -0.2598  0.7614
  177MOL0     C23797   4.820   2.790   5.240  0.0857  0.3158  0.2653
  177MOL0     C23798   4.739   2.659   5.234  0.1866 -0.1270  0.1768
  177MOL0     C23799   4.799   2.538   5.173 -0.2177  0.2288 -0.4094
  177MOL0     C23800   4.811   2.558   5.019 -0.2824 -0.8283  0.3203
  177MOL0     C23801   4.887   2.442   4.943  0.8076  0.2332 -0.8353
  177MOL0     C23802   5.029   2.410   4.993 -0.4161 -0.3394 -0.3307
  177MOL0     C23803   5.104   2.358   4.874  0.0393  0.6429 -0.0464
  177MOL0     C23804   5.248   2.316   4.887  0.6071  0.4152  0.5878
  177MOL0    Cl23805   5.255   2.187   5.009  0.4211 -0.1736 -0.0517
  177MOL0     C23806   5.092   2.835   5.476 -0.4992 -0.2880  0.5981
  177MOL0     C23807   5.152   2.934   5.547  0.4747 -0.2775 -0.9641
  177MOL0     O23808   5.415   3.078   5.547  0.1183 -0.3297  0.2185
  177MOL0     C23809   5.351   3.392   5.650  0.4527 -0.2710  0.6869
  177MOL0     C23810   5.417   3.508   5.711  0.1362  0.0446  0.2511
  177MOL0     N23811   6.212   3.755   5.964  0.0826  0.1105 -0.4864
  177MOL0     N23812   6.327   3.753   6.012 -0.4985 -1.1026  0.6519
  177MOL0     C23813   7.442   3.336   6.418  0.2942  0.6189 -0.8548
  177MOL0     C23814   7.547   3.286   6.503 -0.5436  1.0786  0.6710
  177MOL0     C23815   7.927   3.108   6.651 -0.4713  0.4492  0.2752
  177MOL0     C23816   8.022   3.161   6.741 -0.5810  0.0175 -0.5664
  177MOL0     C23817   8.129   3.081   6.805  0.2235  0.4722 -0.1862
  177MOL0     C23818   8.140   2.947   6.766  0.6422 -0.1808 -0.5314
  177MOL0     O23819   8.240   2.872   6.817 -0.5416 -0.7722  0.1676
  177MOL0     C23820   8.283   2.764   6.737  0.1750  0.2307 -0.2238
  177MOL0     C23821   8.406   2.692   6.794 -0.1463  0.0367 -0.3141
  177MOL0     C23822   8.368   2.606   6.916  0.5329  0.4387 -1.2618
  177MOL0     C23823   8.491   2.578   7.000 -0.0598 -0.5536  0.8055
  177MOL0     C23824   8.542   2.707   7.063  0.0730 -0.3347 -0.4658
  177MOL0     C23825   8.586   2.795   7.137  0.0742  0.5544  0.4899
  177MOL0     C23826   8.044   2.897   6.678  0.1450 -0.1710  0.2450
  177MOL0     C23827   7.938   2.971   6.632  0.5453 -0.4545 -0.3764
  177MOL0     H23828   7.742   3.129   6.256  0.5029 -2.6983  3.4060
  177MOL0     H23829   7.547   3.226   6.117 -0.1130 -0.4246  0.4534
  177MOL0     H23830   7.202   3.415   6.325 -2.3294  1.5459 -0.6103
  177MOL0     H23831   7.286   3.550   6.266 -0.0063 -0.7656  2.9828
  177MOL0     H23832   7.213   3.474   6.021  0.1082 -1.0918 -0.4301
  177MOL0     H23833   7.109   3.361   6.105 -1.6229  0.3729 -2.6407
  177MOL0     H23834   6.989   3.537   6.232 -0.9873 -2.0388 -1.5396
  177MOL0     H23835   7.092   3.661   6.158 -0.0540  0.8716  0.5383
  177MOL0     H23836   7.002   3.630   5.947 -1.0197  0.0875 -0.2489
  177MOL0     H23837   6.913   3.489   5.991 -0.2814  0.6895 -1.2206
  177MOL0     H23838   6.888   3.755   6.131  1.0301  0.3605  0.2741
  177MOL0     H23839   6.803   3.742   5.978  0.9045  2.9928  1.1943
  177MOL0     H23840   6.718   3.502   6.126 -1.6480  0.7611  2.5014
  177MOL0     H23841   6.729   3.622   6.246  0.5148  1.1827  0.5492
  177MOL0     H23842   6.580   3.772   6.128  0.1006  0.7204 -0.7242
  177MOL0     H23843   6.582   3.664   5.992  2.5558  0.6869 -0.4167
  177MOL0     H23844   6.455   3.611   6.265 -0.9714  1.0038 -0.4663
  177MOL0     H23845   6.486   3.490   6.143  0.8022 -0.6090  3.5098
  177MOL0     H23846   6.187   3.497   6.160 -1.7439  0.9931  0.8956
  177MOL0     H23847   5.968   3.547   5.963 -1.3039  0.9042 -0.6021
  177MOL0     H23848   5.933   3.633   6.111  1.1403  2.3997 -0.3089
  177MOL0     H23849   5.942   3.745   5.840 -1.3527 -0.7828  0.6226
  177MOL0     H23850   5.928   3.844   5.991  0.7487  1.6836 -1.1670
  177MOL0     H23851   5.716   3.802   5.884  0.1277 -0.0721  1.1374
  177MOL0     H23852   5.706   3.760   6.038 -0.5744 -0.9538 -0.4922
  177MOL0     H23853   5.706   3.518   5.994 -0.5033  1.6550  1.0713
  177MOL0     H23854   5.790   3.547   5.840  2.8895 -0.7650  2.1470
  177MOL0     H23855   5.632   3.345   5.901 -2.5264 -2.2841  1.9349
  177MOL0     H23856   5.594   3.123   5.917  0.2082  2.0934 -0.0597
  177MOL0     H23857   5.439   3.052   5.852  0.3314 -0.2898  1.1581
  177MOL0     H23858   5.596   3.053   5.757  0.1818  2.1181 -0.7085
  177MOL0     H23859   5.054   3.200   5.369  3.0142  0.7339  2.2425
  177MOL0     H23860   4.931   3.047   5.257  0.0190 -0.1474  0.8397
  177MOL0     H23861   4.770   2.867   5.299  2.7470  1.2955  1.3892
  177MOL0     H23862   4.836   2.824   5.138 -0.7508 -3.6395 -1.3841
  177MOL0     H23863   4.683   2.629   5.323 -0.9144 -2.4182 -1.1801
  177MOL0     H23864   4.653   2.687   5.172 -0.5317  0.5325  1.4243
  177MOL0     H23865   4.730   2.456   5.193 -0.5542  0.7176  0.4833
  177MOL0     H23866   4.894   2.509   5.220  0.4527 -0.5750 -2.1659
  177MOL0     H23867   4.710   2.574   4.980 -0.6932  0.1519  1.7115
  177MOL0     H23868   4.878   2.640   4.993 -2.9302  1.0352 -1.0061
  177MOL0     H23869   4.894   2.470   4.837  2.5375 -2.8684 -1.6852
  177MOL0     H23870   4.819   2.357   4.947  0.6557  0.3105 -1.6075
  177MOL0     H23871   5.078   2.498   5.034 -0.4025 -0.1790 -0.6808
  177MOL0     H23872   5.023   2.327   5.064 -0.5539 -3.2144 -3.3983
  177MOL0     H23873   5.102   2.440   4.801  2.6754  0.8719  0.0415
  177MOL0     H23874   5.045   2.273   4.836  1.3635 -0.8883  1.1971
  177MOL0     H23875   5.312   2.403   4.906 -0.8061  1.8127 -0.7440
  177MOL0     H23876   5.274   2.267   4.793  1.6023 -0.1939  1.1516
  177MOL0     H23877   5.079   2.733   5.509 -1.7914  0.1724  1.6140
  177MOL0     H23878   5.202   2.918   5.642  2.4639  1.2074 -1.6848
  177MOL0     H23879   5.292   3.394   5.558  1.6186 -2.8734 -0.2233
  177MOL0     H23880   5.408   3.606   5.666  0.7843 -0.3210 -0.7183
  177MOL0     H23881   7.361   3.398   6.456  0.1064  0.4040 -0.9052
  177MOL0     H23882   7.531   3.303   6.609 -3.4567 -0.9274  0.6705
  177MOL0     H23883   8.021   3.264   6.773  0.7326 -0.4706  1.2147
  177MOL0     H23884   8.202   3.128   6.870  0.2671 -1.0247  0.8985
  177MOL0     H23885   8.209   2.684   6.739 -0.1623  0.5436 -0.0886
  177MOL0     H23886   8.304   2.786   6.632  1.1537  1.0317  0.1171
  177MOL0     H23887   8.482   2.763   6.827  1.4957 -1.5711 -0.5048
  177MOL0     H23888   8.466   2.629   6.728  1.7439  1.7754 -0.3357
  177MOL0     H23889   8.334   2.512   6.873 -0.1261 -0.4042  0.9539
  177MOL0     H23890   8.286   2.646   6.976 -0.7806 -0.7009 -2.2542
  177MOL0     H23891   8.572   2.542   6.935 -1.3587  2.5297 -2.9054
  177MOL0     H23892   8.462   2.501   7.071 -2.3521 -1.9536 -1.4899
  177MOL0     H23893   8.622   2.874   7.199 -0.4776  1.1857  0.0167
  177MOL0     H23894   8.045   2.796   6.639  1.1348 -0.3814  0.7946
  177MOL0     H23895   7.868   2.931   6.560 -0.9865 -0.2750  0.9393
  178MOL0     O23896   6.942   6.808   1.456 -0.0854  0.5598  0.1563
  178MOL0     C23897   7.006   6.723   1.406 -0.3837  0.5397 -0.8032
  178MOL0     O23898   6.996   6.676   1.283 -0.0519  0.2049 -0.0102
  178MOL0     C23899   6.885   6.732   1.211  1.3197 -0.8599  0.2929
  178MOL0     C23900   6.896   6.854   1.147 -0.3897  0.2362  0.1909
  178MOL0     C23901   6.791   6.892   1.052 -0.3824 -0.0703  0.3198
  178MOL0     C23902   6.682   6.818   1.013 -0.5701  0.2265 -0.4837
  178MOL0     O23903   6.587   6.866   0.932  0.0456  0.5314  0.0744
  178MOL0     C23904   6.563   6.784   0.815 -0.7737 -0.0250 -0.8485
  178MOL0     C23905   6.415   6.804   0.775  0.4854 -0.9005  0.3981
  178MOL0     C23906   6.407   6.761   0.631  0.8540  0.0813  0.4738
  178MOL0     C23907   6.256   6.740   0.597 -0.1981 -0.1115  0.4652
  178MOL0     C23908   6.178   6.877   0.581  0.0169  0.6124 -0.4067
  178MOL0     C23909   6.211   6.934   0.441 -0.4107  0.0789 -0.3905
  178MOL0     C23910   6.120   6.869   0.333  0.9908  0.5749  0.0338
  178MOL0     C23911   5.975   6.908   0.353  0.4264  0.8038  0.2978
  178MOL0     N23912   5.883   6.851   0.248  0.3728  0.2843 -0.4084
  178MOL0     C23913   5.894   6.728   0.185 -0.1794 -0.4477  0.2002
  178MOL0     C23914   5.773   6.700   0.143 -0.6011  0.4942 -1.2261
  178MOL0     C23915   5.731   6.575   0.065  0.4601 -0.5914 -0.1164
  178MOL0     C23916   5.604   6.504   0.118 -0.2474 -0.3277  0.9654
  178MOL0     C23917   5.549   6.393   0.023 -0.5112  0.6007  0.0645
  178MOL0     C23918   5.462   6.294   0.101  0.7069  0.3512  0.2280
  178MOL0     O23919   5.345   6.360   0.150  0.1373 -0.0764  0.1462
  178MOL0     C23920   5.238   6.281   0.175 -0.8347  0.2270 -0.3488
  178MOL0     C23921   5.144   6.349   0.254 -0.9125  0.4081  0.6221
  178MOL0     C23922   5.021   6.285   0.288  0.5648  0.9146  0.1148
  178MOL0     C23923   4.934   6.356   0.382  0.7136 -0.4547 -0.4173
  178MOL0     C23924   4.992   6.152   0.248  0.9357 -0.0151  0.1670
  178MOL0     C23925   4.863   6.091   0.286 -0.1087 -0.4366  0.5783
  178MOL0     O23926   4.751   6.164   0.266 -0.4878  0.2587 -0.6960
  178MOL0     C23927   4.637   6.101   0.297 -0.1834  1.2003  0.2166
  178MOL0     C23928   4.589   6.086   0.432  0.3972 -0.9746  0.5160
  178MOL0     C23929   4.469   6.018   0.453 -0.1399  0.3513  0.9977
  178MOL0     C23930   4.390   5.977   0.354  0.5294  0.4402  0.6315
  178MOL0     O23931   4.277   5.903   0.385  0.3953 -0.3221 -0.2173
  178MOL0     C23932   4.171   5.876   0.292  0.2719  0.7945 -0.2913
  178MOL0     C23933   4.049   5.804   0.355  1.1135  0.2795 -0.0213
  178MOL0     C23934   3.967   5.910   0.443  0.0300  0.4360  0.1166
  178MOL0     C23935   3.814   5.897   0.423 -0.3322  0.4190  0.6030
  178MOL0     C23936   3.761   5.781   0.508  0.0364  0.0947 -0.8935
  178MOL0     C23937   3.606   5.758   0.493 -0.5804 -0.2731 -0.3342
  178MOL0     C23938   3.540   5.874   0.566 -0.0739  0.1570  0.5976
  178MOL0     C23939   3.390   5.848   0.578  0.6311  0.3892  0.1219
  178MOL0    Cl23940   3.317   5.870   0.413 -0.0891  0.0121 -0.3329
  178MOL0     C23941   4.440   5.986   0.217  0.7720  0.6519  0.7324
  178MOL0     C23942   4.557   6.049   0.188 -0.3282 -0.4441  0.1151
  178MOL0     O23943   4.864   5.976   0.326  0.1342  0.0783  0.6681
  178MOL0     C23944   5.089   6.076   0.182 -0.3914 -0.0878 -0.1028
  178MOL0     C23945   5.213   6.143   0.145 -0.1703 -0.4820 -0.0334
  178MOL0     N23946   5.688   6.802   0.173  0.1734 -0.3251 -0.1771
  178MOL0     N23947   5.757   6.894   0.241  0.0699  0.3363  1.2712
  178MOL0     C23948   6.679   6.693   1.079  0.3491 -0.2577  0.3257
  178MOL0     C23949   6.778   6.647   1.169  0.7165  1.0711  0.5513
  178MOL0     C23950   7.113   6.660   1.493  0.3943 -0.4599 -0.1786
  178MOL0     C23951   7.141   6.709   1.626 -0.2590  0.5094  0.5066
  178MOL0     C23952   7.251   6.652   1.699  0.6483  0.3014  0.0878
  178MOL0     C23953   7.325   6.544   1.649 -0.2811 -0.6135 -0.7461
  178MOL0     O23954   7.429   6.495   1.731 -0.1868  0.3129 -0.2728
  178MOL0     C23955   7.541   6.437   1.680  0.1252 -0.0344 -0.3074
  178MOL0     C23956   7.653   6.512   1.735 -0.6482  0.7470 -0.5553
  178MOL0     C23957   7.660   6.508   1.889  0.4703  0.8188 -0.2633
  178MOL0     C23958   7.783   6.564   1.953  0.5529  0.5398 -0.2773
  178MOL0     C23959   7.764   6.543   2.094  0.5042 -0.4553  0.3929
  178MOL0     C23960   7.773   6.541   2.217 -0.1588 -0.3465  0.2957
  178MOL0     C23961   7.295   6.496   1.519  0.5726 -0.9337  0.4942
  178MOL0     C23962   7.196   6.556   1.439  0.0796  0.2136 -0.6717
  178MOL0     H23963   6.989   6.907   1.166  0.1709 -1.6194  3.3326
  178MOL0     H23964   6.793   6.986   0.996  0.9747 -1.2022 -1.6502
  178MOL0     H23965   6.627   6.825   0.736 -0.3101  1.3807  0.2023
  178MOL0     H23966   6.590   6.680   0.836  1.6151  0.7985  0.6075
  178MOL0     H23967   6.351   6.757   0.850 -0.2382  0.5773  0.7365
  178MOL0     H23968   6.396   6.910   0.793  1.2698 -0.6689 -0.0377
  178MOL0     H23969   6.445   6.836   0.561  0.2857 -0.4347 -0.4193
  178MOL0     H23970   6.470   6.673   0.616  0.6995  0.2420 -1.3482
  178MOL0     H23971   6.256   6.686   0.501  0.5366  0.0571  0.3668
  178MOL0     H23972   6.206   6.686   0.678 -0.3421  3.6117  3.0859
  178MOL0     H23973   6.071   6.866   0.597 -0.1139  1.9704 -0.2718
  178MOL0     H23974   6.217   6.939   0.663  0.2839 -0.2447  0.1359
  178MOL0     H23975   6.187   7.041   0.435  0.1493  0.2168 -0.1894
  178MOL0     H23976   6.315   6.937   0.409 -0.2952  2.2313  0.0498
  178MOL0     H23977   6.145   6.917   0.239 -0.1483  2.8808  0.8307
  178MOL0     H23978   6.139   6.761   0.326  0.8386  0.4994  0.6868
  178MOL0     H23979   5.974   7.018   0.349  3.9232  0.9992  1.4346
  178MOL0     H23980   5.941   6.872   0.450 -1.7998  0.1699 -0.6532
  178MOL0     H23981   5.980   6.664   0.169 -1.4051 -2.2922  0.7035
  178MOL0     H23982   5.727   6.597  -0.042 -1.5083  0.6961  0.1785
  178MOL0     H23983   5.810   6.500   0.072  2.6795  1.7112  1.0002
  178MOL0     H23984   5.525   6.579   0.121 -0.6618 -0.3661 -3.4193
  178MOL0     H23985   5.618   6.460   0.217 -0.9236  0.5809  1.4783
  178MOL0     H23986   5.634   6.336  -0.015 -0.5142 -0.5361  1.6488
  178MOL0     H23987   5.503   6.438  -0.066  0.7559 -1.0067 -1.4950
  178MOL0     H23988   5.518   6.256   0.187 -1.9651 -2.6881  0.7993
  178MOL0     H23989   5.442   6.210   0.033  1.0913  0.8239 -0.4842
  178MOL0     H23990   5.169   6.450   0.285  1.1930  1.2684 -3.2471
  178MOL0     H23991   4.969   6.457   0.402 -1.7490  0.1227  1.5885
  178MOL0     H23992   4.834   6.368   0.340  0.5571 -0.7699 -0.1465
  178MOL0     H23993   4.921   6.289   0.468  0.0888 -2.3383 -1.8982
  178MOL0     H23994   4.656   6.128   0.506 -1.4555  2.9949  0.2305
  178MOL0     H23995   4.441   5.997   0.556 -0.6329 -4.0128  0.1645
  178MOL0     H23996   4.135   5.968   0.245 -1.4857  0.0777 -0.4217
  178MOL0     H23997   4.201   5.808   0.212 -1.3198 -3.6830  2.5567
  178MOL0     H23998   3.988   5.773   0.270  2.9413  1.3304 -1.7808
  178MOL0     H23999   4.082   5.722   0.421  1.2040 -2.1170 -2.8488
  178MOL0     H24000   3.995   6.009   0.406  1.9286  0.1906  0.7946
  178MOL0     H24001   3.990   5.902   0.549 -2.6458 -3.3516  0.5981
  178MOL0     H24002   3.773   5.993   0.454 -0.2308  0.3264  1.0241
  178MOL0     H24003   3.784   5.888   0.318  2.0396  2.6142 -0.3588
  178MOL0     H24004   3.791   5.804   0.611 -2.6617 -0.8209  0.2030
  178MOL0     H24005   3.815   5.690   0.485  1.4498  0.0924  2.0585
  178MOL0     H24006   3.579   5.767   0.387  1.3501 -2.3044 -1.0932
  178MOL0     H24007   3.572   5.656   0.517 -0.7494 -0.4938 -1.4492
  178MOL0     H24008   3.549   5.970   0.515 -2.1570 -1.2316 -2.6902
  178MOL0     H24009   3.589   5.884   0.663  4.1704 -1.5674 -1.1165
  178MOL0     H24010   3.340   5.912   0.651 -0.1213 -1.4144  1.2536
  178MOL0     H24011   3.387   5.748   0.622  3.5633 -0.4300 -1.3253
  178MOL0     H24012   4.387   5.932   0.139 -0.6570 -2.7801  3.7669
  178MOL0     H24013   4.595   6.043   0.087  3.6538  2.6876  1.1747
  178MOL0     H24014   5.084   5.968   0.166 -0.1293  0.1337 -1.8197
  178MOL0     H24015   5.287   6.082   0.094  0.6960  0.1805  0.4190
  178MOL0     H24016   6.603   6.617   1.065  1.4239 -1.8172  2.4281
  178MOL0     H24017   6.773   6.543   1.200 -1.1175  0.9493  0.0195
  178MOL0     H24018   7.079   6.790   1.663 -0.1881 -0.6819  3.5048
  178MOL0     H24019   7.244   6.678   1.804  1.3888  0.1313  0.1872
  178MOL0     H24020   7.544   6.328   1.679  0.7861 -0.0175 -0.1761
  178MOL0     H24021   7.540   6.458   1.572 -1.9866  1.0757 -0.1337
  178MOL0     H24022   7.664   6.616   1.701  0.3816  0.1587 -2.1775
  178MOL0     H24023   7.738   6.456   1.695 -1.3840  0.5486 -1.9163
  178MOL0     H24024   7.650   6.403   1.917 -0.6239  1.1122  0.5189
  178MOL0     H24025   7.571   6.558   1.926  0.2291 -1.2443  2.1845
  178MOL0     H24026   7.803   6.671   1.943  2.6462  0.3602  1.2486
  178MOL0     H24027   7.862   6.503   1.907 -1.1299 -2.5759  0.7093
  178MOL0     H24028   7.785   6.519   2.321  0.4389  1.0600  0.5480
  178MOL0     H24029   7.352   6.418   1.469  0.0199 -0.0103 -1.7317
  178MOL0     H24030   7.181   6.521   1.337 -1.1702  0.4012 -0.5640
  179MOL0     O24031   7.671  10.804   7.960  0.2012 -0.2054 -0.0256
  179MOL0     C24032   7.687  10.784   8.082  0.5260 -0.4769  0.8938
  179MOL0     O24033   7.594  10.759   8.168 -0.2731 -0.1337 -1.1255
  179MOL0     C24034   7.462  10.765   8.135  0.0005 -0.0762 -0.4850
  179MOL0     C24035   7.397  10.886   8.108  0.5942 -0.2785 -0.7211
  179MOL0     C24036   7.254  10.893   8.093 -0.0215  0.1678 -0.2316
  179MOL0     C24037   7.182  10.774   8.061 -0.2264  0.6569 -0.1604
  179MOL0     O24038   7.050  10.771   8.039  0.1412 -0.1049  0.3497
  179MOL0     C24039   7.024  10.750   7.898 -0.3740  0.4644 -0.0971
  179MOL0     C24040   6.926  10.626   7.889 -0.6447  0.4935 -0.1024
  179MOL0     C24041   6.789  10.675   7.921  0.4456 -0.8155 -0.8031
  179MOL0     C24042   6.728  10.763   7.812 -0.3875  0.0360  0.7808
  179MOL0     C24043   6.583  10.723   7.774  0.6717 -0.2186  0.2737
  179MOL0     C24044   6.505  10.850   7.719  0.5177 -0.0582 -0.3812
  179MOL0     C24045   6.361  10.821   7.693 -0.2871  1.1427 -0.9569
  179MOL0     C24046   6.305  10.946   7.622 -0.2650 -0.6040 -0.5051
  179MOL0     N24047   6.176  10.924   7.575 -0.5136 -0.0355  0.6104
  179MOL0     C24048   6.141  10.919   7.441  0.6686 -0.1233 -0.1341
  179MOL0     C24049   6.006  10.917   7.447 -0.0579  0.8842 -0.2323
  179MOL0     C24050   5.904  10.918   7.330 -0.2361 -0.0506  0.5234
  179MOL0     C24051   5.793  11.023   7.338  0.8651 -0.4428  0.0110
  179MOL0     C24052   5.853  11.159   7.324  0.6822  0.5067  0.0003
  179MOL0     C24053   5.751  11.265   7.337 -0.5762 -0.3667 -1.0054
  179MOL0     O24054   5.655  11.253   7.230 -1.1580 -0.1572  0.8520
  179MOL0     C24055   5.538  11.311   7.227  0.6823 -0.3699 -0.7193
  179MOL0     C24056   5.472  11.356   7.339  1.1708 -0.2362  0.5678
  179MOL0     C24057   5.354  11.433   7.323 -0.0439 -0.6884 -0.8398
  179MOL0     C24058   5.264  11.473   7.439  0.0732  0.0406  0.3449
  179MOL0     C24059   5.303  11.457   7.189 -0.8950  0.4882  0.6850
  179MOL0     C24060   5.166  11.490   7.159  0.5171  0.1420  0.3187
  179MOL0     O24061   5.099  11.583   7.232 -0.3845  0.2776 -0.0018
  179MOL0     C24062   4.966  11.604   7.215  0.4005 -0.4646  0.1223
  179MOL0     C24063   4.904  11.661   7.101  0.6288 -0.6990 -0.8893
  179MOL0     C24064   4.763  11.667   7.080  0.0086  0.0455 -0.5334
  179MOL0     C24065   4.682  11.608   7.176 -1.2285  0.2211  0.7874
  179MOL0     O24066   4.549  11.604   7.169  0.5086  0.1792  1.1811
  179MOL0     C24067   4.479  11.670   7.058  0.0870  0.6676 -0.4385
  179MOL0     C24068   4.325  11.685   7.068  0.4941 -0.4981 -0.6220
  179MOL0     C24069   4.255  11.542   7.071 -0.4638  0.4154  0.2202
  179MOL0     C24070   4.100  11.547   7.091 -0.0444 -0.1939  0.2974
  179MOL0     C24071   4.058  11.402   7.114 -0.2507 -1.4635 -0.2120
  179MOL0     C24072   3.903  11.375   7.140  0.2748  0.1086 -0.5501
  179MOL0     C24073   3.809  11.423   7.027 -0.3951  0.4776 -0.4644
  179MOL0     C24074   3.663  11.424   7.071 -0.1916 -0.8975 -0.1088
  179MOL0    Cl24075   3.609  11.258   7.082 -0.1880  0.4079  0.0659
  179MOL0     C24076   4.740  11.546   7.288  0.6719  0.8928 -0.6065
  179MOL0     C24077   4.879  11.545   7.308 -0.0109  0.0568  0.0542
  179MOL0     O24078   5.109  11.420   7.072  0.7514  0.4148  0.7511
  179MOL0     C24079   5.380  11.411   7.081  0.6642 -0.7726  0.0167
  179MOL0     C24080   5.489  11.327   7.105 -1.4822  0.3405  0.8305
  179MOL0     N24081   5.964  10.931   7.582 -0.5509 -0.0026  0.1736
  179MOL0     N24082   6.066  10.931   7.659  0.3264 -0.8018 -0.2377
  179MOL0     C24083   7.249  10.655   8.092 -0.6309 -0.1161  0.6280
  179MOL0     C24084   7.380  10.648   8.135 -0.3688 -0.4009 -0.3363
  179MOL0     C24085   7.823  10.775   8.131 -0.7034  0.5424  0.4500
  179MOL0     C24086   7.918  10.727   8.035 -0.2596  0.5470  0.3741
  179MOL0     C24087   8.056  10.718   8.070 -0.7343 -0.7844 -0.4994
  179MOL0     C24088   8.100  10.752   8.200  1.4798 -0.5106  0.0848
  179MOL0     O24089   8.234  10.728   8.224 -0.6796  0.9581 -0.1215
  179MOL0     C24090   8.281  10.743   8.356 -0.4360 -0.7683  0.2671
  179MOL0     C24091   8.229  10.625   8.443  0.0317 -0.1170  0.6865
  179MOL0     C24092   8.287  10.645   8.584 -0.6355  0.1228  0.0133
  179MOL0     C24093   8.183  10.623   8.695 -0.2235  0.5642 -0.0572
  179MOL0     C24094   8.079  10.722   8.694  0.5252  0.7312 -0.2056
  179MOL0     C24095   7.978  10.784   8.689 -0.2618 -0.2961 -0.5164
  179MOL0     C24096   8.002  10.801   8.288  0.8527  0.4554 -0.3384
  179MOL0     C24097   7.871  10.821   8.252  0.9811 -0.2782 -0.2741
  179MOL0     H24098   7.467  10.969   8.115  1.9350 -1.4619  0.5066
  179MOL0     H24099   7.198  10.986   8.093 -0.2941  0.0153  0.4448
  179MOL0     H24100   6.981  10.842   7.857  0.2352  1.3481  1.1878
  179MOL0     H24101   7.111  10.722   7.838 -1.5581 -0.3693 -1.5119
  179MOL0     H24102   6.927  10.564   7.799 -1.2710 -2.7247  1.9215
  179MOL0     H24103   6.941  10.555   7.972  0.4111 -1.5390 -1.9331
  179MOL0     H24104   6.722  10.595   7.956 -1.2625  0.4570 -1.0122
  179MOL0     H24105   6.790  10.733   8.014 -0.4072 -1.3857 -0.4200
  179MOL0     H24106   6.732  10.866   7.848  3.4238  0.5912 -0.8092
  179MOL0     H24107   6.794  10.749   7.726 -1.5670  1.0631 -0.3335
  179MOL0     H24108   6.592  10.653   7.691 -0.4551  1.1170 -1.0424
  179MOL0     H24109   6.529  10.681   7.860 -3.3829  2.3970 -0.6802
  179MOL0     H24110   6.511  10.926   7.798  3.8585 -2.0026  1.4784
  179MOL0     H24111   6.551  10.892   7.629  2.4847 -0.6432  0.2948
  179MOL0     H24112   6.356  10.742   7.618  2.5758 -1.1644  1.0979
  179MOL0     H24113   6.308  10.804   7.787  2.9482  1.1323  0.9956
  179MOL0     H24114   6.369  10.979   7.540 -1.1349  3.2367  0.1939
  179MOL0     H24115   6.304  11.024   7.698 -0.2651 -0.5955 -0.5142
  179MOL0     H24116   6.195  10.932   7.348 -0.7529 -2.6826 -1.4151
  179MOL0     H24117   5.947  10.943   7.232  2.6412 -0.1372  1.6675
  179MOL0     H24118   5.859  10.819   7.345 -1.8549  0.5224 -0.2602
  179MOL0     H24119   5.740  11.024   7.434 -3.0527  2.1829 -1.9216
  179MOL0     H24120   5.713  11.008   7.265  0.4031  0.9346  0.2104
  179MOL0     H24121   5.898  11.179   7.227 -1.6935  0.9304 -1.0909
  179MOL0     H24122   5.928  11.181   7.401  0.9014  3.3840 -0.9234
  179MOL0     H24123   5.802  11.361   7.328  2.5284 -2.0259 -2.6105
  179MOL0     H24124   5.700  11.250   7.433  2.6042 -0.1322  0.8462
  179MOL0     H24125   5.509  11.345   7.441 -0.8113 -0.3238  1.3414
  179MOL0     H24126   5.314  11.449   7.533 -0.3252  1.7872  1.0514
  179MOL0     H24127   5.248  11.581   7.433 -1.7614 -0.0857  1.8095
  179MOL0     H24128   5.171  11.415   7.436  1.3406 -2.0397 -1.4113
  179MOL0     H24129   4.963  11.698   7.018  0.7763  2.7965  0.5973
  179MOL0     H24130   4.729  11.718   6.991 -1.1441  0.6128  0.2109
  179MOL0     H24131   4.527  11.766   7.042  1.3025  0.3007  0.8099
  179MOL0     H24132   4.488  11.610   6.966 -0.5502  1.5666 -1.1054
  179MOL0     H24133   4.303  11.748   7.155  2.7039 -0.6354  0.1023
  179MOL0     H24134   4.297  11.743   6.980  1.4186 -0.5327 -0.9555
  179MOL0     H24135   4.308  11.488   7.149 -0.9144 -2.1647 -1.1382
  179MOL0     H24136   4.275  11.483   6.980 -1.8064 -0.8560  0.7039
  179MOL0     H24137   4.083  11.605   7.182  0.7069 -1.7692  1.4991
  179MOL0     H24138   4.052  11.594   7.004  0.6673  0.3725  0.2045
  179MOL0     H24139   4.126  11.347   7.179  1.7333  1.0361 -0.0217
  179MOL0     H24140   4.078  11.376   7.009 -0.7713  3.2642 -1.7178
  179MOL0     H24141   3.895  11.266   7.143  1.2390  0.0120 -1.0351
  179MOL0     H24142   3.867  11.403   7.239  1.7695 -0.8570  0.2996
  179MOL0     H24143   3.824  11.358   6.940 -4.2416 -0.8781 -0.3162
  179MOL0     H24144   3.832  11.529   7.011 -0.0430  0.5190  0.2693
  179MOL0     H24145   3.590  11.486   7.017  0.2794  0.3375  0.6430
  179MOL0     H24146   3.664  11.474   7.169  0.5584 -1.5422  0.2206
  179MOL0     H24147   4.683  11.487   7.360  4.1316 -1.9353  0.0487
  179MOL0     H24148   4.937  11.486   7.379 -0.5162 -0.7278 -0.1684
  179MOL0     H24149   5.329  11.427   6.987  0.3545  0.9399  0.4427
  179MOL0     H24150   5.532  11.269   7.024  0.5351 -0.5267  2.4291
  179MOL0     H24151   7.194  10.565   8.069 -0.1932 -0.5226  1.1138
  179MOL0     H24152   7.425  10.550   8.146  0.3275 -0.1835 -1.0929
  179MOL0     H24153   7.894  10.712   7.930 -1.3718  2.9942  0.2348
  179MOL0     H24154   8.130  10.677   8.002  2.1368  0.6263  1.5706
  179MOL0     H24155   8.389  10.727   8.359 -0.0799  0.7523 -1.7601
  179MOL0     H24156   8.255  10.843   8.392 -0.6054 -0.6003 -0.3063
  179MOL0     H24157   8.265  10.532   8.397  0.2262  0.6239 -0.7148
  179MOL0     H24158   8.121  10.622   8.454  0.0589 -2.8986  0.9738
  179MOL0     H24159   8.320  10.750   8.588 -0.2539  0.0202  3.9289
  179MOL0     H24160   8.374  10.580   8.599 -1.2390 -0.6480  0.2258
  179MOL0     H24161   8.227  10.617   8.795 -1.8692 -2.8714  0.6215
  179MOL0     H24162   8.153  10.518   8.684  3.4173 -0.7479  0.9570
  179MOL0     H24163   7.898  10.853   8.708  0.8595  1.0208 -0.4145
  179MOL0     H24164   8.029  10.811   8.393 -4.5064 -0.0765  1.3762
  179MOL0     H24165   7.798  10.868   8.317  0.7409 -0.5845 -0.3229
  180MOL0     O24166   1.750   8.356   1.691 -0.8408 -0.0332 -0.0900
  180MOL0     C24167   1.733   8.425   1.796  0.1351  0.4754  0.7057
  180MOL0     O24168   1.609   8.460   1.849 -1.3335  0.3265  0.4320
  180MOL0     C24169   1.499   8.401   1.804 -0.2687  0.6055 -0.1731
  180MOL0     C24170   1.463   8.278   1.855 -0.3520 -0.1899 -0.7794
  180MOL0     C24171   1.333   8.229   1.840  0.1373  0.9496  0.0373
  180MOL0     C24172   1.238   8.290   1.762 -0.6195  0.1473  0.4321
  180MOL0     O24173   1.122   8.218   1.739  0.4718 -0.3754 -0.8125
  180MOL0     C24174   1.076   8.225   1.599 -0.4442 -0.1232 -0.4592
  180MOL0     C24175   0.938   8.283   1.590  0.2941 -0.7596  0.5093
  180MOL0     C24176   0.859   8.226   1.470 -0.3029 -0.3625  0.5322
  180MOL0     C24177   0.818   8.082   1.488  0.1482 -0.3358 -0.1585
  180MOL0     C24178   0.742   8.029   1.360  0.6809 -0.6790  0.1966
  180MOL0     C24179   0.596   8.055   1.364  0.5973  0.0666  0.6259
  180MOL0     C24180   0.520   7.967   1.472 -0.6320 -0.2831 -0.3713
  180MOL0     C24181   0.419   8.046   1.552 -0.2275 -0.1945  0.2609
  180MOL0     N24182   0.346   7.965   1.659  0.0568  0.0642  0.0058
  180MOL0     C24183   0.346   7.997   1.790 -0.1820 -0.0404  0.2765
  180MOL0     C24184   0.288   7.887   1.845  0.4690 -0.3361  0.3872
  180MOL0     C24185   0.269   7.871   1.993 -0.1890  0.1613 -0.0081
  180MOL0     C24186   0.124   7.901   2.038  0.2607 -0.0789 -0.5073
  180MOL0     C24187   0.093   7.890   2.186 -0.6466  0.3635 -0.3718
  180MOL0     C24188  -0.062   7.871   2.206 -0.4568  0.2192  0.0392
  180MOL0     O24189  -0.105   7.883   2.344 -0.9079  0.1511 -0.0003
  180MOL0     C24190  -0.234   7.875   2.377  0.5619 -1.1095  0.6425
  180MOL0     C24191  -0.336   7.875   2.278 -0.3034  1.6931 -0.1195
  180MOL0     C24192  -0.470   7.889   2.310 -0.5166 -0.6881 -0.0599
  180MOL0     C24193  -0.569   7.896   2.196  0.0647 -0.3070  0.0058
  180MOL0     C24194  -0.514   7.899   2.445  0.0514  0.2443 -0.2656
  180MOL0     C24195  -0.655   7.912   2.481 -0.2056 -0.3663 -1.0756
  180MOL0     O24196  -0.755   7.870   2.400 -0.8002 -0.4089 -0.4105
  180MOL0     C24197  -0.891   7.904   2.419  0.5104  0.4291 -0.6073
  180MOL0     C24198  -0.977   7.929   2.311  0.0834 -0.1332  0.5720
  180MOL0     C24199  -1.120   7.956   2.319  0.1689 -0.3083  0.4283
  180MOL0     C24200  -1.176   7.962   2.446  0.0199 -0.5448  0.5270
  180MOL0     O24201  -1.309   7.994   2.449 -0.2195  0.1538 -0.0261
  180MOL0     C24202  -1.365   8.040   2.572 -0.2335 -0.5330  0.0698
  180MOL0     C24203  -1.487   8.124   2.557 -0.0135 -0.4501  0.2267
  180MOL0     C24204  -1.589   8.031   2.500  0.3664  1.1475  0.4032
  180MOL0     C24205  -1.743   8.066   2.513 -0.3675 -0.4313  0.8781
  180MOL0     C24206  -1.823   7.963   2.441 -1.1239 -0.2609  0.6544
  180MOL0     C24207  -1.975   7.984   2.422 -0.0732 -0.2038 -0.7433
  180MOL0     C24208  -2.030   8.063   2.540  0.5236  0.5865 -0.0907
  180MOL0     C24209  -2.182   8.090   2.527 -0.6931  0.8504 -0.4126
  180MOL0    Cl24210  -2.256   8.114   2.690  0.0909 -0.2944  0.2645
  180MOL0     C24211  -1.094   7.943   2.562 -0.5060  0.0190 -0.1200
  180MOL0     C24212  -0.952   7.919   2.551 -0.4029 -0.0478  0.5839
  180MOL0     O24213  -0.673   7.969   2.589  0.8169  0.4320 -0.0162
  180MOL0     C24214  -0.415   7.898   2.543 -0.6172 -0.1267 -0.2203
  180MOL0     C24215  -0.274   7.873   2.512  0.5175  0.0023  0.5266
  180MOL0     N24216   0.259   7.792   1.747 -0.1509 -0.6761  0.1822
  180MOL0     N24217   0.297   7.835   1.635  0.0611 -0.1064  0.0244
  180MOL0     C24218   1.284   8.407   1.692  0.5736  0.6045  0.4554
  180MOL0     C24219   1.404   8.465   1.726  0.1372 -0.0556 -0.0553
  180MOL0     C24220   1.847   8.493   1.852 -0.7821  0.7964  0.4433
  180MOL0     C24221   1.974   8.460   1.817 -0.9347 -0.9590  0.1544
  180MOL0     C24222   2.083   8.539   1.876 -0.0184 -0.1220 -0.7741
  180MOL0     C24223   2.058   8.640   1.968  0.4303  0.8365 -1.1918
  180MOL0     O24224   2.156   8.715   2.032 -0.3573 -0.1899  0.1855
  180MOL0     C24225   2.298   8.670   2.033  0.0978  0.2845 -0.1062
  180MOL0     C24226   2.394   8.792   2.058 -0.2101  0.1363 -0.1122
  180MOL0     C24227   2.547   8.752   2.029 -0.3165  0.4617  0.5107
  180MOL0     C24228   2.644   8.871   2.057 -1.0569 -0.2153 -0.3842
  180MOL0     C24229   2.647   8.888   2.205 -0.6209  0.1101  0.0752
  180MOL0     C24230   2.664   8.894   2.320  0.4692 -0.2139  0.2536
  180MOL0     C24231   1.933   8.663   2.001 -0.8040  0.4243 -1.4038
  180MOL0     C24232   1.828   8.586   1.952  0.5721  0.3935  0.0756
  180MOL0     H24233   1.530   8.218   1.915 -3.6030 -1.6817  1.7019
  180MOL0     H24234   1.307   8.138   1.895  2.5862  0.5116  0.5661
  180MOL0     H24235   1.145   8.277   1.531  1.8101 -3.2562 -0.7570
  180MOL0     H24236   1.061   8.123   1.565 -2.1157 -0.4523  1.0817
  180MOL0     H24237   0.889   8.258   1.685 -0.2262  1.9275  1.0075
  180MOL0     H24238   0.946   8.391   1.579  1.9097 -0.5920  2.6779
  180MOL0     H24239   0.766   8.283   1.459  1.1950  2.3443  1.0668
  180MOL0     H24240   0.916   8.229   1.377  1.8249 -2.4721  1.6599
  180MOL0     H24241   0.903   8.017   1.511 -0.3308 -0.0978  2.5740
  180MOL0     H24242   0.752   8.066   1.574  0.1280  0.7712  0.0420
  180MOL0     H24243   0.792   8.072   1.272 -0.2239 -1.3275 -0.6554
  180MOL0     H24244   0.761   7.922   1.345 -0.9148 -0.7348 -1.8581
  180MOL0     H24245   0.575   8.161   1.381 -2.9952  0.1934 -3.0916
  180MOL0     H24246   0.556   8.029   1.266 -0.9426 -0.1801  1.2864
  180MOL0     H24247   0.462   7.883   1.434 -1.9090 -1.4834  3.7255
  180MOL0     H24248   0.594   7.931   1.544  0.2668 -1.5971 -1.8657
  180MOL0     H24249   0.347   8.090   1.482 -0.5972 -0.4036  0.5053
  180MOL0     H24250   0.468   8.128   1.606 -0.9032  1.8865 -2.1299
  180MOL0     H24251   0.379   8.089   1.838 -0.7463  0.8018 -0.9124
  180MOL0     H24252   0.284   7.765   2.014 -0.5647  0.7978  4.4299
  180MOL0     H24253   0.342   7.928   2.052  1.4859 -0.1806 -1.6377
  180MOL0     H24254   0.065   7.834   1.975  1.5202 -1.2738 -0.4550
  180MOL0     H24255   0.094   7.999   1.999  1.9053 -0.7551 -3.8260
  180MOL0     H24256   0.128   7.973   2.249  0.6240 -1.7518  1.9199
  180MOL0     H24257   0.151   7.803   2.220  1.9813  1.5349 -1.6477
  180MOL0     H24258  -0.078   7.769   2.171  0.4463 -0.4597  1.4902
  180MOL0     H24259  -0.114   7.946   2.146  0.6939  1.3392  0.3927
  180MOL0     H24260  -0.311   7.850   2.175  2.0737 -0.7213  0.9356
  180MOL0     H24261  -0.520   7.896   2.098  0.0114 -0.0449 -0.0202
  180MOL0     H24262  -0.625   7.802   2.190  0.7067 -0.8282  1.6473
  180MOL0     H24263  -0.624   7.990   2.194  0.9013  0.2996  2.5403
  180MOL0     H24264  -0.930   7.932   2.213 -1.0163  0.8600  0.0623
  180MOL0     H24265  -1.170   7.970   2.224  1.6063 -0.2047 -0.3427
  180MOL0     H24266  -1.382   7.956   2.640 -2.3393  0.4434  0.8062
  180MOL0     H24267  -1.287   8.096   2.625  0.0909 -0.4374 -0.4920
  180MOL0     H24268  -1.527   8.156   2.654 -1.4337 -2.9514  0.5635
  180MOL0     H24269  -1.476   8.217   2.500 -1.4089  0.3887  1.2663
  180MOL0     H24270  -1.587   7.930   2.542 -3.1595 -0.0754 -1.9126
  180MOL0     H24271  -1.561   8.007   2.397  2.8539 -0.2081  1.3080
  180MOL0     H24272  -1.767   8.078   2.619 -0.0160  1.3264  0.7841
  180MOL0     H24273  -1.773   8.161   2.469  2.5650  0.3922  0.4441
  180MOL0     H24274  -1.809   7.866   2.490  1.1844 -0.3329 -0.0703
  180MOL0     H24275  -1.775   7.936   2.347 -0.6218 -2.2583  1.4322
  180MOL0     H24276  -1.975   8.041   2.329  2.7827  0.3228 -0.5177
  180MOL0     H24277  -2.033   7.892   2.407  1.8692 -2.2629  2.8930
  180MOL0     H24278  -1.980   8.158   2.563 -1.0310  0.3881  5.9136
  180MOL0     H24279  -2.015   7.998   2.627  0.3031  1.7631  0.8469
  180MOL0     H24280  -2.227   7.998   2.488 -1.6936  1.1591 -0.0175
  180MOL0     H24281  -2.207   8.176   2.464 -2.3178 -0.1525 -1.2254
  180MOL0     H24282  -1.134   7.975   2.658 -0.1523 -2.9035  1.1016
  180MOL0     H24283  -0.892   7.915   2.641  0.6681  0.0492 -0.1128
  180MOL0     H24284  -0.446   7.890   2.647  2.4019 -1.6818  0.6792
  180MOL0     H24285  -0.204   7.871   2.595  0.2634  0.3581  0.7520
  180MOL0     H24286   1.204   8.465   1.648  1.8582  1.5451 -0.7298
  180MOL0     H24287   1.414   8.572   1.710 -4.0843  0.2737 -1.8067
  180MOL0     H24288   1.984   8.386   1.738  0.0961 -1.7129  0.9644
  180MOL0     H24289   2.173   8.521   1.818 -0.4636 -0.4673 -1.3631
  180MOL0     H24290   2.319   8.610   2.121  5.9160  1.2323 -0.4801
  180MOL0     H24291   2.325   8.608   1.947  0.4688 -1.1394  1.0024
  180MOL0     H24292   2.373   8.834   2.157  0.3701 -2.1196  1.0394
  180MOL0     H24293   2.363   8.868   1.986 -0.2461 -0.7177 -1.0227
  180MOL0     H24294   2.556   8.710   1.929  0.7784  2.2348 -0.1778
  180MOL0     H24295   2.565   8.667   2.097 -0.4962  0.0144  0.0048
  180MOL0     H24296   2.603   8.963   2.014 -0.5036 -0.2029 -0.8851
  180MOL0     H24297   2.750   8.861   2.031 -0.4362 -2.5340  2.4917
  180MOL0     H24298   2.660   8.924   2.423  0.7074  3.8680 -0.7547
  180MOL0     H24299   1.929   8.743   2.074 -0.1831 -0.3933 -0.4622
  180MOL0     H24300   1.730   8.614   1.987 -0.4032  0.8760 -2.7341
  181MOL0     O24301   9.837   1.086   5.523  0.2229  0.4605  0.5792
  181MOL0     C24302   9.861   1.021   5.624  0.2033  0.1108 -1.2336
  181MOL0     O24303   9.764   0.970   5.707 -0.2721 -0.2028  0.1338
  181MOL0     C24304   9.654   1.052   5.725 -0.2372  0.1623  0.0751
  181MOL0     C24305   9.655   1.112   5.846 -0.2453 -0.1257 -0.7648
  181MOL0     C24306   9.551   1.205   5.867 -0.3327  0.6150  0.1616
  181MOL0     C24307   9.452   1.229   5.780 -0.5056  0.1402  0.2341
  181MOL0     O24308   9.356   1.312   5.824 -0.2798  0.6348 -0.0510
  181MOL0     C24309   9.232   1.319   5.760  0.2579 -0.4106 -0.3532
  181MOL0     C24310   9.127   1.343   5.860  0.4570  0.8494 -0.6262
  181MOL0     C24311   8.979   1.367   5.814  1.0672 -0.0653  0.2960
  181MOL0     C24312   8.895   1.240   5.778 -0.6771  0.1174 -0.1467
  181MOL0     C24313   8.756   1.253   5.725 -0.2743  0.1561 -0.1635
  181MOL0     C24314   8.664   1.304   5.824  0.1939  0.2450  0.0257
  181MOL0     C24315   8.520   1.308   5.784 -0.2594  0.3594  0.6410
  181MOL0     C24316   8.455   1.174   5.755 -0.0381 -0.3002  0.6915
  181MOL0     N24317   8.304   1.170   5.745 -0.0431  0.2138 -0.5947
  181MOL0     C24318   8.233   1.239   5.656  0.5977  0.1904  0.1940
  181MOL0     C24319   8.103   1.216   5.678 -0.6025 -0.7848 -0.7528
  181MOL0     C24320   7.983   1.289   5.616  0.8002 -0.2139 -0.2762
  181MOL0     C24321   7.976   1.255   5.464 -1.0269  0.2582 -0.5635
  181MOL0     C24322   7.930   1.381   5.385 -0.4072  1.0632  0.0676
  181MOL0     C24323   7.913   1.355   5.237 -0.2930  0.9296 -0.2501
  181MOL0     O24324   7.798   1.261   5.223  0.1218  0.3665 -0.6184
  181MOL0     C24325   7.665   1.297   5.250 -0.5606 -0.7057 -0.0608
  181MOL0     C24326   7.578   1.233   5.334 -0.5797  0.4974 -0.5357
  181MOL0     C24327   7.458   1.293   5.374  0.1922  0.1900 -0.8878
  181MOL0     C24328   7.384   1.223   5.488  0.2993  0.2769  0.3333
  181MOL0     C24329   7.418   1.410   5.313 -0.0488  0.3485 -0.0397
  181MOL0     C24330   7.278   1.462   5.334  0.0368  0.6398  0.0791
  181MOL0     O24331   7.178   1.392   5.386  0.1963 -0.5313 -0.2742
  181MOL0     C24332   7.043   1.418   5.357 -0.8869  0.6675  0.6458
  181MOL0     C24333   6.986   1.540   5.345  0.0704 -0.0789 -0.1358
  181MOL0     C24334   6.849   1.556   5.343 -1.0166 -0.5065  0.3874
  181MOL0     C24335   6.766   1.444   5.325  0.1077 -0.3368 -0.9342
  181MOL0     O24336   6.629   1.467   5.305 -0.2026 -0.4658 -0.1026
  181MOL0     C24337   6.528   1.362   5.328 -0.1037 -0.4750  0.3505
  181MOL0     C24338   6.402   1.387   5.257 -0.5320  0.2051 -0.2037
  181MOL0     C24339   6.322   1.507   5.311  0.7373  0.4114 -0.4152
  181MOL0     C24340   6.248   1.468   5.449  0.0690  0.1575  1.3865
  181MOL0     C24341   6.183   1.591   5.513  0.1934  0.4552  0.1552
  181MOL0     C24342   6.042   1.606   5.442  0.0002  0.1144  0.3240
  181MOL0     C24343   5.971   1.732   5.478 -0.4244 -0.0124 -0.4395
  181MOL0     C24344   5.914   1.723   5.615  0.3635 -0.2566 -0.7282
  181MOL0    Cl24345   5.819   1.867   5.661 -0.1442  0.0238  0.1936
  181MOL0     C24346   6.829   1.321   5.328 -0.4837 -0.1450 -0.6684
  181MOL0     C24347   6.965   1.307   5.349 -1.1230  0.2103 -0.5681
  181MOL0     O24348   7.264   1.574   5.286  0.2884  0.4270  0.2468
  181MOL0     C24349   7.500   1.476   5.220  0.2929 -0.4407  0.4702
  181MOL0     C24350   7.621   1.421   5.188  0.9859  1.3897 -0.9049
  181MOL0     N24351   8.091   1.125   5.785  0.0206 -0.3176 -0.1472
  181MOL0     N24352   8.216   1.093   5.814 -0.8425 -0.3856 -0.1560
  181MOL0     C24353   9.445   1.157   5.669  0.0478  0.3898 -0.8139
  181MOL0     C24354   9.545   1.073   5.638 -1.1656 -0.4476  0.8884
  181MOL0     C24355   9.996   0.989   5.673 -1.1721 -0.2673 -0.1477
  181MOL0     C24356  10.108   1.030   5.598 -0.1936 -0.0718  0.8166
  181MOL0     C24357  10.237   1.004   5.644 -0.6367  0.6578 -0.2572
  181MOL0     C24358  10.255   0.933   5.760 -0.1652  0.1614 -0.8800
  181MOL0     O24359  10.386   0.898   5.797  0.0094 -0.7908 -0.2777
  181MOL0     C24360  10.411   0.823   5.919 -0.2387 -0.5197  0.3461
  181MOL0     C24361  10.433   0.684   5.894 -0.8270  0.0812 -0.3578
  181MOL0     C24362  10.554   0.655   5.797  1.0347 -0.0621 -0.3041
  181MOL0     C24363  10.612   0.518   5.778  0.6991  0.2450  0.7461
  181MOL0     C24364  10.642   0.464   5.911  0.3035 -0.4724  0.7603
  181MOL0     C24365  10.693   0.418   6.014  0.3238 -0.0745  0.3210
  181MOL0     C24366  10.146   0.895   5.837  0.4574 -0.2845  0.1431
  181MOL0     C24367  10.010   0.914   5.793 -0.7597 -0.0489 -0.2598
  181MOL0     H24368   9.738   1.081   5.909  1.3928  3.0677 -1.0991
  181MOL0     H24369   9.545   1.245   5.968  2.5684  0.6961  0.3783
  181MOL0     H24370   9.239   1.405   5.692  1.3615  0.5131  0.8693
  181MOL0     H24371   9.207   1.232   5.699 -2.3125 -0.0087  0.0123
  181MOL0     H24372   9.134   1.266   5.938  1.5998  1.1708 -0.4010
  181MOL0     H24373   9.164   1.429   5.917  0.3666  0.3034  0.2840
  181MOL0     H24374   8.934   1.428   5.893 -0.5457  2.1367 -2.1662
  181MOL0     H24375   8.987   1.434   5.728  0.1721 -0.2693  0.0511
  181MOL0     H24376   8.957   1.198   5.698 -0.4606 -0.3975  0.2830
  181MOL0     H24377   8.894   1.177   5.868 -1.3824  1.2362  0.6518
  181MOL0     H24378   8.747   1.296   5.625  0.5243  2.1561  0.5783
  181MOL0     H24379   8.726   1.148   5.709 -2.0894  0.6977 -0.5526
  181MOL0     H24380   8.655   1.231   5.905  2.3412 -1.4835 -1.1792
  181MOL0     H24381   8.707   1.395   5.866  0.7792  0.7347 -1.5325
  181MOL0     H24382   8.465   1.361   5.862 -0.2679  1.0392  0.1847
  181MOL0     H24383   8.510   1.369   5.693 -1.2448  1.6673  1.5852
  181MOL0     H24384   8.491   1.102   5.830 -1.9851 -2.8984 -0.6904
  181MOL0     H24385   8.505   1.146   5.662 -2.1276  2.2395 -1.3408
  181MOL0     H24386   8.269   1.301   5.574 -0.4418  0.7165  0.1201
  181MOL0     H24387   7.895   1.263   5.675 -1.9903  2.3472 -2.9854
  181MOL0     H24388   7.993   1.398   5.625 -1.3486 -0.0341  0.4339
  181MOL0     H24389   7.926   1.159   5.445  0.4814 -0.6622 -0.0787
  181MOL0     H24390   8.076   1.227   5.428 -0.5988  1.0352 -0.0087
  181MOL0     H24391   8.008   1.458   5.389  1.0352 -0.3958  1.9719
  181MOL0     H24392   7.835   1.424   5.418 -0.4032 -0.3626  2.1911
  181MOL0     H24393   8.006   1.309   5.200 -0.1156 -1.1105  2.3918
  181MOL0     H24394   7.899   1.454   5.192 -1.8324  0.9128  0.1401
  181MOL0     H24395   7.605   1.134   5.368 -3.7289  0.3866  2.1985
  181MOL0     H24396   7.447   1.149   5.539 -0.6889 -0.1923  0.9211
  181MOL0     H24397   7.351   1.295   5.563  0.5053  1.4422 -0.6682
  181MOL0     H24398   7.300   1.165   5.447  0.3513  1.4053 -1.4901
  181MOL0     H24399   7.053   1.624   5.342 -1.3265  1.1347  0.9627
  181MOL0     H24400   6.811   1.658   5.344 -1.2635 -0.5983  1.2224
  181MOL0     H24401   6.563   1.269   5.282  3.0618  1.2392 -1.0649
  181MOL0     H24402   6.515   1.352   5.436 -2.2002 -0.5701  0.1404
  181MOL0     H24403   6.417   1.397   5.149  2.1444  2.3068  0.2430
  181MOL0     H24404   6.343   1.296   5.266  0.8723 -0.7310 -0.2010
  181MOL0     H24405   6.247   1.539   5.238 -1.6232 -2.6642  0.4042
  181MOL0     H24406   6.381   1.597   5.325 -0.9834  1.5342 -0.0192
  181MOL0     H24407   6.180   1.384   5.435  0.7318 -0.2621  0.6774
  181MOL0     H24408   6.327   1.435   5.518  2.0057 -1.3498 -1.3773
  181MOL0     H24409   6.237   1.685   5.495  0.7138  0.3197  0.9479
  181MOL0     H24410   6.168   1.590   5.621 -1.1749  1.1168 -0.0081
  181MOL0     H24411   6.055   1.609   5.334 -0.3327 -0.4877  0.2670
  181MOL0     H24412   5.980   1.524   5.479  2.0959 -1.0732  1.3742
  181MOL0     H24413   5.894   1.763   5.408  0.5305  1.0686 -1.0434
  181MOL0     H24414   6.053   1.804   5.479 -1.3677  1.0871 -0.8914
  181MOL0     H24415   5.993   1.716   5.690  2.6280 -0.2989 -3.0105
  181MOL0     H24416   5.847   1.638   5.634 -0.7519  0.6754 -0.3370
  181MOL0     H24417   6.772   1.229   5.319  1.0822 -1.1847 -0.4847
  181MOL0     H24418   7.001   1.205   5.343 -1.7977 -0.0648 -0.1375
  181MOL0     H24419   7.472   1.567   5.168  0.5982  0.3037  1.5581
  181MOL0     H24420   7.685   1.466   5.113  2.5883 -1.8981 -1.7076
  181MOL0     H24421   9.359   1.162   5.602  0.4752  2.7596 -1.2898
  181MOL0     H24422   9.541   1.040   5.534 -3.8933  0.8584  0.4832
  181MOL0     H24423  10.085   1.075   5.503 -1.6898 -2.1596  0.1201
  181MOL0     H24424  10.326   1.034   5.591  0.9951 -2.6666  0.3528
  181MOL0     H24425  10.505   0.870   5.950 -0.4304 -0.0252  0.1872
  181MOL0     H24426  10.341   0.834   6.002 -0.7445 -2.4646  0.2435
  181MOL0     H24427  10.337   0.643   5.863 -0.1066 -2.7675  0.8307
  181MOL0     H24428  10.459   0.633   5.988  2.4954 -0.4511 -1.4196
  181MOL0     H24429  10.628   0.726   5.834  1.4271 -0.5401 -0.1623
  181MOL0     H24430  10.531   0.691   5.696  1.1098 -0.6400 -0.5311
  181MOL0     H24431  10.703   0.526   5.716  0.6716 -1.3185  0.4756
  181MOL0     H24432  10.540   0.450   5.733 -0.0969  0.6561  1.3672
  181MOL0     H24433  10.726   0.387   6.112 -0.1588 -1.3015  0.1115
  181MOL0     H24434  10.156   0.848   5.935 -1.3797  1.0372  1.0454
  181MOL0     H24435   9.936   0.873   5.862 -0.3553 -0.3418  0.0014
  182MOL0     O24436  11.103   8.924   0.796 -0.2589  0.2195  0.0040
  182MOL0     C24437  11.067   8.899   0.916  0.0350 -0.1708 -0.0834
  182MOL0     O24438  10.964   8.946   0.987 -0.4381 -0.1525  0.0106
  182MOL0     C24439  10.878   9.041   0.931 -0.0994 -0.5224 -0.5715
  182MOL0     C24440  10.849   9.070   0.797  0.2534  0.5154 -0.0978
  182MOL0     C24441  10.754   9.170   0.770  0.7430  0.0020  0.4416
  182MOL0     C24442  10.694   9.253   0.866 -0.5540  1.1204  0.1302
  182MOL0     O24443  10.617   9.358   0.831  0.1610 -0.0220  0.1618
  182MOL0     C24444  10.481   9.376   0.887  0.4092 -1.0697 -0.1500
  182MOL0     C24445  10.391   9.271   0.830 -0.1483  0.0119  0.1276
  182MOL0     C24446  10.380   9.305   0.675  0.8429  0.3265 -0.0902
  182MOL0     C24447  10.251   9.244   0.620 -0.5698  0.6532  0.3809
  182MOL0     C24448  10.208   9.291   0.482 -0.8433 -0.2784  0.1199
  182MOL0     C24449  10.078   9.229   0.439 -0.8462 -0.4983  0.4520
  182MOL0     C24450   9.958   9.299   0.498 -0.5104  0.3062  0.0588
  182MOL0     C24451   9.824   9.238   0.443  0.6784 -0.0980  0.4313
  182MOL0     N24452   9.698   9.265   0.525  0.3000 -0.8921  0.1665
  182MOL0     C24453   9.659   9.392   0.551  0.2225  0.1421  0.1125
  182MOL0     C24454   9.544   9.377   0.625 -1.0407 -0.7077 -0.3829
  182MOL0     C24455   9.458   9.498   0.671  1.1990  0.5052  0.3164
  182MOL0     C24456   9.320   9.500   0.603  0.2122  0.2476  0.8350
  182MOL0     C24457   9.227   9.607   0.668 -0.2857 -0.5975 -0.1430
  182MOL0     C24458   9.081   9.598   0.607 -0.5920  0.9987  0.7600
  182MOL0     O24459   8.992   9.697   0.647 -0.1531 -0.2436 -0.7162
  182MOL0     C24460   8.857   9.682   0.621 -0.8032 -0.3816 -0.1598
  182MOL0     C24461   8.774   9.781   0.690 -0.2812  0.3229 -0.2534
  182MOL0     C24462   8.635   9.777   0.668  0.0959  0.5011  0.5121
  182MOL0     C24463   8.557   9.861   0.767  0.7362  0.3661 -0.1854
  182MOL0     C24464   8.582   9.685   0.574  0.0742 -0.2577  0.6870
  182MOL0     C24465   8.439   9.673   0.539  0.1597 -0.0466 -0.4624
  182MOL0     O24466   8.342   9.743   0.609  0.1027 -0.1857 -0.1305
  182MOL0     C24467   8.211   9.712   0.603 -0.5537  0.6579  0.2909
  182MOL0     C24468   8.125   9.804   0.664 -0.1090  0.2873  0.8854
  182MOL0     C24469   7.984   9.779   0.671 -1.1460 -0.0402 -0.3088
  182MOL0     C24470   7.932   9.665   0.613  0.1895  0.3285 -0.1247
  182MOL0     O24471   7.797   9.652   0.599  0.3292  0.3966 -0.4338
  182MOL0     C24472   7.707   9.715   0.695 -0.6814  0.2373 -0.5332
  182MOL0     C24473   7.577   9.642   0.678 -0.0718 -0.8298 -0.1738
  182MOL0     C24474   7.580   9.505   0.750 -0.8963 -0.7197 -0.7933
  182MOL0     C24475   7.447   9.434   0.759 -0.8692  0.3607  0.3386
  182MOL0     C24476   7.467   9.287   0.805  0.3634  1.0094 -0.0118
  182MOL0     C24477   7.329   9.222   0.837 -0.4242 -0.3299  0.7774
  182MOL0     C24478   7.338   9.084   0.895 -0.1615 -0.5419 -0.3484
  182MOL0     C24479   7.202   9.025   0.893  0.7808  0.4334 -0.3842
  182MOL0    Cl24480   7.092   9.118   0.998  0.6420  0.1802 -0.2554
  182MOL0     C24481   8.013   9.566   0.555 -0.6297 -0.1371  0.0099
  182MOL0     C24482   8.151   9.589   0.561 -0.8676  0.7605  0.3938
  182MOL0     O24483   8.412   9.605   0.439 -0.0808  0.0987 -0.5166
  182MOL0     C24484   8.673   9.607   0.501  0.0586 -0.0572  0.0912
  182MOL0     C24485   8.802   9.593   0.527 -0.7557 -0.7059 -0.1805
  182MOL0     N24486   9.524   9.248   0.647  0.6865  0.3251  0.0292
  182MOL0     N24487   9.617   9.174   0.593 -0.0458 -0.3917  0.0337
  182MOL0     C24488  10.719   9.213   0.997 -0.4039 -0.7365 -0.6713
  182MOL0     C24489  10.816   9.120   1.028  0.1437 -0.2928 -1.3639
  182MOL0     C24490  11.150   8.799   0.996 -0.0292 -0.2570 -0.5115
  182MOL0     C24491  11.142   8.779   1.136 -0.5361  0.5967 -0.0776
  182MOL0     C24492  11.208   8.670   1.200 -0.1039  0.4227 -0.2965
  182MOL0     C24493  11.319   8.605   1.130  0.5076 -0.0671  0.3527
  182MOL0     O24494  11.404   8.512   1.183 -0.0366 -0.0078 -0.1225
  182MOL0     C24495  11.373   8.465   1.313  0.8836 -0.1612 -1.1213
  182MOL0     C24496  11.451   8.346   1.365  0.4033 -0.5326  0.7103
  182MOL0     C24497  11.591   8.384   1.410  0.0728  0.3686 -0.0382
  182MOL0     C24498  11.695   8.397   1.302 -0.5356  0.2661 -0.3213
  182MOL0     C24499  11.821   8.451   1.353  0.1588 -0.5199  0.5687
  182MOL0     C24500  11.926   8.495   1.394  0.0193  1.2343 -0.1955
  182MOL0     C24501  11.330   8.636   0.995 -0.4009  0.1904  0.7932
  182MOL0     C24502  11.249   8.730   0.931 -0.3047 -0.4230 -0.6469
  182MOL0     H24503  10.885   9.017   0.710 -0.2537  1.2507 -0.7646
  182MOL0     H24504  10.725   9.203   0.671  1.9737 -0.0342  0.0624
  182MOL0     H24505  10.487   9.377   0.996  0.2514 -1.9954 -0.1219
  182MOL0     H24506  10.451   9.474   0.849  3.0800 -0.6007 -1.2676
  182MOL0     H24507  10.423   9.168   0.848  0.9592  0.3403  0.0647
  182MOL0     H24508  10.298   9.289   0.884  1.6287  0.2847  3.2914
  182MOL0     H24509  10.374   9.412   0.652  0.4101 -0.0900 -2.0792
  182MOL0     H24510  10.465   9.262   0.620 -0.9701 -0.9362 -2.0699
  182MOL0     H24511  10.265   9.136   0.613  1.2261  0.9454 -1.5499
  182MOL0     H24512  10.174   9.254   0.697  1.8726 -2.1410  3.4916
  182MOL0     H24513  10.192   9.399   0.481  4.3643  0.8277 -2.9241
  182MOL0     H24514  10.289   9.268   0.411  0.7554  1.4345  1.2809
  182MOL0     H24515  10.084   9.235   0.330 -0.6896  1.0134  0.5260
  182MOL0     H24516  10.075   9.122   0.464 -2.5526 -0.1502  1.9039
  182MOL0     H24517   9.966   9.278   0.606  0.3258 -0.9449 -0.2266
  182MOL0     H24518   9.945   9.406   0.479 -1.1917 -0.0591 -1.6804
  182MOL0     H24519   9.835   9.130   0.432  1.2894  0.1827 -2.5194
  182MOL0     H24520   9.808   9.267   0.339 -0.1925  1.5820  0.9960
  182MOL0     H24521   9.695   9.489   0.521 -1.2327  0.3061 -1.2616
  182MOL0     H24522   9.431   9.486   0.776 -1.3268  0.7416 -0.2367
  182MOL0     H24523   9.517   9.587   0.648  0.9853  0.9789  1.5363
  182MOL0     H24524   9.275   9.403   0.621  1.4335 -0.1334  2.0244
  182MOL0     H24525   9.337   9.522   0.497 -0.0859 -0.9913  0.5176
  182MOL0     H24526   9.275   9.704   0.651 -2.3241  0.4365 -0.3028
  182MOL0     H24527   9.224   9.595   0.776  2.6203  4.3928  0.7723
  182MOL0     H24528   9.042   9.497   0.623 -2.4051  1.3398 -1.1831
  182MOL0     H24529   9.094   9.594   0.498 -0.8611 -0.4629  0.7641
  182MOL0     H24530   8.817   9.843   0.768 -1.1730  2.0957 -1.0964
  182MOL0     H24531   8.613   9.951   0.796 -0.0324  1.6773 -2.5124
  182MOL0     H24532   8.464   9.895   0.722 -0.5503 -3.0052 -0.3825
  182MOL0     H24533   8.525   9.799   0.851 -1.9321 -0.2469 -1.5557
  182MOL0     H24534   8.167   9.892   0.713 -0.4818  1.9482 -1.5821
  182MOL0     H24535   7.921   9.850   0.722  1.5045  2.7621 -0.6776
  182MOL0     H24536   7.742   9.706   0.799  1.0363 -1.9604 -1.2096
  182MOL0     H24537   7.694   9.820   0.670  2.8110  0.6176 -1.3099
  182MOL0     H24538   7.500   9.712   0.711  0.3586  0.6465 -2.0974
  182MOL0     H24539   7.552   9.633   0.571 -0.5348 -0.4266 -0.1023
  182MOL0     H24540   7.604   9.520   0.855 -0.3973 -1.1332 -0.8434
  182MOL0     H24541   7.664   9.449   0.707 -0.0650  0.5567 -0.8803
  182MOL0     H24542   7.388   9.486   0.836 -3.3442 -1.2139 -0.3646
  182MOL0     H24543   7.392   9.437   0.664 -0.5140  3.2272  0.1306
  182MOL0     H24544   7.524   9.296   0.899 -0.8685  1.3943  0.7208
  182MOL0     H24545   7.526   9.229   0.734 -2.3271 -1.2960 -0.5383
  182MOL0     H24546   7.288   9.288   0.915 -0.8237 -1.2218  1.3356
  182MOL0     H24547   7.267   9.221   0.747 -1.0910 -0.3557  1.2277
  182MOL0     H24548   7.371   9.086   0.999  0.6560 -0.8699 -0.5965
  182MOL0     H24549   7.415   9.024   0.845  1.1462  0.3810  0.4863
  182MOL0     H24550   7.193   8.924   0.936 -2.3382  1.2900  1.2968
  182MOL0     H24551   7.163   9.029   0.791 -1.0155  1.0982  0.2807
  182MOL0     H24552   7.978   9.474   0.511 -0.0021 -0.5774  0.4148
  182MOL0     H24553   8.199   9.507   0.509 -1.5981 -0.4215  1.5334
  182MOL0     H24554   8.638   9.552   0.414  1.9723  0.2990 -0.9585
  182MOL0     H24555   8.849   9.513   0.470 -1.4373 -0.4314 -1.1623
  182MOL0     H24556  10.666   9.260   1.080 -0.3622  0.8068 -1.4821
  182MOL0     H24557  10.826   9.104   1.135 -1.0339 -1.1633 -1.3568
  182MOL0     H24558  11.066   8.832   1.192  0.7387 -0.1804  2.5445
  182MOL0     H24559  11.206   8.663   1.308 -0.2520 -1.3012 -0.3922
  182MOL0     H24560  11.372   8.541   1.392 -2.1669  0.0378 -1.2303
  182MOL0     H24561  11.266   8.441   1.315  0.7033  0.6637  0.1170
  182MOL0     H24562  11.456   8.269   1.287  0.7789 -0.6412  0.8404
  182MOL0     H24563  11.401   8.299   1.450  0.1257  0.0235  0.8570
  182MOL0     H24564  11.627   8.304   1.476 -0.4304 -0.6394 -0.9537
  182MOL0     H24565  11.589   8.474   1.472  1.1080  2.1053 -2.4207
  182MOL0     H24566  11.652   8.466   1.230  0.3478  0.9391 -0.2122
  182MOL0     H24567  11.713   8.301   1.253 -2.0089 -0.0013 -0.3853
  182MOL0     H24568  12.017   8.538   1.430 -0.7784  3.0097 -0.2050
  182MOL0     H24569  11.413   8.588   0.943 -0.7959  0.9642 -0.5730
  182MOL0     H24570  11.245   8.748   0.824  0.3844  1.9256 -0.3216
  183MOL0     O24571  11.287   0.965   4.424  0.1243  0.6439 -0.2645
  183MOL0     C24572  11.244   0.902   4.515 -0.8736  0.4440 -1.0172
  183MOL0     O24573  11.119   0.914   4.575 -0.9133  0.7018 -0.4860
  183MOL0     C24574  11.034   1.003   4.514  0.3128  0.7507  0.7621
  183MOL0     C24575  11.051   1.137   4.523 -0.3100 -0.2284  0.6614
  183MOL0     C24576  10.963   1.229   4.463 -0.0597 -1.0557 -0.2838
  183MOL0     C24577  10.832   1.180   4.418 -0.0036  0.2183 -0.0981
  183MOL0     O24578  10.716   1.237   4.375 -0.3170 -0.3514  0.2459
  183MOL0     C24579  10.684   1.367   4.428  0.5421  0.1243  0.2554
  183MOL0     C24580  10.634   1.356   4.575 -0.0286  0.3352  0.4417
  183MOL0     C24581  10.515   1.267   4.583 -0.4013 -0.0056 -1.2521
  183MOL0     C24582  10.394   1.316   4.512  0.3532 -0.4444 -0.6899
  183MOL0     C24583  10.261   1.269   4.567  0.6435 -0.2422  0.4898
  183MOL0     C24584  10.159   1.335   4.472  0.1508 -0.1452 -0.3170
  183MOL0     C24585  10.016   1.284   4.491 -0.0146  0.5922  0.1978
  183MOL0     C24586   9.963   1.333   4.631 -0.9652  0.2952 -0.1807
  183MOL0     N24587   9.940   1.478   4.632  0.1502 -0.2564  0.4666
  183MOL0     C24588   9.842   1.546   4.559  0.6635 -0.1655 -0.1441
  183MOL0     C24589   9.869   1.679   4.586  0.4530 -0.0125  0.1643
  183MOL0     C24590   9.775   1.793   4.568  0.5182  0.8817 -0.3028
  183MOL0     C24591   9.620   1.767   4.561  0.4209 -0.1819 -0.1472
  183MOL0     C24592   9.565   1.705   4.688 -0.3712 -0.4485  0.3377
  183MOL0     C24593   9.409   1.683   4.678  0.8133 -0.0664 -0.6205
  183MOL0     O24594   9.376   1.567   4.600  0.0791 -0.0360  0.6144
  183MOL0     C24595   9.249   1.561   4.538  0.1105 -0.2138 -0.2644
  183MOL0     C24596   9.234   1.473   4.435  0.5615  0.2119 -0.2681
  183MOL0     C24597   9.109   1.450   4.382  0.5302 -0.9473  1.1022
  183MOL0     C24598   9.101   1.350   4.267 -0.1639 -0.7219 -0.6610
  183MOL0     C24599   8.997   1.518   4.436 -0.1871 -0.0514  1.9444
  183MOL0     C24600   8.858   1.503   4.388  0.2786 -1.0496 -1.1325
  183MOL0     O24601   8.836   1.406   4.302  0.5240  0.6856 -0.2214
  183MOL0     C24602   8.710   1.375   4.256 -0.0877 -0.5599 -0.8005
  183MOL0     C24603   8.626   1.476   4.203  0.1187 -0.2894 -1.2531
  183MOL0     C24604   8.488   1.445   4.191  0.5340 -0.7518 -0.2166
  183MOL0     C24605   8.433   1.319   4.205  0.2787 -0.3552 -0.3168
  183MOL0     O24606   8.302   1.282   4.199 -0.2786  0.0916 -0.6191
  183MOL0     C24607   8.249   1.283   4.071  0.6409 -0.0391  0.3619
  183MOL0     C24608   8.103   1.289   4.103  0.1380  0.6720 -1.2020
  183MOL0     C24609   8.056   1.176   4.186  0.3056  0.0073 -0.2002
  183MOL0     C24610   7.901   1.149   4.184 -0.2480  0.3282 -0.6090
  183MOL0     C24611   7.865   1.062   4.314  0.1115 -0.3262  0.3817
  183MOL0     C24612   7.720   1.016   4.306 -0.7604 -0.7490  0.0756
  183MOL0     C24613   7.685   0.894   4.399  0.4133 -0.1264  0.1278
  183MOL0     C24614   7.665   0.927   4.550  0.5212  0.4093  0.2401
  183MOL0    Cl24615   7.815   0.937   4.649  0.2188 -0.1068  0.6609
  183MOL0     C24616   8.524   1.214   4.228  0.2978 -0.9772 -0.5430
  183MOL0     C24617   8.659   1.248   4.260  0.4463  0.9789  0.0318
  183MOL0     O24618   8.770   1.575   4.435  0.5511  0.6589 -0.1777
  183MOL0     C24619   9.020   1.612   4.534  0.8283 -0.4394 -0.0512
  183MOL0     C24620   9.144   1.645   4.579  0.7310  1.2470  0.1766
  183MOL0     N24621   9.985   1.685   4.661  0.1297  0.3856 -0.8726
  183MOL0     N24622  10.024   1.569   4.694  0.1342  0.2609 -0.4248
  183MOL0     C24623  10.817   1.040   4.420 -0.6811  0.1417 -0.0320
  183MOL0     C24624  10.912   0.950   4.465 -0.7898  1.0305 -1.0083
  183MOL0     C24625  11.325   0.791   4.563 -1.0216  0.6803 -0.0087
  183MOL0     C24626  11.457   0.763   4.519 -0.0079 -0.5752 -0.5383
  183MOL0     C24627  11.536   0.672   4.587 -0.1748  0.2372 -0.7328
  183MOL0     C24628  11.483   0.585   4.685 -0.9191 -0.2442  0.2438
  183MOL0     O24629  11.564   0.476   4.734  0.1433  0.0677  0.1111
  183MOL0     C24630  11.506   0.398   4.835  0.3313  0.1128 -0.1559
  183MOL0     C24631  11.596   0.275   4.862  0.0012  0.2516 -0.5465
  183MOL0     C24632  11.720   0.323   4.934  0.3459 -0.5450 -0.1226
  183MOL0     C24633  11.795   0.211   5.003 -0.6110 -0.5986  0.9092
  183MOL0     C24634  11.822   0.094   4.915  0.2135  0.2881  0.2317
  183MOL0     C24635  11.838  -0.007   4.842 -0.9311 -0.7161  0.2779
  183MOL0     C24636  11.353   0.600   4.722  0.7651 -0.1778 -0.5671
  183MOL0     C24637  11.277   0.701   4.664  0.0648 -0.7328 -0.1839
  183MOL0     H24638  11.147   1.164   4.566  0.8386 -0.3965 -1.6521
  183MOL0     H24639  10.981   1.336   4.459  0.6108 -1.1795 -0.8265
  183MOL0     H24640  10.773   1.430   4.415  0.5963  0.1305  0.6416
  183MOL0     H24641  10.607   1.427   4.380 -1.8086 -1.0273  2.3384
  183MOL0     H24642  10.710   1.315   4.642  0.5384  1.0455  0.2456
  183MOL0     H24643  10.618   1.457   4.614 -0.1936  0.2608  0.5715
  183MOL0     H24644  10.553   1.169   4.553  1.8130  0.8302 -1.3476
  183MOL0     H24645  10.483   1.269   4.687 -0.8756  1.3336 -1.4065
  183MOL0     H24646  10.395   1.425   4.518 -0.8063 -0.4386 -0.3822
  183MOL0     H24647  10.402   1.290   4.406 -1.4596 -3.2231 -0.2544
  183MOL0     H24648  10.266   1.160   4.556  2.6495 -0.0877 -0.7303
  183MOL0     H24649  10.234   1.292   4.670 -3.1480  1.6698 -0.7597
  183MOL0     H24650  10.160   1.445   4.468  2.7372 -0.0944 -0.1231
  183MOL0     H24651  10.183   1.316   4.367 -2.7074  2.1379 -1.5332
  183MOL0     H24652   9.949   1.328   4.416  1.2977 -0.0416 -1.4144
  183MOL0     H24653  10.029   1.176   4.490  1.6724  0.7462 -1.5992
  183MOL0     H24654  10.031   1.300   4.710  0.4465  2.3687 -0.4549
  183MOL0     H24655   9.865   1.289   4.648 -0.6521  0.1581  1.4993
  183MOL0     H24656   9.755   1.513   4.504 -0.7251  1.1172  1.2056
  183MOL0     H24657   9.795   1.868   4.646 -1.0646  0.2097  0.7864
  183MOL0     H24658   9.800   1.849   4.477  0.4102  1.2922 -0.0833
  183MOL0     H24659   9.605   1.702   4.474 -0.2226  1.0856 -1.0103
  183MOL0     H24660   9.558   1.855   4.546 -0.0834 -0.8624 -2.3708
  183MOL0     H24661   9.595   1.779   4.762  1.9895 -1.0987  0.0891
  183MOL0     H24662   9.600   1.602   4.701 -3.1780 -1.4951  0.3797
  183MOL0     H24663   9.372   1.772   4.627  1.6126  1.1827  0.9038
  183MOL0     H24664   9.357   1.681   4.774  0.4902  3.0454 -0.6313
  183MOL0     H24665   9.315   1.405   4.410 -1.9454 -3.9343  1.8392
  183MOL0     H24666   9.072   1.393   4.170  1.3807 -1.0904 -1.3187
  183MOL0     H24667   9.200   1.306   4.254 -0.1909 -1.4761  1.3613
  183MOL0     H24668   9.034   1.268   4.294  1.5616 -1.8794  0.2147
  183MOL0     H24669   8.657   1.580   4.198 -2.4420  0.6981  0.7459
  183MOL0     H24670   8.430   1.536   4.177  2.3071  0.4478 -0.1460
  183MOL0     H24671   8.269   1.374   4.013 -1.8475  0.0079 -0.5569
  183MOL0     H24672   8.266   1.195   4.007 -0.6959 -0.3066  0.3422
  183MOL0     H24673   8.074   1.380   4.156 -0.3873 -3.3856  7.0865
  183MOL0     H24674   8.045   1.288   4.010  0.1831 -2.2254 -1.2910
  183MOL0     H24675   8.081   1.202   4.289  0.1166  0.4864 -0.2687
  183MOL0     H24676   8.108   1.085   4.157 -0.4227 -0.6970  0.6498
  183MOL0     H24677   7.841   1.240   4.190 -0.4389  0.3200 -2.1267
  183MOL0     H24678   7.874   1.103   4.088  1.1848  0.7383 -1.2238
  183MOL0     H24679   7.886   1.114   4.407 -0.3343 -0.3193  0.4800
  183MOL0     H24680   7.929   0.976   4.293  0.4117  0.5972 -3.2070
  183MOL0     H24681   7.657   1.100   4.336  0.9737  1.5271 -2.2384
  183MOL0     H24682   7.693   0.997   4.202 -1.6290 -0.3619  0.2203
  183MOL0     H24683   7.760   0.815   4.389 -0.7976 -1.2538 -0.2824
  183MOL0     H24684   7.593   0.848   4.363  1.2424 -1.7444 -0.0285
  183MOL0     H24685   7.603   0.849   4.596  0.3608 -0.3258 -1.1808
  183MOL0     H24686   7.619   1.026   4.555 -0.4108 -0.0518  1.2023
  183MOL0     H24687   8.491   1.110   4.236 -2.8478 -0.1048 -0.6460
  183MOL0     H24688   8.716   1.162   4.296 -3.0448 -2.2896 -1.5316
  183MOL0     H24689   8.940   1.674   4.571  0.9139 -0.9490  1.0192
  183MOL0     H24690   9.152   1.722   4.655 -1.4823  0.6746  1.0857
  183MOL0     H24691  10.718   1.013   4.386 -1.8169  3.8169 -0.1124
  183MOL0     H24692  10.903   0.843   4.448 -0.0035  0.7688  0.1020
  183MOL0     H24693  11.501   0.827   4.443 -0.2514 -0.3563 -0.4945
  183MOL0     H24694  11.640   0.650   4.563 -0.1715 -2.0924  1.1000
  183MOL0     H24695  11.498   0.457   4.927 -3.9119  0.8016 -0.7556
  183MOL0     H24696  11.408   0.363   4.801  0.3623 -0.3464  0.2183
  183MOL0     H24697  11.616   0.227   4.766 -2.3684 -1.5681 -0.2267
  183MOL0     H24698  11.537   0.198   4.912  0.0631  0.8748  0.5257
  183MOL0     H24699  11.702   0.399   5.011  0.8636 -0.6277  0.0893
  183MOL0     H24700  11.784   0.376   4.863  0.0684  1.2080  0.8721
  183MOL0     H24701  11.734   0.181   5.088 -1.4384  1.8839  1.2708
  183MOL0     H24702  11.894   0.236   5.043 -0.3822  0.7859 -0.4033
  183MOL0     H24703  11.853  -0.093   4.780  1.8401  0.0122 -0.1952
  183MOL0     H24704  11.307   0.532   4.794  0.4405 -1.8398 -2.2489
  183MOL0     H24705  11.178   0.726   4.702  0.9992  0.8351  1.3486
  184MOL0     O24706   5.371  11.202   8.830 -0.2432 -0.0340  0.7092
  184MOL0     C24707   5.451  11.134   8.758  0.1908 -0.6047 -0.7776
  184MOL0     O24708   5.424  11.014   8.707  0.3980 -0.0906  0.0547
  184MOL0     C24709   5.296  10.964   8.723  0.6386  0.6009  0.8111
  184MOL0     C24710   5.277  10.846   8.795 -0.2961  0.9845 -0.6397
  184MOL0     C24711   5.152  10.781   8.807 -0.0645 -0.6878  0.5846
  184MOL0     C24712   5.042  10.834   8.742  0.5636  1.0928  0.3882
  184MOL0     O24713   4.922  10.766   8.754 -0.8081  0.5032  0.8792
  184MOL0     C24714   4.889  10.677   8.651 -0.9041 -0.0132  1.0227
  184MOL0     C24715   4.757  10.600   8.675  0.7202 -0.2110 -0.7623
  184MOL0     C24716   4.708  10.508   8.564  0.3332  0.5090  0.5438
  184MOL0     C24717   4.650  10.582   8.439 -0.6445 -0.2999 -0.1311
  184MOL0     C24718   4.635  10.483   8.328 -0.7296 -0.4160  0.4708
  184MOL0     C24719   4.540  10.373   8.340  0.3851  0.2494 -0.2032
  184MOL0     C24720   4.395  10.420   8.364 -0.7577 -1.2483 -0.3132
  184MOL0     C24721   4.306  10.302   8.381  0.7278  0.4477 -0.5527
  184MOL0     N24722   4.175  10.339   8.409  0.1428  0.6449  0.0292
  184MOL0     C24723   4.084  10.386   8.321 -0.0232  0.3735  0.8372
  184MOL0     C24724   3.988  10.441   8.398 -0.9874  0.0638 -0.2105
  184MOL0     C24725   3.873  10.524   8.345 -0.5042  0.5541 -0.4370
  184MOL0     C24726   3.906  10.616   8.225 -0.5811  0.2932 -0.5628
  184MOL0     C24727   3.784  10.712   8.212 -1.0565  0.0156  0.7899
  184MOL0     C24728   3.781  10.789   8.081  0.0912  0.2175 -0.0986
  184MOL0     O24729   3.769  10.697   7.967  0.5233  0.4420  0.5743
  184MOL0     C24730   3.646  10.630   7.948  0.6448 -0.8334  0.9104
  184MOL0     C24731   3.644  10.535   7.846  0.1441  0.1959  0.6627
  184MOL0     C24732   3.524  10.471   7.800  0.4197 -0.0123  0.1468
  184MOL0     C24733   3.522  10.383   7.686  0.1905  0.8493  0.8768
  184MOL0     C24734   3.404  10.489   7.872  0.0645  0.1170  0.6289
  184MOL0     C24735   3.267  10.421   7.850  0.9964 -0.7555  0.7260
  184MOL0     O24736   3.215  10.435   7.724 -0.7548 -0.1341 -0.0718
  184MOL0     C24737   3.140  10.342   7.666  0.2427  0.0983 -0.7633
  184MOL0     C24738   3.071  10.397   7.556 -0.3895  0.1565  0.3746
  184MOL0     C24739   2.991  10.306   7.483  0.1031 -0.5155  0.2670
  184MOL0     C24740   2.980  10.172   7.517  0.0314 -0.3219  0.7600
  184MOL0     O24741   2.911  10.097   7.418  0.1793 -0.2345 -1.0191
  184MOL0     C24742   2.839   9.973   7.452  0.7307 -0.7600 -1.0394
  184MOL0     C24743   2.902   9.851   7.395 -0.5285 -0.7927 -0.0696
  184MOL0     C24744   2.828   9.717   7.417  0.5013  0.1712 -0.3502
  184MOL0     C24745   2.915   9.611   7.343  0.6366  0.4156  0.8761
  184MOL0     C24746   2.848   9.475   7.336  0.1225  1.1705  0.2096
  184MOL0     C24747   2.714   9.479   7.262 -0.0316  0.0256 -0.3654
  184MOL0     C24748   2.675   9.341   7.219  0.8594 -0.1400 -0.3491
  184MOL0     C24749   2.543   9.341   7.142  0.5414 -0.4048 -0.7463
  184MOL0    Cl24750   2.403   9.344   7.264 -0.1552  0.4762 -0.3004
  184MOL0     C24751   3.044  10.127   7.630 -0.7227  0.4524 -0.5721
  184MOL0     C24752   3.133  10.207   7.709 -0.3258 -0.0695 -0.3742
  184MOL0     O24753   3.202  10.393   7.948 -0.0304  0.3990  0.4316
  184MOL0     C24754   3.404  10.589   7.967 -0.2012 -0.2088 -0.4082
  184MOL0     C24755   3.521  10.652   8.019 -0.3225  0.2328  0.1723
  184MOL0     N24756   4.018  10.419   8.532 -0.3900  0.0055  0.5350
  184MOL0     N24757   4.130  10.356   8.535 -0.1515 -0.2178 -0.5000
  184MOL0     C24758   5.056  10.947   8.656 -0.1803 -0.8864 -0.4078
  184MOL0     C24759   5.178  11.017   8.656  0.0197  1.0972 -0.4613
  184MOL0     C24760   5.581  11.193   8.724  0.6156 -0.8082  0.5814
  184MOL0     C24761   5.610  11.336   8.753  1.0307 -0.7568  0.0223
  184MOL0     C24762   5.727  11.396   8.703 -0.1049 -0.0293 -0.2360
  184MOL0     C24763   5.815  11.314   8.634  0.5896  0.1942 -0.2741
  184MOL0     O24764   5.936  11.366   8.601 -0.3020  0.2040 -0.9462
  184MOL0     C24765   5.947  11.471   8.505 -0.8698  0.0665  0.4088
  184MOL0     C24766   6.093  11.497   8.455  0.5744  0.8060  0.5724
  184MOL0     C24767   6.082  11.625   8.356  0.5887  0.8410  0.6525
  184MOL0     C24768   6.227  11.658   8.290  1.0071 -0.3982 -0.7021
  184MOL0     C24769   6.338  11.561   8.307  1.0239 -0.6497 -0.1439
  184MOL0     C24770   6.433  11.495   8.346 -0.9738 -0.4820 -0.2415
  184MOL0     C24771   5.793  11.175   8.613 -0.4903  1.2387  0.6837
  184MOL0     C24772   5.669  11.118   8.651  0.0261  0.5465  0.0340
  184MOL0     H24773   5.368  10.802   8.834 -0.7625 -0.2383 -0.8881
  184MOL0     H24774   5.149  10.691   8.867  0.8368 -1.9701 -1.1844
  184MOL0     H24775   4.883  10.736   8.560  0.7104  0.1248  0.9765
  184MOL0     H24776   4.972  10.608   8.632  0.8016  2.5509 -1.7429
  184MOL0     H24777   4.758  10.551   8.773 -3.7214 -0.9795 -0.8875
  184MOL0     H24778   4.681  10.675   8.698  2.2366  1.3962 -0.7236
  184MOL0     H24779   4.783  10.434   8.535  0.5224  1.1018 -0.5219
  184MOL0     H24780   4.626  10.443   8.596 -0.9075  2.0791  0.6791
  184MOL0     H24781   4.562  10.635   8.479  0.6428 -0.1707  2.7799
  184MOL0     H24782   4.724  10.653   8.401  1.6653 -2.2189  0.5484
  184MOL0     H24783   4.599  10.530   8.236  1.2800  1.9521  0.7737
  184MOL0     H24784   4.737  10.449   8.306 -0.9974 -2.3301  1.9119
  184MOL0     H24785   4.544  10.314   8.247 -2.6697 -0.1837 -0.1709
  184MOL0     H24786   4.566  10.297   8.414 -1.0056  0.8841  0.9640
  184MOL0     H24787   4.384  10.478   8.457  1.6743 -1.8166  0.4160
  184MOL0     H24788   4.360  10.473   8.275 -0.9720 -0.8894 -0.0203
  184MOL0     H24789   4.336  10.269   8.480  1.1801  9.4198  3.3025
  184MOL0     H24790   4.299  10.233   8.297  2.2778 -0.2287 -0.1583
  184MOL0     H24791   4.079  10.368   8.214  4.0762  2.0310  0.1760
  184MOL0     H24792   3.794  10.452   8.321  0.2005 -0.2243 -0.5054
  184MOL0     H24793   3.833  10.576   8.432  0.0871  0.1655  0.0821
  184MOL0     H24794   3.916  10.562   8.130 -1.7981 -0.8219 -0.0886
  184MOL0     H24795   3.992  10.682   8.237 -0.9119  1.6036 -4.2153
  184MOL0     H24796   3.788  10.790   8.289 -0.4238 -0.8284  1.6383
  184MOL0     H24797   3.692  10.654   8.222 -0.7867 -0.8269 -1.1541
  184MOL0     H24798   3.877  10.840   8.067  0.3952 -0.7566 -1.8958
  184MOL0     H24799   3.708  10.870   8.086  0.4982  0.6194 -0.5290
  184MOL0     H24800   3.737  10.519   7.792  0.9030  0.3677  1.8943
  184MOL0     H24801   3.534  10.278   7.717 -0.0215  0.6581  0.3191
  184MOL0     H24802   3.431  10.389   7.626  0.3077  0.1484  0.6094
  184MOL0     H24803   3.598  10.401   7.609 -1.1072  3.2960  0.0879
  184MOL0     H24804   3.087  10.498   7.519 -1.3540  0.2387  0.1735
  184MOL0     H24805   2.951  10.345   7.391 -0.3150 -0.6008  0.4116
  184MOL0     H24806   2.828   9.974   7.560 -2.5873  1.7117 -1.2400
  184MOL0     H24807   2.736   9.984   7.416 -0.5574 -3.2697  1.4698
  184MOL0     H24808   2.910   9.861   7.287 -1.7169  0.2282 -0.0932
  184MOL0     H24809   3.003   9.845   7.437  0.1761 -0.9934 -1.7380
  184MOL0     H24810   2.728   9.731   7.375 -1.0286  2.0370  3.3810
  184MOL0     H24811   2.824   9.684   7.522  2.4442 -1.1515 -0.6540
  184MOL0     H24812   2.932   9.637   7.238 -1.1084 -1.4588  0.0464
  184MOL0     H24813   3.011   9.600   7.395  2.5395 -0.8986 -2.6172
  184MOL0     H24814   2.840   9.437   7.438  2.6943  1.3111  0.5334
  184MOL0     H24815   2.906   9.401   7.281 -4.0875 -0.5838 -2.3609
  184MOL0     H24816   2.628   9.517   7.318  0.3390 -0.4669  0.5606
  184MOL0     H24817   2.712   9.539   7.171  1.4463  0.8616  0.1156
  184MOL0     H24818   2.668   9.283   7.311 -2.3325 -0.1412 -0.4718
  184MOL0     H24819   2.756   9.299   7.159 -1.1002 -4.0980 -0.5635
  184MOL0     H24820   2.539   9.245   7.091  0.8733 -1.3054  0.8612
  184MOL0     H24821   2.549   9.424   7.070  0.9329 -1.1369 -1.5871
  184MOL0     H24822   3.048  10.023   7.663 -0.5377  0.6929  0.1981
  184MOL0     H24823   3.191  10.184   7.797 -0.5856 -4.1000 -1.0768
  184MOL0     H24824   3.310  10.607   8.019  0.4284  1.8246  0.1069
  184MOL0     H24825   3.506  10.721   8.102  0.4644  0.1749  0.3686
  184MOL0     H24826   4.964  10.973   8.605 -2.5431 -1.0905  3.3907
  184MOL0     H24827   5.178  11.104   8.591 -0.1003  1.1647 -0.3722
  184MOL0     H24828   5.547  11.394   8.820  0.4095  1.1960 -2.1425
  184MOL0     H24829   5.749  11.501   8.714 -1.3462  0.5393 -2.7133
  184MOL0     H24830   5.871  11.459   8.428  0.6551  1.7250 -1.4542
  184MOL0     H24831   5.906  11.557   8.558  0.9684  0.7548  0.7819
  184MOL0     H24832   6.140  11.410   8.409 -1.0866  0.0056  0.2925
  184MOL0     H24833   6.149  11.529   8.543 -0.4521  4.0201  0.1983
  184MOL0     H24834   6.037  11.706   8.414  0.4111  0.1919  1.4434
  184MOL0     H24835   6.008  11.594   8.281  1.7486 -1.8906  0.5354
  184MOL0     H24836   6.259  11.759   8.320  0.5395 -0.2953 -0.5340
  184MOL0     H24837   6.208  11.678   8.184  1.0758  3.4996 -0.1323
  184MOL0     H24838   6.514  11.447   8.397 -0.4906 -0.2252 -0.7418
  184MOL0     H24839   5.861  11.116   8.553 -0.8937  4.3604 -3.2966
  184MOL0     H24840   5.656  11.014   8.623 -0.4662  0.5285  0.3247
  185MOL0     O24841   3.855   1.335  10.543  0.0800 -0.5008 -0.2631
  185MOL0     C24842   3.916   1.242  10.594 -0.0143  0.7143 -0.5063
  185MOL0     O24843   3.858   1.135  10.665 -0.0359  0.3650 -0.1858
  185MOL0     C24844   3.720   1.121  10.672  0.4310 -0.8020 -0.0590
  185MOL0     C24845   3.669   1.041  10.779 -0.1013  0.2360 -0.0124
  185MOL0     C24846   3.533   1.002  10.790 -0.1349 -0.4000 -1.4387
  185MOL0     C24847   3.450   1.035  10.688  0.5600  0.4710 -0.3782
  185MOL0     O24848   3.321   0.985  10.670  1.0429 -0.0332  0.5084
  185MOL0     C24849   3.251   0.937  10.790  0.6125 -0.1066  0.5847
  185MOL0     C24850   3.232   1.044  10.908 -0.3983  0.2137 -0.4444
  185MOL0     C24851   3.111   1.152  10.906  0.3675  0.9618 -0.0220
  185MOL0     C24852   2.975   1.080  10.921 -0.9815  1.1343 -0.3383
  185MOL0     C24853   2.861   1.180  10.924 -0.0140 -0.1090  0.0066
  185MOL0     C24854   2.735   1.115  10.969 -0.8977 -0.3327 -0.8128
  185MOL0     C24855   2.622   1.206  10.921  0.9477 -0.6143 -0.2670
  185MOL0     C24856   2.484   1.156  10.973 -0.3543  0.3635  0.4049
  185MOL0     N24857   2.432   1.249  11.076  0.5229 -0.2792  0.4464
  185MOL0     C24858   2.363   1.368  11.053  0.0269 -0.1896  0.3744
  185MOL0     C24859   2.333   1.418  11.177  0.8158 -0.2840 -0.3344
  185MOL0     C24860   2.266   1.550  11.203  0.0475 -0.1675 -0.1439
  185MOL0     C24861   2.113   1.551  11.203  0.6940 -0.1738  0.0022
  185MOL0     C24862   2.055   1.698  11.175 -0.0472 -0.7009 -0.5716
  185MOL0     C24863   1.908   1.705  11.166  0.2525  0.2403  0.5825
  185MOL0     O24864   1.836   1.680  11.289  0.0222  0.2194 -0.7784
  185MOL0     C24865   1.710   1.737  11.302  0.3144 -0.0481 -0.1642
  185MOL0     C24866   1.625   1.780  11.193  0.3894 -0.2845 -0.1120
  185MOL0     C24867   1.502   1.843  11.215 -0.6567 -0.6925  0.6036
  185MOL0     C24868   1.420   1.878  11.095  0.0472 -0.3676  0.2375
  185MOL0     C24869   1.454   1.875  11.345  0.1490 -0.1542  0.1011
  185MOL0     C24870   1.331   1.953  11.376  0.1581  0.1699  0.5214
  185MOL0     O24871   1.223   1.933  11.297  0.8119  0.3096 -0.4066
  185MOL0     C24872   1.117   2.015  11.321  0.1161 -0.2677  0.1721
  185MOL0     C24873   1.125   2.158  11.342  0.0877 -1.3077 -0.3033
  185MOL0     C24874   1.010   2.233  11.368 -0.4857 -0.2706 -0.2967
  185MOL0     C24875   0.889   2.172  11.372  0.6873  0.2638  0.2112
  185MOL0     O24876   0.779   2.252  11.409 -0.7725 -0.4216  0.1927
  185MOL0     C24877   0.673   2.189  11.484 -0.3695  1.0168  0.6691
  185MOL0     C24878   0.581   2.304  11.513  0.0009  0.3537 -0.5302
  185MOL0     C24879   0.453   2.251  11.584 -0.1554 -0.3486  0.9786
  185MOL0     C24880   0.355   2.166  11.501  0.4648  0.2979 -0.6748
  185MOL0     C24881   0.226   2.111  11.587  0.4126  1.2572  0.1965
  185MOL0     C24882   0.106   2.077  11.496 -0.3866 -0.3769  0.5122
  185MOL0     C24883  -0.016   2.054  11.592  0.4383  0.1010  0.2389
  185MOL0     C24884  -0.094   2.182  11.615 -0.2307 -0.7153  1.0225
  185MOL0    Cl24885  -0.163   2.222  11.448 -0.1345  0.2972 -0.2824
  185MOL0     C24886   0.879   2.031  11.335  0.3050 -0.3305  0.0747
  185MOL0     C24887   0.997   1.957  11.310  1.3209 -0.1479 -1.1741
  185MOL0     O24888   1.329   1.995  11.488  0.0809  0.6315 -0.4742
  185MOL0     C24889   1.539   1.819  11.450 -0.9990  0.6890  0.4161
  185MOL0     C24890   1.669   1.759  11.434  0.0767  0.2889 -0.5234
  185MOL0     N24891   2.397   1.334  11.270 -0.6960  0.7245  0.0678
  185MOL0     N24892   2.447   1.230  11.212 -0.4078 -0.1584 -0.0460
  185MOL0     C24893   3.490   1.121  10.588  0.0816  0.7239  1.7179
  185MOL0     C24894   3.623   1.163  10.585 -1.1906  0.2842  0.3938
  185MOL0     C24895   4.059   1.258  10.597 -0.4050  0.0425  0.2740
  185MOL0     C24896   4.130   1.380  10.573 -0.0254 -0.1481  0.8535
  185MOL0     C24897   4.275   1.373  10.561  0.0865 -0.0144 -0.3816
  185MOL0     C24898   4.350   1.253  10.575  0.0712  0.7153  0.1416
  185MOL0     O24899   4.486   1.236  10.561  0.5553 -0.8503 -0.0453
  185MOL0     C24900   4.558   1.344  10.491  0.5686  0.6526  0.3635
  185MOL0     C24901   4.690   1.291  10.440  0.4215  0.2730 -0.0232
  185MOL0     C24902   4.670   1.188  10.327  0.8308  0.8252 -0.4463
  185MOL0     C24903   4.808   1.129  10.286  0.8336  0.4973 -0.2181
  185MOL0     C24904   4.788   1.009  10.203 -0.1660  0.2122  0.2567
  185MOL0     C24905   4.782   0.891  10.164  0.4931  0.0499 -0.9347
  185MOL0     C24906   4.272   1.136  10.588 -0.0629 -0.4947  0.2745
  185MOL0     C24907   4.134   1.143  10.604  1.2013 -0.0875  0.5283
  185MOL0     H24908   3.738   1.005  10.855 -0.7472  3.3638  2.2301
  185MOL0     H24909   3.511   0.942  10.877 -1.2672  0.3932 -1.1653
  185MOL0     H24910   3.154   0.896  10.760  1.1135 -2.8887  2.3627
  185MOL0     H24911   3.284   0.840  10.828 -1.8662 -1.2413  0.0692
  185MOL0     H24912   3.223   0.989  11.002  1.1650 -0.2160 -0.5137
  185MOL0     H24913   3.322   1.106  10.909  1.5808 -2.4952  1.0836
  185MOL0     H24914   3.135   1.219  10.989  0.0047 -2.4342  3.0472
  185MOL0     H24915   3.119   1.207  10.811 -0.8970  1.6890  0.2657
  185MOL0     H24916   2.957   1.006  10.843 -1.6580  2.0140 -1.0348
  185MOL0     H24917   2.980   1.021  11.013  0.3841  1.1410 -0.3853
  185MOL0     H24918   2.884   1.265  10.988 -0.1630 -0.8225  1.0294
  185MOL0     H24919   2.831   1.215  10.825  0.0954 -0.2423 -0.0728
  185MOL0     H24920   2.724   1.022  10.912  1.5905 -1.2151  0.0227
  185MOL0     H24921   2.740   1.077  11.071  2.4821 -2.8679 -1.7094
  185MOL0     H24922   2.639   1.302  10.970 -0.0436 -0.0202 -1.0519
  185MOL0     H24923   2.628   1.212  10.812  2.8102 -0.7822 -0.2099
  185MOL0     H24924   2.492   1.059  11.024 -1.4208 -1.1168 -2.0491
  185MOL0     H24925   2.413   1.133  10.894  0.4088 -1.7777  0.2642
  185MOL0     H24926   2.349   1.409  10.953 -3.1280 -0.6308  0.5336
  185MOL0     H24927   2.302   1.583  11.301 -0.4331 -0.2380  0.0588
  185MOL0     H24928   2.309   1.629  11.141  0.4203  0.1692  0.5306
  185MOL0     H24929   2.064   1.522  11.297 -2.1185  3.6642 -0.0754
  185MOL0     H24930   2.086   1.489  11.116  1.6456  0.1234 -0.5115
  185MOL0     H24931   2.083   1.731  11.074 -2.5725  1.3131 -0.7160
  185MOL0     H24932   2.097   1.772  11.244 -1.3234 -0.1855 -0.3213
  185MOL0     H24933   1.877   1.633  11.090  1.9378  0.5578 -0.4753
  185MOL0     H24934   1.876   1.800  11.124 -0.3033 -0.2181 -0.0436
  185MOL0     H24935   1.648   1.756  11.089  0.9600 -1.4286  0.2604
  185MOL0     H24936   1.331   1.815  11.082  1.2331 -1.6122 -2.8612
  185MOL0     H24937   1.377   1.978  11.105  0.4129 -0.2701  0.8424
  185MOL0     H24938   1.483   1.877  11.006  3.1544  0.2962  2.2866
  185MOL0     H24939   1.224   2.202  11.342 -1.1329  1.6148 -0.5050
  185MOL0     H24940   1.030   2.334  11.401  0.5765 -0.4388 -0.3714
  185MOL0     H24941   0.627   2.110  11.423 -0.3184  1.1356  0.4768
  185MOL0     H24942   0.713   2.139  11.573 -2.4845 -2.1482  0.0268
  185MOL0     H24943   0.637   2.378  11.571  0.1348 -1.1137  1.3093
  185MOL0     H24944   0.553   2.353  11.419 -3.3339  1.2788  0.8012
  185MOL0     H24945   0.397   2.338  11.619 -2.6354 -0.4670 -2.2270
  185MOL0     H24946   0.488   2.185  11.664  0.8238 -1.5930 -0.4331
  185MOL0     H24947   0.323   2.239  11.428 -0.4986  0.0454 -0.5185
  185MOL0     H24948   0.400   2.084  11.444  0.9330 -0.6483  0.9671
  185MOL0     H24949   0.198   2.174  11.672  2.1614 -1.3931  2.9428
  185MOL0     H24950   0.261   2.024  11.643  1.6910 -0.7899 -3.4303
  185MOL0     H24951   0.080   2.149  11.417  0.8822  0.2484  0.6367
  185MOL0     H24952   0.140   1.985  11.447  3.1962  0.6079  0.8818
  185MOL0     H24953   0.028   2.025  11.688  2.8113 -0.8213 -1.0542
  185MOL0     H24954  -0.078   1.974  11.550  0.5845  0.9291 -1.6197
  185MOL0     H24955  -0.025   2.260  11.649  0.2965 -1.0257  0.6685
  185MOL0     H24956  -0.186   2.160  11.672 -0.9368 -3.2521 -0.9336
  185MOL0     H24957   0.783   1.983  11.320  0.6608 -0.6701 -1.2500
  185MOL0     H24958   0.981   1.858  11.267 -2.5623  0.9086 -2.6266
  185MOL0     H24959   1.511   1.836  11.553  0.2517  2.0463  0.5661
  185MOL0     H24960   1.730   1.735  11.520  0.0854 -1.1383 -0.8926
  185MOL0     H24961   3.426   1.147  10.504  2.0081 -0.3652 -0.1896
  185MOL0     H24962   3.640   1.228  10.500 -0.5921  0.7569  0.8658
  185MOL0     H24963   4.068   1.469  10.563 -1.8095 -1.0356  3.2032
  185MOL0     H24964   4.337   1.461  10.546  1.6010 -0.6227  1.8571
  185MOL0     H24965   4.499   1.385  10.408 -0.6930  1.9434  1.8230
  185MOL0     H24966   4.582   1.428  10.557  1.8352 -0.4458  1.3352
  185MOL0     H24967   4.757   1.244  10.513 -2.0779 -1.7443  1.1459
  185MOL0     H24968   4.745   1.372  10.393  1.6907  0.4830  1.7209
  185MOL0     H24969   4.608   1.218  10.243 -0.4399 -0.3201  0.0473
  185MOL0     H24970   4.619   1.103  10.373 -0.2191  0.6851 -1.8138
  185MOL0     H24971   4.861   1.099  10.377 -0.0630 -1.1441 -0.1954
  185MOL0     H24972   4.864   1.205  10.231  0.6172 -2.4001 -4.9727
  185MOL0     H24973   4.789   0.791  10.126  1.7205  0.4041 -1.6843
  185MOL0     H24974   4.320   1.040  10.600 -0.4358 -0.7348 -0.1283
  185MOL0     H24975   4.081   1.049  10.607 -2.4668  1.7666  0.3458
  186MOL0     O24976  10.802   2.480   0.734 -0.3822  0.2453  0.1852
  186MOL0     C24977  10.898   2.553   0.731 -0.5013  0.6210 -0.3264
  186MOL0     O24978  10.903   2.680   0.768  0.2636 -0.0311  0.2004
  186MOL0     C24979  10.780   2.743   0.783 -0.3598  0.5002 -0.5312
  186MOL0     C24980  10.742   2.849   0.698  0.9111  0.2816 -0.6215
  186MOL0     C24981  10.623   2.915   0.718  0.0366  0.0198  0.3568
  186MOL0     C24982  10.536   2.882   0.823  0.5425 -1.1025  0.4288
  186MOL0     O24983  10.413   2.934   0.816  0.3253  0.3698 -0.6985
  186MOL0     C24984  10.289   2.857   0.851 -0.5594 -0.5257 -0.4133
  186MOL0     C24985  10.166   2.940   0.802  0.9564  0.5910  0.4463
  186MOL0     C24986  10.165   2.944   0.645  0.5470 -0.5756 -0.4204
  186MOL0     C24987  10.049   3.028   0.594 -0.2897  1.0251 -0.1025
  186MOL0     C24988  10.058   3.082   0.449 -0.2458 -0.3582  1.1960
  186MOL0     C24989  10.196   3.141   0.397 -0.6435  0.3949 -0.1347
  186MOL0     C24990  10.225   3.264   0.467  0.0554  0.3801  0.2753
  186MOL0     C24991  10.355   3.317   0.416  0.3724 -0.2227 -0.1043
  186MOL0     N24992  10.410   3.412   0.515 -0.5208  0.0559 -0.1239
  186MOL0     C24993  10.417   3.548   0.512  0.3064 -0.2923  0.5757
  186MOL0     C24994  10.476   3.589   0.626  0.0552 -0.2657 -0.4355
  186MOL0     C24995  10.486   3.734   0.664 -1.1476  0.1468  0.8587
  186MOL0     C24996  10.357   3.800   0.673  0.2281 -1.2281 -0.2779
  186MOL0     C24997  10.367   3.950   0.694  0.4721 -0.1665 -0.3068
  186MOL0     C24998  10.222   4.002   0.717 -0.6869 -0.0852 -0.2060
  186MOL0     O24999  10.148   4.003   0.593 -0.9973 -0.3761  0.0568
  186MOL0     C25000  10.014   4.028   0.592 -0.5593  0.2197  0.3809
  186MOL0     C25001   9.958   4.045   0.470  1.1498  0.2806 -0.5031
  186MOL0     C25002   9.820   4.079   0.465 -0.0524 -1.3333 -0.3552
  186MOL0     C25003   9.778   4.128   0.326  0.0452 -0.0554  0.2565
  186MOL0     C25004   9.736   4.086   0.581 -0.0736  0.8293 -0.1544
  186MOL0     C25005   9.588   4.100   0.583  0.8811 -0.6439  0.4943
  186MOL0     O25006   9.528   4.117   0.707  0.4564  0.2035  0.2376
  186MOL0     C25007   9.387   4.138   0.711  0.1753  0.4028 -0.7066
  186MOL0     C25008   9.295   4.026   0.697 -0.1000 -1.3048 -0.1723
  186MOL0     C25009   9.159   4.057   0.718  0.6691  0.5174 -0.2289
  186MOL0     C25010   9.106   4.185   0.742 -0.1841  0.0881 -0.4402
  186MOL0     O25011   8.970   4.219   0.755  0.1510  0.9498  0.5083
  186MOL0     C25012   8.933   4.265   0.890 -0.4786 -0.2373 -0.0025
  186MOL0     C25013   8.788   4.230   0.921 -0.4191 -0.4773 -0.3958
  186MOL0     C25014   8.690   4.308   0.832  0.2545 -0.0959 -0.0750
  186MOL0     C25015   8.544   4.266   0.850 -0.4011 -0.1309 -0.9664
  186MOL0     C25016   8.490   4.307   0.989 -0.7715 -0.0967  0.3783
  186MOL0     C25017   8.498   4.461   1.019  0.5797 -0.4809 -0.3750
  186MOL0     C25018   8.434   4.480   1.160  0.2877  0.7693  0.6348
  186MOL0     C25019   8.412   4.629   1.185 -0.2330  0.0652  0.1089
  186MOL0    Cl25020   8.274   4.682   1.090  0.1972 -0.1005  0.0298
  186MOL0     C25021   9.202   4.286   0.738  0.8012 -0.1446  0.2206
  186MOL0     C25022   9.336   4.265   0.733 -0.0730  0.1359  0.2050
  186MOL0     O25023   9.524   4.077   0.476  0.4302  0.7927  0.6737
  186MOL0     C25024   9.797   4.063   0.699 -1.1276  0.1434 -0.5848
  186MOL0     C25025   9.935   4.046   0.712 -0.0330  0.3040  0.2419
  186MOL0     N25026  10.508   3.478   0.700 -0.4507  0.1796  0.2209
  186MOL0     N25027  10.471   3.374   0.626 -0.0499 -0.1426 -0.0807
  186MOL0     C25028  10.568   2.770   0.903 -0.0155  0.4136 -0.3923
  186MOL0     C25029  10.695   2.711   0.890  0.1524 -0.2616  0.1306
  186MOL0     C25030  11.038   2.498   0.723 -0.0692  0.3561  0.3827
  186MOL0     C25031  11.073   2.364   0.691  0.5035 -0.4933 -0.0058
  186MOL0     C25032  11.204   2.317   0.679 -0.4656  0.7213 -0.4338
  186MOL0     C25033  11.308   2.403   0.695 -0.1597 -0.2610  0.2580
  186MOL0     O25034  11.445   2.374   0.684  0.3289 -0.1747 -0.2920
  186MOL0     C25035  11.477   2.239   0.642  0.1954  0.1226  0.4818
  186MOL0     C25036  11.627   2.222   0.638  0.0036 -0.8231 -0.2280
  186MOL0     C25037  11.672   2.082   0.609  0.0839  0.6574 -0.0033
  186MOL0     C25038  11.817   2.050   0.669 -0.5895 -0.5639 -0.5891
  186MOL0     C25039  11.912   2.129   0.593 -0.4162 -0.4213 -0.0620
  186MOL0     C25040  11.998   2.206   0.548  0.0253 -0.2288 -0.1614
  186MOL0     C25041  11.280   2.535   0.724  0.0652  0.5900  0.3089
  186MOL0     C25042  11.153   2.584   0.737 -0.3498 -0.2379 -0.1451
  186MOL0     H25043  10.806   2.877   0.615 -0.7325  2.5384 -1.2008
  186MOL0     H25044  10.595   2.982   0.637 -3.4761 -0.1508  1.2696
  186MOL0     H25045  10.291   2.757   0.806  0.5871 -0.1744 -1.2012
  186MOL0     H25046  10.288   2.838   0.959 -1.2039  0.4269 -0.2408
  186MOL0     H25047  10.075   2.887   0.829  2.3648 -0.8890  2.6094
  186MOL0     H25048  10.158   3.042   0.841  1.4630  2.5058 -3.9178
  186MOL0     H25049  10.260   2.984   0.608 -0.3337  2.5913  0.4822
  186MOL0     H25050  10.159   2.839   0.614  0.9346 -0.8973  0.5691
  186MOL0     H25051   9.960   2.964   0.594  1.1231 -1.0643 -0.9926
  186MOL0     H25052  10.032   3.120   0.650 -0.3825  1.9939 -1.6672
  186MOL0     H25053  10.046   2.996   0.382 -0.5303  0.1097  0.6430
  186MOL0     H25054   9.972   3.148   0.436 -0.3003 -0.2511  2.0393
  186MOL0     H25055  10.271   3.063   0.412 -1.3227 -0.2387  0.0370
  186MOL0     H25056  10.177   3.160   0.291 -2.7293  1.5223  0.3870
  186MOL0     H25057  10.144   3.336   0.453 -2.2077 -2.1496 -0.4407
  186MOL0     H25058  10.231   3.250   0.576 -1.4294 -1.2903  0.1818
  186MOL0     H25059  10.338   3.362   0.318  1.1283 -3.2837 -1.7502
  186MOL0     H25060  10.420   3.231   0.404  0.6805 -0.3664  2.1108
  186MOL0     H25061  10.371   3.620   0.445  1.1694  0.4507  0.7588
  186MOL0     H25062  10.537   3.747   0.760 -0.8305  0.5978  0.6332
  186MOL0     H25063  10.551   3.788   0.594 -0.2400 -1.1814  0.6391
  186MOL0     H25064  10.300   3.756   0.755  1.4815 -0.9686  0.7625
  186MOL0     H25065  10.305   3.782   0.578  0.1311 -2.4026 -0.0211
  186MOL0     H25066  10.412   3.999   0.608  0.3746 -0.6467 -0.6343
  186MOL0     H25067  10.421   3.952   0.789 -1.2746 -1.4966  0.8012
  186MOL0     H25068  10.239   4.104   0.753  5.1919  0.6823 -3.8553
  186MOL0     H25069  10.174   3.940   0.793  0.6083 -1.1485 -0.2253
  186MOL0     H25070  10.013   4.035   0.377  2.8329  0.4648  0.4290
  186MOL0     H25071   9.857   4.126   0.251  0.2210 -0.3339  0.4497
  186MOL0     H25072   9.691   4.071   0.290  1.6427 -0.2381 -3.7377
  186MOL0     H25073   9.749   4.232   0.340  0.2614 -0.0296  0.5130
  186MOL0     H25074   9.329   3.923   0.690  0.7742 -1.0467  0.1380
  186MOL0     H25075   9.088   3.980   0.747  1.7080 -0.7489 -0.9583
  186MOL0     H25076   9.001   4.219   0.962  1.2220  1.5992 -0.3592
  186MOL0     H25077   8.947   4.373   0.894  1.6100 -0.5121  1.4818
  186MOL0     H25078   8.773   4.126   0.892  2.9656 -1.2738  0.3455
  186MOL0     H25079   8.766   4.245   1.027  0.3244  0.0617 -0.3097
  186MOL0     H25080   8.706   4.275   0.729  1.3003 -1.4328  0.4887
  186MOL0     H25081   8.713   4.415   0.837  3.0329 -0.5315 -1.6886
  186MOL0     H25082   8.487   4.316   0.772 -1.3931  0.7581  0.2874
  186MOL0     H25083   8.533   4.157   0.847  0.4473 -0.4990  2.9921
  186MOL0     H25084   8.562   4.261   1.058  2.4851  2.2519 -1.1759
  186MOL0     H25085   8.389   4.271   1.010 -0.8658  0.1986  0.4503
  186MOL0     H25086   8.605   4.486   1.014 -0.1092  2.8940 -0.8346
  186MOL0     H25087   8.454   4.524   0.941 -0.2634  0.8861  1.1488
  186MOL0     H25088   8.508   4.432   1.224 -0.2653 -1.8205 -0.5129
  186MOL0     H25089   8.337   4.429   1.159 -1.0378  3.1178 -0.8930
  186MOL0     H25090   8.507   4.678   1.164 -0.8429  1.3516  0.2621
  186MOL0     H25091   8.383   4.650   1.289 -2.4006  1.7198 -0.7554
  186MOL0     H25092   9.163   4.387   0.744 -0.0120 -0.0880 -3.4261
  186MOL0     H25093   9.409   4.345   0.728  0.5006 -0.4143 -4.9235
  186MOL0     H25094   9.737   4.052   0.789  0.2091 -1.0158  0.2155
  186MOL0     H25095   9.983   4.041   0.809 -0.5320  2.8383  0.6914
  186MOL0     H25096  10.502   2.731   0.979 -0.3195 -1.8048 -1.7185
  186MOL0     H25097  10.728   2.630   0.954  1.1440  1.0632  1.3595
  186MOL0     H25098  10.996   2.302   0.646  1.1906 -1.1341 -0.3136
  186MOL0     H25099  11.224   2.214   0.653 -1.2063 -0.6396  3.6244
  186MOL0     H25100  11.429   2.158   0.698 -1.6114 -0.2385 -1.4757
  186MOL0     H25101  11.442   2.234   0.539  2.1152  0.2466 -0.2194
  186MOL0     H25102  11.660   2.252   0.738  2.3096  1.1610 -1.4633
  186MOL0     H25103  11.665   2.298   0.569 -2.3950  2.2218  1.5194
  186MOL0     H25104  11.670   2.077   0.500  0.6157  3.7286 -0.2382
  186MOL0     H25105  11.602   2.014   0.659  0.3097  0.5104  0.1120
  186MOL0     H25106  11.840   1.943   0.664  0.4856 -0.4601  1.2331
  186MOL0     H25107  11.821   2.075   0.776 -0.7536 -3.5314  0.2119
  186MOL0     H25108  12.068   2.275   0.505  0.4519 -1.0721 -0.8530
  186MOL0     H25109  11.374   2.589   0.732  0.6514 -0.6103  2.7449
  186MOL0     H25110  11.145   2.692   0.751 -2.0282 -0.2693 -0.6282
  187MOL0     O25111   0.335   3.503   9.142 -0.0475  0.0209 -0.3260
  187MOL0     C25112   0.214   3.492   9.135 -0.0978 -1.1534  0.5273
  187MOL0     O25113   0.134   3.405   9.208  0.1685 -0.5377 -0.3305
  187MOL0     C25114   0.186   3.335   9.321 -0.5880 -0.1646  0.7472
  187MOL0     C25115   0.296   3.251   9.316 -0.2811 -0.4112  0.4116
  187MOL0     C25116   0.328   3.179   9.429  0.3486  1.0369  0.6355
  187MOL0     C25117   0.279   3.205   9.557  0.9583  0.5762  0.1802
  187MOL0     O25118   0.316   3.136   9.671 -0.1625 -0.3438 -0.3175
  187MOL0     C25119   0.456   3.117   9.684  1.2721  0.1856  0.1710
  187MOL0     C25120   0.478   3.112   9.827  0.4660  0.1540 -0.5008
  187MOL0     C25121   0.620   3.133   9.867 -0.6444  0.7638  0.3766
  187MOL0     C25122   0.648   3.098  10.014 -0.1030 -0.7467 -0.5634
  187MOL0     C25123   0.586   3.206  10.107  0.4740  0.4359  0.6526
  187MOL0     C25124   0.612   3.181  10.255 -0.4421  0.2458 -0.0526
  187MOL0     C25125   0.549   3.284  10.343 -0.9745 -0.0663 -0.0677
  187MOL0     C25126   0.441   3.225  10.439  0.5391  0.3011  0.6029
  187MOL0     N25127   0.456   3.288  10.575 -0.4832  0.0750  0.2114
  187MOL0     C25128   0.411   3.418  10.605  0.1774 -0.1039 -0.7699
  187MOL0     C25129   0.442   3.429  10.740  0.4405 -0.1850 -0.2736
  187MOL0     C25130   0.410   3.553  10.830  0.3470 -0.3820 -0.1503
  187MOL0     C25131   0.257   3.549  10.864  0.4721  0.1736 -0.1541
  187MOL0     C25132   0.228   3.683  10.943 -0.7648  0.5309  0.2932
  187MOL0     C25133   0.079   3.695  10.966  1.1567 -0.7754  0.3946
  187MOL0     O25134   0.043   3.606  11.076  0.2191 -0.5388  0.3090
  187MOL0     C25135  -0.076   3.633  11.130 -0.4346  0.1498  0.0006
  187MOL0     C25136  -0.108   3.560  11.241 -0.5209 -0.1999 -0.2262
  187MOL0     C25137  -0.232   3.559  11.297  0.8319 -1.0679 -0.4049
  187MOL0     C25138  -0.252   3.496  11.430  0.0954  0.0596  0.2622
  187MOL0     C25139  -0.341   3.635  11.233  0.1969  0.7273 -0.6762
  187MOL0     C25140  -0.481   3.631  11.282  0.4056 -0.4220  0.2011
  187MOL0     O25141  -0.561   3.718  11.221 -0.0729  0.4633  0.8982
  187MOL0     C25142  -0.695   3.729  11.228 -0.6669 -0.6142 -0.0937
  187MOL0     C25143  -0.783   3.632  11.278 -0.0080 -0.3787  0.3384
  187MOL0     C25144  -0.921   3.644  11.282 -0.2727 -0.1519 -0.5000
  187MOL0     C25145  -0.987   3.747  11.218 -0.6792 -0.7533  1.0456
  187MOL0     O25146  -1.123   3.759  11.235 -0.3208 -0.1887  0.4029
  187MOL0     C25147  -1.184   3.860  11.149 -1.0773 -0.7558  0.6672
  187MOL0     C25148  -1.330   3.892  11.181  0.3731 -0.5537 -0.0077
  187MOL0     C25149  -1.416   3.769  11.160  0.4616  0.0302 -0.5781
  187MOL0     C25150  -1.561   3.779  11.214 -0.6266  0.5455 -0.6527
  187MOL0     C25151  -1.579   3.749  11.369  0.2180 -0.2506 -0.0934
  187MOL0     C25152  -1.716   3.797  11.406  0.0012 -0.4135 -0.2465
  187MOL0     C25153  -1.752   3.765  11.556 -0.3061  0.3091 -0.3845
  187MOL0     C25154  -1.895   3.775  11.615 -0.0382 -0.1333 -0.4718
  187MOL0    Cl25155  -2.014   3.686  11.533  0.3467  0.3250  0.5056
  187MOL0     C25156  -0.901   3.844  11.156  0.2179 -0.4051  0.2693
  187MOL0     C25157  -0.758   3.830  11.156 -0.4727 -0.4290  0.9638
  187MOL0     O25158  -0.518   3.537  11.357  0.1120 -0.1987  0.8047
  187MOL0     C25159  -0.306   3.716  11.133  0.4621 -0.4180 -0.4822
  187MOL0     C25160  -0.173   3.723  11.087  0.0203  0.0231  0.1856
  187MOL0     N25161   0.508   3.315  10.781 -0.1577  0.1084  0.7888
  187MOL0     N25162   0.519   3.229  10.681 -0.3156 -0.6978  0.7246
  187MOL0     C25163   0.168   3.289   9.560  0.3254 -0.3695  1.0412
  187MOL0     C25164   0.116   3.345   9.437 -0.6109 -0.0801 -0.1152
  187MOL0     C25165   0.149   3.568   9.024  1.3630  0.3693  0.2308
  187MOL0     C25166   0.008   3.566   9.006  0.3417 -1.1472  0.4088
  187MOL0     C25167  -0.047   3.643   8.902  0.3254 -0.3772 -0.6136
  187MOL0     C25168   0.028   3.714   8.817  0.0649 -1.1657  0.3960
  187MOL0     O25169  -0.021   3.766   8.701  1.0064  0.3862 -0.1880
  187MOL0     C25170  -0.150   3.700   8.658  0.1125 -0.5437 -0.6635
  187MOL0     C25171  -0.191   3.711   8.513 -0.2698 -1.0144 -0.3181
  187MOL0     C25172  -0.254   3.859   8.497  1.0071 -0.2774  0.0086
  187MOL0     C25173  -0.293   3.886   8.355  0.8312  1.0826  0.7940
  187MOL0     C25174  -0.385   3.782   8.298  0.4533  0.3774  0.6596
  187MOL0     C25175  -0.464   3.704   8.257  0.1344  0.0140 -1.2097
  187MOL0     C25176   0.166   3.710   8.833 -0.4376 -0.3143  0.0440
  187MOL0     C25177   0.221   3.641   8.934  0.0773  0.0793  0.0443
  187MOL0     H25178   0.341   3.224   9.221 -1.1902 -0.4032 -0.0331
  187MOL0     H25179   0.406   3.105   9.417  1.1383  1.8264  0.7441
  187MOL0     H25180   0.488   3.034   9.621 -3.1595 -3.0688  1.6434
  187MOL0     H25181   0.506   3.209   9.654  2.0050  0.3153  1.7023
  187MOL0     H25182   0.419   3.189   9.877  2.1458  1.4536 -0.4341
  187MOL0     H25183   0.454   3.014   9.870  0.3492  0.6171  0.5452
  187MOL0     H25184   0.688   3.062   9.819 -1.8180  0.5439 -1.0192
  187MOL0     H25185   0.653   3.236   9.848  1.1426 -0.1160 -1.6410
  187MOL0     H25186   0.599   3.003  10.040 -0.0684 -0.6422 -0.1103
  187MOL0     H25187   0.755   3.088  10.030  0.3518  2.7384 -0.8448
  187MOL0     H25188   0.635   3.295  10.066  0.0450 -0.2537 -1.5052
  187MOL0     H25189   0.479   3.225  10.095  0.3902  0.9735  2.0002
  187MOL0     H25190   0.580   3.082  10.289 -0.0854  0.4493  0.9130
  187MOL0     H25191   0.720   3.191  10.270 -0.2260 -1.8602  0.0699
  187MOL0     H25192   0.629   3.321  10.407  0.2870 -1.5223 -0.7430
  187MOL0     H25193   0.513   3.374  10.292  0.8092  0.1132 -1.0728
  187MOL0     H25194   0.452   3.117  10.447  0.4794  0.2413 -0.1001
  187MOL0     H25195   0.344   3.246  10.392  0.8481 -2.1891 -1.3400
  187MOL0     H25196   0.360   3.486  10.538  0.2568 -0.3706 -1.1057
  187MOL0     H25197   0.460   3.556  10.928 -2.2442 -2.0922  1.3411
  187MOL0     H25198   0.432   3.651  10.787 -0.7238 -0.6259 -1.3073
  187MOL0     H25199   0.233   3.461  10.924 -2.9580 -0.3213 -1.9971
  187MOL0     H25200   0.197   3.547  10.773 -1.0579  1.5460  0.7864
  187MOL0     H25201   0.260   3.770  10.884  0.2923  1.1482  1.7394
  187MOL0     H25202   0.278   3.675  11.039 -0.4970 -1.1538  0.0545
  187MOL0     H25203   0.018   3.664  10.881 -1.0591 -1.7137  2.2021
  187MOL0     H25204   0.052   3.797  10.995  0.5911 -1.4307  2.3020
  187MOL0     H25205  -0.028   3.501  11.286  1.4902  1.2784 -1.6366
  187MOL0     H25206  -0.160   3.442  11.456 -0.3932 -2.5705 -2.8106
  187MOL0     H25207  -0.273   3.573  11.505  0.4392  0.2635  0.1527
  187MOL0     H25208  -0.320   3.410  11.433  1.6292 -1.2014  1.3669
  187MOL0     H25209  -0.743   3.537  11.312  0.9356  0.1615  0.7810
  187MOL0     H25210  -0.988   3.574  11.330  0.4891 -0.2298  0.4968
  187MOL0     H25211  -1.130   3.955  11.150 -0.7085 -0.9636  1.1349
  187MOL0     H25212  -1.180   3.818  11.048  0.2191 -0.8682  0.7419
  187MOL0     H25213  -1.339   3.918  11.287 -2.5666 -0.3233 -0.2171
  187MOL0     H25214  -1.355   3.972  11.111  0.2731 -1.5149 -1.0971
  187MOL0     H25215  -1.375   3.676  11.199 -1.3867 -0.6253 -0.1007
  187MOL0     H25216  -1.416   3.747  11.053 -0.7978  1.9150 -1.0166
  187MOL0     H25217  -1.617   3.867  11.183 -0.8991 -0.0103 -1.8102
  187MOL0     H25218  -1.624   3.705  11.164  0.0734 -0.9266  0.5241
  187MOL0     H25219  -1.513   3.803  11.438  1.0766 -2.4501  0.9066
  187MOL0     H25220  -1.578   3.646  11.405 -0.6566 -1.1674 -2.5398
  187MOL0     H25221  -1.712   3.905  11.390 -1.6411 -0.2492  0.2378
  187MOL0     H25222  -1.789   3.769  11.329 -1.4432  4.2122 -0.8422
  187MOL0     H25223  -1.691   3.824  11.626 -0.0905  1.7988 -1.7623
  187MOL0     H25224  -1.716   3.664  11.578  0.0315  0.6984  0.9290
  187MOL0     H25225  -1.927   3.879  11.615  0.4486  0.0187 -0.5258
  187MOL0     H25226  -1.901   3.741  11.719 -1.5642  0.3353 -0.3921
  187MOL0     H25227  -0.933   3.940  11.115  2.0571  0.1781  0.1132
  187MOL0     H25228  -0.694   3.900  11.104 -0.4293 -0.2420  1.2624
  187MOL0     H25229  -0.382   3.773  11.082  1.2765 -0.2342 -1.5156
  187MOL0     H25230  -0.158   3.790  11.003 -0.2451 -0.1636 -0.0121
  187MOL0     H25231   0.099   3.308   9.642 -0.5501  0.3520  0.1666
  187MOL0     H25232   0.023   3.400   9.451 -0.3347  0.2104  0.6742
  187MOL0     H25233  -0.057   3.514   9.075 -0.3064 -3.2670 -1.6514
  187MOL0     H25234  -0.155   3.653   8.902  0.2929 -0.6828 -0.9227
  187MOL0     H25235  -0.128   3.593   8.667 -3.1575 -1.3272 -0.8354
  187MOL0     H25236  -0.241   3.713   8.717 -0.6053 -0.9102 -1.6792
  187MOL0     H25237  -0.258   3.629   8.486 -1.0299 -1.2503  2.0047
  187MOL0     H25238  -0.100   3.705   8.454  0.3401  1.6825  0.2136
  187MOL0     H25239  -0.183   3.939   8.519 -0.9086  1.5853 -0.2471
  187MOL0     H25240  -0.343   3.864   8.561 -0.9658 -1.3765 -2.4586
  187MOL0     H25241  -0.206   3.893   8.290  0.6740 -2.5335 -0.0345
  187MOL0     H25242  -0.358   3.974   8.353 -2.2851 -1.0505 -1.1570
  187MOL0     H25243  -0.522   3.624   8.215  1.3198 -0.5643 -1.7987
  187MOL0     H25244   0.229   3.765   8.764 -0.9034  0.2608  0.0620
  187MOL0     H25245   0.328   3.647   8.948  0.1037  0.9359 -0.4822
  188MOL0     O25246   8.073   9.906   2.828  0.2697  0.4691  0.3200
  188MOL0     C25247   8.155   9.896   2.916 -0.4492 -0.2519  0.4290
  188MOL0     O25248   8.147   9.940   3.047  0.3372 -0.2633  0.2939
  188MOL0     C25249   8.026   9.997   3.081 -1.2611 -0.8384 -0.0188
  188MOL0     C25250   7.907   9.936   3.078 -0.0062 -0.0349 -1.3019
  188MOL0     C25251   7.785  10.002   3.103 -0.2730  0.1601 -0.1467
  188MOL0     C25252   7.793  10.134   3.141  0.2168  0.2514 -0.0699
  188MOL0     O25253   7.673  10.198   3.166  0.2888  0.4014  0.6276
  188MOL0     C25254   7.655  10.280   3.285  0.1529 -0.6424 -0.1954
  188MOL0     C25255   7.662  10.199   3.412  0.0813  0.2229  0.1696
  188MOL0     C25256   7.544  10.112   3.454 -0.1550 -0.9750 -0.6602
  188MOL0     C25257   7.463  10.036   3.345 -0.4865  0.1533 -0.1356
  188MOL0     C25258   7.384   9.926   3.408  0.1151  0.2753 -0.1096
  188MOL0     C25259   7.315   9.838   3.300  0.4889 -1.3152  0.2740
  188MOL0     C25260   7.296   9.698   3.351 -0.1165 -0.7522 -0.1631
  188MOL0     C25261   7.169   9.682   3.420  0.5635 -0.6372 -0.4202
  188MOL0     N25262   7.150   9.549   3.477 -0.3774  0.1578  0.5568
  188MOL0     C25263   7.251   9.457   3.489 -0.6773 -0.1452  0.3730
  188MOL0     C25264   7.194   9.346   3.529  0.0161  0.1549 -0.1989
  188MOL0     C25265   7.267   9.208   3.521 -0.3801  0.5096 -0.3064
  188MOL0     C25266   7.286   9.149   3.369 -0.2032 -0.1348 -0.8211
  188MOL0     C25267   7.175   9.045   3.317  0.7230  0.8411  0.3784
  188MOL0     C25268   7.030   9.098   3.347 -0.1890  0.2415 -0.9887
  188MOL0     O25269   6.932   9.029   3.275 -0.4521  0.3402  0.8477
  188MOL0     C25270   6.802   9.028   3.319 -0.2223  0.5922 -0.5993
  188MOL0     C25271   6.749   9.136   3.395  0.1114  0.2407  0.3637
  188MOL0     C25272   6.622   9.114   3.446  0.6688  0.7593 -0.2120
  188MOL0     C25273   6.576   9.225   3.531 -0.3737  0.0313  0.5703
  188MOL0     C25274   6.544   8.996   3.422 -0.5530  0.4052 -0.4625
  188MOL0     C25275   6.406   8.966   3.482  0.0673  0.2894 -0.1957
  188MOL0     O25276   6.357   8.840   3.460  0.5061 -0.2264 -0.2890
  188MOL0     C25277   6.257   8.804   3.543 -0.1298  0.1684  0.4477
  188MOL0     C25278   6.125   8.822   3.505  0.4730 -0.2490  0.2821
  188MOL0     C25279   6.025   8.788   3.600 -0.7892 -0.0233  0.1768
  188MOL0     C25280   6.042   8.745   3.730  0.1576  0.2968 -0.0712
  188MOL0     O25281   5.937   8.717   3.813 -0.2004 -0.5517 -0.0606
  188MOL0     C25282   5.798   8.712   3.772  0.6727 -0.3452  0.3651
  188MOL0     C25283   5.709   8.638   3.867 -0.7331  0.7832 -0.2872
  188MOL0     C25284   5.718   8.697   4.019 -0.3225 -0.8210 -0.5729
  188MOL0     C25285   5.628   8.603   4.109  1.3234  0.6339  0.4364
  188MOL0     C25286   5.651   8.617   4.259 -0.3579  0.3861 -0.1173
  188MOL0     C25287   5.590   8.751   4.301 -0.2152  0.4811 -0.5851
  188MOL0     C25288   5.576   8.764   4.446 -0.0086  0.1486 -0.1120
  188MOL0     C25289   5.704   8.751   4.518  0.1671  0.3420 -0.0143
  188MOL0    Cl25290   5.698   8.810   4.683 -0.3985 -0.0840 -0.3728
  188MOL0     C25291   6.176   8.721   3.766 -0.3724 -0.0662 -0.1261
  188MOL0     C25292   6.279   8.745   3.669 -0.4115 -0.2974 -0.3536
  188MOL0     O25293   6.346   9.063   3.525 -0.2503  1.0439 -0.3922
  188MOL0     C25294   6.608   8.897   3.343  0.2619  0.2659  0.1347
  188MOL0     C25295   6.737   8.916   3.297  0.9919  0.8946 -0.5862
  188MOL0     N25296   7.061   9.373   3.556 -0.1602  0.4401  0.1386
  188MOL0     N25297   7.033   9.492   3.526  0.3173 -0.5712 -0.9864
  188MOL0     C25298   7.917  10.196   3.164  0.6079  0.7108  0.2599
  188MOL0     C25299   8.037  10.131   3.128 -0.2289  0.1105 -0.5379
  188MOL0     C25300   8.281   9.841   2.864 -0.2706 -0.9787  0.0259
  188MOL0     C25301   8.392   9.851   2.957  0.3764  0.4376 -0.0547
  188MOL0     C25302   8.512   9.798   2.908  0.5329 -0.1437  0.1775
  188MOL0     C25303   8.533   9.749   2.782  0.7985  0.4299  0.6056
  188MOL0     O25304   8.656   9.696   2.752 -0.4473  0.0886 -0.0828
  188MOL0     C25305   8.694   9.667   2.619 -1.0576 -0.7956 -0.6878
  188MOL0     C25306   8.844   9.671   2.629  0.2226 -0.4689 -0.1716
  188MOL0     C25307   8.897   9.816   2.667  0.3123  0.1868  0.1306
  188MOL0     C25308   9.054   9.830   2.676 -0.0329  0.2165 -0.1876
  188MOL0     C25309   9.138   9.828   2.551 -0.6796 -0.1525 -0.3696
  188MOL0     C25310   9.203   9.830   2.447  0.0200 -0.4756 -0.3240
  188MOL0     C25311   8.422   9.743   2.696  1.0906  0.1817  0.0142
  188MOL0     C25312   8.305   9.792   2.739  0.2035 -0.2554 -0.8121
  188MOL0     H25313   7.895   9.833   3.046  0.5496 -0.9873  1.2903
  188MOL0     H25314   7.689   9.953   3.092  0.5596 -1.1094 -2.6543
  188MOL0     H25315   7.729  10.361   3.288  3.8547 -3.7519 -0.8831
  188MOL0     H25316   7.553  10.320   3.287  0.1641 -0.6315  1.6164
  188MOL0     H25317   7.750  10.134   3.415 -1.7690 -2.3921  1.8262
  188MOL0     H25318   7.682  10.268   3.494  0.4879 -1.9070  1.9624
  188MOL0     H25319   7.587  10.042   3.526 -1.8420 -0.5249  0.8455
  188MOL0     H25320   7.478  10.176   3.513  2.3395 -0.3278  1.6320
  188MOL0     H25321   7.394  10.108   3.301 -0.7859 -0.0925 -0.0737
  188MOL0     H25322   7.521   9.989   3.265  0.1420 -1.6161  1.2925
  188MOL0     H25323   7.448   9.863   3.472 -1.2785 -0.4028  0.6588
  188MOL0     H25324   7.303   9.971   3.466 -1.1378 -1.7359 -0.2109
  188MOL0     H25325   7.228   9.890   3.261  1.1261 -0.0395  0.4671
  188MOL0     H25326   7.382   9.835   3.214 -1.3402  1.3388 -1.3569
  188MOL0     H25327   7.294   9.637   3.260  1.4023  1.2927 -1.6472
  188MOL0     H25328   7.379   9.664   3.413  1.2165 -3.3087 -3.0443
  188MOL0     H25329   7.087   9.697   3.349 -0.3961  1.4563  1.0171
  188MOL0     H25330   7.161   9.766   3.490  1.1428  0.8117 -2.0257
  188MOL0     H25331   7.355   9.471   3.463 -0.2015 -1.6509  1.3774
  188MOL0     H25332   7.362   9.234   3.568  0.2133 -2.1286  0.1142
  188MOL0     H25333   7.212   9.128   3.571  0.6355  0.7184  1.1879
  188MOL0     H25334   7.384   9.103   3.356 -0.9134 -1.1031 -3.2356
  188MOL0     H25335   7.290   9.236   3.302 -1.6872 -0.3704 -1.2413
  188MOL0     H25336   7.196   8.946   3.359  1.0555  0.8872  0.3170
  188MOL0     H25337   7.165   9.042   3.208 -5.2753  1.1543  0.5645
  188MOL0     H25338   7.018   9.205   3.326 -2.0657  0.1720 -0.4541
  188MOL0     H25339   7.015   9.080   3.454  1.2684  1.8015 -0.4801
  188MOL0     H25340   6.799   9.228   3.422 -1.0628  0.8512  0.5304
  188MOL0     H25341   6.496   9.289   3.493 -0.6453 -0.1506  0.8302
  188MOL0     H25342   6.546   9.185   3.628  1.6001 -4.0202 -0.2646
  188MOL0     H25343   6.661   9.288   3.558  0.3311 -1.7046  2.6870
  188MOL0     H25344   6.093   8.869   3.413  1.9183  0.7536  0.2549
  188MOL0     H25345   5.923   8.816   3.575 -1.6788 -3.1229 -0.0831
  188MOL0     H25346   5.764   8.816   3.766  4.1665  0.8301 -3.0074
  188MOL0     H25347   5.795   8.678   3.668  3.2954  2.0731 -0.6435
  188MOL0     H25348   5.608   8.631   3.827 -0.6101 -1.0512 -0.3493
  188MOL0     H25349   5.750   8.538   3.856 -0.9638  0.6630 -0.0485
  188MOL0     H25350   5.671   8.796   4.026  1.1469 -0.1643  0.4067
  188MOL0     H25351   5.822   8.713   4.046 -0.2978  2.1349 -1.9806
  188MOL0     H25352   5.523   8.617   4.084  1.2024 -1.5715 -0.4974
  188MOL0     H25353   5.642   8.500   4.075  0.6940  0.7772 -0.2763
  188MOL0     H25354   5.758   8.625   4.277 -0.2543  0.1459 -0.6413
  188MOL0     H25355   5.614   8.529   4.313 -0.7601 -0.2749 -1.4249
  188MOL0     H25356   5.648   8.830   4.252 -1.4178  1.9295  0.2266
  188MOL0     H25357   5.485   8.761   4.270 -1.0604  0.5415  2.0147
  188MOL0     H25358   5.507   8.686   4.481 -1.6451  2.1757  1.4532
  188MOL0     H25359   5.518   8.853   4.469 -1.7746 -1.0868  0.4557
  188MOL0     H25360   5.782   8.797   4.456  0.7956  0.2245  0.6843
  188MOL0     H25361   5.713   8.643   4.525 -1.4223  0.0196 -2.0283
  188MOL0     H25362   6.200   8.696   3.869  2.2784  2.5661  0.0283
  188MOL0     H25363   6.380   8.721   3.701 -0.0806  2.2986  0.8034
  188MOL0     H25364   6.562   8.808   3.301  2.2029 -0.6892 -0.0502
  188MOL0     H25365   6.790   8.840   3.239 -0.4113 -0.1620 -0.5396
  188MOL0     H25366   7.922  10.294   3.210  0.5265  0.5791  0.5525
  188MOL0     H25367   8.130  10.187   3.140 -1.1995  1.3424  1.9627
  188MOL0     H25368   8.387   9.889   3.059  1.6528 -2.3472  1.1291
  188MOL0     H25369   8.604   9.800   2.964  1.3997 -0.6465 -1.1721
  188MOL0     H25370   8.663   9.566   2.591 -1.2087 -0.9470 -0.0021
  188MOL0     H25371   8.662   9.746   2.551  0.7952 -0.7230 -1.5483
  188MOL0     H25372   8.889   9.645   2.533 -1.2457  3.3535 -2.1198
  188MOL0     H25373   8.873   9.598   2.705  1.0050 -3.5596 -3.1762
  188MOL0     H25374   8.849   9.843   2.761 -0.7304  0.9762 -0.6061
  188MOL0     H25375   8.851   9.880   2.590 -0.5095  1.2963  1.5037
  188MOL0     H25376   9.089   9.752   2.744 -1.2131 -0.0916  0.0848
  188MOL0     H25377   9.077   9.926   2.724  2.9596  0.1203 -1.1899
  188MOL0     H25378   9.264   9.830   2.359  2.6086 -3.3122  1.2785
  188MOL0     H25379   8.436   9.723   2.590 -2.2044  0.5333 -0.6114
  188MOL0     H25380   8.224   9.810   2.669 -1.0552 -2.2100  0.0519
  189MOL0     O25381   7.221   0.858   9.634  0.3254 -0.6757  0.2656
  189MOL0     C25382   7.175   0.744   9.639 -0.9954  0.5928  0.2562
  189MOL0     O25383   7.250   0.621   9.635  0.7973 -0.7957 -0.4376
  189MOL0     C25384   7.388   0.627   9.635  0.3260  0.0628  0.3567
  189MOL0     C25385   7.475   0.693   9.722  0.5738  0.1969 -0.1393
  189MOL0     C25386   7.610   0.691   9.700 -1.0188  0.6364  0.1367
  189MOL0     C25387   7.667   0.623   9.588 -0.4440 -0.6438 -0.4886
  189MOL0     O25388   7.802   0.619   9.556  0.8857  0.5832 -0.3968
  189MOL0     C25389   7.885   0.571   9.667 -0.6442 -0.2533 -0.7060
  189MOL0     C25390   7.871   0.415   9.691  0.3551 -0.9700  0.8520
  189MOL0     C25391   7.934   0.372   9.824  0.2489 -0.2122 -0.5747
  189MOL0     C25392   7.834   0.348   9.933 -0.7015  0.5223 -0.1809
  189MOL0     C25393   7.781   0.201   9.915  0.2349  0.4014  0.1989
  189MOL0     C25394   7.653   0.193  10.000 -0.3982 -0.6465  0.3416
  189MOL0     C25395   7.581   0.059  10.007 -0.1747  0.4394  0.2425
  189MOL0     C25396   7.466   0.053  10.101  1.0503 -0.1426  0.3191
  189MOL0     N25397   7.420  -0.087  10.101  0.2366 -0.6044 -0.0054
  189MOL0     C25398   7.324  -0.139  10.022 -0.5903 -0.6148 -0.5418
  189MOL0     C25399   7.293  -0.262  10.078  0.1183  0.1615 -0.0228
  189MOL0     C25400   7.189  -0.364  10.040  0.1003  0.7351  0.1481
  189MOL0     C25401   7.055  -0.301  10.018  0.0986 -0.6789  0.3210
  189MOL0     C25402   6.958  -0.401   9.978 -0.5297  0.8477 -0.2821
  189MOL0     C25403   6.929  -0.525  10.068  0.7589  0.0392 -0.1473
  189MOL0     O25404   6.808  -0.579  10.022 -0.3451  0.0267 -0.3251
  189MOL0     C25405   6.695  -0.523  10.081 -1.1161  0.6766 -1.1566
  189MOL0     C25406   6.590  -0.487   9.994  0.3097 -0.4379  0.1139
  189MOL0     C25407   6.467  -0.454  10.038  0.9647 -0.3233 -0.3772
  189MOL0     C25408   6.369  -0.421   9.930 -0.6749 -0.5574  0.3778
  189MOL0     C25409   6.442  -0.444  10.177 -0.2733 -0.8859 -0.0219
  189MOL0     C25410   6.319  -0.393  10.234  0.1104  0.0012  0.8510
  189MOL0     O25411   6.303  -0.398  10.370  0.5447  1.2811  0.2578
  189MOL0     C25412   6.181  -0.345  10.419 -0.1021  0.8806  0.3221
  189MOL0     C25413   6.185  -0.230  10.501  0.4898  0.2257  0.8366
  189MOL0     C25414   6.061  -0.186  10.556 -0.4137  1.1849  0.6495
  189MOL0     C25415   5.944  -0.258  10.558 -0.1924  0.6948  0.3313
  189MOL0     O25416   5.834  -0.205  10.620  0.4015  0.0495 -0.7803
  189MOL0     C25417   5.730  -0.300  10.675 -0.5115  1.6796  0.0128
  189MOL0     C25418   5.634  -0.228  10.761  0.3212  0.6185  0.2207
  189MOL0     C25419   5.557  -0.112  10.695 -0.2390 -1.2220  0.5704
  189MOL0     C25420   5.473  -0.050  10.818 -0.3926 -0.7823 -1.3092
  189MOL0     C25421   5.400   0.078  10.774  0.1329  0.7522  0.4925
  189MOL0     C25422   5.383   0.183  10.888  0.6264  0.0643  1.0215
  189MOL0     C25423   5.339   0.123  11.011  0.4608 -0.1486  0.2710
  189MOL0     C25424   5.258   0.217  11.095  1.0802 -0.3035  0.7373
  189MOL0    Cl25425   5.092   0.231  11.016 -0.3597  0.0264  0.1870
  189MOL0     C25426   5.937  -0.368  10.475 -0.4938  0.3711  0.7895
  189MOL0     C25427   6.055  -0.408  10.399  0.2173 -0.5977 -0.1723
  189MOL0     O25428   6.243  -0.332  10.158  0.2750 -0.0812 -0.5313
  189MOL0     C25429   6.544  -0.483  10.262 -0.0833  0.6999  1.1444
  189MOL0     C25430   6.669  -0.517  10.216 -0.6288 -0.0114  0.0044
  189MOL0     N25431   7.370  -0.278  10.193 -0.8210 -0.2583 -0.3885
  189MOL0     N25432   7.441  -0.174  10.205  0.1161  0.5520  0.5514
  189MOL0     C25433   7.588   0.546   9.503 -0.5719  0.5766  0.2102
  189MOL0     C25434   7.445   0.543   9.531  0.1025  0.3653  0.1510
  189MOL0     C25435   7.027   0.735   9.656  0.4324 -0.0932 -0.4640
  189MOL0     C25436   6.958   0.844   9.698 -1.1642 -0.4771 -0.2862
  189MOL0     C25437   6.828   0.839   9.729 -0.5603 -0.7149  0.4394
  189MOL0     C25438   6.744   0.725   9.710 -0.1630 -0.4281 -0.2154
  189MOL0     O25439   6.609   0.712   9.734 -0.0029 -0.5639 -0.3753
  189MOL0     C25440   6.530   0.822   9.784  1.1009 -0.7642  0.2464
  189MOL0     C25441   6.383   0.795   9.777  0.2153  0.1537  0.9723
  189MOL0     C25442   6.297   0.919   9.818  0.4040 -0.6101  0.9776
  189MOL0     C25443   6.151   0.872   9.841 -0.1123 -0.2639  0.2817
  189MOL0     C25444   6.130   0.815   9.979  0.4752 -0.4176 -1.0521
  189MOL0     C25445   6.108   0.744  10.077  0.9074 -0.1837 -0.6285
  189MOL0     C25446   6.811   0.617   9.663  0.3820 -0.5096  1.1001
  189MOL0     C25447   6.947   0.619   9.642 -0.4095  0.6107 -0.2152
  189MOL0     H25448   7.434   0.756   9.800 -3.9728 -0.5491 -1.6329
  189MOL0     H25449   7.675   0.743   9.770 -1.1758 -0.6312  1.2859
  189MOL0     H25450   7.991   0.592   9.655 -0.2566 -0.4585  1.7158
  189MOL0     H25451   7.865   0.620   9.763  1.0478  0.4457 -0.6761
  189MOL0     H25452   7.765   0.389   9.691  0.0340  0.2365 -0.3743
  189MOL0     H25453   7.916   0.358   9.609 -2.4733 -0.9142 -0.8652
  189MOL0     H25454   7.998   0.285   9.805  0.6760 -0.1051  0.2866
  189MOL0     H25455   7.996   0.454   9.862  1.9306 -1.9969  0.7651
  189MOL0     H25456   7.865   0.339  10.038 -1.6859 -0.1495  0.0664
  189MOL0     H25457   7.765   0.433   9.926 -1.0291  0.1405 -1.8670
  189MOL0     H25458   7.741   0.179   9.815 -1.7142 -2.9128  1.5399
  189MOL0     H25459   7.846   0.115   9.936 -0.8420 -0.5568 -0.2817
  189MOL0     H25460   7.662   0.227  10.103 -3.1433 -0.2771  0.5310
  189MOL0     H25461   7.586   0.259   9.945 -0.7814  0.3996  2.0188
  189MOL0     H25462   7.542   0.029   9.910 -3.1258  0.7742  1.2093
  189MOL0     H25463   7.651  -0.016  10.044 -0.1710  0.0267 -0.5848
  189MOL0     H25464   7.390   0.115  10.052  1.4886  0.2568  0.1349
  189MOL0     H25465   7.487   0.084  10.204  0.9927  0.7551  0.0707
  189MOL0     H25466   7.299  -0.103   9.923 -0.0853  2.3541  0.3012
  189MOL0     H25467   7.224  -0.419   9.953 -0.8226  3.7601 -2.3055
  189MOL0     H25468   7.172  -0.431  10.125 -1.1616 -0.1231 -0.7623
  189MOL0     H25469   7.071  -0.231   9.935 -1.8960  0.1710  0.5991
  189MOL0     H25470   7.037  -0.241  10.107  1.6165  1.1834 -0.5479
  189MOL0     H25471   6.994  -0.452   9.889  1.1988 -0.4485  1.0871
  189MOL0     H25472   6.862  -0.350   9.966 -1.6433 -0.9327  0.5506
  189MOL0     H25473   6.921  -0.489  10.171  1.8130 -1.8701  0.6613
  189MOL0     H25474   7.012  -0.596  10.078  2.4056  1.9168  0.1105
  189MOL0     H25475   6.617  -0.491   9.889 -0.3646 -1.0444 -0.0446
  189MOL0     H25476   6.400  -0.474   9.840 -1.4413 -2.7912  1.3469
  189MOL0     H25477   6.265  -0.450   9.953 -2.5782  3.5106 -1.9962
  189MOL0     H25478   6.367  -0.315   9.905  1.2486  0.1093  2.6695
  189MOL0     H25479   6.274  -0.170  10.516  0.0917  0.5406  2.0619
  189MOL0     H25480   6.057  -0.097  10.618  1.2914 -1.0989  4.3937
  189MOL0     H25481   5.673  -0.343  10.593  0.7823  1.8039 -0.9943
  189MOL0     H25482   5.787  -0.372  10.734 -2.1394  1.2585  1.1184
  189MOL0     H25483   5.564  -0.303  10.800  1.4324  0.4679  2.0665
  189MOL0     H25484   5.693  -0.199  10.849 -0.7954  5.0393 -0.2534
  189MOL0     H25485   5.497  -0.136  10.606  0.2421  1.2812 -0.4961
  189MOL0     H25486   5.626  -0.035  10.661 -0.7386 -0.6855  0.7549
  189MOL0     H25487   5.411  -0.129  10.862  2.4297 -3.6100 -2.0330
  189MOL0     H25488   5.555  -0.037  10.888 -0.2300 -1.8728 -1.2747
  189MOL0     H25489   5.302   0.050  10.735  0.2975  0.9664 -0.0805
  189MOL0     H25490   5.469   0.117  10.699  1.9626 -2.2659  0.4206
  189MOL0     H25491   5.482   0.226  10.903  0.9509 -1.3416  3.6736
  189MOL0     H25492   5.314   0.259  10.850  1.7137  0.4952 -0.1305
  189MOL0     H25493   5.422   0.089  11.074  1.8722  0.2638 -1.3205
  189MOL0     H25494   5.277   0.038  10.982 -1.5929  0.6305  2.0593
  189MOL0     H25495   5.302   0.317  11.098  1.8154 -0.5041 -1.4076
  189MOL0     H25496   5.248   0.175  11.195 -1.4976  0.8908  1.0607
  189MOL0     H25497   5.856  -0.440  10.467 -1.2235  1.3776 -1.6974
  189MOL0     H25498   6.045  -0.492  10.332  0.8783 -0.8847  0.0817
  189MOL0     H25499   6.530  -0.500  10.368  0.6598 -1.9838  0.8808
  189MOL0     H25500   6.743  -0.557  10.284  2.0872  2.2887 -1.4002
  189MOL0     H25501   7.641   0.486   9.430 -0.4845  0.5082  0.3301
  189MOL0     H25502   7.374   0.473   9.487  0.9300 -1.1966  1.1941
  189MOL0     H25503   7.014   0.937   9.707  1.7708 -1.8678 -2.3847
  189MOL0     H25504   6.789   0.937   9.755 -1.6618 -0.4598 -1.8535
  189MOL0     H25505   6.561   0.845   9.887  0.5493 -0.6416  0.3917
  189MOL0     H25506   6.547   0.915   9.729  0.3122 -0.4710  0.4681
  189MOL0     H25507   6.366   0.708   9.842  2.0936 -1.1297 -0.1408
  189MOL0     H25508   6.366   0.758   9.676 -2.6871  3.4209  0.0788
  189MOL0     H25509   6.301   0.993   9.738  3.2702 -3.2425 -1.5591
  189MOL0     H25510   6.341   0.962   9.909  3.0205 -0.1013 -0.4301
  189MOL0     H25511   6.124   0.785   9.782  1.9745 -0.6497 -0.1576
  189MOL0     H25512   6.080   0.953   9.824  0.4677  0.1552 -0.1615
  189MOL0     H25513   6.104   0.693  10.171  2.0833  0.6802 -0.0786
  189MOL0     H25514   6.760   0.528   9.628  0.1530 -0.4359  1.2443
  189MOL0     H25515   7.013   0.542   9.603  1.8030  1.8103  0.9270
  190MOL0     O25516   5.659   4.986   3.562  0.0514 -0.3954 -0.5345
  190MOL0     C25517   5.661   4.868   3.577 -0.4839  0.7357 -0.2420
  190MOL0     O25518   5.593   4.770   3.499 -0.0727 -0.2511  0.3456
  190MOL0     C25519   5.469   4.800   3.446  0.0921  0.6010 -0.3816
  190MOL0     C25520   5.399   4.701   3.377  0.5563 -0.7122  0.0447
  190MOL0     C25521   5.275   4.725   3.320  0.0728 -0.0530 -0.0894
  190MOL0     C25522   5.216   4.848   3.318  0.0991 -0.0806 -0.2627
  190MOL0     O25523   5.099   4.857   3.244 -0.5127  0.1191 -0.4084
  190MOL0     C25524   5.034   4.985   3.226  0.4282  0.3499 -0.3875
  190MOL0     C25525   4.917   4.951   3.132  0.0665 -0.7562 -0.2870
  190MOL0     C25526   4.809   4.870   3.194 -0.1999  0.2336  0.0665
  190MOL0     C25527   4.711   4.964   3.262  0.3644  0.6011  0.1525
  190MOL0     C25528   4.637   4.887   3.370  0.1336 -0.4914  0.6254
  190MOL0     C25529   4.549   4.766   3.331  0.5424  0.0216  0.3259
  190MOL0     C25530   4.470   4.690   3.445 -0.3921  0.9247  0.6728
  190MOL0     C25531   4.569   4.663   3.554  0.5971 -0.4387  0.0085
  190MOL0     N25532   4.668   4.567   3.525  0.5207 -0.7131 -0.6655
  190MOL0     C25533   4.801   4.606   3.511 -0.0080  0.3034  0.1372
  190MOL0     C25534   4.859   4.491   3.463 -0.0387 -0.6122 -1.0321
  190MOL0     C25535   4.991   4.470   3.404 -0.9802  0.1234 -0.3916
  190MOL0     C25536   5.070   4.378   3.501 -0.2178 -0.3525 -0.4235
  190MOL0     C25537   5.219   4.373   3.487 -0.8820 -0.0029 -0.1446
  190MOL0     C25538   5.283   4.318   3.613 -0.4943 -0.0500  0.1953
  190MOL0     O25539   5.422   4.341   3.604 -0.0294  1.5774  0.1826
  190MOL0     C25540   5.493   4.277   3.702  0.3234 -0.0767 -1.0257
  190MOL0     C25541   5.449   4.217   3.823 -0.3200 -0.5135 -0.0131
  190MOL0     C25542   5.544   4.147   3.901  1.1296 -0.0991  0.5631
  190MOL0     C25543   5.486   4.114   4.035 -0.3089 -0.0990 -1.0352
  190MOL0     C25544   5.683   4.137   3.874  0.7499  0.5186 -0.2574
  190MOL0     C25545   5.781   4.078   3.972  0.6819  0.0048  0.0857
  190MOL0     O25546   5.906   4.134   3.976  0.1685  0.4390  0.7468
  190MOL0     C25547   6.001   4.080   4.059  0.4995 -0.1923  0.2818
  190MOL0     C25548   5.971   4.038   4.190 -0.7975  0.1789  0.9104
  190MOL0     C25549   6.074   3.979   4.271 -0.3574 -0.6946 -0.9831
  190MOL0     C25550   6.201   3.967   4.216 -0.1622 -0.2586  0.2109
  190MOL0     O25551   6.303   3.913   4.291  0.4601  0.9961  0.2906
  190MOL0     C25552   6.326   3.768   4.295 -0.8427  0.5548 -0.3986
  190MOL0     C25553   6.469   3.731   4.361 -0.5907 -0.4376  0.3754
  190MOL0     C25554   6.480   3.800   4.502 -0.6720  0.2555 -0.5765
  190MOL0     C25555   6.590   3.738   4.595 -0.2970 -0.4033  0.1496
  190MOL0     C25556   6.596   3.800   4.736  0.5747  0.5301 -0.6044
  190MOL0     C25557   6.716   3.753   4.806 -0.2854 -0.5179 -0.1150
  190MOL0     C25558   6.752   3.835   4.929  0.1132  0.4700  0.3948
  190MOL0     C25559   6.899   3.821   4.964 -0.3244  0.6820  0.2436
  190MOL0    Cl25560   6.929   3.705   5.103 -0.0683  0.1739  1.1078
  190MOL0     C25561   6.228   4.004   4.080 -0.1297  0.1184 -0.0250
  190MOL0     C25562   6.129   4.057   4.002 -1.6674  0.9038  0.4930
  190MOL0     O25563   5.749   3.971   4.023 -0.1415 -0.5464  0.4676
  190MOL0     C25564   5.717   4.202   3.761  0.4258  0.8558  0.4991
  190MOL0     C25565   5.622   4.261   3.671 -0.5872 -0.8386  0.4228
  190MOL0     N25566   4.763   4.392   3.455  0.9377  0.4092 -0.8215
  190MOL0     N25567   4.643   4.438   3.484 -0.4240 -0.6497 -0.5517
  190MOL0     C25568   5.278   4.949   3.395  0.6182  0.3840 -0.4744
  190MOL0     C25569   5.402   4.923   3.465 -0.2394  0.0134  0.3281
  190MOL0     C25570   5.758   4.810   3.677  0.1234  0.3889  0.4403
  190MOL0     C25571   5.745   4.680   3.724  0.7760  0.3391 -0.8573
  190MOL0     C25572   5.829   4.620   3.820 -0.0894  0.2961  0.5680
  190MOL0     C25573   5.933   4.696   3.883 -0.7483 -0.5257 -0.0813
  190MOL0     O25574   6.020   4.643   3.982 -0.8912 -0.5113 -0.5840
  190MOL0     C25575   6.041   4.505   3.995 -0.0681  0.8851  0.4935
  190MOL0     C25576   6.175   4.449   4.057 -0.1284 -0.1505  0.3504
  190MOL0     C25577   6.196   4.510   4.196  0.1032  0.1276 -0.7008
  190MOL0     C25578   6.320   4.452   4.263 -0.9572 -0.3061 -0.4605
  190MOL0     C25579   6.345   4.530   4.390  0.4073 -0.3432 -0.0870
  190MOL0     C25580   6.357   4.589   4.497 -0.1487 -0.5089 -0.1261
  190MOL0     C25581   5.941   4.836   3.846 -0.1787 -0.7646  0.2240
  190MOL0     C25582   5.865   4.886   3.737  0.9379 -0.1385 -0.7541
  190MOL0     H25583   5.450   4.606   3.366  2.3816  0.4892 -3.3844
  190MOL0     H25584   5.247   4.637   3.263 -2.8970  1.3770 -1.0874
  190MOL0     H25585   4.990   5.030   3.315  0.6108  1.5303 -0.8744
  190MOL0     H25586   5.100   5.052   3.170  0.5900 -0.2086 -0.8859
  190MOL0     H25587   4.882   5.049   3.096  2.0980 -1.0769 -3.4937
  190MOL0     H25588   4.949   4.902   3.040 -2.5959  0.4473 -2.0029
  190MOL0     H25589   4.759   4.810   3.118  1.3640 -1.5506  0.3806
  190MOL0     H25590   4.861   4.806   3.266 -1.1836  2.4466  2.9103
  190MOL0     H25591   4.768   5.047   3.307  4.5216 -1.0946 -1.4513
  190MOL0     H25592   4.634   5.012   3.201  1.9224  3.6463  0.3728
  190MOL0     H25593   4.704   4.856   3.451 -1.1752  2.2377  2.9733
  190MOL0     H25594   4.573   4.954   3.428  0.6917  1.8027 -1.2478
  190MOL0     H25595   4.483   4.809   3.255  1.5960  2.1585  0.5646
  190MOL0     H25596   4.609   4.692   3.277 -1.2781 -0.5818 -1.0059
  190MOL0     H25597   4.383   4.747   3.480 -1.8942 -0.5335 -0.5529
  190MOL0     H25598   4.432   4.597   3.403 -0.1971  0.8793  0.5949
  190MOL0     H25599   4.510   4.602   3.624  2.1486 -2.8054 -0.5975
  190MOL0     H25600   4.602   4.757   3.599 -1.7756 -0.2333  1.5272
  190MOL0     H25601   4.849   4.701   3.532  1.0691 -0.8094  3.3361
  190MOL0     H25602   4.992   4.425   3.305 -1.2492  0.9263 -0.7647
  190MOL0     H25603   5.034   4.571   3.403 -0.3828 -0.1235 -0.0624
  190MOL0     H25604   5.026   4.278   3.492 -0.0846 -0.7721  2.7658
  190MOL0     H25605   5.051   4.407   3.604 -2.4309  1.6771 -1.2871
  190MOL0     H25606   5.255   4.475   3.478  2.1749 -0.8305  1.3366
  190MOL0     H25607   5.260   4.311   3.407 -0.3211  0.1946 -0.0185
  190MOL0     H25608   5.253   4.213   3.625 -2.5330  0.5525  0.8627
  190MOL0     H25609   5.243   4.367   3.702 -1.0072  0.4171 -0.2843
  190MOL0     H25610   5.343   4.219   3.846 -0.5548 -1.7829 -0.9019
  190MOL0     H25611   5.383   4.077   4.028 -1.2433  0.8908  3.6048
  190MOL0     H25612   5.542   4.047   4.101  1.0147  3.1504  1.4169
  190MOL0     H25613   5.474   4.212   4.083 -0.7763 -0.1751 -0.9897
  190MOL0     H25614   5.872   4.052   4.231 -0.8461  0.6098  0.6410
  190MOL0     H25615   6.044   3.941   4.368  0.5807  0.0729 -0.3756
  190MOL0     H25616   6.238   3.733   4.350  0.8205 -0.6373  1.6371
  190MOL0     H25617   6.322   3.710   4.203  1.3078 -1.4371  0.6603
  190MOL0     H25618   6.490   3.625   4.373  0.1199 -0.5434 -1.4313
  190MOL0     H25619   6.545   3.768   4.291  2.5754 -0.7553  3.3726
  190MOL0     H25620   6.383   3.791   4.551 -0.9382 -3.4489 -1.5355
  190MOL0     H25621   6.489   3.908   4.484 -0.6351  0.2591 -0.5388
  190MOL0     H25622   6.581   3.630   4.611 -2.3616 -0.2638  0.1484
  190MOL0     H25623   6.681   3.744   4.534 -2.8532 -0.3237 -4.0489
  190MOL0     H25624   6.500   3.785   4.787  1.7159 -0.4814  1.4009
  190MOL0     H25625   6.593   3.909   4.736 -1.0651  0.5247 -1.9640
  190MOL0     H25626   6.711   3.647   4.832  2.2738 -0.3228  1.6322
  190MOL0     H25627   6.799   3.775   4.738  1.2118  1.1153  2.0922
  190MOL0     H25628   6.694   3.808   5.018  0.6365  1.1805  0.9643
  190MOL0     H25629   6.721   3.939   4.920 -0.7861  0.3001  1.2791
  190MOL0     H25630   6.931   3.921   4.997  3.7957  0.2107 -1.7028
  190MOL0     H25631   6.958   3.796   4.876 -0.1077  0.7778  0.3602
  190MOL0     H25632   6.332   3.994   4.051  0.7976 -2.7958  3.4671
  190MOL0     H25633   6.149   4.082   3.899 -0.2453 -2.6946 -0.2351
  190MOL0     H25634   5.821   4.207   3.732  0.0454 -0.6429 -1.2377
  190MOL0     H25635   5.661   4.318   3.588  0.2627 -0.1595  1.2692
  190MOL0     H25636   5.232   5.040   3.433  0.0162  0.2348 -0.8328
  190MOL0     H25637   5.434   4.996   3.539 -2.6532  2.0688 -0.5123
  190MOL0     H25638   5.665   4.621   3.680  1.6816 -1.5502 -0.0781
  190MOL0     H25639   5.805   4.519   3.853 -2.7386  0.5239 -0.4520
  190MOL0     H25640   5.953   4.464   4.045 -1.3375 -2.7471 -4.0277
  190MOL0     H25641   6.043   4.473   3.890 -0.4851  3.0569 -0.2151
  190MOL0     H25642   6.255   4.479   3.989 -2.1301  4.7707 -0.2891
  190MOL0     H25643   6.169   4.340   4.053  3.5784 -0.6053  2.4004
  190MOL0     H25644   6.104   4.494   4.252 -0.4942  0.4285 -1.5847
  190MOL0     H25645   6.215   4.616   4.176  1.0613 -0.1933 -1.6286
  190MOL0     H25646   6.406   4.455   4.196  4.0545  0.1483  5.1324
  190MOL0     H25647   6.295   4.349   4.289 -2.4628  0.2715  0.5170
  190MOL0     H25648   6.365   4.652   4.583  0.5361 -2.0781  1.0190
  190MOL0     H25649   6.012   4.898   3.900 -0.7531  0.9047 -0.8461
  190MOL0     H25650   5.877   4.989   3.705  0.6526  0.2446  0.2943
  191MOL0     O25651   1.916   6.941   9.199 -0.5127 -0.7085 -0.2126
  191MOL0     C25652   1.959   7.051   9.234 -0.2685 -0.6423  0.4700
  191MOL0     O25653   1.882   7.160   9.241  0.0687 -0.6154 -0.8514
  191MOL0     C25654   1.744   7.160   9.242  0.5399  0.0078 -0.5895
  191MOL0     C25655   1.693   7.231   9.353  0.3746 -0.3642  0.6108
  191MOL0     C25656   1.552   7.239   9.368 -0.7588 -0.5815  0.6636
  191MOL0     C25657   1.460   7.174   9.286  0.3156 -0.2561 -0.6045
  191MOL0     O25658   1.330   7.195   9.336  0.1115 -0.7606  0.1944
  191MOL0     C25659   1.239   7.085   9.308 -0.2017 -0.1317  0.0777
  191MOL0     C25660   1.090   7.117   9.351 -0.2438 -0.3713 -1.0729
  191MOL0     C25661   1.076   7.125   9.505 -0.0972  0.1272 -0.0223
  191MOL0     C25662   0.936   7.095   9.551 -0.4134 -0.5581  0.1345
  191MOL0     C25663   0.919   7.145   9.693  0.5131 -0.1045 -0.5311
  191MOL0     C25664   0.891   7.294   9.693 -0.4243 -0.8900  0.2956
  191MOL0     C25665   0.839   7.347   9.833 -0.0291  0.2525 -0.2810
  191MOL0     C25666   0.929   7.325   9.952  0.9972 -0.1054  0.0839
  191MOL0     N25667   1.051   7.393   9.935 -0.2859 -0.2104  0.2697
  191MOL0     C25668   1.166   7.333   9.882  0.1188 -0.7841 -0.8640
  191MOL0     C25669   1.264   7.425   9.899 -0.2506  0.1558 -0.4683
  191MOL0     C25670   1.407   7.404   9.871  0.4210  0.1440  0.0718
  191MOL0     C25671   1.437   7.395   9.725 -0.3777 -0.2676  0.3196
  191MOL0     C25672   1.498   7.524   9.663  0.3684 -0.1216 -0.7090
  191MOL0     C25673   1.395   7.632   9.640 -0.4448 -1.5975 -0.4961
  191MOL0     O25674   1.307   7.583   9.542 -0.1184 -0.3813 -0.1104
  191MOL0     C25675   1.197   7.651   9.523  0.0505 -0.4835  0.6788
  191MOL0     C25676   1.106   7.685   9.623  0.3847  0.9474 -0.1058
  191MOL0     C25677   0.979   7.758   9.602 -0.0760  0.2104 -0.0118
  191MOL0     C25678   0.886   7.757   9.721  0.2858 -0.4464  0.2569
  191MOL0     C25679   0.962   7.827   9.481  0.2767  0.2276  0.3564
  191MOL0     C25680   0.837   7.904   9.449 -0.3016 -0.7981  0.3330
  191MOL0     O25681   0.851   7.963   9.323 -0.2905 -0.3732  0.0174
  191MOL0     C25682   0.738   7.974   9.244 -0.5771  0.2195 -0.0887
  191MOL0     C25683   0.749   7.926   9.114  1.2182 -0.2769  1.0991
  191MOL0     C25684   0.630   7.936   9.041 -1.0537  0.6224 -0.3791
  191MOL0     C25685   0.512   7.989   9.088  0.7238  0.2715  0.6020
  191MOL0     O25686   0.391   7.970   9.030  0.0743 -0.2330  0.2032
  191MOL0     C25687   0.381   8.037   8.903 -0.6463  1.0266 -1.0885
  191MOL0     C25688   0.237   8.008   8.847 -0.2448  0.7105  0.0264
  191MOL0     C25689   0.134   8.096   8.907  1.0446  0.5118  0.3940
  191MOL0     C25690   0.003   8.018   8.951  0.3596 -0.8837  0.4773
  191MOL0     C25691  -0.102   8.097   9.033 -0.5574 -0.4509  0.4279
  191MOL0     C25692  -0.145   8.226   8.959  0.2351 -0.6778  0.0397
  191MOL0     C25693  -0.254   8.291   9.042  0.5316 -0.1665  0.8595
  191MOL0     C25694  -0.281   8.432   9.010  0.2345 -0.8565  0.1492
  191MOL0    Cl25695  -0.129   8.524   9.031 -0.0666  0.0599  0.1939
  191MOL0     C25696   0.509   8.046   9.211 -0.6048 -0.7438 -0.9481
  191MOL0     C25697   0.627   8.046   9.293 -0.7692 -0.4655  0.8837
  191MOL0     O25698   0.738   7.896   9.516 -0.8582  0.9540  0.3840
  191MOL0     C25699   1.055   7.796   9.375  1.0718 -0.5574 -0.3419
  191MOL0     C25700   1.163   7.708   9.394 -0.3817  0.3439 -0.4281
  191MOL0     N25701   1.216   7.533   9.972  0.2757 -0.1889  0.1304
  191MOL0     N25702   1.086   7.515   9.974  0.0672 -0.4589 -0.0369
  191MOL0     C25703   1.509   7.105   9.177  0.6186  0.3253 -0.1464
  191MOL0     C25704   1.655   7.096   9.161 -0.3495 -0.9813  1.0317
  191MOL0     C25705   2.109   7.061   9.264  0.5228  0.3190  0.7412
  191MOL0     C25706   2.188   6.953   9.312 -0.0054 -0.0437 -0.6124
  191MOL0     C25707   2.330   6.962   9.301 -0.1422 -0.1710 -0.2132
  191MOL0     C25708   2.390   7.090   9.278  0.1335  0.0094 -0.0223
  191MOL0     O25709   2.526   7.112   9.281 -0.7447 -0.2499 -0.2493
  191MOL0     C25710   2.618   7.013   9.325  0.1586  0.1282  0.5846
  191MOL0     C25711   2.767   7.058   9.331 -0.4170 -0.0662 -0.7123
  191MOL0     C25712   2.808   7.088   9.188 -0.0448 -0.5446 -0.7089
  191MOL0     C25713   2.950   7.140   9.184  0.2694 -0.0807  0.5052
  191MOL0     C25714   3.046   7.076   9.270 -0.1203 -0.3982 -0.8826
  191MOL0     C25715   3.115   7.001   9.336 -0.5113 -0.2851 -0.9841
  191MOL0     C25716   2.310   7.198   9.255  0.7543  0.2603 -0.2599
  191MOL0     C25717   2.172   7.191   9.247 -0.4677  0.5492 -0.5763
  191MOL0     H25718   1.763   7.282   9.418  3.0187 -3.0257  0.0427
  191MOL0     H25719   1.523   7.301   9.453 -0.5124  1.8045 -0.8890
  191MOL0     H25720   1.233   7.063   9.201 -1.0065  1.0217 -0.1304
  191MOL0     H25721   1.274   6.994   9.357 -3.7438 -2.1570 -0.7878
  191MOL0     H25722   1.062   7.216   9.315 -1.9866  0.1331  1.4166
  191MOL0     H25723   1.031   7.036   9.306 -1.5947 -0.7768  1.2726
  191MOL0     H25724   1.149   7.066   9.561  0.7294  2.9289  2.0602
  191MOL0     H25725   1.109   7.225   9.534  2.1606  0.5268 -3.2961
  191MOL0     H25726   0.878   7.156   9.480 -0.5289 -0.9600 -0.1187
  191MOL0     H25727   0.911   6.989   9.546  1.4748 -1.0448  0.6360
  191MOL0     H25728   0.827   7.098   9.728 -0.9049  2.5978 -0.3571
  191MOL0     H25729   1.005   7.130   9.758 -1.8597  1.4037  3.2682
  191MOL0     H25730   0.972   7.360   9.660 -2.9326  1.4423 -1.6111
  191MOL0     H25731   0.824   7.316   9.610  0.3191 -1.3566 -0.4505
  191MOL0     H25732   0.796   7.448   9.837 -2.9648 -0.9154  0.8184
  191MOL0     H25733   0.751   7.284   9.850 -0.3359  0.9360  0.7529
  191MOL0     H25734   0.950   7.221   9.979 -0.9588  0.1391  2.9260
  191MOL0     H25735   0.869   7.370  10.031 -0.1763 -0.3931 -0.6249
  191MOL0     H25736   1.177   7.233   9.843  1.1558 -0.8562 -0.4237
  191MOL0     H25737   1.474   7.472   9.924  1.9494 -2.8774  2.2666
  191MOL0     H25738   1.439   7.313   9.921  0.3372  0.1481  0.1358
  191MOL0     H25739   1.356   7.354   9.663 -2.1031  2.5596  0.5402
  191MOL0     H25740   1.515   7.320   9.710 -1.5862 -1.0608 -2.6556
  191MOL0     H25741   1.556   7.491   9.576  0.1162 -0.1732 -0.8577
  191MOL0     H25742   1.572   7.574   9.727 -1.0538  1.3252 -0.1400
  191MOL0     H25743   1.437   7.721   9.591 -3.8146 -0.4443 -1.5742
  191MOL0     H25744   1.357   7.668   9.736  1.6948  2.4836 -0.9401
  191MOL0     H25745   1.120   7.645   9.723 -0.5432  1.5274  0.2700
  191MOL0     H25746   0.836   7.852   9.740  2.0432  0.4622  0.5253
  191MOL0     H25747   0.802   7.687   9.713 -0.8365  0.4141  3.1330
  191MOL0     H25748   0.957   7.729   9.800  2.3372  0.4425 -1.1855
  191MOL0     H25749   0.833   7.862   9.089  1.6159  0.4666  0.4891
  191MOL0     H25750   0.624   7.891   8.942 -2.2436 -1.4782  0.5865
  191MOL0     H25751   0.394   8.144   8.923 -1.1748  1.1157 -1.2013
  191MOL0     H25752   0.461   8.002   8.837  2.1563 -1.1705  3.0118
  191MOL0     H25753   0.232   8.020   8.739 -0.9272 -0.1996 -0.0505
  191MOL0     H25754   0.211   7.905   8.871 -0.2955  1.1490  2.0909
  191MOL0     H25755   0.093   8.158   8.827 -1.5777  0.6411  1.7062
  191MOL0     H25756   0.162   8.150   8.997 -1.1958 -1.0305  2.1437
  191MOL0     H25757  -0.037   7.980   8.857  1.1557 -0.2326 -0.1379
  191MOL0     H25758   0.021   7.923   9.003 -2.6026 -1.7753  0.0345
  191MOL0     H25759  -0.060   8.131   9.128 -1.6738  0.7531  0.5247
  191MOL0     H25760  -0.195   8.043   9.057 -1.8242  1.1842 -0.5701
  191MOL0     H25761  -0.063   8.298   8.950 -0.1758 -0.3044 -0.7858
  191MOL0     H25762  -0.185   8.205   8.860 -1.4393 -0.9280  0.7482
  191MOL0     H25763  -0.226   8.285   9.147  0.6509  0.9133  0.8927
  191MOL0     H25764  -0.346   8.232   9.035  1.8120 -2.1414 -0.9218
  191MOL0     H25765  -0.357   8.466   9.081  2.7034 -0.0836  2.5879
  191MOL0     H25766  -0.307   8.444   8.904  0.2162 -0.0744  0.2365
  191MOL0     H25767   0.415   8.093   9.240  1.6904  2.6171  1.7928
  191MOL0     H25768   0.641   8.098   9.387  2.2985 -2.5678  1.7406
  191MOL0     H25769   1.048   7.835   9.274  3.0173  1.5049  0.2333
  191MOL0     H25770   1.238   7.702   9.316 -0.7164 -1.1454 -0.6610
  191MOL0     H25771   1.440   7.050   9.114 -1.3982  0.6889  1.6340
  191MOL0     H25772   1.700   7.043   9.078  3.2133  1.1878  1.3482
  191MOL0     H25773   2.140   6.857   9.323 -1.5891  0.6998 -0.7875
  191MOL0     H25774   2.387   6.871   9.316 -1.5308 -1.2208 -0.9529
  191MOL0     H25775   2.599   6.967   9.422  4.3144 -0.0918  1.4691
  191MOL0     H25776   2.622   6.931   9.253  1.1070  3.1482 -3.1528
  191MOL0     H25777   2.830   6.984   9.381  0.6175 -0.9641 -3.1898
  191MOL0     H25778   2.767   7.146   9.396 -1.0920 -0.7053  0.1664
  191MOL0     H25779   2.739   7.160   9.144 -0.7624 -0.6145  0.2632
  191MOL0     H25780   2.799   6.999   9.124 -3.0135 -1.4236  0.7383
  191MOL0     H25781   2.953   7.248   9.202 -1.1587 -0.0495  0.6202
  191MOL0     H25782   2.992   7.130   9.083 -0.8358 -1.5463  0.1501
  191MOL0     H25783   3.160   6.931   9.405 -0.0626  0.9522  0.0201
  191MOL0     H25784   2.349   7.298   9.238 -1.4243  1.0743 -0.8161
  191MOL0     H25785   2.118   7.285   9.238 -0.9103  0.1325 -3.6328
  192MOL0     O25786   3.614   4.411   2.633  0.2633  0.5375 -0.9334
  192MOL0     C25787   3.549   4.313   2.642 -0.2877  0.3423 -0.0266
  192MOL0     O25788   3.412   4.303   2.642 -0.6989 -0.2932  0.9693
  192MOL0     C25789   3.327   4.412   2.639  0.3371  0.3824  0.0819
  192MOL0     C25790   3.341   4.537   2.580 -0.2513 -0.0459  0.3258
  192MOL0     C25791   3.241   4.636   2.602 -0.3036 -0.1644 -1.0352
  192MOL0     C25792   3.118   4.614   2.670 -0.5938 -0.1496 -0.4927
  192MOL0     O25793   3.005   4.695   2.683  0.5299  0.0416 -0.6176
  192MOL0     C25794   3.004   4.810   2.602 -0.1988 -0.2022  0.1937
  192MOL0     C25795   2.856   4.849   2.581 -0.4560  0.3631 -0.0870
  192MOL0     C25796   2.817   4.961   2.674 -0.3628  0.3499  0.0038
  192MOL0     C25797   2.670   5.001   2.644  0.5272  0.5126 -0.1044
  192MOL0     C25798   2.607   5.109   2.728 -1.1767  0.0894 -0.3004
  192MOL0     C25799   2.456   5.123   2.702 -0.4917  0.7811 -0.6933
  192MOL0     C25800   2.384   5.194   2.820 -0.4820 -0.7699  0.9949
  192MOL0     C25801   2.238   5.148   2.817  1.2416 -0.1960  0.4555
  192MOL0     N25802   2.168   5.203   2.934 -0.3460 -1.0006 -0.3017
  192MOL0     C25803   2.153   5.146   3.057  0.4315 -0.4081 -0.2082
  192MOL0     C25804   2.095   5.237   3.137  1.0142  0.0693  0.8404
  192MOL0     C25805   2.076   5.222   3.283 -0.4511 -0.0584 -0.1134
  192MOL0     C25806   2.022   5.083   3.321  0.8113 -0.9440 -0.1163
  192MOL0     C25807   1.955   5.085   3.466 -1.1420  0.6750 -0.4627
  192MOL0     C25808   1.860   4.976   3.481  0.6903  0.3721 -0.8039
  192MOL0     O25809   1.777   5.028   3.584  0.1047 -0.0961  0.3996
  192MOL0     C25810   1.658   4.970   3.624 -0.2010 -0.0121  1.2021
  192MOL0     C25811   1.599   5.037   3.732 -0.1351 -0.1558  0.1114
  192MOL0     C25812   1.478   5.008   3.794 -0.4744 -0.8026  0.0570
  192MOL0     C25813   1.424   5.089   3.909 -0.1445 -0.7368 -0.0192
  192MOL0     C25814   1.414   4.886   3.741 -0.8072 -0.5639 -0.2113
  192MOL0     C25815   1.280   4.826   3.789  0.4063 -1.2193  0.6677
  192MOL0     O25816   1.244   4.708   3.721  0.0253  0.0189 -0.5783
  192MOL0     C25817   1.118   4.662   3.754 -0.6652  0.1482  0.4080
  192MOL0     C25818   1.090   4.529   3.796 -0.5746  0.4898 -0.5380
  192MOL0     C25819   0.962   4.480   3.826  0.6674 -0.0907 -0.5574
  192MOL0     C25820   0.850   4.560   3.804 -0.2477 -0.3712 -0.0745
  192MOL0     O25821   0.723   4.537   3.847 -0.5862 -0.6007 -0.0087
  192MOL0     C25822   0.709   4.452   3.971  0.0339  0.0436  0.1840
  192MOL0     C25823   0.569   4.478   4.024  0.7346 -0.1221  0.7579
  192MOL0     C25824   0.466   4.475   3.908 -0.5444 -0.1574 -0.0896
  192MOL0     C25825   0.328   4.471   3.968 -0.6286 -0.1917  0.6164
  192MOL0     C25826   0.230   4.483   3.847 -0.2681 -0.0472 -0.5463
  192MOL0     C25827   0.082   4.464   3.901 -0.7302 -0.6428  0.6035
  192MOL0     C25828   0.061   4.336   3.990  0.8539 -0.2392 -0.5774
  192MOL0     C25829   0.031   4.378   4.134 -1.0552  0.0152  0.5477
  192MOL0    Cl25830   0.010   4.229   4.215  0.5549 -0.3078 -0.3019
  192MOL0     C25831   0.881   4.689   3.749 -0.6992  0.6648  0.0087
  192MOL0     C25832   1.010   4.736   3.715  1.0169  0.0243 -0.1287
  192MOL0     O25833   1.220   4.887   3.876  0.6777  0.6192  0.2880
  192MOL0     C25834   1.480   4.818   3.631  1.0569 -0.5809 -0.2543
  192MOL0     C25835   1.601   4.851   3.572 -0.2181 -1.0550  0.0690
  192MOL0     N25836   2.063   5.348   3.060  0.0504 -0.3933  0.1954
  192MOL0     N25837   2.104   5.322   2.937 -0.7700  0.1495 -0.2684
  192MOL0     C25838   3.108   4.484   2.723 -0.3359 -0.1033  0.3234
  192MOL0     C25839   3.208   4.387   2.709  0.4670 -1.0722  0.4844
  192MOL0     C25840   3.631   4.190   2.648 -0.2598 -0.8864  0.0198
  192MOL0     C25841   3.762   4.193   2.597  0.3602  0.3649 -0.0880
  192MOL0     C25842   3.844   4.080   2.591  0.0422 -0.7792  0.6744
  192MOL0     C25843   3.802   3.964   2.642  0.5939  1.5610  0.7402
  192MOL0     O25844   3.901   3.868   2.641 -0.4666 -0.1772  0.2311
  192MOL0     C25845   3.872   3.737   2.686  0.1837  0.4296  0.1729
  192MOL0     C25846   3.996   3.645   2.647  0.3139  0.0395 -0.6196
  192MOL0     C25847   4.123   3.713   2.676 -1.1092  0.3045 -0.3916
  192MOL0     C25848   4.253   3.633   2.638 -0.9284  0.4628  0.2911
  192MOL0     C25849   4.250   3.603   2.494 -0.0472  0.2975 -0.2874
  192MOL0     C25850   4.236   3.570   2.376 -0.2957  0.4163 -0.1063
  192MOL0     C25851   3.666   3.953   2.697 -0.5087 -0.0274  0.4335
  192MOL0     C25852   3.587   4.068   2.694 -0.0652  0.1048  0.4391
  192MOL0     H25853   3.433   4.569   2.532  1.7725 -1.0129  3.2633
  192MOL0     H25854   3.267   4.731   2.555 -0.6646  0.2677 -0.3790
  192MOL0     H25855   3.071   4.887   2.642 -2.5130 -0.3724  5.1842
  192MOL0     H25856   3.040   4.781   2.503 -0.5368 -1.7364  0.4998
  192MOL0     H25857   2.848   4.904   2.487  0.2535  0.3623 -0.1582
  192MOL0     H25858   2.783   4.768   2.587 -0.6549  0.5720  0.3626
  192MOL0     H25859   2.818   4.938   2.781  0.6369 -3.8724 -0.7485
  192MOL0     H25860   2.879   5.050   2.658  0.5192 -0.2917 -0.2110
  192MOL0     H25861   2.652   5.029   2.539  0.7457 -0.6231 -0.4615
  192MOL0     H25862   2.610   4.911   2.661 -0.3017  1.1755  0.5604
  192MOL0     H25863   2.614   5.092   2.835 -2.1414  0.4995 -0.1610
  192MOL0     H25864   2.652   5.204   2.699  1.7991 -2.0856 -3.6569
  192MOL0     H25865   2.434   5.169   2.605  2.3102  2.9288 -0.4442
  192MOL0     H25866   2.415   5.021   2.701 -2.5286  1.2067 -6.9858
  192MOL0     H25867   2.429   5.179   2.919  1.1950 -0.9247  0.2449
  192MOL0     H25868   2.371   5.299   2.792  0.1262 -0.6321  1.2241
  192MOL0     H25869   2.234   5.039   2.812  1.2771 -0.1613 -3.3617
  192MOL0     H25870   2.200   5.186   2.722 -0.5653  0.2506  1.3233
  192MOL0     H25871   2.186   5.051   3.098 -0.3463 -0.2556  0.8165
  192MOL0     H25872   2.167   5.250   3.337  0.1267  0.1908 -1.1917
  192MOL0     H25873   2.002   5.295   3.316  2.4953  1.1878  4.7531
  192MOL0     H25874   2.097   5.003   3.316  1.3008 -0.7503  2.5137
  192MOL0     H25875   1.935   5.050   3.263  0.4431  1.9204 -1.3883
  192MOL0     H25876   1.897   5.177   3.482 -2.3222 -0.2672  0.8644
  192MOL0     H25877   2.034   5.079   3.542 -0.5714  0.8309 -1.0229
  192MOL0     H25878   1.899   4.877   3.508 -1.2176 -0.2471 -0.1547
  192MOL0     H25879   1.800   4.963   3.391 -1.0957  0.9932  0.2608
  192MOL0     H25880   1.645   5.127   3.774 -3.7677  0.8416  2.4897
  192MOL0     H25881   1.503   5.114   3.980 -0.1272  0.3942 -0.4308
  192MOL0     H25882   1.376   5.182   3.877  2.2404  0.0195 -1.6623
  192MOL0     H25883   1.353   5.035   3.974  1.9473 -0.5429  2.6076
  192MOL0     H25884   1.177   4.467   3.814  0.2769  1.3766 -1.4527
  192MOL0     H25885   0.940   4.380   3.862  1.5526 -0.8332 -1.9955
  192MOL0     H25886   0.720   4.345   3.956 -1.6132  0.0087 -0.9935
  192MOL0     H25887   0.785   4.480   4.046  0.9522 -1.3818 -0.1857
  192MOL0     H25888   0.544   4.398   4.093 -0.0843 -0.7123 -0.1934
  192MOL0     H25889   0.562   4.572   4.080 -4.5340  0.9300 -1.0622
  192MOL0     H25890   0.478   4.386   3.845 -1.6890  0.4944 -1.3058
  192MOL0     H25891   0.460   4.566   3.846 -1.9186  0.3529  0.7396
  192MOL0     H25892   0.313   4.387   4.037  0.4329 -3.9555 -3.3416
  192MOL0     H25893   0.316   4.560   4.031  1.0528  1.2905 -1.0617
  192MOL0     H25894   0.244   4.399   3.778 -0.4325 -2.1764  1.8352
  192MOL0     H25895   0.234   4.576   3.789  1.3234 -2.0390 -3.9405
  192MOL0     H25896   0.042   4.554   3.949 -1.3098  0.8154 -2.3780
  192MOL0     H25897   0.010   4.469   3.818 -0.2572  1.6257  0.2486
  192MOL0     H25898   0.151   4.274   3.990  1.0701  0.0705  0.1511
  192MOL0     H25899  -0.030   4.284   3.957  0.1941  0.6905 -0.2509
  192MOL0     H25900  -0.062   4.436   4.135 -1.4424 -0.5663 -0.4429
  192MOL0     H25901   0.118   4.429   4.176 -0.3800  0.7590 -1.6432
  192MOL0     H25902   0.803   4.763   3.733 -0.6147  0.3561 -2.0719
  192MOL0     H25903   1.020   4.833   3.668 -1.7693  0.3728 -0.1134
  192MOL0     H25904   1.424   4.740   3.580  1.8585  0.0709 -2.2421
  192MOL0     H25905   1.639   4.793   3.488 -0.3170 -4.1289  2.0033
  192MOL0     H25906   3.015   4.459   2.772  0.6565  0.2002  2.5235
  192MOL0     H25907   3.193   4.290   2.756  0.1950 -1.2553  0.0342
  192MOL0     H25908   3.812   4.280   2.556  2.1290 -1.1921 -1.4038
  192MOL0     H25909   3.948   4.093   2.564  0.7099 -3.1660  1.7592
  192MOL0     H25910   3.857   3.728   2.794 -4.0536  1.2655 -0.2012
  192MOL0     H25911   3.784   3.700   2.634  0.7173 -0.2769 -0.2386
  192MOL0     H25912   3.966   3.631   2.543 -1.8696  1.4952 -0.2607
  192MOL0     H25913   3.997   3.550   2.702 -0.4198 -0.0298 -0.7169
  192MOL0     H25914   4.122   3.737   2.783 -1.4606  1.5681 -0.6705
  192MOL0     H25915   4.144   3.807   2.625  0.9619 -0.5862 -1.3137
  192MOL0     H25916   4.251   3.539   2.693 -1.5089  1.6131  2.3134
  192MOL0     H25917   4.341   3.693   2.666  0.2473 -1.5201  1.0521
  192MOL0     H25918   4.226   3.546   2.272  0.9805  1.0670 -0.3935
  192MOL0     H25919   3.624   3.857   2.729 -0.2188 -0.8824 -1.6268
  192MOL0     H25920   3.484   4.054   2.725 -1.2077 -0.0271 -3.0543
  193MOL0     O25921   4.696   5.096   3.666  0.2717 -0.1656 -0.3874
  193MOL0     C25922   4.763   5.185   3.609  0.0363  0.0269 -0.0253
  193MOL0     O25923   4.902   5.187   3.606 -0.1672  1.0243 -0.3731
  193MOL0     C25924   4.970   5.080   3.656 -0.1818  0.6198  0.3106
  193MOL0     C25925   4.976   4.951   3.603 -0.2604  0.0880  0.2504
  193MOL0     C25926   5.058   4.857   3.662  0.3124  0.0153  0.2534
  193MOL0     C25927   5.122   4.875   3.782 -0.3619 -0.5818 -0.2169
  193MOL0     O25928   5.215   4.790   3.838  0.1415 -0.5647  0.6015
  193MOL0     C25929   5.313   4.735   3.753 -0.4158 -0.5318 -0.5792
  193MOL0     C25930   5.372   4.613   3.829 -0.3796  0.3156  0.3246
  193MOL0     C25931   5.463   4.648   3.947 -0.7586  0.4643 -0.6896
  193MOL0     C25932   5.529   4.524   4.015  0.0613  0.5692  0.4045
  193MOL0     C25933   5.619   4.552   4.137  0.7621  0.4251  0.0281
  193MOL0     C25934   5.650   4.418   4.200 -0.3600  0.9432 -0.6241
  193MOL0     C25935   5.742   4.438   4.318  0.3503 -0.6628 -0.3206
  193MOL0     C25936   5.797   4.304   4.380  0.5742 -0.7109 -0.4158
  193MOL0     N25937   5.700   4.194   4.421 -1.0853 -0.0022  0.3753
  193MOL0     C25938   5.633   4.182   4.541 -0.1693 -0.5647  0.2131
  193MOL0     C25939   5.558   4.070   4.534  0.1495 -0.5435 -0.1905
  193MOL0     C25940   5.464   4.008   4.634  0.1023 -0.4889 -1.1341
  193MOL0     C25941   5.545   3.936   4.739  0.0599  0.5727  0.3022
  193MOL0     C25942   5.579   3.788   4.692 -0.7354 -0.1112  0.2957
  193MOL0     C25943   5.465   3.700   4.669  0.0922 -0.4839 -0.0936
  193MOL0     O25944   5.385   3.693   4.791 -0.0058 -0.1406 -0.1187
  193MOL0     C25945   5.253   3.676   4.778  0.6124  0.2271 -0.1525
  193MOL0     C25946   5.166   3.716   4.883  0.3639 -1.3938 -0.4091
  193MOL0     C25947   5.033   3.704   4.882 -0.9142  0.7037 -0.9888
  193MOL0     C25948   4.947   3.765   4.994 -0.2567  0.0293 -0.1499
  193MOL0     C25949   4.967   3.646   4.768 -0.7933  0.7420  0.1247
  193MOL0     C25950   4.824   3.627   4.747  1.7068  0.3722 -0.1941
  193MOL0     O25951   4.736   3.700   4.814 -0.0055  0.3615  0.1952
  193MOL0     C25952   4.599   3.714   4.780  0.4268  0.2356  0.4725
  193MOL0     C25953   4.539   3.713   4.649  0.7308 -0.4760  0.5892
  193MOL0     C25954   4.400   3.717   4.638 -0.6703  0.6087  0.9152
  193MOL0     C25955   4.317   3.741   4.744  0.3879  1.0866 -0.5198
  193MOL0     O25956   4.178   3.752   4.724 -0.4555 -0.2112 -0.2677
  193MOL0     C25957   4.106   3.647   4.779 -0.2998 -0.5428 -0.2784
  193MOL0     C25958   3.981   3.634   4.699 -0.1158 -0.2303  0.6116
  193MOL0     C25959   3.913   3.503   4.742 -0.8149  0.7148 -0.7628
  193MOL0     C25960   3.810   3.510   4.854  0.0530  0.1573 -1.0344
  193MOL0     C25961   3.695   3.402   4.831  0.2676 -0.5286 -0.0311
  193MOL0     C25962   3.734   3.257   4.850 -0.1375  0.3639  0.0378
  193MOL0     C25963   3.621   3.154   4.833  0.5455 -0.1622  0.2193
  193MOL0     C25964   3.628   3.032   4.925  0.2864  0.0076 -0.7883
  193MOL0    Cl25965   3.736   2.898   4.865 -0.2223  0.0548  0.6954
  193MOL0     C25966   4.371   3.743   4.877  0.3629 -0.0768 -0.2630
  193MOL0     C25967   4.513   3.733   4.889 -0.1643 -0.4122  0.1532
  193MOL0     O25968   4.789   3.547   4.652 -0.6312  0.0973  0.0363
  193MOL0     C25969   5.061   3.602   4.661  0.3622 -0.3171  0.2430
  193MOL0     C25970   5.197   3.612   4.666  0.3567 -0.0347  0.5156
  193MOL0     N25971   5.565   4.018   4.409 -0.5384 -0.5786 -0.9162
  193MOL0     N25972   5.646   4.092   4.337  0.1274  0.0501 -0.1525
  193MOL0     C25973   5.108   5.001   3.840 -1.1478 -0.6970 -0.1805
  193MOL0     C25974   5.041   5.095   3.775 -0.4265  0.9652 -0.7218
  193MOL0     C25975   4.684   5.302   3.555 -0.5953 -1.1568  0.3713
  193MOL0     C25976   4.756   5.418   3.534 -0.4002  0.0521 -0.2545
  193MOL0     C25977   4.683   5.538   3.493 -0.4030 -0.5246  0.1730
  193MOL0     C25978   4.545   5.538   3.474  0.7647 -0.0409  0.1123
  193MOL0     O25979   4.484   5.663   3.437 -0.7339  0.4331 -0.0544
  193MOL0     C25980   4.349   5.674   3.446  0.4380  0.1952 -0.0817
  193MOL0     C25981   4.301   5.814   3.470  0.1993  0.0204 -0.7163
  193MOL0     C25982   4.343   5.914   3.357  0.3229 -0.1501 -1.0955
  193MOL0     C25983   4.296   6.061   3.372  0.9954 -0.0170 -0.7937
  193MOL0     C25984   4.148   6.064   3.398  0.2813  0.5493 -0.9038
  193MOL0     C25985   4.029   6.078   3.415  0.8223  0.2577 -0.2775
  193MOL0     C25986   4.476   5.417   3.489 -0.8723 -0.0892 -0.8395
  193MOL0     C25987   4.548   5.298   3.522  0.1043  0.1682  0.1142
  193MOL0     H25988   4.921   4.927   3.513 -0.1976  3.0859 -0.7073
  193MOL0     H25989   5.074   4.764   3.609 -1.1029  0.4173 -0.9553
  193MOL0     H25990   5.270   4.701   3.658  0.6753  2.3771 -2.2582
  193MOL0     H25991   5.396   4.797   3.720  1.7862 -2.4797  0.9927
  193MOL0     H25992   5.294   4.546   3.865  0.8467 -1.4661 -0.1893
  193MOL0     H25993   5.435   4.560   3.757  0.5725  2.5668 -0.5844
  193MOL0     H25994   5.537   4.722   3.917  0.3825 -0.0981  0.6050
  193MOL0     H25995   5.391   4.701   4.010 -2.5517  0.1101 -2.3431
  193MOL0     H25996   5.446   4.459   4.044  0.8144 -1.0421 -0.8629
  193MOL0     H25997   5.588   4.470   3.940  2.3808  0.5634  2.1109
  193MOL0     H25998   5.707   4.608   4.104  0.3058  1.5264  0.6520
  193MOL0     H25999   5.562   4.614   4.207  1.4466  1.7508 -0.5520
  193MOL0     H26000   5.557   4.366   4.223 -0.8167  0.9419 -2.3087
  193MOL0     H26001   5.700   4.349   4.130  0.2857 -0.9541  1.5904
  193MOL0     H26002   5.830   4.499   4.293 -0.5627  2.1060  2.5043
  193MOL0     H26003   5.687   4.482   4.401 -2.0053 -4.5615  0.4344
  193MOL0     H26004   5.859   4.334   4.465  0.0716 -1.2167  0.1379
  193MOL0     H26005   5.864   4.248   4.314 -0.3192 -1.2220 -0.9017
  193MOL0     H26006   5.640   4.253   4.623 -1.4833 -1.0835  0.7943
  193MOL0     H26007   5.411   4.093   4.679 -1.3589 -0.3611 -2.9655
  193MOL0     H26008   5.401   3.935   4.584  2.4597 -0.8468 -3.8900
  193MOL0     H26009   5.495   3.930   4.836 -1.1863  1.5351 -0.2654
  193MOL0     H26010   5.646   3.977   4.749  0.9940 -1.4829 -0.0176
  193MOL0     H26011   5.653   3.751   4.764  2.1865 -0.4710 -2.6277
  193MOL0     H26012   5.634   3.783   4.598  0.3888  1.3565  0.8185
  193MOL0     H26013   5.497   3.599   4.642  0.6225  0.3648 -2.9801
  193MOL0     H26014   5.408   3.735   4.583 -0.4432 -0.9984  0.0413
  193MOL0     H26015   5.204   3.775   4.966 -3.5714  0.2954  0.4214
  193MOL0     H26016   4.868   3.697   5.025  0.3226 -0.6924 -0.2380
  193MOL0     H26017   5.002   3.800   5.082 -3.2100  0.9538  1.4450
  193MOL0     H26018   4.913   3.863   4.958  1.9841  1.1348  0.5308
  193MOL0     H26019   4.593   3.697   4.557  0.5008 -0.5433  0.4639
  193MOL0     H26020   4.353   3.697   4.542 -0.5585 -3.4658  1.5029
  193MOL0     H26021   4.153   3.549   4.767 -2.1210 -1.2205 -2.4826
  193MOL0     H26022   4.082   3.675   4.882 -4.2741 -0.1555 -1.1746
  193MOL0     H26023   3.914   3.719   4.713  0.6384  0.4711  0.0834
  193MOL0     H26024   4.011   3.618   4.595  0.1538  1.8365  0.3388
  193MOL0     H26025   3.979   3.420   4.768 -0.7959 -0.1868 -3.3791
  193MOL0     H26026   3.862   3.461   4.655  0.0784  0.7558 -1.3180
  193MOL0     H26027   3.846   3.504   4.958 -0.2854 -0.0143 -0.9270
  193MOL0     H26028   3.772   3.612   4.855  1.1808  0.6229  0.8601
  193MOL0     H26029   3.667   3.424   4.727  2.6391 -0.7447 -0.7781
  193MOL0     H26030   3.614   3.423   4.902  3.2148  1.8238  2.9321
  193MOL0     H26031   3.808   3.220   4.779  1.8479  4.1323 -0.1120
  193MOL0     H26032   3.783   3.247   4.948 -0.8840 -0.0683  0.3763
  193MOL0     H26033   3.633   3.110   4.733  3.1649  0.3392  0.2287
  193MOL0     H26034   3.525   3.206   4.835 -0.8483 -2.5834  0.8926
  193MOL0     H26035   3.528   2.988   4.927 -1.1096  2.8788  2.1488
  193MOL0     H26036   3.653   3.056   5.029  2.9489 -3.7956 -0.3206
  193MOL0     H26037   4.303   3.763   4.960  0.3202 -0.1816 -0.2726
  193MOL0     H26038   4.549   3.735   4.992 -2.5853 -0.1487  1.0641
  193MOL0     H26039   5.011   3.557   4.577  0.3493  1.4965 -0.7812
  193MOL0     H26040   5.255   3.572   4.583 -0.0389  0.1197  0.1619
  193MOL0     H26041   5.162   5.015   3.933 -0.0243 -0.8237 -0.7903
  193MOL0     H26042   5.041   5.190   3.829  0.7029  0.1724  0.7490
  193MOL0     H26043   4.864   5.421   3.545 -0.5579  2.5487  1.6206
  193MOL0     H26044   4.721   5.638   3.475 -1.8111  0.1438  0.7083
  193MOL0     H26045   4.293   5.641   3.358 -1.4909  0.3903  0.9969
  193MOL0     H26046   4.295   5.613   3.519  0.4477  0.9532  0.5719
  193MOL0     H26047   4.319   5.851   3.571 -0.7886  3.9707 -1.8241
  193MOL0     H26048   4.192   5.803   3.467 -0.3313  2.5133  3.1632
  193MOL0     H26049   4.305   5.882   3.259  0.3678 -1.3027 -0.7447
  193MOL0     H26050   4.452   5.918   3.354  0.3449  1.3744  0.4726
  193MOL0     H26051   4.315   6.115   3.279 -1.2843 -2.6067 -2.9531
  193MOL0     H26052   4.352   6.107   3.454  2.0786 -0.5920 -1.1952
  193MOL0     H26053   3.923   6.083   3.430  0.7021 -1.2892 -0.3662
  193MOL0     H26054   4.367   5.414   3.486 -0.9479  0.3046  0.5670
  193MOL0     H26055   4.500   5.201   3.528 -0.4777  0.5175  1.6406
  194MOL0     O26056   8.894   3.774   1.157 -0.1549  0.3208  0.2661
  194MOL0     C26057   8.986   3.701   1.121 -0.3903 -0.0884  0.0494
  194MOL0     O26058   8.998   3.644   0.998 -0.4518  0.1632 -0.2921
  194MOL0     C26059   8.895   3.616   0.919  0.2571 -0.0634  0.2718
  194MOL0     C26060   8.920   3.608   0.784 -0.2907  0.2872  0.6553
  194MOL0     C26061   8.824   3.570   0.692 -0.5895  0.2955  0.2644
  194MOL0     C26062   8.695   3.554   0.731  0.4721  0.5265  0.1757
  194MOL0     O26063   8.609   3.499   0.638 -0.8928 -0.7357 -0.6042
  194MOL0     C26064   8.464   3.494   0.661  0.1608  0.2258 -0.5386
  194MOL0     C26065   8.390   3.428   0.546  0.8214  0.0657  0.5129
  194MOL0     C26066   8.238   3.442   0.565 -0.7191  0.3004  0.5244
  194MOL0     C26067   8.184   3.581   0.567  0.1886  0.1959  0.1464
  194MOL0     C26068   8.054   3.601   0.507 -0.0173 -0.2160 -0.0482
  194MOL0     C26069   7.946   3.508   0.566 -0.8172 -0.6076 -0.5104
  194MOL0     C26070   7.805   3.562   0.513 -0.0285 -0.5087 -0.4092
  194MOL0     C26071   7.782   3.716   0.520 -1.0006 -0.0270  0.2320
  194MOL0     N26072   7.655   3.751   0.456 -0.7585 -0.6994 -0.8679
  194MOL0     C26073   7.630   3.793   0.329  0.8311 -0.0734 -0.0194
  194MOL0     C26074   7.495   3.810   0.318  0.4242 -1.0060  0.1767
  194MOL0     C26075   7.397   3.843   0.216  0.1248 -0.7010  0.3767
  194MOL0     C26076   7.321   3.722   0.163 -0.4225  0.5308 -0.0338
  194MOL0     C26077   7.191   3.716   0.229 -0.5024  0.4295 -0.6943
  194MOL0     C26078   7.105   3.614   0.156  0.1933 -0.0314 -0.1205
  194MOL0     O26079   7.094   3.646   0.019  0.2818 -0.2524  0.0276
  194MOL0     C26080   6.972   3.670  -0.037  0.4532  0.4656  0.4682
  194MOL0     C26081   6.976   3.687  -0.173  0.3649  0.7512  0.3930
  194MOL0     C26082   6.862   3.716  -0.247 -0.2114  0.0895  0.4490
  194MOL0     C26083   6.875   3.727  -0.394 -0.4645 -0.0889 -0.0289
  194MOL0     C26084   6.742   3.747  -0.178 -0.9260  0.1385  0.2579
  194MOL0     C26085   6.616   3.792  -0.245 -0.3432  0.4872 -0.2608
  194MOL0     O26086   6.494   3.762  -0.172  0.8879 -0.0305  0.1947
  194MOL0     C26087   6.368   3.812  -0.208 -0.8624  0.1647  1.1117
  194MOL0     C26088   6.338   3.896  -0.325  1.1809 -0.1966  0.4262
  194MOL0     C26089   6.204   3.949  -0.342  0.5368  0.0779 -0.2563
  194MOL0     C26090   6.097   3.911  -0.261  0.8267 -0.2611 -0.0744
  194MOL0     O26091   5.972   3.959  -0.294  0.2961  0.2735 -0.5878
  194MOL0     C26092   5.897   4.028  -0.190  1.2293  0.3607 -0.0116
  194MOL0     C26093   5.763   4.083  -0.240 -0.2423 -0.7665  0.0609
  194MOL0     C26094   5.706   4.157  -0.127  0.4150  1.0660 -0.1275
  194MOL0     C26095   5.588   4.229  -0.174  0.5019  0.1823  0.0006
  194MOL0     C26096   5.513   4.308  -0.059 -0.2666  0.3866 -0.5131
  194MOL0     C26097   5.368   4.328  -0.092 -0.6176 -0.4448  0.2185
  194MOL0     C26098   5.355   4.428  -0.215  0.0449 -0.0838 -0.3397
  194MOL0     C26099   5.210   4.465  -0.218  0.0254 -0.2487 -0.8760
  194MOL0    Cl26100   5.186   4.531  -0.384 -0.2371  0.0037 -0.2058
  194MOL0     C26101   6.130   3.827  -0.148  0.2493  0.2335 -0.4832
  194MOL0     C26102   6.262   3.782  -0.120  0.2852  0.0668  0.1105
  194MOL0     O26103   6.617   3.834  -0.356  0.0211  0.2193  0.4721
  194MOL0     C26104   6.736   3.714  -0.047  0.6727  0.1743 -0.5725
  194MOL0     C26105   6.848   3.671   0.025 -0.4344  0.6253  0.5529
  194MOL0     N26106   7.447   3.784   0.446  0.6773  0.1519 -0.2721
  194MOL0     N26107   7.536   3.730   0.527  0.9854  0.2076  0.3574
  194MOL0     C26108   8.662   3.570   0.864  0.1537  0.0453  0.4962
  194MOL0     C26109   8.765   3.594   0.956  0.9534  0.5280  0.0417
  194MOL0     C26110   9.094   3.684   1.216  0.8904 -0.0256 -0.2054
  194MOL0     C26111   9.091   3.756   1.337 -0.7800 -0.3595 -0.0308
  194MOL0     C26112   9.204   3.739   1.431  0.3236 -0.0099  1.1725
  194MOL0     C26113   9.310   3.658   1.403 -0.2949 -0.7172  0.0875
  194MOL0     O26114   9.403   3.657   1.508  0.0413 -0.7729  1.0104
  194MOL0     C26115   9.501   3.545   1.511  0.7990 -0.7074  0.0125
  194MOL0     C26116   9.620   3.575   1.610  0.0340  0.2568 -0.8134
  194MOL0     C26117   9.572   3.586   1.755  0.4152  0.8648 -0.4180
  194MOL0     C26118   9.606   3.719   1.814 -0.3681 -0.3764 -0.5957
  194MOL0     C26119   9.621   3.721   1.957 -0.2477  1.1693 -0.6436
  194MOL0     C26120   9.626   3.727   2.082  0.6856  0.2790  0.0186
  194MOL0     C26121   9.316   3.592   1.284 -0.2648 -0.3049  0.9215
  194MOL0     C26122   9.205   3.592   1.193  1.2878  0.4758  0.7648
  194MOL0     H26123   9.024   3.628   0.764  0.0353 -0.3960  1.5626
  194MOL0     H26124   8.847   3.551   0.588  0.0563 -1.1858  0.6373
  194MOL0     H26125   8.439   3.437   0.751  0.2489  2.6225  1.0788
  194MOL0     H26126   8.431   3.597   0.677  0.1533 -0.1688  2.7025
  194MOL0     H26127   8.429   3.475   0.456 -0.2513  2.7156  1.3238
  194MOL0     H26128   8.412   3.321   0.553  1.7695  0.2589  0.6746
  194MOL0     H26129   8.181   3.387   0.490 -2.4066 -0.4284  2.2549
  194MOL0     H26130   8.204   3.393   0.657 -0.8150  0.2771  0.4769
  194MOL0     H26131   8.177   3.603   0.674 -1.6850 -1.7309  0.4743
  194MOL0     H26132   8.259   3.642   0.516  0.3927 -0.8402 -0.8324
  194MOL0     H26133   8.044   3.709   0.521  1.5454  0.4271 -3.0795
  194MOL0     H26134   8.071   3.577   0.402  1.0399  0.9936 -0.1808
  194MOL0     H26135   7.961   3.402   0.545 -3.7463 -1.3060  0.4785
  194MOL0     H26136   7.941   3.523   0.674 -1.4392  0.6881 -0.7031
  194MOL0     H26137   7.810   3.537   0.406 -1.1800  1.7676 -1.0515
  194MOL0     H26138   7.728   3.503   0.563 -1.0549  0.9830 -0.1877
  194MOL0     H26139   7.856   3.777   0.469 -1.6496 -0.9257 -1.9068
  194MOL0     H26140   7.784   3.755   0.622  6.4642  3.0740 -0.5009
  194MOL0     H26141   7.697   3.798   0.244  1.5714  1.3939  0.6336
  194MOL0     H26142   7.324   3.921   0.241 -0.3765 -0.4355 -1.7397
  194MOL0     H26143   7.464   3.877   0.137  1.7170  0.4041  2.1287
  194MOL0     H26144   7.380   3.633   0.187  0.0027  1.1201  1.1977
  194MOL0     H26145   7.308   3.725   0.055  1.9966 -1.5591 -0.4909
  194MOL0     H26146   7.147   3.814   0.243 -0.9606 -0.1216  2.5347
  194MOL0     H26147   7.202   3.675   0.330 -1.7462 -0.5527 -0.9306
  194MOL0     H26148   7.004   3.615   0.198  0.7869  1.7501  1.3944
  194MOL0     H26149   7.156   3.518   0.170  1.4359  0.5151 -0.7543
  194MOL0     H26150   7.079   3.684  -0.209  0.3810 -3.4803  0.1887
  194MOL0     H26151   6.849   3.827  -0.430 -0.1054 -0.5102 -1.5170
  194MOL0     H26152   6.978   3.696  -0.417 -0.9981 -2.3544  0.4015
  194MOL0     H26153   6.809   3.661  -0.449  1.6855 -0.2293 -2.6559
  194MOL0     H26154   6.410   3.929  -0.399  0.8226 -0.3000  0.0357
  194MOL0     H26155   6.186   4.020  -0.422 -1.2678 -2.0197 -1.8327
  194MOL0     H26156   5.875   3.958  -0.109  1.5677  0.4055  0.1195
  194MOL0     H26157   5.963   4.105  -0.149  1.4008 -0.4660  1.3062
  194MOL0     H26158   5.777   4.151  -0.324  0.3166  3.0194  2.9473
  194MOL0     H26159   5.689   4.005  -0.261 -1.6754 -0.2989  2.9031
  194MOL0     H26160   5.773   4.223  -0.071  2.3268 -1.4499  0.7185
  194MOL0     H26161   5.668   4.093  -0.047  2.7377  0.1141  0.3111
  194MOL0     H26162   5.624   4.297  -0.251  0.9636  2.2897  1.9567
  194MOL0     H26163   5.514   4.158  -0.211  0.4257 -0.4093  1.2383
  194MOL0     H26164   5.556   4.405  -0.034 -3.4827  1.6092  0.7278
  194MOL0     H26165   5.525   4.254   0.036  2.7249  0.2663 -0.8417
  194MOL0     H26166   5.308   4.238  -0.102 -1.6121  0.0514  1.4201
  194MOL0     H26167   5.322   4.367  -0.001 -0.4408  1.6109 -0.5233
  194MOL0     H26168   5.383   4.384  -0.311 -3.5256 -0.1286 -1.4992
  194MOL0     H26169   5.407   4.524  -0.200  1.9488 -1.0430 -0.4885
  194MOL0     H26170   5.184   4.538  -0.141  3.1056 -3.1621  3.3736
  194MOL0     H26171   5.147   4.378  -0.197  1.5963 -1.2977 -0.3660
  194MOL0     H26172   6.042   3.784  -0.100  0.2409 -3.4769 -3.3815
  194MOL0     H26173   6.269   3.710  -0.040 -4.4159  1.3949  2.0324
  194MOL0     H26174   6.649   3.743   0.011 -0.0197  1.9960 -2.3577
  194MOL0     H26175   6.832   3.666   0.133 -1.0824 -1.6875  0.4101
  194MOL0     H26176   8.560   3.554   0.896 -0.9182  2.0956 -1.5825
  194MOL0     H26177   8.729   3.594   1.058  1.0241  0.9700  0.0682
  194MOL0     H26178   9.017   3.834   1.354 -0.0285  0.2174  0.6984
  194MOL0     H26179   9.222   3.809   1.513 -1.0190  0.6488  0.9248
  194MOL0     H26180   9.437   3.460   1.539 -2.8615  0.7250 -3.1326
  194MOL0     H26181   9.529   3.525   1.407 -1.1826  3.1397 -1.4768
  194MOL0     H26182   9.664   3.668   1.574 -0.3676  0.4968 -0.6833
  194MOL0     H26183   9.695   3.495   1.605 -0.6833 -0.6028  1.2166
  194MOL0     H26184   9.601   3.498   1.813 -0.5806  1.3479  0.8422
  194MOL0     H26185   9.463   3.588   1.758  0.3630  4.6116  1.6106
  194MOL0     H26186   9.518   3.780   1.791  0.1371  0.7212  0.2396
  194MOL0     H26187   9.695   3.761   1.768  2.0026 -2.6050  1.6101
  194MOL0     H26188   9.614   3.728   2.189  3.6739 -1.6338  0.5125
  194MOL0     H26189   9.389   3.517   1.257 -2.4641 -2.3011  0.2006
  194MOL0     H26190   9.209   3.529   1.104  2.7192  2.2242 -0.4799
  195MOL0     O26191   7.094  11.312   6.360 -0.0239 -0.3214  0.5003
  195MOL0     C26192   7.142  11.410   6.306 -0.6013  0.6813  0.3064
  195MOL0     O26193   7.085  11.523   6.276  0.1448 -0.9652 -0.0660
  195MOL0     C26194   6.953  11.531   6.313 -0.2855  0.3751  0.3089
  195MOL0     C26195   6.849  11.462   6.256 -0.4017 -0.3505  0.0147
  195MOL0     C26196   6.721  11.455   6.305 -0.8610  0.2153  0.0229
  195MOL0     C26197   6.693  11.531   6.419 -1.3700 -0.0547 -0.5421
  195MOL0     O26198   6.575  11.499   6.484 -0.8756 -0.3978  0.7293
  195MOL0     C26199   6.456  11.525   6.408  0.0277  0.6052  0.6740
  195MOL0     C26200   6.319  11.512   6.485  0.9200 -0.5024 -0.9497
  195MOL0     C26201   6.211  11.532   6.376  0.1699  0.1351 -0.7430
  195MOL0     C26202   6.076  11.521   6.438 -0.3537 -0.1251 -0.1105
  195MOL0     C26203   5.956  11.587   6.360  0.3061  0.0180 -0.4796
  195MOL0     C26204   5.839  11.586   6.453  0.2173 -0.1400  0.4783
  195MOL0     C26205   5.727  11.653   6.381 -0.7152 -0.0772  0.0303
  195MOL0     C26206   5.610  11.644   6.466  0.0530  0.7213  0.4561
  195MOL0     N26207   5.486  11.688   6.400  0.0708  0.6312 -0.2921
  195MOL0     C26208   5.361  11.621   6.391 -1.2778 -0.7155 -0.3454
  195MOL0     C26209   5.284  11.721   6.344 -0.2064 -0.3515  0.7903
  195MOL0     C26210   5.134  11.702   6.332 -0.5123 -0.7710  0.2115
  195MOL0     C26211   5.076  11.575   6.405 -0.4194 -0.5900  0.3099
  195MOL0     C26212   4.926  11.581   6.371 -0.3197  0.7600  0.1805
  195MOL0     C26213   4.853  11.460   6.439 -0.1703 -1.4002 -1.4413
  195MOL0     O26214   4.709  11.462   6.419  0.7382  0.0964  0.2655
  195MOL0     C26215   4.661  11.430   6.292 -0.3733  0.7557  0.0319
  195MOL0     C26216   4.530  11.474   6.262 -1.1584  1.2790  1.0232
  195MOL0     C26217   4.480  11.470   6.128 -0.8565 -1.0047 -0.8863
  195MOL0     C26218   4.350  11.534   6.089  0.4540  0.0909 -0.0310
  195MOL0     C26219   4.567  11.414   6.030  0.4187  0.6022 -0.9230
  195MOL0     C26220   4.520  11.385   5.891  0.3556 -0.4504 -1.4623
  195MOL0     O26221   4.423  11.458   5.826 -0.1012  0.9175 -0.2756
  195MOL0     C26222   4.331  11.400   5.738 -0.3391 -0.3421  0.1711
  195MOL0     C26223   4.265  11.492   5.653 -0.0073 -0.5432 -0.8116
  195MOL0     C26224   4.190  11.448   5.547 -0.1880 -0.2155  0.8191
  195MOL0     C26225   4.160  11.310   5.532  0.3588 -0.2004 -0.6031
  195MOL0     O26226   4.082  11.261   5.428 -0.1779 -0.4321 -0.0208
  195MOL0     C26227   3.973  11.342   5.386 -1.3016 -0.2352 -1.4636
  195MOL0     C26228   3.888  11.272   5.286 -0.0876  0.5824  0.5858
  195MOL0     C26229   3.976  11.244   5.160 -0.7603  0.0226 -0.0854
  195MOL0     C26230   3.932  11.115   5.090  0.2102 -0.1573 -0.2633
  195MOL0     C26231   3.797  11.133   5.023 -0.1283  0.1660  0.0541
  195MOL0     C26232   3.771  11.003   4.935 -0.3618 -0.2132 -0.0703
  195MOL0     C26233   3.749  10.880   5.013  0.5741  0.1842  0.1031
  195MOL0     C26234   3.627  10.870   5.110 -0.6521 -0.5026 -0.4303
  195MOL0    Cl26235   3.478  10.877   5.002  0.2674 -0.2015  0.4054
  195MOL0     C26236   4.219  11.214   5.619  0.5137 -0.5733  0.2176
  195MOL0     C26237   4.303  11.263   5.720 -1.0686  0.4133  0.0294
  195MOL0     O26238   4.585  11.303   5.833 -0.1692 -1.0336 -0.0782
  195MOL0     C26239   4.690  11.364   6.070  0.6012 -0.0803  1.3599
  195MOL0     C26240   4.734  11.371   6.194 -0.4331  0.2721  0.1746
  195MOL0     N26241   5.352  11.834   6.306  0.0372  0.3229 -0.9009
  195MOL0     N26242   5.474  11.813   6.352  0.3158  0.7030  0.8073
  195MOL0     C26243   6.802  11.612   6.479 -0.0086  0.8858 -0.8372
  195MOL0     C26244   6.929  11.614   6.425 -0.6608 -0.6829  0.2906
  195MOL0     C26245   7.289  11.417   6.286 -0.8691  0.1459 -0.8402
  195MOL0     C26246   7.357  11.293   6.286  0.2691 -0.6933  0.1458
  195MOL0     C26247   7.491  11.297   6.267  0.0782  0.0101 -0.2869
  195MOL0     C26248   7.558  11.422   6.240  0.4268  0.0785 -0.7269
  195MOL0     O26249   7.692  11.404   6.218  0.0387 -0.9018  0.6717
  195MOL0     C26250   7.779  11.518   6.233  0.4419  0.5845 -0.1185
  195MOL0     C26251   7.930  11.478   6.207  0.6524  0.2377  0.6410
  195MOL0     C26252   8.029  11.585   6.252  0.5785 -0.3007  0.6481
  195MOL0     C26253   8.023  11.706   6.162  1.0829 -0.0475 -0.2046
  195MOL0     C26254   8.155  11.772   6.162 -0.2140  0.0205 -0.4138
  195MOL0     C26255   8.268  11.825   6.170  0.3194 -0.3447 -0.7938
  195MOL0     C26256   7.484  11.537   6.219 -0.6611  0.6379 -0.0612
  195MOL0     C26257   7.356  11.542   6.252 -0.2494  0.5697 -0.0275
  195MOL0     H26258   6.891  11.394   6.182  2.3061 -0.3893  1.4504
  195MOL0     H26259   6.653  11.400   6.241  0.5689  2.0675 -3.3906
  195MOL0     H26260   6.464  11.629   6.375 -3.1614  1.0488  1.0357
  195MOL0     H26261   6.449  11.455   6.324  0.9592 -0.6517  1.5919
  195MOL0     H26262   6.313  11.423   6.548  0.3606 -0.3689 -0.8065
  195MOL0     H26263   6.323  11.602   6.547 -0.7586  0.1140 -1.6931
  195MOL0     H26264   6.225  11.628   6.325  0.0697  1.7651  2.0426
  195MOL0     H26265   6.226  11.450   6.305  1.0249 -2.4579  2.1972
  195MOL0     H26266   6.076  11.411   6.442  2.8742 -0.2932 -1.1605
  195MOL0     H26267   6.082  11.566   6.537  2.3109  0.2839 -0.3656
  195MOL0     H26268   5.989  11.689   6.337 -0.4830  0.1314 -1.1936
  195MOL0     H26269   5.944  11.534   6.265  1.2109 -1.3641  0.1606
  195MOL0     H26270   5.814  11.482   6.476 -0.6872  0.2463  1.3014
  195MOL0     H26271   5.854  11.636   6.549  1.8217  1.8882 -0.7371
  195MOL0     H26272   5.744  11.758   6.358 -2.1748  0.1541 -0.1235
  195MOL0     H26273   5.707  11.596   6.290 -2.3473  0.5606 -0.0547
  195MOL0     H26274   5.630  11.695   6.561  3.3430 -0.4813  0.5689
  195MOL0     H26275   5.594  11.541   6.500  2.4579 -0.4850 -1.7615
  195MOL0     H26276   5.338  11.524   6.436  2.8884  0.1227  4.5067
  195MOL0     H26277   5.087  11.792   6.375 -0.1185 -0.5821  0.2511
  195MOL0     H26278   5.093  11.708   6.231  0.5697  0.0880 -0.1942
  195MOL0     H26279   5.088  11.571   6.513 -1.1604 -2.1731  0.3695
  195MOL0     H26280   5.116  11.487   6.353 -1.2450  0.5153 -2.3669
  195MOL0     H26281   4.907  11.577   6.263  0.2854  1.8589  0.0216
  195MOL0     H26282   4.877  11.671   6.410  0.4686  1.6796 -0.8949
  195MOL0     H26283   4.868  11.472   6.546 -0.7153 -2.5207 -1.2326
  195MOL0     H26284   4.899  11.367   6.405 -1.8030 -1.7835 -2.7093
  195MOL0     H26285   4.463  11.512   6.338 -0.8080  1.5552  1.1940
  195MOL0     H26286   4.369  11.615   6.018  2.7802  2.0434  2.6511
  195MOL0     H26287   4.287  11.450   6.055  2.2390 -2.2856  2.1323
  195MOL0     H26288   4.309  11.565   6.185  1.6090 -1.2345  0.9405
  195MOL0     H26289   4.281  11.596   5.677  0.1757 -1.0988  1.7981
  195MOL0     H26290   4.134  11.525   5.495  2.6762  1.7285  0.4141
  195MOL0     H26291   3.908  11.353   5.473  0.4082 -1.7754  0.0827
  195MOL0     H26292   4.016  11.440   5.362 -1.7328 -0.0210 -1.3703
  195MOL0     H26293   3.853  11.182   5.338  0.0839  0.0078 -0.2878
  195MOL0     H26294   3.801  11.337   5.274 -1.0343  0.1702  4.0558
  195MOL0     H26295   4.083  11.239   5.182 -0.4118 -2.3460 -1.8858
  195MOL0     H26296   3.971  11.329   5.090  2.7449  0.1584 -0.3769
  195MOL0     H26297   4.005  11.093   5.012 -0.0289  0.8675 -0.7999
  195MOL0     H26298   3.929  11.035   5.164  0.5791  1.2837  1.3768
  195MOL0     H26299   3.804  11.223   4.960 -0.8781  0.1212 -0.0943
  195MOL0     H26300   3.718  11.149   5.096  0.9499  0.7137  1.1457
  195MOL0     H26301   3.690  11.021   4.863 -0.4042 -1.2734 -0.3070
  195MOL0     H26302   3.861  10.995   4.874 -0.6227 -1.6162 -0.3154
  195MOL0     H26303   3.840  10.851   5.067  1.5928  1.0179 -1.1264
  195MOL0     H26304   3.734  10.798   4.941 -1.6416  1.7066 -1.2860
  195MOL0     H26305   3.616  10.961   5.170 -3.6263 -0.9418 -0.1386
  195MOL0     H26306   3.624  10.782   5.174 -2.5496  1.8082  2.9378
  195MOL0     H26307   4.200  11.111   5.589  0.0017 -0.1775 -0.8227
  195MOL0     H26308   4.361  11.193   5.780 -0.7659 -0.2695 -1.0274
  195MOL0     H26309   4.765  11.329   5.999 -0.0750 -0.6189  0.8933
  195MOL0     H26310   4.822  11.320   6.230 -0.8742  0.2352  1.2474
  195MOL0     H26311   6.794  11.677   6.566  0.0089  2.9716 -2.3101
  195MOL0     H26312   7.009  11.681   6.455 -0.2372  1.4577 -4.6497
  195MOL0     H26313   7.309  11.197   6.301 -2.7609  0.8904  1.5912
  195MOL0     H26314   7.560  11.214   6.277  2.5006  1.8509 -0.7009
  195MOL0     H26315   7.745  11.595   6.163 -2.4244 -2.7810 -2.8006
  195MOL0     H26316   7.798  11.553   6.335  4.7642 -4.0891  1.1337
  195MOL0     H26317   7.946  11.452   6.101 -0.7123  2.1582 -0.0916
  195MOL0     H26318   7.959  11.383   6.253  1.9618 -0.0915 -0.7549
  195MOL0     H26319   8.127  11.536   6.251  0.4975 -0.4765 -0.2245
  195MOL0     H26320   8.013  11.612   6.356 -2.1936 -2.6024  0.9354
  195MOL0     H26321   7.948  11.775   6.201  0.1412 -1.2365  0.1503
  195MOL0     H26322   7.996  11.677   6.060 -0.2604 -0.9703  0.3868
  195MOL0     H26323   8.359  11.874   6.198 -1.1962  1.0856  2.1202
  195MOL0     H26324   7.519  11.624   6.164  0.9601  0.3995  0.5437
  195MOL0     H26325   7.294  11.630   6.238 -1.4843  0.0967  2.0293
  196MOL0     O26326  10.349   1.169   2.929  0.9486  0.0790 -0.0571
  196MOL0     C26327  10.319   1.184   3.045 -0.6499  0.1498 -0.4439
  196MOL0     O26328  10.409   1.164   3.151  0.7706  0.5840 -0.4920
  196MOL0     C26329  10.536   1.136   3.124 -0.2720  0.1732  1.1396
  196MOL0     C26330  10.581   1.014   3.063  0.7821 -0.0727  0.1577
  196MOL0     C26331  10.715   0.972   3.089  0.3912  0.8205  0.3886
  196MOL0     C26332  10.807   1.062   3.148  0.0929 -0.0672  0.0390
  196MOL0     O26333  10.931   1.005   3.157 -0.4440 -0.1475 -0.1806
  196MOL0     C26334  11.047   1.079   3.215  0.1589  0.5401 -0.9684
  196MOL0     C26335  11.157   0.978   3.229  0.2886 -0.7412  0.4809
  196MOL0     C26336  11.273   1.048   3.298  0.3500  0.2948  0.1316
  196MOL0     C26337  11.371   0.948   3.353  0.1731 -0.4467  0.1278
  196MOL0     C26338  11.323   0.913   3.496 -0.8625  0.9204  0.3025
  196MOL0     C26339  11.398   0.801   3.568  0.1795  0.3859 -0.2047
  196MOL0     C26340  11.335   0.660   3.551  0.1183  0.4666 -0.0117
  196MOL0     C26341  11.231   0.629   3.659  0.6714 -0.1811  0.3603
  196MOL0     N26342  11.094   0.681   3.642  0.2889  0.8736 -0.1778
  196MOL0     C26343  11.045   0.805   3.659  0.0174  0.3559  0.5640
  196MOL0     C26344  10.918   0.799   3.636 -0.0170  0.1225  0.7888
  196MOL0     C26345  10.820   0.912   3.647  0.5509 -0.3962  0.2910
  196MOL0     C26346  10.747   0.946   3.509  0.4191  0.4178 -0.0035
  196MOL0     C26347  10.622   0.862   3.484 -1.1921  0.3684  0.4615
  196MOL0     C26348  10.517   0.858   3.593 -0.0613 -0.3235  0.8740
  196MOL0     O26349  10.414   0.762   3.559 -0.3513 -0.3323 -0.4156
  196MOL0     C26350  10.285   0.774   3.619  0.1093  0.4001 -0.3391
  196MOL0     C26351  10.243   0.854   3.726 -1.1997  0.3120  0.9065
  196MOL0     C26352  10.113   0.846   3.774  0.6592 -0.1040  0.0630
  196MOL0     C26353  10.076   0.949   3.881 -0.2923  0.4789 -0.6943
  196MOL0     C26354  10.025   0.750   3.724  0.3230 -0.1684  0.1339
  196MOL0     C26355   9.885   0.730   3.773  0.3713 -0.7782  0.3699
  196MOL0     O26356   9.792   0.674   3.693 -0.5690  0.3600  0.1071
  196MOL0     C26357   9.663   0.676   3.722  0.4387 -0.2242  0.0648
  196MOL0     C26358   9.581   0.784   3.668 -0.1813  0.4886  1.0093
  196MOL0     C26359   9.445   0.778   3.687  0.1642 -0.1461 -0.2555
  196MOL0     C26360   9.379   0.670   3.753  0.2517  0.4462 -0.8169
  196MOL0     O26361   9.240   0.688   3.764 -0.4079 -0.0381  0.0754
  196MOL0     C26362   9.173   0.574   3.824 -0.2493  0.1164 -0.1150
  196MOL0     C26363   9.017   0.577   3.821 -0.6503 -0.0922 -0.1341
  196MOL0     C26364   8.951   0.638   3.695 -0.2381  0.0622  0.2014
  196MOL0     C26365   8.803   0.602   3.691  0.4200 -0.7694  0.4208
  196MOL0     C26366   8.731   0.674   3.582 -0.8434 -0.7705  0.1905
  196MOL0     C26367   8.665   0.799   3.632  0.8495 -0.4056  0.6549
  196MOL0     C26368   8.605   0.871   3.506  0.9557  0.7183 -0.0944
  196MOL0     C26369   8.493   0.793   3.432  0.3760  0.4065  0.8233
  196MOL0    Cl26370   8.543   0.663   3.309  0.1066  0.7890 -0.2239
  196MOL0     C26371   9.464   0.566   3.806  0.7446 -0.4268 -0.3664
  196MOL0     C26372   9.601   0.564   3.775 -0.7656  0.4201 -0.6421
  196MOL0     O26373   9.867   0.777   3.883  0.2579 -0.0208  0.4955
  196MOL0     C26374  10.069   0.671   3.618 -0.3410  0.0428  0.2824
  196MOL0     C26375  10.196   0.681   3.571  0.3748 -0.1755  0.3151
  196MOL0     N26376  10.884   0.676   3.590 -0.7005 -0.4421 -0.2007
  196MOL0     N26377  10.995   0.604   3.595 -0.2960 -0.0681  0.5410
  196MOL0     C26378  10.764   1.182   3.204 -0.4274 -1.2268 -0.4145
  196MOL0     C26379  10.629   1.219   3.195  0.5024 -0.5985 -0.2819
  196MOL0     C26380  10.191   1.251   3.080 -0.3189 -0.1256  1.1193
  196MOL0     C26381  10.167   1.374   3.020  0.0650  0.0954  0.4090
  196MOL0     C26382  10.044   1.432   3.037 -0.4349 -0.9356 -0.0549
  196MOL0     C26383   9.942   1.381   3.120  0.6659  0.0636  0.3269
  196MOL0     O26384   9.810   1.434   3.129  0.8970  0.5770  0.0978
  196MOL0     C26385   9.795   1.575   3.097 -0.1190 -0.2275 -0.4742
  196MOL0     C26386   9.845   1.657   3.216 -0.8436  0.7058  0.3502
  196MOL0     C26387   9.756   1.647   3.334  0.3965 -0.3301  1.3551
  196MOL0     C26388   9.643   1.755   3.328  0.9821  0.8057  0.6051
  196MOL0     C26389   9.507   1.696   3.311 -0.9810 -0.2886  0.4345
  196MOL0     C26390   9.411   1.641   3.262  0.2250  1.1912 -0.5477
  196MOL0     C26391   9.968   1.255   3.175  0.7632  0.0952 -0.0374
  196MOL0     C26392  10.093   1.199   3.163 -0.0037 -0.0063  0.0050
  196MOL0     H26393  10.512   0.940   3.024 -0.6588 -0.3521  2.9803
  196MOL0     H26394  10.748   0.873   3.057 -1.1256  1.1237 -2.5071
  196MOL0     H26395  11.086   1.162   3.157  2.2017  1.4523  1.4966
  196MOL0     H26396  11.021   1.123   3.312 -0.2382 -2.3493  0.3520
  196MOL0     H26397  11.123   0.897   3.294  2.0597  0.0401  2.4622
  196MOL0     H26398  11.175   0.934   3.130 -0.9382 -3.1761  1.2503
  196MOL0     H26399  11.323   1.113   3.226 -1.9727  0.5359 -1.3995
  196MOL0     H26400  11.248   1.125   3.373 -0.4272  1.5396 -1.3434
  196MOL0     H26401  11.364   0.846   3.314 -1.9905  0.1208 -1.0787
  196MOL0     H26402  11.468   0.998   3.349  0.4755 -1.0719 -2.4530
  196MOL0     H26403  11.326   1.000   3.562 -0.0339 -0.9865  2.9187
  196MOL0     H26404  11.217   0.887   3.491 -0.7004  0.4631 -2.2360
  196MOL0     H26405  11.501   0.793   3.532 -0.4562  0.7377 -2.2254
  196MOL0     H26406  11.390   0.822   3.675 -1.3134  2.2559 -0.6342
  196MOL0     H26407  11.290   0.649   3.451 -1.4520  0.7101  0.6372
  196MOL0     H26408  11.421   0.593   3.560  0.1138  0.6366  1.4648
  196MOL0     H26409  11.272   0.651   3.758  1.1305 -1.5149  0.4887
  196MOL0     H26410  11.218   0.521   3.651  2.6434 -0.4361  0.2994
  196MOL0     H26411  11.100   0.890   3.696 -0.3451 -0.1217  2.2994
  196MOL0     H26412  10.754   0.899   3.734 -1.2263  0.0857 -0.9315
  196MOL0     H26413  10.883   1.000   3.660 -1.3385  1.1259 -0.4237
  196MOL0     H26414  10.818   0.928   3.428  2.2086 -1.6580  1.9012
  196MOL0     H26415  10.716   1.051   3.500 -1.0315 -0.1116 -1.6746
  196MOL0     H26416  10.652   0.758   3.466 -1.9241  0.0932  0.8099
  196MOL0     H26417  10.576   0.897   3.391  0.0261  0.4605 -0.1285
  196MOL0     H26418  10.473   0.957   3.609 -2.2948 -0.9542 -0.8220
  196MOL0     H26419  10.561   0.818   3.684  3.1064  1.3803  0.2491
  196MOL0     H26420  10.314   0.925   3.768  1.8549 -1.2812 -1.1423
  196MOL0     H26421  10.151   1.027   3.888  1.7301 -1.4727  1.0096
  196MOL0     H26422   9.974   0.984   3.860 -1.1262 -0.9185  0.7712
  196MOL0     H26423  10.075   0.905   3.981 -0.5666 -0.9070 -1.2810
  196MOL0     H26424   9.617   0.873   3.618 -0.3311  0.0722  0.1382
  196MOL0     H26425   9.394   0.866   3.649 -0.8746 -1.2773 -1.5989
  196MOL0     H26426   9.203   0.487   3.765  1.6533 -1.6363  3.1278
  196MOL0     H26427   9.211   0.560   3.925  0.1421 -0.0739 -0.2855
  196MOL0     H26428   8.973   0.477   3.828 -1.7108  0.4321  0.9293
  196MOL0     H26429   8.981   0.640   3.903  2.3753  0.5670  0.8103
  196MOL0     H26430   8.997   0.598   3.604  0.3752  3.1082 -0.9612
  196MOL0     H26431   8.972   0.744   3.709 -3.9331  1.1685 -1.4380
  196MOL0     H26432   8.789   0.496   3.666  0.6934 -0.5271 -0.8318
  196MOL0     H26433   8.748   0.621   3.783  1.3777 -2.4274  1.3969
  196MOL0     H26434   8.653   0.605   3.549 -0.0050 -0.8237 -1.8302
  196MOL0     H26435   8.786   0.714   3.497 -1.7471  1.1809  0.4745
  196MOL0     H26436   8.589   0.764   3.702  0.1745  0.1315  0.2057
  196MOL0     H26437   8.744   0.857   3.680  1.2349 -0.5818  0.2473
  196MOL0     H26438   8.681   0.902   3.433  1.5910 -1.9598 -0.6875
  196MOL0     H26439   8.554   0.957   3.549 -1.9951  0.1870 -2.2052
  196MOL0     H26440   8.436   0.874   3.384  1.8641  0.8021 -0.3349
  196MOL0     H26441   8.439   0.730   3.504  2.6750 -2.7370  0.0089
  196MOL0     H26442   9.419   0.491   3.870 -0.8746  0.4403 -0.4293
  196MOL0     H26443   9.664   0.479   3.799  0.9681  1.5274 -1.1024
  196MOL0     H26444  10.012   0.596   3.562 -0.2727 -0.5190  0.9492
  196MOL0     H26445  10.235   0.619   3.491 -0.4492 -0.6205  0.2532
  196MOL0     H26446  10.836   1.239   3.260  1.4058 -2.2776 -1.5841
  196MOL0     H26447  10.585   1.298   3.256 -0.4337 -1.7817  0.6142
  196MOL0     H26448  10.237   1.421   2.951  0.8229 -0.2173  0.9617
  196MOL0     H26449  10.029   1.524   2.982 -0.2214  1.2160  3.1787
  196MOL0     H26450   9.839   1.596   2.999 -2.7261 -1.8751 -2.1356
  196MOL0     H26451   9.693   1.605   3.072 -0.0734 -0.1054 -0.5154
  196MOL0     H26452   9.872   1.756   3.179  2.4297 -0.1215  0.2290
  196MOL0     H26453   9.939   1.610   3.246  0.1906  0.2351 -3.1778
  196MOL0     H26454   9.817   1.646   3.424  0.1790  0.4128  1.5208
  196MOL0     H26455   9.708   1.549   3.338  2.6880 -1.6134 -0.0549
  196MOL0     H26456   9.678   1.831   3.257 -0.0109  1.9544  1.3054
  196MOL0     H26457   9.643   1.806   3.425 -2.1332  3.7001 -0.7131
  196MOL0     H26458   9.336   1.571   3.230 -0.4711  1.3227  0.7359
  196MOL0     H26459   9.890   1.207   3.232  1.5949 -0.5797  0.5567
  196MOL0     H26460  10.117   1.104   3.210  3.2043  0.4769 -0.4767
  197MOL0     O26461   9.163   3.278   6.005 -0.1547  0.6966  0.6830
  197MOL0     C26462   9.229   3.283   6.116  0.1954  0.3746 -0.0235
  197MOL0     O26463   9.176   3.294   6.240  0.7987 -0.9759 -0.0621
  197MOL0     C26464   9.043   3.323   6.250  0.5578  0.5066 -0.5287
  197MOL0     C26465   8.974   3.407   6.160 -0.2576 -0.3032  0.3898
  197MOL0     C26466   8.840   3.414   6.169  0.2478  0.4406  0.1957
  197MOL0     C26467   8.756   3.344   6.257 -0.3302  0.3462 -0.1651
  197MOL0     O26468   8.614   3.347   6.258 -0.0817 -0.1261  0.3940
  197MOL0     C26469   8.537   3.458   6.199 -0.7133  0.8524  1.0239
  197MOL0     C26470   8.389   3.427   6.179  1.2290  0.0636  0.1512
  197MOL0     C26471   8.305   3.440   6.308  0.1682  0.3405 -0.6057
  197MOL0     C26472   8.171   3.365   6.303  0.3231 -0.1874 -0.2146
  197MOL0     C26473   8.111   3.337   6.447 -0.0374  0.5583 -0.6358
  197MOL0     C26474   8.086   3.468   6.514 -0.3292  1.0107 -0.0046
  197MOL0     C26475   7.999   3.571   6.445 -0.3526 -0.7062 -0.8750
  197MOL0     C26476   7.877   3.521   6.360  0.1304 -0.4009  0.6124
  197MOL0     N26477   7.815   3.624   6.280 -0.0500 -0.3780  0.5887
  197MOL0     C26478   7.691   3.590   6.226  0.6467 -0.6135 -0.4106
  197MOL0     C26479   7.661   3.714   6.159 -0.2326  0.0533  0.8705
  197MOL0     C26480   7.546   3.753   6.070  0.3937 -0.0842  0.0968
  197MOL0     C26481   7.569   3.704   5.925  0.6789 -0.4843  0.5330
  197MOL0     C26482   7.481   3.765   5.815  0.1090  0.3801  0.3660
  197MOL0     C26483   7.394   3.882   5.846 -0.0558 -0.4208  0.7701
  197MOL0     O26484   7.279   3.833   5.919  0.2027  0.4484 -0.2013
  197MOL0     C26485   7.156   3.892   5.897 -0.2629  0.3597  1.0166
  197MOL0     C26486   7.091   3.948   6.006 -0.1238 -0.6663  1.1622
  197MOL0     C26487   6.976   4.033   5.999  0.4888 -0.5024 -0.2750
  197MOL0     C26488   6.919   4.112   6.118  0.0182 -0.3991  0.8836
  197MOL0     C26489   6.915   4.033   5.868 -0.5726  1.1443  0.2135
  197MOL0     C26490   6.783   4.098   5.843 -0.0937  0.3436  0.4523
  197MOL0     O26491   6.733   4.081   5.712 -0.1309 -0.3629  0.3824
  197MOL0     C26492   6.602   4.104   5.695  0.1165  0.2932  0.1169
  197MOL0     C26493   6.507   4.018   5.754 -0.1847  0.0383  0.1302
  197MOL0     C26494   6.374   4.051   5.755  0.2056 -0.0744 -0.1219
  197MOL0     C26495   6.322   4.176   5.697 -0.0646  0.5480  0.1553
  197MOL0     O26496   6.184   4.218   5.685  0.1191  0.1864  0.2626
  197MOL0     C26497   6.083   4.126   5.711 -0.5669  0.2322 -0.0704
  197MOL0     C26498   5.954   4.204   5.701  0.6493 -0.4375  0.2890
  197MOL0     C26499   5.920   4.212   5.545 -0.3994 -0.1126  0.0781
  197MOL0     C26500   5.824   4.332   5.537  0.5411  0.2639  0.0957
  197MOL0     C26501   5.748   4.330   5.401 -0.7453  0.0207  0.0937
  197MOL0     C26502   5.670   4.465   5.382 -0.7322  0.0126 -0.1626
  197MOL0     C26503   5.571   4.435   5.269  0.0498 -0.3099 -1.1221
  197MOL0     C26504   5.545   4.563   5.183 -0.8850  0.9355 -0.0213
  197MOL0    Cl26505   5.694   4.599   5.099  0.1235 -0.2844  0.1242
  197MOL0     C26506   6.419   4.264   5.647  0.2245  0.4262  0.6899
  197MOL0     C26507   6.559   4.232   5.642  0.6350 -0.3663  0.0246
  197MOL0     O26508   6.718   4.145   5.932  0.4484 -0.1230  0.0757
  197MOL0     C26509   6.985   3.990   5.759 -0.1714  0.1754  0.0752
  197MOL0     C26510   7.110   3.921   5.775  0.4766 -0.8587 -0.0855
  197MOL0     N26511   7.762   3.796   6.177 -0.3679 -0.2926  0.4585
  197MOL0     N26512   7.860   3.750   6.244 -0.2731 -0.7518  0.9780
  197MOL0     C26513   8.820   3.251   6.346  0.2134 -0.5676  0.6632
  197MOL0     C26514   8.960   3.253   6.342  0.5266 -0.3647  0.2191
  197MOL0     C26515   9.373   3.255   6.104  0.4214  0.7644  0.1845
  197MOL0     C26516   9.457   3.240   6.224  0.5032  0.1912 -0.0841
  197MOL0     C26517   9.590   3.215   6.216 -1.2611 -1.1248  0.1663
  197MOL0     C26518   9.654   3.212   6.093 -0.2669 -0.1482  0.3464
  197MOL0     O26519   9.791   3.204   6.082 -0.2405 -1.2120 -0.3247
  197MOL0     C26520   9.839   3.073   6.053  0.1462  0.4640 -1.1599
  197MOL0     C26521   9.987   3.061   6.031 -0.3459 -0.4919  0.6695
  197MOL0     C26522  10.037   3.142   5.900 -0.2864  0.0308  0.2300
  197MOL0     C26523  10.192   3.114   5.898  0.5527  0.8711  0.5418
  197MOL0     C26524  10.274   3.208   5.978  1.1493 -0.3582  0.2258
  197MOL0     C26525  10.333   3.277   6.058 -0.1599  1.1300  0.4182
  197MOL0     C26526   9.582   3.231   5.969  0.8748 -0.1707 -0.1381
  197MOL0     C26527   9.442   3.246   5.980  0.6710  0.9425  0.6897
  197MOL0     H26528   9.033   3.462   6.088  0.7544 -2.5528 -0.6134
  197MOL0     H26529   8.775   3.464   6.097 -1.0130 -2.1479 -0.6109
  197MOL0     H26530   8.554   3.548   6.259  0.2647  1.3175  0.0768
  197MOL0     H26531   8.570   3.457   6.095  0.4471 -0.6281  1.3683
  197MOL0     H26532   8.353   3.497   6.103  0.5230 -0.4981 -0.0489
  197MOL0     H26533   8.388   3.324   6.142  1.5762  0.7329 -1.8589
  197MOL0     H26534   8.355   3.406   6.399  0.2000 -0.7921 -1.0260
  197MOL0     H26535   8.276   3.544   6.323 -0.0200 -0.1650  3.4648
  197MOL0     H26536   8.108   3.429   6.240  1.5562 -0.9717 -2.3437
  197MOL0     H26537   8.169   3.269   6.252  0.2115  0.1368 -0.8293
  197MOL0     H26538   8.016   3.286   6.429  0.1851  1.1231 -4.0392
  197MOL0     H26539   8.186   3.283   6.505 -0.6650  1.1493  0.7709
  197MOL0     H26540   8.047   3.461   6.616 -2.8100  2.1605 -0.7837
  197MOL0     H26541   8.184   3.511   6.537  1.6995 -3.0510 -0.2798
  197MOL0     H26542   7.960   3.640   6.521  2.0291  0.3908 -0.5551
  197MOL0     H26543   8.064   3.640   6.391 -1.8278 -0.0205 -1.8609
  197MOL0     H26544   7.800   3.492   6.432 -0.8221 -1.0192 -0.6359
  197MOL0     H26545   7.898   3.425   6.311  1.7215 -1.1936  2.6846
  197MOL0     H26546   7.640   3.495   6.233 -0.9539  0.3324  1.8151
  197MOL0     H26547   7.457   3.718   6.122 -0.9165 -0.8866 -2.5310
  197MOL0     H26548   7.539   3.862   6.063 -1.0218 -0.2558 -3.3864
  197MOL0     H26549   7.558   3.597   5.910  0.0655 -0.3031 -0.3732
  197MOL0     H26550   7.672   3.740   5.917  0.0062  1.3857 -0.3585
  197MOL0     H26551   7.420   3.683   5.774  1.0409  0.3489 -1.0093
  197MOL0     H26552   7.544   3.792   5.730 -0.8064 -0.1111 -0.4891
  197MOL0     H26553   7.376   3.943   5.757  3.2303  1.9382  1.5116
  197MOL0     H26554   7.453   3.952   5.906 -1.3099  0.5243  0.9272
  197MOL0     H26555   7.125   3.930   6.107  0.8616  4.2736  1.9303
  197MOL0     H26556   6.829   4.055   6.142 -0.1374 -0.7579 -0.4934
  197MOL0     H26557   6.989   4.116   6.202  0.9330  1.9155  0.0751
  197MOL0     H26558   6.899   4.215   6.087  2.4501 -0.3044 -0.6876
  197MOL0     H26559   6.533   3.928   5.809  0.2178 -0.0124 -0.1365
  197MOL0     H26560   6.307   3.981   5.804  0.1676  0.3179  0.3967
  197MOL0     H26561   6.096   4.052   5.632  0.6545  0.2181  0.1152
  197MOL0     H26562   6.097   4.084   5.811  1.0688  0.0086 -0.3704
  197MOL0     H26563   5.877   4.142   5.748 -0.8234  0.0945 -1.3276
  197MOL0     H26564   5.961   4.298   5.757 -2.0237 -0.5003  0.8586
  197MOL0     H26565   5.883   4.113   5.513  2.0555 -1.0425 -0.0661
  197MOL0     H26566   6.011   4.230   5.487 -0.1418 -0.8133  0.2555
  197MOL0     H26567   5.753   4.330   5.621  1.2720  2.1070  0.8062
  197MOL0     H26568   5.879   4.426   5.542 -1.7176  1.6905 -0.4889
  197MOL0     H26569   5.682   4.243   5.401 -0.9958  0.1860  1.2783
  197MOL0     H26570   5.826   4.321   5.325  1.7956  1.5180  2.3218
  197MOL0     H26571   5.622   4.487   5.478  1.1866  0.4937  0.7358
  197MOL0     H26572   5.745   4.543   5.370  0.8696 -0.8952  2.9007
  197MOL0     H26573   5.485   4.397   5.326 -1.3453  0.2455 -2.7693
  197MOL0     H26574   5.610   4.352   5.210 -0.1540 -1.4833  0.3195
  197MOL0     H26575   5.513   4.647   5.246  1.2539  0.9441  1.1210
  197MOL0     H26576   5.461   4.538   5.118  1.3095 -0.9389 -2.3216
  197MOL0     H26577   6.387   4.351   5.590  1.0330 -0.8003 -1.7736
  197MOL0     H26578   6.639   4.295   5.607 -0.3568  0.8155 -0.1687
  197MOL0     H26579   6.955   4.003   5.655 -0.8389  0.3135  0.2812
  197MOL0     H26580   7.173   3.890   5.693  1.2409 -1.4832  0.7265
  197MOL0     H26581   8.760   3.182   6.404  0.8611 -2.7019 -1.0650
  197MOL0     H26582   9.016   3.196   6.417  1.7071  1.2212  0.5930
  197MOL0     H26583   9.408   3.265   6.318  0.8835  0.0529  0.1513
  197MOL0     H26584   9.644   3.203   6.309 -1.9680 -0.9487  0.6015
  197MOL0     H26585   9.807   3.001   6.128  0.3493 -0.3006 -1.7970
  197MOL0     H26586   9.786   3.042   5.962 -1.9792 -0.9062  0.4635
  197MOL0     H26587  10.021   2.958   6.021 -1.9828 -1.2341  2.2662
  197MOL0     H26588  10.032   3.104   6.122  0.7998  3.9702 -1.7372
  197MOL0     H26589  10.025   3.251   5.902  2.1460  0.4534 -2.2411
  197MOL0     H26590  10.003   3.102   5.804 -1.0488  0.9220  0.1102
  197MOL0     H26591  10.223   3.124   5.794 -2.3584  2.2981 -0.2963
  197MOL0     H26592  10.208   3.012   5.934 -2.3252  0.1153 -0.0727
  197MOL0     H26593  10.382   3.342   6.128  3.6905  0.1458 -1.0798
  197MOL0     H26594   9.632   3.235   5.872 -2.6981  2.0444 -2.1032
  197MOL0     H26595   9.378   3.253   5.893 -2.6283 -2.5773  2.5492
  198MOL0     O26596   5.354   1.661   6.253 -0.2661  0.0297 -0.0411
  198MOL0     C26597   5.371   1.580   6.161  0.2577  0.2711  0.0407
  198MOL0     O26598   5.272   1.531   6.094  0.0154  0.1058 -0.0124
  198MOL0     C26599   5.147   1.596   6.091 -0.0090 -1.0121 -0.5754
  198MOL0     C26600   5.032   1.529   6.142 -0.5076  0.3392 -0.0786
  198MOL0     C26601   4.910   1.599   6.140 -0.9380 -0.1211  0.3107
  198MOL0     C26602   4.891   1.722   6.091  0.2513 -0.9875 -0.1750
  198MOL0     O26603   4.766   1.781   6.068  0.1112  0.3873  0.1765
  198MOL0     C26604   4.648   1.717   6.123 -0.5111  0.1227  0.7848
  198MOL0     C26605   4.526   1.803   6.099 -1.6935  0.1079  0.0052
  198MOL0     C26606   4.391   1.740   6.154 -0.2814  0.5908  0.4835
  198MOL0     C26607   4.275   1.805   6.090  0.4895  0.7910 -0.1309
  198MOL0     C26608   4.142   1.756   6.128  1.2845 -0.0492 -0.6077
  198MOL0     C26609   4.020   1.849   6.081 -0.4416 -0.7131  0.0480
  198MOL0     C26610   3.885   1.797   6.111  0.7954  0.7537 -0.1348
  198MOL0     C26611   3.870   1.755   6.258  0.4880  0.2764 -0.0972
  198MOL0     N26612   3.734   1.729   6.299  0.5055 -0.1653  0.6754
  198MOL0     C26613   3.643   1.826   6.319 -0.6307 -0.3273 -0.2181
  198MOL0     C26614   3.527   1.768   6.343 -0.0451 -0.0837  0.7863
  198MOL0     C26615   3.398   1.836   6.378 -0.4308  0.5440  0.1688
  198MOL0     C26616   3.404   1.951   6.467  0.2652 -0.5924 -0.6700
  198MOL0     C26617   3.305   2.066   6.438 -0.2956  0.0843  0.3394
  198MOL0     C26618   3.159   2.025   6.382  0.4010  0.6788 -0.5518
  198MOL0     O26619   3.083   2.146   6.393  0.0543 -0.2112  0.1057
  198MOL0     C26620   2.997   2.171   6.291  0.6258 -0.3510 -0.0154
  198MOL0     C26621   2.994   2.296   6.232  0.2259  0.0279  0.0796
  198MOL0     C26622   2.893   2.337   6.142 -0.7152  0.0237  0.1194
  198MOL0     C26623   2.906   2.485   6.102 -0.4189  0.1062  0.1958
  198MOL0     C26624   2.801   2.242   6.095 -0.5340  0.4856 -0.5410
  198MOL0     C26625   2.687   2.273   6.002  0.5746  0.5740 -0.2448
  198MOL0     O26626   2.588   2.176   5.999 -0.4071  0.1774 -0.0264
  198MOL0     C26627   2.479   2.212   5.923 -0.1366  0.6688 -0.0175
  198MOL0     C26628   2.442   2.122   5.815  0.2481 -0.0129 -0.5443
  198MOL0     C26629   2.340   2.160   5.732  0.0493  0.0126  0.2626
  198MOL0     C26630   2.261   2.276   5.768 -0.1328 -0.4587 -0.0671
  198MOL0     O26631   2.163   2.318   5.690  0.4611  0.0737 -0.2968
  198MOL0     C26632   2.108   2.245   5.583 -0.2696 -0.0336 -0.3388
  198MOL0     C26633   1.963   2.294   5.555 -0.0444  0.4386 -0.4955
  198MOL0     C26634   1.852   2.276   5.668 -0.6035 -0.3239  0.7355
  198MOL0     C26635   1.850   2.134   5.733  0.6698 -0.6537  0.5587
  198MOL0     C26636   1.707   2.095   5.789  0.2783 -0.3594 -0.2549
  198MOL0     C26637   1.617   2.028   5.685 -0.1359 -0.0287 -0.0490
  198MOL0     C26638   1.495   1.969   5.754 -0.0985 -0.0250  0.7254
  198MOL0     C26639   1.398   1.917   5.653 -0.3569 -0.6332 -0.2068
  198MOL0    Cl26640   1.325   2.047   5.562 -0.5185  0.3287  0.0609
  198MOL0     C26641   2.289   2.351   5.883 -0.8916  0.1970  0.5049
  198MOL0     C26642   2.405   2.322   5.950  0.6767 -0.5860  0.6308
  198MOL0     O26643   2.676   2.389   5.954  0.2129  0.5298  0.6155
  198MOL0     C26644   2.810   2.112   6.157  0.5630  0.0134 -0.0381
  198MOL0     C26645   2.912   2.076   6.242  0.4792 -0.2587  0.7485
  198MOL0     N26646   3.544   1.631   6.320 -0.6669 -0.0860 -0.4864
  198MOL0     N26647   3.671   1.608   6.303  0.2386 -0.1254 -0.7216
  198MOL0     C26648   5.009   1.792   6.041  0.1837 -0.5406 -0.3383
  198MOL0     C26649   5.140   1.729   6.044  0.0298 -0.2393 -0.3601
  198MOL0     C26650   5.501   1.532   6.128 -0.8464  1.1680  0.0248
  198MOL0     C26651   5.615   1.572   6.203  0.5310  0.5466 -0.1444
  198MOL0     C26652   5.741   1.516   6.168  0.3217  0.1501  0.6982
  198MOL0     C26653   5.757   1.431   6.053 -0.4329  0.0300  0.5898
  198MOL0     O26654   5.877   1.385   6.019  0.1685 -0.0811  0.8938
  198MOL0     C26655   5.931   1.433   5.896  0.6742 -0.3734 -0.9735
  198MOL0     C26656   6.055   1.359   5.867  0.0296 -0.1998 -0.2218
  198MOL0     C26657   6.030   1.209   5.829  0.5973 -0.4062  0.2628
  198MOL0     C26658   6.157   1.132   5.796 -1.1160 -0.1615  0.1405
  198MOL0     C26659   6.181   1.139   5.651  0.0498 -0.0938 -0.4009
  198MOL0     C26660   6.198   1.136   5.531 -0.2997 -0.3546 -0.3738
  198MOL0     C26661   5.644   1.392   5.979  0.3754  0.3384 -1.5735
  198MOL0     C26662   5.519   1.442   6.017 -0.3962 -0.5502 -0.4804
  198MOL0     H26663   5.044   1.430   6.186 -0.3738 -0.2701 -1.4434
  198MOL0     H26664   4.825   1.547   6.185 -1.2947 -0.3721 -0.6307
  198MOL0     H26665   4.638   1.620   6.074 -1.6842  1.3154 -1.5105
  198MOL0     H26666   4.664   1.703   6.230  0.3414  2.6759  1.0478
  198MOL0     H26667   4.550   1.902   6.139  5.6981 -1.5658  1.0261
  198MOL0     H26668   4.541   1.813   5.991  0.8047 -1.2583  0.1645
  198MOL0     H26669   4.390   1.635   6.126 -0.3579  0.9623 -0.9645
  198MOL0     H26670   4.374   1.746   6.262  0.0564 -0.2098  0.5828
  198MOL0     H26671   4.275   1.914   6.102  1.6707  0.8352 -0.3771
  198MOL0     H26672   4.277   1.810   5.981 -2.7665  2.4117 -0.2291
  198MOL0     H26673   4.127   1.658   6.081 -0.7827  0.5259 -1.2472
  198MOL0     H26674   4.140   1.745   6.237 -1.5321 -2.1525 -0.7534
  198MOL0     H26675   4.039   1.953   6.110 -2.7211  0.9348 -3.6625
  198MOL0     H26676   4.021   1.852   5.972 -1.9145 -0.2923  0.0309
  198MOL0     H26677   3.807   1.868   6.082  0.3916  0.1657 -0.5092
  198MOL0     H26678   3.859   1.712   6.048 -0.6515  0.8510  0.2986
  198MOL0     H26679   3.905   1.834   6.325 -3.7206  0.3817  2.3172
  198MOL0     H26680   3.933   1.667   6.273 -0.2246  0.2503  3.8977
  198MOL0     H26681   3.661   1.933   6.312  0.2516 -0.5762 -2.3481
  198MOL0     H26682   3.367   1.872   6.280 -0.5742  1.9122  0.6832
  198MOL0     H26683   3.317   1.766   6.401  0.3447 -0.8590 -1.1734
  198MOL0     H26684   3.507   1.984   6.481 -0.0090  0.0241 -0.0488
  198MOL0     H26685   3.374   1.918   6.566 -1.4454  1.1308 -0.5654
  198MOL0     H26686   3.341   2.140   6.366 -0.3481 -0.0698  0.1534
  198MOL0     H26687   3.289   2.110   6.536 -0.3120  0.0581  0.3486
  198MOL0     H26688   3.119   1.948   6.449  2.1209  0.1326 -0.1071
  198MOL0     H26689   3.162   1.999   6.276  0.4608  2.5767 -1.0556
  198MOL0     H26690   3.061   2.372   6.269  0.5524  0.8751 -2.0614
  198MOL0     H26691   2.997   2.527   6.144  0.3622  0.7620 -2.0205
  198MOL0     H26692   2.919   2.499   5.995  3.1383 -0.3438  0.4547
  198MOL0     H26693   2.811   2.525   6.139 -1.4310 -1.8249 -0.1383
  198MOL0     H26694   2.504   2.038   5.783 -1.6474 -1.1646 -1.3293
  198MOL0     H26695   2.314   2.100   5.646  0.0391  2.5298 -1.6077
  198MOL0     H26696   2.173   2.262   5.497  1.9904  0.7186  1.3902
  198MOL0     H26697   2.100   2.138   5.601 -0.5536  0.1383  0.6585
  198MOL0     H26698   1.966   2.402   5.537  0.0786  0.3473 -1.0414
  198MOL0     H26699   1.927   2.235   5.471 -0.0171 -1.5245  0.8173
  198MOL0     H26700   1.754   2.284   5.620 -0.9768 -0.0938  1.5046
  198MOL0     H26701   1.863   2.357   5.741 -0.0669 -1.3277  1.7893
  198MOL0     H26702   1.875   2.050   5.668  0.7133 -2.5005  2.8153
  198MOL0     H26703   1.923   2.128   5.815 -1.2637  0.6988  2.5005
  198MOL0     H26704   1.654   2.179   5.833  0.1959 -1.1696  1.2217
  198MOL0     H26705   1.719   2.021   5.868  2.1895  1.9839  1.8427
  198MOL0     H26706   1.589   2.100   5.608  4.0739  0.3219 -1.5303
  198MOL0     H26707   1.677   1.949   5.640 -0.5008 -0.1506 -0.3215
  198MOL0     H26708   1.454   2.047   5.820  0.7300  1.0186  0.0458
  198MOL0     H26709   1.524   1.878   5.807 -1.9384 -0.5370  0.9411
  198MOL0     H26710   1.320   1.853   5.696 -1.2428 -1.2812 -2.5824
  198MOL0     H26711   1.453   1.858   5.579  0.4297  1.7539 -1.6845
  198MOL0     H26712   2.237   2.439   5.918  1.7012  1.9083  0.2897
  198MOL0     H26713   2.434   2.385   6.034  2.8504 -0.5785 -0.0655
  198MOL0     H26714   2.746   2.027   6.141  1.6034 -1.2190  1.9366
  198MOL0     H26715   2.919   1.977   6.288  0.0931 -0.5025  0.3010
  198MOL0     H26716   5.008   1.891   5.996  2.7500 -0.5303 -0.5045
  198MOL0     H26717   5.234   1.766   6.004  1.9759 -0.4377  3.5158
  198MOL0     H26718   5.597   1.639   6.286 -0.2071  2.5756 -1.8378
  198MOL0     H26719   5.832   1.536   6.224  0.8457 -1.0619  0.3189
  198MOL0     H26720   5.850   1.421   5.824 -1.2892  0.3988  0.9800
  198MOL0     H26721   5.936   1.541   5.916 -0.6072 -0.7259  1.7184
  198MOL0     H26722   6.128   1.369   5.948  1.6686  0.4199 -1.6935
  198MOL0     H26723   6.095   1.398   5.773 -2.4320  1.4170 -0.6872
  198MOL0     H26724   5.960   1.208   5.745 -0.4084 -1.4070  1.0750
  198MOL0     H26725   5.979   1.159   5.913  1.1119 -3.2164 -0.9891
  198MOL0     H26726   6.150   1.029   5.832 -1.6847 -0.2745 -0.2941
  198MOL0     H26727   6.238   1.190   5.840  0.4990 -1.0586 -1.4957
  198MOL0     H26728   6.219   1.128   5.426  0.1270  1.6706 -0.4784
  198MOL0     H26729   5.647   1.316   5.903  1.7825 -2.0161  0.6519
  198MOL0     H26730   5.428   1.408   5.968 -0.2095  2.0064 -2.8440
  199MOL0     O26731   7.137   9.200   5.601 -0.3795  0.2209  0.1114
  199MOL0     C26732   7.137   9.301   5.669 -0.4248  0.4980  0.3825
  199MOL0     O26733   7.254   9.372   5.714  0.4916  0.0639 -0.9853
  199MOL0     C26734   7.372   9.317   5.659  0.0557  0.3921 -0.2001
  199MOL0     C26735   7.467   9.251   5.731  0.9543  0.1207 -0.5265
  199MOL0     C26736   7.587   9.212   5.680 -0.0872 -0.4481  0.2549
  199MOL0     C26737   7.614   9.225   5.549 -0.3162 -0.0268  0.3675
  199MOL0     O26738   7.730   9.202   5.491 -0.4833  0.2188  0.1135
  199MOL0     C26739   7.802   9.086   5.523  0.5979 -1.4021 -0.2575
  199MOL0     C26740   7.776   8.973   5.425 -0.4898 -0.6759 -0.2006
  199MOL0     C26741   7.630   8.924   5.411  0.6019 -0.1496  0.0022
  199MOL0     C26742   7.566   8.845   5.529 -0.4490 -0.0174  0.6681
  199MOL0     C26743   7.421   8.895   5.524 -0.4873 -0.2350  0.2018
  199MOL0     C26744   7.345   8.868   5.661 -0.4626  0.2244  0.4616
  199MOL0     C26745   7.356   8.724   5.725 -0.2691 -0.2609  0.6129
  199MOL0     C26746   7.307   8.708   5.872  0.4792  0.1254  0.0751
  199MOL0     N26747   7.185   8.793   5.879  0.0177 -0.3129  0.5631
  199MOL0     C26748   7.176   8.929   5.913 -0.9077  0.0998  0.1828
  199MOL0     C26749   7.050   8.962   5.919  0.7486  0.5707  0.6260
  199MOL0     C26750   6.983   9.097   5.948 -0.1702 -0.1866 -0.4958
  199MOL0     C26751   6.914   9.096   6.084 -0.7495  0.0163 -0.4436
  199MOL0     C26752   6.784   9.011   6.081 -0.1214  0.4961 -0.1488
  199MOL0     C26753   6.675   9.075   5.999  0.3395  0.7856  0.3708
  199MOL0     O26754   6.546   9.013   6.022 -0.0836  0.4099 -0.3269
  199MOL0     C26755   6.445   9.060   5.939  0.1033  1.0188 -0.8421
  199MOL0     C26756   6.449   9.180   5.865  1.0519  0.0259 -0.1164
  199MOL0     C26757   6.341   9.223   5.784 -0.3435  0.0511  0.1887
  199MOL0     C26758   6.362   9.345   5.702  1.0076  0.4058  0.0420
  199MOL0     C26759   6.219   9.144   5.779 -0.6517 -0.1653  0.3438
  199MOL0     C26760   6.104   9.175   5.699 -0.0763  0.0421  0.1971
  199MOL0     O26761   6.122   9.243   5.590  0.4692  0.6348  0.4521
  199MOL0     C26762   6.044   9.225   5.473  0.6405 -0.5271 -0.4916
  199MOL0     C26763   6.046   9.323   5.380  0.1270  0.1944  0.1477
  199MOL0     C26764   5.969   9.314   5.261 -0.2364  0.9700  0.1550
  199MOL0     C26765   5.892   9.201   5.232 -0.3906 -0.5559  0.3601
  199MOL0     O26766   5.837   9.194   5.106 -0.4185  0.2889  0.5173
  199MOL0     C26767   5.738   9.089   5.083 -0.6077 -0.3170 -0.3919
  199MOL0     C26768   5.625   9.145   5.001  1.1928  1.3413 -0.5675
  199MOL0     C26769   5.514   9.034   4.976 -0.3611 -0.3612  0.0272
  199MOL0     C26770   5.390   9.072   4.891  0.0609 -0.7720 -0.7101
  199MOL0     C26771   5.295   9.170   4.952 -0.5074 -0.5308 -0.3372
  199MOL0     C26772   5.169   9.205   4.875  0.2276  0.7592  0.2708
  199MOL0     C26773   5.054   9.105   4.876  1.2943  0.5624 -0.3142
  199MOL0     C26774   5.018   9.061   5.023  0.7727  0.5001 -0.3197
  199MOL0    Cl26775   4.997   9.190   5.138 -0.0011  0.0262 -0.4573
  199MOL0     C26776   5.906   9.091   5.326 -0.3163 -0.1644 -1.3281
  199MOL0     C26777   5.985   9.103   5.440 -0.5030  0.2718  0.2093
  199MOL0     O26778   5.997   9.144   5.751 -0.4815  0.6346 -0.2332
  199MOL0     C26779   6.218   9.025   5.851  0.2177  0.4615 -0.2531
  199MOL0     C26780   6.320   8.991   5.944 -0.5209  0.3452 -0.4737
  199MOL0     N26781   6.982   8.852   5.863  0.2902 -0.3274 -0.0315
  199MOL0     N26782   7.059   8.753   5.844 -0.0406  0.0761  0.2380
  199MOL0     C26783   7.519   9.287   5.470  0.2090  0.5790 -0.8864
  199MOL0     C26784   7.402   9.340   5.527  0.3741  0.6875 -0.3589
  199MOL0     C26785   7.012   9.358   5.719  0.2313  0.5053 -0.4904
  199MOL0     C26786   6.896   9.333   5.647  1.1701  0.7309  0.3940
  199MOL0     C26787   6.772   9.392   5.690 -0.0878 -0.0496 -0.0107
  199MOL0     C26788   6.767   9.475   5.804  0.8586  0.2362 -0.3539
  199MOL0     O26789   6.641   9.511   5.847  0.0515 -0.0087 -0.0485
  199MOL0     C26790   6.620   9.548   5.984 -0.6641 -0.1141 -1.1016
  199MOL0     C26791   6.479   9.591   5.998 -0.3029  0.4323  0.5838
  199MOL0     C26792   6.425   9.594   6.139  0.1007  0.8428  0.0216
  199MOL0     C26793   6.275   9.630   6.152 -0.3948  0.0129  0.0573
  199MOL0     C26794   6.198   9.521   6.102 -0.7063  0.3865  0.1763
  199MOL0     C26795   6.147   9.422   6.050  0.6928  0.3157 -0.9741
  199MOL0     C26796   6.883   9.484   5.875 -0.0664  0.0396 -0.5786
  199MOL0     C26797   7.006   9.428   5.839 -0.3548  0.2703 -0.3847
  199MOL0     H26798   7.442   9.222   5.833 -3.2037 -0.3726 -1.4994
  199MOL0     H26799   7.665   9.183   5.748  0.2766 -0.5085 -0.1825
  199MOL0     H26800   7.910   9.105   5.526  0.3020  0.5869  2.7631
  199MOL0     H26801   7.791   9.060   5.629 -2.1089  0.2057 -0.0561
  199MOL0     H26802   7.801   9.006   5.324 -1.9314  0.9026 -0.0949
  199MOL0     H26803   7.840   8.889   5.450 -4.0052 -3.1261  1.5374
  199MOL0     H26804   7.576   9.015   5.385 -0.5173 -0.8328 -0.1444
  199MOL0     H26805   7.623   8.861   5.322  3.2031  0.4655 -0.7145
  199MOL0     H26806   7.561   8.738   5.503  1.0833  0.0518 -0.0273
  199MOL0     H26807   7.617   8.866   5.623 -2.1625  2.9399  1.0553
  199MOL0     H26808   7.423   9.004   5.513 -0.5463 -0.4214 -1.9266
  199MOL0     H26809   7.364   8.861   5.438  0.7412 -1.1637 -0.2701
  199MOL0     H26810   7.398   8.931   5.732 -0.8566 -0.2725  1.2137
  199MOL0     H26811   7.241   8.893   5.635  0.2566  1.7596 -1.1318
  199MOL0     H26812   7.299   8.662   5.655 -3.3564  3.0149 -0.0968
  199MOL0     H26813   7.458   8.689   5.715 -0.0653  0.4120  0.2395
  199MOL0     H26814   7.382   8.745   5.942  0.9938 -0.1421 -0.3270
  199MOL0     H26815   7.294   8.601   5.890  1.9595 -0.4543 -1.9553
  199MOL0     H26816   7.260   8.992   5.941 -0.3840  1.2817 -3.4231
  199MOL0     H26817   7.066   9.167   5.960 -1.6523  1.5022  0.5118
  199MOL0     H26818   6.913   9.124   5.869 -1.6303  0.8564  1.0731
  199MOL0     H26819   6.887   9.201   6.095  0.3195  0.4238 -1.4204
  199MOL0     H26820   6.986   9.069   6.162 -0.3876 -1.1991 -1.1712
  199MOL0     H26821   6.737   8.997   6.179 -3.5749  1.3587 -1.5550
  199MOL0     H26822   6.808   8.912   6.040 -1.6885  0.8625 -2.0831
  199MOL0     H26823   6.704   9.069   5.894  2.3808 -2.0806  0.9987
  199MOL0     H26824   6.661   9.179   6.030  1.2301 -0.0227  3.8686
  199MOL0     H26825   6.534   9.246   5.872  0.8890  0.2595 -0.2984
  199MOL0     H26826   6.278   9.413   5.721 -0.6897 -1.7783  0.6754
  199MOL0     H26827   6.447   9.403   5.738  0.0950  1.4165  0.6335
  199MOL0     H26828   6.373   9.314   5.598  3.0662 -3.5248  1.2505
  199MOL0     H26829   6.097   9.418   5.392  0.9996 -0.4881  2.5126
  199MOL0     H26830   5.955   9.408   5.208 -0.9645  0.8684  0.1655
  199MOL0     H26831   5.777   9.000   5.034  0.7160  0.5416 -0.9555
  199MOL0     H26832   5.684   9.054   5.172  1.1366  1.9962  1.7487
  199MOL0     H26833   5.594   9.230   5.063  3.5869  0.5174  1.9876
  199MOL0     H26834   5.674   9.177   4.909  0.0550  2.4683 -0.8193
  199MOL0     H26835   5.486   8.996   5.075  0.2038  2.2867  1.2824
  199MOL0     H26836   5.561   8.959   4.912  1.1988  1.4030 -1.0140
  199MOL0     H26837   5.430   9.121   4.802  1.5312  0.2627  0.4789
  199MOL0     H26838   5.330   8.985   4.861 -1.5364  0.2816 -0.6638
  199MOL0     H26839   5.344   9.267   4.957 -1.5230  0.0068 -0.5644
  199MOL0     H26840   5.273   9.133   5.053 -2.6842 -1.3391 -1.0281
  199MOL0     H26841   5.134   9.302   4.912 -2.0627 -0.2318  0.9038
  199MOL0     H26842   5.197   9.219   4.770 -0.3223  1.2480  0.1865
  199MOL0     H26843   5.081   9.019   4.813  3.5550  1.3457 -0.4871
  199MOL0     H26844   4.969   9.156   4.830  1.3095 -0.6718 -1.8192
  199MOL0     H26845   5.090   8.989   5.065 -0.7570  0.7632  3.0936
  199MOL0     H26846   4.922   9.012   5.005  1.5191 -0.9408 -0.5262
  199MOL0     H26847   5.855   8.996   5.315 -3.7156  1.2472  0.7763
  199MOL0     H26848   5.996   9.018   5.507 -3.3084  0.8929  1.5938
  199MOL0     H26849   6.131   8.961   5.852  0.6812 -0.2068 -1.3028
  199MOL0     H26850   6.294   8.913   6.016 -2.5750  1.6344  0.2541
  199MOL0     H26851   7.527   9.305   5.363  0.9326 -2.5973 -1.4774
  199MOL0     H26852   7.333   9.399   5.466  1.5910  0.4534 -2.0454
  199MOL0     H26853   6.879   9.270   5.561 -2.4863 -1.1079  2.2250
  199MOL0     H26854   6.689   9.370   5.625  0.8959  0.0143 -1.3373
  199MOL0     H26855   6.635   9.462   6.050 -2.5916  1.8711  2.1739
  199MOL0     H26856   6.687   9.629   6.011  1.2444 -2.3568  1.3005
  199MOL0     H26857   6.416   9.525   5.939 -0.4114  0.6939  0.4066
  199MOL0     H26858   6.466   9.689   5.951  1.7205  0.9292  0.9442
  199MOL0     H26859   6.474   9.669   6.202 -3.4673  0.1397  4.0372
  199MOL0     H26860   6.454   9.495   6.174  1.5594  0.4143 -2.1730
  199MOL0     H26861   6.262   9.717   6.088 -1.1933 -2.5322 -3.5616
  199MOL0     H26862   6.245   9.657   6.253  0.3080  0.3558  0.1802
  199MOL0     H26863   6.095   9.343   6.000 -0.2970  0.5193 -0.2921
  199MOL0     H26864   6.863   9.522   5.975  0.0204 -3.2096  0.7770
  199MOL0     H26865   7.099   9.447   5.891 -0.0557  0.0823 -0.8444
  200MOL0     O26866   9.491   0.121   3.643  1.1724  0.4764  0.3631
  200MOL0     C26867   9.594   0.055   3.619  0.2275  0.1571 -0.3320
  200MOL0     O26868   9.599  -0.082   3.613  0.8184  0.2784 -0.3568
  200MOL0     C26869   9.498  -0.160   3.670  0.0762  0.3415  0.3124
  200MOL0     C26870   9.538  -0.238   3.780 -0.0478  0.8026 -0.1090
  200MOL0     C26871   9.444  -0.320   3.845 -1.0603 -0.5756  0.2307
  200MOL0     C26872   9.311  -0.308   3.808  0.2018 -0.1467  0.3731
  200MOL0     O26873   9.197  -0.357   3.875 -1.1321  0.5929 -0.2223
  200MOL0     C26874   9.211  -0.366   4.020 -0.5252 -1.1529 -0.3515
  200MOL0     C26875   9.085  -0.420   4.095  0.8762 -0.1640  0.2477
  200MOL0     C26876   8.962  -0.345   4.056  0.3242 -0.2112 -0.1165
  200MOL0     C26877   8.841  -0.392   4.150  0.2335  0.0728 -0.0415
  200MOL0     C26878   8.717  -0.329   4.110  0.2221 -0.5467  0.4226
  200MOL0     C26879   8.600  -0.322   4.208  0.4849  0.4561  0.0074
  200MOL0     C26880   8.502  -0.202   4.194  0.7939 -0.0506  0.4783
  200MOL0     C26881   8.388  -0.177   4.311 -0.6721 -0.5077  0.5000
  200MOL0     N26882   8.295  -0.067   4.284  0.7872  0.3928 -0.7631
  200MOL0     C26883   8.177  -0.077   4.211  0.3516  0.7720  0.1584
  200MOL0     C26884   8.136   0.049   4.186 -1.2235  0.7314 -0.3760
  200MOL0     C26885   8.016   0.088   4.102  0.3717  0.5342 -0.6765
  200MOL0     C26886   7.932   0.182   4.179 -0.5943  0.1059 -0.1241
  200MOL0     C26887   7.844   0.119   4.294 -1.0319 -0.0408  0.0716
  200MOL0     C26888   7.757   0.225   4.362 -0.3666  0.2326 -0.3950
  200MOL0     O26889   7.658   0.275   4.266  0.5778 -0.1180  0.0150
  200MOL0     C26890   7.567   0.352   4.328 -0.3144 -0.4118  0.1122
  200MOL0     C26891   7.532   0.343   4.467  0.9485 -0.1956 -0.9439
  200MOL0     C26892   7.436   0.433   4.521  0.6841  0.9147  0.0459
  200MOL0     C26893   7.410   0.423   4.670 -0.7236  0.0774 -0.5490
  200MOL0     C26894   7.378   0.532   4.444 -0.8374 -0.4712  0.1610
  200MOL0     C26895   7.283   0.627   4.489 -0.1083  0.0377  0.8731
  200MOL0     O26896   7.310   0.754   4.455 -0.3263 -0.1106  0.6258
  200MOL0     C26897   7.196   0.830   4.451 -0.2939 -0.1941  0.1508
  200MOL0     C26898   7.188   0.945   4.526 -0.3930  0.3614 -0.6166
  200MOL0     C26899   7.076   1.028   4.519  0.0055  0.1601 -0.4855
  200MOL0     C26900   6.962   0.986   4.443  0.3994 -0.1290 -0.0440
  200MOL0     O26901   6.834   1.044   4.433 -0.2034 -0.3233  0.1786
  200MOL0     C26902   6.765   1.101   4.548  0.0936  0.2511  0.4582
  200MOL0     C26903   6.660   1.000   4.593 -0.2759  0.2760  0.2006
  200MOL0     C26904   6.608   1.043   4.728  0.7997 -0.8730 -1.8020
  200MOL0     C26905   6.499   1.152   4.714 -0.1923  0.4772 -0.3850
  200MOL0     C26906   6.433   1.190   4.859  0.7065 -0.9669  0.3229
  200MOL0     C26907   6.309   1.274   4.839 -0.2673  0.8681 -0.8275
  200MOL0     C26908   6.198   1.208   4.753  0.9295  0.0570 -0.2694
  200MOL0     C26909   6.066   1.281   4.770  0.6799 -0.3386 -0.1806
  200MOL0    Cl26910   6.041   1.421   4.665  0.4368 -0.1293 -0.1257
  200MOL0     C26911   6.979   0.877   4.354 -0.1051 -0.2307 -0.0275
  200MOL0     C26912   7.091   0.804   4.359 -0.0576 -0.8383  0.3312
  200MOL0     O26913   7.184   0.592   4.549  0.0500 -0.3191 -0.2118
  200MOL0     C26914   7.410   0.537   4.308 -0.0060 -0.5769 -0.3010
  200MOL0     C26915   7.497   0.444   4.249  0.5590  0.4042  0.1434
  200MOL0     N26916   8.227   0.135   4.254  0.0596  0.0736  0.4107
  200MOL0     N26917   8.325   0.056   4.302  0.8500 -0.2751 -0.2310
  200MOL0     C26918   9.266  -0.235   3.695  0.1339 -0.1595 -0.2561
  200MOL0     C26919   9.368  -0.161   3.627 -0.2354 -1.2599 -0.5509
  200MOL0     C26920   9.707   0.137   3.581 -0.3597 -0.3726  0.1193
  200MOL0     C26921   9.704   0.283   3.582 -0.2826  0.2070 -0.5475
  200MOL0     C26922   9.822   0.349   3.573  0.6866 -0.5407  0.3214
  200MOL0     C26923   9.943   0.287   3.545  0.1360  0.1220  0.4057
  200MOL0     O26924  10.066   0.363   3.545 -0.0135 -0.5317  0.2964
  200MOL0     C26925  10.174   0.324   3.459  0.4264 -0.0573  1.0225
  200MOL0     C26926  10.296   0.285   3.545 -0.4845 -0.1226 -1.1584
  200MOL0     C26927  10.429   0.320   3.479 -0.2873  0.9821  0.3120
  200MOL0     C26928  10.458   0.243   3.345 -0.7986 -0.5285  0.1577
  200MOL0     C26929  10.588   0.281   3.285 -0.5993  0.3294 -1.0468
  200MOL0     C26930  10.708   0.299   3.263 -0.0983 -0.0821  0.9774
  200MOL0     C26931   9.943   0.152   3.535  0.0373  0.6505 -0.6925
  200MOL0     C26932   9.835   0.072   3.562 -0.0289  0.3884 -1.0986
  200MOL0     H26933   9.638  -0.226   3.820  0.2941 -0.5121 -0.5193
  200MOL0     H26934   9.474  -0.388   3.924  0.3554 -1.6886 -1.1961
  200MOL0     H26935   9.294  -0.429   4.052 -1.4414 -1.5443  1.4235
  200MOL0     H26936   9.225  -0.261   4.048 -1.3404 -0.8563 -1.0072
  200MOL0     H26937   9.071  -0.524   4.067  2.1288  0.0520 -1.2632
  200MOL0     H26938   9.099  -0.421   4.204  2.7013  1.5714  0.1012
  200MOL0     H26939   8.975  -0.236   4.062 -3.1973  0.3898 -1.0417
  200MOL0     H26940   8.942  -0.369   3.951 -1.3160 -1.4451  0.4283
  200MOL0     H26941   8.817  -0.499   4.150 -3.6593  0.7463 -1.9609
  200MOL0     H26942   8.856  -0.359   4.253  0.3182 -1.3656  0.4357
  200MOL0     H26943   8.750  -0.228   4.086 -0.1383  0.1596  2.6323
  200MOL0     H26944   8.684  -0.380   4.019  1.4143 -0.0722 -0.3069
  200MOL0     H26945   8.549  -0.419   4.220  0.6207  0.6324  2.5797
  200MOL0     H26946   8.641  -0.304   4.308 -0.0409  1.0258  0.1260
  200MOL0     H26947   8.558  -0.108   4.203 -1.0567  0.9963  1.7159
  200MOL0     H26948   8.446  -0.216   4.101 -2.6346 -1.6351  2.6180
  200MOL0     H26949   8.445  -0.152   4.401 -2.7110  0.3683  1.6198
  200MOL0     H26950   8.329  -0.269   4.321 -0.1062 -1.0178 -0.6490
  200MOL0     H26951   8.121  -0.167   4.189 -0.3444  1.3020 -0.2757
  200MOL0     H26952   8.050   0.133   4.009 -0.1054 -0.0012 -1.1181
  200MOL0     H26953   7.951   0.006   4.070 -0.3196  1.1040 -0.7646
  200MOL0     H26954   7.862   0.234   4.113 -0.4398  0.5374  0.0461
  200MOL0     H26955   7.999   0.262   4.211 -1.5285  1.7300 -2.0297
  200MOL0     H26956   7.917   0.074   4.362  0.8687  1.0976 -1.1236
  200MOL0     H26957   7.782   0.042   4.248 -0.2760 -0.5279 -0.1475
  200MOL0     H26958   7.819   0.304   4.406  0.1138 -1.0612  1.3750
  200MOL0     H26959   7.712   0.168   4.444 -0.7354  1.5511  0.3486
  200MOL0     H26960   7.582   0.275   4.535  2.1245  1.5220  0.0077
  200MOL0     H26961   7.481   0.353   4.715 -2.4752 -1.9392 -0.7785
  200MOL0     H26962   7.417   0.517   4.727  0.2627 -0.2636 -0.0870
  200MOL0     H26963   7.309   0.385   4.684 -0.8153  0.4742 -0.0958
  200MOL0     H26964   7.263   0.969   4.601 -0.5668  0.9216 -0.6131
  200MOL0     H26965   7.072   1.121   4.576 -0.3362  0.9334 -1.7415
  200MOL0     H26966   6.833   1.122   4.630  2.3637 -2.4044 -0.5928
  200MOL0     H26967   6.722   1.196   4.512  5.3617  2.1157 -1.8354
  200MOL0     H26968   6.591   0.986   4.508  1.1728  2.1719 -1.3840
  200MOL0     H26969   6.701   0.899   4.608  0.0300  0.4112  0.2768
  200MOL0     H26970   6.680   1.083   4.800 -0.7951  3.7251 -2.4451
  200MOL0     H26971   6.568   0.953   4.777 -0.5247 -0.0509 -1.3241
  200MOL0     H26972   6.541   1.242   4.667 -1.6673 -0.1132 -3.0092
  200MOL0     H26973   6.421   1.120   4.645 -1.0351  0.2598  0.6414
  200MOL0     H26974   6.500   1.255   4.916 -2.0400  1.0138  1.5210
  200MOL0     H26975   6.409   1.099   4.915 -0.3723 -0.9981 -0.1618
  200MOL0     H26976   6.270   1.277   4.942  0.3810  0.0915 -0.5483
  200MOL0     H26977   6.341   1.375   4.812  2.6139  0.2137 -0.1936
  200MOL0     H26978   6.188   1.102   4.780  0.2616  0.1570 -0.1075
  200MOL0     H26979   6.230   1.210   4.649  0.8847 -0.0679 -0.2849
  200MOL0     H26980   6.061   1.320   4.872 -0.7480  0.7478 -0.6178
  200MOL0     H26981   5.979   1.215   4.763 -2.1041  2.8260  1.5273
  200MOL0     H26982   6.903   0.859   4.279 -1.3340  0.8112  0.9380
  200MOL0     H26983   7.117   0.722   4.293  3.9277  1.8490 -1.7822
  200MOL0     H26984   7.363   0.611   4.244  1.7377  1.2683  0.4202
  200MOL0     H26985   7.516   0.451   4.143  2.7300  0.7179  0.5076
  200MOL0     H26986   9.163  -0.238   3.663  0.3979  0.0856 -1.1545
  200MOL0     H26987   9.336  -0.107   3.539 -1.8016  1.0558  1.3530
  200MOL0     H26988   9.617   0.347   3.595 -1.0183 -1.1222  1.4553
  200MOL0     H26989   9.821   0.457   3.583 -2.2952 -0.2899 -1.4975
  200MOL0     H26990  10.144   0.250   3.385  0.2409  1.8047 -0.8710
  200MOL0     H26991  10.201   0.420   3.413  0.0779  2.5151  5.6096
  200MOL0     H26992  10.289   0.179   3.571 -3.0759  0.3965  0.6725
  200MOL0     H26993  10.291   0.350   3.632 -0.2799  0.7224 -1.7647
  200MOL0     H26994  10.499   0.287   3.556 -0.5877  0.3437  0.3200
  200MOL0     H26995  10.435   0.429   3.472 -1.2188  1.0447  0.3012
  200MOL0     H26996  10.379   0.279   3.279  1.6427  4.5940 -0.4715
  200MOL0     H26997  10.462   0.135   3.365 -3.8747 -0.6875  0.4100
  200MOL0     H26998  10.813   0.317   3.249 -0.2006 -0.9662 -1.5234
  200MOL0     H26999  10.036   0.100   3.515 -1.2288 -2.7038  1.2961
  200MOL0     H27000   9.862  -0.033   3.575 -0.2218  0.4135 -0.4770
  201MOL0     O27001  11.344   0.166   1.058 -0.5239 -0.5855  0.2180
  201MOL0     C27002  11.346   0.146   0.937  0.5767 -0.2209  0.6803
  201MOL0     O27003  11.241   0.179   0.852  0.4446 -0.1723  0.7442
  201MOL0     C27004  11.143   0.257   0.904  0.8841  0.3344 -0.0342
  201MOL0     C27005  11.022   0.192   0.937  0.0011  0.1401  0.6993
  201MOL0     C27006  10.917   0.276   0.977 -0.5136  0.1485 -0.0605
  201MOL0     C27007  10.931   0.419   0.975 -1.0801 -0.5262 -0.6985
  201MOL0     O27008  10.836   0.508   1.010  0.4311 -0.1804 -0.7409
  201MOL0     C27009  10.710   0.497   0.943  0.5130 -0.1840  0.4968
  201MOL0     C27010  10.620   0.608   0.991  0.4356 -0.0094  0.6938
  201MOL0     C27011  10.664   0.744   0.952  0.0589  0.2229  0.7106
  201MOL0     C27012  10.568   0.855   1.009  0.1816 -0.4068  0.3544
  201MOL0     C27013  10.432   0.862   0.938 -0.5437 -0.2886  0.3925
  201MOL0     C27014  10.377   1.005   0.962  0.8265  0.1730 -0.7513
  201MOL0     C27015  10.220   1.006   0.940 -0.3864  0.3023  0.2337
  201MOL0     C27016  10.152   0.964   1.068  0.8591 -0.3618 -0.0722
  201MOL0     N27017  10.009   0.913   1.033 -0.2268 -0.3678  0.0121
  201MOL0     C27018   9.931   0.962   0.935  0.1419  0.6132 -0.0523
  201MOL0     C27019   9.823   0.881   0.950 -0.3663  0.6989 -0.2786
  201MOL0     C27020   9.699   0.891   0.878 -0.0288 -0.1111 -0.0277
  201MOL0     C27021   9.603   0.984   0.947  0.1310  0.3949 -1.1804
  201MOL0     C27022   9.457   0.945   0.905 -0.3077 -0.6143  0.0635
  201MOL0     C27023   9.424   0.804   0.956  0.3158 -0.3366 -0.1903
  201MOL0     O27024   9.285   0.804   1.002  0.4062  1.1434  0.4088
  201MOL0     C27025   9.190   0.769   0.908 -0.0476  0.4764 -0.3468
  201MOL0     C27026   9.216   0.755   0.770 -0.4496 -1.2270 -0.0206
  201MOL0     C27027   9.110   0.735   0.680 -0.8421  0.9696  0.4991
  201MOL0     C27028   9.138   0.732   0.528  0.1811  0.2460 -0.1627
  201MOL0     C27029   8.978   0.710   0.738  0.0475 -0.1477 -0.0463
  201MOL0     C27030   8.850   0.686   0.665 -0.3973  0.0185  0.0616
  201MOL0     O27031   8.728   0.670   0.738 -0.1584  0.1856 -0.1332
  201MOL0     C27032   8.617   0.616   0.669  0.2008 -0.5355  0.0884
  201MOL0     C27033   8.622   0.506   0.585  0.5040 -0.3106  0.4787
  201MOL0     C27034   8.509   0.465   0.515  0.0396  0.1575  0.2065
  201MOL0     C27035   8.389   0.531   0.528 -0.2918  0.4009  0.7955
  201MOL0     O27036   8.266   0.494   0.464  0.0769 -0.5287 -0.5204
  201MOL0     C27037   8.264   0.390   0.359  1.1742  0.3168 -0.3727
  201MOL0     C27038   8.104   0.385   0.319 -0.4686  0.4634 -0.3247
  201MOL0     C27039   8.067   0.524   0.273 -0.0535 -0.7392  0.3265
  201MOL0     C27040   7.925   0.537   0.217 -0.8203  0.6102  0.6818
  201MOL0     C27041   7.900   0.668   0.142  0.1032 -0.0814  0.4565
  201MOL0     C27042   7.757   0.686   0.101  0.0234 -0.5073 -0.1198
  201MOL0     C27043   7.663   0.725   0.225 -0.0706  0.1935  0.7646
  201MOL0     C27044   7.519   0.733   0.184  0.8466  0.3206 -0.0914
  201MOL0    Cl27045   7.425   0.593   0.235  0.1340  0.0293 -0.0242
  201MOL0     C27046   8.378   0.631   0.618 -0.1819 -0.7777 -0.3032
  201MOL0     C27047   8.492   0.674   0.690  0.7323  0.0973  0.1826
  201MOL0     O27048   8.863   0.687   0.544 -0.4523 -0.5148 -0.6493
  201MOL0     C27049   8.962   0.717   0.876 -0.4705  0.4595  1.2643
  201MOL0     C27050   9.064   0.751   0.957 -0.0263 -0.4671 -0.2211
  201MOL0     N27051   9.842   0.785   1.039  1.3277  0.0009  0.3053
  201MOL0     N27052   9.950   0.801   1.093 -0.1106 -0.7021  0.6221
  201MOL0     C27053  11.054   0.476   0.926  0.4056  0.2441 -0.2540
  201MOL0     C27054  11.155   0.394   0.894 -0.2698 -0.1674 -0.0419
  201MOL0     C27055  11.467   0.079   0.894  0.6555 -0.3098  0.4803
  201MOL0     C27056  11.592   0.076   0.960  0.0459 -0.5536  0.9325
  201MOL0     C27057  11.694   0.002   0.911  0.9790  0.4428  0.9611
  201MOL0     C27058  11.695  -0.068   0.788  0.2937  0.3280  0.3828
  201MOL0     O27059  11.806  -0.138   0.755 -0.5825 -0.1495  0.2858
  201MOL0     C27060  11.811  -0.189   0.622  0.0379 -0.3025  0.4775
  201MOL0     C27061  11.948  -0.251   0.603 -0.3665  0.5010 -0.0757
  201MOL0     C27062  12.063  -0.173   0.663 -0.7455  0.5284  0.1860
  201MOL0     C27063  12.081  -0.032   0.592  0.0341  0.6479  0.8402
  201MOL0     C27064  12.208  -0.021   0.517  0.5330 -0.1944 -0.5220
  201MOL0     C27065  12.308  -0.009   0.446  0.6981 -0.5715 -0.7819
  201MOL0     C27066  11.574  -0.056   0.714 -0.0235  0.4694  0.5451
  201MOL0     C27067  11.463   0.014   0.770  0.2547  0.2628 -0.1444
  201MOL0     H27068  11.005   0.084   0.935 -1.9716  0.3939 -1.2365
  201MOL0     H27069  10.824   0.241   1.019  0.6079 -1.8390  0.9148
  201MOL0     H27070  10.728   0.498   0.835  3.3733 -0.2214  0.8767
  201MOL0     H27071  10.660   0.403   0.969  0.3376 -0.1980  0.1163
  201MOL0     H27072  10.522   0.581   0.951  0.0936  0.8614  0.9155
  201MOL0     H27073  10.626   0.608   1.101  1.4437  0.8432  0.6465
  201MOL0     H27074  10.759   0.755   1.004  1.3114 -1.7833 -0.9618
  201MOL0     H27075  10.689   0.761   0.846  1.0689 -1.3817  0.6444
  201MOL0     H27076  10.566   0.862   1.118 -0.5162  2.1522  0.2594
  201MOL0     H27077  10.627   0.943   0.983  2.9709 -2.2457  0.0681
  201MOL0     H27078  10.429   0.849   0.829  0.9244  0.3856  0.2496
  201MOL0     H27079  10.365   0.786   0.980  0.8268 -0.9143  1.5018
  201MOL0     H27080  10.395   1.036   1.065 -0.2097 -0.8216 -0.2470
  201MOL0     H27081  10.435   1.062   0.889  0.4273 -3.5661 -4.4168
  201MOL0     H27082  10.187   1.105   0.908  1.2474  1.2749  1.3606
  201MOL0     H27083  10.187   0.942   0.857 -2.0743  0.9833  0.3441
  201MOL0     H27084  10.161   1.041   1.146  0.8401 -2.0206  1.6523
  201MOL0     H27085  10.208   0.878   1.107  3.2035  0.4356 -1.5081
  201MOL0     H27086   9.960   1.047   0.874 -0.8368  0.1522 -1.2019
  201MOL0     H27087   9.708   0.936   0.779 -1.3645  0.5951  0.1562
  201MOL0     H27088   9.661   0.789   0.866  0.8559 -0.1955 -2.9855
  201MOL0     H27089   9.603   1.091   0.925  1.2470  0.2815 -1.7818
  201MOL0     H27090   9.619   0.979   1.055 -1.4113  1.4997 -0.8661
  201MOL0     H27091   9.446   0.957   0.797 -2.1208 -1.8917  0.0499
  201MOL0     H27092   9.379   1.017   0.930  0.7295  0.7667 -0.6036
  201MOL0     H27093   9.479   0.794   1.050 -1.8549 -0.4645  1.1541
  201MOL0     H27094   9.447   0.723   0.886 -0.6672  0.9997 -2.1590
  201MOL0     H27095   9.314   0.764   0.724  0.2251 -3.0206  0.9956
  201MOL0     H27096   9.079   0.808   0.475 -1.3570 -0.0499  1.0565
  201MOL0     H27097   9.244   0.747   0.505 -0.0243  1.2720 -0.4829
  201MOL0     H27098   9.107   0.636   0.485 -1.9610 -0.0841  1.9252
  201MOL0     H27099   8.714   0.450   0.575 -1.1279 -2.7383 -2.4077
  201MOL0     H27100   8.505   0.373   0.458  0.8514 -0.0998  0.5591
  201MOL0     H27101   8.323   0.420   0.271  0.0445 -1.8800 -1.9759
  201MOL0     H27102   8.299   0.292   0.392 -0.1967 -0.3799 -0.8990
  201MOL0     H27103   8.091   0.308   0.243 -0.4136  1.2273 -1.1237
  201MOL0     H27104   8.041   0.357   0.404 -0.6168 -1.1147 -0.9194
  201MOL0     H27105   8.128   0.558   0.189  1.1150 -1.1608  0.9963
  201MOL0     H27106   8.071   0.587   0.362  1.7102  1.0873 -0.9650
  201MOL0     H27107   7.898   0.454   0.151 -0.2593  0.5270  0.5526
  201MOL0     H27108   7.853   0.534   0.299 -1.3983  1.6465  0.2325
  201MOL0     H27109   7.961   0.674   0.052 -0.5069 -1.4675 -0.0763
  201MOL0     H27110   7.929   0.756   0.201 -3.2914  3.0973 -2.1214
  201MOL0     H27111   7.744   0.770   0.032 -2.4450 -1.3006 -0.7235
  201MOL0     H27112   7.714   0.595   0.058  0.2175 -2.0683  2.7406
  201MOL0     H27113   7.694   0.825   0.259 -0.5013 -0.3745  2.9831
  201MOL0     H27114   7.690   0.651   0.300  1.0621 -0.3499 -0.1385
  201MOL0     H27115   7.501   0.747   0.077  3.5774  1.6900 -0.4794
  201MOL0     H27116   7.473   0.816   0.239  0.4784 -1.2501  2.0917
  201MOL0     H27117   8.279   0.673   0.633  1.2513  2.4494  1.1491
  201MOL0     H27118   8.487   0.747   0.770 -0.3748  0.0182  0.2122
  201MOL0     H27119   8.864   0.728   0.923 -0.9174  1.2940  0.1858
  201MOL0     H27120   9.034   0.786   1.056  0.6079 -2.6085  0.7742
  201MOL0     H27121  11.055   0.581   0.900 -2.2491  0.0409 -1.5321
  201MOL0     H27122  11.247   0.435   0.854 -2.0673  2.1392 -2.1473
  201MOL0     H27123  11.607   0.131   1.052  1.4202 -1.1625  1.0952
  201MOL0     H27124  11.792   0.006   0.959  1.9453  2.5342 -0.9745
  201MOL0     H27125  11.745  -0.269   0.585 -1.4420  1.7753 -1.6321
  201MOL0     H27126  11.806  -0.107   0.550  4.2652 -0.3187 -0.0960
  201MOL0     H27127  11.967  -0.260   0.495 -3.0983 -0.5681 -0.5515
  201MOL0     H27128  11.956  -0.348   0.651 -0.8720  1.1313  1.3207
  201MOL0     H27129  12.160  -0.223   0.653 -0.6832  0.7588 -0.4034
  201MOL0     H27130  12.050  -0.145   0.768  0.7730  0.2125  0.4720
  201MOL0     H27131  12.069   0.051   0.662  2.1433  0.9394  0.8953
  201MOL0     H27132  12.007  -0.024   0.512 -0.5406  2.8981  1.5399
  201MOL0     H27133  12.391   0.008   0.379 -0.0175  0.2256 -1.4971
  201MOL0     H27134  11.587  -0.068   0.607 -1.1752  0.1156  0.4335
  201MOL0     H27135  11.374   0.028   0.710 -1.1037 -1.9188  1.2272
  202MOL0     O27136   6.337   9.030   2.622  0.7047 -0.0828  0.1520
  202MOL0     C27137   6.348   9.099   2.525 -1.0939  0.0002  0.0525
  202MOL0     O27138   6.269   9.097   2.417 -0.3219 -1.0102 -0.2127
  202MOL0     C27139   6.159   9.017   2.425 -0.3401  0.2453  1.3233
  202MOL0     C27140   6.131   8.940   2.312 -0.0972 -0.1328 -0.7621
  202MOL0     C27141   6.021   8.850   2.306 -0.6956 -0.7558 -0.2259
  202MOL0     C27142   5.923   8.863   2.407  0.1798 -0.1331 -1.1850
  202MOL0     O27143   5.813   8.790   2.398  0.7680 -0.5327  0.4897
  202MOL0     C27144   5.744   8.751   2.520 -0.2982 -0.0935  0.8927
  202MOL0     C27145   5.642   8.647   2.494  0.2628  0.0432  0.1077
  202MOL0     C27146   5.702   8.519   2.427  1.1373 -0.2571 -0.3619
  202MOL0     C27147   5.595   8.435   2.367 -0.0960 -0.2132  0.2458
  202MOL0     C27148   5.659   8.302   2.329  0.0238  0.8044 -0.3928
  202MOL0     C27149   5.552   8.202   2.289  0.3842 -0.4117  0.3368
  202MOL0     C27150   5.622   8.078   2.243  0.0979 -0.3302  0.1942
  202MOL0     C27151   5.522   7.986   2.168 -0.0560 -0.0211  0.1468
  202MOL0     N27152   5.470   8.026   2.040 -0.0887  0.1702  0.0021
  202MOL0     C27153   5.331   8.025   2.022  0.7059  0.2182 -0.1666
  202MOL0     C27154   5.313   8.010   1.887  0.8881 -0.2312 -0.2086
  202MOL0     C27155   5.185   7.971   1.826 -0.0459  0.3067 -0.1794
  202MOL0     C27156   5.066   8.052   1.895  0.2117  0.9695  0.1423
  202MOL0     C27157   4.928   8.015   1.847 -0.3115 -0.5243 -0.3937
  202MOL0     C27158   4.811   8.087   1.909 -0.3872  1.0595 -0.0234
  202MOL0     O27159   4.803   8.223   1.868  0.1291 -0.1619 -0.1008
  202MOL0     C27160   4.676   8.274   1.880  1.1687 -0.5736  0.7298
  202MOL0     C27161   4.594   8.218   1.985  1.0800 -0.5724  0.1264
  202MOL0     C27162   4.470   8.271   2.003  1.0663  0.1077 -0.3479
  202MOL0     C27163   4.394   8.233   2.125 -0.4427 -0.7477  0.8000
  202MOL0     C27164   4.420   8.382   1.928  1.2740 -0.3908  0.2997
  202MOL0     C27165   4.282   8.446   1.928  0.1240 -0.3429  0.9650
  202MOL0     O27166   4.264   8.548   1.831  0.0010 -0.3019 -0.0837
  202MOL0     C27167   4.165   8.646   1.841 -0.2021  1.3673  0.6630
  202MOL0     C27168   4.158   8.731   1.731 -0.5826 -0.1222 -0.1621
  202MOL0     C27169   4.070   8.834   1.721 -0.0820  0.0969  0.4978
  202MOL0     C27170   3.973   8.846   1.830 -0.2414  1.0995 -0.3009
  202MOL0     O27171   3.886   8.955   1.855  0.6380  0.3344  0.2372
  202MOL0     C27172   3.878   9.058   1.746  0.4228  0.3591 -0.4061
  202MOL0     C27173   3.794   9.003   1.638 -0.0181 -0.3385  0.4202
  202MOL0     C27174   3.644   9.036   1.648 -0.1382 -0.1479  0.4038
  202MOL0     C27175   3.575   9.035   1.510  0.1376 -1.1121 -0.3004
  202MOL0     C27176   3.426   9.042   1.511  0.0100 -0.0635  0.4111
  202MOL0     C27177   3.356   9.002   1.382  0.3684 -0.2771 -0.8364
  202MOL0     C27178   3.202   9.005   1.391 -1.1176  1.3530  0.4284
  202MOL0     C27179   3.120   8.958   1.269  0.1152 -0.1683  0.2792
  202MOL0    Cl27180   3.121   8.783   1.259 -0.1391  0.1449 -0.0115
  202MOL0     C27181   3.973   8.766   1.944  0.4053  0.7425  0.6153
  202MOL0     C27182   4.067   8.655   1.942 -0.1408 -0.5045 -0.0525
  202MOL0     O27183   4.188   8.400   1.995  0.2256 -0.2881 -0.4473
  202MOL0     C27184   4.504   8.429   1.818  0.0768  0.2112  0.9210
  202MOL0     C27185   4.627   8.370   1.793 -1.3228 -0.7838 -0.1893
  202MOL0     N27186   5.435   8.021   1.822  0.3451  0.2780 -0.2845
  202MOL0     N27187   5.532   8.033   1.916  0.8859  0.6037 -0.2895
  202MOL0     C27188   5.936   8.959   2.504  0.9497  0.2099  0.2534
  202MOL0     C27189   6.060   9.027   2.520 -0.1419  0.3178  0.1750
  202MOL0     C27190   6.456   9.191   2.511  0.1633 -0.7675 -0.3275
  202MOL0     C27191   6.526   9.228   2.627 -0.5337  0.0949  0.9211
  202MOL0     C27192   6.637   9.313   2.622  0.0909  0.1222  0.1722
  202MOL0     C27193   6.663   9.384   2.501  1.3644 -0.4966 -0.1074
  202MOL0     O27194   6.757   9.492   2.495 -0.1760 -1.0546  0.2404
  202MOL0     C27195   6.804   9.542   2.620 -0.5766  0.2266 -0.1556
  202MOL0     C27196   6.910   9.642   2.592  0.5780  0.2236 -0.7036
  202MOL0     C27197   6.979   9.701   2.719 -0.5102  0.6307  0.0103
  202MOL0     C27198   7.087   9.797   2.695 -1.1140  0.2309 -0.1444
  202MOL0     C27199   7.225   9.756   2.660 -0.2447 -0.5553 -0.4731
  202MOL0     C27200   7.342   9.735   2.625 -0.4131 -0.7171 -0.0014
  202MOL0     C27201   6.594   9.349   2.384 -0.5758  0.2933 -0.1038
  202MOL0     C27202   6.486   9.258   2.391 -0.0119  0.2882  0.3542
  202MOL0     H27203   6.196   8.949   2.225 -1.3875  0.4051 -1.6935
  202MOL0     H27204   5.996   8.792   2.218 -0.0419 -0.4734 -0.6039
  202MOL0     H27205   5.814   8.717   2.597  1.6627  0.6109 -0.4820
  202MOL0     H27206   5.699   8.829   2.582  3.2697  2.3558  0.6967
  202MOL0     H27207   5.610   8.621   2.596  1.6585 -2.7972 -0.0757
  202MOL0     H27208   5.553   8.680   2.440 -0.2219 -1.6510 -0.1686
  202MOL0     H27209   5.782   8.546   2.358  1.8155 -0.9776  0.1302
  202MOL0     H27210   5.751   8.467   2.510  2.8201 -1.3268 -1.9467
  202MOL0     H27211   5.520   8.420   2.445 -1.2923  1.0554 -0.6101
  202MOL0     H27212   5.541   8.478   2.282  1.3150  0.0246 -0.5645
  202MOL0     H27213   5.732   8.323   2.250 -0.5339  2.6651 -0.4552
  202MOL0     H27214   5.713   8.266   2.417  3.8427  0.7549 -2.5227
  202MOL0     H27215   5.490   8.180   2.376  1.4931  0.9380  1.5210
  202MOL0     H27216   5.490   8.246   2.211  0.3404 -0.3797  0.3891
  202MOL0     H27217   5.705   8.104   2.178 -0.4803  0.0916 -0.3875
  202MOL0     H27218   5.669   8.026   2.327 -1.7285 -4.0967 -0.8956
  202MOL0     H27219   5.435   7.957   2.228 -2.4575  0.3197 -2.8773
  202MOL0     H27220   5.569   7.889   2.151 -3.0354 -1.8261  1.3003
  202MOL0     H27221   5.251   8.005   2.093  0.2358  1.3889 -0.3427
  202MOL0     H27222   5.196   7.986   1.718  0.9067 -0.8681 -0.2691
  202MOL0     H27223   5.156   7.868   1.849  2.4010 -0.2311  0.8258
  202MOL0     H27224   5.084   8.160   1.895  2.0419  0.7095  1.3605
  202MOL0     H27225   5.062   8.017   1.998  2.1102 -1.1897 -0.4352
  202MOL0     H27226   4.907   7.910   1.866 -1.8666 -0.8392 -3.2176
  202MOL0     H27227   4.928   8.034   1.739  1.5094  2.7220  0.0421
  202MOL0     H27228   4.824   8.073   2.017 -0.4892  1.5848  0.0581
  202MOL0     H27229   4.715   8.043   1.881 -0.4062  1.1970 -0.1790
  202MOL0     H27230   4.627   8.152   2.066 -1.0850  0.3123  1.8364
  202MOL0     H27231   4.460   8.201   2.207  0.9903  2.7201  1.1742
  202MOL0     H27232   4.354   8.316   2.184  1.2457 -0.0257  0.9780
  202MOL0     H27233   4.311   8.163   2.108 -0.4792 -0.0561 -2.4673
  202MOL0     H27234   4.226   8.716   1.648 -0.8896  1.3312 -0.7022
  202MOL0     H27235   4.092   8.898   1.636  0.1463 -3.6186 -2.4791
  202MOL0     H27236   3.844   9.152   1.792  2.2446  0.8553  0.0021
  202MOL0     H27237   3.972   9.077   1.693  0.3578  1.9628 -0.0194
  202MOL0     H27238   3.828   9.061   1.552 -2.2113  1.8020  0.8855
  202MOL0     H27239   3.813   8.896   1.632  0.4099 -0.2699  0.5157
  202MOL0     H27240   3.639   9.137   1.690 -0.7765 -0.1493  0.3402
  202MOL0     H27241   3.595   8.962   1.712 -0.4198  0.1600  0.5507
  202MOL0     H27242   3.612   9.120   1.451  1.1791 -0.7625  0.8067
  202MOL0     H27243   3.598   8.940   1.462  0.0068 -0.2693 -2.1212
  202MOL0     H27244   3.399   9.145   1.534 -0.3471 -0.2863  1.0069
  202MOL0     H27245   3.393   8.978   1.593  2.1154 -2.4845 -0.5027
  202MOL0     H27246   3.384   9.075   1.305  1.0962  0.7217  0.3293
  202MOL0     H27247   3.382   8.901   1.349 -2.7612 -1.0175 -1.3743
  202MOL0     H27248   3.185   9.111   1.410 -1.7720  1.2894  0.1957
  202MOL0     H27249   3.162   8.953   1.478 -0.5973 -0.1473 -0.1975
  202MOL0     H27250   3.165   8.999   1.178  0.4126  0.5570  0.7418
  202MOL0     H27251   3.022   9.003   1.286  1.9999  3.8067  2.0513
  202MOL0     H27252   3.899   8.784   2.021 -0.8663 -2.0554  0.1793
  202MOL0     H27253   4.071   8.596   2.033  2.1875 -0.7569 -0.2593
  202MOL0     H27254   4.474   8.500   1.742 -1.1149 -0.5024  0.6981
  202MOL0     H27255   4.690   8.409   1.714  0.3018 -0.4244  1.2060
  202MOL0     H27256   5.854   8.974   2.573 -0.3607 -1.6753 -0.8144
  202MOL0     H27257   6.068   9.097   2.602 -0.5731  0.7928 -0.1783
  202MOL0     H27258   6.496   9.191   2.724 -0.2999  1.3088  1.4730
  202MOL0     H27259   6.676   9.336   2.721 -1.1221  1.6524  0.3269
  202MOL0     H27260   6.721   9.573   2.683  0.9534 -2.3636  3.5002
  202MOL0     H27261   6.852   9.461   2.676  0.4626  0.5879 -0.4892
  202MOL0     H27262   6.862   9.728   2.545 -2.7903 -2.2095 -2.0765
  202MOL0     H27263   6.987   9.600   2.527 -0.5212  0.2377 -2.0524
  202MOL0     H27264   7.005   9.622   2.790 -1.4180  0.0507 -0.2829
  202MOL0     H27265   6.916   9.776   2.769  1.7247  2.5504  0.1209
  202MOL0     H27266   7.083   9.870   2.777 -2.6859 -0.9890  0.9219
  202MOL0     H27267   7.048   9.854   2.611  0.0411 -0.2952 -1.0616
  202MOL0     H27268   7.446   9.717   2.606 -0.9211 -1.7292 -2.0628
  202MOL0     H27269   6.611   9.400   2.290 -0.9702 -0.7245 -0.7442
  202MOL0     H27270   6.422   9.235   2.307 -2.2561 -2.5749  2.6124
  203MOL0     O27271   1.374   8.931   0.990  0.0210  0.1387  0.4795
  203MOL0     C27272   1.399   8.950   1.108  0.2837  0.1612  0.4889
  203MOL0     O27273   1.307   8.942   1.208  1.1132  0.2947 -0.7251
  203MOL0     C27274   1.183   8.903   1.177 -1.3995  0.5884 -0.2367
  203MOL0     C27275   1.152   8.774   1.216 -0.3246  0.3951 -0.1051
  203MOL0     C27276   1.024   8.723   1.202 -0.7507 -0.5831  0.2689
  203MOL0     C27277   0.917   8.814   1.157 -0.7552  1.0496  0.0968
  203MOL0     O27278   0.781   8.770   1.159 -0.1929 -0.0330  0.2058
  203MOL0     C27279   0.736   8.649   1.094 -0.4407  0.5408  0.3742
  203MOL0     C27280   0.592   8.680   1.048 -0.0940 -0.0244  0.5129
  203MOL0     C27281   0.590   8.774   0.923  0.6294  0.1207  0.3250
  203MOL0     C27282   0.459   8.778   0.850 -0.4969 -0.1440  0.3204
  203MOL0     C27283   0.403   8.647   0.796  0.7808 -0.0514  0.2804
  203MOL0     C27284   0.477   8.588   0.681  0.0517  0.0224  0.0304
  203MOL0     C27285   0.428   8.455   0.609 -0.2428  0.0064 -0.5319
  203MOL0     C27286   0.398   8.340   0.701  0.7038 -1.1409 -1.3106
  203MOL0     N27287   0.496   8.322   0.806  0.1086 -0.1411 -0.5653
  203MOL0     C27288   0.636   8.313   0.776  0.1672 -0.1631 -0.2938
  203MOL0     C27289   0.686   8.296   0.902 -0.3413  0.2311 -0.0711
  203MOL0     C27290   0.832   8.292   0.924 -0.3844 -0.0546 -0.6314
  203MOL0     C27291   0.891   8.160   0.892  0.9418 -0.7731  0.4181
  203MOL0     C27292   1.045   8.165   0.901 -0.4902  0.9450  1.0839
  203MOL0     C27293   1.106   8.196   1.038  0.2250 -0.7851  0.0587
  203MOL0     O27294   1.100   8.331   1.077  0.0645 -0.0058 -0.2617
  203MOL0     C27295   1.210   8.392   1.138  0.2288 -0.1684  0.2791
  203MOL0     C27296   1.275   8.488   1.057 -0.5273  0.4417 -0.0396
  203MOL0     C27297   1.389   8.547   1.105  0.4946 -0.7496 -0.4207
  203MOL0     C27298   1.470   8.618   1.005 -0.2106  0.2085 -0.7737
  203MOL0     C27299   1.419   8.537   1.244  0.3772  0.2578  0.5202
  203MOL0     C27300   1.535   8.610   1.307 -0.1745 -0.1442  0.2372
  203MOL0     O27301   1.663   8.617   1.251 -0.0432  0.0170  0.0035
  203MOL0     C27302   1.775   8.654   1.317 -0.3987  0.9727 -0.5058
  203MOL0     C27303   1.807   8.605   1.444  0.0857 -0.2483  1.4819
  203MOL0     C27304   1.928   8.650   1.504  0.9932 -0.8098  0.7603
  203MOL0     C27305   2.023   8.728   1.434  0.6466 -0.1251 -0.5434
  203MOL0     O27306   2.147   8.772   1.483  1.0041 -0.1937 -0.3766
  203MOL0     C27307   2.218   8.705   1.589 -0.2552 -0.2593 -0.4014
  203MOL0     C27308   2.339   8.786   1.622  0.8384 -0.5001 -0.1062
  203MOL0     C27309   2.440   8.753   1.515 -0.5607  1.2467  1.1194
  203MOL0     C27310   2.578   8.829   1.538  0.8782 -0.2183  0.2176
  203MOL0     C27311   2.692   8.813   1.431 -0.2258 -0.2090  0.4100
  203MOL0     C27312   2.656   8.846   1.283  1.0866  0.4619  0.0040
  203MOL0     C27313   2.763   8.793   1.182 -1.0917 -0.6181 -1.1299
  203MOL0     C27314   2.726   8.835   1.041 -0.5621  0.3628  0.3046
  203MOL0    Cl27315   2.583   8.742   0.980 -0.1797 -0.4694 -0.1640
  203MOL0     C27316   1.993   8.768   1.308  0.2475 -0.2776 -0.2902
  203MOL0     C27317   1.869   8.733   1.251 -0.0297  0.1222  0.0107
  203MOL0     O27318   1.514   8.633   1.427 -0.0209  0.4163 -0.4611
  203MOL0     C27319   1.331   8.462   1.320  0.0075  0.3640 -0.3660
  203MOL0     C27320   1.234   8.378   1.271 -1.1156 -0.6151 -0.3809
  203MOL0     N27321   0.583   8.283   1.004  0.7063 -0.2012  0.0742
  203MOL0     N27322   0.467   8.298   0.937  0.8909 -0.0974 -0.9419
  203MOL0     C27323   0.955   8.945   1.113  0.8821 -0.7141 -0.3273
  203MOL0     C27324   1.089   8.988   1.116 -0.6106  0.9423  0.1959
  203MOL0     C27325   1.532   8.985   1.150 -0.3136  0.2857 -0.3512
  203MOL0     C27326   1.561   9.000   1.291 -1.2413  0.1635  0.4876
  203MOL0     C27327   1.688   9.031   1.331 -0.4896  0.1264  0.1781
  203MOL0     C27328   1.789   9.063   1.238  0.5142 -0.0688 -0.2705
  203MOL0     O27329   1.920   9.089   1.259  0.4138 -0.0892 -0.1099
  203MOL0     C27330   1.971   9.116   1.387  0.3933  0.1319  0.2109
  203MOL0     C27331   2.119   9.141   1.370 -0.1671  0.4171  0.4679
  203MOL0     C27332   2.133   9.278   1.285  0.8059 -0.0722 -1.1179
  203MOL0     C27333   2.276   9.305   1.237 -0.0492 -0.7600  0.3194
  203MOL0     C27334   2.385   9.251   1.325 -0.2133 -0.7050 -0.9804
  203MOL0     C27335   2.468   9.211   1.399 -1.6071  0.0799  0.1925
  203MOL0     C27336   1.761   9.022   1.102  0.2558 -0.1677  0.1746
  203MOL0     C27337   1.634   8.994   1.059 -0.9523 -0.2957 -0.8489
  203MOL0     H27338   1.231   8.712   1.258  0.1424  2.0938  1.6318
  203MOL0     H27339   0.992   8.623   1.228 -2.1475 -0.7589 -1.8608
  203MOL0     H27340   0.806   8.639   1.010  1.3766 -0.1514  1.8765
  203MOL0     H27341   0.734   8.565   1.164  2.9966 -0.9234 -1.0695
  203MOL0     H27342   0.558   8.581   1.015 -0.8203  0.1531  0.7165
  203MOL0     H27343   0.541   8.708   1.141 -1.7002  3.1443 -1.1928
  203MOL0     H27344   0.611   8.876   0.957  2.4122  1.2971 -3.6529
  203MOL0     H27345   0.676   8.744   0.861  0.1592  0.7034 -0.6271
  203MOL0     H27346   0.391   8.835   0.914 -2.0499 -1.0174 -0.4933
  203MOL0     H27347   0.480   8.849   0.769 -1.7802  0.6599  0.6558
  203MOL0     H27348   0.388   8.570   0.872 -0.0302  1.6240  1.9164
  203MOL0     H27349   0.299   8.671   0.772  0.8467  0.6488  0.6726
  203MOL0     H27350   0.489   8.658   0.598 -3.1652 -0.8262 -1.3328
  203MOL0     H27351   0.577   8.573   0.722 -0.7208  0.0203  2.0056
  203MOL0     H27352   0.324   8.456   0.576 -0.9001 -0.7148  1.3424
  203MOL0     H27353   0.506   8.420   0.540  3.4834 -3.5169  4.6640
  203MOL0     H27354   0.391   8.244   0.649  0.7738 -2.3803  0.8608
  203MOL0     H27355   0.298   8.358   0.744  0.6698  3.2005 -2.6880
  203MOL0     H27356   0.698   8.334   0.689 -1.4171 -0.2555 -1.4783
  203MOL0     H27357   0.888   8.366   0.865  1.5449  1.8988  3.2554
  203MOL0     H27358   0.863   8.322   1.025 -0.7889  0.2090 -0.5848
  203MOL0     H27359   0.851   8.132   0.794  1.0434  0.5143 -0.0151
  203MOL0     H27360   0.839   8.093   0.961 -0.2361 -0.9128 -0.5807
  203MOL0     H27361   1.084   8.226   0.818  1.9570 -2.2589 -0.3417
  203MOL0     H27362   1.077   8.063   0.877  0.6423  1.6639 -0.7051
  203MOL0     H27363   1.213   8.184   1.021  0.4863 -0.1713  1.1323
  203MOL0     H27364   1.077   8.122   1.113  1.3441 -0.1362  1.1778
  203MOL0     H27365   1.235   8.483   0.956 -0.0179 -1.2342 -0.1866
  203MOL0     H27366   1.394   8.680   0.957  0.7074  1.5956 -0.4859
  203MOL0     H27367   1.548   8.675   1.055  1.1171 -0.7240 -1.6856
  203MOL0     H27368   1.516   8.552   0.930  1.5543  0.2461  0.2189
  203MOL0     H27369   1.734   8.551   1.503 -0.1593 -0.1713  1.2491
  203MOL0     H27370   1.938   8.628   1.610 -3.1736 -2.6616  0.9714
  203MOL0     H27371   2.146   8.715   1.671  2.8261 -1.6291  2.7346
  203MOL0     H27372   2.246   8.600   1.575  1.7024  0.1818 -0.1408
  203MOL0     H27373   2.318   8.892   1.603 -0.8658 -0.9059 -0.5963
  203MOL0     H27374   2.378   8.770   1.723 -0.5674  1.1339  0.7532
  203MOL0     H27375   2.397   8.772   1.416 -0.1662  1.8795  1.0665
  203MOL0     H27376   2.453   8.645   1.510 -1.0931  1.1373  1.9002
  203MOL0     H27377   2.561   8.937   1.544  0.5635 -0.3671  3.8581
  203MOL0     H27378   2.612   8.793   1.636 -2.0667  2.4094  2.3936
  203MOL0     H27379   2.723   8.708   1.427  1.0826  0.1688 -3.8433
  203MOL0     H27380   2.774   8.880   1.460 -1.0625  2.7115 -3.2773
  203MOL0     H27381   2.564   8.787   1.269  0.7125  0.4817  1.9656
  203MOL0     H27382   2.639   8.953   1.274  0.0104  0.2346 -0.8987
  203MOL0     H27383   2.797   8.690   1.189  1.0234  0.1275  0.7393
  203MOL0     H27384   2.850   8.855   1.207 -1.7782 -0.1453  0.1810
  203MOL0     H27385   2.803   8.794   0.975 -0.8547 -2.4560  1.5660
  203MOL0     H27386   2.720   8.944   1.030 -0.4272  0.5331  1.7644
  203MOL0     H27387   2.054   8.843   1.258 -2.6659 -0.2673 -4.3584
  203MOL0     H27388   1.851   8.760   1.147 -1.2160 -0.7191 -0.0248
  203MOL0     H27389   1.347   8.449   1.426  0.3337 -2.7318 -0.7012
  203MOL0     H27390   1.168   8.327   1.340  0.2747  2.6669  3.7847
  203MOL0     H27391   0.881   9.014   1.075  1.2776 -0.7342 -1.1464
  203MOL0     H27392   1.123   9.082   1.072 -1.0822  0.1999 -1.8932
  203MOL0     H27393   1.486   8.993   1.370 -1.8404 -0.7540 -0.1375
  203MOL0     H27394   1.707   9.017   1.437  0.7831 -0.6587 -0.1359
  203MOL0     H27395   1.925   9.200   1.439  0.0891  0.9237 -1.2862
  203MOL0     H27396   1.952   9.026   1.445 -1.1805  1.4977  1.9152
  203MOL0     H27397   2.160   9.056   1.315 -2.4089 -0.2011 -0.3630
  203MOL0     H27398   2.171   9.157   1.465 -1.1438  1.1635  0.9014
  203MOL0     H27399   2.107   9.357   1.357 -4.6220 -3.0426  0.7900
  203MOL0     H27400   2.074   9.285   1.193 -1.6164 -3.0213  0.0245
  203MOL0     H27401   2.291   9.413   1.242 -3.4444 -0.2213  1.8870
  203MOL0     H27402   2.301   9.256   1.142  1.0238  0.0137  0.1875
  203MOL0     H27403   2.553   9.195   1.463 -1.2885 -1.0781 -0.4938
  203MOL0     H27404   1.838   9.031   1.026 -0.8682  1.7867 -0.8027
  203MOL0     H27405   1.629   8.981   0.952  4.1515  4.0529 -2.0172
  204MOL0     O27406   8.443  10.911   1.295 -0.0012 -0.0538 -0.1197
  204MOL0     C27407   8.475  10.792   1.324  0.0271 -0.4952  0.3990
  204MOL0     O27408   8.389  10.687   1.345 -0.1295 -0.5102 -0.5002
  204MOL0     C27409   8.253  10.706   1.326 -0.0571  1.4707  0.3934
  204MOL0     C27410   8.193  10.728   1.201  0.2014  0.0271  0.0776
  204MOL0     C27411   8.056  10.729   1.189 -0.2832 -0.3347 -0.6770
  204MOL0     C27412   7.975  10.734   1.308  0.0786 -0.3162  1.0388
  204MOL0     O27413   7.841  10.722   1.306 -0.0130 -0.0636  0.6489
  204MOL0     C27414   7.785  10.639   1.220  0.5811  1.1031 -0.2700
  204MOL0     C27415   7.729  10.515   1.287  0.8758  0.0910  0.3145
  204MOL0     C27416   7.840  10.418   1.330  0.0533  0.0924  0.9600
  204MOL0     C27417   7.806  10.273   1.287  1.0012 -0.4815 -0.1977
  204MOL0     C27418   7.918  10.186   1.348  0.2983 -0.7513  0.2751
  204MOL0     C27419   7.861  10.048   1.375 -0.0558 -0.2769  0.3347
  204MOL0     C27420   7.952   9.931   1.432 -0.1633  0.7964  0.8410
  204MOL0     C27421   8.071   9.978   1.520 -0.2878  0.8114 -0.4546
  204MOL0     N27422   8.162   9.866   1.567  0.6701  0.6320  0.5290
  204MOL0     C27423   8.198   9.761   1.486 -0.7955  0.0111 -0.0838
  204MOL0     C27424   8.296   9.707   1.568 -0.2480  0.5263  0.8360
  204MOL0     C27425   8.381   9.577   1.541  0.2802 -1.1115 -0.5190
  204MOL0     C27426   8.528   9.586   1.591  0.3087 -0.7235  0.3782
  204MOL0     C27427   8.603   9.448   1.569 -0.2056 -1.3865 -0.7433
  204MOL0     C27428   8.741   9.434   1.630 -0.0635  0.4290 -0.0776
  204MOL0     O27429   8.808   9.328   1.565  0.5305  0.0771 -0.3159
  204MOL0     C27430   8.944   9.312   1.576 -0.3105  1.2026 -0.1936
  204MOL0     C27431   9.041   9.399   1.631 -0.4063  0.3531 -0.4438
  204MOL0     C27432   9.183   9.382   1.624  0.1528  1.0289 -0.4617
  204MOL0     C27433   9.269   9.488   1.690 -0.4774 -0.5606  0.0416
  204MOL0     C27434   9.232   9.263   1.572  0.1492  0.3290  0.5135
  204MOL0     C27435   9.381   9.233   1.560 -0.0328 -0.7972  0.4716
  204MOL0     O27436   9.412   9.132   1.476 -0.2018 -0.7523 -0.2144
  204MOL0     C27437   9.535   9.085   1.445  0.7231 -0.3897  0.0440
  204MOL0     C27438   9.549   8.954   1.404  0.1285 -0.6288  0.0584
  204MOL0     C27439   9.675   8.897   1.373  0.3204 -0.1310  0.1998
  204MOL0     C27440   9.792   8.976   1.377  0.2252 -0.2737 -0.2567
  204MOL0     O27441   9.918   8.934   1.337  0.2287  0.1738 -0.2694
  204MOL0     C27442   9.937   8.791   1.325  0.3005 -0.1049  0.6892
  204MOL0     C27443  10.081   8.761   1.334  0.0120  0.4993  1.1782
  204MOL0     C27444  10.124   8.768   1.483  0.0453 -0.7676  0.4658
  204MOL0     C27445  10.264   8.720   1.507 -0.0092 -0.6151 -0.2269
  204MOL0     C27446  10.291   8.703   1.653 -0.2710 -0.1848 -0.3968
  204MOL0     C27447  10.439   8.681   1.686  0.5183  0.2018 -0.1872
  204MOL0     C27448  10.496   8.541   1.692  0.0481  0.4813 -0.2161
  204MOL0     C27449  10.649   8.554   1.701 -0.5811  0.9956  1.4605
  204MOL0    Cl27450  10.713   8.385   1.707  0.1084  0.1675 -0.4075
  204MOL0     C27451   9.770   9.116   1.400 -0.8542  1.2933  0.2788
  204MOL0     C27452   9.650   9.172   1.436  0.2418  0.2478  0.2998
  204MOL0     O27453   9.461   9.290   1.623  0.0875  0.3416  0.4723
  204MOL0     C27454   9.135   9.172   1.519 -0.0156 -0.2535 -0.2069
  204MOL0     C27455   8.999   9.194   1.518 -0.4569  0.9165  0.3493
  204MOL0     N27456   8.324   9.784   1.674 -0.3774  0.4348 -0.1520
  204MOL0     N27457   8.232   9.871   1.682 -0.1269 -0.8651 -0.1391
  204MOL0     C27458   8.039  10.747   1.432 -0.3299  0.5027 -0.0089
  204MOL0     C27459   8.177  10.726   1.442  0.4949  0.4810 -0.0363
  204MOL0     C27460   8.621  10.762   1.342 -0.3043  0.6866 -0.3425
  204MOL0     C27461   8.715  10.855   1.298  0.5499 -0.1313 -0.2628
  204MOL0     C27462   8.854  10.831   1.316  0.8287 -0.5386 -0.0194
  204MOL0     C27463   8.902  10.703   1.364 -0.8403  0.0604 -0.2862
  204MOL0     O27464   9.041  10.678   1.350  0.9306 -0.4120 -0.0264
  204MOL0     C27465   9.100  10.564   1.414 -0.5930 -0.2081  0.3375
  204MOL0     C27466   9.114  10.588   1.563 -0.6898  1.0315  0.1412
  204MOL0     C27467   9.120  10.452   1.627  0.5235 -0.2614 -0.4929
  204MOL0     C27468   9.095  10.469   1.775  0.3209 -0.6840 -0.6803
  204MOL0     C27469   8.949  10.445   1.805 -0.1323  0.3171 -0.5028
  204MOL0     C27470   8.834  10.440   1.828  0.3067 -0.2801  0.4771
  204MOL0     C27471   8.808  10.614   1.412 -0.1701  0.0944  0.2236
  204MOL0     C27472   8.673  10.640   1.392 -0.8567  0.0639 -0.5628
  204MOL0     H27473   8.267  10.730   1.122  3.5692  0.7590  3.0170
  204MOL0     H27474   8.004  10.738   1.094  0.6506  1.4495 -1.0654
  204MOL0     H27475   7.695  10.691   1.183  0.3791  1.4787  0.7162
  204MOL0     H27476   7.841  10.607   1.132  1.4104  0.8906  0.3191
  204MOL0     H27477   7.682  10.531   1.384 -0.2674  1.3587 -0.4182
  204MOL0     H27478   7.662  10.454   1.225  1.9801 -1.5752  0.6898
  204MOL0     H27479   7.936  10.443   1.283 -1.5199  1.9249 -1.5804
  204MOL0     H27480   7.840  10.428   1.439 -1.2732  0.2152  0.9668
  204MOL0     H27481   7.708  10.242   1.325  0.3876  0.7199 -0.7557
  204MOL0     H27482   7.803  10.267   1.177 -0.6875 -1.8759 -0.1286
  204MOL0     H27483   8.009  10.180   1.287 -0.6118  3.2579 -1.8700
  204MOL0     H27484   7.954  10.226   1.443 -3.2163 -0.3631  1.5736
  204MOL0     H27485   7.781  10.062   1.448 -0.9723 -0.6903 -0.5517
  204MOL0     H27486   7.818  10.004   1.284  1.5531 -0.2683 -0.4597
  204MOL0     H27487   7.888   9.857   1.482 -0.2123  1.5616  1.9461
  204MOL0     H27488   7.986   9.873   1.346 -0.3384  0.5696  0.9219
  204MOL0     H27489   8.033  10.030   1.608  0.8892  0.8394  0.0639
  204MOL0     H27490   8.129  10.051   1.462  2.5295 -0.7024  0.2355
  204MOL0     H27491   8.157   9.716   1.396 -5.9574 -0.3349  2.0890
  204MOL0     H27492   8.324   9.496   1.589 -1.3301  0.3461  0.1334
  204MOL0     H27493   8.366   9.561   1.434 -3.4044  0.9036 -0.4476
  204MOL0     H27494   8.533   9.610   1.698 -2.5131  0.1014  0.4036
  204MOL0     H27495   8.581   9.661   1.531 -1.4190  1.2547  1.2025
  204MOL0     H27496   8.609   9.442   1.459 -0.6250 -1.4406 -0.7642
  204MOL0     H27497   8.543   9.362   1.601 -2.4544 -0.0603 -1.1335
  204MOL0     H27498   8.737   9.414   1.738  0.3489  4.4609  0.8542
  204MOL0     H27499   8.796   9.527   1.610  0.1993 -0.0955 -1.8991
  204MOL0     H27500   9.011   9.491   1.680 -0.8013 -1.3996  2.9060
  204MOL0     H27501   9.312   9.454   1.785  2.1379 -0.6077 -1.0621
  204MOL0     H27502   9.346   9.522   1.620  0.5782  0.4772  1.6422
  204MOL0     H27503   9.216   9.579   1.717  0.6858  0.2564 -0.3332
  204MOL0     H27504   9.456   8.898   1.399 -0.6149  0.3821  1.6949
  204MOL0     H27505   9.682   8.792   1.347  1.8868 -0.1570  0.5999
  204MOL0     H27506   9.876   8.731   1.393 -0.9960  0.0783 -0.2759
  204MOL0     H27507   9.895   8.759   1.230 -0.4333  0.6515  0.7456
  204MOL0     H27508  10.105   8.666   1.285  1.5312  0.3028  2.2051
  204MOL0     H27509  10.135   8.822   1.261  1.8791 -1.1465  1.1016
  204MOL0     H27510  10.049   8.723   1.548 -0.0181 -0.6035  0.5062
  204MOL0     H27511  10.128   8.876   1.501  1.2349 -0.4964 -1.1275
  204MOL0     H27512  10.289   8.631   1.449  0.8660 -0.0169 -0.7897
  204MOL0     H27513  10.335   8.794   1.470  2.4758 -0.4414  4.1026
  204MOL0     H27514  10.236   8.618   1.694 -0.4531 -0.2637 -0.7997
  204MOL0     H27515  10.258   8.795   1.703  1.9925  1.2415 -1.3280
  204MOL0     H27516  10.505   8.723   1.610  3.5197 -2.9272  0.4848
  204MOL0     H27517  10.459   8.740   1.775 -0.3941  0.3890 -0.0958
  204MOL0     H27518  10.461   8.494   1.599  0.9359  3.6041 -2.2997
  204MOL0     H27519  10.452   8.487   1.776 -1.2859 -1.4225 -2.0203
  204MOL0     H27520  10.675   8.604   1.795 -0.7063  0.5608  1.7286
  204MOL0     H27521  10.697   8.606   1.617  0.2764 -0.9764  0.6820
  204MOL0     H27522   9.852   9.187   1.397  0.3096 -0.0331 -1.8904
  204MOL0     H27523   9.644   9.280   1.449 -0.3734  0.0891  1.4654
  204MOL0     H27524   9.163   9.085   1.461  0.1592  0.2270 -0.8580
  204MOL0     H27525   8.934   9.124   1.467  0.4412  0.3808 -0.0815
  204MOL0     H27526   7.974  10.749   1.519 -1.9324  2.8551 -1.1671
  204MOL0     H27527   8.216  10.717   1.543 -1.4042 -2.7801  0.5563
  204MOL0     H27528   8.678  10.947   1.254  1.3736 -0.8412 -2.5599
  204MOL0     H27529   8.913  10.909   1.270  0.5533  1.3087  2.5714
  204MOL0     H27530   9.049  10.468   1.401 -1.2761  0.2943 -0.8076
  204MOL0     H27531   9.197  10.545   1.367 -0.9118 -4.0838  0.9192
  204MOL0     H27532   9.031  10.644   1.608  0.3584  1.9373  0.9855
  204MOL0     H27533   9.211  10.633   1.583  0.1200  0.4767 -2.1845
  204MOL0     H27534   9.223  10.425   1.602  0.6152  1.5071 -2.1833
  204MOL0     H27535   9.038  10.392   1.586 -0.9595  0.3770  1.3588
  204MOL0     H27536   9.140  10.562   1.810  1.5694 -1.3341 -0.4700
  204MOL0     H27537   9.145  10.387   1.830 -2.1559 -0.8268  1.5503
  204MOL0     H27538   8.729  10.436   1.850 -0.1644  1.4198 -1.1682
  204MOL0     H27539   8.841  10.522   1.460 -1.3344  0.4495  1.7601
  204MOL0     H27540   8.597  10.576   1.436 -0.0897 -0.1664  0.4627
  205MOL0     O27541   0.180  10.533   5.733 -0.0663  1.1157 -0.8419
  205MOL0     C27542   0.223  10.578   5.628 -0.7823  0.0814  0.5736
  205MOL0     O27543   0.160  10.660   5.543 -0.1672 -0.0110 -0.4220
  205MOL0     C27544   0.043  10.712   5.571  0.5431  0.4485 -0.1115
  205MOL0     C27545   0.002  10.764   5.686  0.4696 -0.3957 -0.8004
  205MOL0     C27546  -0.129  10.818   5.705 -0.1297 -0.6545  0.3615
  205MOL0     C27547  -0.219  10.809   5.591 -0.0372  0.3443  0.0939
  205MOL0     O27548  -0.349  10.852   5.594  0.0817 -0.0797 -0.2763
  205MOL0     C27549  -0.362  10.967   5.526  0.0658 -0.0516  0.2405
  205MOL0     C27550  -0.327  11.091   5.611 -0.1683  0.3648  0.8352
  205MOL0     C27551  -0.385  11.223   5.558  1.1665  0.6094  0.7262
  205MOL0     C27552  -0.334  11.324   5.666  0.5934 -0.1620 -0.1486
  205MOL0     C27553  -0.379  11.477   5.641 -0.5652  0.1059 -0.3617
  205MOL0     C27554  -0.278  11.561   5.715  0.0761  0.9231 -0.0875
  205MOL0     C27555  -0.333  11.711   5.711  0.0123  0.8256 -0.4061
  205MOL0     C27556  -0.253  11.802   5.809 -0.4334 -0.1388  0.4429
  205MOL0     N27557  -0.314  11.929   5.812 -0.4142  0.3556  0.5669
  205MOL0     C27558  -0.383  11.961   5.928 -0.5136  0.1966  0.0522
  205MOL0     C27559  -0.409  12.099   5.916  1.3242  0.2868  0.4028
  205MOL0     C27560  -0.491  12.187   6.004 -0.0205  0.0670  0.0432
  205MOL0     C27561  -0.419  12.318   6.029 -0.8412  0.0945 -1.5159
  205MOL0     C27562  -0.487  12.436   6.112  0.3820 -0.1147  0.6314
  205MOL0     C27563  -0.620  12.480   6.060  0.0523 -0.2653 -0.4256
  205MOL0     O27564  -0.728  12.408   6.113 -0.3208  0.4580  0.4405
  205MOL0     C27565  -0.823  12.492   6.146 -0.0788  0.2274 -0.5093
  205MOL0     C27566  -0.917  12.524   6.053 -0.9355  0.2569  0.2468
  205MOL0     C27567  -1.026  12.606   6.076  0.1501  0.4635  0.2034
  205MOL0     C27568  -1.119  12.624   5.963 -0.0548  0.0061  1.1428
  205MOL0     C27569  -1.038  12.663   6.205 -0.0283 -0.0034  0.1333
  205MOL0     C27570  -1.157  12.758   6.235  0.8615  0.6792  0.3428
  205MOL0     O27571  -1.202  12.756   6.366  0.5385  0.4256  0.0209
  205MOL0     C27572  -1.268  12.859   6.420  0.4677 -0.6075  0.1730
  205MOL0     C27573  -1.402  12.840   6.453  0.7025  1.0442 -0.3913
  205MOL0     C27574  -1.474  12.939   6.519 -0.6310  0.0464 -0.1493
  205MOL0     C27575  -1.413  13.058   6.564 -0.7222  0.4627 -0.1626
  205MOL0     O27576  -1.488  13.130   6.648  0.7203  0.1074  0.2989
  205MOL0     C27577  -1.462  13.275   6.667 -0.5495  1.1389 -0.3093
  205MOL0     C27578  -1.592  13.351   6.701 -0.3052  0.3115 -0.4875
  205MOL0     C27579  -1.705  13.331   6.596 -0.5950 -0.0287  0.2698
  205MOL0     C27580  -1.832  13.397   6.639  0.3079 -0.2404  1.1589
  205MOL0     C27581  -1.926  13.425   6.507  0.4294  0.1831 -0.5012
  205MOL0     C27582  -1.969  13.294   6.438 -0.4338  0.3931  0.5452
  205MOL0     C27583  -2.066  13.211   6.523 -0.2480  0.2215 -0.2900
  205MOL0     C27584  -2.149  13.108   6.444 -0.5809 -0.2527  0.7336
  205MOL0    Cl27585  -2.292  13.055   6.543  0.2825  0.0167 -0.3537
  205MOL0     C27586  -1.278  13.081   6.522  0.4046 -0.7548  0.0022
  205MOL0     C27587  -1.209  12.977   6.455  0.1658  0.1434  0.3797
  205MOL0     O27588  -1.203  12.834   6.149  0.4215 -0.2327 -0.4662
  205MOL0     C27589  -0.937  12.637   6.296 -0.4115 -0.0345 -0.3810
  205MOL0     C27590  -0.833  12.547   6.271 -0.2266  0.1606 -0.4931
  205MOL0     N27591  -0.357  12.139   5.793 -0.5853 -0.1176  0.2561
  205MOL0     N27592  -0.308  12.032   5.727 -0.2269 -0.2305 -0.3479
  205MOL0     C27593  -0.181  10.758   5.475  0.4055 -0.3909  0.6527
  205MOL0     C27594  -0.044  10.725   5.459  0.8930 -0.6908  0.4787
  205MOL0     C27595   0.363  10.556   5.595  0.1593  0.6246 -0.4878
  205MOL0     C27596   0.427  10.661   5.532  0.1586  0.6884  0.0907
  205MOL0     C27597   0.567  10.661   5.518 -1.2039  0.5713  0.0707
  205MOL0     C27598   0.640  10.571   5.589 -0.4341 -0.6895  0.3886
  205MOL0     O27599   0.774  10.582   5.578  0.5408 -0.2368 -0.2235
  205MOL0     C27600   0.863  10.480   5.633  0.4009  0.1267  0.0504
  205MOL0     C27601   1.015  10.506   5.604 -0.7603 -0.1219  0.7882
  205MOL0     C27602   1.044  10.591   5.481 -0.2177 -0.0671 -0.3907
  205MOL0     C27603   1.195  10.608   5.455  0.0550  0.6098 -0.8221
  205MOL0     C27604   1.270  10.488   5.415 -0.3944 -0.1169 -0.1391
  205MOL0     C27605   1.338  10.394   5.382 -0.3565 -0.7889 -0.5230
  205MOL0     C27606   0.571  10.465   5.649 -0.1959 -0.2206  0.0902
  205MOL0     C27607   0.438  10.456   5.655  0.4376  0.5483 -0.5795
  205MOL0     H27608   0.066  10.765   5.774  0.3711  1.0297 -0.7101
  205MOL0     H27609  -0.156  10.875   5.793  1.9483  3.7379 -1.5604
  205MOL0     H27610  -0.298  10.964   5.437 -0.7458 -1.3483 -0.3229
  205MOL0     H27611  -0.464  10.969   5.487 -0.4652 -0.7562  1.5275
  205MOL0     H27612  -0.358  11.073   5.715  0.4099 -0.1852  0.9235
  205MOL0     H27613  -0.218  11.100   5.602 -0.4271  2.2528 -1.1225
  205MOL0     H27614  -0.349  11.257   5.460 -0.6552  2.7046  0.7099
  205MOL0     H27615  -0.494  11.219   5.547  1.2383 -0.8042  0.2119
  205MOL0     H27616  -0.375  11.299   5.764 -1.4706  1.2131 -0.5983
  205MOL0     H27617  -0.226  11.339   5.658  0.3230  1.9967 -0.2916
  205MOL0     H27618  -0.376  11.500   5.534 -2.2753  0.5825 -0.3283
  205MOL0     H27619  -0.478  11.496   5.682  0.4694  0.4463  2.1482
  205MOL0     H27620  -0.257  11.528   5.818  1.2653  1.0766 -0.2605
  205MOL0     H27621  -0.179  11.554   5.669 -0.3533  1.8209 -1.2122
  205MOL0     H27622  -0.320  11.744   5.607 -0.9486  0.1815 -0.7427
  205MOL0     H27623  -0.441  11.721   5.728  0.2555  2.2528  0.5374
  205MOL0     H27624  -0.151  11.808   5.771 -0.4636  0.4237  0.4465
  205MOL0     H27625  -0.236  11.758   5.907  1.1119  0.5494  0.4997
  205MOL0     H27626  -0.408  11.904   6.017 -2.9598  2.1301  0.7159
  205MOL0     H27627  -0.592  12.212   5.971 -0.2758 -1.1332 -0.1482
  205MOL0     H27628  -0.511  12.136   6.099  1.1104 -1.1882 -0.3585
  205MOL0     H27629  -0.391  12.363   5.934 -2.8890 -1.6724 -3.0444
  205MOL0     H27630  -0.330  12.299   6.090 -2.9224  1.3682  2.2367
  205MOL0     H27631  -0.417  12.520   6.106  0.4334  0.0657  2.8771
  205MOL0     H27632  -0.506  12.417   6.218 -1.9611  0.4375  0.3649
  205MOL0     H27633  -0.619  12.472   5.951  1.1615  3.2572 -0.8076
  205MOL0     H27634  -0.634  12.586   6.085 -1.7247 -0.5542 -0.0576
  205MOL0     H27635  -0.892  12.480   5.957  1.9717 -1.9860  1.8655
  205MOL0     H27636  -1.218  12.582   5.979 -0.1965  0.9865  3.2023
  205MOL0     H27637  -1.132  12.729   5.936  0.4190 -0.4000 -0.8321
  205MOL0     H27638  -1.088  12.575   5.870 -1.0796  1.3680  0.0253
  205MOL0     H27639  -1.435  12.741   6.425 -0.1165  1.2352 -0.1475
  205MOL0     H27640  -1.577  12.917   6.547 -1.6811  1.1505 -2.8436
  205MOL0     H27641  -1.398  13.289   6.755 -0.6776  1.9869 -0.3432
  205MOL0     H27642  -1.432  13.323   6.574 -1.3174 -2.3175 -2.5217
  205MOL0     H27643  -1.631  13.320   6.798  0.6620 -1.2847 -0.5779
  205MOL0     H27644  -1.569  13.457   6.716  4.3790  0.0603 -3.7673
  205MOL0     H27645  -1.715  13.224   6.574  3.4464 -0.5751  0.3923
  205MOL0     H27646  -1.661  13.373   6.506 -0.2964 -0.4807  0.2006
  205MOL0     H27647  -1.897  13.340   6.706 -3.9663  1.4215 -1.1467
  205MOL0     H27648  -1.814  13.499   6.675 -0.1668  1.8322 -3.7579
  205MOL0     H27649  -1.875  13.490   6.436  0.0731  0.9299 -0.0825
  205MOL0     H27650  -2.008  13.485   6.548  0.7481  0.3815 -0.1466
  205MOL0     H27651  -2.018  13.318   6.344  1.2148  1.0065 -0.1978
  205MOL0     H27652  -1.884  13.237   6.398  0.0885  1.6638 -0.1965
  205MOL0     H27653  -2.136  13.280   6.570 -0.6643  0.3255 -1.0473
  205MOL0     H27654  -2.001  13.150   6.587  1.0456 -1.6854 -3.1994
  205MOL0     H27655  -2.085  13.029   6.404  3.2567  3.1146 -0.4856
  205MOL0     H27656  -2.198  13.146   6.353 -1.5649  0.1061  1.3911
  205MOL0     H27657  -1.210  13.160   6.552 -0.7303  0.3557 -0.2620
  205MOL0     H27658  -1.109  12.987   6.412  0.0156  2.8020  0.4820
  205MOL0     H27659  -0.936  12.678   6.396 -0.2349 -2.0044  0.4747
  205MOL0     H27660  -0.764  12.522   6.352 -0.5979 -1.1881 -0.5737
  205MOL0     H27661  -0.256  10.747   5.397 -1.8589  0.7981  2.5339
  205MOL0     H27662  -0.016  10.697   5.359 -0.9158  4.2516 -1.7688
  205MOL0     H27663   0.367  10.747   5.503  0.5147  1.5409  1.7105
  205MOL0     H27664   0.611  10.747   5.469  1.6965 -2.0587 -2.3641
  205MOL0     H27665   0.849  10.476   5.741  0.9637 -3.5972  0.0907
  205MOL0     H27666   0.834  10.384   5.590 -2.0651  1.5487 -1.7303
  205MOL0     H27667   1.051  10.406   5.581 -1.4459  0.2300 -2.1796
  205MOL0     H27668   1.060  10.552   5.692  1.3191 -2.3735  0.9966
  205MOL0     H27669   0.993  10.688   5.482 -1.0965 -0.5122  0.5555
  205MOL0     H27670   0.992  10.540   5.399 -2.4309  0.4908  0.5735
  205MOL0     H27671   1.235  10.660   5.543 -0.6123  2.0909 -1.3693
  205MOL0     H27672   1.199  10.684   5.377  0.5062 -0.0870 -1.4898
  205MOL0     H27673   1.393  10.309   5.347  1.2979  0.7638 -1.9337
  205MOL0     H27674   0.619  10.375   5.685 -1.2034 -1.0910 -0.6629
  205MOL0     H27675   0.396  10.368   5.702  3.5893 -2.4636 -2.8773
  206MOL0     O27676  11.000   6.594   2.280 -0.6380 -0.3709 -0.2333
  206MOL0     C27677  10.956   6.703   2.262  0.2452  0.5053 -0.2093
  206MOL0     O27678  10.991   6.818   2.327  1.0279 -0.5368 -0.1439
  206MOL0     C27679  11.098   6.842   2.415  0.4687  0.3182  0.5253
  206MOL0     C27680  11.182   6.745   2.482 -0.0417 -0.0514 -0.1391
  206MOL0     C27681  11.283   6.785   2.573  0.2967  0.1367 -0.4745
  206MOL0     C27682  11.306   6.919   2.599 -0.3462  0.0373  0.1876
  206MOL0     O27683  11.409   6.951   2.680  0.2608 -0.4263 -0.8042
  206MOL0     C27684  11.464   7.081   2.667  0.4021 -0.2717 -0.1824
  206MOL0     C27685  11.594   7.095   2.745  0.1051  1.2852 -0.6693
  206MOL0     C27686  11.715   7.009   2.715 -0.0782 -0.7256  0.1717
  206MOL0     C27687  11.817   7.012   2.832  0.6281  0.8470 -0.0285
  206MOL0     C27688  11.903   6.873   2.819  0.4717 -0.5934 -0.6172
  206MOL0     C27689  12.004   6.865   2.935  0.1405 -0.0515  0.8683
  206MOL0     C27690  12.118   6.971   2.928  0.3684  1.1122 -0.7616
  206MOL0     C27691  12.201   6.968   3.056 -0.3154  0.4642  0.9501
  206MOL0     N27692  12.132   7.009   3.175  0.2653  0.9951 -0.0878
  206MOL0     C27693  12.048   7.118   3.182 -0.8933  0.8974  0.1959
  206MOL0     C27694  12.001   7.116   3.304  1.0003 -0.0763  0.3647
  206MOL0     C27695  11.897   7.221   3.348  0.1455  0.1187  0.5640
  206MOL0     C27696  11.776   7.245   3.250  0.0290 -0.4418  0.9454
  206MOL0     C27697  11.674   7.125   3.249 -0.6720 -0.8725 -0.1980
  206MOL0     C27698  11.567   7.181   3.162  0.0238  0.3295 -0.1929
  206MOL0     O27699  11.463   7.083   3.162 -0.2947  0.6870  0.0056
  206MOL0     C27700  11.358   7.106   3.082  1.1267 -0.2856 -0.1137
  206MOL0     C27701  11.342   7.225   3.000  0.0989  0.6048 -0.9179
  206MOL0     C27702  11.227   7.250   2.926  0.2675  0.2067 -0.4920
  206MOL0     C27703  11.236   7.373   2.845  0.4756  0.9345 -0.5614
  206MOL0     C27704  11.117   7.152   2.934 -0.1609 -0.7463  0.9735
  206MOL0     C27705  10.989   7.168   2.863 -0.0367  0.0854 -0.5284
  206MOL0     O27706  10.919   7.055   2.831 -0.4685  0.1209 -0.1957
  206MOL0     C27707  10.805   7.070   2.759  1.1912  0.6252  0.1172
  206MOL0     C27708  10.675   7.059   2.812 -0.4945  0.8327 -0.2452
  206MOL0     C27709  10.567   7.073   2.726 -1.1280 -0.2574 -0.5712
  206MOL0     C27710  10.578   7.106   2.588  0.8674  0.3745 -0.3136
  206MOL0     O27711  10.458   7.116   2.523 -0.3171  0.4197  0.1048
  206MOL0     C27712  10.473   7.084   2.382  0.0624 -0.6215  0.2619
  206MOL0     C27713  10.335   7.034   2.327 -0.6512  1.1692 -0.2732
  206MOL0     C27714  10.224   7.135   2.302  0.1302 -0.0105  1.0885
  206MOL0     C27715  10.113   7.104   2.396  0.6387  0.3423  0.7837
  206MOL0     C27716   9.988   7.177   2.362  0.0938 -0.2479  0.4078
  206MOL0     C27717   9.868   7.090   2.317 -0.0978  0.4468  0.0495
  206MOL0     C27718   9.895   7.013   2.189 -1.1555  0.3315  0.3870
  206MOL0     C27719   9.777   6.992   2.096 -0.8727  0.5164  0.8140
  206MOL0    Cl27720   9.649   6.903   2.169  0.0409 -0.1317  0.0278
  206MOL0     C27721  10.707   7.104   2.535  0.0963 -0.0832  0.1756
  206MOL0     C27722  10.817   7.089   2.618 -0.4435 -0.3974 -0.2458
  206MOL0     O27723  10.948   7.281   2.835  0.2185  0.1089  0.3135
  206MOL0     C27724  11.138   7.037   3.008 -0.1417  0.0021  0.4072
  206MOL0     C27725  11.255   7.010   3.084 -0.1892  1.4669  0.4522
  206MOL0     N27726  12.051   7.009   3.376 -0.5558  0.1591  0.6063
  206MOL0     N27727  12.131   6.940   3.295  0.3163 -0.1948  0.1413
  206MOL0     C27728  11.221   7.011   2.541  1.2643 -0.2306  0.0341
  206MOL0     C27729  11.116   6.973   2.451 -0.4504 -0.2214 -0.9387
  206MOL0     C27730  10.832   6.709   2.190  0.4335  0.1846 -0.2140
  206MOL0     C27731  10.761   6.594   2.151  0.5216 -0.5375 -0.0334
  206MOL0     C27732  10.619   6.596   2.112 -0.3870  0.6372 -0.6216
  206MOL0     C27733  10.558   6.717   2.091  0.3212  0.1015  0.2714
  206MOL0     O27734  10.427   6.736   2.055  0.0659  0.0880 -0.2281
  206MOL0     C27735  10.355   6.618   2.002  0.6958 -0.6994 -0.0356
  206MOL0     C27736  10.210   6.666   1.995  0.2145 -0.6632 -0.2385
  206MOL0     C27737  10.112   6.583   1.907  0.0388  0.2937  0.4780
  206MOL0     C27738   9.966   6.634   1.904  0.1624  0.2082  0.6726
  206MOL0     C27739   9.918   6.638   2.040 -0.7562  0.3233  0.0322
  206MOL0     C27740   9.866   6.632   2.147  0.8261  0.3225 -1.0573
  206MOL0     C27741  10.623   6.828   2.137 -0.4742 -0.7514  0.1088
  206MOL0     C27742  10.755   6.829   2.179 -0.4982 -0.1539  0.4050
  206MOL0     H27743  11.176   6.641   2.453  2.3174  0.4368 -2.8533
  206MOL0     H27744  11.341   6.706   2.618  1.6782  2.6193  2.4610
  206MOL0     H27745  11.489   7.088   2.561  0.9319 -0.3976 -0.0656
  206MOL0     H27746  11.391   7.156   2.699  0.5756 -1.5631  3.8362
  206MOL0     H27747  11.629   7.199   2.752  1.3518  0.8329  0.2794
  206MOL0     H27748  11.568   7.062   2.846  0.9057 -0.0363 -0.8659
  206MOL0     H27749  11.675   6.911   2.688  0.3402 -0.1774 -2.7573
  206MOL0     H27750  11.750   7.059   2.624 -3.5157  0.8926 -0.3972
  206MOL0     H27751  11.881   7.100   2.831  2.0877 -0.0188  3.6378
  206MOL0     H27752  11.761   7.000   2.925 -1.3786  1.6045 -1.0666
  206MOL0     H27753  11.835   6.793   2.851  0.9508 -0.4905  0.7092
  206MOL0     H27754  11.935   6.859   2.715  0.5794  0.2556 -0.7074
  206MOL0     H27755  11.948   6.865   3.029 -0.8551 -0.8742  0.2954
  206MOL0     H27756  12.070   6.778   2.927  2.9988  1.9644  1.0046
  206MOL0     H27757  12.183   6.945   2.843 -1.9504 -1.9057 -1.8273
  206MOL0     H27758  12.080   7.072   2.913 -2.1219  0.7747  2.3877
  206MOL0     H27759  12.291   7.030   3.051 -0.6469  1.1565  2.7388
  206MOL0     H27760  12.237   6.865   3.062  0.3052  0.7657  3.5877
  206MOL0     H27761  12.018   7.190   3.107  2.9381  0.8055 -1.6530
  206MOL0     H27762  11.839   7.204   3.439  0.6210  1.3461  1.1258
  206MOL0     H27763  11.948   7.317   3.366  0.6414  0.4319 -2.1103
  206MOL0     H27764  11.810   7.240   3.146 -0.9733 -0.5542  0.6209
  206MOL0     H27765  11.726   7.341   3.267 -3.6712 -1.8792 -0.7206
  206MOL0     H27766  11.645   7.105   3.352 -0.3114  2.3076  0.6393
  206MOL0     H27767  11.707   7.034   3.199 -2.9361 -1.0800 -1.4282
  206MOL0     H27768  11.608   7.211   3.066 -3.1362  0.6600 -1.5518
  206MOL0     H27769  11.532   7.273   3.210 -2.7721 -1.3359  1.2437
  206MOL0     H27770  11.412   7.308   3.010 -1.4024  1.7555  0.6013
  206MOL0     H27771  11.236   7.334   2.743  1.2369 -0.5260 -0.0395
  206MOL0     H27772  11.147   7.435   2.857 -0.5261 -0.4174 -0.7890
  206MOL0     H27773  11.326   7.426   2.880 -1.1085  2.3731  1.6226
  206MOL0     H27774  10.666   7.033   2.917 -0.0150  0.7665 -0.2190
  206MOL0     H27775  10.468   7.080   2.771 -0.8863 -1.3472  0.1788
  206MOL0     H27776  10.497   7.178   2.331  1.6376 -1.7397 -1.1809
  206MOL0     H27777  10.554   7.013   2.364  0.9676  0.7123 -1.2743
  206MOL0     H27778  10.357   6.979   2.234  3.1518  0.1545  1.0156
  206MOL0     H27779  10.310   6.957   2.401  0.8502  1.5984  0.7460
  206MOL0     H27780  10.194   7.130   2.197  3.5765 -0.4798  0.0027
  206MOL0     H27781  10.254   7.238   2.321  0.4918 -0.2577  1.9000
  206MOL0     H27782  10.091   6.996   2.401  0.2295  0.3285 -0.7562
  206MOL0     H27783  10.159   7.122   2.493 -1.6650 -1.2629  2.2849
  206MOL0     H27784  10.010   7.260   2.295 -2.7996 -0.7213 -1.2993
  206MOL0     H27785   9.944   7.228   2.449 -1.2496 -0.9178  0.1566
  206MOL0     H27786   9.848   7.015   2.395 -1.5587 -1.0621 -1.6758
  206MOL0     H27787   9.778   7.151   2.304 -0.3425  0.4449  1.5335
  206MOL0     H27788   9.940   6.918   2.222  0.6518  1.5049  1.4507
  206MOL0     H27789   9.971   7.066   2.131 -0.3042 -1.5657 -0.3343
  206MOL0     H27790   9.815   6.937   2.009  2.0596  0.5426  1.9725
  206MOL0     H27791   9.738   7.090   2.066 -0.2184  0.7431  0.6837
  206MOL0     H27792  10.730   7.126   2.431 -0.1714  0.6131  0.2561
  206MOL0     H27793  10.915   7.084   2.572  0.0393 -0.5976  0.7712
  206MOL0     H27794  11.059   6.963   3.011 -0.2438 -0.0472 -2.0771
  206MOL0     H27795  11.259   6.926   3.152  0.4348 -0.4275 -1.7815
  206MOL0     H27796  11.236   7.117   2.559 -0.9983 -0.0362  1.1762
  206MOL0     H27797  11.054   7.043   2.396 -1.5295 -2.2049 -2.3904
  206MOL0     H27798  10.814   6.500   2.158  0.8119 -0.3858 -0.1931
  206MOL0     H27799  10.582   6.495   2.097  2.9497 -0.4383 -2.5863
  206MOL0     H27800  10.396   6.602   1.902 -1.6712  0.2162 -1.2354
  206MOL0     H27801  10.360   6.530   2.068 -0.7692  1.3585  3.1108
  206MOL0     H27802  10.209   6.766   1.951  0.9139  1.5760  4.2809
  206MOL0     H27803  10.173   6.677   2.097  0.1079 -2.1692 -0.0855
  206MOL0     H27804  10.102   6.485   1.953 -1.2277 -0.1950 -0.7882
  206MOL0     H27805  10.151   6.574   1.805  0.9743 -1.5510  0.9567
  206MOL0     H27806   9.904   6.553   1.865 -0.3517 -0.8708  3.4430
  206MOL0     H27807   9.951   6.724   1.845 -0.2908 -1.0737 -1.2498
  206MOL0     H27808   9.817   6.633   2.242  2.1113 -0.8701 -0.3322
  206MOL0     H27809  10.565   6.918   2.152 -1.0713 -1.1950  0.5041
  206MOL0     H27810  10.800   6.918   2.222  0.6579 -1.7609  2.7221
  207MOL0     O27811   6.902   7.331   0.958 -0.7473 -0.0338 -0.7447
  207MOL0     C27812   6.965   7.444   0.950 -0.8779  0.1368  0.2120
  207MOL0     O27813   6.910   7.569   0.929  0.8366 -0.5930 -0.0701
  207MOL0     C27814   6.776   7.577   0.927  0.1800 -0.0681 -0.1829
  207MOL0     C27815   6.694   7.532   1.029  0.2300 -0.1854 -0.5999
  207MOL0     C27816   6.552   7.558   1.027  0.0314 -0.0308  0.2030
  207MOL0     C27817   6.492   7.632   0.924  0.1097  0.6804 -0.1154
  207MOL0     O27818   6.356   7.652   0.939  0.0483  0.0947  0.6356
  207MOL0     C27819   6.301   7.761   0.870  0.0624 -0.3465 -0.4372
  207MOL0     C27820   6.181   7.823   0.959  0.3908 -0.4370  0.0151
  207MOL0     C27821   6.066   7.722   0.962  0.4600 -0.0173 -0.4270
  207MOL0     C27822   5.933   7.773   1.021  0.5791  0.0399  0.1033
  207MOL0     C27823   5.828   7.661   1.049 -0.1512  0.0067  0.8560
  207MOL0     C27824   5.692   7.717   1.084  0.2933 -0.9975 -0.0623
  207MOL0     C27825   5.600   7.598   1.062  1.6298 -0.5428 -0.2295
  207MOL0     C27826   5.450   7.647   1.052 -0.8345  0.1842 -0.2097
  207MOL0     N27827   5.402   7.725   1.160 -0.5760  0.2223 -0.3846
  207MOL0     C27828   5.388   7.861   1.186  0.3849  0.4858  0.8991
  207MOL0     C27829   5.360   7.872   1.314  0.7537  0.1263 -0.2157
  207MOL0     C27830   5.335   8.001   1.394  0.0099 -0.1573 -0.1853
  207MOL0     C27831   5.188   8.052   1.376 -0.2953 -0.3933 -0.0327
  207MOL0     C27832   5.168   8.177   1.462  0.2250 -0.3178  0.2928
  207MOL0     C27833   5.036   8.246   1.427 -0.5371 -0.4120  0.0539
  207MOL0     O27834   4.926   8.164   1.472  0.4104  0.2142 -0.3475
  207MOL0     C27835   4.798   8.217   1.454  0.1517  1.1083  0.5029
  207MOL0     C27836   4.690   8.129   1.506 -1.0395 -0.3177  0.7347
  207MOL0     C27837   4.558   8.177   1.501  0.5292  0.0361 -0.2927
  207MOL0     C27838   4.476   8.109   1.599  0.4753 -0.1662 -0.4305
  207MOL0     C27839   4.520   8.292   1.433 -0.4095 -0.4339 -0.7993
  207MOL0     C27840   4.387   8.346   1.427 -0.1735  0.4716 -0.1761
  207MOL0     O27841   4.278   8.257   1.416 -0.0453  0.0267  0.3912
  207MOL0     C27842   4.158   8.317   1.442  0.4298  0.5578 -0.0223
  207MOL0     C27843   4.081   8.344   1.332 -0.0859 -0.1761  0.2279
  207MOL0     C27844   3.953   8.392   1.353  0.0317 -0.6743 -0.5319
  207MOL0     C27845   3.903   8.419   1.484 -0.5503  0.0993 -0.8577
  207MOL0     O27846   3.776   8.466   1.501 -0.5451  0.3782  0.6682
  207MOL0     C27847   3.764   8.583   1.583 -0.4024 -0.0909 -0.1412
  207MOL0     C27848   3.623   8.644   1.574 -0.2834  0.0228 -0.1330
  207MOL0     C27849   3.524   8.550   1.647 -0.1286  0.2876 -0.2722
  207MOL0     C27850   3.374   8.579   1.613  0.1745 -1.5116  0.1895
  207MOL0     C27851   3.267   8.479   1.651 -0.1930  0.1151  0.2596
  207MOL0     C27852   3.141   8.502   1.555 -0.2220  0.3060 -1.0104
  207MOL0     C27853   3.078   8.646   1.561  0.8752 -0.3502 -0.1840
  207MOL0     C27854   3.034   8.690   1.702  0.5304  0.5627 -0.2574
  207MOL0    Cl27855   2.958   8.855   1.701 -0.3041  0.2300  0.2986
  207MOL0     C27856   3.980   8.390   1.595  0.6166  0.3637  0.4285
  207MOL0     C27857   4.108   8.343   1.569 -0.2840  0.4595  0.1545
  207MOL0     O27858   4.386   8.468   1.430 -0.1650 -0.6760 -0.3451
  207MOL0     C27859   4.625   8.374   1.379 -0.2918  0.1428 -0.1656
  207MOL0     C27860   4.759   8.333   1.387  0.7019  0.8860 -0.4078
  207MOL0     N27861   5.360   7.746   1.370 -0.5537 -0.3251 -0.3330
  207MOL0     N27862   5.384   7.663   1.283 -0.7194  0.5414 -0.4546
  207MOL0     C27863   6.581   7.685   0.831  0.3540 -0.7250 -0.1005
  207MOL0     C27864   6.716   7.647   0.830  0.5247  0.6697  0.8197
  207MOL0     C27865   7.116   7.445   0.968 -0.2177 -0.5581  0.1881
  207MOL0     C27866   7.197   7.543   0.905 -0.4221 -0.1139  0.8417
  207MOL0     C27867   7.328   7.556   0.935 -0.8017 -0.2997  0.4115
  207MOL0     C27868   7.389   7.464   1.019 -0.1513  0.1072  0.2961
  207MOL0     O27869   7.521   7.477   1.033 -0.3559 -0.5072  0.3432
  207MOL0     C27870   7.590   7.432   1.146  0.6527 -0.4427  0.4882
  207MOL0     C27871   7.726   7.516   1.154 -0.5246 -0.3461  0.4253
  207MOL0     C27872   7.820   7.433   1.245 -0.5338 -0.0395 -1.0299
  207MOL0     C27873   7.953   7.483   1.281 -0.7572 -0.1311  0.4654
  207MOL0     C27874   8.034   7.514   1.156  0.8874 -0.3008 -0.7469
  207MOL0     C27875   8.096   7.538   1.055  0.4558  0.4789 -1.4163
  207MOL0     C27876   7.321   7.353   1.066  0.5911  0.1836 -0.2333
  207MOL0     C27877   7.181   7.353   1.051 -0.2879  0.0662  0.0820
  207MOL0     H27878   6.737   7.491   1.120 -1.2921 -2.0858 -0.6706
  207MOL0     H27879   6.491   7.526   1.111 -1.8198 -1.5672 -1.6111
  207MOL0     H27880   6.369   7.844   0.847 -1.3784  0.4670 -1.9634
  207MOL0     H27881   6.280   7.727   0.768 -0.7439 -2.5324  0.4000
  207MOL0     H27882   6.222   7.823   1.061  0.2802 -0.1754  0.0597
  207MOL0     H27883   6.149   7.919   0.918 -1.0596 -1.6398 -1.8705
  207MOL0     H27884   6.043   7.679   0.864  0.6147  1.4980 -1.1603
  207MOL0     H27885   6.104   7.635   1.017  0.1552 -0.4688 -0.9243
  207MOL0     H27886   5.948   7.828   1.114 -0.8249 -1.1882  1.1005
  207MOL0     H27887   5.880   7.841   0.953 -1.1719  0.1378  1.4986
  207MOL0     H27888   5.820   7.601   0.958 -3.6385  0.3598  0.7683
  207MOL0     H27889   5.868   7.604   1.133  0.0736  0.4346  1.0418
  207MOL0     H27890   5.678   7.758   1.185 -5.1698  2.5311 -1.8403
  207MOL0     H27891   5.669   7.802   1.020  2.1456 -0.2280  0.2182
  207MOL0     H27892   5.618   7.551   0.965 -0.9489 -1.1253 -0.5154
  207MOL0     H27893   5.610   7.530   1.146 -0.9563 -1.3067 -0.4545
  207MOL0     H27894   5.387   7.558   1.037 -1.6091  1.0500 -2.4947
  207MOL0     H27895   5.434   7.714   0.967 -1.9436  0.6238  0.3216
  207MOL0     H27896   5.394   7.950   1.124  3.3198  1.0388  1.8496
  207MOL0     H27897   5.366   7.975   1.496 -0.8861 -0.0689  0.1216
  207MOL0     H27898   5.403   8.079   1.359 -0.7405 -0.4201 -2.3415
  207MOL0     H27899   5.106   7.985   1.403 -0.4961  0.2435  1.0246
  207MOL0     H27900   5.178   8.082   1.272  0.6700  0.1773  0.0262
  207MOL0     H27901   5.244   8.255   1.448 -1.1043  1.4073  2.0469
  207MOL0     H27902   5.160   8.164   1.570 -2.6669  0.0762  0.2055
  207MOL0     H27903   5.045   8.271   1.321  1.9202  1.4769  0.6338
  207MOL0     H27904   5.034   8.344   1.475 -2.6643 -0.9597  1.2393
  207MOL0     H27905   4.718   8.032   1.544  1.0199  1.3379  3.8472
  207MOL0     H27906   4.415   8.030   1.553  0.4584 -0.8452  0.7100
  207MOL0     H27907   4.542   8.081   1.681  0.7916  0.0950 -0.5965
  207MOL0     H27908   4.404   8.174   1.650 -0.4642 -1.1517 -0.4456
  207MOL0     H27909   4.120   8.334   1.231 -2.7340  0.1399 -0.8947
  207MOL0     H27910   3.900   8.416   1.261  0.0491 -1.7803 -0.8526
  207MOL0     H27911   3.781   8.569   1.690 -1.2068  0.5794  0.0812
  207MOL0     H27912   3.841   8.657   1.557 -0.1735  0.9140  2.9954
  207MOL0     H27913   3.622   8.741   1.623  0.0741  0.8252 -1.6742
  207MOL0     H27914   3.598   8.652   1.468  0.3056  3.6609 -0.1191
  207MOL0     H27915   3.533   8.552   1.756 -1.1463  1.7724 -0.1892
  207MOL0     H27916   3.552   8.450   1.613  1.6259  1.4961 -2.6395
  207MOL0     H27917   3.352   8.681   1.645  0.5926  0.3430 -4.6283
  207MOL0     H27918   3.379   8.588   1.505  0.6543 -0.9918  0.2533
  207MOL0     H27919   3.244   8.491   1.757  1.8419 -1.3023  0.9177
  207MOL0     H27920   3.305   8.377   1.651  0.2081  0.2658  0.0865
  207MOL0     H27921   3.170   8.479   1.453  0.2312  0.5984 -0.9481
  207MOL0     H27922   3.060   8.433   1.583 -0.6045  0.2187 -2.2729
  207MOL0     H27923   2.994   8.635   1.492 -0.7048 -1.5193  1.7837
  207MOL0     H27924   3.146   8.725   1.528 -0.9210  0.8885 -1.0343
  207MOL0     H27925   3.113   8.689   1.777 -0.3051  1.4212  0.6650
  207MOL0     H27926   2.957   8.618   1.734  2.2230  0.5797  4.7206
  207MOL0     H27927   3.938   8.404   1.694 -4.8433 -4.0279 -0.7879
  207MOL0     H27928   4.173   8.306   1.648 -2.2626 -0.8004  1.2717
  207MOL0     H27929   4.605   8.467   1.327 -1.4252  0.4313  0.7222
  207MOL0     H27930   4.832   8.392   1.332  2.0353 -1.4452 -1.2863
  207MOL0     H27931   6.545   7.731   0.739  2.6400 -2.1283 -1.7943
  207MOL0     H27932   6.779   7.688   0.752  2.4252  0.2114  2.0519
  207MOL0     H27933   7.159   7.615   0.833  2.8905  0.5547 -0.4141
  207MOL0     H27934   7.377   7.640   0.887 -1.2138  0.4341  1.2589
  207MOL0     H27935   7.542   7.447   1.243  1.7049  0.3585  0.8994
  207MOL0     H27936   7.611   7.325   1.136 -0.1980 -0.9462  3.2669
  207MOL0     H27937   7.715   7.622   1.180  1.8235  0.2601 -0.7101
  207MOL0     H27938   7.766   7.516   1.052 -1.7403  0.7794 -0.0866
  207MOL0     H27939   7.830   7.333   1.201  1.7960  0.8662 -2.7394
  207MOL0     H27940   7.764   7.423   1.339 -1.6410 -0.0183 -1.6735
  207MOL0     H27941   8.002   7.432   1.364 -3.9810 -1.0436  1.9552
  207MOL0     H27942   7.943   7.580   1.330  1.0803  1.0172 -1.2552
  207MOL0     H27943   8.151   7.554   0.965 -2.4367  1.2495 -3.1698
  207MOL0     H27944   7.361   7.282   1.137  0.1937  0.6224  0.4378
  207MOL0     H27945   7.123   7.284   1.112  0.7576  1.5068  2.8966
  208MOL0     O27946   7.820   4.098   3.043 -0.2721 -0.0571 -1.1382
  208MOL0     C27947   7.902   4.182   3.021  0.4254 -0.0775  0.1696
  208MOL0     O27948   8.039   4.148   2.997  0.2494  0.2991  0.1047
  208MOL0     C27949   8.093   4.023   3.016  0.8362 -0.3799  0.0920
  208MOL0     C27950   8.104   3.962   3.138 -0.4319 -0.4151  0.3682
  208MOL0     C27951   8.172   3.845   3.161 -0.5829 -0.7551  0.4762
  208MOL0     C27952   8.237   3.778   3.057  0.7096  0.7366 -0.4571
  208MOL0     O27953   8.304   3.660   3.076  0.6157 -0.3626  0.2537
  208MOL0     C27954   8.430   3.638   3.011  0.1859 -0.5662 -0.0954
  208MOL0     C27955   8.493   3.521   3.080 -0.2627  0.3976 -0.9402
  208MOL0     C27956   8.429   3.386   3.048 -0.4543 -0.7420 -0.0893
  208MOL0     C27957   8.531   3.271   3.053 -0.3111 -0.5511  0.2455
  208MOL0     C27958   8.483   3.163   2.958 -0.4182 -0.2675 -0.4819
  208MOL0     C27959   8.354   3.085   3.001 -1.0875 -0.7679  0.9107
  208MOL0     C27960   8.317   2.975   2.910  0.1985 -0.5853  1.0650
  208MOL0     C27961   8.296   3.029   2.766  0.4320  0.3963 -0.4117
  208MOL0     N27962   8.180   3.120   2.763  0.2847 -0.0497  0.3095
  208MOL0     C27963   8.193   3.250   2.728 -0.4616 -0.3861 -0.6957
  208MOL0     C27964   8.065   3.298   2.733  0.1343 -0.3612  0.1223
  208MOL0     C27965   8.021   3.439   2.704 -0.1834  0.3294 -0.2349
  208MOL0     C27966   8.041   3.522   2.827  0.5073 -0.4786  0.0445
  208MOL0     C27967   7.949   3.486   2.949 -0.6293 -0.1221 -0.0254
  208MOL0     C27968   7.869   3.606   2.997  0.1077  0.0463  0.1223
  208MOL0     O27969   7.809   3.569   3.122  0.0821  0.2774  0.6798
  208MOL0     C27970   7.687   3.605   3.118  0.5704  0.4158  0.3878
  208MOL0     C27971   7.584   3.512   3.124 -0.4515  0.0875 -0.0276
  208MOL0     C27972   7.455   3.540   3.123  0.2596 -0.5107 -0.2104
  208MOL0     C27973   7.350   3.426   3.131  0.4089 -0.3717 -0.5655
  208MOL0     C27974   7.417   3.680   3.108 -0.6558  0.4971  0.0008
  208MOL0     C27975   7.279   3.732   3.098 -0.2840 -0.3204 -0.1597
  208MOL0     O27976   7.265   3.870   3.118 -0.5509  0.6628 -0.3041
  208MOL0     C27977   7.154   3.923   3.072 -0.1822 -0.0804  0.3734
  208MOL0     C27978   7.133   3.949   2.934 -0.5108 -0.2882  0.8681
  208MOL0     C27979   7.005   3.984   2.889 -0.4947  0.2872 -0.2747
  208MOL0     C27980   6.909   4.023   2.977 -0.0583  0.0553 -0.4567
  208MOL0     O27981   6.793   4.081   2.929 -0.2009 -0.5311  0.3477
  208MOL0     C27982   6.729   4.017   2.812  0.6772 -0.1746 -0.4497
  208MOL0     C27983   6.608   4.104   2.780  0.8859 -0.1150  1.0513
  208MOL0     C27984   6.547   4.079   2.645  0.5420 -0.1466  0.2433
  208MOL0     C27985   6.398   4.137   2.647 -0.6117  0.1320 -0.2295
  208MOL0     C27986   6.321   4.151   2.523  0.0526  0.5141  0.3934
  208MOL0     C27987   6.180   4.217   2.537 -0.1781 -0.6809  0.3464
  208MOL0     C27988   6.109   4.232   2.394 -0.1693  0.4107  0.0985
  208MOL0     C27989   6.197   4.304   2.284  0.0885  0.4797  0.2163
  208MOL0    Cl27990   6.215   4.479   2.312  0.0935 -0.3630  0.2791
  208MOL0     C27991   6.936   4.018   3.114 -0.0203  0.8779 -0.2359
  208MOL0     C27992   7.056   3.960   3.167 -0.3357  0.4623  0.5952
  208MOL0     O27993   7.190   3.658   3.063  0.1972  0.1155  0.2483
  208MOL0     C27994   7.521   3.779   3.116 -0.2374  0.2351 -0.1169
  208MOL0     C27995   7.652   3.740   3.120  0.1918  0.6575 -0.5500
  208MOL0     N27996   7.975   3.199   2.767  0.2737  0.6016 -0.1901
  208MOL0     N27997   8.040   3.095   2.776 -1.6898  0.5307  0.1725
  208MOL0     C27998   8.220   3.834   2.928 -0.4294 -1.0414  0.4848
  208MOL0     C27999   8.149   3.959   2.909 -0.8040  0.1398 -0.7762
  208MOL0     C28000   7.860   4.316   2.999  0.1686  0.5788  0.5499
  208MOL0     C28001   7.958   4.418   2.978  0.3935  0.3023 -0.1281
  208MOL0     C28002   7.919   4.556   2.985 -0.4292 -0.3636  0.6061
  208MOL0     C28003   7.796   4.593   2.986 -0.0906  0.4148  1.0347
  208MOL0     O28004   7.772   4.728   2.987  0.5956 -0.1975 -0.4902
  208MOL0     C28005   7.638   4.764   2.939 -0.6488  0.4675 -0.0376
  208MOL0     C28006   7.673   4.888   2.869 -1.5786  0.3651 -0.7641
  208MOL0     C28007   7.547   4.963   2.828 -1.1607 -0.3377  0.5985
  208MOL0     C28008   7.587   5.084   2.742 -0.6365 -0.2992 -0.8874
  208MOL0     C28009   7.473   5.140   2.671 -0.3444  0.5196 -0.5775
  208MOL0     C28010   7.384   5.175   2.600 -0.1623 -0.1576 -0.5840
  208MOL0     C28011   7.695   4.495   2.996  0.3576 -0.7095 -0.7445
  208MOL0     C28012   7.728   4.356   3.004  0.8327 -0.2198  0.7990
  208MOL0     H28013   8.056   4.012   3.221  2.6995 -0.9190  2.6871
  208MOL0     H28014   8.189   3.814   3.264 -0.4189 -2.7645 -0.1285
  208MOL0     H28015   8.407   3.617   2.907  2.6922 -1.1915 -0.6032
  208MOL0     H28016   8.498   3.724   3.021  0.2029 -0.5495 -0.3480
  208MOL0     H28017   8.597   3.525   3.044  0.2311  1.2258  0.5085
  208MOL0     H28018   8.494   3.533   3.188 -1.5847  0.1324 -0.8884
  208MOL0     H28019   8.346   3.359   3.113  0.8165  0.5278  2.1845
  208MOL0     H28020   8.379   3.399   2.951 -2.8833  2.7528  1.4531
  208MOL0     H28021   8.630   3.298   3.017 -1.2230 -2.5881 -4.6828
  208MOL0     H28022   8.536   3.238   3.157  2.3732  2.5734  1.2391
  208MOL0     H28023   8.455   3.213   2.865  1.5735 -0.5150 -1.2508
  208MOL0     H28024   8.574   3.105   2.943  0.7486  1.4999 -0.4514
  208MOL0     H28025   8.369   3.055   3.105 -1.5125 -0.4978  1.0495
  208MOL0     H28026   8.272   3.157   3.008 -1.4333 -1.0944  0.2733
  208MOL0     H28027   8.395   2.898   2.908  1.3682  0.4589  3.0669
  208MOL0     H28028   8.227   2.928   2.951 -0.1337 -1.5352 -0.6522
  208MOL0     H28029   8.282   2.941   2.702  1.6188 -3.3043  3.9370
  208MOL0     H28030   8.389   3.070   2.726 -1.3763  2.3220 -3.0333
  208MOL0     H28031   8.277   3.315   2.707 -0.7862  0.1891 -0.2530
  208MOL0     H28032   8.076   3.478   2.618  0.5723  1.1927  0.6277
  208MOL0     H28033   7.916   3.455   2.676 -0.2503 -0.1485 -0.2643
  208MOL0     H28034   8.037   3.625   2.792 -0.7289 -0.2148  0.8872
  208MOL0     H28035   8.148   3.511   2.848  0.8028 -3.0938 -2.2288
  208MOL0     H28036   8.011   3.460   3.036 -0.9075  2.0426  0.8797
  208MOL0     H28037   7.877   3.406   2.933  1.3751 -2.4212  1.6544
  208MOL0     H28038   7.795   3.630   2.920  1.5857 -1.4924 -1.8693
  208MOL0     H28039   7.925   3.700   3.004 -0.4806  0.4506 -0.3977
  208MOL0     H28040   7.616   3.408   3.121 -1.5152 -0.2410 -1.1577
  208MOL0     H28041   7.272   3.407   3.057 -2.4720 -0.7849  2.3556
  208MOL0     H28042   7.400   3.329   3.125 -0.3407 -0.6637 -3.7218
  208MOL0     H28043   7.295   3.428   3.226 -0.2621  0.2419 -0.9563
  208MOL0     H28044   7.210   3.929   2.860 -1.2180 -0.2697  0.1210
  208MOL0     H28045   6.985   4.006   2.785  1.3025  2.7844 -0.1967
  208MOL0     H28046   6.786   4.014   2.718  1.8971 -0.3597  0.2739
  208MOL0     H28047   6.691   3.918   2.841 -0.7537  0.1643 -1.0681
  208MOL0     H28048   6.537   4.115   2.863 -0.3142  1.1885 -0.0897
  208MOL0     H28049   6.643   4.206   2.759  2.5465 -0.5534  1.5518
  208MOL0     H28050   6.549   3.973   2.620 -0.6240  0.2765 -1.8095
  208MOL0     H28051   6.596   4.120   2.556 -2.9010  2.0990 -0.8299
  208MOL0     H28052   6.350   4.076   2.723 -1.3833  0.9418 -0.0521
  208MOL0     H28053   6.398   4.238   2.688 -0.1438  0.4770 -1.0495
  208MOL0     H28054   6.309   4.055   2.473  1.2721  0.4790  0.1565
  208MOL0     H28055   6.379   4.213   2.455  2.0180 -2.4895 -0.8676
  208MOL0     H28056   6.116   4.168   2.611 -2.2049 -0.6261 -1.2689
  208MOL0     H28057   6.207   4.320   2.563  1.4346 -1.5475  2.3219
  208MOL0     H28058   6.022   4.298   2.406  0.3871  1.3181 -0.7666
  208MOL0     H28059   6.078   4.135   2.354 -1.0982  0.4683  0.6433
  208MOL0     H28060   6.147   4.286   2.188 -0.7589  1.5827  0.4288
  208MOL0     H28061   6.295   4.256   2.273  0.5345  1.9088 -3.9641
  208MOL0     H28062   6.866   4.053   3.190  0.3690  1.2560 -0.0494
  208MOL0     H28063   7.079   3.950   3.273  3.3971  0.0592 -0.1221
  208MOL0     H28064   7.494   3.883   3.109 -0.5998  0.2401  1.2308
  208MOL0     H28065   7.737   3.807   3.124  1.3334 -0.5510 -2.5254
  208MOL0     H28066   8.254   3.774   2.844  3.9074 -0.4877  1.5942
  208MOL0     H28067   8.135   4.006   2.812  1.3761 -0.4461 -1.4153
  208MOL0     H28068   8.063   4.397   2.960  0.8450  2.2169 -0.0106
  208MOL0     H28069   7.998   4.631   2.984 -1.9238  1.3173 -1.0061
  208MOL0     H28070   7.594   4.697   2.865  2.1572 -0.5102 -0.9278
  208MOL0     H28071   7.565   4.773   3.020 -1.7128 -0.1841 -0.8994
  208MOL0     H28072   7.733   4.858   2.782 -1.0229 -0.4263 -0.1262
  208MOL0     H28073   7.740   4.950   2.928 -1.5488 -0.3773  0.0042
  208MOL0     H28074   7.483   4.982   2.915 -1.9426 -1.9868  0.4165
  208MOL0     H28075   7.487   4.900   2.762  2.0646 -2.2361 -0.7765
  208MOL0     H28076   7.665   5.055   2.671 -1.7715 -2.1812 -1.4213
  208MOL0     H28077   7.623   5.158   2.815 -1.8197 -0.6476  0.0876
  208MOL0     H28078   7.304   5.207   2.537  0.5284  1.1457 -0.8232
  208MOL0     H28079   7.591   4.523   3.007  0.8966  0.4778  2.3394
  208MOL0     H28080   7.653   4.283   3.032  2.3569 -1.9483  0.6112
  209MOL0     O28081  11.318   1.960  10.088  0.2072  0.7188 -0.5308
  209MOL0     C28082  11.339   1.848  10.038  0.4691  0.3120 -0.0614
  209MOL0     O28083  11.245   1.743  10.034 -0.1838 -0.0314  0.4046
  209MOL0     C28084  11.136   1.754  10.116 -0.5783 -0.7308  1.2239
  209MOL0     C28085  11.014   1.716  10.068 -0.1700 -0.1493 -0.4837
  209MOL0     C28086  10.900   1.727  10.147 -0.5488  0.7463 -0.5531
  209MOL0     C28087  10.900   1.774  10.278 -1.1213 -0.3835 -0.1493
  209MOL0     O28088  10.785   1.780  10.361  1.0071 -0.7184  0.1615
  209MOL0     C28089  10.691   1.680  10.332  0.5902  0.9875  0.9078
  209MOL0     C28090  10.615   1.667  10.463 -0.7106  0.4090 -0.8010
  209MOL0     C28091  10.505   1.562  10.438 -0.5216 -0.0184  0.0692
  209MOL0     C28092  10.401   1.570  10.551 -0.6831  0.5396 -0.0889
  209MOL0     C28093  10.305   1.693  10.546 -0.0979 -0.5564  0.8705
  209MOL0     C28094  10.186   1.671  10.636 -0.3575 -0.2015  0.2950
  209MOL0     C28095  10.078   1.767  10.604  0.2895  0.1306 -0.2997
  209MOL0     C28096  10.091   1.910  10.672 -0.0866  0.8915  0.6755
  209MOL0     N28097  10.058   1.917  10.814 -0.1912  0.0020 -0.1206
  209MOL0     C28098  10.060   2.032  10.891 -0.4343  0.1630 -0.3019
  209MOL0     C28099  10.013   1.990  11.019 -0.4040 -0.8323  0.0527
  209MOL0     C28100   9.980   2.070  11.147  1.6219  0.3693  0.0863
  209MOL0     C28101   9.831   2.101  11.153  0.4209  0.3990 -0.1574
  209MOL0     C28102   9.798   2.195  11.037  0.3167  0.4114  0.6121
  209MOL0     C28103   9.672   2.156  10.970  0.3352  0.0256  0.1974
  209MOL0     O28104   9.690   2.033  10.893  0.4885 -0.2707 -0.8675
  209MOL0     C28105   9.591   1.973  10.809 -0.5046  0.0278  0.6282
  209MOL0     C28106   9.456   2.006  10.809  0.0967 -0.2034 -0.7030
  209MOL0     C28107   9.366   1.950  10.712 -0.1294  0.3812 -0.5439
  209MOL0     C28108   9.219   1.974  10.743  0.0644  0.6045 -0.1431
  209MOL0     C28109   9.415   1.846  10.623 -0.3197 -0.1676  0.6939
  209MOL0     C28110   9.336   1.770  10.535  0.6092  0.4916  0.0090
  209MOL0     O28111   9.338   1.636  10.554  0.1202 -0.1455 -0.1254
  209MOL0     C28112   9.231   1.562  10.506  0.5556 -0.3469 -0.2691
  209MOL0     C28113   9.109   1.552  10.582 -0.2136 -0.2010  0.0110
  209MOL0     C28114   9.002   1.477  10.536 -0.1567  0.9224  0.1930
  209MOL0     C28115   9.005   1.415  10.412  0.3141 -0.1355 -0.3202
  209MOL0     O28116   8.891   1.346  10.361  0.1899  0.3321  0.0554
  209MOL0     C28117   8.919   1.266  10.247  0.2097  0.1785  0.0746
  209MOL0     C28118   8.796   1.186  10.207  0.0948 -0.7507  0.2850
  209MOL0     C28119   8.674   1.270  10.171 -0.3855 -0.1260 -0.2201
  209MOL0     C28120   8.547   1.180  10.181 -0.4096 -0.0711 -0.4898
  209MOL0     C28121   8.434   1.282  10.144  0.2797  1.3949  0.0881
  209MOL0     C28122   8.306   1.195  10.163 -0.3787 -0.8314 -0.2357
  209MOL0     C28123   8.184   1.266  10.108 -0.5663 -0.2831  0.2572
  209MOL0     C28124   8.170   1.278   9.956 -0.6283  0.9261 -0.7692
  209MOL0    Cl28125   7.994   1.338   9.917 -0.3263  0.0531  0.0806
  209MOL0     C28126   9.121   1.429  10.333  0.4079  0.6399 -0.0392
  209MOL0     C28127   9.233   1.490  10.385 -0.3375 -0.2472 -0.5544
  209MOL0     O28128   9.271   1.828  10.450 -0.6068  0.2726  0.6707
  209MOL0     C28129   9.555   1.813  10.628  0.4631 -0.3554  0.0650
  209MOL0     C28130   9.638   1.889  10.712 -0.1854  0.2059  0.3585
  209MOL0     N28131  10.008   1.851  11.007  0.7907 -0.7111 -0.4797
  209MOL0     N28132  10.031   1.812  10.894 -0.2555  0.4463 -0.0771
  209MOL0     C28133  11.027   1.817  10.325 -0.4077  0.9254  0.3888
  209MOL0     C28134  11.141   1.804  10.244  0.2008  0.0640 -0.0402
  209MOL0     C28135  11.475   1.825   9.982  0.2589  0.2264 -0.6670
  209MOL0     C28136  11.580   1.881  10.057  0.7011  0.3901  0.1696
  209MOL0     C28137  11.712   1.851  10.009  0.1058  0.2218  1.0235
  209MOL0     C28138  11.736   1.763   9.898  0.1829  0.1104 -0.8880
  209MOL0     O28139  11.861   1.749   9.842 -0.3621 -0.0623 -0.7771
  209MOL0     C28140  11.956   1.859   9.854 -0.7517 -0.6388  0.5898
  209MOL0     C28141  12.082   1.824   9.771 -0.4842 -0.2043 -0.5216
  209MOL0     C28142  12.145   1.692   9.818  0.7357 -0.1738  0.3318
  209MOL0     C28143  12.301   1.693   9.810 -0.6839 -0.1209 -0.0889
  209MOL0     C28144  12.366   1.795   9.902 -0.1977  0.4037 -0.0281
  209MOL0     C28145  12.420   1.876   9.975 -0.5996  0.5872  0.4744
  209MOL0     C28146  11.620   1.706   9.840 -0.1319  0.4184  0.3444
  209MOL0     C28147  11.493   1.732   9.886  0.3754  0.7649 -0.3026
  209MOL0     H28148  11.007   1.680   9.966 -2.9190  1.7469 -1.0735
  209MOL0     H28149  10.817   1.689  10.086  0.9249 -3.0457 -0.5067
  209MOL0     H28150  10.620   1.723  10.261  1.4530  0.9629  0.0088
  209MOL0     H28151  10.730   1.580  10.309  0.4638  1.1089  0.1456
  209MOL0     H28152  10.679   1.623  10.539 -0.1824  1.5226 -0.5761
  209MOL0     H28153  10.575   1.764  10.496 -0.6844  0.2713 -0.3668
  209MOL0     H28154  10.458   1.592  10.344  1.6010  0.3387 -0.9489
  209MOL0     H28155  10.543   1.461  10.424  0.7366  0.3735  0.4576
  209MOL0     H28156  10.339   1.481  10.544 -1.8282  1.1991  1.1800
  209MOL0     H28157  10.445   1.560  10.651 -4.7369 -1.8824  1.6827
  209MOL0     H28158  10.358   1.785  10.571 -0.0630 -0.7607  1.5553
  209MOL0     H28159  10.277   1.709  10.441 -0.7694 -5.3165  0.0650
  209MOL0     H28160  10.142   1.574  10.615 -1.0108 -0.3951  2.3283
  209MOL0     H28161  10.230   1.685  10.735  3.3762  0.5171 -1.3040
  209MOL0     H28162  10.070   1.782  10.496 -0.1144  1.6870 -0.0795
  209MOL0     H28163   9.983   1.729  10.644 -1.2239  0.2225 -3.5263
  209MOL0     H28164  10.020   1.969  10.613 -1.6550 -1.7987 -0.3416
  209MOL0     H28165  10.194   1.944  10.658  0.2302  0.3209  1.5583
  209MOL0     H28166  10.080   2.130  10.848 -0.7161 -0.0526 -0.9419
  209MOL0     H28167  10.016   2.017  11.236 -2.8269  0.3618  2.2049
  209MOL0     H28168  10.035   2.164  11.148  1.4443  0.5444  2.8127
  209MOL0     H28169   9.819   2.152  11.249  1.4385 -0.5762  0.5125
  209MOL0     H28170   9.777   2.006  11.159  1.6588 -0.2911  0.6741
  209MOL0     H28171   9.873   2.196  10.957 -3.3995 -2.1653 -3.3302
  209MOL0     H28172   9.774   2.294  11.078 -1.8179  1.8429 -3.5330
  209MOL0     H28173   9.641   2.234  10.900  2.0071 -0.7458 -1.4942
  209MOL0     H28174   9.587   2.149  11.038 -0.8761  1.2078 -1.1237
  209MOL0     H28175   9.421   2.065  10.893 -0.2146 -0.6681 -0.5006
  209MOL0     H28176   9.196   1.985  10.849 -0.0224 -0.0592 -0.0883
  209MOL0     H28177   9.194   2.062  10.683 -0.1468 -0.5879 -1.8844
  209MOL0     H28178   9.163   1.883  10.719  1.9136 -0.9218  1.0345
  209MOL0     H28179   9.105   1.588  10.684 -0.2671  0.8377 -0.3441
  209MOL0     H28180   8.913   1.462  10.597 -0.9962 -0.6273 -1.3371
  209MOL0     H28181   8.942   1.326  10.159  0.7770  1.7050  1.2228
  209MOL0     H28182   9.004   1.202  10.269  0.1568  0.2644  0.5449
  209MOL0     H28183   8.817   1.126  10.117  1.3206  0.4082 -0.2392
  209MOL0     H28184   8.773   1.113  10.285 -0.8568 -1.4322 -0.5941
  209MOL0     H28185   8.678   1.322  10.075 -1.3598 -0.8447 -0.6694
  209MOL0     H28186   8.673   1.350  10.246  0.2812 -0.5957  0.3094
  209MOL0     H28187   8.549   1.087  10.124  0.9712  0.1343 -0.8006
  209MOL0     H28188   8.531   1.156  10.287 -0.3682 -0.7205 -0.6279
  209MOL0     H28189   8.443   1.309  10.039  3.7168 -0.5262 -0.2665
  209MOL0     H28190   8.432   1.376  10.200 -2.6570  2.7394 -2.0217
  209MOL0     H28191   8.311   1.097  10.116  1.8709 -1.9299  2.0662
  209MOL0     H28192   8.285   1.179  10.269  1.6080  2.4516  0.8034
  209MOL0     H28193   8.168   1.357  10.167 -1.1115 -1.8349  2.6310
  209MOL0     H28194   8.098   1.208  10.142 -1.6819  1.0515 -0.1887
  209MOL0     H28195   8.177   1.184   9.900 -1.4175 -1.0018  2.1019
  209MOL0     H28196   8.247   1.345   9.918 -0.0159  1.0508  0.6164
  209MOL0     H28197   9.134   1.391  10.232 -0.2782  2.0312 -0.6814
  209MOL0     H28198   9.323   1.504  10.326  0.8526  3.3090  1.7403
  209MOL0     H28199   9.611   1.735  10.578  0.4629 -1.4955  1.7540
  209MOL0     H28200   9.746   1.906  10.707 -0.5297  2.7344 -0.2137
  209MOL0     H28201  11.035   1.853  10.427  1.6310  0.0868  0.5615
  209MOL0     H28202  11.238   1.836  10.280 -0.2058  2.2717 -0.7452
  209MOL0     H28203  11.563   1.943  10.145  0.5272  0.1961  0.2720
  209MOL0     H28204  11.796   1.906  10.050 -0.1825  2.7056 -1.3690
  209MOL0     H28205  11.912   1.953   9.818  0.0731 -0.4847 -0.0415
  209MOL0     H28206  11.991   1.869   9.957  0.1573 -2.4913  0.4919
  209MOL0     H28207  12.154   1.905   9.788 -0.7254  0.2946 -1.7881
  209MOL0     H28208  12.057   1.830   9.665  2.0136 -1.5537 -1.2634
  209MOL0     H28209  12.103   1.601   9.774 -2.2852  1.2482  0.0440
  209MOL0     H28210  12.113   1.685   9.922  1.7025  0.6761  0.7059
  209MOL0     H28211  12.332   1.711   9.707 -0.5208 -0.3895 -0.0887
  209MOL0     H28212  12.335   1.591   9.826 -2.7183 -0.9705 -0.8653
  209MOL0     H28213  12.478   1.941  10.039  1.3795  0.5626 -1.1918
  209MOL0     H28214  11.634   1.639   9.756 -2.2370  1.8987 -1.2613
  209MOL0     H28215  11.401   1.686   9.851  0.3322 -0.8348  1.7230
  210MOL0     O28216   0.792   7.728   3.244  0.4390 -0.1393  0.4191
  210MOL0     C28217   0.863   7.826   3.228  1.0499 -0.3999  0.0491
  210MOL0     O28218   0.820   7.947   3.179 -0.3776  0.7101 -0.6030
  210MOL0     C28219   0.692   7.978   3.165  0.3265 -0.0651 -0.8795
  210MOL0     C28220   0.591   7.931   3.262  0.5981 -0.1372 -0.1074
  210MOL0     C28221   0.459   7.989   3.242 -0.9386  0.3735  0.3613
  210MOL0     C28222   0.428   8.075   3.135  0.6965  0.0971 -0.9097
  210MOL0     O28223   0.296   8.126   3.132  0.5450  0.0260 -0.2528
  210MOL0     C28224   0.280   8.263   3.079  0.6450 -0.0109 -0.0706
  210MOL0     C28225   0.147   8.310   3.131  0.1301  0.5919 -0.8500
  210MOL0     C28226   0.090   8.436   3.077  0.2553  0.2559 -0.1390
  210MOL0     C28227   0.187   8.550   3.092  0.5596 -0.2696 -0.4817
  210MOL0     C28228   0.108   8.686   3.051  0.0897 -0.6480 -0.0726
  210MOL0     C28229   0.193   8.815   3.084  0.5034 -0.4721 -0.2643
  210MOL0     C28230   0.115   8.952   3.049 -0.0073 -0.3028  0.8427
  210MOL0     C28231   0.171   9.086   3.116  0.0653  0.4572  0.3859
  210MOL0     N28232   0.312   9.112   3.064 -0.1093 -0.1591 -1.0121
  210MOL0     C28233   0.416   9.049   3.127  0.4403  0.6815  0.6848
  210MOL0     C28234   0.531   9.112   3.084 -0.1072 -0.2153 -0.8365
  210MOL0     C28235   0.667   9.050   3.103 -0.3294 -0.1358 -0.6795
  210MOL0     C28236   0.726   9.115   3.218 -0.3473  0.2066 -0.8501
  210MOL0     C28237   0.755   9.260   3.196 -0.0323  0.2317  0.4356
  210MOL0     C28238   0.860   9.309   3.289 -0.8745 -0.3409  0.0860
  210MOL0     O28239   0.883   9.450   3.262 -0.4794 -0.2919  0.2643
  210MOL0     C28240   1.003   9.491   3.199  0.7004 -0.1416  0.3273
  210MOL0     C28241   1.126   9.504   3.267  0.2491 -0.5714  0.2002
  210MOL0     C28242   1.233   9.574   3.210 -0.6703 -0.5706 -0.8531
  210MOL0     C28243   1.357   9.603   3.296 -0.2697  0.2358  0.7110
  210MOL0     C28244   1.228   9.603   3.071 -0.1886 -0.6123  0.9801
  210MOL0     C28245   1.340   9.660   2.995 -0.6978 -0.5291  0.7555
  210MOL0     O28246   1.348   9.617   2.864 -0.2944 -0.0044 -0.5740
  210MOL0     C28247   1.444   9.669   2.776 -0.2229 -0.1768  0.3082
  210MOL0     C28248   1.408   9.682   2.640  0.2261  0.2599  0.9137
  210MOL0     C28249   1.492   9.758   2.549 -0.9252  0.7091 -0.0154
  210MOL0     C28250   1.618   9.800   2.575 -0.5734  0.4007  0.2327
  210MOL0     O28251   1.699   9.871   2.487  1.0808 -0.4728  0.1503
  210MOL0     C28252   1.839   9.831   2.462 -0.1543 -0.0227 -1.0703
  210MOL0     C28253   1.912   9.961   2.466  0.6014  0.4862 -0.2581
  210MOL0     C28254   1.860  10.059   2.366 -0.5298 -0.1367  1.0018
  210MOL0     C28255   1.962  10.168   2.332  0.7843 -0.5275 -0.3225
  210MOL0     C28256   2.071  10.144   2.224  0.0403  0.1156 -0.4883
  210MOL0     C28257   2.165  10.264   2.208  0.8446 -0.6223 -0.8039
  210MOL0     C28258   2.299  10.219   2.152 -0.3055  0.6174  0.4828
  210MOL0     C28259   2.391  10.327   2.098  0.2755  0.7392  0.6011
  210MOL0    Cl28260   2.553  10.260   2.061  0.1481 -0.1533 -0.1319
  210MOL0     C28261   1.658   9.778   2.711 -0.1855  0.4997  0.4495
  210MOL0     C28262   1.572   9.721   2.814  0.0241 -0.2876  0.0038
  210MOL0     O28263   1.407   9.750   3.052 -0.1538  0.2572  0.1649
  210MOL0     C28264   1.108   9.576   3.002 -0.8317  0.1062 -0.3815
  210MOL0     C28265   0.999   9.527   3.063  1.0201  0.2151  0.3002
  210MOL0     N28266   0.493   9.219   3.004  0.3993  0.4709  0.1300
  210MOL0     N28267   0.363   9.211   2.990  0.4543  0.5345 -0.7011
  210MOL0     C28268   0.525   8.112   3.041 -0.1666  0.2183  0.4469
  210MOL0     C28269   0.653   8.060   3.057 -0.3659  0.6199 -0.2491
  210MOL0     C28270   1.009   7.810   3.246 -0.8938 -0.2927 -1.4542
  210MOL0     C28271   1.095   7.895   3.176  0.4848 -0.0160 -0.0331
  210MOL0     C28272   1.231   7.892   3.200  0.6686 -0.4914  0.2037
  210MOL0     C28273   1.290   7.788   3.273 -0.1712 -1.0094 -0.4587
  210MOL0     O28274   1.428   7.774   3.278 -0.5254 -0.1338 -0.4037
  210MOL0     C28275   1.511   7.894   3.314 -0.4572  0.3470  0.8281
  210MOL0     C28276   1.656   7.847   3.313  0.4133  0.0588  1.2834
  210MOL0     C28277   1.706   7.834   3.166 -0.3467 -0.0941  0.4156
  210MOL0     C28278   1.857   7.785   3.171  0.1710  0.1954 -0.1840
  210MOL0     C28279   1.924   7.752   3.043  0.1916  0.2501 -0.2443
  210MOL0     C28280   1.985   7.712   2.951 -0.5173 -1.1585 -0.2199
  210MOL0     C28281   1.209   7.695   3.337  0.1810 -0.8763  0.1710
  210MOL0     C28282   1.063   7.709   3.327 -0.1677 -0.1416  0.6366
  210MOL0     H28283   0.616   7.864   3.344  1.5209  0.0936 -0.1899
  210MOL0     H28284   0.386   7.960   3.316  0.3486 -0.1952  1.4563
  210MOL0     H28285   0.366   8.321   3.114  2.4236 -1.5662 -1.6218
  210MOL0     H28286   0.282   8.259   2.969  1.7342  4.7581 -0.4713
  210MOL0     H28287   0.064   8.245   3.102 -0.7739  2.1300 -1.8778
  210MOL0     H28288   0.149   8.321   3.240 -0.4466  0.9552 -0.8714
  210MOL0     H28289   0.052   8.420   2.976 -0.0730 -2.2130  0.3100
  210MOL0     H28290   0.001   8.461   3.136  0.7699  0.5407  0.5333
  210MOL0     H28291   0.224   8.555   3.194  4.8073  1.2314 -1.9136
  210MOL0     H28292   0.276   8.527   3.034  0.8949 -0.8392  0.2384
  210MOL0     H28293   0.084   8.680   2.944 -0.3304  1.0431 -0.1086
  210MOL0     H28294   0.015   8.694   3.108 -1.7506  2.2990 -3.1231
  210MOL0     H28295   0.222   8.828   3.188 -1.5145 -1.5169  0.4671
  210MOL0     H28296   0.286   8.804   3.026  0.2029 -1.9213 -0.5261
  210MOL0     H28297   0.118   8.965   2.941 -0.6914 -2.1618  0.5759
  210MOL0     H28298   0.012   8.928   3.078  0.1693  0.7480  2.4693
  210MOL0     H28299   0.173   9.068   3.224  0.7497 -3.0269 -0.0838
  210MOL0     H28300   0.113   9.177   3.097 -0.8669 -0.3610 -0.8783
  210MOL0     H28301   0.417   8.970   3.201  1.1351  0.3188  0.2980
  210MOL0     H28302   0.650   8.945   3.129 -2.1725  0.2865 -0.0645
  210MOL0     H28303   0.730   9.064   3.014  1.1930 -2.6143 -0.1183
  210MOL0     H28304   0.824   9.071   3.240  0.1087  0.7159 -1.7972
  210MOL0     H28305   0.671   9.106   3.312  2.1955  2.5533  1.0325
  210MOL0     H28306   0.663   9.314   3.223 -2.0225 -2.4425 -0.5737
  210MOL0     H28307   0.783   9.275   3.092  1.5830 -0.4775  0.7408
  210MOL0     H28308   0.951   9.251   3.274 -0.5892  0.4209 -1.3469
  210MOL0     H28309   0.821   9.282   3.388  0.0462 -4.1945 -0.4377
  210MOL0     H28310   1.134   9.467   3.369  3.5079 -1.9482 -0.4136
  210MOL0     H28311   1.345   9.560   3.396 -0.0235 -3.7792 -0.7716
  210MOL0     H28312   1.442   9.550   3.250 -3.5211 -3.1284 -2.0409
  210MOL0     H28313   1.367   9.712   3.296 -2.4154  0.5219  3.5090
  210MOL0     H28314   1.309   9.645   2.618  0.5454 -1.2163  1.7725
  210MOL0     H28315   1.456   9.777   2.449 -0.6634 -1.0037 -0.4796
  210MOL0     H28316   1.874   9.760   2.538 -2.4958 -0.7345 -0.5704
  210MOL0     H28317   1.841   9.788   2.362 -1.8474 -0.3133 -1.0064
  210MOL0     H28318   1.896  10.000   2.567 -1.4344 -0.9998  0.0580
  210MOL0     H28319   2.013   9.933   2.432 -0.6861 -4.3378 -0.9187
  210MOL0     H28320   1.778  10.105   2.421 -0.9035 -1.3323  1.4714
  210MOL0     H28321   1.817  10.019   2.274  0.7287  1.9388 -0.5864
  210MOL0     H28322   1.897  10.250   2.299 -0.2060 -1.1571  0.0219
  210MOL0     H28323   2.008  10.209   2.422  0.6370  1.6997 -1.1834
  210MOL0     H28324   2.031  10.098   2.133 -2.4332 -0.1854  0.6633
  210MOL0     H28325   2.130  10.065   2.272  0.0843  0.4004 -0.0664
  210MOL0     H28326   2.132  10.344   2.141  1.2865  1.7819  1.6606
  210MOL0     H28327   2.185  10.312   2.304 -0.2021 -0.9010 -0.4376
  210MOL0     H28328   2.280  10.149   2.070 -0.1543 -1.8010  2.3849
  210MOL0     H28329   2.363  10.168   2.225  4.3323 -0.3992 -3.7434
  210MOL0     H28330   2.412  10.399   2.178  1.8605 -0.3232  1.1903
  210MOL0     H28331   2.357  10.372   2.005 -0.6630 -0.3677  0.3933
  210MOL0     H28332   1.757   9.806   2.746 -0.5175 -2.0484  3.8707
  210MOL0     H28333   1.618   9.723   2.913  3.6439  0.9866 -1.5086
  210MOL0     H28334   1.112   9.604   2.897  2.8834 -1.1243 -0.7509
  210MOL0     H28335   0.911   9.511   3.001 -0.1911 -1.1389  2.2458
  210MOL0     H28336   0.505   8.160   2.946 -4.2703  0.0725  1.0665
  210MOL0     H28337   0.731   8.093   2.988 -2.0119  0.2861 -2.3968
  210MOL0     H28338   1.058   7.981   3.121 -0.9756 -0.1226  0.7235
  210MOL0     H28339   1.293   7.971   3.158 -0.0385 -2.5335 -5.3806
  210MOL0     H28340   1.493   7.980   3.249 -1.7417  0.9416  1.9285
  210MOL0     H28341   1.483   7.941   3.408  3.4536  1.0365  1.8286
  210MOL0     H28342   1.683   7.755   3.365  0.4507 -1.9819 -2.0486
  210MOL0     H28343   1.718   7.929   3.352  1.3795  0.3124 -0.6306
  210MOL0     H28344   1.703   7.935   3.124  0.5206 -0.1538  0.1912
  210MOL0     H28345   1.651   7.769   3.098  1.6193  1.2608 -2.6642
  210MOL0     H28346   1.846   7.693   3.229 -2.4506 -0.3944 -1.4577
  210MOL0     H28347   1.922   7.858   3.221  0.9266  1.0159 -2.2655
  210MOL0     H28348   2.040   7.674   2.867  2.4966  0.2441  0.9731
  210MOL0     H28349   1.256   7.613   3.390  1.0607  0.1905  1.0880
  210MOL0     H28350   0.992   7.645   3.378 -0.9708  1.8231  2.1233
  211MOL0     O28351   9.018   1.856   0.972 -0.0940  0.4999  0.2062
  211MOL0     C28352   9.076   1.763   1.015 -0.5742 -0.3447  0.0890
  211MOL0     O28353   9.027   1.638   1.044  0.1484 -0.4002 -0.6354
  211MOL0     C28354   8.895   1.608   0.999 -0.2792  0.2882  0.5270
  211MOL0     C28355   8.776   1.683   1.019  0.5625 -0.2885  1.0247
  211MOL0     C28356   8.655   1.637   0.978  0.9513  0.4221  0.3217
  211MOL0     C28357   8.645   1.516   0.910 -0.5842  0.2032 -0.6994
  211MOL0     O28358   8.520   1.479   0.870  0.2260  0.3022  0.0996
  211MOL0     C28359   8.505   1.376   0.768  0.0323  0.2861 -1.2105
  211MOL0     C28360   8.353   1.367   0.731 -0.1268  0.3789 -0.0679
  211MOL0     C28361   8.266   1.338   0.852 -0.1435 -0.4300 -0.7826
  211MOL0     C28362   8.150   1.254   0.823  0.2393 -0.7226  0.3232
  211MOL0     C28363   8.070   1.229   0.952  0.0089  0.0656  0.3413
  211MOL0     C28364   7.965   1.123   0.920 -0.1474 -0.9512  0.0853
  211MOL0     C28365   7.855   1.101   1.025 -0.2976 -0.9281  0.2539
  211MOL0     C28366   7.757   1.223   1.035 -0.2583 -1.0264 -0.2693
  211MOL0     N28367   7.690   1.251   0.914 -0.8086  0.2977  0.4756
  211MOL0     C28368   7.640   1.165   0.815 -0.1083  0.0318 -0.0912
  211MOL0     C28369   7.607   1.241   0.705 -0.8148  0.4957 -0.2776
  211MOL0     C28370   7.538   1.184   0.579  0.6541 -0.5321 -0.6080
  211MOL0     C28371   7.409   1.112   0.601  0.1409  0.2296 -0.1046
  211MOL0     C28372   7.340   1.095   0.468 -1.2063 -0.1416  0.4279
  211MOL0     C28373   7.194   1.043   0.470 -0.6332 -0.2444 -0.8357
  211MOL0     O28374   7.118   1.146   0.527 -0.2319  0.2610  0.5157
  211MOL0     C28375   6.986   1.111   0.539 -0.3782 -0.9091 -0.0222
  211MOL0     C28376   6.911   1.049   0.441  0.7253 -0.3632 -0.2664
  211MOL0     C28377   6.767   1.023   0.467 -1.4454 -0.4118  0.0303
  211MOL0     C28378   6.685   0.957   0.366  0.6234 -0.4630 -0.2976
  211MOL0     C28379   6.708   1.057   0.593 -0.2037  0.4955  0.2756
  211MOL0     C28380   6.565   1.038   0.620  1.1228 -0.5433  0.3072
  211MOL0     O28381   6.494   1.142   0.672 -0.6251  0.0836  0.7653
  211MOL0     C28382   6.369   1.130   0.714 -0.0548  0.4853 -0.0455
  211MOL0     C28383   6.263   1.081   0.638  0.8179  0.4459  0.0211
  211MOL0     C28384   6.128   1.075   0.690  0.1414 -0.2442 -0.9812
  211MOL0     C28385   6.097   1.115   0.815 -0.1519 -0.0408  0.2176
  211MOL0     O28386   5.970   1.122   0.859  0.1993  0.2473 -0.3112
  211MOL0     C28387   5.954   1.120   1.006  1.1367 -1.0927  0.0360
  211MOL0     C28388   5.805   1.090   1.038 -0.4872  0.6923  1.0297
  211MOL0     C28389   5.788   1.091   1.181 -1.1012 -0.4054  0.5312
  211MOL0     C28390   5.742   1.226   1.220 -0.1318 -0.2516 -0.5853
  211MOL0     C28391   5.675   1.235   1.365  1.0052 -0.4046  0.1348
  211MOL0     C28392   5.615   1.373   1.408  0.1197  0.7905 -0.3293
  211MOL0     C28393   5.530   1.346   1.535 -0.4831  0.4799 -0.1456
  211MOL0     C28394   5.481   1.475   1.599  0.6559 -0.2950  1.0908
  211MOL0    Cl28395   5.361   1.582   1.496  0.0090 -0.2217 -0.1489
  211MOL0     C28396   6.206   1.163   0.896 -0.1352 -0.9234  0.0783
  211MOL0     C28397   6.335   1.172   0.842  0.9336 -0.7010 -0.2034
  211MOL0     O28398   6.522   0.930   0.600  0.3975  0.2913  0.6084
  211MOL0     C28399   6.790   1.127   0.685  0.1757 -0.8617 -0.2438
  211MOL0     C28400   6.929   1.141   0.666  0.3439  0.4313  0.9911
  211MOL0     N28401   7.638   1.368   0.739 -0.2808 -0.1783  0.5644
  211MOL0     N28402   7.694   1.375   0.854  0.5775 -0.2725  0.3058
  211MOL0     C28403   8.759   1.437   0.883  0.2327 -0.0755 -0.3409
  211MOL0     C28404   8.882   1.487   0.927  0.0005  0.5762  0.9853
  211MOL0     C28405   9.213   1.793   1.049  0.1557 -0.4700 -0.1729
  211MOL0     C28406   9.290   1.896   0.990 -1.2606  0.2973  0.4563
  211MOL0     C28407   9.424   1.915   1.026  0.2528 -1.1271 -0.9287
  211MOL0     C28408   9.481   1.839   1.131  0.8987 -0.2894  1.0511
  211MOL0     O28409   9.613   1.845   1.162 -0.4534  0.0709  0.3006
  211MOL0     C28410   9.642   1.821   1.298 -0.1788 -0.0439 -0.6865
  211MOL0     C28411   9.746   1.705   1.292  0.0189 -0.8121 -0.3590
  211MOL0     C28412   9.809   1.662   1.423  0.5361  0.0090  0.3566
  211MOL0     C28413   9.906   1.764   1.465  0.4014 -0.7064  0.3452
  211MOL0     C28414   9.963   1.716   1.592  0.4566 -0.6489 -0.0900
  211MOL0     C28415  10.014   1.683   1.696  0.5417  0.3520 -0.0880
  211MOL0     C28416   9.404   1.730   1.173 -0.5910  0.0182 -0.2183
  211MOL0     C28417   9.270   1.711   1.149 -0.0693 -0.3001  0.7658
  211MOL0     H28418   8.762   1.778   1.069  0.7911 -0.5483  1.5823
  211MOL0     H28419   8.568   1.694   1.008  1.0808  0.2193  1.1034
  211MOL0     H28420   8.565   1.386   0.677 -1.5839 -0.3997 -2.3813
  211MOL0     H28421   8.526   1.272   0.793  1.7143  0.4131 -1.9140
  211MOL0     H28422   8.322   1.459   0.681  0.2448 -0.3656 -1.7534
  211MOL0     H28423   8.341   1.278   0.669  2.4233  0.2018 -0.4448
  211MOL0     H28424   8.323   1.293   0.934 -1.6386  0.4527  0.7971
  211MOL0     H28425   8.232   1.432   0.897  5.1619  2.3275 -1.7883
  211MOL0     H28426   8.081   1.298   0.750 -0.2654  0.3629  1.4144
  211MOL0     H28427   8.193   1.158   0.795  3.9505  1.2204 -1.3843
  211MOL0     H28428   8.142   1.198   1.028  1.3430  1.4635 -0.2997
  211MOL0     H28429   8.014   1.318   0.984  1.4355  1.3378 -0.5314
  211MOL0     H28430   7.906   1.131   0.828  1.9272  0.3727 -1.1901
  211MOL0     H28431   8.021   1.029   0.911  0.7675 -0.4697  0.6868
  211MOL0     H28432   7.795   1.014   0.997 -2.2883 -0.3632  2.3562
  211MOL0     H28433   7.888   1.081   1.128  0.3265 -1.8703 -0.1167
  211MOL0     H28434   7.803   1.313   1.077 -0.3557  0.0002 -2.2844
  211MOL0     H28435   7.688   1.184   1.111 -1.4537 -3.0004 -2.2543
  211MOL0     H28436   7.639   1.056   0.818  3.8194 -0.1472 -0.0636
  211MOL0     H28437   7.512   1.272   0.519 -0.4431 -0.0238  0.5659
  211MOL0     H28438   7.610   1.123   0.523  1.4623 -1.7249  1.6154
  211MOL0     H28439   7.350   1.165   0.677  0.6419  0.6540 -0.0081
  211MOL0     H28440   7.421   1.012   0.642 -2.7899  0.2443  1.0606
  211MOL0     H28441   7.388   1.009   0.422 -0.8798 -0.5923  1.5649
  211MOL0     H28442   7.348   1.182   0.402  0.5211  2.0219  3.2520
  211MOL0     H28443   7.189   0.965   0.546  0.0590  2.4852  2.2159
  211MOL0     H28444   7.162   1.001   0.374  0.5695  0.3197 -1.5221
  211MOL0     H28445   6.947   1.022   0.342 -0.3872  2.1351 -1.4229
  211MOL0     H28446   6.612   0.887   0.409 -1.1490  1.3705 -0.1631
  211MOL0     H28447   6.619   1.028   0.315  0.9964  0.7757  0.9054
  211MOL0     H28448   6.745   0.907   0.289 -0.3124  1.0058 -2.0759
  211MOL0     H28449   6.268   1.067   0.531 -0.1604  1.1186 -0.1145
  211MOL0     H28450   6.049   1.047   0.621  0.3909  1.4449 -2.0176
  211MOL0     H28451   6.027   1.052   1.053  1.4465 -0.4852  0.4558
  211MOL0     H28452   5.973   1.220   1.046  1.2578 -1.4077  0.7960
  211MOL0     H28453   5.739   1.153   0.977  1.1444  0.2992 -1.2574
  211MOL0     H28454   5.781   0.992   0.995 -1.6513  1.9348 -1.3164
  211MOL0     H28455   5.871   1.042   1.232  1.2362  2.7862  0.1285
  211MOL0     H28456   5.704   1.025   1.205 -0.6995 -0.7741  0.9190
  211MOL0     H28457   5.817   1.303   1.204  1.8408 -2.2043 -1.3106
  211MOL0     H28458   5.655   1.255   1.161 -0.3414  0.8536  0.2527
  211MOL0     H28459   5.743   1.220   1.449  2.6181 -3.5630 -1.5206
  211MOL0     H28460   5.599   1.157   1.369  0.5466  0.0974  3.8464
  211MOL0     H28461   5.694   1.440   1.443 -0.1675  0.9408  0.0300
  211MOL0     H28462   5.548   1.407   1.328 -1.4196  0.4465  0.7913
  211MOL0     H28463   5.592   1.295   1.610 -0.6080  0.7474  0.1400
  211MOL0     H28464   5.444   1.279   1.528 -0.7441  0.9482 -1.8529
  211MOL0     H28465   5.578   1.525   1.611  2.7154 -3.4328 -0.8718
  211MOL0     H28466   5.435   1.449   1.695 -2.0114  4.2135  1.3155
  211MOL0     H28467   6.187   1.202   0.996  1.3571  1.6244 -0.5323
  211MOL0     H28468   6.417   1.217   0.897 -0.2679  2.3515 -0.7005
  211MOL0     H28469   6.753   1.151   0.784  0.4552 -2.8170  0.3742
  211MOL0     H28470   6.987   1.182   0.749  1.1667 -0.6372  0.9608
  211MOL0     H28471   8.755   1.353   0.815  1.2693  0.6762 -1.3776
  211MOL0     H28472   8.970   1.427   0.906  0.5944  2.4958 -2.9254
  211MOL0     H28473   9.250   1.973   0.925 -0.1988  0.1499 -0.4064
  211MOL0     H28474   9.477   1.998   0.981 -3.0052  0.0317 -2.9586
  211MOL0     H28475   9.698   1.901   1.346  2.2687 -2.6651  1.1692
  211MOL0     H28476   9.561   1.791   1.366  0.2639  0.0121 -0.1275
  211MOL0     H28477   9.831   1.736   1.231  0.5729 -3.6067 -1.1358
  211MOL0     H28478   9.688   1.627   1.242  0.1736 -0.8868 -0.4208
  211MOL0     H28479   9.865   1.568   1.414  0.9923  0.1917  1.1889
  211MOL0     H28480   9.731   1.642   1.498  0.2674 -4.0935 -0.7835
  211MOL0     H28481   9.859   1.861   1.482  0.2519 -0.3317 -1.8617
  211MOL0     H28482   9.988   1.775   1.393  0.8599  1.5548  1.1368
  211MOL0     H28483  10.044   1.658   1.796  2.1010  2.0845 -0.0714
  211MOL0     H28484   9.453   1.657   1.237  1.1996 -1.0436 -2.6360
  211MOL0     H28485   9.218   1.639   1.212 -1.1405 -2.7553 -2.6324
  212MOL0     O28486   6.843   9.465   5.091 -1.2443 -0.1422  0.0383
  212MOL0     C28487   6.899   9.416   5.185 -0.5447 -0.6503 -0.7250
  212MOL0     O28488   6.849   9.409   5.311 -0.4277 -0.1468  0.5152
  212MOL0     C28489   6.722   9.454   5.336  0.0337 -0.3723 -0.1347
  212MOL0     C28490   6.611   9.380   5.301  0.0181  0.0440 -0.5696
  212MOL0     C28491   6.487   9.438   5.326  0.0661 -0.6710 -0.0377
  212MOL0     C28492   6.468   9.572   5.364  0.2853 -1.1620  0.3619
  212MOL0     O28493   6.338   9.627   5.349  0.0310 -0.1283 -0.1454
  212MOL0     C28494   6.301   9.756   5.396 -0.1140 -0.2570 -0.4825
  212MOL0     C28495   6.161   9.751   5.450  0.3171  0.3489  0.7837
  212MOL0     C28496   6.144   9.662   5.577  0.4590  0.4543 -0.0043
  212MOL0     C28497   6.018   9.691   5.657 -0.0150 -0.0902 -0.8545
  212MOL0     C28498   6.012   9.601   5.785 -0.2610  0.1299 -0.4491
  212MOL0     C28499   5.886   9.619   5.873  0.6579  0.6124 -0.5232
  212MOL0     C28500   5.755   9.586   5.792 -0.5493  1.3214 -0.6240
  212MOL0     C28501   5.633   9.597   5.897 -0.2213  0.1649  0.0924
  212MOL0     N28502   5.505   9.609   5.830  0.3788  0.6982 -0.4154
  212MOL0     C28503   5.429   9.499   5.820 -0.1344  0.1647 -0.3575
  212MOL0     C28504   5.313   9.555   5.782 -0.3861  0.9677  0.6382
  212MOL0     C28505   5.188   9.478   5.744 -0.6638  0.1541  0.2047
  212MOL0     C28506   5.155   9.393   5.862 -0.1360 -0.5580 -0.1519
  212MOL0     C28507   5.020   9.320   5.840  0.0255  0.9457  0.5762
  212MOL0     C28508   5.033   9.205   5.736  0.1458 -1.1483 -1.0346
  212MOL0     O28509   4.934   9.108   5.764 -0.1096  0.0292 -0.2749
  212MOL0     C28510   4.963   8.984   5.725 -0.3387  1.0277 -0.4341
  212MOL0     C28511   4.894   8.871   5.776 -0.9406 -1.2341 -0.1885
  212MOL0     C28512   4.918   8.736   5.743 -0.0043 -0.4419  0.6216
  212MOL0     C28513   4.837   8.635   5.823 -0.7745  0.3131  0.5230
  212MOL0     C28514   5.008   8.710   5.640  0.2759 -0.3693  0.9673
  212MOL0     C28515   5.033   8.571   5.586  0.0892 -0.8850 -1.0647
  212MOL0     O28516   5.144   8.560   5.507  0.3311  0.6036 -0.1274
  212MOL0     C28517   5.176   8.445   5.445 -0.3958 -0.5812 -0.3061
  212MOL0     C28518   5.231   8.451   5.320 -0.2558  0.9768  0.7548
  212MOL0     C28519   5.268   8.334   5.254 -0.3516  0.4432 -0.5918
  212MOL0     C28520   5.258   8.210   5.319 -0.2455  0.1995  0.1151
  212MOL0     O28521   5.299   8.092   5.264 -0.1332  0.4358 -0.6531
  212MOL0     C28522   5.357   8.094   5.130  0.1490  0.4563  1.0364
  212MOL0     C28523   5.412   7.949   5.099  0.6729  0.3437  0.0052
  212MOL0     C28524   5.509   7.934   4.978 -0.1522 -0.1350 -0.2608
  212MOL0     C28525   5.634   8.012   5.012  0.2356 -0.5152  0.0143
  212MOL0     C28526   5.748   7.967   4.923 -0.1905 -0.4609  0.9798
  212MOL0     C28527   5.871   8.032   4.969  0.3469 -0.3031 -0.5156
  212MOL0     C28528   5.993   8.022   4.872 -0.1068  0.2618  0.2638
  212MOL0     C28529   6.092   7.913   4.882 -0.2598  0.9692  0.0318
  212MOL0    Cl28530   6.041   7.749   4.834  0.3572 -0.1306 -0.0556
  212MOL0     C28531   5.205   8.207   5.449 -0.7940  1.2784  1.2126
  212MOL0     C28532   5.170   8.323   5.513  0.5623  0.1713 -0.9042
  212MOL0     O28533   4.964   8.476   5.623  0.5403  0.8580  0.6203
  212MOL0     C28534   5.081   8.815   5.579  0.4122 -0.8301  0.5329
  212MOL0     C28535   5.065   8.944   5.635  0.0243  0.8446  0.7549
  212MOL0     N28536   5.326   9.695   5.775  0.3147 -0.2799 -0.8128
  212MOL0     N28537   5.441   9.728   5.807  0.9558 -0.4018  0.4199
  212MOL0     C28538   6.586   9.633   5.420 -0.3518  0.1563 -0.3375
  212MOL0     C28539   6.715   9.577   5.403 -0.9981 -0.0877  0.0725
  212MOL0     C28540   7.038   9.359   5.162  0.6818  0.1204 -0.0398
  212MOL0     C28541   7.096   9.370   5.038  0.4746  0.3537  0.7736
  212MOL0     C28542   7.237   9.343   5.012  0.1831  0.2819 -0.8036
  212MOL0     C28543   7.306   9.282   5.115  0.3109 -0.2283  0.2192
  212MOL0     O28544   7.431   9.226   5.111  0.2227  0.0639 -0.7999
  212MOL0     C28545   7.521   9.270   5.007  1.4254 -0.0067 -0.3752
  212MOL0     C28546   7.664   9.209   5.036  0.5212  0.2697 -0.0737
  212MOL0     C28547   7.660   9.054   5.045 -0.4172 -0.1369  1.3703
  212MOL0     C28548   7.640   8.995   4.899  0.5257 -0.3849 -0.2241
  212MOL0     C28549   7.727   8.881   4.861  0.3816 -0.8228  0.0273
  212MOL0     C28550   7.777   8.776   4.822 -0.7919 -0.4867  1.6631
  212MOL0     C28551   7.244   9.260   5.240  0.6490 -0.1258 -0.2540
  212MOL0     C28552   7.115   9.298   5.269 -0.3632  0.4076  0.4746
  212MOL0     H28553   6.631   9.281   5.263  0.2979 -1.0687  2.2682
  212MOL0     H28554   6.394   9.390   5.297 -0.1894  0.4321 -1.1140
  212MOL0     H28555   6.376   9.791   5.467 -1.1551 -1.0483  1.0531
  212MOL0     H28556   6.303   9.833   5.318 -1.4299  1.0420  0.7044
  212MOL0     H28557   6.134   9.856   5.460  0.7961  0.8965 -2.6207
  212MOL0     H28558   6.093   9.711   5.375  0.7452 -1.1965  1.1733
  212MOL0     H28559   6.142   9.555   5.553 -1.1333  0.0818  1.5397
  212MOL0     H28560   6.224   9.667   5.652  1.3213 -3.5585 -0.4470
  212MOL0     H28561   6.022   9.794   5.693 -2.8230  0.0198 -0.6046
  212MOL0     H28562   5.929   9.676   5.595 -1.1198  0.5088  0.5496
  212MOL0     H28563   6.023   9.494   5.762 -3.2157  0.2574 -3.0087
  212MOL0     H28564   6.099   9.625   5.847 -0.0465 -0.7987 -0.3665
  212MOL0     H28565   5.906   9.560   5.963  0.8705  0.7635 -0.4701
  212MOL0     H28566   5.880   9.723   5.906  0.2047 -0.0012  1.4754
  212MOL0     H28567   5.736   9.663   5.717  0.0019  1.1582 -0.9374
  212MOL0     H28568   5.752   9.484   5.753 -0.6264  1.0194  0.1610
  212MOL0     H28569   5.654   9.685   5.958  0.1821  1.0165 -1.2165
  212MOL0     H28570   5.647   9.505   5.954  1.3872  0.2605 -0.1010
  212MOL0     H28571   5.453   9.397   5.848 -1.0668  0.1571  0.4616
  212MOL0     H28572   5.105   9.548   5.732  0.2889  1.1216 -0.9901
  212MOL0     H28573   5.203   9.419   5.653  0.0269  0.1501  0.3169
  212MOL0     H28574   5.141   9.445   5.957 -2.6278 -1.4011  0.0102
  212MOL0     H28575   5.234   9.319   5.880 -0.8001 -1.8881 -2.3522
  212MOL0     H28576   4.959   9.400   5.798  1.0930 -0.9287 -5.5922
  212MOL0     H28577   4.987   9.283   5.937 -3.7296 -1.3157 -1.2905
  212MOL0     H28578   5.133   9.163   5.751  1.6163  2.1927 -0.6026
  212MOL0     H28579   5.027   9.242   5.634  0.2025 -3.1109 -1.7876
  212MOL0     H28580   4.800   8.890   5.827  0.1913  2.9967  0.6589
  212MOL0     H28581   4.908   8.573   5.879 -1.6599  0.0066  1.3260
  212MOL0     H28582   4.779   8.685   5.900  1.0238  4.4426 -0.5228
  212MOL0     H28583   4.760   8.580   5.768  0.2263 -1.3788  0.7419
  212MOL0     H28584   5.249   8.552   5.285 -1.8493  1.0054 -0.0772
  212MOL0     H28585   5.301   8.349   5.151 -1.5957  2.3206 -0.7706
  212MOL0     H28586   5.279   8.103   5.053 -0.4935 -2.8454  1.1533
  212MOL0     H28587   5.438   8.162   5.102  0.7031 -0.9028 -0.9482
  212MOL0     H28588   5.470   7.920   5.187  1.4351  1.8323  0.0229
  212MOL0     H28589   5.322   7.887   5.091  2.3709 -2.1243 -1.1118
  212MOL0     H28590   5.471   7.977   4.884  1.7602  1.6654 -0.2741
  212MOL0     H28591   5.535   7.828   4.967  2.5178  0.6001 -1.9281
  212MOL0     H28592   5.608   8.114   4.983 -2.4931 -0.5753  1.8676
  212MOL0     H28593   5.659   8.024   5.118 -1.6906  0.4571  0.3906
  212MOL0     H28594   5.726   7.984   4.817  0.4485  0.8879  1.0315
  212MOL0     H28595   5.765   7.861   4.939  0.1209 -0.1985  2.6161
  212MOL0     H28596   5.831   8.133   4.980  0.7189 -0.1675 -0.3808
  212MOL0     H28597   5.892   7.992   5.069 -4.3742 -0.2987  0.7198
  212MOL0     H28598   6.038   8.121   4.868 -1.5417  1.2031  3.6234
  212MOL0     H28599   5.949   8.026   4.772  2.4643 -0.6375 -0.9988
  212MOL0     H28600   6.124   7.905   4.986  0.0030 -0.8768 -0.1542
  212MOL0     H28601   6.176   7.936   4.816 -2.0438  2.7462 -1.7641
  212MOL0     H28602   5.196   8.106   5.488  0.0442  0.3339 -0.8528
  212MOL0     H28603   5.143   8.317   5.618  2.3235  4.3332 -0.0180
  212MOL0     H28604   5.166   8.806   5.514  0.9777  0.6964  0.9995
  212MOL0     H28605   5.127   9.022   5.592 -0.0148 -0.4425 -1.7911
  212MOL0     H28606   6.589   9.734   5.459  1.7465  0.0558 -0.1244
  212MOL0     H28607   6.802   9.636   5.432 -1.1954  0.3120 -0.1384
  212MOL0     H28608   7.040   9.412   4.956 -2.8834 -3.2733  0.8928
  212MOL0     H28609   7.278   9.366   4.914 -0.3404  1.3708 -0.7897
  212MOL0     H28610   7.485   9.235   4.909 -0.0530 -2.3520  0.9175
  212MOL0     H28611   7.521   9.379   5.007 -0.8992  0.0371  0.7044
  212MOL0     H28612   7.695   9.257   5.130 -0.5888  2.6575 -0.8451
  212MOL0     H28613   7.734   9.247   4.962 -1.7939  1.9536 -1.5260
  212MOL0     H28614   7.576   9.017   5.105  0.7199 -2.2109  1.7990
  212MOL0     H28615   7.751   9.019   5.096 -1.3458 -0.7836  2.6604
  212MOL0     H28616   7.642   9.072   4.821 -2.9895  2.3164  2.0413
  212MOL0     H28617   7.541   8.951   4.887  1.2966 -2.1092 -0.6462
  212MOL0     H28618   7.822   8.685   4.788 -2.7954 -1.4872  1.5485
  212MOL0     H28619   7.301   9.228   5.326 -0.5762  1.3107  1.1709
  212MOL0     H28620   7.075   9.282   5.369 -1.2928 -0.8653 -0.0783
  213MOL0     O28621   0.122   5.452  10.790  0.3492  0.6766  0.4157
  213MOL0     C28622   0.034   5.522  10.759  0.0711 -0.0579 -0.2124
  213MOL0     O28623  -0.105   5.487  10.746  0.3186 -0.1157  0.6890
  213MOL0     C28624  -0.167   5.364  10.760  0.3159 -0.1114  0.4490
  213MOL0     C28625  -0.104   5.242  10.793  0.2168 -0.0939 -0.0940
  213MOL0     C28626  -0.180   5.130  10.805  0.4649  0.0828  0.6357
  213MOL0     C28627  -0.320   5.125  10.789 -0.2826 -0.6878  0.4580
  213MOL0     O28628  -0.397   5.012  10.800 -0.7500 -0.3535  0.0365
  213MOL0     C28629  -0.382   4.934  10.923 -0.6885 -0.3419  0.1886
  213MOL0     C28630  -0.365   4.793  10.877 -0.1799  0.4715 -0.3258
  213MOL0     C28631  -0.493   4.747  10.798 -0.1031 -0.3823  0.1668
  213MOL0     C28632  -0.473   4.605  10.735  0.4882 -0.1336  0.0987
  213MOL0     C28633  -0.368   4.597  10.621  0.2336 -0.2691  0.4987
  213MOL0     C28634  -0.266   4.480  10.646  0.1246  0.1639  1.1338
  213MOL0     C28635  -0.141   4.484  10.555  0.1041  0.4497 -0.5067
  213MOL0     C28636  -0.181   4.453  10.408  0.4562  0.9320  0.2199
  213MOL0     N28637  -0.203   4.308  10.397  0.5945 -0.3972 -1.4789
  213MOL0     C28638  -0.324   4.243  10.391 -1.2334  0.0511  0.4271
  213MOL0     C28639  -0.290   4.107  10.394  0.0164  0.0644 -0.2673
  213MOL0     C28640  -0.370   3.985  10.374 -0.2123 -0.7870  0.0337
  213MOL0     C28641  -0.504   3.990  10.444 -0.9614  0.0814  0.9519
  213MOL0     C28642  -0.575   3.865  10.420 -0.2812 -0.2985  0.0225
  213MOL0     C28643  -0.705   3.865  10.498 -0.4219  0.0716  0.3389
  213MOL0     O28644  -0.797   3.953  10.435  0.5399  0.0452 -0.4002
  213MOL0     C28645  -0.929   3.950  10.472 -0.5303  0.0674 -0.3110
  213MOL0     C28646  -0.972   3.882  10.586 -0.2753 -0.3850 -0.0730
  213MOL0     C28647  -1.101   3.894  10.632  0.6167  0.0506  1.0650
  213MOL0     C28648  -1.142   3.829  10.768 -0.1395 -0.4136  0.5497
  213MOL0     C28649  -1.187   3.977  10.560 -0.0788 -0.0923 -0.2060
  213MOL0     C28650  -1.327   4.000  10.597 -0.5466  1.1974  0.0663
  213MOL0     O28651  -1.362   4.068  10.711 -0.2866 -0.1146  0.2974
  213MOL0     C28652  -1.473   4.053  10.792 -0.1781  0.5486  0.7435
  213MOL0     C28653  -1.471   4.121  10.917 -0.0915  0.9021  0.1446
  213MOL0     C28654  -1.586   4.120  11.008 -0.2241 -0.5080  0.3323
  213MOL0     C28655  -1.694   4.044  10.961  1.0016  0.3856 -0.4747
  213MOL0     O28656  -1.805   4.050  11.047 -0.0638  0.7673 -0.6040
  213MOL0     C28657  -1.900   3.945  11.034  0.0809  0.0389  0.0415
  213MOL0     C28658  -2.027   3.980  10.952 -0.7614  0.7970  0.3495
  213MOL0     C28659  -2.106   4.096  11.013 -0.2928 -0.3894  0.9815
  213MOL0     C28660  -2.045   4.239  10.990 -0.3585 -0.7711  0.0963
  213MOL0     C28661  -2.159   4.335  10.952 -0.1864 -0.5700 -0.5226
  213MOL0     C28662  -2.231   4.376  11.078  0.7069 -0.0511 -0.1111
  213MOL0     C28663  -2.366   4.447  11.045 -0.1081 -0.2663  0.4745
  213MOL0     C28664  -2.477   4.351  11.037  0.9653  0.2989 -0.7508
  213MOL0    Cl28665  -2.617   4.407  10.944  0.0498 -0.4648  0.1491
  213MOL0     C28666  -1.693   3.983  10.835  0.4828  0.4432  0.5916
  213MOL0     C28667  -1.589   3.990  10.746  0.0979 -0.1683  0.1393
  213MOL0     O28668  -1.409   3.946  10.522 -0.6545  0.2287 -0.1704
  213MOL0     C28669  -1.141   4.059  10.448 -0.0181  0.5744  0.1433
  213MOL0     C28670  -1.014   4.035  10.407 -0.6697  0.2945 -0.7630
  213MOL0     N28671  -0.153   4.108  10.398  0.2655 -0.4119  0.5594
  213MOL0     N28672  -0.102   4.224  10.399 -0.4197 -0.0448 -0.1246
  213MOL0     C28673  -0.385   5.254  10.758  0.9359  1.0951  0.5234
  213MOL0     C28674  -0.312   5.366  10.750 -0.2734 -0.8066  0.9678
  213MOL0     C28675   0.067   5.661  10.709  0.9695  0.0284 -0.3894
  213MOL0     C28676  -0.034   5.765  10.706  0.2017 -0.2029 -0.2473
  213MOL0     C28677  -0.008   5.888  10.647 -0.6023  0.4111 -0.6705
  213MOL0     C28678   0.117   5.918  10.600 -0.2240 -0.4299 -0.5192
  213MOL0     O28679   0.123   6.047  10.558  0.2206  0.4782  0.4256
  213MOL0     C28680   0.250   6.113  10.555 -0.2911  0.1208  0.9091
  213MOL0     C28681   0.224   6.262  10.546  0.2856 -0.5977  0.4436
  213MOL0     C28682   0.153   6.304  10.403 -0.2594  0.6585 -0.3946
  213MOL0     C28683   0.214   6.437  10.347 -0.3147 -0.4044  0.2766
  213MOL0     C28684   0.162   6.552  10.419 -0.3091 -1.1177 -0.1473
  213MOL0     C28685   0.110   6.649  10.473 -0.4737  0.2884 -0.7235
  213MOL0     C28686   0.222   5.827  10.617  0.8003 -0.3734  0.8314
  213MOL0     C28687   0.192   5.694  10.667  0.0354 -0.6008 -0.5091
  213MOL0     H28688   0.002   5.239  10.815 -0.5471 -1.6788  4.6266
  213MOL0     H28689  -0.122   5.041  10.828  0.1995 -0.7052 -1.5032
  213MOL0     H28690  -0.299   4.970  10.985 -0.9154 -0.5811  0.6346
  213MOL0     H28691  -0.475   4.950  10.980 -1.0814  0.9596 -0.7559
  213MOL0     H28692  -0.271   4.779  10.823 -0.5463 -1.0697 -0.6111
  213MOL0     H28693  -0.370   4.727  10.964 -2.5509  0.6159 -0.2961
  213MOL0     H28694  -0.573   4.728  10.870  0.7880 -4.3546  0.3862
  213MOL0     H28695  -0.516   4.823  10.723 -0.0225 -0.2485  0.2781
  213MOL0     H28696  -0.446   4.552  10.827  0.7673 -0.8498 -0.3803
  213MOL0     H28697  -0.574   4.583  10.701 -0.2224  0.9768  1.4114
  213MOL0     H28698  -0.416   4.585  10.523  0.9975 -0.7779  0.1857
  213MOL0     H28699  -0.316   4.693  10.618 -0.1581 -0.0206  1.3615
  213MOL0     H28700  -0.225   4.499  10.746  5.2846  0.9521 -0.8153
  213MOL0     H28701  -0.305   4.381  10.622  3.6467 -1.1900  0.3828
  213MOL0     H28702  -0.099   4.585  10.567 -0.6946  0.5806  1.6764
  213MOL0     H28703  -0.071   4.412  10.598  1.6037  1.9263 -0.3763
  213MOL0     H28704  -0.095   4.491  10.351  3.3208  2.4182  4.9429
  213MOL0     H28705  -0.271   4.511  10.385  0.5611  1.8443  1.9769
  213MOL0     H28706  -0.424   4.285  10.399 -1.2763 -0.1991  1.4068
  213MOL0     H28707  -0.393   3.968  10.269 -0.6279  1.1548 -0.2420
  213MOL0     H28708  -0.309   3.904  10.413 -0.9367 -1.0255  0.6958
  213MOL0     H28709  -0.560   4.076  10.406 -2.3655 -1.2987 -0.2507
  213MOL0     H28710  -0.506   4.004  10.553 -1.5234  0.6309  0.8759
  213MOL0     H28711  -0.516   3.777  10.447  0.7028  0.4731  0.4276
  213MOL0     H28712  -0.606   3.858  10.315  0.2090  1.4629 -0.2721
  213MOL0     H28713  -0.691   3.895  10.602 -2.7056  2.3516  0.0795
  213MOL0     H28714  -0.743   3.763  10.501  0.0621 -0.1543 -0.7086
  213MOL0     H28715  -0.906   3.820  10.645  0.8120  0.5376 -0.2839
  213MOL0     H28716  -1.210   3.897  10.819  0.5676  0.4532  0.3668
  213MOL0     H28717  -1.208   3.744  10.752 -0.2767 -0.0883 -0.7841
  213MOL0     H28718  -1.056   3.795  10.826 -0.7090 -0.1672  1.5587
  213MOL0     H28719  -1.387   4.185  10.943  0.7403 -0.5415  1.1604
  213MOL0     H28720  -1.597   4.174  11.102  0.1162  1.0097 -0.4585
  213MOL0     H28721  -1.857   3.851  10.995  1.9512  0.6874  0.4405
  213MOL0     H28722  -1.935   3.938  11.137  0.2424  0.2083  0.1091
  213MOL0     H28723  -2.009   3.980  10.844 -1.4400  0.7520  0.2256
  213MOL0     H28724  -2.090   3.890  10.953  0.7908 -0.3387  2.6531
  213MOL0     H28725  -2.111   4.085  11.122 -0.6534  1.0946  1.1376
  213MOL0     H28726  -2.211   4.082  10.984 -0.4769  0.2844  1.3108
  213MOL0     H28727  -2.007   4.276  11.086  0.2452  0.4685 -0.5981
  213MOL0     H28728  -1.957   4.235  10.925 -0.5246  0.4541 -0.2202
  213MOL0     H28729  -2.223   4.280  10.883 -1.0966  2.7101 -2.5215
  213MOL0     H28730  -2.126   4.425  10.900  0.8364  0.4829  1.8025
  213MOL0     H28731  -2.236   4.290  11.146 -0.5649  0.5383  0.5662
  213MOL0     H28732  -2.166   4.444  11.134  1.1552 -1.8311  1.6547
  213MOL0     H28733  -2.359   4.495  10.947 -3.4825 -0.9207 -0.1919
  213MOL0     H28734  -2.391   4.530  11.113  1.1782  0.9912 -0.5264
  213MOL0     H28735  -2.524   4.331  11.133  0.4856  0.5327 -0.9359
  213MOL0     H28736  -2.448   4.253  10.996  0.2515  0.0701 -0.7184
  213MOL0     H28737  -1.769   3.916  10.794 -0.4416  0.0096  2.8717
  213MOL0     H28738  -1.591   3.932  10.655 -1.1879 -0.6324  0.4491
  213MOL0     H28739  -1.202   4.127  10.390 -1.4156 -1.2239 -0.5956
  213MOL0     H28740  -0.983   4.078  10.312 -0.4896  1.2037 -0.2980
  213MOL0     H28741  -0.492   5.249  10.739  0.8396  1.3332  1.0090
  213MOL0     H28742  -0.367   5.458  10.734 -0.2391 -0.9583 -0.1086
  213MOL0     H28743  -0.132   5.725  10.730  0.3466  1.1129  2.9818
  213MOL0     H28744  -0.085   5.958  10.616 -0.2429  1.7065  1.2026
  213MOL0     H28745   0.307   6.104  10.648 -1.6988 -1.8183  1.6379
  213MOL0     H28746   0.305   6.068  10.471 -0.1696  1.6778  0.0969
  213MOL0     H28747   0.322   6.310  10.553  0.9085 -1.2830 -2.3014
  213MOL0     H28748   0.161   6.295  10.629  0.0937  0.1411  0.0153
  213MOL0     H28749   0.046   6.319  10.414 -0.7361 -2.0256 -0.7259
  213MOL0     H28750   0.152   6.216  10.339 -1.3348  0.4687 -0.1291
  213MOL0     H28751   0.175   6.444  10.245 -2.6388 -2.6860  0.8758
  213MOL0     H28752   0.323   6.445  10.349 -0.3438 -0.0520  0.6418
  213MOL0     H28753   0.082   6.728  10.539 -0.2676 -1.0951  1.0992
  213MOL0     H28754   0.319   5.861  10.580  0.9967  0.2644  1.9014
  213MOL0     H28755   0.278   5.628  10.668 -0.8130 -1.7385 -1.5229
  214MOL0     O28756   4.469   4.557   3.881 -0.1009 -0.2491  0.0886
  214MOL0     C28757   4.514   4.447   3.850  0.1816  0.2265 -0.8986
  214MOL0     O28758   4.446   4.352   3.787 -0.2855  0.1437 -0.0599
  214MOL0     C28759   4.324   4.378   3.729  1.1224  0.3284 -0.6083
  214MOL0     C28760   4.305   4.356   3.594 -0.5110 -0.3396  0.5657
  214MOL0     C28761   4.189   4.393   3.527  0.6454  0.4882 -1.2343
  214MOL0     C28762   4.081   4.445   3.596  0.2035 -0.0958  0.4852
  214MOL0     O28763   3.960   4.489   3.557 -0.4422 -0.0328  0.7469
  214MOL0     C28764   3.918   4.454   3.425  0.3497  0.1282 -0.0272
  214MOL0     C28765   3.840   4.331   3.420  0.5101  1.2736  0.5591
  214MOL0     C28766   3.698   4.345   3.483 -0.3813  0.6801 -0.3346
  214MOL0     C28767   3.605   4.225   3.457  0.5447 -0.1372 -0.2987
  214MOL0     C28768   3.469   4.235   3.537 -0.3767  0.5202 -0.6464
  214MOL0     C28769   3.365   4.139   3.474  0.1078 -0.0558 -0.5469
  214MOL0     C28770   3.250   4.141   3.569  0.8118  0.5282  0.2681
  214MOL0     C28771   3.144   4.034   3.530  1.1648  0.2682 -0.1497
  214MOL0     N28772   3.022   4.073   3.604  0.1873  0.2341 -0.4180
  214MOL0     C28773   2.986   4.022   3.729  0.5153  0.4524  0.0177
  214MOL0     C28774   2.855   4.057   3.745  0.1547  0.2151 -0.3081
  214MOL0     C28775   2.775   3.983   3.850 -0.0467 -0.5905 -0.4343
  214MOL0     C28776   2.797   3.835   3.836 -0.7240  0.3657 -0.2470
  214MOL0     C28777   2.709   3.776   3.942  0.2887 -0.7091 -0.1359
  214MOL0     C28778   2.703   3.632   3.914  0.4307  0.5732  0.5270
  214MOL0     O28779   2.635   3.555   4.020  0.4302 -0.4608  0.4817
  214MOL0     C28780   2.500   3.546   4.013  0.9493 -0.7971 -0.5689
  214MOL0     C28781   2.428   3.626   4.105  0.8541  0.4857 -0.1625
  214MOL0     C28782   2.284   3.628   4.113 -0.4471 -0.8497 -0.5556
  214MOL0     C28783   2.225   3.714   4.231 -0.2589 -0.1571 -0.3635
  214MOL0     C28784   2.212   3.557   4.005 -0.0622 -0.0740  0.1109
  214MOL0     C28785   2.063   3.535   4.000 -1.0027  0.2741 -0.0177
  214MOL0     O28786   1.990   3.588   4.099 -0.0866 -0.3170  0.5673
  214MOL0     C28787   1.853   3.605   4.098  0.7694 -0.0308  0.5470
  214MOL0     C28788   1.760   3.589   3.999  0.1462  0.0281  0.4266
  214MOL0     C28789   1.622   3.614   4.020  0.5005 -0.0074 -0.0946
  214MOL0     C28790   1.577   3.657   4.144  0.0164 -0.5073 -1.2179
  214MOL0     O28791   1.450   3.682   4.178  1.0117  0.2066 -0.1320
  214MOL0     C28792   1.411   3.801   4.109 -0.0957 -0.7984 -0.6062
  214MOL0     C28793   1.257   3.799   4.118  0.4549  0.4814 -0.2876
  214MOL0     C28794   1.221   3.837   4.263  0.1293  1.4959 -1.0376
  214MOL0     C28795   1.075   3.881   4.277 -0.0834 -0.5804  0.5612
  214MOL0     C28796   0.975   3.763   4.254  0.9601 -0.7692 -0.1563
  214MOL0     C28797   0.828   3.825   4.263  0.1909  0.0718 -0.2465
  214MOL0     C28798   0.729   3.741   4.195 -0.1265 -0.2347  0.1030
  214MOL0     C28799   0.725   3.602   4.240  0.4824 -0.4590 -0.4743
  214MOL0    Cl28800   0.561   3.521   4.200 -0.1331  0.4701 -0.0182
  214MOL0     C28801   1.669   3.667   4.246 -1.1172 -0.1080  0.6987
  214MOL0     C28802   1.805   3.640   4.223  0.1024  0.2753  0.4670
  214MOL0     O28803   2.020   3.480   3.895 -0.1960  0.1877 -0.1046
  214MOL0     C28804   2.289   3.490   3.906  0.3623  0.1506  0.2541
  214MOL0     C28805   2.432   3.485   3.904  0.0580 -0.5128 -0.6476
  214MOL0     N28806   2.805   4.115   3.634 -0.1545  0.2469  0.3425
  214MOL0     N28807   2.903   4.120   3.552  0.5227 -0.4270  0.2636
  214MOL0     C28808   4.097   4.466   3.733 -0.3961  0.4799 -0.6262
  214MOL0     C28809   4.215   4.434   3.800  0.2772 -0.9127 -0.5442
  214MOL0     C28810   4.659   4.432   3.872 -0.4631  0.1149 -0.4867
  214MOL0     C28811   4.756   4.528   3.860 -0.0993  0.0363  0.2334
  214MOL0     C28812   4.894   4.506   3.880  0.1467 -0.1308  1.2285
  214MOL0     C28813   4.942   4.380   3.899 -0.1277  0.0414 -1.4278
  214MOL0     O28814   5.071   4.353   3.932 -1.0479 -0.0434  0.1466
  214MOL0     C28815   5.106   4.232   4.001 -0.5794  0.9721 -0.1134
  214MOL0     C28816   5.024   4.212   4.141  0.5116 -0.3410  0.6542
  214MOL0     C28817   5.001   4.336   4.233  0.4329  0.1494  0.5194
  214MOL0     C28818   5.129   4.418   4.255 -0.2353 -1.1603 -1.3695
  214MOL0     C28819   5.226   4.355   4.344 -0.9553 -0.5643 -0.2209
  214MOL0     C28820   5.310   4.313   4.427  0.8409 -0.9666 -0.5329
  214MOL0     C28821   4.844   4.275   3.897  0.6659 -0.3904 -0.0830
  214MOL0     C28822   4.707   4.298   3.887  0.5497 -0.0641 -0.8155
  214MOL0     H28823   4.383   4.308   3.536 -0.5507 -0.8721  0.9459
  214MOL0     H28824   4.181   4.384   3.419 -0.9376 -2.8739 -0.9425
  214MOL0     H28825   3.856   4.542   3.404  2.1399  1.3520 -0.4223
  214MOL0     H28826   3.997   4.441   3.351 -0.6289 -1.1704 -0.8965
  214MOL0     H28827   3.839   4.305   3.314  1.4985 -1.0250  1.0603
  214MOL0     H28828   3.894   4.250   3.468  0.0564  1.0137  0.6372
  214MOL0     H28829   3.718   4.355   3.590  0.3453  1.3025 -0.5235
  214MOL0     H28830   3.655   4.442   3.457  1.3034  1.8032  0.8469
  214MOL0     H28831   3.584   4.227   3.350 -0.4325 -0.4815 -0.1255
  214MOL0     H28832   3.658   4.134   3.486 -0.4410 -0.3919  0.8165
  214MOL0     H28833   3.482   4.201   3.641  1.6438  0.1667 -0.9672
  214MOL0     H28834   3.432   4.337   3.534 -2.1627  0.0146  1.7595
  214MOL0     H28835   3.339   4.169   3.372  2.4316 -1.4520 -1.6522
  214MOL0     H28836   3.419   4.045   3.459 -0.0415  0.0363 -1.7985
  214MOL0     H28837   3.282   4.113   3.669 -0.5679 -0.6286  0.4215
  214MOL0     H28838   3.212   4.243   3.581 -0.8079 -0.1909  1.7568
  214MOL0     H28839   3.180   3.939   3.569 -1.5790 -0.3330  1.1889
  214MOL0     H28840   3.129   4.040   3.422  2.2463 -0.3064 -0.3402
  214MOL0     H28841   3.046   3.954   3.790  0.1412 -0.8897 -1.0539
  214MOL0     H28842   2.811   4.020   3.947  0.3169 -0.7666 -0.4987
  214MOL0     H28843   2.667   3.996   3.837  0.1409  0.6714 -0.8196
  214MOL0     H28844   2.900   3.798   3.837 -1.5527 -2.1276 -0.0890
  214MOL0     H28845   2.756   3.802   3.740 -0.9637 -0.8657  0.2607
  214MOL0     H28846   2.608   3.811   3.920  1.0390  0.9565 -1.0687
  214MOL0     H28847   2.734   3.795   4.046 -0.2088 -1.4196  0.1263
  214MOL0     H28848   2.806   3.604   3.890  0.6982  2.3144 -0.5921
  214MOL0     H28849   2.654   3.608   3.819 -1.3314  0.7359  1.3474
  214MOL0     H28850   2.484   3.685   4.177  0.6687 -1.7426  1.9466
  214MOL0     H28851   2.200   3.645   4.313 -0.8735  1.8181  1.2027
  214MOL0     H28852   2.299   3.789   4.262  0.6332 -1.4958  0.8868
  214MOL0     H28853   2.129   3.755   4.198 -1.1568 -1.1062  0.9525
  214MOL0     H28854   1.795   3.556   3.901 -0.0483  0.6710  0.1394
  214MOL0     H28855   1.551   3.605   3.939 -0.7048 -1.9682  1.1098
  214MOL0     H28856   1.465   3.891   4.138 -1.0973 -0.2265 -0.4691
  214MOL0     H28857   1.439   3.791   4.003 -0.0878  0.1567 -0.7020
  214MOL0     H28858   1.222   3.876   4.049 -1.7772  0.9194  1.2240
  214MOL0     H28859   1.216   3.701   4.091 -0.7231  1.4626 -2.3006
  214MOL0     H28860   1.287   3.918   4.298  2.1514 -0.5926  0.2537
  214MOL0     H28861   1.235   3.751   4.329  0.8954  1.4676 -1.2287
  214MOL0     H28862   1.063   3.932   4.373  0.8410 -0.5445  0.6658
  214MOL0     H28863   1.065   3.956   4.199  1.5663 -1.3700 -0.4597
  214MOL0     H28864   0.986   3.688   4.333 -0.2309  0.0780  0.8492
  214MOL0     H28865   0.996   3.725   4.153 -0.5244  1.3443 -1.3572
  214MOL0     H28866   0.795   3.851   4.364 -1.3471 -2.4551 -0.0019
  214MOL0     H28867   0.831   3.916   4.204 -0.3602  0.1570 -0.1550
  214MOL0     H28868   0.748   3.727   4.088 -0.3067 -1.6115  0.2310
  214MOL0     H28869   0.632   3.788   4.214  1.1245  2.1535  0.9938
  214MOL0     H28870   0.724   3.601   4.350 -1.5429  1.3216 -0.4111
  214MOL0     H28871   0.814   3.547   4.208  1.6986 -0.1252  2.0537
  214MOL0     H28872   1.640   3.705   4.344 -2.2695  0.2157  0.2405
  214MOL0     H28873   1.861   3.664   4.313 -0.9080  0.8756  0.9512
  214MOL0     H28874   2.240   3.436   3.826  1.5155 -1.2839  0.4861
  214MOL0     H28875   2.482   3.425   3.829 -0.0679 -0.7312 -0.5575
  214MOL0     H28876   4.009   4.509   3.780 -1.2468  0.2760 -1.9719
  214MOL0     H28877   4.226   4.451   3.907 -2.2796 -0.5455 -0.2599
  214MOL0     H28878   4.715   4.624   3.832  1.0929  0.3572 -0.5264
  214MOL0     H28879   4.961   4.591   3.875  2.5706 -1.9028  1.8943
  214MOL0     H28880   5.097   4.145   3.935 -0.5765 -1.1688  2.5332
  214MOL0     H28881   5.213   4.234   4.022  0.5972 -6.0084 -2.7211
  214MOL0     H28882   5.077   4.139   4.203 -2.2386 -1.6123  1.6602
  214MOL0     H28883   4.928   4.163   4.128  1.1430 -2.6472  3.6778
  214MOL0     H28884   4.957   4.303   4.327 -2.1441  0.4104 -0.4964
  214MOL0     H28885   4.933   4.400   4.175 -0.1746  0.7140  1.8051
  214MOL0     H28886   5.099   4.515   4.295 -0.9827 -1.8027 -0.3348
  214MOL0     H28887   5.181   4.445   4.163  1.5006 -2.2756 -0.7512
  214MOL0     H28888   5.373   4.276   4.505  1.2691  3.6214  1.6426
  214MOL0     H28889   4.887   4.175   3.900  2.4192  0.3045 -0.6622
  214MOL0     H28890   4.637   4.215   3.886 -0.0867  0.4036  1.4283
  215MOL0     O28891   3.359  10.000   7.422  0.0086  0.0617 -0.2184
  215MOL0     C28892   3.457   9.962   7.482  0.2787 -0.0783 -0.1031
  215MOL0     O28893   3.462   9.853   7.560 -0.1431 -0.5726  0.3247
  215MOL0     C28894   3.348   9.786   7.586  0.0341 -1.0424 -0.3923
  215MOL0     C28895   3.270   9.828   7.697 -0.3719 -0.2507  0.7024
  215MOL0     C28896   3.162   9.753   7.745 -0.7186  0.3745 -0.2640
  215MOL0     C28897   3.134   9.631   7.688  0.3253  0.4027  0.7426
  215MOL0     O28898   3.026   9.541   7.721  0.3747 -0.0415  0.3143
  215MOL0     C28899   2.914   9.602   7.777 -0.0046  0.2618  0.1387
  215MOL0     C28900   2.793   9.515   7.760  0.5494  0.3297  0.2605
  215MOL0     C28901   2.811   9.384   7.828  0.1363  0.0751 -0.7904
  215MOL0     C28902   2.686   9.342   7.899  0.5492  0.8317 -0.3246
  215MOL0     C28903   2.704   9.219   7.984  0.2658  0.7456 -0.2891
  215MOL0     C28904   2.563   9.174   8.048 -0.4176 -0.3254 -0.0597
  215MOL0     C28905   2.589   9.066   8.161 -0.6741  0.4259  0.0693
  215MOL0     C28906   2.460   9.023   8.228 -0.4114  0.3406  0.4148
  215MOL0     N28907   2.331   9.046   8.154 -0.3686 -0.3882 -0.0514
  215MOL0     C28908   2.242   8.948   8.109  0.6662 -0.6668  0.3227
  215MOL0     C28909   2.130   9.015   8.080  0.0387  0.5610 -0.5421
  215MOL0     C28910   1.982   8.958   8.069  0.3802  0.0467 -0.4603
  215MOL0     C28911   1.939   8.972   7.926  0.2757  0.4168  0.2264
  215MOL0     C28912   1.799   8.903   7.908 -0.3008  0.1787 -0.8818
  215MOL0     C28913   1.807   8.752   7.902 -0.3016  0.2907  0.4055
  215MOL0     O28914   1.866   8.688   7.781  0.3341  0.4959 -0.1510
  215MOL0     C28915   2.000   8.659   7.767 -0.1254 -0.5426  0.2994
  215MOL0     C28916   2.104   8.666   7.860 -0.4800  0.1093  0.3607
  215MOL0     C28917   2.231   8.621   7.824 -0.2652  1.5786  0.2007
  215MOL0     C28918   2.322   8.624   7.941 -0.8398  0.5612  0.1038
  215MOL0     C28919   2.251   8.560   7.700 -0.7451 -0.4460  0.0281
  215MOL0     C28920   2.386   8.503   7.658 -0.7947  0.1871  0.5220
  215MOL0     O28921   2.386   8.398   7.566 -1.0904 -0.3004 -0.1676
  215MOL0     C28922   2.498   8.388   7.485 -0.0669  0.2244  0.2160
  215MOL0     C28923   2.603   8.300   7.509  0.2243  0.6884  0.6412
  215MOL0     C28924   2.711   8.294   7.422  0.0791 -0.8025 -0.5494
  215MOL0     C28925   2.716   8.372   7.308  0.2272  1.2308 -0.0282
  215MOL0     O28926   2.817   8.355   7.214  0.7924  0.5188 -0.3842
  215MOL0     C28927   2.947   8.331   7.262  0.7818 -0.3640 -0.4469
  215MOL0     C28928   3.023   8.250   7.152  0.4565  0.2504 -0.2618
  215MOL0     C28929   3.139   8.178   7.212 -0.2981  0.3033 -0.8736
  215MOL0     C28930   3.257   8.273   7.251  0.0132 -0.0396 -0.5363
  215MOL0     C28931   3.344   8.214   7.371 -0.4809 -0.1548  0.3268
  215MOL0     C28932   3.433   8.103   7.312 -1.4486 -0.0963 -0.0558
  215MOL0     C28933   3.484   8.016   7.429 -0.2881 -0.5026 -0.4295
  215MOL0     C28934   3.603   7.928   7.393  0.4917  1.0934  0.1754
  215MOL0    Cl28935   3.674   7.854   7.552  0.1428 -0.4085  0.2433
  215MOL0     C28936   2.604   8.452   7.275  0.3828  0.5462 -0.1900
  215MOL0     C28937   2.495   8.456   7.364  0.4121  0.9642 -0.0540
  215MOL0     O28938   2.491   8.562   7.688  0.8664  0.2567 -0.8075
  215MOL0     C28939   2.150   8.561   7.613  0.7139  0.3802  0.7242
  215MOL0     C28940   2.026   8.599   7.650 -0.1670 -0.5388 -0.1807
  215MOL0     N28941   2.154   9.155   8.095 -0.3176  0.2996  0.4077
  215MOL0     N28942   2.274   9.169   8.144 -0.4918 -0.5421 -0.2818
  215MOL0     C28943   3.214   9.589   7.579  0.3488 -0.2323 -0.4697
  215MOL0     C28944   3.319   9.668   7.529  0.4995 -0.3810 -0.2934
  215MOL0     C28945   3.577  10.044   7.470 -0.1132  0.6060 -0.4960
  215MOL0     C28946   3.601  10.130   7.362 -0.7163  1.7534  0.2176
  215MOL0     C28947   3.717  10.216   7.363  0.3399  0.0535 -0.2999
  215MOL0     C28948   3.816  10.192   7.460 -0.0560 -0.0791  0.5368
  215MOL0     O28949   3.940  10.259   7.445  0.5409 -0.2567  0.3795
  215MOL0     C28950   3.931  10.388   7.507 -0.0080  0.7235  0.7152
  215MOL0     C28951   4.052  10.474   7.487  0.1795  0.0119  0.3402
  215MOL0     C28952   4.169  10.418   7.579  0.3277  0.0908  0.6944
  215MOL0     C28953   4.292  10.503   7.561  0.7519 -0.3652 -0.0332
  215MOL0     C28954   4.414  10.476   7.634 -0.0351 -0.2045 -0.3060
  215MOL0     C28955   4.524  10.464   7.689 -0.0384  0.5515  0.0097
  215MOL0     C28956   3.793  10.099   7.567 -0.2080 -0.4726  0.0053
  215MOL0     C28957   3.673  10.032   7.574 -0.3678 -0.0718  0.1619
  215MOL0     H28958   3.297   9.916   7.755 -1.3925  1.2301 -0.9569
  215MOL0     H28959   3.101   9.787   7.828  0.6746 -1.8733  1.7671
  215MOL0     H28960   2.932   9.620   7.884  3.9876 -0.8323 -0.2195
  215MOL0     H28961   2.889   9.697   7.729 -1.1332 -0.0022  0.1683
  215MOL0     H28962   2.714   9.576   7.805  1.2803  0.8648  0.8530
  215MOL0     H28963   2.766   9.496   7.656 -0.1160 -0.9803  0.6508
  215MOL0     H28964   2.837   9.301   7.762  0.0231 -3.3919  3.1134
  215MOL0     H28965   2.891   9.386   7.903  1.5098  1.1942 -2.2012
  215MOL0     H28966   2.641   9.424   7.956 -4.2697 -0.3921 -1.8965
  215MOL0     H28967   2.609   9.317   7.825  1.3872  0.1680 -0.9873
  215MOL0     H28968   2.746   9.132   7.933  0.5800  0.4223  0.5016
  215MOL0     H28969   2.773   9.256   8.061  3.8585 -1.9507 -1.9221
  215MOL0     H28970   2.513   9.266   8.081 -2.2631 -1.6284  0.9008
  215MOL0     H28971   2.501   9.118   7.978 -0.2984 -1.5125  0.7492
  215MOL0     H28972   2.621   8.972   8.115  1.4639  0.3636  1.5403
  215MOL0     H28973   2.668   9.098   8.228 -0.7714 -0.1702  0.4772
  215MOL0     H28974   2.447   9.084   8.318  0.7420  0.4744  0.5043
  215MOL0     H28975   2.471   8.919   8.258 -0.4825 -0.3786 -1.8670
  215MOL0     H28976   2.257   8.841   8.119 -2.2294 -0.9765  2.4476
  215MOL0     H28977   1.977   8.853   8.098 -1.3105 -0.9101 -3.6373
  215MOL0     H28978   1.923   9.020   8.137  1.2287 -0.1917  0.5086
  215MOL0     H28979   2.017   8.911   7.878  0.8952  2.7344 -1.9432
  215MOL0     H28980   1.937   9.074   7.886 -1.1120  0.2023 -0.3056
  215MOL0     H28981   1.749   8.944   7.820  1.6677 -2.3933 -3.4164
  215MOL0     H28982   1.739   8.906   7.999  0.5457 -1.5210 -0.2227
  215MOL0     H28983   1.703   8.718   7.902 -0.0997 -0.3396  0.5324
  215MOL0     H28984   1.850   8.708   7.992  0.9266 -0.5062 -0.5413
  215MOL0     H28985   2.081   8.717   7.953 -1.5132  0.8477 -0.2767
  215MOL0     H28986   2.386   8.536   7.929 -3.2730 -1.1467 -1.3537
  215MOL0     H28987   2.370   8.722   7.939 -1.9748  1.1135 -0.5795
  215MOL0     H28988   2.268   8.615   8.036 -2.6527  0.6404 -0.8722
  215MOL0     H28989   2.601   8.231   7.593  0.1523  0.3738  0.3855
  215MOL0     H28990   2.775   8.207   7.431 -3.0887 -3.3120 -0.1801
  215MOL0     H28991   3.008   8.421   7.261  0.2761 -0.0191 -0.8700
  215MOL0     H28992   2.949   8.283   7.361 -5.7546 -0.5454  0.0719
  215MOL0     H28993   2.957   8.179   7.100 -2.7325  2.5826  0.2832
  215MOL0     H28994   3.056   8.320   7.075  3.7681 -1.3737 -0.5105
  215MOL0     H28995   3.179   8.105   7.142  2.3100  0.5896  0.2016
  215MOL0     H28996   3.118   8.117   7.300  3.1436 -0.1085 -0.2094
  215MOL0     H28997   3.322   8.287   7.164  0.5818 -0.9086 -0.2691
  215MOL0     H28998   3.227   8.373   7.283  0.0655 -0.2604  0.2159
  215MOL0     H28999   3.274   8.184   7.450  0.0183  2.1291  1.7265
  215MOL0     H29000   3.420   8.286   7.402  1.6419 -3.0150  2.3307
  215MOL0     H29001   3.375   8.036   7.247 -2.4492 -0.3453  1.0597
  215MOL0     H29002   3.510   8.158   7.257  0.0951 -2.5577 -0.5139
  215MOL0     H29003   3.406   7.956   7.476  2.2238 -1.8618  2.3980
  215MOL0     H29004   3.514   8.085   7.509  0.8886  0.0179 -1.2834
  215MOL0     H29005   3.681   7.979   7.336  3.2340  0.0931  2.7455
  215MOL0     H29006   3.561   7.848   7.331  2.3479  0.6203 -0.5587
  215MOL0     H29007   2.607   8.503   7.179  2.3347  0.4923 -0.2046
  215MOL0     H29008   2.402   8.507   7.340  0.4495  0.5960 -1.0387
  215MOL0     H29009   2.169   8.527   7.511  0.8842  1.0230  0.5373
  215MOL0     H29010   1.949   8.600   7.574  0.2217  0.2137 -0.5787
  215MOL0     H29011   3.205   9.496   7.522 -3.3131  0.1767 -0.7669
  215MOL0     H29012   3.392   9.636   7.456 -0.1280  1.3991 -1.7891
  215MOL0     H29013   3.530  10.131   7.280  1.0328 -0.8392 -1.4921
  215MOL0     H29014   3.736  10.279   7.277 -0.1724 -3.2049 -3.0123
  215MOL0     H29015   3.839  10.435   7.472  0.5303  0.2374 -1.4698
  215MOL0     H29016   3.914  10.374   7.615 -1.6227  2.5883  0.7711
  215MOL0     H29017   4.025  10.578   7.507  2.2887  0.6758  0.0008
  215MOL0     H29018   4.084  10.471   7.382  1.5765 -3.9063  0.7073
  215MOL0     H29019   4.191  10.313   7.555  0.4109 -0.1230  1.6606
  215MOL0     H29020   4.139  10.416   7.684  2.5293 -2.4266  1.3924
  215MOL0     H29021   4.281  10.610   7.584  2.4675 -0.1643  0.0363
  215MOL0     H29022   4.312  10.503   7.454  0.5765 -2.0839 -0.0856
  215MOL0     H29023   4.607  10.467   7.756 -0.1200  2.3673  0.0667
  215MOL0     H29024   3.881  10.074   7.627  1.9114 -0.2980 -2.8166
  215MOL0     H29025   3.654   9.964   7.656 -0.8757  1.3918  1.3112
  216MOL0     O29026   1.600   5.681   4.340  0.3320  0.0227 -0.0377
  216MOL0     C29027   1.659   5.675   4.441  0.4366  0.2318 -1.1661
  216MOL0     O29028   1.599   5.695   4.567 -0.5338  0.0032  0.4033
  216MOL0     C29029   1.464   5.692   4.575  0.5134  0.9197  0.3683
  216MOL0     C29030   1.394   5.577   4.618  0.5562 -1.2000 -0.7053
  216MOL0     C29031   1.258   5.570   4.629  0.5317  1.1380  0.1842
  216MOL0     C29032   1.180   5.670   4.582 -0.2271  1.0987  0.7912
  216MOL0     O29033   1.042   5.694   4.596 -0.9432  0.1696  0.5343
  216MOL0     C29034   0.971   5.600   4.682  0.1937  0.0161 -0.4014
  216MOL0     C29035   0.835   5.670   4.710  0.0924  0.2786  0.9974
  216MOL0     C29036   0.760   5.724   4.583 -0.2382 -0.8581 -0.8387
  216MOL0     C29037   0.633   5.808   4.615  0.8875 -0.1754  0.5324
  216MOL0     C29038   0.517   5.815   4.510 -0.0203  0.1723  0.1084
  216MOL0     C29039   0.565   5.876   4.375  0.4088  0.6968 -0.7512
  216MOL0     C29040   0.441   5.888   4.281  1.0539 -0.1583  1.8256
  216MOL0     C29041   0.475   5.960   4.147 -0.3123 -0.0694 -0.9456
  216MOL0     N29042   0.351   5.979   4.073 -0.1630  0.4344 -0.4046
  216MOL0     C29043   0.284   5.877   4.011  0.7924  0.7298 -0.4781
  216MOL0     C29044   0.187   5.937   3.941  0.4694 -0.1452 -0.8188
  216MOL0     C29045   0.087   5.881   3.849 -0.0645 -0.1421 -1.0387
  216MOL0     C29046   0.141   5.880   3.701  0.0681  0.2313  0.4448
  216MOL0     C29047   0.038   5.804   3.610 -0.8177 -0.4478  0.3088
  216MOL0     C29048  -0.107   5.868   3.620 -0.2803 -0.3788 -0.5623
  216MOL0     O29049  -0.188   5.773   3.555 -0.2776 -0.6151 -0.3737
  216MOL0     C29050  -0.316   5.791   3.528 -0.2142 -0.8810 -0.3653
  216MOL0     C29051  -0.397   5.897   3.578 -1.1712  0.7318 -0.6224
  216MOL0     C29052  -0.526   5.914   3.540 -1.0971 -0.2379  0.2323
  216MOL0     C29053  -0.601   6.031   3.610  0.0518  0.0945  0.2298
  216MOL0     C29054  -0.575   5.831   3.432  0.8129 -0.6337  0.6889
  216MOL0     C29055  -0.710   5.855   3.378 -0.2438  0.2768  0.1092
  216MOL0     O29056  -0.809   5.876   3.477  0.1844 -0.5916  0.8840
  216MOL0     C29057  -0.933   5.916   3.438 -0.2263  0.3914 -0.3366
  216MOL0     C29058  -1.030   5.862   3.531  0.1281 -0.4229  0.3014
  216MOL0     C29059  -1.157   5.902   3.504  0.0259 -0.2382 -0.9214
  216MOL0     C29060  -1.189   5.982   3.398 -0.5009  0.5168  0.1554
  216MOL0     O29061  -1.322   6.025   3.389 -0.9742 -0.3530 -0.2083
  216MOL0     C29062  -1.354   6.153   3.347 -0.7941  0.0391  0.6684
  216MOL0     C29063  -1.504   6.158   3.340 -0.9471  0.0895  0.4179
  216MOL0     C29064  -1.577   6.149   3.465  0.7659  0.1783  0.2847
  216MOL0     C29065  -1.722   6.176   3.423  0.4287 -0.2074 -0.0518
  216MOL0     C29066  -1.828   6.155   3.536 -0.5837 -0.2377  0.6593
  216MOL0     C29067  -1.966   6.177   3.489 -0.0587 -0.6947 -0.0138
  216MOL0     C29068  -2.064   6.161   3.603  0.2465  0.0330  0.7314
  216MOL0     C29069  -2.212   6.193   3.559 -0.7828  0.1469 -0.4973
  216MOL0    Cl29070  -2.264   6.077   3.436  0.3960  0.0337  0.2994
  216MOL0     C29071  -1.094   6.038   3.312 -0.2439  0.3020  0.5986
  216MOL0     C29072  -0.967   5.992   3.329  0.3620  0.3508 -0.5983
  216MOL0     O29073  -0.728   5.833   3.260  0.0398  0.2430 -0.6192
  216MOL0     C29074  -0.497   5.736   3.376  0.6281  0.1395 -0.7761
  216MOL0     C29075  -0.368   5.711   3.427  0.4155  0.2284 -1.1991
  216MOL0     N29076   0.200   6.077   3.966  0.6767  0.7027 -0.3058
  216MOL0     N29077   0.294   6.100   4.050  0.3801 -0.0148  0.7588
  216MOL0     C29078   1.245   5.787   4.541 -0.5758  0.1090  0.0292
  216MOL0     C29079   1.382   5.796   4.525  0.4157 -0.1507 -0.6119
  216MOL0     C29080   1.805   5.664   4.426 -0.5128 -0.3282  0.4163
  216MOL0     C29081   1.862   5.638   4.299  0.0630  0.7556 -0.1413
  216MOL0     C29082   1.999   5.617   4.289 -0.1869  0.4945  0.9329
  216MOL0     C29083   2.089   5.620   4.406  0.3445 -1.2201  1.0858
  216MOL0     O29084   2.217   5.584   4.418 -0.5353 -0.3252  0.4961
  216MOL0     C29085   2.262   5.476   4.328  0.0184  0.0349 -0.1780
  216MOL0     C29086   2.344   5.546   4.217  0.2761  0.0025  0.6959
  216MOL0     C29087   2.488   5.582   4.268  0.1379  0.5671 -0.0503
  216MOL0     C29088   2.543   5.704   4.205 -0.0098 -0.4361 -0.0363
  216MOL0     C29089   2.693   5.686   4.200  0.3947 -0.2601  0.3245
  216MOL0     C29090   2.814   5.681   4.200 -0.3579  0.6949 -0.6925
  216MOL0     C29091   2.024   5.666   4.525 -0.5629  0.9856 -0.2472
  216MOL0     C29092   1.886   5.681   4.535  1.5034  0.0890  0.2542
  216MOL0     H29093   1.466   5.503   4.652  0.9309 -1.2345 -1.5467
  216MOL0     H29094   1.211   5.489   4.683  0.4927  0.5123 -0.7744
  216MOL0     H29095   0.954   5.503   4.635  2.8192 -1.4961  1.4997
  216MOL0     H29096   1.031   5.583   4.772 -2.1753  0.0956  1.2571
  216MOL0     H29097   0.772   5.600   4.765  1.1801  1.0442  3.3400
  216MOL0     H29098   0.848   5.758   4.775 -3.7142 -0.1684  2.6312
  216MOL0     H29099   0.820   5.803   4.537 -1.0814  1.8180  2.3080
  216MOL0     H29100   0.740   5.637   4.519 -0.2575 -1.8042  0.4150
  216MOL0     H29101   0.591   5.779   4.712  2.9923  1.1291  1.9118
  216MOL0     H29102   0.658   5.910   4.645  0.4595 -0.1713  0.8950
  216MOL0     H29103   0.482   5.713   4.495  1.4292 -0.1968 -1.0404
  216MOL0     H29104   0.437   5.880   4.547 -0.6154 -1.0003  0.9355
  216MOL0     H29105   0.616   5.969   4.401  0.9123  0.1940  0.0984
  216MOL0     H29106   0.636   5.804   4.333 -0.7973  0.8788 -3.3194
  216MOL0     H29107   0.388   5.794   4.264  1.2142 -0.0668  0.7224
  216MOL0     H29108   0.359   5.940   4.331 -0.7961  0.0385 -1.1520
  216MOL0     H29109   0.545   5.904   4.085 -0.2524  0.4142 -1.3200
  216MOL0     H29110   0.524   6.057   4.163  0.5076 -0.5366 -0.6039
  216MOL0     H29111   0.307   5.771   4.016 -2.7570 -0.1962 -1.0150
  216MOL0     H29112   0.055   5.786   3.891  0.3754  0.8611  1.8095
  216MOL0     H29113   0.002   5.950   3.855  0.9379  1.6987 -4.9332
  216MOL0     H29114   0.238   5.830   3.693 -1.0297 -1.8007 -1.0061
  216MOL0     H29115   0.139   5.980   3.657 -0.3098  0.4794  1.0147
  216MOL0     H29116   0.023   5.704   3.650 -2.0583 -0.6393 -0.5754
  216MOL0     H29117   0.067   5.784   3.506 -1.3497 -2.9433  0.5808
  216MOL0     H29118  -0.114   5.966   3.572 -1.6032 -1.1355 -1.9649
  216MOL0     H29119  -0.139   5.877   3.724  1.8863 -0.0879  0.1472
  216MOL0     H29120  -0.353   5.971   3.644  0.5469 -0.5230 -0.2777
  216MOL0     H29121  -0.670   5.999   3.688  1.1163 -0.1978  1.0761
  216MOL0     H29122  -0.537   6.098   3.668  0.9283 -1.5565  1.2322
  216MOL0     H29123  -0.659   6.088   3.537  0.4952 -1.6087 -1.5336
  216MOL0     H29124  -1.005   5.806   3.620 -1.2053 -1.7708 -0.1299
  216MOL0     H29125  -1.238   5.876   3.572  1.0058 -0.3378  0.2310
  216MOL0     H29126  -1.313   6.225   3.419 -3.4221  0.6444  1.7055
  216MOL0     H29127  -1.306   6.180   3.253 -1.7521  1.2443  0.5023
  216MOL0     H29128  -1.524   6.257   3.297  2.3597  1.0138  0.7604
  216MOL0     H29129  -1.543   6.075   3.280 -1.2257  1.6222 -1.6380
  216MOL0     H29130  -1.543   6.218   3.544  1.5538  0.6942 -0.4823
  216MOL0     H29131  -1.570   6.044   3.494 -0.5449  0.3395  1.3055
  216MOL0     H29132  -1.723   6.281   3.394  1.5392  0.2157  1.3391
  216MOL0     H29133  -1.757   6.121   3.335 -0.7960 -3.1234  2.0879
  216MOL0     H29134  -1.811   6.227   3.617 -0.6757  1.5459 -0.8354
  216MOL0     H29135  -1.828   6.053   3.577  3.1949 -1.3802 -1.6573
  216MOL0     H29136  -1.971   6.277   3.445 -0.2870 -0.4533  0.5493
  216MOL0     H29137  -1.993   6.112   3.406 -1.1378  2.8007 -2.6135
  216MOL0     H29138  -2.051   6.230   3.687  2.4012  1.1159 -0.3990
  216MOL0     H29139  -2.069   6.061   3.646  1.4942 -0.4821 -0.2695
  216MOL0     H29140  -2.213   6.294   3.519 -0.3677  0.8862  1.2372
  216MOL0     H29141  -2.281   6.195   3.644  1.3364 -0.2632  1.3441
  216MOL0     H29142  -1.114   6.098   3.224 -1.9353 -1.6526 -0.4379
  216MOL0     H29143  -0.894   6.022   3.254  2.3218 -0.4039  0.9233
  216MOL0     H29144  -0.542   5.694   3.286 -2.5896  1.0764  0.2851
  216MOL0     H29145  -0.305   5.639   3.375  1.6779 -0.1169  0.6945
  216MOL0     H29146   1.188   5.870   4.502  0.9852  1.4894  0.5739
  216MOL0     H29147   1.432   5.885   4.490 -0.1611  0.1733 -0.6174
  216MOL0     H29148   1.784   5.618   4.226 -0.5274 -3.2095  1.3379
  216MOL0     H29149   2.031   5.599   4.187 -0.0078 -0.7442  1.1845
  216MOL0     H29150   2.326   5.400   4.373  2.0350 -0.3338 -3.3456
  216MOL0     H29151   2.181   5.424   4.276 -0.2422  1.4861 -1.2765
  216MOL0     H29152   2.282   5.633   4.192  0.7517  0.0769 -0.2399
  216MOL0     H29153   2.359   5.484   4.129  0.8764  0.5807  0.3871
  216MOL0     H29154   2.548   5.491   4.259 -1.7733 -0.8715  1.1349
  216MOL0     H29155   2.494   5.601   4.375  0.2581 -0.6147  0.1689
  216MOL0     H29156   2.521   5.799   4.254 -0.2232  1.7784 -4.0041
  216MOL0     H29157   2.512   5.717   4.101  0.0960  0.4868  0.0399
  216MOL0     H29158   2.921   5.677   4.210 -0.5200 -1.5813  0.8112
  216MOL0     H29159   2.081   5.669   4.617 -1.9961 -1.2718  0.7920
  216MOL0     H29160   1.843   5.714   4.629  2.3537  1.0610  0.3171
  217MOL0     O29161   2.644   2.338   7.894 -0.8093 -0.7451 -0.0893
  217MOL0     C29162   2.742   2.301   7.825  0.3749 -0.3183 -0.7877
  217MOL0     O29163   2.736   2.250   7.699  0.7300 -0.6367  0.0350
  217MOL0     C29164   2.631   2.294   7.617  0.5215  0.2374  0.4958
  217MOL0     C29165   2.569   2.208   7.520 -0.2182 -0.4177 -0.4281
  217MOL0     C29166   2.470   2.255   7.434  0.4705  0.5445 -0.3445
  217MOL0     C29167   2.415   2.384   7.450  0.0797  0.8270 -0.3924
  217MOL0     O29168   2.306   2.432   7.384 -0.1116  0.0263  0.0195
  217MOL0     C29169   2.210   2.348   7.305 -0.2974  0.0046 -0.3773
  217MOL0     C29170   2.111   2.450   7.233  0.6055  0.1513 -0.8194
  217MOL0     C29171   2.014   2.366   7.148  0.0366  0.2153 -0.0313
  217MOL0     C29172   1.878   2.430   7.140 -0.5126 -0.3727  0.0227
  217MOL0     C29173   1.785   2.370   7.040 -0.2367 -0.9969 -0.6205
  217MOL0     C29174   1.659   2.464   7.050 -0.5780 -0.7283 -0.0779
  217MOL0     C29175   1.549   2.418   6.961  0.3843 -1.0306  0.6087
  217MOL0     C29176   1.580   2.432   6.811  0.0177 -0.3517  0.5077
  217MOL0     N29177   1.458   2.392   6.735  0.3507  0.5201  0.4004
  217MOL0     C29178   1.330   2.378   6.779  0.3220 -0.1876  0.7484
  217MOL0     C29179   1.258   2.321   6.683 -0.1940 -0.1519  1.4793
  217MOL0     C29180   1.118   2.284   6.695  0.4454  0.2035  0.7314
  217MOL0     C29181   1.030   2.396   6.638  0.7709 -0.6703  0.3662
  217MOL0     C29182   0.881   2.366   6.670  0.2405  1.1945  0.2669
  217MOL0     C29183   0.792   2.488   6.647 -0.6855 -0.2509  0.7518
  217MOL0     O29184   0.667   2.465   6.694  0.2205  0.3396  0.4466
  217MOL0     C29185   0.570   2.559   6.683  0.2056 -0.7352 -0.4047
  217MOL0     C29186   0.485   2.559   6.797 -0.1621 -0.1064  0.2721
  217MOL0     C29187   0.370   2.634   6.801  0.3044  0.4060 -0.8312
  217MOL0     C29188   0.283   2.616   6.930 -0.5799  0.4851  0.0644
  217MOL0     C29189   0.334   2.712   6.692 -0.6112 -0.5177  0.1794
  217MOL0     C29190   0.209   2.791   6.675  0.8054  0.0824  0.0612
  217MOL0     O29191   0.194   2.859   6.556 -0.2063  0.0478  0.0572
  217MOL0     C29192   0.071   2.892   6.507  0.0019 -0.1158 -0.5771
  217MOL0     C29193  -0.060   2.841   6.539 -0.5723 -0.0422 -0.1148
  217MOL0     C29194  -0.174   2.884   6.472  0.1542 -1.0884 -0.7082
  217MOL0     C29195  -0.168   2.995   6.381 -0.4598 -0.0334 -0.6010
  217MOL0     O29196  -0.275   3.048   6.317  0.3360 -0.1440 -0.7765
  217MOL0     C29197  -0.400   2.975   6.328  0.5536 -0.3436 -0.4310
  217MOL0     C29198  -0.385   2.865   6.228  0.3731  0.3753 -0.1734
  217MOL0     C29199  -0.514   2.792   6.218  0.3721 -0.2166  0.0092
  217MOL0     C29200  -0.519   2.701   6.089 -0.2521 -0.0613 -0.1244
  217MOL0     C29201  -0.672   2.658   6.066 -0.5481 -0.3140  0.9043
  217MOL0     C29202  -0.757   2.765   5.988  0.1309  1.3331  0.3748
  217MOL0     C29203  -0.863   2.712   5.890 -0.2204 -0.3847  0.0285
  217MOL0     C29204  -0.927   2.819   5.801  0.9120  0.5759  0.0247
  217MOL0    Cl29205  -1.058   2.747   5.703  0.0789  0.0496 -0.1291
  217MOL0     C29206  -0.047   3.041   6.342  0.3822 -0.1742 -0.5282
  217MOL0     C29207   0.068   2.993   6.413 -0.1226 -0.1972  0.3544
  217MOL0     O29208   0.123   2.796   6.764 -0.6990 -0.0572  0.2014
  217MOL0     C29209   0.428   2.724   6.581  0.0921 -0.7267 -0.5644
  217MOL0     C29210   0.532   2.634   6.574 -0.4374 -0.2161 -0.3851
  217MOL0     N29211   1.340   2.303   6.570  0.0717 -1.0206 -0.2228
  217MOL0     N29212   1.456   2.348   6.604 -0.9750  0.1556 -0.5150
  217MOL0     C29213   2.480   2.478   7.528  0.2823 -0.0981 -0.0204
  217MOL0     C29214   2.588   2.435   7.612 -0.7873  0.0170 -0.1983
  217MOL0     C29215   2.880   2.302   7.887  0.6765 -0.5999  0.3466
  217MOL0     C29216   2.992   2.240   7.823 -0.2123 -0.1589  0.6365
  217MOL0     C29217   3.115   2.247   7.890  0.0031 -0.1301 -0.5437
  217MOL0     C29218   3.132   2.323   8.009 -0.2590 -0.6453  0.0416
  217MOL0     O29219   3.249   2.351   8.060 -0.4173 -0.4043  0.2654
  217MOL0     C29220   3.282   2.268   8.172  0.3640 -0.0570  0.0254
  217MOL0     C29221   3.436   2.251   8.182 -0.3391 -0.5848  0.2318
  217MOL0     C29222   3.499   2.383   8.239 -0.3556  0.9692  0.2345
  217MOL0     C29223   3.642   2.362   8.294  0.0628  0.2468  0.3348
  217MOL0     C29224   3.719   2.253   8.234 -0.8495  0.0732  0.2134
  217MOL0     C29225   3.804   2.171   8.195 -0.0865 -0.1818  0.1102
  217MOL0     C29226   3.020   2.385   8.063  0.2326  0.2430  0.0992
  217MOL0     C29227   2.901   2.371   8.003  0.2379 -1.0506  1.1887
  217MOL0     H29228   2.592   2.102   7.528  0.4411 -0.1690  4.8432
  217MOL0     H29229   2.420   2.176   7.379  0.4098 -2.4465  3.6102
  217MOL0     H29230   2.269   2.291   7.233  0.9970 -0.2075  0.7990
  217MOL0     H29231   2.154   2.281   7.371  0.5764 -0.5768 -0.2106
  217MOL0     H29232   2.049   2.518   7.293  1.1819 -0.6350  0.7289
  217MOL0     H29233   2.171   2.511   7.165  1.1846 -0.6931 -1.0782
  217MOL0     H29234   2.054   2.356   7.047  0.5719  0.3531  0.1630
  217MOL0     H29235   2.009   2.264   7.187 -0.7209 -0.6587 -2.2644
  217MOL0     H29236   1.834   2.426   7.241  1.5832  1.4189  1.0710
  217MOL0     H29237   1.886   2.536   7.115  2.2710 -0.7785 -1.1567
  217MOL0     H29238   1.832   2.364   6.942 -1.1223 -2.0530 -1.0017
  217MOL0     H29239   1.756   2.267   7.062  0.5994 -1.0228  0.4097
  217MOL0     H29240   1.623   2.466   7.153 -2.4306 -1.2964 -0.6821
  217MOL0     H29241   1.693   2.567   7.034  2.8793 -1.8862 -0.9949
  217MOL0     H29242   1.532   2.314   6.989  1.0237 -1.6084 -1.0195
  217MOL0     H29243   1.462   2.477   6.990 -0.8054 -3.1519  1.5734
  217MOL0     H29244   1.666   2.372   6.781 -0.1164 -0.5966  0.6065
  217MOL0     H29245   1.597   2.537   6.787  0.5955 -0.6024 -0.2122
  217MOL0     H29246   1.290   2.407   6.875 -0.4353 -0.5934  0.5656
  217MOL0     H29247   1.097   2.195   6.635 -0.6782  2.0680 -1.8384
  217MOL0     H29248   1.104   2.265   6.801 -1.1421  0.5917  0.6215
  217MOL0     H29249   1.043   2.421   6.532 -0.9091 -0.7315  0.1153
  217MOL0     H29250   1.052   2.483   6.700 -0.2999  0.4722 -0.8021
  217MOL0     H29251   0.877   2.352   6.778  0.3070 -0.1692  0.1028
  217MOL0     H29252   0.848   2.274   6.621 -0.6451  0.4656  2.1664
  217MOL0     H29253   0.787   2.517   6.541 -1.1526 -1.6458  0.3800
  217MOL0     H29254   0.844   2.574   6.692 -0.3473  0.6084 -1.1537
  217MOL0     H29255   0.518   2.499   6.880  1.2602  1.9229  1.2749
  217MOL0     H29256   0.245   2.709   6.974 -1.3821  0.7149 -1.0825
  217MOL0     H29257   0.201   2.553   6.894  1.0336 -0.2652 -2.5549
  217MOL0     H29258   0.334   2.573   7.017 -1.2389 -1.1448 -0.3163
  217MOL0     H29259  -0.069   2.765   6.615  0.4875 -1.0965 -1.0106
  217MOL0     H29260  -0.269   2.850   6.512  0.2019  1.6089  2.1887
  217MOL0     H29261  -0.424   2.948   6.431  0.1360  0.1782 -0.3890
  217MOL0     H29262  -0.478   3.047   6.302  1.2774  0.9899  0.9065
  217MOL0     H29263  -0.360   2.902   6.129  0.1971 -4.5988 -2.4040
  217MOL0     H29264  -0.311   2.795   6.269 -1.9988 -2.2751 -0.1151
  217MOL0     H29265  -0.602   2.856   6.226 -0.6731 -1.7417  1.1805
  217MOL0     H29266  -0.514   2.743   6.315 -1.1724  0.7776  0.5433
  217MOL0     H29267  -0.496   2.767   6.005 -1.4440  2.4106  1.3559
  217MOL0     H29268  -0.460   2.610   6.100 -1.0043 -0.5743 -0.2596
  217MOL0     H29269  -0.723   2.648   6.162 -2.7664  0.6898 -0.1020
  217MOL0     H29270  -0.668   2.570   6.002 -0.3053  1.4898 -1.7352
  217MOL0     H29271  -0.815   2.815   6.067  0.0616  1.2143  0.3996
  217MOL0     H29272  -0.692   2.843   5.947  0.0463  0.8827 -0.6386
  217MOL0     H29273  -0.936   2.666   5.957  0.8324 -1.7509  0.2697
  217MOL0     H29274  -0.804   2.643   5.829  3.6341  3.2019 -0.7444
  217MOL0     H29275  -0.856   2.873   5.737 -0.6965  1.2039 -1.3095
  217MOL0     H29276  -0.984   2.897   5.853  0.0422 -1.3046  2.0436
  217MOL0     H29277  -0.050   3.115   6.263 -1.2278  0.7766  0.3806
  217MOL0     H29278   0.163   3.028   6.372  0.3280 -0.3266  1.2572
  217MOL0     H29279   0.409   2.789   6.496  0.0838  2.9528  2.0198
  217MOL0     H29280   0.598   2.609   6.491  1.2669 -0.2329  0.9156
  217MOL0     H29281   2.449   2.581   7.522  0.6316  0.0715  0.9297
  217MOL0     H29282   2.645   2.506   7.671 -1.2800  1.1136 -1.0036
  217MOL0     H29283   2.979   2.178   7.735  0.3977 -0.0169  0.4442
  217MOL0     H29284   3.206   2.201   7.853  0.4652  0.4902 -0.1809
  217MOL0     H29285   3.237   2.321   8.258  1.1152  1.1633 -0.3065
  217MOL0     H29286   3.236   2.170   8.160 -0.7439 -0.1717  3.7020
  217MOL0     H29287   3.469   2.225   8.081 -1.3367 -1.1316  0.0407
  217MOL0     H29288   3.463   2.171   8.252  0.8568  0.6896  1.2772
  217MOL0     H29289   3.438   2.429   8.317 -0.1033 -0.4906  1.3248
  217MOL0     H29290   3.503   2.445   8.149 -1.2039  0.3109 -0.2779
  217MOL0     H29291   3.632   2.346   8.402  1.7821 -1.2543  0.3295
  217MOL0     H29292   3.704   2.451   8.280  0.2361  0.0215 -0.3371
  217MOL0     H29293   3.866   2.097   8.148  1.9714  2.8109 -2.3372
  217MOL0     H29294   3.039   2.453   8.146  1.4765 -1.5077  1.3143
  217MOL0     H29295   2.810   2.416   8.042  1.0093 -0.4628  2.3412
  218MOL0     O29296   8.068   3.930   9.756 -0.6129 -0.7403 -0.0827
  218MOL0     C29297   8.080   3.872   9.651  0.5100 -0.6894  0.5181
  218MOL0     O29298   8.002   3.895   9.546  0.7449  0.5842 -0.7784
  218MOL0     C29299   7.869   3.940   9.560  0.4268 -0.3405  0.7740
  218MOL0     C29300   7.801   3.998   9.448 -0.5649 -0.8764 -0.7279
  218MOL0     C29301   7.676   4.054   9.466 -0.2379 -0.4979 -0.6352
  218MOL0     C29302   7.613   4.044   9.585  0.6141 -0.6817  0.4428
  218MOL0     O29303   7.485   4.094   9.610 -0.1208 -0.4627 -0.8915
  218MOL0     C29304   7.456   4.221   9.542 -0.3859 -0.2558  0.5270
  218MOL0     C29305   7.336   4.284   9.603  0.1325  0.4466  0.6986
  218MOL0     C29306   7.340   4.327   9.746  0.5304  0.3504  0.7271
  218MOL0     C29307   7.249   4.442   9.785  0.0248  1.0940 -0.9281
  218MOL0     C29308   7.302   4.491   9.916  0.7886 -0.4373  0.8172
  218MOL0     C29309   7.252   4.632   9.959  0.7512 -0.3859 -0.3723
  218MOL0     C29310   7.282   4.657  10.109 -0.2214 -1.0822 -0.3117
  218MOL0     C29311   7.231   4.802  10.156  0.4646  0.8582  0.3721
  218MOL0     N29312   7.090   4.787  10.191  0.4443  0.1025 -0.6591
  218MOL0     C29313   7.031   4.840  10.306 -0.0024  0.8104  0.3730
  218MOL0     C29314   6.904   4.837  10.285  0.9492  0.3755  0.2133
  218MOL0     C29315   6.793   4.903  10.363 -0.2022  0.1353  0.0512
  218MOL0     C29316   6.708   4.822  10.465 -0.0769  1.8373 -0.1861
  218MOL0     C29317   6.736   4.671  10.457  0.9595 -0.3354  0.3461
  218MOL0     C29318   6.693   4.601  10.588 -0.0905  0.8884 -0.2201
  218MOL0     O29319   6.768   4.645  10.706 -0.2627  0.3757  0.4459
  218MOL0     C29320   6.707   4.651  10.826  0.2424 -0.9699 -1.0570
  218MOL0     C29321   6.751   4.744  10.918  0.5218 -0.9313  0.8734
  218MOL0     C29322   6.692   4.775  11.041 -0.0158 -0.1541 -0.6606
  218MOL0     C29323   6.720   4.899  11.116  0.1529  0.6562  0.5136
  218MOL0     C29324   6.583   4.690  11.074 -0.2297 -0.4527 -0.0076
  218MOL0     C29325   6.509   4.711  11.201  0.0151 -1.0609 -0.1996
  218MOL0     O29326   6.381   4.665  11.191 -0.8065  1.0473 -0.2485
  218MOL0     C29327   6.282   4.692  11.280  0.4447  0.0681  0.0218
  218MOL0     C29328   6.160   4.621  11.257 -0.8835 -0.7116 -0.1277
  218MOL0     C29329   6.049   4.636  11.342 -0.2853  0.5728 -0.3180
  218MOL0     C29330   6.051   4.731  11.448 -0.5790 -0.3803 -0.1676
  218MOL0     O29331   5.937   4.739  11.526 -0.1469  0.0100 -0.8188
  218MOL0     C29332   5.930   4.850  11.617 -0.9760 -0.3406 -0.4197
  218MOL0     C29333   5.781   4.885  11.650 -0.1162  0.3539  0.7055
  218MOL0     C29334   5.696   4.762  11.690 -1.5265 -0.0561 -0.0043
  218MOL0     C29335   5.547   4.797  11.686 -0.8411 -0.5178 -0.0992
  218MOL0     C29336   5.467   4.676  11.722  0.6975  0.7993  0.3491
  218MOL0     C29337   5.315   4.702  11.712 -0.4656 -0.7264 -0.7911
  218MOL0     C29338   5.220   4.586  11.729 -0.2004 -0.5736 -0.3034
  218MOL0     C29339   5.094   4.623  11.814 -0.3600  0.9966 -0.0816
  218MOL0    Cl29340   4.963   4.497  11.779 -0.0149 -0.2687 -0.1512
  218MOL0     C29341   6.171   4.809  11.472 -0.3164 -0.1367 -0.1815
  218MOL0     C29342   6.278   4.785  11.382  0.0715 -0.6392 -0.7010
  218MOL0     O29343   6.564   4.753  11.304 -0.3216  1.1075 -0.2929
  218MOL0     C29344   6.542   4.589  10.985 -0.3406  0.7264 -0.4015
  218MOL0     C29345   6.592   4.576  10.862  0.0267  0.3367  0.1121
  218MOL0     N29346   6.871   4.775  10.167 -0.1973 -0.0538 -0.7167
  218MOL0     N29347   6.986   4.751  10.108  0.3746 -0.4650 -0.2011
  218MOL0     C29348   7.660   3.970   9.684 -0.4515 -0.1193 -0.6065
  218MOL0     C29349   7.788   3.913   9.673 -0.5469 -0.5498 -0.3450
  218MOL0     C29350   8.195   3.779   9.638 -1.0706 -0.1726  0.9170
  218MOL0     C29351   8.290   3.759   9.736 -0.0081 -0.9629  0.0780
  218MOL0     C29352   8.389   3.658   9.724 -1.1498  0.3162  0.1656
  218MOL0     C29353   8.391   3.570   9.617 -0.2302 -0.3320  0.5395
  218MOL0     O29354   8.486   3.470   9.619  0.1512  0.2833 -0.1426
  218MOL0     C29355   8.501   3.367   9.520 -0.2786 -0.0151 -0.1225
  218MOL0     C29356   8.636   3.304   9.537 -0.1133  0.7551  1.0294
  218MOL0     C29357   8.751   3.400   9.509 -0.6215 -0.1703  0.2720
  218MOL0     C29358   8.880   3.326   9.556 -0.5616  0.3099 -0.1446
  218MOL0     C29359   8.983   3.434   9.561  0.4833  0.1346 -1.1212
  218MOL0     C29360   9.079   3.509   9.559 -0.0439 -0.0272  1.0282
  218MOL0     C29361   8.298   3.590   9.513  0.1601 -1.1947 -0.4736
  218MOL0     C29362   8.202   3.693   9.527  0.5349 -0.3745  0.4563
  218MOL0     H29363   7.864   4.003   9.360  0.2423  0.3894 -0.1140
  218MOL0     H29364   7.624   4.093   9.379 -2.6219  1.1196  1.3699
  218MOL0     H29365   7.543   4.287   9.550  1.6021 -2.7745  1.0768
  218MOL0     H29366   7.440   4.196   9.436 -0.1858  2.4427 -0.2210
  218MOL0     H29367   7.304   4.377   9.555  0.8601  1.7612  2.6649
  218MOL0     H29368   7.255   4.214   9.581 -2.0779  2.7062  1.1494
  218MOL0     H29369   7.319   4.238   9.807 -0.5823 -1.2259 -1.7892
  218MOL0     H29370   7.446   4.347   9.766  1.8069 -4.9275  0.9734
  218MOL0     H29371   7.256   4.521   9.710 -1.8681  0.6356 -1.6499
  218MOL0     H29372   7.146   4.409   9.804 -0.1212  1.7155 -0.5913
  218MOL0     H29373   7.275   4.418   9.993  2.5533  0.1136  2.0138
  218MOL0     H29374   7.411   4.490   9.912  0.9806 -5.7976 -1.1219
  218MOL0     H29375   7.300   4.711   9.901 -0.8875  2.8375  2.3383
  218MOL0     H29376   7.145   4.632   9.936  0.0268 -0.1301  2.5735
  218MOL0     H29377   7.239   4.573  10.165  1.7294  0.2767  3.5851
  218MOL0     H29378   7.390   4.645  10.121 -0.4771 -3.1597  0.3679
  218MOL0     H29379   7.253   4.875  10.078 -0.1912 -0.0861 -0.7323
  218MOL0     H29380   7.278   4.833  10.250 -2.4930  1.0212  1.9139
  218MOL0     H29381   7.082   4.871  10.397  2.0450 -2.9493  0.6927
  218MOL0     H29382   6.821   4.994  10.418 -5.0586  1.8675  0.0987
  218MOL0     H29383   6.726   4.951  10.291 -1.8627 -0.8620  0.8692
  218MOL0     H29384   6.602   4.847  10.472 -0.3927  0.5035  0.0960
  218MOL0     H29385   6.742   4.848  10.566  0.9638 -3.0972  1.0117
  218MOL0     H29386   6.843   4.649  10.453  1.5041  1.8181  1.3102
  218MOL0     H29387   6.679   4.632  10.372  4.4227 -1.1195 -1.8697
  218MOL0     H29388   6.718   4.497  10.569 -1.1704  0.7975 -1.3137
  218MOL0     H29389   6.585   4.596  10.603  0.2138 -2.3752  1.6945
  218MOL0     H29390   6.815   4.825  10.885  0.1582 -0.5105  1.1758
  218MOL0     H29391   6.627   4.936  11.160 -1.2543  0.8416 -2.3883
  218MOL0     H29392   6.793   4.887  11.197  1.0120 -0.2639 -0.3726
  218MOL0     H29393   6.753   4.979  11.049  0.4454 -0.0816 -0.2460
  218MOL0     H29394   6.170   4.541  11.184  3.4804  1.8176 -2.7544
  218MOL0     H29395   5.962   4.578  11.314 -0.8865  1.7413 -0.9619
  218MOL0     H29396   5.989   4.816  11.703 -0.7010 -3.9717 -1.8563
  218MOL0     H29397   5.973   4.938  11.569  2.5646 -2.5068 -1.6715
  218MOL0     H29398   5.774   4.958  11.732  2.7709  1.2562  0.2628
  218MOL0     H29399   5.729   4.916  11.559 -1.4378 -0.5956  1.1046
  218MOL0     H29400   5.729   4.730  11.790  1.6613 -1.1648 -1.2960
  218MOL0     H29401   5.714   4.686  11.614  2.5442  1.0274 -0.3442
  218MOL0     H29402   5.525   4.867  11.766  4.1799  0.7881  0.4560
  218MOL0     H29403   5.510   4.821  11.586 -1.3217 -0.1446  0.1647
  218MOL0     H29404   5.500   4.648  11.823 -1.2313 -1.7815  0.3677
  218MOL0     H29405   5.501   4.592  11.660 -1.7127  0.6403 -0.8351
  218MOL0     H29406   5.287   4.785  11.777 -1.7797 -3.3912  2.3075
  218MOL0     H29407   5.304   4.736  11.609 -0.8563  1.0539 -0.1991
  218MOL0     H29408   5.269   4.506  11.786  2.8428  0.1133 -1.7287
  218MOL0     H29409   5.201   4.554  11.627  5.7405  2.0320 -2.6838
  218MOL0     H29410   5.064   4.726  11.794 -1.0375  0.5776 -1.3473
  218MOL0     H29411   5.128   4.611  11.917  3.2146 -3.2026 -1.4779
  218MOL0     H29412   6.182   4.877  11.556  0.0733  0.1907 -0.5003
  218MOL0     H29413   6.359   4.856  11.401 -1.0969  1.2898 -2.4096
  218MOL0     H29414   6.454   4.533  11.016  1.1484 -1.7489 -0.3519
  218MOL0     H29415   6.547   4.506  10.792  1.8693  1.9999 -2.9922
  218MOL0     H29416   7.605   3.961   9.777  1.1445 -2.4838  0.1876
  218MOL0     H29417   7.821   3.863   9.763  0.1116 -0.2167 -0.3919
  218MOL0     H29418   8.289   3.823   9.823 -0.7956 -1.4729  0.4455
  218MOL0     H29419   8.453   3.636   9.808 -1.6558  1.6879  0.9466
  218MOL0     H29420   8.415   3.301   9.537  0.3894 -0.6337  0.9210
  218MOL0     H29421   8.494   3.405   9.418  1.8057 -1.1965 -0.7650
  218MOL0     H29422   8.637   3.220   9.467 -0.6719  0.3611  1.4875
  218MOL0     H29423   8.645   3.258   9.636 -1.0045 -2.3807 -0.2332
  218MOL0     H29424   8.730   3.488   9.571  1.3704  0.8584 -0.4459
  218MOL0     H29425   8.758   3.427   9.404 -3.7730  1.0831  0.2658
  218MOL0     H29426   8.912   3.256   9.478  2.1493  0.0448  1.0922
  218MOL0     H29427   8.884   3.274   9.651 -2.3750 -1.4563 -0.9791
  218MOL0     H29428   9.146   3.593   9.553  1.5394 -0.8584  4.5973
  218MOL0     H29429   8.292   3.521   9.430 -4.0475 -1.0833 -0.4371
  218MOL0     H29430   8.133   3.700   9.444  0.4819  0.3609  0.5581
  219MOL0     O29431   1.304   8.511   0.236 -0.1324 -0.0222  0.3817
  219MOL0     C29432   1.335   8.596   0.159 -0.3061 -0.0894  0.3292
  219MOL0     O29433   1.259   8.636   0.054 -0.3365 -0.1316  0.5462
  219MOL0     C29434   1.166   8.560  -0.005  0.5045 -0.2425 -0.0314
  219MOL0     C29435   1.030   8.590  -0.007  0.0059  0.1212  0.1156
  219MOL0     C29436   0.932   8.496  -0.049  0.0245 -0.5429  0.1250
  219MOL0     C29437   0.970   8.376  -0.113 -0.5439  0.1544  0.0977
  219MOL0     O29438   0.893   8.291  -0.190  0.1035 -0.7394 -0.3345
  219MOL0     C29439   0.759   8.341  -0.211 -0.7165  0.1916 -0.3014
  219MOL0     C29440   0.688   8.252  -0.311 -0.1229 -0.2941 -0.0231
  219MOL0     C29441   0.546   8.288  -0.311 -0.4390 -0.9035 -0.1941
  219MOL0     C29442   0.528   8.422  -0.385  0.0679  0.8288 -0.7651
  219MOL0     C29443   0.384   8.449  -0.426 -0.5099 -0.1280  0.0935
  219MOL0     C29444   0.390   8.555  -0.536  1.4433  0.2974 -0.8316
  219MOL0     C29445   0.250   8.602  -0.587 -0.2417 -0.5472 -0.1409
  219MOL0     C29446   0.160   8.486  -0.633 -0.8204  0.5204  0.9128
  219MOL0     N29447   0.043   8.537  -0.706  0.1237 -0.4618 -0.0285
  219MOL0     C29448  -0.038   8.458  -0.794 -0.0916  0.1460  0.1250
  219MOL0     C29449  -0.129   8.549  -0.841  0.3166  0.2490 -0.0756
  219MOL0     C29450  -0.240   8.523  -0.932 -0.4496  0.6030  0.0857
  219MOL0     C29451  -0.333   8.636  -0.951 -0.1334  0.9028  0.5359
  219MOL0     C29452  -0.440   8.667  -0.847  1.4958  0.5293 -0.7898
  219MOL0     C29453  -0.558   8.743  -0.912 -0.6622 -0.1143 -0.7143
  219MOL0     O29454  -0.655   8.771  -0.819 -0.1309  0.3069 -1.2239
  219MOL0     C29455  -0.760   8.848  -0.849 -0.0877  0.0568 -0.4606
  219MOL0     C29456  -0.778   8.898  -0.982 -0.0461  0.7993  0.6047
  219MOL0     C29457  -0.900   8.960  -1.021  1.2365  0.7343  0.1159
  219MOL0     C29458  -0.915   8.996  -1.167  0.4986  0.9031 -0.3322
  219MOL0     C29459  -1.003   8.981  -0.928 -0.0023 -0.2249  0.2768
  219MOL0     C29460  -1.135   9.043  -0.957  0.1710  0.4081  0.4241
  219MOL0     O29461  -1.222   9.034  -0.859 -0.7389 -0.3357 -0.1191
  219MOL0     C29462  -1.350   9.094  -0.850 -0.6191 -0.4214 -0.3357
  219MOL0     C29463  -1.462   9.020  -0.812  0.0424  0.0497 -0.0158
  219MOL0     C29464  -1.588   9.074  -0.805  0.2873 -0.7612 -0.8029
  219MOL0     C29465  -1.606   9.208  -0.836  0.1475 -0.2684  0.1545
  219MOL0     O29466  -1.734   9.256  -0.830 -0.2662 -0.2471 -0.0000
  219MOL0     C29467  -1.770   9.383  -0.883 -0.7320 -0.8430  0.3582
  219MOL0     C29468  -1.921   9.417  -0.887  0.0890  0.1648 -0.3399
  219MOL0     C29469  -1.957   9.562  -0.856  0.3080 -0.3831  0.2743
  219MOL0     C29470  -2.097   9.618  -0.908 -1.1658  0.1350 -0.1956
  219MOL0     C29471  -2.206   9.538  -0.862  0.6307 -0.0868 -0.6214
  219MOL0     C29472  -2.336   9.563  -0.941 -0.2831 -0.3374 -0.8158
  219MOL0     C29473  -2.393   9.444  -1.022  0.5978  0.0800  0.0194
  219MOL0     C29474  -2.454   9.510  -1.151  0.4849  0.4875  0.2116
  219MOL0    Cl29475  -2.614   9.585  -1.115 -0.0685 -0.1492  0.0494
  219MOL0     C29476  -1.498   9.284  -0.871 -0.0091 -0.4868  0.0911
  219MOL0     C29477  -1.368   9.227  -0.889 -0.0582 -0.4147 -0.1538
  219MOL0     O29478  -1.161   9.096  -1.055  0.0662 -0.3888 -0.4296
  219MOL0     C29479  -0.981   8.929  -0.797  0.4379 -0.1141  0.2970
  219MOL0     C29480  -0.861   8.872  -0.761  0.1332  0.2446  0.7178
  219MOL0     N29481  -0.108   8.675  -0.785 -0.6320 -0.2677  0.1560
  219MOL0     N29482  -0.015   8.661  -0.697 -0.3061  0.4420  0.0572
  219MOL0     C29483   1.107   8.346  -0.107  1.4785 -0.1225 -0.4573
  219MOL0     C29484   1.205   8.435  -0.059 -0.2529 -0.8066  0.3331
  219MOL0     C29485   1.460   8.673   0.182  0.3481 -0.2625 -0.1766
  219MOL0     C29486   1.457   8.805   0.142 -0.7088 -0.8584 -0.4945
  219MOL0     C29487   1.561   8.891   0.183 -0.9200 -0.2422 -0.2081
  219MOL0     C29488   1.678   8.833   0.237  0.1190  0.1057 -0.8468
  219MOL0     O29489   1.772   8.920   0.290  0.2286 -0.1666 -0.5255
  219MOL0     C29490   1.908   8.887   0.270  0.5484  1.0196 -0.3235
  219MOL0     C29491   1.983   9.017   0.273 -0.0169  0.2425 -0.2571
  219MOL0     C29492   1.952   9.124   0.379  0.7630  1.2905  1.0873
  219MOL0     C29493   1.841   9.230   0.354  0.4798  0.2557  1.2751
  219MOL0     C29494   1.862   9.313   0.235  0.7185 -0.0318  0.8285
  219MOL0     C29495   1.870   9.370   0.134  0.2317  0.2253  0.0497
  219MOL0     C29496   1.682   8.695   0.273  0.3030 -0.5870 -0.6192
  219MOL0     C29497   1.571   8.615   0.245  0.7885 -1.1208 -0.0336
  219MOL0     H29498   0.992   8.687   0.022 -1.8767 -1.2575  2.7476
  219MOL0     H29499   0.826   8.518  -0.035  0.1668  0.7788 -0.6722
  219MOL0     H29500   0.707   8.332  -0.115 -0.8591 -2.4548 -0.5462
  219MOL0     H29501   0.762   8.445  -0.245 -5.8520 -0.3013 -3.2424
  219MOL0     H29502   0.734   8.267  -0.410 -3.0024 -2.7291 -1.9384
  219MOL0     H29503   0.703   8.147  -0.283  0.6093 -0.5427 -1.2700
  219MOL0     H29504   0.496   8.215  -0.376 -1.5498 -0.2069 -0.1490
  219MOL0     H29505   0.501   8.294  -0.211  1.4532  2.1946  0.6113
  219MOL0     H29506   0.575   8.511  -0.342 -2.1326  0.9361  1.6649
  219MOL0     H29507   0.573   8.406  -0.483 -2.5749  1.3620 -2.1652
  219MOL0     H29508   0.338   8.356  -0.462 -2.7770  1.1630 -0.5607
  219MOL0     H29509   0.335   8.485  -0.335  3.5095  0.6011  2.1944
  219MOL0     H29510   0.430   8.647  -0.491  2.1255 -0.4544  0.1584
  219MOL0     H29511   0.452   8.517  -0.617  1.5565 -2.1910  0.3315
  219MOL0     H29512   0.200   8.664  -0.513 -0.0638  0.8404 -1.1527
  219MOL0     H29513   0.261   8.681  -0.661 -0.3237  1.1103  1.5365
  219MOL0     H29514   0.131   8.416  -0.555 -2.4647 -0.7583 -0.7642
  219MOL0     H29515   0.221   8.428  -0.704 -0.2976 -0.4665  2.1137
  219MOL0     H29516  -0.021   8.354  -0.818 -0.3867 -0.8925  3.7688
  219MOL0     H29517  -0.194   8.499  -1.029 -0.7549  0.7045 -0.0855
  219MOL0     H29518  -0.296   8.440  -0.888  1.9273 -1.9528 -1.3250
  219MOL0     H29519  -0.375   8.621  -1.051  1.4035 -0.0039 -0.0119
  219MOL0     H29520  -0.269   8.725  -0.951 -0.0714  0.8674  1.5116
  219MOL0     H29521  -0.404   8.723  -0.760  2.5194 -0.6011 -0.4737
  219MOL0     H29522  -0.482   8.570  -0.819  0.8765  0.7094 -1.0595
  219MOL0     H29523  -0.610   8.680  -0.985  1.1699 -1.4768 -0.9208
  219MOL0     H29524  -0.521   8.827  -0.971  0.2641  0.1443  0.2113
  219MOL0     H29525  -0.708   8.883  -1.063  0.4079  1.5653  0.8501
  219MOL0     H29526  -0.953   9.099  -1.162 -3.6266 -0.4579  0.5465
  219MOL0     H29527  -0.822   9.013  -1.221 -0.5146  2.1208 -1.7696
  219MOL0     H29528  -0.976   8.925  -1.223  3.5444  0.3892 -3.2831
  219MOL0     H29529  -1.449   8.912  -0.804 -1.2867 -0.0133  1.8302
  219MOL0     H29530  -1.675   9.014  -0.778 -1.0737  1.2748 -0.4937
  219MOL0     H29531  -1.719   9.463  -0.828 -2.1346  0.0639  0.3899
  219MOL0     H29532  -1.736   9.387  -0.987 -1.7168 -1.1021  0.0204
  219MOL0     H29533  -1.952   9.390  -0.989  1.4156  2.9964 -1.5987
  219MOL0     H29534  -1.974   9.356  -0.814  0.5878 -0.3529 -0.4024
  219MOL0     H29535  -1.877   9.625  -0.896  0.0331 -0.5597 -0.5768
  219MOL0     H29536  -1.962   9.576  -0.748 -1.2193 -0.0861  0.1933
  219MOL0     H29537  -2.115   9.721  -0.878  1.9097  0.2541  1.7198
  219MOL0     H29538  -2.086   9.601  -1.015  1.3843 -1.8610  0.2686
  219MOL0     H29539  -2.219   9.571  -0.758  1.8573  0.3125 -0.5755
  219MOL0     H29540  -2.188   9.431  -0.856 -2.1114 -0.6833 -1.4351
  219MOL0     H29541  -2.410   9.596  -0.868  2.9167  0.7389  2.2199
  219MOL0     H29542  -2.313   9.652  -1.001  2.9271  0.0729  0.7909
  219MOL0     H29543  -2.457   9.383  -0.959  0.1916  0.1695 -0.2976
  219MOL0     H29544  -2.307   9.385  -1.054  2.1700  2.3718 -0.2051
  219MOL0     H29545  -2.472   9.430  -1.224  1.6104 -0.1821  0.6362
  219MOL0     H29546  -2.383   9.582  -1.194 -0.4891  0.9837 -0.5964
  219MOL0     H29547  -1.494   9.389  -0.901  0.0737 -0.7279 -0.7929
  219MOL0     H29548  -1.280   9.276  -0.928  2.1201 -1.6932  2.8246
  219MOL0     H29549  -1.050   8.953  -0.717  0.1127 -4.2482  1.4668
  219MOL0     H29550  -0.837   8.839  -0.660  0.1170 -2.0939  0.0102
  219MOL0     H29551   1.134   8.249  -0.148  0.3989 -0.5667 -0.1489
  219MOL0     H29552   1.307   8.404  -0.076  0.0131  0.8755 -1.5990
  219MOL0     H29553   1.371   8.848   0.092  1.0837  0.5897 -2.4804
  219MOL0     H29554   1.547   8.998   0.193 -3.8719 -0.4143 -1.3064
  219MOL0     H29555   1.944   8.811   0.340  1.7288  1.1693 -0.7479
  219MOL0     H29556   1.924   8.850   0.169 -1.6342  1.9068 -1.0643
  219MOL0     H29557   1.968   9.060   0.173  2.0857  2.2090  0.1787
  219MOL0     H29558   2.091   9.004   0.282  0.6620  2.2653 -3.5979
  219MOL0     H29559   2.047   9.171   0.401  1.7889 -1.5200  3.2762
  219MOL0     H29560   1.926   9.068   0.470  0.7090 -0.6631 -0.0633
  219MOL0     H29561   1.830   9.308   0.429  0.1772  0.4074  1.0773
  219MOL0     H29562   1.743   9.181   0.348  0.5636  0.1852  0.3604
  219MOL0     H29563   1.868   9.436   0.049  1.5210  0.3127  0.0729
  219MOL0     H29564   1.769   8.654   0.323  1.9264  2.4587 -0.6673
  219MOL0     H29565   1.555   8.512   0.275  1.3354 -1.4761 -0.9038
  220MOL0     O29566   8.911   6.208   7.547  0.5531 -0.0524 -0.4965
  220MOL0     C29567   8.901   6.247   7.667 -0.0922  0.3214 -0.3926
  220MOL0     O29568   8.873   6.171   7.781 -0.2226  0.3026  0.8824
  220MOL0     C29569   8.873   6.035   7.762 -0.2538  0.2917  0.5829
  220MOL0     C29570   8.997   5.967   7.785  0.5480  0.1460 -0.2225
  220MOL0     C29571   8.995   5.821   7.778 -0.0231  0.2516 -0.1668
  220MOL0     C29572   8.884   5.751   7.735  0.9254  0.4394  0.0503
  220MOL0     O29573   8.889   5.614   7.716  0.1355  0.2970 -0.6319
  220MOL0     C29574   9.003   5.535   7.746  0.2664 -0.2625 -0.0210
  220MOL0     C29575   8.986   5.385   7.718 -0.1710  0.6126 -0.5455
  220MOL0     C29576   8.848   5.328   7.762  0.2186 -0.6497 -0.0115
  220MOL0     C29577   8.830   5.337   7.912 -0.2900  0.0631  0.3126
  220MOL0     C29578   8.686   5.296   7.962 -0.5036 -0.1754  0.2772
  220MOL0     C29579   8.640   5.157   7.905  0.2368  0.4993 -1.1754
  220MOL0     C29580   8.507   5.122   7.969  0.5387  0.7281 -0.3674
  220MOL0     C29581   8.396   5.205   7.902  0.2783 -0.1375 -0.1787
  220MOL0     N29582   8.260   5.160   7.932 -0.6045 -0.2884  0.1799
  220MOL0     C29583   8.162   5.243   7.977  0.3837 -0.8040 -0.2846
  220MOL0     C29584   8.052   5.165   7.973 -0.5319  0.1151 -0.7409
  220MOL0     C29585   7.914   5.215   7.999 -0.6138  0.1041 -0.1414
  220MOL0     C29586   7.834   5.132   8.105  0.2050 -0.5985 -0.5118
  220MOL0     C29587   7.714   5.211   8.148 -0.0905 -0.8570  0.5946
  220MOL0     C29588   7.607   5.237   8.044  0.2385  0.2539 -0.0090
  220MOL0     O29589   7.464   5.222   8.069  0.9292  0.1547 -0.2516
  220MOL0     C29590   7.423   5.092   8.057  0.2168 -0.4248 -1.7210
  220MOL0     C29591   7.287   5.091   8.059  0.2437 -0.6126  1.0415
  220MOL0     C29592   7.217   4.973   8.040  0.6598  0.0480  0.8564
  220MOL0     C29593   7.067   4.979   8.017  0.0226  0.3543 -0.0989
  220MOL0     C29594   7.286   4.849   8.043  0.7530  0.3069 -0.1453
  220MOL0     C29595   7.225   4.715   8.045  0.6699 -0.7154 -0.3897
  220MOL0     O29596   7.139   4.684   8.146 -0.4834 -0.2216 -0.5432
  220MOL0     C29597   7.095   4.558   8.162 -0.5641  0.8845  0.1043
  220MOL0     C29598   7.179   4.458   8.186  0.2658  0.3529 -0.0929
  220MOL0     C29599   7.138   4.325   8.210  0.8765 -0.1510  0.0725
  220MOL0     C29600   7.003   4.290   8.220  0.1677  0.7026  1.1389
  220MOL0     O29601   6.958   4.163   8.248 -0.0613  0.5666  1.0861
  220MOL0     C29602   7.049   4.050   8.242 -0.2109 -0.3191 -0.0230
  220MOL0     C29603   6.982   3.922   8.288 -0.7243  1.3118 -0.5498
  220MOL0     C29604   7.081   3.815   8.337  0.3239  0.2146  0.7194
  220MOL0     C29605   7.189   3.790   8.233  0.2535  0.1505 -0.4644
  220MOL0     C29606   7.311   3.731   8.312 -0.2681  0.0059  0.4852
  220MOL0     C29607   7.417   3.692   8.209  0.5573  0.7065  0.4592
  220MOL0     C29608   7.542   3.665   8.289  0.1716  0.6008 -0.2300
  220MOL0     C29609   7.652   3.597   8.201  0.2127 -0.1115 -0.3166
  220MOL0    Cl29610   7.804   3.573   8.298 -0.2003  0.0482  0.0223
  220MOL0     C29611   6.914   4.400   8.220 -1.1298 -0.4042 -0.7196
  220MOL0     C29612   6.962   4.527   8.191  0.1710 -0.3444  0.2815
  220MOL0     O29613   7.276   4.626   7.968  0.0375  0.0936 -0.3695
  220MOL0     C29614   7.429   4.857   8.057 -0.3832 -1.2242 -0.0135
  220MOL0     C29615   7.497   4.979   8.072  0.4380 -0.2886 -0.4918
  220MOL0     N29616   8.087   5.037   7.930 -0.6832  0.2385 -0.7120
  220MOL0     N29617   8.214   5.037   7.902 -0.1320 -0.0195  0.1978
  220MOL0     C29618   8.765   5.819   7.708 -0.6128  0.6304 -0.1533
  220MOL0     C29619   8.761   5.959   7.723  0.4904 -0.0120 -0.4393
  220MOL0     C29620   8.942   6.388   7.690  0.0504  0.6849  0.7570
  220MOL0     C29621   8.955   6.480   7.582 -0.1311  0.6407 -0.2996
  220MOL0     C29622   8.973   6.617   7.600  0.0114  0.0908 -0.2637
  220MOL0     C29623   9.011   6.665   7.725  0.7278  0.8047  0.3988
  220MOL0     O29624   9.009   6.793   7.762  0.9183 -0.1215  0.3272
  220MOL0     C29625   9.024   6.890   7.660  0.3783  0.0086 -0.3241
  220MOL0     C29626   9.102   7.008   7.723 -0.0299  0.0340  0.2522
  220MOL0     C29627   9.096   7.123   7.625  0.2761 -0.5865  0.6700
  220MOL0     C29628   9.189   7.232   7.672 -0.8463 -0.1855  0.7641
  220MOL0     C29629   9.217   7.318   7.556  0.1537  0.0614  0.4659
  220MOL0     C29630   9.232   7.400   7.470  0.2044  0.6475 -0.7472
  220MOL0     C29631   9.018   6.573   7.826  0.0623  0.0120 -0.1168
  220MOL0     C29632   8.976   6.435   7.813 -0.5809  0.1195 -0.1404
  220MOL0     H29633   9.080   6.015   7.834  0.7329  0.2433 -0.6222
  220MOL0     H29634   9.083   5.771   7.817 -1.9656 -1.3165  2.5498
  220MOL0     H29635   9.084   5.556   7.676 -2.0680 -0.3227 -2.8968
  220MOL0     H29636   9.035   5.550   7.850 -0.2103 -1.3461  0.2959
  220MOL0     H29637   8.985   5.373   7.610  1.3536  0.2888 -0.5500
  220MOL0     H29638   9.063   5.321   7.761 -1.5917 -0.6881  0.1635
  220MOL0     H29639   8.775   5.382   7.701  2.5724  2.0564 -0.6511
  220MOL0     H29640   8.848   5.225   7.725  1.4623 -0.8195  0.4216
  220MOL0     H29641   8.906   5.268   7.951 -0.3515  0.1475  0.5815
  220MOL0     H29642   8.854   5.437   7.950 -1.5535  0.3138  0.5011
  220MOL0     H29643   8.686   5.291   8.071 -2.5737 -2.6913  0.2687
  220MOL0     H29644   8.607   5.366   7.933  0.6417  1.3625  0.7618
  220MOL0     H29645   8.623   5.152   7.797  1.3507 -2.9475 -1.3196
  220MOL0     H29646   8.707   5.078   7.940 -1.0528 -0.2343 -0.2909
  220MOL0     H29647   8.482   5.016   7.963  0.4864  0.5466  2.0750
  220MOL0     H29648   8.501   5.150   8.074  0.3299 -0.8128  0.0464
  220MOL0     H29649   8.408   5.221   7.795 -2.7496  0.1172 -0.5569
  220MOL0     H29650   8.411   5.301   7.952  1.1002 -1.9847  3.5119
  220MOL0     H29651   8.168   5.349   8.002  2.2610 -0.9093 -0.1725
  220MOL0     H29652   7.914   5.322   8.023 -0.1905  0.8674 -3.1325
  220MOL0     H29653   7.865   5.217   7.901  3.5104  1.3824 -2.4051
  220MOL0     H29654   7.889   5.095   8.191 -1.9397 -1.6930  0.4837
  220MOL0     H29655   7.808   5.036   8.058 -1.5649 -0.1087 -0.6257
  220MOL0     H29656   7.746   5.303   8.199  0.5982 -0.2690 -0.8511
  220MOL0     H29657   7.666   5.160   8.232 -0.1418  0.2932  1.2960
  220MOL0     H29658   7.641   5.181   7.956  1.5633  0.0913  0.5852
  220MOL0     H29659   7.613   5.346   8.045  0.0202  0.2976  2.4213
  220MOL0     H29660   7.234   5.185   8.058  0.9001 -0.2118 -1.5128
  220MOL0     H29661   7.046   5.002   7.912 -1.8664  1.0239  0.3962
  220MOL0     H29662   7.010   4.896   8.058 -2.0677  1.0169 -1.5302
  220MOL0     H29663   7.035   5.074   8.061 -0.5693 -0.3992  1.1262
  220MOL0     H29664   7.287   4.471   8.195  0.4607 -1.7010  1.4219
  220MOL0     H29665   7.207   4.243   8.227 -1.0540 -1.3867  2.5705
  220MOL0     H29666   7.090   4.045   8.141 -2.3243  0.3015 -0.9689
  220MOL0     H29667   7.123   4.072   8.319 -0.8788  0.9763  0.2716
  220MOL0     H29668   6.920   3.938   8.376 -0.6569 -1.1064  0.0300
  220MOL0     H29669   6.920   3.869   8.215  0.5226 -2.1511  0.6570
  220MOL0     H29670   7.029   3.722   8.362  0.8439  0.1990  1.7982
  220MOL0     H29671   7.125   3.856   8.427 -3.3825  2.7343  1.6121
  220MOL0     H29672   7.146   3.727   8.153 -1.0226 -0.3804  0.5893
  220MOL0     H29673   7.231   3.882   8.192 -0.7382  0.4671 -0.8091
  220MOL0     H29674   7.280   3.648   8.375  3.1034 -1.7869  0.0085
  220MOL0     H29675   7.340   3.822   8.365  0.9669  0.3751 -0.7514
  220MOL0     H29676   7.377   3.606   8.155 -0.6006  0.8404  1.0561
  220MOL0     H29677   7.438   3.764   8.129  0.5112 -1.0728 -1.2174
  220MOL0     H29678   7.514   3.600   8.373  1.0221  0.6476  0.0964
  220MOL0     H29679   7.580   3.759   8.330  0.7385  0.1028  0.4207
  220MOL0     H29680   7.672   3.674   8.126  1.1752  1.3471  1.3814
  220MOL0     H29681   7.626   3.503   8.151 -1.7609  0.4644 -0.4728
  220MOL0     H29682   6.810   4.374   8.238 -0.3867 -3.2142  0.0114
  220MOL0     H29683   6.896   4.614   8.190  1.2984  0.5289  0.6027
  220MOL0     H29684   7.478   4.760   8.058 -2.1551 -2.4422 -4.6237
  220MOL0     H29685   7.603   4.982   8.096 -0.1925  1.6851  2.6129
  220MOL0     H29686   8.683   5.760   7.669 -0.9453 -1.1249  2.8987
  220MOL0     H29687   8.666   6.011   7.711  1.2022  1.1130 -1.5174
  220MOL0     H29688   8.947   6.457   7.476 -2.7580 -0.9759  0.1453
  220MOL0     H29689   8.950   6.687   7.520  2.0825  1.2785  0.1057
  220MOL0     H29690   9.082   6.858   7.573  4.3759 -1.8428  2.6695
  220MOL0     H29691   8.927   6.935   7.640  0.2499  1.4611  2.9554
  220MOL0     H29692   9.207   6.982   7.744 -0.0726  0.6366  1.2613
  220MOL0     H29693   9.051   7.030   7.817 -1.5405 -0.7648 -0.3437
  220MOL0     H29694   8.991   7.153   7.618  0.3690 -0.6158 -1.3507
  220MOL0     H29695   9.136   7.088   7.530  1.0878 -2.3930  1.6197
  220MOL0     H29696   9.283   7.189   7.708  0.7504  3.2023  1.1086
  220MOL0     H29697   9.138   7.280   7.756  1.3925 -2.2636  3.5092
  220MOL0     H29698   9.251   7.485   7.408  1.8483  2.5903  2.2205
  220MOL0     H29699   9.033   6.613   7.926 -2.2465 -2.6355  1.4277
  220MOL0     H29700   8.969   6.363   7.894 -5.1896 -1.3816 -1.5809
  221MOL0     O29701   0.059   2.075   8.933  0.0080  0.3878  0.2082
  221MOL0     C29702  -0.009   1.992   8.989  0.4475 -0.8848 -0.7302
  221MOL0     O29703   0.040   1.888   9.059  0.0774  0.1732  0.6285
  221MOL0     C29704   0.162   1.840   9.026 -0.2753  0.2807  0.0627
  221MOL0     C29705   0.190   1.760   8.911  0.1967 -0.9346 -0.4894
  221MOL0     C29706   0.317   1.717   8.882  0.2174 -0.5376 -0.2281
  221MOL0     C29707   0.418   1.744   8.971  0.4039 -1.1929  0.2698
  221MOL0     O29708   0.547   1.710   8.947 -0.4914  0.2286  0.3694
  221MOL0     C29709   0.570   1.577   8.914 -0.3145 -0.3753 -0.5929
  221MOL0     C29710   0.712   1.542   8.948  0.7201 -0.1868 -0.3490
  221MOL0     C29711   0.740   1.398   8.955  0.7720  0.5598  0.3289
  221MOL0     C29712   0.893   1.374   8.936 -0.2402 -0.7026 -0.6400
  221MOL0     C29713   0.917   1.220   8.950 -0.0076 -1.0095  0.2205
  221MOL0     C29714   1.061   1.188   8.897 -0.2654  1.0587 -0.2350
  221MOL0     C29715   1.065   1.026   8.881  0.2242  0.1251  0.0744
  221MOL0     C29716   1.189   0.994   8.799  0.2203 -0.2541 -0.0279
  221MOL0     N29717   1.151   1.009   8.659  0.3998 -0.4707 -0.1416
  221MOL0     C29718   1.120   0.912   8.570  0.0207  0.3555 -0.1670
  221MOL0     C29719   1.126   0.978   8.450 -0.2700 -0.0148 -0.6243
  221MOL0     C29720   1.100   0.914   8.327 -0.1743 -0.2841  0.4514
  221MOL0     C29721   0.989   0.994   8.254 -0.2872 -0.6079  0.4647
  221MOL0     C29722   0.857   0.978   8.335  0.4498 -0.6770  0.6216
  221MOL0     C29723   0.734   1.034   8.246 -0.1729 -0.3698 -0.8387
  221MOL0     O29724   0.628   1.042   8.338  0.0720 -0.6512  0.5148
  221MOL0     C29725   0.502   1.074   8.284 -0.2684  0.0850 -0.4216
  221MOL0     C29726   0.399   1.042   8.357  0.1446 -0.0995 -0.8709
  221MOL0     C29727   0.269   1.079   8.320 -0.6023  0.3364  0.3752
  221MOL0     C29728   0.147   1.049   8.404 -0.7409  0.3369  0.6069
  221MOL0     C29729   0.250   1.154   8.197  0.3012  0.4310 -0.2303
  221MOL0     C29730   0.115   1.205   8.151 -0.7250  0.1460 -0.8626
  221MOL0     O29731   0.088   1.198   8.019  0.2538  0.3462 -0.8559
  221MOL0     C29732  -0.027   1.261   7.966  0.2420 -0.3520 -0.1853
  221MOL0     C29733  -0.094   1.221   7.856 -0.3560  0.6509  0.4827
  221MOL0     C29734  -0.203   1.284   7.801  0.0694  0.6060 -0.0874
  221MOL0     C29735  -0.253   1.402   7.854 -0.1613  0.2377 -0.3150
  221MOL0     O29736  -0.369   1.462   7.808 -0.3885  0.8258 -1.0529
  221MOL0     C29737  -0.475   1.388   7.761 -0.0795  1.0065 -0.1671
  221MOL0     C29738  -0.607   1.469   7.743  0.2285  0.1104 -0.1241
  221MOL0     C29739  -0.576   1.603   7.686  0.3684 -0.4239 -0.8013
  221MOL0     C29740  -0.712   1.663   7.636 -0.2191 -0.2566  0.0171
  221MOL0     C29741  -0.704   1.799   7.576 -0.5767  0.1956 -0.1980
  221MOL0     C29742  -0.834   1.862   7.545 -0.7378  0.0169  0.4737
  221MOL0     C29743  -0.829   2.003   7.484 -0.2030 -0.0394 -0.1109
  221MOL0     C29744  -0.968   2.058   7.436 -0.3552  0.7049  0.3564
  221MOL0    Cl29745  -1.086   2.064   7.564 -0.4319  0.2337 -0.1708
  221MOL0     C29746  -0.184   1.452   7.968  0.2093 -0.1124  0.2470
  221MOL0     C29747  -0.077   1.383   8.021  0.2568  0.1845  0.1279
  221MOL0     O29748   0.044   1.252   8.238 -0.6728 -0.2206 -0.1843
  221MOL0     C29749   0.355   1.187   8.119  0.4266  0.4421 -0.0348
  221MOL0     C29750   0.483   1.138   8.161 -0.3357  0.0057  0.6217
  221MOL0     N29751   1.154   1.107   8.469 -0.0894 -0.1937 -0.0689
  221MOL0     N29752   1.185   1.117   8.590  0.0365 -1.0194 -0.1796
  221MOL0     C29753   0.397   1.826   9.081  0.8408  0.8821  0.1079
  221MOL0     C29754   0.269   1.880   9.111 -0.3242 -0.4161  0.1178
  221MOL0     C29755  -0.156   2.017   8.978  0.7928  0.9013 -0.0899
  221MOL0     C29756  -0.214   2.132   8.930  0.6746  0.2391  0.2328
  221MOL0     C29757  -0.354   2.146   8.922 -1.0382 -0.2683  0.3359
  221MOL0     C29758  -0.443   2.052   8.978  0.8732  0.8694 -0.4585
  221MOL0     O29759  -0.584   2.048   8.969 -0.3384 -0.5107  0.2798
  221MOL0     C29760  -0.643   2.175   8.951  0.8230 -0.0723 -0.2731
  221MOL0     C29761  -0.783   2.168   9.020 -0.0909  0.2636  0.4611
  221MOL0     C29762  -0.782   2.145   9.171  0.9290 -0.4169  0.1048
  221MOL0     C29763  -0.919   2.189   9.236  0.1828 -0.1437 -0.0066
  221MOL0     C29764  -0.929   2.162   9.378  0.5118 -0.3495  0.5282
  221MOL0     C29765  -0.906   2.138   9.492  0.1950  0.2374  0.3399
  221MOL0     C29766  -0.382   1.940   9.035 -0.0628 -0.9820  0.0132
  221MOL0     C29767  -0.238   1.924   9.036  0.1412  0.4783 -0.8020
  221MOL0     H29768   0.110   1.736   8.842 -1.4756  1.2383  0.5799
  221MOL0     H29769   0.348   1.670   8.789  0.9023  1.0608 -0.8421
  221MOL0     H29770   0.490   1.518   8.959  1.0515 -2.4890 -0.7787
  221MOL0     H29771   0.571   1.565   8.805  3.4960 -0.6997 -0.6585
  221MOL0     H29772   0.777   1.584   8.871 -0.7077 -2.7872 -3.1561
  221MOL0     H29773   0.734   1.588   9.045 -1.4023  0.7689 -0.2603
  221MOL0     H29774   0.713   1.368   9.057  0.8188  0.8498  0.4285
  221MOL0     H29775   0.690   1.351   8.871  0.2985 -0.3894  1.1151
  221MOL0     H29776   0.920   1.416   8.838 -1.9701 -1.2107 -1.3858
  221MOL0     H29777   0.947   1.439   9.005 -1.8056  0.4677 -0.4641
  221MOL0     H29778   0.899   1.208   9.057 -1.5337  0.8757  0.2278
  221MOL0     H29779   0.836   1.160   8.908 -3.7280  1.9506  2.5185
  221MOL0     H29780   1.080   1.237   8.801 -2.8039  3.2291  0.2361
  221MOL0     H29781   1.132   1.229   8.970  0.7291  2.9401 -2.1431
  221MOL0     H29782   1.079   0.977   8.978  0.0001  0.4649  0.2805
  221MOL0     H29783   0.977   0.996   8.823  0.9250  1.7067 -1.9168
  221MOL0     H29784   1.222   0.893   8.823 -0.5145 -0.2650  0.9685
  221MOL0     H29785   1.268   1.066   8.824 -0.5036  0.4308  0.3329
  221MOL0     H29786   1.118   0.806   8.596 -1.1706  0.4617  0.2628
  221MOL0     H29787   1.185   0.907   8.259 -0.9915  0.3437 -0.6703
  221MOL0     H29788   1.051   0.818   8.348  0.7079 -1.3480 -2.0405
  221MOL0     H29789   0.972   0.964   8.150  2.4127 -1.2314  0.1222
  221MOL0     H29790   1.015   1.100   8.247 -0.5435 -0.6277 -1.1030
  221MOL0     H29791   0.868   1.029   8.431  2.4313 -0.7349  0.4642
  221MOL0     H29792   0.828   0.874   8.349 -3.2138 -0.2762 -2.4366
  221MOL0     H29793   0.702   0.959   8.175 -0.8244 -2.0806  1.1584
  221MOL0     H29794   0.753   1.133   8.203 -1.5310  0.2876 -0.0105
  221MOL0     H29795   0.419   0.982   8.445  1.4738  0.4361 -0.7770
  221MOL0     H29796   0.157   0.968   8.477  0.6296 -0.5406 -0.4952
  221MOL0     H29797   0.128   1.141   8.460  4.0501  2.6058 -0.9024
  221MOL0     H29798   0.061   1.027   8.341  0.3062  1.1155 -1.1893
  221MOL0     H29799  -0.051   1.133   7.811 -1.9249 -1.2956  2.5431
  221MOL0     H29800  -0.247   1.249   7.708  0.8927 -2.3176  0.5090
  221MOL0     H29801  -0.444   1.358   7.661 -3.3337 -2.6834 -0.3120
  221MOL0     H29802  -0.490   1.295   7.818  2.4707  1.4101  1.3225
  221MOL0     H29803  -0.681   1.413   7.686 -2.6517  1.0609  2.3677
  221MOL0     H29804  -0.654   1.478   7.842 -0.9784 -2.6860 -0.3388
  221MOL0     H29805  -0.503   1.592   7.605  2.0837 -1.1728  0.7851
  221MOL0     H29806  -0.546   1.670   7.767  1.0699 -1.2124 -0.3989
  221MOL0     H29807  -0.748   1.588   7.565  2.0091 -0.4883 -0.9518
  221MOL0     H29808  -0.781   1.665   7.721 -1.6853  0.0184 -1.1498
  221MOL0     H29809  -0.640   1.807   7.488 -1.5032  0.4634 -0.8732
  221MOL0     H29810  -0.655   1.872   7.641  2.7832 -2.7535  0.9010
  221MOL0     H29811  -0.881   1.805   7.464  1.1234 -1.1740  0.1768
  221MOL0     H29812  -0.899   1.868   7.633 -2.1729 -0.6822 -0.4909
  221MOL0     H29813  -0.762   2.007   7.398 -1.7349  0.5065 -1.3359
  221MOL0     H29814  -0.786   2.071   7.558 -2.1456  0.4801  0.6172
  221MOL0     H29815  -1.012   1.987   7.366  0.0016  0.5873  0.2486
  221MOL0     H29816  -0.959   2.156   7.390 -1.3655  0.2402 -0.8933
  221MOL0     H29817  -0.220   1.550   7.999 -0.0958  0.8011 -2.6738
  221MOL0     H29818  -0.038   1.434   8.109 -0.0459 -0.2097  0.4922
  221MOL0     H29819   0.353   1.257   8.035  3.1247 -0.9719 -1.4008
  221MOL0     H29820   0.564   1.160   8.092 -0.1471  2.4022  1.4976
  221MOL0     H29821   0.475   1.854   9.152 -0.7435  1.2491  1.7965
  221MOL0     H29822   0.255   1.943   9.198  0.8742  2.9181 -1.9193
  221MOL0     H29823  -0.152   2.219   8.908  1.2001 -0.0450  0.5724
  221MOL0     H29824  -0.404   2.232   8.878 -0.9612 -0.8822 -1.0293
  221MOL0     H29825  -0.588   2.256   8.999  2.9143 -1.0112 -0.9535
  221MOL0     H29826  -0.645   2.210   8.847  1.3412  1.4959  0.2137
  221MOL0     H29827  -0.842   2.096   8.961 -1.1514  2.4573 -1.2973
  221MOL0     H29828  -0.840   2.261   9.019  0.0461  0.4595  3.5698
  221MOL0     H29829  -0.703   2.206   9.214 -0.2116  1.7743 -0.7698
  221MOL0     H29830  -0.770   2.038   9.191 -1.6085 -1.1070 -1.5729
  221MOL0     H29831  -0.995   2.121   9.196  1.8417 -1.1238 -1.6875
  221MOL0     H29832  -0.930   2.296   9.217 -1.5634 -0.3939 -0.6074
  221MOL0     H29833  -0.884   2.117   9.594 -0.6688 -1.7641  0.1723
  221MOL0     H29834  -0.428   1.850   9.074  2.4012 -2.6354 -0.6335
  221MOL0     H29835  -0.198   1.825   9.058 -2.0771 -1.0945 -3.1303
  222MOL0     O29836   9.432   2.414   8.392 -0.5068 -0.1087 -0.1671
  222MOL0     C29837   9.484   2.455   8.493 -0.9101 -0.2256 -1.1348
  222MOL0     O29838   9.408   2.521   8.603  0.0654  0.2632  0.3904
  222MOL0     C29839   9.273   2.521   8.582  0.3264 -0.1045 -0.2344
  222MOL0     C29840   9.210   2.401   8.599 -0.7844  1.0518 -0.7404
  222MOL0     C29841   9.075   2.388   8.577  0.3359 -0.4921  0.9645
  222MOL0     C29842   8.989   2.499   8.552 -0.0813  0.6138 -0.4419
  222MOL0     O29843   8.857   2.475   8.519  0.5967 -0.3398  0.7744
  222MOL0     C29844   8.754   2.562   8.578  0.8238  0.7567  0.5078
  222MOL0     C29845   8.619   2.492   8.554  1.2068  0.1634  0.5200
  222MOL0     C29846   8.499   2.572   8.613  0.0414  0.2196 -0.1413
  222MOL0     C29847   8.366   2.534   8.563  0.0728 -0.0543  0.0977
  222MOL0     C29848   8.246   2.615   8.634  0.2035 -0.3379  0.2916
  222MOL0     C29849   8.105   2.620   8.547  0.0877  1.1210 -0.4339
  222MOL0     C29850   7.992   2.689   8.612 -0.7320 -0.0396 -0.1802
  222MOL0     C29851   8.020   2.845   8.597 -0.4549 -0.5292 -0.1157
  222MOL0     N29852   7.951   2.921   8.686  0.3833  0.2765 -0.2307
  222MOL0     C29853   7.811   2.929   8.691 -0.1773  0.1884 -0.5720
  222MOL0     C29854   7.789   3.014   8.792  0.3806  0.3664 -0.0115
  222MOL0     C29855   7.665   3.076   8.865  0.0725 -0.0778 -0.8119
  222MOL0     C29856   7.541   2.985   8.853 -0.8913 -0.1107 -0.4124
  222MOL0     C29857   7.432   3.085   8.903  0.3582  0.8688 -0.3124
  222MOL0     C29858   7.296   3.016   8.913 -0.4735  0.8332  0.8671
  222MOL0     O29859   7.197   3.113   8.938 -0.6066 -0.9900 -0.5760
  222MOL0     C29860   7.198   3.204   9.045 -1.1565  0.3682  0.0675
  222MOL0     C29861   7.269   3.184   9.165  0.3868 -0.5523  0.5122
  222MOL0     C29862   7.273   3.290   9.259  0.9780  0.5435  0.1051
  222MOL0     C29863   7.367   3.269   9.381 -0.9753  0.5929 -0.3279
  222MOL0     C29864   7.193   3.411   9.251 -0.5794  1.7022 -0.5903
  222MOL0     C29865   7.189   3.520   9.349 -0.4210 -0.2397 -0.3858
  222MOL0     O29866   7.245   3.505   9.473 -0.3570 -0.0681  0.5606
  222MOL0     C29867   7.211   3.589   9.571 -0.2583 -0.9099  0.0134
  222MOL0     C29868   7.303   3.684   9.615 -0.0038 -1.3056 -0.2363
  222MOL0     C29869   7.260   3.796   9.700 -0.8858 -0.1240  0.2986
  222MOL0     C29870   7.129   3.804   9.749  0.0384  0.2354 -0.3372
  222MOL0     O29871   7.106   3.905   9.845 -0.2871 -0.0923  0.8046
  222MOL0     C29872   6.981   3.978   9.851  0.0914 -0.8368  0.1938
  222MOL0     C29873   6.891   3.923   9.967  0.6081 -1.0376  0.1750
  222MOL0     C29874   6.766   4.010   9.965  0.1988 -0.7850  0.1188
  222MOL0     C29875   6.672   3.927  10.056  0.3574 -0.4337 -0.5788
  222MOL0     C29876   6.535   3.993  10.080  0.1423  0.1959  0.2517
  222MOL0     C29877   6.430   3.906  10.148 -0.2929  0.9087  0.0816
  222MOL0     C29878   6.350   3.981  10.250  1.1004 -0.4945 -0.2214
  222MOL0     C29879   6.262   4.065  10.165 -0.6119 -0.3123  0.1241
  222MOL0    Cl29880   6.138   4.162  10.252 -0.5910  0.0854 -0.6168
  222MOL0     C29881   7.037   3.702   9.716 -0.0715 -0.4129  0.2570
  222MOL0     C29882   7.073   3.597   9.621 -0.0104 -0.2264 -0.3090
  222MOL0     O29883   7.130   3.624   9.318 -0.2750 -0.8818  0.3152
  222MOL0     C29884   7.118   3.425   9.127  1.2270  0.0703 -0.6576
  222MOL0     C29885   7.124   3.321   9.032 -0.3200  0.2578  0.0317
  222MOL0     N29886   7.907   3.063   8.838  0.5591 -0.0205 -0.2503
  222MOL0     N29887   8.006   3.010   8.775  0.2136  0.6166 -0.1931
  222MOL0     C29888   9.052   2.632   8.547  0.4381 -0.5344  0.6935
  222MOL0     C29889   9.197   2.640   8.564  0.8656 -0.4161  0.3638
  222MOL0     C29890   9.629   2.442   8.526  0.2004  0.3318  0.1492
  222MOL0     C29891   9.709   2.507   8.630  0.0798 -0.3084 -0.0679
  222MOL0     C29892   9.843   2.500   8.629 -0.4334  0.3301 -0.1912
  222MOL0     C29893   9.914   2.431   8.526 -0.0015 -0.1941 -0.2757
  222MOL0     O29894  10.046   2.431   8.505 -0.2862  0.0412 -0.1019
  222MOL0     C29895  10.133   2.516   8.582  0.8981  0.2324  0.4773
  222MOL0     C29896  10.213   2.428   8.685  0.2775  0.1254  0.5717
  222MOL0     C29897  10.129   2.351   8.776 -0.2057  0.5746 -0.2117
  222MOL0     C29898  10.198   2.278   8.892 -0.2468 -0.5890 -0.3831
  222MOL0     C29899  10.265   2.165   8.825  0.2943  0.6392 -0.8404
  222MOL0     C29900  10.309   2.061   8.778  0.1283  0.1231 -1.0434
  222MOL0     C29901   9.844   2.378   8.423 -0.1037  0.3529  0.2407
  222MOL0     C29902   9.703   2.377   8.416 -0.0420 -0.2040  0.3287
  222MOL0     H29903   9.277   2.320   8.624 -1.0924  1.2014  0.6291
  222MOL0     H29904   9.025   2.292   8.581 -0.0085 -0.3910 -0.4803
  222MOL0     H29905   8.780   2.572   8.683 -0.5285 -0.1291  0.9415
  222MOL0     H29906   8.753   2.657   8.523 -0.7337  0.5094  0.0663
  222MOL0     H29907   8.597   2.491   8.446  2.0020 -1.9275  0.3277
  222MOL0     H29908   8.620   2.385   8.579  2.8027 -0.9855 -3.5226
  222MOL0     H29909   8.488   2.568   8.721 -1.8527  3.5506 -0.0760
  222MOL0     H29910   8.497   2.679   8.587 -1.4940  0.5365  1.1415
  222MOL0     H29911   8.356   2.566   8.458  0.6830 -3.2144 -1.0248
  222MOL0     H29912   8.353   2.426   8.570  0.1861 -0.0315  0.7288
  222MOL0     H29913   8.221   2.564   8.728  1.3863 -1.8966 -0.1967
  222MOL0     H29914   8.272   2.716   8.664 -1.1184 -0.0914  0.6820
  222MOL0     H29915   8.113   2.671   8.450  2.4401 -1.1955 -1.5761
  222MOL0     H29916   8.079   2.515   8.537  1.6399  0.6347  0.3465
  222MOL0     H29917   7.896   2.673   8.562  0.1376  0.3194 -2.0197
  222MOL0     H29918   7.986   2.668   8.719  0.3443 -2.5915 -0.5618
  222MOL0     H29919   7.997   2.866   8.492  1.8015  1.6850 -0.2702
  222MOL0     H29920   8.127   2.868   8.608 -0.3782 -0.4226 -0.9732
  222MOL0     H29921   7.741   2.865   8.638 -0.2065 -0.4313  0.1873
  222MOL0     H29922   7.687   3.103   8.969 -0.4289 -1.4097 -0.3352
  222MOL0     H29923   7.645   3.172   8.818  3.4280  0.2292 -1.9402
  222MOL0     H29924   7.549   2.901   8.922 -0.1206  1.1564  1.1169
  222MOL0     H29925   7.523   2.952   8.750 -0.8240  3.5940 -1.8035
  222MOL0     H29926   7.419   3.161   8.826  0.8510  2.6028  1.2513
  222MOL0     H29927   7.457   3.126   9.001  1.6649 -1.7453  0.5467
  222MOL0     H29928   7.277   2.934   8.983  0.4638 -0.5432 -0.4336
  222MOL0     H29929   7.269   2.974   8.816  1.8593 -2.1308  1.3772
  222MOL0     H29930   7.322   3.094   9.194 -0.6939 -1.6679 -0.8452
  222MOL0     H29931   7.450   3.202   9.358 -0.5696  1.9218 -3.3161
  222MOL0     H29932   7.413   3.365   9.406 -1.5890  0.4703  1.4043
  222MOL0     H29933   7.316   3.225   9.467  0.8020 -0.6225  0.1649
  222MOL0     H29934   7.408   3.673   9.589 -0.0106 -3.9755  0.5051
  222MOL0     H29935   7.337   3.862   9.739 -1.6224 -0.1615  1.9073
  222MOL0     H29936   7.007   4.084   9.862  1.1739 -1.1881  1.2458
  222MOL0     H29937   6.925   3.958   9.759  0.6024 -0.3835 -0.2258
  222MOL0     H29938   6.877   3.816   9.953  2.5858 -0.9681 -3.6607
  222MOL0     H29939   6.938   3.944  10.064  0.0675  0.7141  0.0897
  222MOL0     H29940   6.735   4.029   9.862  0.6388 -1.6534 -0.1840
  222MOL0     H29941   6.786   4.108  10.010  1.5317 -0.6132 -0.8122
  222MOL0     H29942   6.652   3.831  10.007  1.3677 -1.2033  0.4779
  222MOL0     H29943   6.720   3.914  10.153  2.9170  1.3866 -1.4878
  222MOL0     H29944   6.504   4.039   9.986 -1.5952 -1.7736 -0.2274
  222MOL0     H29945   6.564   4.070  10.153 -0.4011  0.9638 -0.3286
  222MOL0     H29946   6.369   3.839  10.086 -2.4004 -1.4901  4.2228
  222MOL0     H29947   6.485   3.835  10.210  3.2189  1.1991 -2.4233
  222MOL0     H29948   6.412   4.026  10.328 -0.9799  1.9448  0.1587
  222MOL0     H29949   6.279   3.919  10.306  0.1185 -0.6538 -1.5925
  222MOL0     H29950   6.213   3.995  10.096  1.9571 -0.6970 -1.4369
  222MOL0     H29951   6.326   4.129  10.105 -0.8499  0.0321  0.2348
  222MOL0     H29952   6.941   3.717   9.764  0.5612  0.2670  1.3386
  222MOL0     H29953   7.001   3.521   9.590 -0.3183 -0.7997  1.6999
  222MOL0     H29954   7.059   3.512   9.101 -1.7289 -2.0228 -1.5300
  222MOL0     H29955   7.077   3.342   8.936 -2.0588  3.4557  1.4117
  222MOL0     H29956   8.993   2.718   8.518  0.8723 -0.6705 -0.6617
  222MOL0     H29957   9.251   2.734   8.556  0.3783 -0.2154 -0.7860
  222MOL0     H29958   9.661   2.559   8.712 -2.2363  0.2323 -1.6650
  222MOL0     H29959   9.885   2.544   8.719 -0.8855  2.2598 -0.8851
  222MOL0     H29960  10.208   2.553   8.511  0.7005 -2.9498 -1.5793
  222MOL0     H29961  10.085   2.601   8.631 -0.3859 -1.4407  2.2801
  222MOL0     H29962  10.282   2.497   8.735 -2.0463  3.5950 -0.6382
  222MOL0     H29963  10.267   2.353   8.627  0.0290  1.9610 -2.2091
  222MOL0     H29964  10.066   2.279   8.723  1.2532 -0.2977 -0.8050
  222MOL0     H29965  10.061   2.424   8.823 -1.1738  0.4545 -1.3772
  222MOL0     H29966  10.121   2.252   8.965 -0.9417  2.1776 -0.0307
  222MOL0     H29967  10.269   2.340   8.947 -1.1930 -1.1046  1.4801
  222MOL0     H29968  10.342   1.969   8.734  0.5119  0.3220 -1.1726
  222MOL0     H29969   9.897   2.322   8.346 -0.1640 -0.8402  1.0309
  222MOL0     H29970   9.657   2.322   8.335  0.0727  0.4035 -0.1547
  223MOL0     O29971   7.229   8.192   7.419 -0.6865  0.4755 -0.4230
  223MOL0     C29972   7.279   8.081   7.434  0.5254  0.2448  0.3639
  223MOL0     O29973   7.212   7.965   7.424 -0.0437 -0.9519 -0.3865
  223MOL0     C29974   7.077   7.954   7.407 -0.0132  1.0541 -0.0812
  223MOL0     C29975   7.037   7.832   7.356 -0.1260 -0.3479 -0.3480
  223MOL0     C29976   6.899   7.805   7.348 -0.3699  0.4212 -0.1218
  223MOL0     C29977   6.798   7.895   7.385 -0.4824 -0.2530  0.9141
  223MOL0     O29978   6.675   7.878   7.336  0.0904  0.1481 -0.0316
  223MOL0     C29979   6.564   7.906   7.433  0.6716  0.7831 -0.7237
  223MOL0     C29980   6.432   7.861   7.369  0.8130 -0.9412 -0.0724
  223MOL0     C29981   6.317   7.871   7.465  0.5153  0.0930 -0.6750
  223MOL0     C29982   6.277   8.010   7.504 -0.1266  0.3541  0.3477
  223MOL0     C29983   6.201   8.089   7.393  0.6166 -0.7098  0.4468
  223MOL0     C29984   6.074   8.018   7.342 -0.8328 -0.0723  1.4099
  223MOL0     C29985   5.972   8.009   7.456  0.1862  0.0120  0.7501
  223MOL0     C29986   5.840   7.957   7.379 -0.6212  0.2995 -0.3297
  223MOL0     N29987   5.716   7.984   7.452  0.1017  0.3557 -0.1413
  223MOL0     C29988   5.639   7.893   7.502  0.2921  0.0861  0.0157
  223MOL0     C29989   5.527   7.965   7.529 -0.0075  0.1231  1.1345
  223MOL0     C29990   5.396   7.910   7.592  0.7330  0.0602 -0.6563
  223MOL0     C29991   5.409   7.880   7.744 -0.0380 -1.0687 -0.4810
  223MOL0     C29992   5.337   7.752   7.798 -0.5721 -0.3666 -0.1060
  223MOL0     C29993   5.191   7.737   7.737  0.1222 -0.3832 -0.1049
  223MOL0     O29994   5.116   7.864   7.755 -0.5937 -0.1826 -0.1860
  223MOL0     C29995   4.981   7.861   7.792 -0.9751  0.3523  0.1836
  223MOL0     C29996   4.939   7.958   7.876 -0.4918 -0.0654 -0.0725
  223MOL0     C29997   4.807   7.962   7.925 -0.0366  0.8749 -0.7111
  223MOL0     C29998   4.760   8.046   8.041 -0.2986 -0.8766 -0.3855
  223MOL0     C29999   4.713   7.865   7.866 -0.6680 -0.7465 -0.4265
  223MOL0     C30000   4.573   7.853   7.917  0.4834  0.4926 -0.2747
  223MOL0     O30001   4.494   7.763   7.846 -0.1036 -0.1631  0.5577
  223MOL0     C30002   4.359   7.767   7.845  0.1264  0.8946  0.6084
  223MOL0     C30003   4.279   7.838   7.758 -0.1295  0.8294  0.2732
  223MOL0     C30004   4.137   7.829   7.765  0.6040 -0.4079 -0.5071
  223MOL0     C30005   4.075   7.741   7.862 -0.5175  0.1944  0.3239
  223MOL0     O30006   3.941   7.731   7.895 -1.2768 -0.4389  0.6319
  223MOL0     C30007   3.836   7.824   7.833  0.2763  0.2251  0.2781
  223MOL0     C30008   3.816   7.952   7.904  0.0096 -0.5631 -0.0944
  223MOL0     C30009   3.780   7.956   8.047  0.6744 -0.8395  0.6911
  223MOL0     C30010   3.812   8.088   8.117  0.6808 -0.3896 -0.8294
  223MOL0     C30011   3.766   8.083   8.268 -0.5026 -0.0392  0.7594
  223MOL0     C30012   3.746   8.232   8.326  0.4289  0.6087 -0.4329
  223MOL0     C30013   3.875   8.299   8.360  0.1757  0.9110  0.4354
  223MOL0     C30014   3.859   8.445   8.387 -0.2440 -0.0914  0.2625
  223MOL0    Cl30015   4.018   8.530   8.388  0.2789  0.5015 -0.0911
  223MOL0     C30016   4.160   7.663   7.943 -0.9932 -0.2554  0.2739
  223MOL0     C30017   4.296   7.675   7.933 -0.8244 -0.2455  0.0503
  223MOL0     O30018   4.541   7.899   8.023 -0.3817 -0.7408 -0.7983
  223MOL0     C30019   4.763   7.780   7.769 -0.2934  0.0086 -0.1018
  223MOL0     C30020   4.894   7.777   7.726 -0.8241  0.4717 -0.2056
  223MOL0     N30021   5.545   8.098   7.513  0.1948  0.0466  1.3493
  223MOL0     N30022   5.661   8.107   7.459 -0.0254 -0.2722 -0.0152
  223MOL0     C30023   6.843   8.024   7.434  1.0731 -0.0272  1.1062
  223MOL0     C30024   6.981   8.050   7.449  0.3082 -0.4911 -0.0978
  223MOL0     C30025   7.420   8.083   7.472 -0.5743 -0.3500 -0.0551
  223MOL0     C30026   7.492   7.962   7.466 -0.4725 -0.4105  0.5033
  223MOL0     C30027   7.629   7.967   7.511  0.0952 -0.7035  0.9900
  223MOL0     C30028   7.683   8.080   7.575  0.5020  0.3757  0.8842
  223MOL0     O30029   7.798   8.098   7.648 -0.3579  1.2102  0.2297
  223MOL0     C30030   7.883   7.986   7.651 -0.4413 -0.1707  0.8473
  223MOL0     C30031   8.016   8.031   7.720  0.0573 -0.5981 -0.3966
  223MOL0     C30032   8.002   8.036   7.873 -0.2601 -0.4912 -0.3474
  223MOL0     C30033   8.143   8.010   7.939 -0.6048 -0.6664 -0.5696
  223MOL0     C30034   8.249   8.101   7.875  0.0256  0.1419 -0.2201
  223MOL0     C30035   8.320   8.182   7.819 -0.2210 -0.2229  0.7035
  223MOL0     C30036   7.601   8.191   7.571 -0.3632  0.2131  0.5707
  223MOL0     C30037   7.475   8.202   7.514  0.5137 -0.7985  0.1962
  223MOL0     H30038   7.113   7.760   7.328 -0.1160 -0.6721  0.4947
  223MOL0     H30039   6.866   7.707   7.315 -0.9285  0.6660 -0.3092
  223MOL0     H30040   6.582   7.840   7.518  1.0467 -0.7019 -1.9198
  223MOL0     H30041   6.564   8.008   7.475 -2.7659  0.6231 -0.0431
  223MOL0     H30042   6.407   7.918   7.279 -1.5684  1.2023  1.8114
  223MOL0     H30043   6.441   7.753   7.351 -1.8447 -1.5791  1.8895
  223MOL0     H30044   6.235   7.822   7.411 -1.4082  1.9771  0.3641
  223MOL0     H30045   6.335   7.812   7.555 -2.8797 -0.6126 -0.3023
  223MOL0     H30046   6.207   8.008   7.588 -1.2745 -0.4207 -0.6048
  223MOL0     H30047   6.361   8.071   7.538  0.8731  0.8711 -2.7120
  223MOL0     H30048   6.175   8.192   7.418 -0.7333 -0.4324 -1.7939
  223MOL0     H30049   6.263   8.091   7.302 -1.5561  2.4507 -1.1560
  223MOL0     H30050   6.030   8.083   7.267  1.0598 -2.5037 -2.0885
  223MOL0     H30051   6.103   7.925   7.291  2.4254  1.9993 -0.8988
  223MOL0     H30052   5.990   7.935   7.535 -0.2998 -2.6496 -1.4994
  223MOL0     H30053   5.944   8.110   7.488 -1.3662  0.0488 -0.5875
  223MOL0     H30054   5.846   7.852   7.348  0.6682  0.2851 -0.0695
  223MOL0     H30055   5.838   8.023   7.291  1.0007  0.6767 -0.1095
  223MOL0     H30056   5.664   7.788   7.512 -1.1681 -0.0629  3.0631
  223MOL0     H30057   5.309   7.974   7.580  2.0708  2.0055 -0.3501
  223MOL0     H30058   5.374   7.818   7.536 -0.6920 -0.2205  0.3007
  223MOL0     H30059   5.368   7.966   7.798  1.4795 -0.9409  0.5008
  223MOL0     H30060   5.515   7.868   7.765  0.3156  1.1924 -0.6973
  223MOL0     H30061   5.338   7.745   7.907 -0.3971  0.8864 -0.0065
  223MOL0     H30062   5.400   7.671   7.760  0.7560  0.5214  0.1425
  223MOL0     H30063   5.148   7.659   7.801  1.2343 -1.3178 -0.4446
  223MOL0     H30064   5.199   7.705   7.633 -1.2718  1.5026 -0.8464
  223MOL0     H30065   5.020   8.021   7.911  1.0877 -2.6441  1.1607
  223MOL0     H30066   4.753   7.988   8.134 -1.0346  2.4868  1.8479
  223MOL0     H30067   4.838   8.120   8.061  1.3917 -2.6613 -0.1773
  223MOL0     H30068   4.666   8.097   8.017  1.1676  1.6935 -1.0796
  223MOL0     H30069   4.330   7.904   7.688  2.5961 -1.3868 -0.0158
  223MOL0     H30070   4.068   7.892   7.709  2.3200  2.5486  0.4580
  223MOL0     H30071   3.864   7.858   7.733  2.2326  2.2589  1.3995
  223MOL0     H30072   3.744   7.766   7.824  0.2110  0.5746 -1.8634
  223MOL0     H30073   3.907   8.011   7.897 -0.4666  0.4034  1.4214
  223MOL0     H30074   3.751   8.007   7.835 -1.7833 -0.2994  1.7054
  223MOL0     H30075   3.829   7.879   8.108 -0.3620  1.3063  4.5535
  223MOL0     H30076   3.672   7.942   8.041  0.7157 -0.6920 -0.6292
  223MOL0     H30077   3.916   8.119   8.105  0.3236  0.3628 -2.1376
  223MOL0     H30078   3.755   8.169   8.071 -2.9812 -0.6897  2.5636
  223MOL0     H30079   3.840   8.021   8.320 -1.2709 -0.8792  0.8833
  223MOL0     H30080   3.666   8.039   8.270  0.0868 -1.4746 -0.0790
  223MOL0     H30081   3.697   8.284   8.244  1.9436 -2.2556 -3.3935
  223MOL0     H30082   3.675   8.225   8.410 -2.3943 -1.3643 -2.7687
  223MOL0     H30083   3.942   8.299   8.273 -0.6053  2.2202 -0.1800
  223MOL0     H30084   3.925   8.251   8.445  0.5073 -2.6588 -1.5436
  223MOL0     H30085   3.808   8.464   8.482  2.0781  2.0092  1.2259
  223MOL0     H30086   3.803   8.491   8.305 -0.8371 -1.6584 -0.2426
  223MOL0     H30087   4.125   7.594   8.019 -2.8350  0.3391  0.0125
  223MOL0     H30088   4.358   7.614   7.998  0.0188  1.3005  0.7348
  223MOL0     H30089   4.696   7.709   7.720  0.4731 -2.3274  1.9877
  223MOL0     H30090   4.925   7.700   7.656 -2.2854  0.0165 -0.3720
  223MOL0     H30091   6.777   8.109   7.446 -0.2351 -0.4255 -2.1648
  223MOL0     H30092   7.006   8.144   7.498 -2.9245  0.9865 -0.9874
  223MOL0     H30093   7.444   7.872   7.430  0.5490 -0.2622 -1.3606
  223MOL0     H30094   7.687   7.875   7.504  0.7645 -0.1882 -1.0638
  223MOL0     H30095   7.835   7.909   7.712 -2.4232 -1.0475 -1.6194
  223MOL0     H30096   7.904   7.947   7.550 -1.7857 -0.6928  0.7501
  223MOL0     H30097   8.055   8.126   7.683 -0.0291 -0.2358  0.4298
  223MOL0     H30098   8.089   7.954   7.694 -0.3913 -1.0933 -0.2251
  223MOL0     H30099   7.921   7.972   7.910 -0.2057 -1.8166 -2.3376
  223MOL0     H30100   7.966   8.136   7.899 -0.6088 -1.3038  2.6965
  223MOL0     H30101   8.177   7.906   7.932 -0.5374 -0.7021  0.2158
  223MOL0     H30102   8.140   8.019   8.048 -0.7105 -2.8181 -0.3555
  223MOL0     H30103   8.379   8.250   7.761 -2.3404 -0.2705 -1.6761
  223MOL0     H30104   7.641   8.280   7.618  2.6132 -1.9271  2.4491
  223MOL0     H30105   7.416   8.293   7.520 -4.4510 -3.7593  1.4899
  224MOL0     O30106   5.430   6.556   7.843 -0.4899  0.1730 -0.4864
  224MOL0     C30107   5.505   6.463   7.812 -1.2942  0.5119 -1.0660
  224MOL0     O30108   5.467   6.333   7.785 -0.0059 -0.1452 -0.0506
  224MOL0     C30109   5.332   6.304   7.803  0.1623  0.3469  0.5575
  224MOL0     C30110   5.296   6.188   7.876 -0.2327 -0.1445 -0.1591
  224MOL0     C30111   5.164   6.145   7.899 -0.0507 -0.3542 -0.0568
  224MOL0     C30112   5.063   6.224   7.843 -0.2668  0.6053  0.1761
  224MOL0     O30113   4.939   6.189   7.886  0.0808  0.6882 -0.7622
  224MOL0     C30114   4.858   6.147   7.782  0.4023 -0.0063  0.3908
  224MOL0     C30115   4.739   6.080   7.840  0.4953  0.2396 -1.2209
  224MOL0     C30116   4.625   6.065   7.751 -0.0151  1.7262  0.2308
  224MOL0     C30117   4.510   6.000   7.824  0.0018  0.4095 -0.0486
  224MOL0     C30118   4.409   6.093   7.886  0.1755  0.8389  1.0185
  224MOL0     C30119   4.309   6.143   7.768 -0.1030 -0.1028 -0.1091
  224MOL0     C30120   4.211   6.248   7.821 -0.8428  0.5674 -0.5540
  224MOL0     C30121   4.111   6.184   7.919 -0.6567  0.1445 -0.3223
  224MOL0     N30122   4.019   6.080   7.870  0.5226  0.2381 -0.0072
  224MOL0     C30123   4.031   5.944   7.889  1.0787 -0.0549 -0.1338
  224MOL0     C30124   3.927   5.879   7.833  0.5330 -0.1376  0.4751
  224MOL0     C30125   3.899   5.735   7.834 -0.4499 -0.4285 -0.2978
  224MOL0     C30126   3.758   5.696   7.791  0.2374 -0.1106  0.8581
  224MOL0     C30127   3.741   5.545   7.778 -0.0254 -0.2654 -0.0249
  224MOL0     C30128   3.603   5.516   7.727 -0.3665  0.5232 -0.1525
  224MOL0     O30129   3.493   5.573   7.795  2.0525 -0.6964  0.1844
  224MOL0     C30130   3.365   5.541   7.745 -0.4538  0.4305 -0.5965
  224MOL0     C30131   3.262   5.574   7.838 -0.1122  0.1364 -0.2489
  224MOL0     C30132   3.130   5.527   7.823  0.5315 -0.1549  0.7580
  224MOL0     C30133   3.016   5.567   7.917 -0.1071  0.4265 -0.3610
  224MOL0     C30134   3.105   5.449   7.712  0.4428  0.5338  0.2641
  224MOL0     C30135   2.976   5.392   7.685  0.5006  0.6684 -0.7196
  224MOL0     O30136   2.912   5.430   7.573  0.2158  0.4069  0.5998
  224MOL0     C30137   2.802   5.353   7.548 -0.4607  0.3604 -0.2540
  224MOL0     C30138   2.686   5.367   7.615  0.1875 -0.1514 -0.3428
  224MOL0     C30139   2.572   5.298   7.582  0.1322 -0.7432  0.2992
  224MOL0     C30140   2.579   5.197   7.481  0.0695 -0.8556  0.1310
  224MOL0     O30141   2.456   5.142   7.439 -0.2498  0.0543  0.1678
  224MOL0     C30142   2.455   5.049   7.326  0.4040  0.2054 -0.3362
  224MOL0     C30143   2.316   4.999   7.294 -0.5260 -0.4161 -0.8155
  224MOL0     C30144   2.291   4.895   7.167 -0.2470  0.1223  0.1943
  224MOL0     C30145   2.153   4.830   7.191 -0.3732 -0.3432  0.3926
  224MOL0     C30146   2.103   4.739   7.085  0.2024 -0.2582 -1.3248
  224MOL0     C30147   1.980   4.669   7.135  0.2935  0.1502  0.9824
  224MOL0     C30148   1.933   4.567   7.038 -0.6628 -0.6480 -0.2622
  224MOL0     C30149   1.850   4.627   6.921  0.3373  0.7196 -0.3884
  224MOL0    Cl30150   1.711   4.715   6.994  0.1362 -0.0423  0.2266
  224MOL0     C30151   2.702   5.176   7.422  0.5701  0.4285 -0.0083
  224MOL0     C30152   2.814   5.253   7.453  0.2390 -0.2712  0.6104
  224MOL0     O30153   2.937   5.310   7.766 -0.1642 -0.3941 -0.3612
  224MOL0     C30154   3.207   5.426   7.612  0.1340  0.9707  0.0498
  224MOL0     C30155   3.339   5.469   7.628 -0.1016  0.3051 -1.1535
  224MOL0     N30156   3.861   5.979   7.765  0.1932 -0.2845  0.9623
  224MOL0     N30157   3.915   6.098   7.780  1.3548 -0.6778 -0.3211
  224MOL0     C30158   5.083   6.338   7.770 -1.2004 -0.0463 -0.0252
  224MOL0     C30159   5.216   6.378   7.748  0.2927 -0.1145 -0.0648
  224MOL0     C30160   5.652   6.498   7.790  0.3466  0.2625  0.5380
  224MOL0     C30161   5.746   6.412   7.733 -0.0248 -0.1823 -0.3720
  224MOL0     C30162   5.874   6.453   7.707 -0.4782  0.4007 -0.1550
  224MOL0     C30163   5.922   6.584   7.741 -0.0786  0.9247  1.0233
  224MOL0     O30164   6.051   6.625   7.725  0.4546 -0.3643  0.8950
  224MOL0     C30165   6.150   6.543   7.657  0.1936  0.3976  0.3566
  224MOL0     C30166   6.244   6.502   7.761 -0.6686  0.5032  0.3822
  224MOL0     C30167   6.392   6.479   7.716  0.0670  0.6002  0.1285
  224MOL0     C30168   6.410   6.332   7.701  0.7133 -0.0929  0.1697
  224MOL0     C30169   6.352   6.273   7.582  0.3357 -0.1605 -0.3197
  224MOL0     C30170   6.309   6.226   7.482  0.6788  0.8950 -0.1509
  224MOL0     C30171   5.830   6.667   7.800  0.2646 -1.3212 -0.1211
  224MOL0     C30172   5.694   6.632   7.824 -0.5292 -0.8579  0.4868
  224MOL0     H30173   5.370   6.112   7.897 -1.0420 -0.9809 -0.2961
  224MOL0     H30174   5.142   6.058   7.960  0.5372  0.2514  1.0436
  224MOL0     H30175   4.835   6.239   7.727  1.0568  0.8684  1.5410
  224MOL0     H30176   4.906   6.084   7.707  0.4054  1.0807 -0.5495
  224MOL0     H30177   4.777   5.982   7.871 -1.0511 -0.3073 -0.9634
  224MOL0     H30178   4.714   6.134   7.931  0.2658 -1.2213 -0.3953
  224MOL0     H30179   4.580   6.158   7.714 -0.9651  0.9559 -0.6085
  224MOL0     H30180   4.656   6.007   7.663 -3.6640  0.8997 -0.6668
  224MOL0     H30181   4.472   5.922   7.759  3.0502 -0.9570 -0.3745
  224MOL0     H30182   4.548   5.942   7.909 -0.8171  1.1061  0.8201
  224MOL0     H30183   4.345   6.040   7.957 -4.6474  3.0940 -1.1836
  224MOL0     H30184   4.451   6.182   7.935  0.7168  1.2559 -0.1587
  224MOL0     H30185   4.374   6.180   7.688 -0.3907 -1.5542 -1.0490
  224MOL0     H30186   4.255   6.061   7.721  1.7758 -1.7091  0.3804
  224MOL0     H30187   4.266   6.325   7.876 -0.4187  0.0357 -0.2168
  224MOL0     H30188   4.167   6.279   7.726  0.3924 -1.2607 -1.7771
  224MOL0     H30189   4.050   6.266   7.959 -0.7580 -1.1069  2.2604
  224MOL0     H30190   4.170   6.134   7.996 -0.0969 -0.0311 -0.8577
  224MOL0     H30191   4.106   5.899   7.955  2.7597  0.7242 -1.4439
  224MOL0     H30192   3.973   5.696   7.763  1.2527  0.7567  0.7511
  224MOL0     H30193   3.913   5.701   7.937  0.7772 -1.8308 -0.8872
  224MOL0     H30194   3.724   5.738   7.695 -0.7672  0.3054  1.3857
  224MOL0     H30195   3.684   5.734   7.862  1.1095  0.0799  1.6750
  224MOL0     H30196   3.772   5.496   7.871  2.4451  4.5750  2.0520
  224MOL0     H30197   3.812   5.510   7.702  0.9350  2.3379 -0.4470
  224MOL0     H30198   3.602   5.407   7.736  1.3367  0.5645  1.0285
  224MOL0     H30199   3.606   5.556   7.625  1.8511  1.2192  0.1316
  224MOL0     H30200   3.273   5.612   7.939 -3.8198  0.3081  0.2262
  224MOL0     H30201   3.053   5.638   7.991  0.3378  2.2254 -2.2221
  224MOL0     H30202   2.945   5.620   7.852 -0.2376  2.6806  1.5048
  224MOL0     H30203   2.956   5.491   7.967 -2.1473  1.9828 -0.2737
  224MOL0     H30204   2.699   5.446   7.688  0.7126 -0.4616 -0.0864
  224MOL0     H30205   2.483   5.323   7.639  0.2937  1.3708 -0.2961
  224MOL0     H30206   2.497   5.098   7.238 -0.7695 -0.6387 -1.3972
  224MOL0     H30207   2.520   4.965   7.349  1.8710  1.2514 -0.5518
  224MOL0     H30208   2.280   4.944   7.381 -1.2419  0.1403 -0.7558
  224MOL0     H30209   2.257   5.091   7.290  1.6506  1.3729  2.8325
  224MOL0     H30210   2.368   4.818   7.166  0.1909  0.2019  4.8635
  224MOL0     H30211   2.287   4.943   7.069 -1.3438  1.4471  0.8405
  224MOL0     H30212   2.153   4.792   7.294 -0.2748  1.2809  1.0299
  224MOL0     H30213   2.086   4.917   7.195  1.4397  1.0838  1.3364
  224MOL0     H30214   2.192   4.676   7.073 -0.3102 -1.1145 -0.7258
  224MOL0     H30215   2.079   4.796   6.995  0.1237 -1.1839 -1.9030
  224MOL0     H30216   2.006   4.614   7.226 -1.2756 -2.6215 -0.1342
  224MOL0     H30217   1.901   4.743   7.152 -0.1517 -0.5663  2.1794
  224MOL0     H30218   1.874   4.492   7.090 -0.7467 -2.5186 -2.8586
  224MOL0     H30219   2.010   4.504   6.993 -1.4680 -0.1294 -2.5330
  224MOL0     H30220   1.808   4.548   6.859 -1.4253  0.4934  1.0323
  224MOL0     H30221   1.909   4.693   6.856 -1.6681  1.3685 -1.6546
  224MOL0     H30222   2.714   5.104   7.341 -2.0190  1.4539 -1.4094
  224MOL0     H30223   2.907   5.244   7.397  0.8977  1.7398  1.3136
  224MOL0     H30224   3.177   5.383   7.517 -1.2194 -3.3000  2.1912
  224MOL0     H30225   3.418   5.460   7.555  1.2885  1.5332  0.1322
  224MOL0     H30226   5.012   6.409   7.729  3.9752  3.6626 -3.8397
  224MOL0     H30227   5.218   6.471   7.693 -4.4038 -0.2929 -0.8802
  224MOL0     H30228   5.713   6.314   7.701  0.6143  0.2310 -2.4352
  224MOL0     H30229   5.936   6.384   7.650  0.2229  0.8893  0.0059
  224MOL0     H30230   6.116   6.455   7.602  1.4587 -0.5456  1.0425
  224MOL0     H30231   6.195   6.606   7.580  0.5843 -1.0913 -0.6648
  224MOL0     H30232   6.197   6.415   7.807  0.0891 -0.6401 -0.9372
  224MOL0     H30233   6.256   6.586   7.831  2.1101 -0.5149  1.2866
  224MOL0     H30234   6.462   6.505   7.796  0.8299 -2.6046  0.6492
  224MOL0     H30235   6.410   6.535   7.625 -1.6178 -0.9360 -1.2352
  224MOL0     H30236   6.365   6.286   7.790  0.2657  1.7053  0.9163
  224MOL0     H30237   6.519   6.325   7.702  0.7523 -0.3341 -2.0750
  224MOL0     H30238   6.261   6.176   7.401  4.9876 -1.9519 -1.2791
  224MOL0     H30239   5.854   6.771   7.821 -1.5119  0.4684 -5.3549
  224MOL0     H30240   5.626   6.710   7.857  0.2895 -0.0441  0.3022
  225MOL0     O30241   7.554   6.936   0.213 -0.7407 -0.4699 -0.2116
  225MOL0     C30242   7.610   6.903   0.324 -0.3721  0.0540  0.4459
  225MOL0     O30243   7.541   6.867   0.434 -0.1976  0.6666  0.4080
  225MOL0     C30244   7.403   6.843   0.414 -0.1258  1.4395 -0.7869
  225MOL0     C30245   7.302   6.928   0.478 -0.7057 -0.0280  0.9343
  225MOL0     C30246   7.172   6.884   0.467  0.4245  0.0249  0.7759
  225MOL0     C30247   7.136   6.766   0.389  0.1591  0.2270  0.5088
  225MOL0     O30248   7.007   6.720   0.379  0.1577  0.3067  0.0070
  225MOL0     C30249   6.914   6.784   0.465  0.1634 -0.7654 -0.1230
  225MOL0     C30250   6.773   6.728   0.442  0.0655  0.3435 -0.2657
  225MOL0     C30251   6.727   6.733   0.298 -0.8517  1.0717  0.6659
  225MOL0     C30252   6.579   6.726   0.291 -0.1302  0.2396  0.3269
  225MOL0     C30253   6.533   6.714   0.148  0.2988 -0.2717  0.6050
  225MOL0     C30254   6.546   6.571   0.102  0.7294  0.3172 -0.2282
  225MOL0     C30255   6.430   6.477   0.145 -0.1980  0.5557  0.0212
  225MOL0     C30256   6.434   6.333   0.076 -0.2309 -0.1941 -0.8756
  225MOL0     N30257   6.446   6.344  -0.065  0.7763 -0.6467  0.7333
  225MOL0     C30258   6.345   6.353  -0.152  0.2216  0.1288  1.2995
  225MOL0     C30259   6.402   6.347  -0.278  0.1663  0.1781  0.6342
  225MOL0     C30260   6.321   6.321  -0.403 -1.1441  0.9974 -0.3652
  225MOL0     C30261   6.292   6.173  -0.406  0.4550  0.0209 -0.3997
  225MOL0     C30262   6.180   6.133  -0.500 -1.1576 -0.0109 -0.7955
  225MOL0     C30263   6.166   5.979  -0.500 -0.2376 -0.0353 -0.6221
  225MOL0     O30264   6.051   5.944  -0.575  0.2036  0.3629 -1.1086
  225MOL0     C30265   5.935   6.000  -0.539  0.2536 -0.3295 -0.6109
  225MOL0     C30266   5.866   5.934  -0.441  0.9708 -0.2694 -0.5264
  225MOL0     C30267   5.741   5.988  -0.396 -0.4896 -0.6412 -0.0008
  225MOL0     C30268   5.673   5.926  -0.281  0.0083 -0.7554 -0.0242
  225MOL0     C30269   5.678   6.089  -0.473 -0.0846 -0.6444  0.4062
  225MOL0     C30270   5.538   6.126  -0.448 -0.1197 -1.1015  0.5994
  225MOL0     O30271   5.486   6.103  -0.325 -0.0459  0.1414 -0.2509
  225MOL0     C30272   5.350   6.120  -0.324  0.1589 -0.3301 -0.7401
  225MOL0     C30273   5.286   6.224  -0.264  0.5100  0.2496  0.0695
  225MOL0     C30274   5.147   6.224  -0.251  0.0103  0.7049 -0.2371
  225MOL0     C30275   5.079   6.110  -0.300  0.8015 -0.4637  0.5034
  225MOL0     O30276   4.944   6.088  -0.297  0.5318  0.5372  0.3590
  225MOL0     C30277   4.879   6.129  -0.183  0.3104  0.4899 -0.2284
  225MOL0     C30278   4.751   6.047  -0.165 -0.2741  0.8842  0.0132
  225MOL0     C30279   4.778   5.902  -0.114  0.2630  0.1838 -0.4028
  225MOL0     C30280   4.650   5.819  -0.114  0.4250 -0.2219  0.1209
  225MOL0     C30281   4.685   5.672  -0.118 -0.2373  0.4198  0.8609
  225MOL0     C30282   4.560   5.586  -0.150  0.0371  0.6145 -0.8239
  225MOL0     C30283   4.519   5.597  -0.296  0.1625  0.3206  0.6265
  225MOL0     C30284   4.445   5.467  -0.341 -0.0779 -0.1994  0.1063
  225MOL0    Cl30285   4.297   5.500  -0.435 -0.0630  0.0764 -0.2407
  225MOL0     C30286   5.142   6.018  -0.380  0.0512 -0.1566 -0.3193
  225MOL0     C30287   5.275   6.020  -0.383  0.3432  0.3655 -0.3369
  225MOL0     O30288   5.472   6.169  -0.548 -0.1356 -0.1882  0.7699
  225MOL0     C30289   5.748   6.160  -0.571 -2.0758 -0.0700 -0.0950
  225MOL0     C30290   5.883   6.120  -0.592  0.4546 -0.7845  0.6443
  225MOL0     N30291   6.537   6.345  -0.262 -0.3641  0.4168  0.6785
  225MOL0     N30292   6.566   6.344  -0.137 -0.5934 -0.7200 -0.3894
  225MOL0     C30293   7.232   6.690   0.320  0.8236 -0.0739  0.1682
  225MOL0     C30294   7.363   6.724   0.345  0.5066 -0.2302 -0.6594
  225MOL0     C30295   7.757   6.939   0.349  0.0681 -0.6661  0.5909
  225MOL0     C30296   7.820   7.035   0.269 -0.7015  0.5793 -0.0554
  225MOL0     C30297   7.957   7.061   0.289  0.0405 -0.3254  0.9041
  225MOL0     C30298   8.027   6.994   0.392 -0.3439 -0.6517 -0.3756
  225MOL0     O30299   8.155   7.015   0.427  0.5512 -1.0843  0.5314
  225MOL0     C30300   8.220   7.139   0.401 -0.0846  0.4531  0.0672
  225MOL0     C30301   8.323   7.171   0.507 -0.1055  0.2821  0.4329
  225MOL0     C30302   8.259   7.163   0.647  0.3309  0.3774 -0.9495
  225MOL0     C30303   8.328   7.224   0.769 -0.1050 -1.0289  0.5660
  225MOL0     C30304   8.470   7.198   0.773  0.1116  0.0103  0.0443
  225MOL0     C30305   8.590   7.185   0.763  0.2970  0.0402  0.3657
  225MOL0     C30306   7.965   6.898   0.469 -0.1208 -0.3941 -0.5175
  225MOL0     C30307   7.829   6.875   0.449  0.0956 -0.0691  0.4036
  225MOL0     H30308   7.347   7.003   0.543 -1.0363 -1.3484  2.7916
  225MOL0     H30309   7.097   6.941   0.521 -1.5373  1.6649 -3.2574
  225MOL0     H30310   6.929   6.770   0.573 -1.2675 -0.1196  0.1859
  225MOL0     H30311   6.919   6.892   0.449  0.9642 -0.5613  1.2893
  225MOL0     H30312   6.783   6.624   0.474  0.1161  0.1389 -0.9407
  225MOL0     H30313   6.706   6.790   0.502  0.2784 -0.3037  0.6733
  225MOL0     H30314   6.756   6.829   0.253  0.4606  1.9887  3.2297
  225MOL0     H30315   6.776   6.652   0.243 -1.1240 -2.1146  4.6285
  225MOL0     H30316   6.540   6.641   0.348  1.2049 -0.2792  0.5032
  225MOL0     H30317   6.536   6.819   0.329  0.1530  0.1901  0.7716
  225MOL0     H30318   6.426   6.738   0.142  0.6276  0.8821 -0.9506
  225MOL0     H30319   6.589   6.775   0.077 -0.9932  1.0972  0.7129
  225MOL0     H30320   6.543   6.578  -0.007  0.6804 -0.1371 -0.2569
  225MOL0     H30321   6.638   6.523   0.134 -1.0889 -2.2186  1.5959
  225MOL0     H30322   6.426   6.454   0.252 -3.1388  0.8801  0.0777
  225MOL0     H30323   6.340   6.532   0.116  0.1324  1.0022 -0.1673
  225MOL0     H30324   6.343   6.277   0.098 -0.6869  1.7044  2.8639
  225MOL0     H30325   6.521   6.277   0.113 -0.3997  0.7643  1.0448
  225MOL0     H30326   6.237   6.350  -0.149 -0.0481  0.1051 -3.1002
  225MOL0     H30327   6.229   6.379  -0.401 -1.8642 -0.1170 -0.6015
  225MOL0     H30328   6.377   6.340  -0.496 -0.2406 -2.6819 -0.7374
  225MOL0     H30329   6.273   6.137  -0.304  1.6562 -2.0760 -0.8658
  225MOL0     H30330   6.385   6.129  -0.443 -0.1079  0.6483 -2.7067
  225MOL0     H30331   6.197   6.181  -0.597  0.6077  1.7663  0.3131
  225MOL0     H30332   6.088   6.178  -0.464 -1.1482 -0.2985 -0.4128
  225MOL0     H30333   6.160   5.946  -0.396  3.0968 -0.7844 -0.5749
  225MOL0     H30334   6.251   5.926  -0.544  0.0909  0.0386 -0.0799
  225MOL0     H30335   5.913   5.848  -0.396  2.6786  0.9285  0.1098
  225MOL0     H30336   5.651   6.007  -0.211  0.8784 -0.2052 -0.3854
  225MOL0     H30337   5.583   5.877  -0.320  0.1106  0.4146 -1.8061
  225MOL0     H30338   5.745   5.858  -0.234  0.2870  1.1444  2.4868
  225MOL0     H30339   5.350   6.294  -0.211  0.8986 -0.0749  0.0341
  225MOL0     H30340   5.094   6.296  -0.190  0.3634 -0.5599  1.6480
  225MOL0     H30341   4.948   6.126  -0.097  1.2357  2.3447 -0.8344
  225MOL0     H30342   4.837   6.229  -0.197 -0.0127  0.1379 -1.9639
  225MOL0     H30343   4.679   6.100  -0.102  0.6099  1.7994  0.2670
  225MOL0     H30344   4.701   6.037  -0.262  1.5126 -0.3775 -0.8321
  225MOL0     H30345   4.830   5.906  -0.018  5.5288 -2.3665 -2.7498
  225MOL0     H30346   4.842   5.855  -0.190 -2.8577 -2.2380 -1.7893
  225MOL0     H30347   4.587   5.839  -0.027 -0.1209 -0.6835 -0.1645
  225MOL0     H30348   4.586   5.840  -0.200 -0.3901 -3.2379 -0.1319
  225MOL0     H30349   4.726   5.634  -0.024  1.5423  0.3016  0.0638
  225MOL0     H30350   4.747   5.646  -0.203 -2.0976 -0.0731 -0.4074
  225MOL0     H30351   4.582   5.483  -0.121 -2.4423  0.3003  0.1275
  225MOL0     H30352   4.485   5.615  -0.076  0.7734  1.4235 -0.3663
  225MOL0     H30353   4.607   5.614  -0.358  0.9180 -1.5930  1.1066
  225MOL0     H30354   4.449   5.681  -0.295 -1.0151 -0.6320  1.4390
  225MOL0     H30355   4.423   5.405  -0.253  1.3231 -0.8112  0.0572
  225MOL0     H30356   4.522   5.420  -0.403 -1.3302 -0.3853 -1.3522
  225MOL0     H30357   5.091   5.936  -0.430  1.7937 -2.2450  1.1349
  225MOL0     H30358   5.322   5.940  -0.438  0.7894  0.7504 -0.5226
  225MOL0     H30359   5.706   6.245  -0.622  1.3554  1.6067 -0.4304
  225MOL0     H30360   5.946   6.171  -0.664  2.0955 -2.6615  0.6578
  225MOL0     H30361   7.198   6.608   0.258  1.5825 -1.8465  2.0199
  225MOL0     H30362   7.439   6.652   0.314 -0.0280 -2.2373  2.2737
  225MOL0     H30363   7.775   7.089   0.186  0.9309  0.6633 -0.9152
  225MOL0     H30364   7.995   7.132   0.216 -0.7402 -2.0742 -1.3194
  225MOL0     H30365   8.263   7.131   0.301  0.2806 -1.6015  0.3441
  225MOL0     H30366   8.144   7.217   0.402 -0.5103  0.0374  0.8104
  225MOL0     H30367   8.369   7.268   0.490 -0.1839 -0.0151 -1.6477
  225MOL0     H30368   8.402   7.096   0.490  0.3354  0.0138  3.1972
  225MOL0     H30369   8.214   7.066   0.673  1.8851  0.5540  2.9573
  225MOL0     H30370   8.172   7.224   0.623  0.4830 -0.0114 -2.6586
  225MOL0     H30371   8.285   7.169   0.853  0.5364 -1.5763  0.5419
  225MOL0     H30372   8.299   7.329   0.778  2.0241 -0.4930  2.1159
  225MOL0     H30373   8.692   7.171   0.736  0.9008  0.7194  2.2033
  225MOL0     H30374   8.016   6.847   0.550 -3.5924 -1.3131  1.3199
  225MOL0     H30375   7.785   6.794   0.507 -0.3968 -0.0777  0.0204
  226MOL0     O30376   8.694   2.201   8.917 -0.3162 -0.2067  0.1081
  226MOL0     C30377   8.778   2.167   8.840 -0.9264 -0.1577 -0.7104
  226MOL0     O30378   8.770   2.064   8.754 -0.9318 -0.1767 -0.1818
  226MOL0     C30379   8.652   1.998   8.729 -0.7651 -0.0400  0.0992
  226MOL0     C30380   8.541   2.069   8.703  1.1795  0.3940  0.2087
  226MOL0     C30381   8.417   2.001   8.675  0.4683  0.1679  1.1339
  226MOL0     C30382   8.415   1.863   8.647 -0.0409  0.0423 -0.5833
  226MOL0     O30383   8.302   1.786   8.616  0.0130 -0.7083 -0.3189
  226MOL0     C30384   8.180   1.857   8.589 -0.1607  0.5200 -0.7720
  226MOL0     C30385   8.088   1.754   8.537 -0.1855  0.3429 -0.0471
  226MOL0     C30386   7.946   1.800   8.546 -0.1812 -0.1231  0.8893
  226MOL0     C30387   7.844   1.691   8.536  0.3253  0.6318 -0.5742
  226MOL0     C30388   7.860   1.604   8.409 -0.1666 -0.8663 -0.1603
  226MOL0     C30389   7.819   1.462   8.440  0.2397  0.2532  0.6047
  226MOL0     C30390   7.768   1.394   8.309 -0.3813 -0.5680 -0.3385
  226MOL0     C30391   7.663   1.470   8.227 -0.3537  0.4517 -0.3276
  226MOL0     N30392   7.538   1.486   8.312 -0.3425 -0.0312  0.3789
  226MOL0     C30393   7.509   1.602   8.375  0.9345 -0.2121 -0.2228
  226MOL0     C30394   7.375   1.604   8.380 -0.3470 -0.4638  0.5687
  226MOL0     C30395   7.294   1.713   8.448 -0.6830  0.3617  0.2210
  226MOL0     C30396   7.146   1.671   8.456  0.1068 -1.1702  1.0910
  226MOL0     C30397   7.067   1.769   8.545 -0.0617  0.4204  0.0078
  226MOL0     C30398   6.922   1.730   8.564  0.3770 -0.3734  0.5181
  226MOL0     O30399   6.840   1.848   8.599  0.1915 -0.6208  0.0285
  226MOL0     C30400   6.751   1.888   8.504  0.8852 -0.3236 -0.4108
  226MOL0     C30401   6.627   1.935   8.544 -0.2978  0.1945 -0.0784
  226MOL0     C30402   6.528   1.983   8.452  0.1484  0.0883  0.2631
  226MOL0     C30403   6.393   2.025   8.498  0.9126  0.1318  0.6649
  226MOL0     C30404   6.564   1.991   8.308  0.3041 -0.7457 -0.8438
  226MOL0     C30405   6.478   2.039   8.196 -0.0217 -0.0171 -0.4555
  226MOL0     O30406   6.519   2.013   8.070 -0.4861 -1.2583  0.7736
  226MOL0     C30407   6.431   2.052   7.967 -0.5970 -0.0441 -0.6809
  226MOL0     C30408   6.341   1.958   7.912 -0.3791 -0.2400  0.9452
  226MOL0     C30409   6.262   1.994   7.803 -0.2891  0.4496 -1.1464
  226MOL0     C30410   6.246   2.133   7.770 -0.2165  0.1096  0.0577
  226MOL0     O30411   6.145   2.161   7.679  0.0935  0.3151  1.0732
  226MOL0     C30412   6.079   2.285   7.663 -0.3420  0.2365 -0.1797
  226MOL0     C30413   6.150   2.378   7.563  0.4132 -0.3148 -1.0733
  226MOL0     C30414   6.190   2.312   7.420  0.2044  0.0687 -0.2635
  226MOL0     C30415   6.320   2.340   7.357 -0.0963  0.0601 -0.2982
  226MOL0     C30416   6.336   2.317   7.206 -0.1753 -1.4165  0.1716
  226MOL0     C30417   6.286   2.434   7.119  0.0167 -0.0252 -0.1286
  226MOL0     C30418   6.321   2.414   6.971  0.2270 -0.3225  0.3832
  226MOL0     C30419   6.298   2.546   6.886 -0.9145 -0.6930 -0.0742
  226MOL0    Cl30420   6.263   2.513   6.713  0.3512  0.0424 -0.3578
  226MOL0     C30421   6.332   2.223   7.833 -0.1080  0.1502 -0.1907
  226MOL0     C30422   6.423   2.186   7.931 -1.5854 -0.0951 -0.3695
  226MOL0     O30423   6.375   2.099   8.220 -0.8601 -0.2389  0.0183
  226MOL0     C30424   6.691   1.949   8.274  0.2007 -0.3619 -0.2390
  226MOL0     C30425   6.777   1.898   8.366  0.2290 -0.3624  0.5314
  226MOL0     N30426   7.323   1.502   8.311  0.7534  0.2493 -0.0574
  226MOL0     N30427   7.424   1.439   8.262  0.7175 -0.8690  0.2588
  226MOL0     C30428   8.526   1.792   8.673 -1.4469 -0.0881 -0.1927
  226MOL0     C30429   8.650   1.858   8.715  0.1951 -0.4191  0.8588
  226MOL0     C30430   8.920   2.218   8.883  0.2688  0.4254  0.2264
  226MOL0     C30431   8.942   2.334   8.955 -0.1014 -0.8124  0.1872
  226MOL0     C30432   9.067   2.365   8.995  0.5400 -0.2801 -0.5719
  226MOL0     C30433   9.178   2.294   8.947 -0.1492 -0.6450 -0.5210
  226MOL0     O30434   9.311   2.336   8.981 -0.2647  0.0246 -0.2432
  226MOL0     C30435   9.375   2.257   9.081 -0.0230  0.1232  0.0796
  226MOL0     C30436   9.522   2.211   9.044 -0.4853  0.1686  0.2931
  226MOL0     C30437   9.600   2.326   8.969 -0.1845 -0.2887  0.5877
  226MOL0     C30438   9.751   2.299   8.944  0.9561  0.8100  0.5466
  226MOL0     C30439   9.783   2.161   8.885 -0.6304 -0.7815 -0.5068
  226MOL0     C30440   9.811   2.052   8.833 -0.0924  0.5635  1.0446
  226MOL0     C30441   9.163   2.185   8.863 -0.1329  0.7642 -0.5265
  226MOL0     C30442   9.030   2.151   8.826 -0.1045 -0.4935  0.3692
  226MOL0     H30443   8.538   2.177   8.705 -1.0363  0.4693 -2.2863
  226MOL0     H30444   8.326   2.056   8.654  0.6335 -0.0497 -0.2738
  226MOL0     H30445   8.154   1.891   8.689  2.4417  1.4953 -0.3352
  226MOL0     H30446   8.194   1.942   8.521  2.0791 -0.9780 -2.3195
  226MOL0     H30447   8.108   1.738   8.431  0.5813  0.1808  0.1202
  226MOL0     H30448   8.103   1.659   8.589  1.3841  0.7704  0.3347
  226MOL0     H30449   7.941   1.842   8.647 -1.0472  1.0397  0.3852
  226MOL0     H30450   7.933   1.886   8.479  2.2970 -0.3175  0.0561
  226MOL0     H30451   7.862   1.631   8.625  0.9425 -0.4321 -1.3844
  226MOL0     H30452   7.746   1.740   8.536  0.8121  1.6462  0.2920
  226MOL0     H30453   7.801   1.656   8.333  1.3875  2.2284  0.5846
  226MOL0     H30454   7.962   1.586   8.375 -0.3458 -2.1516 -0.0566
  226MOL0     H30455   7.909   1.411   8.475  0.0140 -1.1544 -0.7532
  226MOL0     H30456   7.742   1.464   8.517  0.0621  1.0026  0.4113
  226MOL0     H30457   7.857   1.399   8.247  1.0238  1.1492  1.6564
  226MOL0     H30458   7.733   1.291   8.320  0.8790 -1.1728 -1.6383
  226MOL0     H30459   7.642   1.414   8.136  1.9903 -0.4611 -0.3717
  226MOL0     H30460   7.691   1.567   8.184 -0.4336  1.7161  2.2959
  226MOL0     H30461   7.570   1.669   8.434 -1.1857 -0.7516  2.8077
  226MOL0     H30462   7.336   1.726   8.549 -1.1799  0.8502  0.3670
  226MOL0     H30463   7.302   1.807   8.392 -2.7566  1.2540  1.3189
  226MOL0     H30464   7.135   1.571   8.499 -0.1390 -1.7956 -0.3793
  226MOL0     H30465   7.106   1.675   8.355  0.9891 -0.9757  0.7427
  226MOL0     H30466   7.067   1.864   8.492  2.3869  1.7243  2.1357
  226MOL0     H30467   7.110   1.781   8.645 -0.4203 -0.0310  0.2253
  226MOL0     H30468   6.910   1.652   8.640 -1.5565 -0.6634 -0.0183
  226MOL0     H30469   6.897   1.685   8.468  2.0107 -2.0709  0.8187
  226MOL0     H30470   6.608   1.933   8.651  1.4920  3.6835  0.4701
  226MOL0     H30471   6.353   2.126   8.485 -0.8116 -0.1849  2.8875
  226MOL0     H30472   6.319   1.957   8.456  1.0746  0.2323  0.2181
  226MOL0     H30473   6.387   2.014   8.607  0.2491 -2.1041  0.4444
  226MOL0     H30474   6.349   1.856   7.949  1.8086 -1.1006 -1.5795
  226MOL0     H30475   6.198   1.917   7.763 -1.0513  0.3613  0.1698
  226MOL0     H30476   5.974   2.271   7.638 -0.0729 -0.3655 -1.0527
  226MOL0     H30477   6.082   2.339   7.758  0.4908  1.6687 -0.9784
  226MOL0     H30478   6.091   2.470   7.554 -1.3226 -1.1809  0.6710
  226MOL0     H30479   6.242   2.409   7.612  2.0283 -0.5107 -3.7662
  226MOL0     H30480   6.116   2.352   7.349  0.7781 -1.6037 -1.9080
  226MOL0     H30481   6.182   2.203   7.424  0.5958  0.0496  0.0046
  226MOL0     H30482   6.333   2.446   7.381 -1.3859  0.7871 -2.5073
  226MOL0     H30483   6.384   2.271   7.414 -0.5215  0.6557  0.9315
  226MOL0     H30484   6.283   2.225   7.178  0.5036 -1.7862  0.0855
  226MOL0     H30485   6.440   2.300   7.180 -0.2547 -1.9192  0.1602
  226MOL0     H30486   6.178   2.443   7.127  0.1307  0.4532  0.9688
  226MOL0     H30487   6.329   2.528   7.154  0.2096 -1.0519  2.6904
  226MOL0     H30488   6.247   2.347   6.926  0.4608 -0.6284  0.4567
  226MOL0     H30489   6.419   2.365   6.965  1.1649  1.2303  2.1357
  226MOL0     H30490   6.387   2.610   6.880 -0.8641 -0.7024 -6.0971
  226MOL0     H30491   6.219   2.606   6.934 -1.8976 -0.4221 -1.9268
  226MOL0     H30492   6.341   2.329   7.816  2.3756  0.3056  1.6024
  226MOL0     H30493   6.493   2.256   7.976 -1.8514 -1.1518  1.7931
  226MOL0     H30494   6.716   1.946   8.169 -1.0697  1.8105 -0.6706
  226MOL0     H30495   6.864   1.849   8.324  0.3342 -0.2043  0.5626
  226MOL0     H30496   8.527   1.684   8.679 -0.1208 -0.0401  3.7723
  226MOL0     H30497   8.737   1.800   8.747  1.6826  1.0146 -0.3910
  226MOL0     H30498   8.850   2.370   9.000 -0.6432 -2.9417  0.8951
  226MOL0     H30499   9.092   2.446   9.063  0.2989 -1.2953  0.7596
  226MOL0     H30500   9.376   2.315   9.174  1.4069  2.9913 -1.6189
  226MOL0     H30501   9.316   2.168   9.108  1.4325 -1.2318 -1.0435
  226MOL0     H30502   9.512   2.128   8.975  3.0029  0.1121 -0.3247
  226MOL0     H30503   9.577   2.164   9.127  2.5390 -0.4741 -1.8813
  226MOL0     H30504   9.599   2.404   9.045  3.2648 -1.4710  2.0455
  226MOL0     H30505   9.539   2.356   8.883 -0.0090 -0.5175  0.3797
  226MOL0     H30506   9.800   2.334   9.035 -0.8850 -0.0174  1.9055
  226MOL0     H30507   9.789   2.361   8.862 -1.7853 -1.8269 -3.0055
  226MOL0     H30508   9.813   1.959   8.780 -0.6343  0.7167  0.7439
  226MOL0     H30509   9.259   2.140   8.839 -0.3335  0.9850 -1.8473
  226MOL0     H30510   9.023   2.063   8.764  4.3592 -0.9372  0.1417
  227MOL0     O30511   3.463   1.106   7.837  0.7680  0.3219 -0.6663
  227MOL0     C30512   3.491   1.227   7.822 -0.0526 -0.3986 -0.0285
  227MOL0     O30513   3.418   1.324   7.754  0.0759  0.9857 -0.2215
  227MOL0     C30514   3.295   1.285   7.712 -0.6220  0.4638 -1.1242
  227MOL0     C30515   3.202   1.350   7.790  0.4456  1.0372 -0.6946
  227MOL0     C30516   3.067   1.319   7.771  0.3190 -0.4792 -0.7506
  227MOL0     C30517   3.029   1.221   7.676  0.0547  1.2965 -0.3855
  227MOL0     O30518   2.889   1.199   7.667  0.2255 -0.1773 -0.3607
  227MOL0     C30519   2.844   1.116   7.560 -0.2525  0.4328  0.2533
  227MOL0     C30520   2.699   1.097   7.563 -0.2932 -0.4252  0.0720
  227MOL0     C30521   2.657   0.972   7.652  0.8347  0.2566  0.1501
  227MOL0     C30522   2.513   0.947   7.666  0.2200 -0.5541 -0.8363
  227MOL0     C30523   2.450   0.893   7.543 -0.3197 -1.0528  0.2377
  227MOL0     C30524   2.441   0.735   7.548  0.7801  0.8404 -0.2294
  227MOL0     C30525   2.352   0.688   7.432  0.7576  0.3578 -0.4011
  227MOL0     C30526   2.205   0.700   7.465 -0.2825 -0.4802  0.7456
  227MOL0     N30527   2.126   0.633   7.357  0.0366 -0.0438 -0.2552
  227MOL0     C30528   2.055   0.519   7.365  0.5327  0.7082 -0.4411
  227MOL0     C30529   1.989   0.509   7.248 -0.3785  0.2818  0.0097
  227MOL0     C30530   1.908   0.391   7.212 -0.2530 -0.4654  0.0556
  227MOL0     C30531   1.792   0.382   7.299  1.4463 -0.4897 -0.4428
  227MOL0     C30532   1.682   0.481   7.249  0.3262 -0.3760 -0.6289
  227MOL0     C30533   1.546   0.432   7.215  1.0892  0.6742 -0.3943
  227MOL0     O30534   1.466   0.549   7.180  0.1749 -0.6869  0.1232
  227MOL0     C30535   1.331   0.548   7.170  0.1559  0.3952  1.0470
  227MOL0     C30536   1.266   0.662   7.193  0.5691  0.2173 -0.3766
  227MOL0     C30537   1.126   0.667   7.202 -0.5410  0.3406  0.1150
  227MOL0     C30538   1.058   0.789   7.235 -0.1122 -0.2112 -0.3712
  227MOL0     C30539   1.052   0.548   7.178  0.6268  0.3133 -0.4756
  227MOL0     C30540   0.903   0.532   7.175  0.0523  0.8941  0.5065
  227MOL0     O30541   0.847   0.405   7.157  0.4639 -0.5041 -0.7374
  227MOL0     C30542   0.713   0.399   7.161  0.1398 -0.1580  0.5262
  227MOL0     C30543   0.641   0.332   7.058  0.3635  0.6847 -0.3937
  227MOL0     C30544   0.505   0.309   7.081 -0.0371  0.9924 -0.4984
  227MOL0     C30545   0.435   0.350   7.189  0.0989  0.2966  0.1073
  227MOL0     O30546   0.308   0.328   7.211 -0.2563  0.1929 -0.0360
  227MOL0     C30547   0.222   0.432   7.185  0.2892 -0.7848 -0.1042
  227MOL0     C30548   0.089   0.379   7.123 -0.4422  1.3095  0.7393
  227MOL0     C30549   0.113   0.320   6.987  0.1916 -0.1138 -0.0336
  227MOL0     C30550  -0.013   0.278   6.919  0.3444  0.6858 -0.1323
  227MOL0     C30551  -0.078   0.384   6.827  0.5972 -0.2767 -0.7927
  227MOL0     C30552  -0.221   0.334   6.785  0.2188 -0.2921  0.1560
  227MOL0     C30553  -0.238   0.203   6.700  0.0581  0.3715 -0.9049
  227MOL0     C30554  -0.376   0.186   6.652  0.4764  0.4357 -0.7403
  227MOL0    Cl30555  -0.508   0.178   6.771  0.1632  0.0854 -0.0442
  227MOL0     C30556   0.504   0.406   7.290  0.2404 -0.5502 -0.7484
  227MOL0     C30557   0.640   0.431   7.277 -0.0370  0.2177  0.1929
  227MOL0     O30558   0.837   0.635   7.200  0.0195  0.0334 -0.9030
  227MOL0     C30559   1.123   0.437   7.138  0.3657 -0.6972 -0.2183
  227MOL0     C30560   1.263   0.430   7.138  0.2167  0.4592  0.9258
  227MOL0     N30561   2.021   0.621   7.174 -0.5386 -0.1432  0.1428
  227MOL0     N30562   2.107   0.688   7.240  0.0002 -0.1628  0.5817
  227MOL0     C30563   3.127   1.159   7.597 -0.4843  0.0895 -0.0535
  227MOL0     C30564   3.258   1.193   7.618  0.0614  1.4146 -0.4906
  227MOL0     C30565   3.622   1.265   7.896  0.1896  0.3897  0.2584
  227MOL0     C30566   3.722   1.170   7.928 -0.0256  0.8475 -0.8705
  227MOL0     C30567   3.838   1.210   7.996  0.4859  0.9756  0.1636
  227MOL0     C30568   3.871   1.344   8.013 -0.4973 -0.1437 -0.6237
  227MOL0     O30569   3.997   1.380   8.074 -0.0044  0.0964  0.4341
  227MOL0     C30570   3.998   1.496   8.163  0.0818  0.0379  1.1494
  227MOL0     C30571   4.146   1.513   8.209  0.7342  0.1654  0.1864
  227MOL0     C30572   4.190   1.653   8.245  0.3704  0.3435 -0.8877
  227MOL0     C30573   4.317   1.655   8.331  0.1602 -0.2226  0.3355
  227MOL0     C30574   4.430   1.589   8.280  0.0028 -0.4507 -0.2187
  227MOL0     C30575   4.531   1.533   8.244  0.2186  0.2899  0.0607
  227MOL0     C30576   3.765   1.435   7.996 -1.1984  1.1620 -0.2444
  227MOL0     C30577   3.639   1.399   7.940  0.2614  0.0098  0.4696
  227MOL0     H30578   3.224   1.426   7.863 -0.5065  2.1797 -1.5589
  227MOL0     H30579   2.985   1.367   7.823  0.4109  0.4019 -1.4032
  227MOL0     H30580   2.868   1.176   7.471 -1.1481  0.8744  0.2995
  227MOL0     H30581   2.889   1.017   7.549 -0.6926  0.1150  1.2128
  227MOL0     H30582   2.654   1.187   7.605  5.6488  2.6935  0.8425
  227MOL0     H30583   2.660   1.089   7.461 -1.4408  4.0576 -0.0360
  227MOL0     H30584   2.685   0.889   7.587  1.5437  0.1661  0.5641
  227MOL0     H30585   2.713   0.966   7.746 -0.0714  0.8438  0.7443
  227MOL0     H30586   2.503   0.879   7.751  0.9372 -1.5161 -1.4951
  227MOL0     H30587   2.461   1.041   7.685 -0.9596 -0.8900 -2.1686
  227MOL0     H30588   2.353   0.943   7.538 -0.7529 -1.4203  3.1457
  227MOL0     H30589   2.513   0.923   7.459 -0.2718 -0.9764  0.3020
  227MOL0     H30590   2.538   0.685   7.544  0.3320 -0.0603  0.0397
  227MOL0     H30591   2.397   0.716   7.646 -1.6776  1.0765 -1.2003
  227MOL0     H30592   2.378   0.748   7.344  1.7407  2.5406  1.2849
  227MOL0     H30593   2.385   0.585   7.420  2.0154  0.9280 -2.3287
  227MOL0     H30594   2.176   0.805   7.475  0.8034  0.4826 -3.8824
  227MOL0     H30595   2.179   0.655   7.561  0.6388  0.1462  1.3002
  227MOL0     H30596   2.072   0.434   7.431 -0.0079  1.0317  0.1257
  227MOL0     H30597   1.881   0.386   7.106 -1.3943 -0.1687  0.3167
  227MOL0     H30598   1.974   0.306   7.232  2.1573 -0.3707 -5.6255
  227MOL0     H30599   1.806   0.402   7.406 -0.3270 -1.6608  0.0475
  227MOL0     H30600   1.745   0.284   7.291  1.4854 -0.4606 -1.0897
  227MOL0     H30601   1.717   0.525   7.155 -0.0264 -0.7666 -0.9453
  227MOL0     H30602   1.662   0.552   7.330 -1.3803  0.5679 -1.8253
  227MOL0     H30603   1.501   0.374   7.295 -0.5929  1.1686 -0.9336
  227MOL0     H30604   1.546   0.352   7.140  1.7396  1.0408 -0.7961
  227MOL0     H30605   1.324   0.751   7.214  0.1716  0.7284 -1.3812
  227MOL0     H30606   0.997   0.821   7.150 -3.4708 -1.5936  1.3241
  227MOL0     H30607   0.991   0.776   7.321  1.9483  1.3431  1.5868
  227MOL0     H30608   1.136   0.861   7.261 -0.9975  0.6506 -0.0268
  227MOL0     H30609   0.677   0.310   6.958  2.5017  0.8310  0.3060
  227MOL0     H30610   0.451   0.254   7.005 -0.7405  1.3671 -0.2810
  227MOL0     H30611   0.195   0.475   7.282 -1.4907 -0.5780 -0.6435
  227MOL0     H30612   0.261   0.514   7.124 -0.7259 -0.5309 -0.4394
  227MOL0     H30613   0.054   0.307   7.198 -1.1570 -0.6379 -1.3690
  227MOL0     H30614   0.021   0.465   7.118  0.5331  2.0060 -2.2568
  227MOL0     H30615   0.179   0.233   6.990  0.7323  0.3152  1.9792
  227MOL0     H30616   0.165   0.398   6.930 -0.0072  0.0202 -0.0347
  227MOL0     H30617   0.012   0.191   6.858 -1.3284 -0.7840  1.1638
  227MOL0     H30618  -0.085   0.249   6.996  0.3786  1.6124  0.2622
  227MOL0     H30619  -0.026   0.416   6.737 -0.7331  0.2368 -1.3970
  227MOL0     H30620  -0.091   0.470   6.894 -3.5927 -1.1098 -0.2471
  227MOL0     H30621  -0.279   0.322   6.877 -1.4442 -0.5759 -0.8809
  227MOL0     H30622  -0.266   0.415   6.726 -2.0985 -1.2789  0.4642
  227MOL0     H30623  -0.212   0.121   6.767 -0.2415  0.9877 -0.0212
  227MOL0     H30624  -0.169   0.212   6.616 -1.6081  0.5752 -2.3193
  227MOL0     H30625  -0.385   0.092   6.597 -0.6791 -0.3414  0.6849
  227MOL0     H30626  -0.403   0.265   6.582  1.3500 -0.8071 -2.5516
  227MOL0     H30627   0.458   0.422   7.387 -0.2477 -0.0595 -1.0551
  227MOL0     H30628   0.700   0.475   7.357  2.7927  0.1767 -1.7425
  227MOL0     H30629   1.069   0.348   7.106 -2.5212  0.7635  0.3035
  227MOL0     H30630   1.314   0.342   7.102 -0.3234  0.4474  0.1580
  227MOL0     H30631   3.097   1.076   7.534 -1.0244  0.0355  0.2638
  227MOL0     H30632   3.333   1.148   7.555  1.0904 -0.8068  2.1307
  227MOL0     H30633   3.712   1.066   7.899  0.7571  0.8263 -1.0763
  227MOL0     H30634   3.915   1.135   8.013  1.2963  1.1819 -2.2103
  227MOL0     H30635   3.974   1.590   8.112  2.3465  1.0592  1.8322
  227MOL0     H30636   3.920   1.480   8.237 -2.4689 -2.2238 -1.7814
  227MOL0     H30637   4.208   1.473   8.128  0.7048 -2.0714  1.1989
  227MOL0     H30638   4.166   1.457   8.300 -0.8396  1.2492  1.2619
  227MOL0     H30639   4.116   1.703   8.309  3.3737  5.3195 -0.7685
  227MOL0     H30640   4.208   1.712   8.155  1.2889  0.0174 -0.9284
  227MOL0     H30641   4.293   1.617   8.431  0.4758 -2.8325 -0.5152
  227MOL0     H30642   4.352   1.757   8.347  3.4089 -1.5685  2.9508
  227MOL0     H30643   4.618   1.485   8.204 -1.0049 -1.6881 -0.3881
  227MOL0     H30644   3.779   1.537   8.031 -1.7773  0.6772  1.4477
  227MOL0     H30645   3.568   1.481   7.930  2.4024  2.4966  3.7265
  228MOL0     O30646  10.611   4.418   4.573  0.0156  0.2020  0.0655
  228MOL0     C30647  10.549   4.394   4.676 -0.4309 -0.3400  0.2715
  228MOL0     O30648  10.511   4.267   4.716 -0.1402 -0.1313  0.1129
  228MOL0     C30649  10.576   4.162   4.652 -0.1078 -1.6739 -0.3522
  228MOL0     C30650  10.714   4.144   4.658  0.5316  0.0303 -0.3427
  228MOL0     C30651  10.771   4.019   4.615 -0.9017 -0.2129  0.8460
  228MOL0     C30652  10.692   3.924   4.563 -0.8671  0.6658  0.0892
  228MOL0     O30653  10.756   3.823   4.498 -0.5049 -0.2621 -0.2765
  228MOL0     C30654  10.669   3.734   4.422  0.2226  0.2373 -0.3401
  228MOL0     C30655  10.603   3.786   4.290  0.3139 -0.4632  0.5514
  228MOL0     C30656  10.465   3.737   4.254  0.0311  0.1442  0.3112
  228MOL0     C30657  10.405   3.843   4.161 -0.0660 -0.2916 -0.4534
  228MOL0     C30658  10.264   3.808   4.124  0.4834  0.3639 -0.0782
  228MOL0     C30659  10.193   3.932   4.067 -0.3842 -0.7897 -0.3610
  228MOL0     C30660  10.051   3.881   4.019 -1.2096 -0.9226  0.2200
  228MOL0     C30661   9.978   4.006   3.967  0.0719 -0.5840 -0.0188
  228MOL0     N30662   9.841   3.972   3.927  0.0751 -0.2693 -0.5578
  228MOL0     C30663   9.798   3.897   3.819  0.1991  0.4268  0.0529
  228MOL0     C30664   9.666   3.922   3.820  0.4455  0.2700  0.3565
  228MOL0     C30665   9.568   3.887   3.707 -0.6018  0.0042  0.5616
  228MOL0     C30666   9.551   4.003   3.614  0.0350  0.1121  0.1630
  228MOL0     C30667   9.474   4.129   3.662 -0.1199  0.2908  0.7651
  228MOL0     C30668   9.320   4.103   3.687 -0.1552  0.0303 -0.5144
  228MOL0     O30669   9.281   3.973   3.648  0.3236 -0.1166  0.1648
  228MOL0     C30670   9.162   3.943   3.716 -0.8165 -0.4167 -0.3321
  228MOL0     C30671   9.040   4.001   3.685  0.5818  0.7353  0.8289
  228MOL0     C30672   8.914   3.952   3.729  0.7035 -0.0880 -0.4592
  228MOL0     C30673   8.785   4.002   3.671 -0.0614 -0.1067 -0.2627
  228MOL0     C30674   8.904   3.852   3.820  0.0843 -0.5089 -0.4180
  228MOL0     C30675   8.790   3.808   3.895 -0.1881  0.1671 -0.2926
  228MOL0     O30676   8.716   3.708   3.842 -0.6722  0.0298 -0.0583
  228MOL0     C30677   8.604   3.669   3.910 -0.5938 -0.6167  0.5327
  228MOL0     C30678   8.477   3.727   3.870  0.8748 -0.2797 -0.1972
  228MOL0     C30679   8.359   3.661   3.916  0.8439 -0.4057  0.3329
  228MOL0     C30680   8.366   3.549   4.006  0.1007 -1.2416  0.2972
  228MOL0     O30681   8.248   3.496   4.063 -0.7356 -0.2691 -0.2588
  228MOL0     C30682   8.127   3.537   4.018 -0.1069  0.0651 -0.1624
  228MOL0     C30683   8.026   3.455   4.092 -0.3263 -0.4031  0.6839
  228MOL0     C30684   7.907   3.403   3.999  0.5138  0.0281 -0.0277
  228MOL0     C30685   7.947   3.306   3.889  0.6618  0.1897 -0.0316
  228MOL0     C30686   7.829   3.229   3.819 -0.5863 -0.2419 -0.4975
  228MOL0     C30687   7.862   3.147   3.703  0.2684  0.3515  0.6961
  228MOL0     C30688   7.991   3.054   3.721 -0.3387  0.3631  0.7969
  228MOL0     C30689   8.007   2.945   3.613  1.0755 -0.0749 -0.8694
  228MOL0    Cl30690   7.941   2.804   3.673  0.3590  0.5382  0.4008
  228MOL0     C30691   8.485   3.504   4.045  0.1385  0.8650  0.1377
  228MOL0     C30692   8.604   3.551   3.993 -0.4371  0.2452 -0.5432
  228MOL0     O30693   8.777   3.865   4.007 -0.1016 -0.1076 -1.0347
  228MOL0     C30694   9.031   3.806   3.865  0.0347  1.0989 -0.3527
  228MOL0     C30695   9.155   3.842   3.807  0.2257  0.8643 -0.0996
  228MOL0     N30696   9.634   3.996   3.930  0.0778 -0.4541 -0.6536
  228MOL0     N30697   9.739   4.027   3.996  0.6785 -0.0868 -0.6851
  228MOL0     C30698  10.552   3.942   4.567 -0.7737 -0.5353  0.5050
  228MOL0     C30699  10.498   4.055   4.623 -0.4642  0.0254  0.8219
  228MOL0     C30700  10.521   4.496   4.773  0.7769 -0.0115  1.1524
  228MOL0     C30701  10.512   4.470   4.916 -0.0017 -1.1765  0.0701
  228MOL0     C30702  10.486   4.581   5.002  0.2245 -0.3380 -0.5880
  228MOL0     C30703  10.487   4.712   4.954  0.2257  0.2346 -0.6887
  228MOL0     O30704  10.476   4.830   5.028  0.6324  0.0658 -0.4319
  228MOL0     C30705  10.470   4.834   5.174  0.3543  0.2750 -0.5997
  228MOL0     C30706  10.332   4.790   5.225 -0.6393 -0.0293  0.3887
  228MOL0     C30707  10.222   4.884   5.171 -0.0148  0.2436  0.7066
  228MOL0     C30708  10.086   4.832   5.211  0.3227  0.2288  0.6996
  228MOL0     C30709   9.988   4.917   5.154  0.2023  0.5738  0.7769
  228MOL0     C30710   9.914   5.002   5.106  0.3357  0.2300  0.0714
  228MOL0     C30711  10.497   4.734   4.815 -0.1594  0.1754  0.1389
  228MOL0     C30712  10.515   4.631   4.721  0.5929 -0.1859  0.4960
  228MOL0     H30713  10.763   4.233   4.695  0.8003 -0.6596  1.0291
  228MOL0     H30714  10.878   4.005   4.607 -1.0281 -1.2773  0.9034
  228MOL0     H30715  10.725   3.643   4.396  0.9652  0.6018 -0.0143
  228MOL0     H30716  10.594   3.688   4.487 -0.2169  0.2957 -0.7986
  228MOL0     H30717  10.597   3.895   4.299 -1.3378 -0.3925 -0.8508
  228MOL0     H30718  10.673   3.764   4.208  1.0988 -2.1232  1.6034
  228MOL0     H30719  10.477   3.637   4.212 -1.5341 -1.6866  3.7112
  228MOL0     H30720  10.405   3.721   4.345  0.5805  0.0714  0.6622
  228MOL0     H30721  10.396   3.942   4.206 -0.9610  0.8762 -3.0374
  228MOL0     H30722  10.455   3.863   4.066 -1.6383 -0.6487 -1.3940
  228MOL0     H30723  10.263   3.721   4.056 -1.3544 -3.0001  3.8118
  228MOL0     H30724  10.198   3.772   4.203 -1.3432 -2.2571 -2.5703
  228MOL0     H30725  10.168   3.999   4.150  0.0769  0.9255 -1.5479
  228MOL0     H30726  10.245   3.986   3.987 -1.2730  0.0449 -0.3961
  228MOL0     H30727  10.061   3.817   3.931  0.7421  2.1403 -2.0094
  228MOL0     H30728   9.994   3.828   4.096 -2.7272 -1.0797 -0.9587
  228MOL0     H30729  10.024   4.070   3.892  1.2052 -0.3621  0.8318
  228MOL0     H30730   9.968   4.080   4.047 -2.6226 -0.4520 -0.3821
  228MOL0     H30731   9.861   3.864   3.737 -1.1539 -0.3260 -0.6986
  228MOL0     H30732   9.629   3.822   3.643  0.0016  0.3490  0.7761
  228MOL0     H30733   9.477   3.844   3.750  0.3901 -0.6835  2.0703
  228MOL0     H30734   9.496   3.976   3.523  0.9326  0.2185 -0.4332
  228MOL0     H30735   9.653   4.036   3.588  0.1458  0.5090  1.0902
  228MOL0     H30736   9.466   4.196   3.576 -0.2718 -1.1632 -0.4070
  228MOL0     H30737   9.525   4.189   3.738  0.9842  0.8600 -0.4050
  228MOL0     H30738   9.255   4.178   3.641  0.9746  1.7766  0.6323
  228MOL0     H30739   9.300   4.111   3.794 -1.7278  0.8648 -0.8402
  228MOL0     H30740   9.035   4.074   3.604 -0.6865 -0.4836 -0.2452
  228MOL0     H30741   8.765   3.940   3.582 -1.8085 -0.2754  0.2037
  228MOL0     H30742   8.697   4.002   3.736  0.8832  0.4655  1.0488
  228MOL0     H30743   8.788   4.105   3.634  0.9590 -0.0900 -0.1374
  228MOL0     H30744   8.459   3.808   3.799  0.6326 -2.5910 -2.9401
  228MOL0     H30745   8.264   3.709   3.896 -0.1607 -3.0918 -1.8885
  228MOL0     H30746   8.105   3.643   4.037 -0.5644 -0.0004 -0.3027
  228MOL0     H30747   8.111   3.534   3.909  2.1218  0.3677 -0.5591
  228MOL0     H30748   8.078   3.365   4.126  3.4446  0.4825 -2.0846
  228MOL0     H30749   7.989   3.514   4.177  1.1030  2.0643 -0.3109
  228MOL0     H30750   7.866   3.490   3.947 -0.5367  1.1974  2.5847
  228MOL0     H30751   7.831   3.355   4.062  1.2922  1.7015  2.2985
  228MOL0     H30752   8.017   3.355   3.820  4.4600  0.3905  3.5847
  228MOL0     H30753   8.010   3.229   3.936 -0.5504 -0.7504  0.0867
  228MOL0     H30754   7.753   3.305   3.797 -0.8300 -1.1092 -2.9392
  228MOL0     H30755   7.778   3.161   3.888 -1.4274  1.0137  0.1712
  228MOL0     H30756   7.781   3.086   3.664  1.7127 -0.5873 -0.9944
  228MOL0     H30757   7.890   3.224   3.630  1.3153  1.8530  2.6054
  228MOL0     H30758   7.986   3.022   3.826 -0.8164  2.1786  1.3646
  228MOL0     H30759   8.079   3.119   3.713 -0.7871  0.9427  0.4579
  228MOL0     H30760   8.110   2.922   3.581  2.1112  2.3285  0.4438
  228MOL0     H30761   7.942   2.971   3.529 -1.1699  0.4122  0.9242
  228MOL0     H30762   8.491   3.425   4.119 -2.1246  1.3644  0.9364
  228MOL0     H30763   8.697   3.505   4.023 -0.4897  1.1999  1.2526
  228MOL0     H30764   9.041   3.723   3.934  1.8286 -0.4573 -2.3270
  228MOL0     H30765   9.236   3.784   3.850  1.3430 -0.4704 -3.6937
  228MOL0     H30766  10.485   3.862   4.537 -3.1382  0.9122  1.6501
  228MOL0     H30767  10.391   4.068   4.632 -0.5728  0.2211 -0.5652
  228MOL0     H30768  10.526   4.370   4.958  0.8487 -1.0011  0.2240
  228MOL0     H30769  10.470   4.553   5.106 -1.0690 -1.7997 -1.1373
  228MOL0     H30770  10.551   4.775   5.219 -1.3828  0.7287  3.5711
  228MOL0     H30771  10.496   4.936   5.204  1.1312  0.0468 -0.4582
  228MOL0     H30772  10.333   4.788   5.334  1.4260  2.2959  0.5021
  228MOL0     H30773  10.304   4.691   5.186 -1.7955  0.8238 -1.1068
  228MOL0     H30774  10.225   4.897   5.062 -2.4296  3.0084  0.8447
  228MOL0     H30775  10.251   4.976   5.223 -0.6272 -0.1089  1.6928
  228MOL0     H30776  10.078   4.831   5.321  1.9082  1.4414  0.8627
  228MOL0     H30777  10.064   4.728   5.184  1.0413  0.8230 -2.5169
  228MOL0     H30778   9.853   5.072   5.052 -2.8337 -1.3235  1.3376
  228MOL0     H30779  10.492   4.834   4.774  0.3518 -0.1430 -0.7472
  228MOL0     H30780  10.531   4.659   4.618  1.0924  1.0056  0.8778
  229MOL0     O30781   3.123   2.345   4.061  0.7536  0.0627 -0.0628
  229MOL0     C30782   3.192   2.250   4.024  0.4699  0.2494  0.9702
  229MOL0     O30783   3.156   2.157   3.923 -0.2816 -0.2107 -0.7424
  229MOL0     C30784   3.027   2.146   3.880 -0.6967  0.1554 -0.1403
  229MOL0     C30785   3.021   2.115   3.744  0.1184 -0.1862 -0.9020
  229MOL0     C30786   2.893   2.080   3.695 -0.9470  0.3881 -0.3690
  229MOL0     C30787   2.784   2.076   3.780 -1.0868  0.6884 -1.2595
  229MOL0     O30788   2.656   2.045   3.744  0.2947  0.1303 -0.7425
  229MOL0     C30789   2.638   1.967   3.620  0.0406 -0.2367  0.0011
  229MOL0     C30790   2.496   1.934   3.582 -0.1252  0.0999 -1.3435
  229MOL0     C30791   2.445   1.795   3.643  1.0875 -0.8880 -0.6669
  229MOL0     C30792   2.525   1.665   3.611  0.0404  0.3984  0.8527
  229MOL0     C30793   2.469   1.539   3.673  0.3967 -0.3264 -0.6098
  229MOL0     C30794   2.463   1.530   3.829 -0.6415 -0.0111  0.8056
  229MOL0     C30795   2.423   1.392   3.882 -0.2121 -0.0242 -0.6704
  229MOL0     C30796   2.299   1.325   3.830 -0.4961  0.7518  0.1646
  229MOL0     N30797   2.174   1.364   3.887 -0.2184  0.0083 -0.3756
  229MOL0     C30798   2.065   1.284   3.907  0.0852  0.1428 -0.5147
  229MOL0     C30799   1.971   1.367   3.956  0.3746 -0.1326  0.3391
  229MOL0     C30800   1.831   1.344   4.003 -0.8382 -0.6804  0.0101
  229MOL0     C30801   1.729   1.385   3.892  0.3449 -0.2240 -0.1404
  229MOL0     C30802   1.585   1.336   3.921  0.5999 -0.6934 -0.0396
  229MOL0     C30803   1.500   1.422   3.831 -0.2245 -0.5753 -0.0088
  229MOL0     O30804   1.366   1.371   3.840  0.6993  0.1333 -0.8476
  229MOL0     C30805   1.268   1.409   3.749 -0.0306 -0.1313  0.1370
  229MOL0     C30806   1.137   1.357   3.762 -0.8382 -0.3141  0.4252
  229MOL0     C30807   1.037   1.385   3.672  0.5696 -0.1131 -0.2151
  229MOL0     C30808   0.901   1.330   3.719 -0.7091 -0.6273 -0.1176
  229MOL0     C30809   1.063   1.469   3.560  0.2472  0.2626 -0.3447
  229MOL0     C30810   0.959   1.506   3.467 -0.1776 -0.4766  0.6214
  229MOL0     O30811   1.006   1.527   3.341  0.1532 -0.7519 -0.8196
  229MOL0     C30812   0.903   1.576   3.257  0.1808 -0.4402  0.1614
  229MOL0     C30813   0.845   1.484   3.169 -0.0326 -0.0192 -0.0644
  229MOL0     C30814   0.724   1.523   3.107  0.1707  0.2735 -0.5754
  229MOL0     C30815   0.679   1.652   3.109  0.0583  0.0485 -0.0813
  229MOL0     O30816   0.561   1.668   3.050  0.0671  0.5834 -0.7323
  229MOL0     C30817   0.539   1.796   2.998 -0.0874 -0.9265 -0.3246
  229MOL0     C30818   0.409   1.796   2.900 -0.6201 -0.4115 -0.1035
  229MOL0     C30819   0.478   1.784   2.766 -1.2281  0.0950 -0.4307
  229MOL0     C30820   0.372   1.779   2.661 -0.3237 -0.0782  0.1460
  229MOL0     C30821   0.426   1.741   2.521  0.3109  0.1633 -0.5500
  229MOL0     C30822   0.486   1.856   2.449  0.6117 -0.3005 -0.5949
  229MOL0     C30823   0.551   1.805   2.327 -0.0777 -0.4775  0.1353
  229MOL0     C30824   0.585   1.908   2.217  0.5697 -0.1135 -0.3093
  229MOL0    Cl30825   0.695   2.039   2.274  0.2550  0.1981 -0.3702
  229MOL0     C30826   0.745   1.751   3.182 -0.3175  0.2829  0.0357
  229MOL0     C30827   0.848   1.711   3.259  0.7146  0.1549 -0.0301
  229MOL0     O30828   0.842   1.528   3.503  0.3247 -0.0070 -0.0262
  229MOL0     C30829   1.196   1.514   3.548 -0.1327  0.3465 -0.0713
  229MOL0     C30830   1.296   1.496   3.642  0.3386 -0.1096  0.2340
  229MOL0     N30831   2.025   1.495   3.961  0.0697 -0.0877  0.1977
  229MOL0     N30832   2.145   1.496   3.915 -0.2809 -0.0707  0.0882
  229MOL0     C30833   2.796   2.110   3.918  0.4227 -0.0121  0.1795
  229MOL0     C30834   2.917   2.157   3.964 -0.9521 -0.6948  0.6121
  229MOL0     C30835   3.329   2.255   4.061  0.9771 -0.1818 -0.8511
  229MOL0     C30836   3.375   2.319   4.181 -0.5250  0.0479 -0.1581
  229MOL0     C30837   3.501   2.339   4.211 -0.6241  0.2514 -0.0333
  229MOL0     C30838   3.600   2.288   4.122 -0.0266 -0.1035  0.2496
  229MOL0     O30839   3.735   2.320   4.152  0.2518  0.6249  0.2705
  229MOL0     C30840   3.837   2.237   4.111 -0.0360 -0.4635 -0.6352
  229MOL0     C30841   3.826   2.110   4.190  0.1578 -0.0616  0.5194
  229MOL0     C30842   3.919   2.008   4.121 -0.0742  0.4817 -0.3435
  229MOL0     C30843   3.916   1.873   4.202  0.2951 -0.2242  0.4112
  229MOL0     C30844   3.806   1.784   4.151 -0.8689 -0.1498  0.1952
  229MOL0     C30845   3.721   1.714   4.107 -0.0576  0.6553 -0.4429
  229MOL0     C30846   3.561   2.224   4.006 -0.1061 -0.2828  0.1958
  229MOL0     C30847   3.422   2.215   3.967 -0.9973 -0.6685 -0.7446
  229MOL0     H30848   3.110   2.118   3.682  1.7683 -0.6610  1.3082
  229MOL0     H30849   2.880   2.053   3.590  1.9824  0.0114 -0.7139
  229MOL0     H30850   2.681   2.016   3.533 -0.5964  0.0494 -0.1636
  229MOL0     H30851   2.684   1.872   3.648  0.8196  0.9725  3.2735
  229MOL0     H30852   2.426   2.006   3.626  0.0203  0.1189 -1.1384
  229MOL0     H30853   2.489   1.941   3.473  0.2198  0.3266 -1.3544
  229MOL0     H30854   2.424   1.802   3.750  2.6096  0.4936 -0.4164
  229MOL0     H30855   2.346   1.799   3.596  0.7867  1.1871  0.0198
  229MOL0     H30856   2.524   1.638   3.505 -2.3125  0.2411  0.8550
  229MOL0     H30857   2.629   1.681   3.639 -0.7488  2.9396  2.7928
  229MOL0     H30858   2.363   1.537   3.647  0.2502 -1.4505 -0.0092
  229MOL0     H30859   2.500   1.443   3.630 -3.3490 -2.0702  0.1879
  229MOL0     H30860   2.559   1.553   3.877 -0.7863 -2.5921  2.5625
  229MOL0     H30861   2.388   1.608   3.845  0.0675  1.4161 -2.1055
  229MOL0     H30862   2.512   1.332   3.859 -0.3114  0.3632 -2.1474
  229MOL0     H30863   2.428   1.393   3.991 -1.3528 -1.0878 -0.5941
  229MOL0     H30864   2.317   1.217   3.835  2.9401  1.1229 -0.9179
  229MOL0     H30865   2.293   1.352   3.724 -2.4866 -1.6137 -0.4048
  229MOL0     H30866   2.058   1.183   3.870  1.2207 -0.2493  0.2889
  229MOL0     H30867   1.824   1.236   4.019 -3.6112 -0.7402 -1.1926
  229MOL0     H30868   1.808   1.393   4.098  0.6684  1.4274 -0.6253
  229MOL0     H30869   1.757   1.350   3.793 -0.2698 -1.7096  0.1809
  229MOL0     H30870   1.716   1.494   3.899  0.8052 -0.2590  1.8609
  229MOL0     H30871   1.551   1.353   4.024 -0.6976  1.8923 -0.8036
  229MOL0     H30872   1.586   1.230   3.896 -0.7561 -1.1150  1.5717
  229MOL0     H30873   1.530   1.429   3.726 -0.9262 -1.8597 -0.3161
  229MOL0     H30874   1.508   1.529   3.850  1.1256 -0.2842 -1.8627
  229MOL0     H30875   1.120   1.289   3.845 -0.1205  0.9990  1.6995
  229MOL0     H30876   0.899   1.300   3.824 -0.0769  1.2612  0.4844
  229MOL0     H30877   0.826   1.408   3.706  0.7117  0.4503 -2.6069
  229MOL0     H30878   0.868   1.248   3.654  2.3412 -1.6544 -0.5452
  229MOL0     H30879   0.888   1.386   3.153  0.6707  0.4322 -1.0227
  229MOL0     H30880   0.669   1.459   3.039  1.5168  0.0473 -1.4809
  229MOL0     H30881   0.502   1.860   3.079 -1.0923 -0.0002 -1.4607
  229MOL0     H30882   0.632   1.843   2.964 -0.8252  0.6256 -0.3121
  229MOL0     H30883   0.352   1.707   2.929 -0.5471 -0.1239  0.9605
  229MOL0     H30884   0.350   1.888   2.898 -1.2651 -0.8026  0.6054
  229MOL0     H30885   0.545   1.698   2.768 -0.4298  0.7056  0.0084
  229MOL0     H30886   0.542   1.873   2.756 -0.0234 -0.5481  1.0661
  229MOL0     H30887   0.297   1.707   2.694 -4.1601  3.1549 -0.7261
  229MOL0     H30888   0.321   1.876   2.664 -2.6568 -1.1972 -1.0076
  229MOL0     H30889   0.336   1.724   2.462  0.6350  4.0412 -2.4751
  229MOL0     H30890   0.483   1.648   2.515 -4.4944 -3.1365 -0.7465
  229MOL0     H30891   0.404   1.928   2.437  0.1892 -0.8524 -1.0969
  229MOL0     H30892   0.555   1.904   2.519  0.3840  1.3296 -1.4478
  229MOL0     H30893   0.498   1.720   2.284 -0.9020 -0.6567  1.4470
  229MOL0     H30894   0.648   1.769   2.362 -0.4014  0.0466  1.6963
  229MOL0     H30895   0.494   1.963   2.189 -0.3046  0.4401  3.1370
  229MOL0     H30896   0.655   1.866   2.145  3.4648  2.4548  0.7412
  229MOL0     H30897   0.721   1.857   3.178  0.7506  0.4914 -1.4578
  229MOL0     H30898   0.897   1.770   3.336 -1.8079  2.3251  0.0269
  229MOL0     H30899   1.216   1.577   3.463 -0.3697  1.6573  0.8205
  229MOL0     H30900   1.392   1.541   3.621  0.4436 -0.6340 -0.4645
  229MOL0     H30901   2.714   2.089   3.986 -0.6581 -1.6440 -1.5661
  229MOL0     H30902   2.923   2.182   4.069 -2.6854 -0.6036  0.7108
  229MOL0     H30903   3.297   2.352   4.249 -0.2774  0.2383  0.0376
  229MOL0     H30904   3.542   2.386   4.300  0.4862  2.8371 -1.7692
  229MOL0     H30905   3.833   2.221   4.002  1.3692 -2.2437 -0.4750
  229MOL0     H30906   3.935   2.280   4.130 -0.4937  1.0186 -1.4974
  229MOL0     H30907   3.723   2.074   4.193  1.0051 -2.7044  0.4381
  229MOL0     H30908   3.860   2.136   4.290 -0.9639  2.3116  0.3463
  229MOL0     H30909   4.022   2.045   4.112  0.3362 -0.5519 -0.0013
  229MOL0     H30910   3.880   2.000   4.019 -2.0197 -1.7111  0.4902
  229MOL0     H30911   3.899   1.891   4.308  1.0789 -0.4593  0.5831
  229MOL0     H30912   4.013   1.824   4.189  0.1709 -0.1820 -0.8122
  229MOL0     H30913   3.634   1.659   4.076 -0.6787  1.2575  0.1978
  229MOL0     H30914   3.637   2.182   3.940 -2.3384 -1.0313 -2.0454
  229MOL0     H30915   3.408   2.172   3.868 -0.2352 -0.0797 -1.1199
  230MOL0     O30916   3.409   1.503   3.043  0.1492  0.2679 -0.7636
  230MOL0     C30917   3.396   1.627   3.027  0.2452 -0.3101 -0.1055
  230MOL0     O30918   3.297   1.686   2.960  0.4884 -0.2486  0.2002
  230MOL0     C30919   3.187   1.614   2.926 -0.5269 -1.1505  0.0763
  230MOL0     C30920   3.179   1.529   2.813  1.2012 -0.8734 -0.0930
  230MOL0     C30921   3.055   1.460   2.790  0.1689  0.2680  0.3559
  230MOL0     C30922   2.941   1.464   2.878 -0.6622 -0.2407  0.3372
  230MOL0     O30923   2.822   1.398   2.850 -0.3360  0.3603 -0.0980
  230MOL0     C30924   2.778   1.370   2.718  1.1319 -0.1662 -0.3820
  230MOL0     C30925   2.661   1.468   2.686 -0.0282  0.5193 -0.1826
  230MOL0     C30926   2.521   1.428   2.740  0.2109  0.8425  0.2264
  230MOL0     C30927   2.465   1.308   2.679  0.0528  0.4368  0.0225
  230MOL0     C30928   2.314   1.305   2.705 -0.8285  0.4784 -0.6098
  230MOL0     C30929   2.270   1.301   2.855 -0.3083  0.4072 -0.1217
  230MOL0     C30930   2.117   1.315   2.856 -0.0748  0.3239 -0.2754
  230MOL0     C30931   2.068   1.338   3.009  0.9134  0.4175  0.1792
  230MOL0     N30932   1.920   1.331   3.032  0.6715 -0.2164 -0.0382
  230MOL0     C30933   1.835   1.240   2.982 -0.1928  0.6180  0.3194
  230MOL0     C30934   1.710   1.285   3.002  0.1262  0.1546 -1.0763
  230MOL0     C30935   1.575   1.231   2.949  0.2827  0.9472  0.8317
  230MOL0     C30936   1.468   1.221   3.056 -1.1169  0.8491  0.3340
  230MOL0     C30937   1.381   1.347   3.069 -0.1838 -0.2631 -0.4310
  230MOL0     C30938   1.290   1.377   2.943 -0.3043 -1.3737 -0.3170
  230MOL0     O30939   1.225   1.262   2.885  0.2320  0.6495 -0.2524
  230MOL0     C30940   1.093   1.272   2.866 -0.1473  0.1168  0.3917
  230MOL0     C30941   1.017   1.156   2.881  0.4224 -0.6880 -0.0363
  230MOL0     C30942   0.884   1.150   2.856  0.6733  1.0266 -0.2343
  230MOL0     C30943   0.816   1.013   2.882  0.7462  0.1110  0.0965
  230MOL0     C30944   0.817   1.265   2.804  0.1479 -0.1298 -0.6114
  230MOL0     C30945   0.670   1.268   2.780  0.3711  0.1480 -0.0559
  230MOL0     O30946   0.626   1.357   2.681  0.2574  0.6577  0.2887
  230MOL0     C30947   0.504   1.327   2.650  0.7857 -0.5800 -0.2692
  230MOL0     C30948   0.470   1.249   2.535  0.3096 -0.2077 -0.6841
  230MOL0     C30949   0.348   1.266   2.472 -0.4814 -0.6664  0.4748
  230MOL0     C30950   0.246   1.338   2.540 -0.3915 -0.9716  0.2108
  230MOL0     O30951   0.116   1.328   2.498  1.0735  0.0911 -0.6118
  230MOL0     C30952   0.045   1.243   2.588 -0.2340  0.1889 -0.0460
  230MOL0     C30953  -0.101   1.293   2.589 -0.3906  0.4969 -0.0141
  230MOL0     C30954  -0.179   1.246   2.713  0.5851 -0.4461  0.3289
  230MOL0     C30955  -0.209   1.102   2.697  0.0170  0.3412  0.6877
  230MOL0     C30956  -0.280   1.040   2.817  0.5911 -0.3913 -0.0579
  230MOL0     C30957  -0.249   0.895   2.824 -1.0786 -0.6925  0.8808
  230MOL0     C30958  -0.341   0.818   2.722  0.1742 -0.1655 -0.0274
  230MOL0     C30959  -0.291   0.708   2.644  0.1176 -0.1441 -0.0407
  230MOL0    Cl30960  -0.446   0.610   2.594  0.1382  0.0288 -0.2281
  230MOL0     C30961   0.271   1.401   2.664  0.2222  0.2515 -0.9589
  230MOL0     C30962   0.403   1.398   2.718 -0.0142  0.3226 -1.0593
  230MOL0     O30963   0.595   1.217   2.868  0.1976  0.2825  0.0665
  230MOL0     C30964   0.892   1.387   2.785 -0.1667  0.9521 -0.3548
  230MOL0     C30965   1.032   1.387   2.810  0.1354 -0.7679 -1.0013
  230MOL0     N30966   1.720   1.394   3.076  0.1323 -0.5576  0.4555
  230MOL0     N30967   1.845   1.432   3.087 -0.3620  0.0398 -0.3840
  230MOL0     C30968   2.958   1.549   2.980  0.0191  0.2995 -0.1795
  230MOL0     C30969   3.077   1.617   3.014  0.2999  0.5515  0.7227
  230MOL0     C30970   3.515   1.699   3.058  0.3225 -0.6812  0.1755
  230MOL0     C30971   3.639   1.640   3.051 -0.3401  0.9133  0.1605
  230MOL0     C30972   3.756   1.715   3.076 -0.1850  0.2286 -0.1679
  230MOL0     C30973   3.750   1.852   3.102  0.0543  0.6196  0.4021
  230MOL0     O30974   3.877   1.911   3.130 -0.4109  0.5917 -0.3990
  230MOL0     C30975   3.877   2.029   3.220  0.6423 -0.3607 -0.1891
  230MOL0     C30976   4.010   2.063   3.279  0.5610  0.1361  0.3550
  230MOL0     C30977   4.000   2.197   3.354  0.3075 -0.0944  0.9545
  230MOL0     C30978   4.126   2.231   3.431  0.2353  0.1618  0.4696
  230MOL0     C30979   4.243   2.260   3.346  0.0905 -0.2558 -0.0627
  230MOL0     C30980   4.321   2.291   3.250 -0.4375 -0.3182  0.4719
  230MOL0     C30981   3.625   1.911   3.121 -0.0132  0.3052 -0.4479
  230MOL0     C30982   3.509   1.836   3.092 -0.7968 -0.3381 -0.8502
  230MOL0     H30983   3.260   1.523   2.740  2.6928 -2.6735  1.6093
  230MOL0     H30984   3.054   1.397   2.702  1.0994 -0.2036  0.6679
  230MOL0     H30985   2.858   1.368   2.643  3.8721 -1.5034  2.3625
  230MOL0     H30986   2.735   1.269   2.716  0.5433  0.0747 -0.1252
  230MOL0     H30987   2.692   1.564   2.727  2.8461 -1.1789  2.0512
  230MOL0     H30988   2.648   1.466   2.578 -0.3670  2.3712 -0.2014
  230MOL0     H30989   2.534   1.416   2.848 -0.2769 -0.1180  0.1934
  230MOL0     H30990   2.449   1.509   2.728 -1.7908 -0.9306 -0.2923
  230MOL0     H30991   2.483   1.300   2.571  0.4344 -3.1015  0.2328
  230MOL0     H30992   2.509   1.219   2.725  2.6321  1.6967  0.1950
  230MOL0     H30993   2.271   1.391   2.652 -1.0277  1.3149  0.8671
  230MOL0     H30994   2.278   1.207   2.671  2.3825 -0.2515 -2.3714
  230MOL0     H30995   2.311   1.218   2.913 -0.0785 -0.1479 -1.0670
  230MOL0     H30996   2.329   1.383   2.898  0.4460  0.6334 -1.5287
  230MOL0     H30997   2.098   1.406   2.799  0.0145 -0.8651 -2.3151
  230MOL0     H30998   2.071   1.227   2.809  2.4032 -0.9036 -0.5540
  230MOL0     H30999   2.107   1.434   3.042 -1.1537  1.2813  0.2693
  230MOL0     H31000   2.122   1.263   3.067 -0.7445  1.9593  4.0400
  230MOL0     H31001   1.866   1.152   2.926  0.1179  0.9222  0.0029
  230MOL0     H31002   1.546   1.285   2.858  2.2180 -1.4890 -1.4059
  230MOL0     H31003   1.591   1.132   2.904 -1.2040  1.6379 -1.4537
  230MOL0     H31004   1.525   1.192   3.145  3.2114  1.3907 -2.0166
  230MOL0     H31005   1.393   1.143   3.044 -1.7769  1.4396  0.5212
  230MOL0     H31006   1.445   1.434   3.090  1.5143 -1.2868 -1.1566
  230MOL0     H31007   1.313   1.337   3.154 -1.6310 -0.0428 -1.5138
  230MOL0     H31008   1.348   1.436   2.872  0.5771 -0.6479  0.9631
  230MOL0     H31009   1.217   1.450   2.979 -0.1175 -3.1467  4.2544
  230MOL0     H31010   1.084   1.073   2.903  0.5348 -1.2692 -2.3510
  230MOL0     H31011   0.886   0.932   2.861  0.2680 -0.1517 -0.5019
  230MOL0     H31012   0.773   0.996   2.981 -1.6380 -1.3173 -1.0918
  230MOL0     H31013   0.729   0.999   2.817  0.5448 -0.8853  0.5697
  230MOL0     H31014   0.557   1.198   2.495  2.4019  1.7651  1.1414
  230MOL0     H31015   0.308   1.229   2.378 -2.8689  1.5704  0.4872
  230MOL0     H31016   0.049   1.141   2.549  1.0838  0.2718 -0.1698
  230MOL0     H31017   0.079   1.242   2.692 -3.8453 -0.9595  1.2680
  230MOL0     H31018  -0.107   1.402   2.589 -1.4646  0.4481  0.0390
  230MOL0     H31019  -0.153   1.247   2.504  1.4934 -1.0064 -0.4244
  230MOL0     H31020  -0.270   1.305   2.725  1.0936  0.0810  1.8805
  230MOL0     H31021  -0.122   1.267   2.804  1.0196  0.6559 -0.1707
  230MOL0     H31022  -0.269   1.082   2.608  0.6366 -1.2514  0.5913
  230MOL0     H31023  -0.117   1.048   2.673 -0.6262  0.0881 -1.3715
  230MOL0     H31024  -0.385   1.067   2.825  0.0485 -1.1261 -3.3704
  230MOL0     H31025  -0.236   1.087   2.906  2.1262 -0.9401 -0.4905
  230MOL0     H31026  -0.145   0.877   2.795 -0.7615 -1.1477  2.2124
  230MOL0     H31027  -0.266   0.856   2.925  0.3517 -1.7249  0.7639
  230MOL0     H31028  -0.368   0.890   2.644  0.6110 -2.9095 -2.9195
  230MOL0     H31029  -0.434   0.788   2.770 -0.0743 -0.6788 -0.8102
  230MOL0     H31030  -0.223   0.646   2.702  0.5781  0.9487  0.6265
  230MOL0     H31031  -0.251   0.743   2.548  0.0151 -1.1462 -0.4578
  230MOL0     H31032   0.184   1.442   2.714 -2.5831 -3.6224 -2.2088
  230MOL0     H31033   0.436   1.457   2.804  2.7700 -3.1426  0.4912
  230MOL0     H31034   0.853   1.469   2.725 -0.6058  0.0320 -1.3858
  230MOL0     H31035   1.089   1.476   2.784 -1.5598 -0.1395 -2.9403
  230MOL0     H31036   2.878   1.555   3.054  0.7319 -0.1736  0.6501
  230MOL0     H31037   3.096   1.665   3.110 -2.5264  1.2190  1.0245
  230MOL0     H31038   3.641   1.536   3.022 -1.2596  1.0465 -0.4357
  230MOL0     H31039   3.854   1.668   3.081 -1.0237 -1.5172  3.1414
  230MOL0     H31040   3.840   2.115   3.164  3.9405 -1.0703 -3.8302
  230MOL0     H31041   3.813   2.007   3.306  1.6367 -1.9150  0.1841
  230MOL0     H31042   4.089   2.054   3.204  0.7878 -1.7637  0.7771
  230MOL0     H31043   4.032   1.991   3.359 -0.8777  1.6688  2.2497
  230MOL0     H31044   3.911   2.198   3.418  0.9600 -1.2446  1.9377
  230MOL0     H31045   3.986   2.271   3.275  1.5824 -0.9796 -0.1514
  230MOL0     H31046   4.150   2.140   3.488  0.2526 -0.0206  0.1709
  230MOL0     H31047   4.119   2.312   3.504 -0.2666  0.0201  0.5774
  230MOL0     H31048   4.395   2.291   3.173  0.9757 -4.2231  1.5973
  230MOL0     H31049   3.603   2.010   3.159 -0.6188  0.9965 -2.4714
  230MOL0     H31050   3.414   1.886   3.107  0.4515  1.4817  1.9136
  231MOL0     O31051   5.085   2.117   4.253 -0.1220  0.0353 -0.1271
  231MOL0     C31052   5.074   2.011   4.302  0.7892  0.7681 -0.6475
  231MOL0     O31053   5.015   1.981   4.426 -0.0091  0.5201 -0.5359
  231MOL0     C31054   4.928   2.057   4.501  0.0160 -0.1539 -0.1981
  231MOL0     C31055   4.861   2.169   4.451  0.2813  0.6732  0.2040
  231MOL0     C31056   4.766   2.242   4.527  0.4056  0.8296  0.7522
  231MOL0     C31057   4.742   2.226   4.658 -0.5802 -0.3775 -0.2642
  231MOL0     O31058   4.658   2.303   4.736  0.2596  0.3293  0.4179
  231MOL0     C31059   4.545   2.371   4.671  0.2224  0.3805  0.4127
  231MOL0     C31060   4.591   2.504   4.629 -0.3961 -0.4554  0.7779
  231MOL0     C31061   4.475   2.554   4.536 -1.1091 -0.6469 -0.2698
  231MOL0     C31062   4.360   2.625   4.605  0.4784  0.6339  0.2774
  231MOL0     C31063   4.258   2.662   4.507  0.5399  0.2934 -0.1585
  231MOL0     C31064   4.165   2.761   4.571  0.3007  0.4587 -0.4898
  231MOL0     C31065   4.082   2.837   4.470 -0.2908  0.1779  0.1625
  231MOL0     C31066   4.042   2.974   4.515 -0.1497 -0.1319 -0.0779
  231MOL0     N31067   3.930   3.028   4.441 -0.0334  0.0623  0.5231
  231MOL0     C31068   3.866   3.148   4.473 -0.0567  0.3477  0.1072
  231MOL0     C31069   3.779   3.167   4.373  0.1867 -0.1396  0.4114
  231MOL0     C31070   3.699   3.295   4.365 -0.1011 -0.0529  0.6063
  231MOL0     C31071   3.545   3.253   4.341 -0.1423 -0.4319  0.0308
  231MOL0     C31072   3.462   3.234   4.463  0.1893 -0.2890 -0.9897
  231MOL0     C31073   3.308   3.247   4.453  0.3794 -1.1773 -0.4972
  231MOL0     O31074   3.241   3.150   4.372  0.2353 -0.4856 -0.7860
  231MOL0     C31075   3.100   3.153   4.355 -0.4953 -0.3841 -0.5802
  231MOL0     C31076   3.008   3.245   4.423  0.2147 -0.2353  0.6949
  231MOL0     C31077   2.867   3.243   4.405 -0.1663  0.0878 -0.5415
  231MOL0     C31078   2.790   3.366   4.446 -0.2749  0.6108  0.4480
  231MOL0     C31079   2.816   3.141   4.325  0.3313  0.9590 -0.5259
  231MOL0     C31080   2.672   3.119   4.294 -1.0345  0.4441  0.6414
  231MOL0     O31081   2.640   3.052   4.182  0.7638 -0.5449  0.4312
  231MOL0     C31082   2.502   3.046   4.151 -0.8282  0.2258 -0.2034
  231MOL0     C31083   2.430   3.165   4.141  0.1465  0.8530  0.6095
  231MOL0     C31084   2.296   3.159   4.101  0.2972  0.0685 -0.0153
  231MOL0     C31085   2.232   3.041   4.061  0.4298  0.6630 -0.1226
  231MOL0     O31086   2.107   3.031   3.999  0.0491 -0.1789 -0.3381
  231MOL0     C31087   2.004   3.126   4.032  0.9799  0.0748  0.3511
  231MOL0     C31088   1.879   3.066   3.978 -0.4994  0.2992  0.5022
  231MOL0     C31089   1.762   3.172   3.991  0.2401 -0.3989 -0.4479
  231MOL0     C31090   1.635   3.111   3.928  0.6472 -0.2388  0.9510
  231MOL0     C31091   1.509   3.203   3.913 -0.2875 -0.2823 -0.3779
  231MOL0     C31092   1.384   3.138   3.847 -0.9405 -0.3871 -0.7509
  231MOL0     C31093   1.273   3.096   3.942 -0.3228  0.0064  0.3113
  231MOL0     C31094   1.199   2.963   3.898  0.4048 -1.0361  0.2880
  231MOL0    Cl31095   1.306   2.822   3.920  0.2002 -0.4444 -0.5345
  231MOL0     C31096   2.311   2.924   4.069  0.4012  0.6054  0.2154
  231MOL0     C31097   2.445   2.931   4.099 -0.0775  0.4508  0.0101
  231MOL0     O31098   2.594   3.170   4.370 -0.0373 -0.9647  0.0136
  231MOL0     C31099   2.905   3.047   4.259 -0.9948 -0.2349 -0.3018
  231MOL0     C31100   3.038   3.056   4.280  0.0289 -0.3749  0.3499
  231MOL0     N31101   3.785   3.061   4.284  0.9088 -0.4642 -0.2556
  231MOL0     N31102   3.873   2.977   4.328 -0.2484 -0.4422  0.6734
  231MOL0     C31103   4.822   2.124   4.726 -0.0127 -0.1931  0.4811
  231MOL0     C31104   4.914   2.042   4.646 -0.1146  0.3697 -0.4126
  231MOL0     C31105   5.118   1.898   4.224 -0.8261 -0.0104 -0.3295
  231MOL0     C31106   5.062   1.773   4.258  0.0688 -0.2024 -0.2812
  231MOL0     C31107   5.099   1.656   4.191  0.2009 -0.0855  0.1116
  231MOL0     C31108   5.188   1.668   4.081 -0.7779  1.3218 -0.2276
  231MOL0     O31109   5.218   1.575   3.992  0.1808 -0.2422  0.5027
  231MOL0     C31110   5.207   1.438   4.034 -0.0398  0.2770  0.0845
  231MOL0     C31111   5.262   1.390   4.160 -0.0697  0.4925  0.3481
  231MOL0     C31112   5.396   1.450   4.184  0.0404 -0.3466 -0.3841
  231MOL0     C31113   5.486   1.343   4.241 -0.1347 -1.1395 -1.0289
  231MOL0     C31114   5.447   1.294   4.371  0.1946 -0.0181 -0.6607
  231MOL0     C31115   5.416   1.261   4.481  1.2867  0.1388  0.0487
  231MOL0     C31116   5.242   1.790   4.050  0.5664 -0.4359 -0.0708
  231MOL0     C31117   5.204   1.905   4.120 -0.0255 -1.3979  0.3531
  231MOL0     H31118   4.874   2.199   4.348 -0.1800  1.4819  0.3607
  231MOL0     H31119   4.730   2.324   4.465  3.0499  1.3607 -0.2325
  231MOL0     H31120   4.519   2.314   4.581 -2.7306  0.8490  0.8748
  231MOL0     H31121   4.465   2.380   4.745 -0.2522 -0.3714  0.0044
  231MOL0     H31122   4.602   2.568   4.717  1.9831 -0.6042  0.6574
  231MOL0     H31123   4.683   2.495   4.570 -0.4954 -1.0093  0.7001
  231MOL0     H31124   4.520   2.623   4.464 -2.5862 -0.7783 -1.3578
  231MOL0     H31125   4.430   2.470   4.483 -0.8088 -0.2861 -1.1201
  231MOL0     H31126   4.317   2.562   4.683  0.7386 -1.2984 -1.0849
  231MOL0     H31127   4.406   2.717   4.643  2.3540  1.1962 -2.9463
  231MOL0     H31128   4.311   2.704   4.422 -1.2158  2.2532 -0.3802
  231MOL0     H31129   4.202   2.572   4.479 -1.3013  1.8189 -1.6111
  231MOL0     H31130   4.107   2.711   4.650  2.2207 -1.6319 -0.3134
  231MOL0     H31131   4.230   2.835   4.617 -0.7955  1.4981 -0.5573
  231MOL0     H31132   4.139   2.856   4.378 -1.1358  0.9386 -0.2246
  231MOL0     H31133   3.993   2.781   4.440  0.7075 -2.1601  1.3326
  231MOL0     H31134   4.130   3.038   4.504 -1.6131  2.0560  0.3674
  231MOL0     H31135   4.019   2.973   4.622  0.8036 -0.5427  0.1361
  231MOL0     H31136   3.894   3.212   4.556  2.4811 -1.9156  1.1530
  231MOL0     H31137   3.720   3.357   4.452  3.6790 -0.6802  0.2937
  231MOL0     H31138   3.731   3.343   4.272 -3.0291 -0.7360 -0.8947
  231MOL0     H31139   3.538   3.174   4.265 -2.2198  0.2924 -0.6008
  231MOL0     H31140   3.513   3.345   4.291  1.7378 -0.2364 -0.8808
  231MOL0     H31141   3.505   3.301   4.537 -1.1582  0.7489 -1.1201
  231MOL0     H31142   3.484   3.136   4.508 -0.1829  0.3863  0.7009
  231MOL0     H31143   3.291   3.345   4.409 -1.1611 -1.6058 -0.9149
  231MOL0     H31144   3.267   3.241   4.554  3.0141 -0.2669  0.7085
  231MOL0     H31145   3.057   3.330   4.468 -0.5412 -1.4641  4.2107
  231MOL0     H31146   2.743   3.415   4.360  2.3798 -1.0900 -2.1925
  231MOL0     H31147   2.729   3.346   4.534 -1.8221  0.0492 -0.7306
  231MOL0     H31148   2.865   3.445   4.463 -2.3866  2.8186 -0.0136
  231MOL0     H31149   2.475   3.263   4.156 -2.2048  1.9690  1.0079
  231MOL0     H31150   2.241   3.253   4.108 -3.0240 -1.7731  0.7102
  231MOL0     H31151   1.990   3.149   4.138 -2.4933  0.0755  0.0136
  231MOL0     H31152   2.025   3.218   3.976 -1.0540  0.6977  0.5184
  231MOL0     H31153   1.890   3.031   3.875 -4.1295 -1.1955  0.4612
  231MOL0     H31154   1.857   2.980   4.041 -1.6963 -0.3097 -0.6824
  231MOL0     H31155   1.796   3.263   3.943  1.2246 -0.9957 -0.8997
  231MOL0     H31156   1.745   3.198   4.096  2.9602  3.1530 -0.7110
  231MOL0     H31157   1.660   3.078   3.827  3.4885  1.8992  0.8456
  231MOL0     H31158   1.614   3.021   3.987 -0.3077  0.0626  1.0851
  231MOL0     H31159   1.537   3.282   3.843 -1.6340 -0.6493 -1.3879
  231MOL0     H31160   1.484   3.236   4.014 -0.3688  1.4606 -0.9315
  231MOL0     H31161   1.342   3.203   3.769 -0.7213 -0.6344 -1.0755
  231MOL0     H31162   1.422   3.049   3.796 -0.7499 -1.1186  0.6027
  231MOL0     H31163   1.202   3.179   3.946  1.4538  1.6210 -0.1109
  231MOL0     H31164   1.322   3.090   4.040  0.7401  0.3467 -0.1854
  231MOL0     H31165   1.178   2.962   3.791 -2.4871  0.7105  0.7308
  231MOL0     H31166   1.118   2.948   3.970 -0.2367 -3.7598 -0.8554
  231MOL0     H31167   2.282   2.825   4.035  0.1120  0.4537  0.8885
  231MOL0     H31168   2.505   2.844   4.072 -1.6019 -0.2211 -1.3770
  231MOL0     H31169   2.870   2.975   4.185  0.4086 -0.7384 -0.4963
  231MOL0     H31170   3.094   2.993   4.212 -0.7487  1.1773 -1.8466
  231MOL0     H31171   4.822   2.100   4.832  0.4238  1.4179  0.8862
  231MOL0     H31172   4.974   1.962   4.688 -1.1966 -0.8706 -1.1487
  231MOL0     H31173   4.989   1.773   4.339 -1.2524 -0.2536 -1.4443
  231MOL0     H31174   5.041   1.570   4.223 -1.6025  1.7492  2.0906
  231MOL0     H31175   5.101   1.412   4.041  0.2968 -1.3925 -0.5318
  231MOL0     H31176   5.250   1.392   3.945 -1.6940  0.8431 -1.0586
  231MOL0     H31177   5.267   1.281   4.166  1.2632  0.6093  2.1698
  231MOL0     H31178   5.202   1.417   4.247  0.6045 -3.4948  2.2629
  231MOL0     H31179   5.402   1.530   4.258  1.5805  2.5672 -3.3795
  231MOL0     H31180   5.447   1.484   4.093 -0.2935 -3.3242 -1.8106
  231MOL0     H31181   5.585   1.388   4.248 -1.1341  0.8590  1.4688
  231MOL0     H31182   5.499   1.261   4.169 -2.3663  1.0866 -4.2308
  231MOL0     H31183   5.383   1.226   4.577  1.3973  0.8876  0.3679
  231MOL0     H31184   5.317   1.800   3.973  2.1359 -3.9902  0.8152
  231MOL0     H31185   5.258   1.988   4.075  0.6544 -2.5720 -1.0831
  232MOL0     O31186   1.413   1.561   6.897  0.6134  0.5837  0.0728
  232MOL0     C31187   1.414   1.443   6.925  0.5293 -0.4037 -0.6347
  232MOL0     O31188   1.303   1.361   6.938 -0.3010  0.4115 -0.0565
  232MOL0     C31189   1.179   1.407   6.905 -0.0602  0.3722 -0.0533
  232MOL0     C31190   1.116   1.475   7.009  0.7499  0.1168  0.2945
  232MOL0     C31191   0.974   1.491   6.997 -0.5671 -0.2928 -0.8878
  232MOL0     C31192   0.911   1.456   6.877  1.0820 -0.1095  0.4226
  232MOL0     O31193   0.772   1.450   6.869  0.1353 -0.6847  0.1971
  232MOL0     C31194   0.694   1.504   6.981 -0.0227 -0.1430 -0.0454
  232MOL0     C31195   0.552   1.462   6.948  0.1077 -0.6978 -0.1877
  232MOL0     C31196   0.484   1.539   6.840 -0.8422 -0.1647  0.3585
  232MOL0     C31197   0.344   1.500   6.817  0.6169 -0.1213 -0.5796
  232MOL0     C31198   0.288   1.577   6.688  0.0684  0.0727 -0.5892
  232MOL0     C31199   0.271   1.728   6.722 -1.0539 -0.3349 -0.8095
  232MOL0     C31200   0.155   1.794   6.650  0.2931  0.4424 -0.3646
  232MOL0     C31201   0.178   1.829   6.504 -0.5642 -0.1885 -0.2842
  232MOL0     N31202   0.066   1.878   6.433  0.1746 -0.9295  0.1107
  232MOL0     C31203  -0.017   1.814   6.338  0.4579  0.2397  0.8627
  232MOL0     C31204  -0.119   1.901   6.313 -0.8813  0.9551 -0.3048
  232MOL0     C31205  -0.235   1.869   6.219 -0.5007  0.0708  0.2003
  232MOL0     C31206  -0.351   1.808   6.303 -0.3530  0.4685  0.8579
  232MOL0     C31207  -0.477   1.786   6.215  0.3710  0.1749 -0.3400
  232MOL0     C31208  -0.571   1.699   6.295  0.4828  0.0231  0.2527
  232MOL0     O31209  -0.692   1.678   6.231  0.1405  0.4384  0.1990
  232MOL0     C31210  -0.796   1.755   6.270  0.6789 -0.8531 -0.0492
  232MOL0     C31211  -0.810   1.845   6.376 -0.5248  0.3945 -0.5566
  232MOL0     C31212  -0.929   1.901   6.407 -0.0912 -0.6762 -0.0197
  232MOL0     C31213  -0.934   1.983   6.541  0.5141  0.0914  0.5107
  232MOL0     C31214  -1.037   1.896   6.314  0.1320 -0.0620  0.6860
  232MOL0     C31215  -1.169   1.974   6.326 -0.8600 -0.1450 -0.4258
  232MOL0     O31216  -1.231   1.984   6.206  0.1950  0.8968 -0.0221
  232MOL0     C31217  -1.354   2.027   6.214  0.5535  0.1914 -0.5736
  232MOL0     C31218  -1.457   1.934   6.235  0.3847  0.4379 -0.1270
  232MOL0     C31219  -1.592   1.981   6.227 -0.5720  0.3423  0.0222
  232MOL0     C31220  -1.622   2.114   6.188  0.1710 -1.1109 -0.4694
  232MOL0     O31221  -1.758   2.151   6.183  0.2204  0.1849  0.0189
  232MOL0     C31222  -1.800   2.271   6.120  0.4936 -0.4377  0.2704
  232MOL0     C31223  -1.954   2.277   6.147 -0.5515  0.2037 -0.1955
  232MOL0     C31224  -2.014   2.414   6.118 -0.0527 -0.0289  0.0779
  232MOL0     C31225  -2.150   2.417   6.178 -0.0867  0.1217 -0.0365
  232MOL0     C31226  -2.226   2.542   6.144  0.0574  0.7515  0.1091
  232MOL0     C31227  -2.381   2.545   6.161 -0.0667  0.2208  0.0806
  232MOL0     C31228  -2.463   2.445   6.089 -0.6958  0.9699  0.1146
  232MOL0     C31229  -2.608   2.450   6.121 -0.1668 -0.1483  0.6673
  232MOL0    Cl31230  -2.617   2.380   6.282 -0.0613 -0.1200  0.0551
  232MOL0     C31231  -1.511   2.208   6.162 -0.1011 -0.3256 -0.0010
  232MOL0     C31232  -1.382   2.151   6.172 -0.3097 -1.0682  0.1795
  232MOL0     O31233  -1.207   2.028   6.429 -0.2349 -0.6581  0.3271
  232MOL0     C31234  -1.016   1.809   6.201 -0.5205 -0.6128 -0.2760
  232MOL0     C31235  -0.899   1.732   6.183 -0.3326 -0.0089  0.8474
  232MOL0     N31236  -0.096   2.018   6.385 -0.5416  1.0892  0.3402
  232MOL0     N31237   0.005   1.999   6.459  0.3189 -0.0778 -0.5699
  232MOL0     C31238   0.978   1.403   6.769  0.3715  0.3683 -0.4805
  232MOL0     C31239   1.117   1.376   6.786  0.3170  0.6374  0.0825
  232MOL0     C31240   1.546   1.392   6.967  0.1228 -0.0315  0.0066
  232MOL0     C31241   1.587   1.262   6.932  0.6533  0.6725 -0.9324
  232MOL0     C31242   1.710   1.208   6.981  0.6426 -0.1609  0.3472
  232MOL0     C31243   1.805   1.296   7.044  0.0351  0.9365  1.2966
  232MOL0     O31244   1.930   1.256   7.096  0.4946  0.1311  0.7555
  232MOL0     C31245   1.993   1.140   7.043  0.1236 -0.4345  0.0527
  232MOL0     C31246   2.125   1.101   7.115  0.0276  0.5371  1.2088
  232MOL0     C31247   2.186   0.972   7.061 -0.0379 -0.2073 -0.1670
  232MOL0     C31248   2.309   0.929   7.141 -0.0502 -0.0508 -0.3302
  232MOL0     C31249   2.439   1.003   7.133  0.1801  0.0722 -0.3036
  232MOL0     C31250   2.547   1.058   7.115 -0.2413 -0.5665  0.3212
  232MOL0     C31251   1.766   1.426   7.067 -0.1929 -0.1871 -0.2716
  232MOL0     C31252   1.634   1.479   7.037 -0.7086  0.4741  0.0439
  232MOL0     H31253   1.173   1.487   7.100  1.6151  0.8977 -0.3221
  232MOL0     H31254   0.935   1.545   7.083  2.2980  1.3969 -0.5139
  232MOL0     H31255   0.726   1.462   7.076  1.6939  0.4592 -0.3129
  232MOL0     H31256   0.711   1.611   6.992  0.1873 -0.0597 -1.0614
  232MOL0     H31257   0.545   1.354   6.928 -3.3151 -0.4550 -0.9661
  232MOL0     H31258   0.496   1.471   7.041 -1.0266  0.8691 -0.9807
  232MOL0     H31259   0.481   1.646   6.866 -5.2002  0.1256 -0.5949
  232MOL0     H31260   0.536   1.529   6.745  1.8053 -0.0403  1.6862
  232MOL0     H31261   0.337   1.392   6.807  0.3241 -0.0424 -1.2851
  232MOL0     H31262   0.295   1.537   6.908  0.2596 -3.3442  0.6692
  232MOL0     H31263   0.349   1.563   6.598 -2.2586 -0.4069 -2.1910
  232MOL0     H31264   0.185   1.544   6.671  0.0804 -0.7729  0.8366
  232MOL0     H31265   0.265   1.744   6.830  2.1162 -1.8301 -0.3074
  232MOL0     H31266   0.360   1.784   6.691  0.9066 -2.1137  1.2725
  232MOL0     H31267   0.070   1.728   6.668 -0.2788  1.2666  0.0355
  232MOL0     H31268   0.124   1.888   6.697 -1.5547  1.7668 -3.8439
  232MOL0     H31269   0.204   1.740   6.445 -1.9946  0.6773 -2.3586
  232MOL0     H31270   0.260   1.901   6.498  0.0687 -0.8485  0.2995
  232MOL0     H31271  -0.000   1.715   6.297  1.3014  0.8041 -0.2301
  232MOL0     H31272  -0.271   1.963   6.176 -0.0023  0.1442 -0.0719
  232MOL0     H31273  -0.213   1.794   6.142 -0.5609 -1.3800  1.5281
  232MOL0     H31274  -0.380   1.886   6.374 -0.7071 -0.9132  2.2931
  232MOL0     H31275  -0.317   1.717   6.354  1.8231  0.5822 -0.2677
  232MOL0     H31276  -0.459   1.742   6.117  0.2889 -1.5342  0.3741
  232MOL0     H31277  -0.523   1.878   6.178  1.3997 -0.7960 -4.4437
  232MOL0     H31278  -0.586   1.733   6.398  1.3941  2.2850 -0.3143
  232MOL0     H31279  -0.519   1.603   6.305 -0.6034 -0.9231 -2.2829
  232MOL0     H31280  -0.725   1.852   6.444 -0.5001 -4.5487  0.2631
  232MOL0     H31281  -1.025   1.954   6.595  1.4595 -3.7943  0.3481
  232MOL0     H31282  -0.846   1.952   6.597  0.5742 -1.5934 -0.4253
  232MOL0     H31283  -0.924   2.089   6.519  1.6374  0.3277  2.0521
  232MOL0     H31284  -1.430   1.829   6.231  2.1585  0.8787 -1.1136
  232MOL0     H31285  -1.676   1.914   6.243 -0.0577 -0.4647 -0.5508
  232MOL0     H31286  -1.745   2.357   6.159  2.0255 -0.9142 -0.7581
  232MOL0     H31287  -1.777   2.268   6.013 -0.0367 -0.4785  0.1558
  232MOL0     H31288  -2.008   2.208   6.083 -0.9611  0.1985  0.1498
  232MOL0     H31289  -1.974   2.252   6.252  0.8683  0.2405  0.1059
  232MOL0     H31290  -2.009   2.431   6.010  0.5378 -0.7651 -0.0205
  232MOL0     H31291  -1.948   2.477   6.178  1.5722 -3.9112  2.7978
  232MOL0     H31292  -2.196   2.328   6.132  2.1799 -1.3064  0.3364
  232MOL0     H31293  -2.141   2.411   6.287 -1.7057 -3.4199  0.0407
  232MOL0     H31294  -2.191   2.567   6.044 -1.9787  1.9050 -0.3731
  232MOL0     H31295  -2.189   2.616   6.217  2.0189  0.9460 -1.0296
  232MOL0     H31296  -2.399   2.536   6.268 -0.1478 -1.0598 -0.0259
  232MOL0     H31297  -2.430   2.641   6.142  0.9364  0.5591 -0.9313
  232MOL0     H31298  -2.429   2.345   6.116 -2.8942 -0.2691 -1.3642
  232MOL0     H31299  -2.453   2.463   5.982 -1.2640  3.7807  0.4526
  232MOL0     H31300  -2.670   2.401   6.045  3.3234  0.2175 -2.7418
  232MOL0     H31301  -2.646   2.552   6.115 -0.6782 -0.4125 -2.1342
  232MOL0     H31302  -1.537   2.310   6.137  0.9735 -0.3301 -1.2656
  232MOL0     H31303  -1.300   2.216   6.145 -1.0053 -0.7637 -1.2726
  232MOL0     H31304  -1.101   1.779   6.140  0.1877 -3.2609 -0.0965
  232MOL0     H31305  -0.899   1.660   6.102 -0.8398 -0.1817  0.9935
  232MOL0     H31306   0.928   1.376   6.676  3.2246  0.3640 -2.1136
  232MOL0     H31307   1.167   1.309   6.717  0.4443  1.0671 -0.2490
  232MOL0     H31308   1.521   1.188   6.887  1.1345 -0.9381  0.8809
  232MOL0     H31309   1.733   1.106   6.953 -1.8602 -0.1296 -2.2717
  232MOL0     H31310   1.931   1.052   7.065  0.2060  0.3729  4.5681
  232MOL0     H31311   2.013   1.163   6.938  4.3550  0.0973  0.8025
  232MOL0     H31312   2.094   1.081   7.218 -0.2169 -0.4329  0.9510
  232MOL0     H31313   2.187   1.191   7.106 -3.0275  2.8923  1.8793
  232MOL0     H31314   2.215   0.982   6.956  1.2271  1.3450  0.2895
  232MOL0     H31315   2.116   0.888   7.068  1.9801 -1.9569 -0.2163
  232MOL0     H31316   2.329   0.826   7.109  0.2370  0.0407 -0.4572
  232MOL0     H31317   2.285   0.927   7.247  2.9676  1.2340  0.5107
  232MOL0     H31318   2.634   1.121   7.117  1.0605 -2.3029  1.3300
  232MOL0     H31319   1.834   1.497   7.113 -1.2349  1.1142 -0.6605
  232MOL0     H31320   1.612   1.585   7.050 -1.0044  0.3216  0.8713
  233MOL0     O31321  10.324   8.625   1.973 -0.0878 -0.1791 -0.0781
  233MOL0     C31322  10.291   8.607   2.089 -0.1732  1.1365 -0.0278
  233MOL0     O31323  10.336   8.669   2.199 -0.3607  0.3776  0.2153
  233MOL0     C31324  10.431   8.767   2.170  0.3190  0.2153 -0.1573
  233MOL0     C31325  10.401   8.892   2.226  0.5546 -0.4748 -0.0007
  233MOL0     C31326  10.485   9.003   2.208 -0.2613 -0.4386 -0.8309
  233MOL0     C31327  10.604   8.989   2.132 -0.5711  1.0680  0.1259
  233MOL0     O31328  10.661   9.110   2.107 -0.2684  0.3968 -0.7957
  233MOL0     C31329  10.742   9.110   1.993  0.2776 -0.2949  0.1319
  233MOL0     C31330  10.758   9.251   1.953 -0.1340 -0.0112  0.4984
  233MOL0     C31331  10.629   9.301   1.889 -0.2403  0.1228  0.0730
  233MOL0     C31332  10.640   9.447   1.820  0.5555  0.1073 -0.4585
  233MOL0     C31333  10.525   9.462   1.723  0.2707 -0.4475 -0.1980
  233MOL0     C31334  10.397   9.510   1.797  0.3182 -0.3927  0.8341
  233MOL0     C31335  10.278   9.501   1.698 -0.0900 -0.1140 -0.4305
  233MOL0     C31336  10.145   9.540   1.755  0.2903 -0.0953 -0.0213
  233MOL0     N31337  10.036   9.504   1.652 -0.3422 -0.4821 -0.0465
  233MOL0     C31338   9.956   9.589   1.589 -0.1601 -0.4938  0.6365
  233MOL0     C31339   9.855   9.525   1.529  0.1103  0.0288  0.3822
  233MOL0     C31340   9.745   9.587   1.449  0.4959  0.3058 -0.5019
  233MOL0     C31341   9.741   9.526   1.307 -0.1798  0.0742  0.8083
  233MOL0     C31342   9.616   9.553   1.223  0.3770  0.7149  0.1184
  233MOL0     C31343   9.477   9.488   1.269  0.2785  0.2694 -0.2793
  233MOL0     O31344   9.376   9.533   1.180  0.0601  0.6541  0.1072
  233MOL0     C31345   9.299   9.642   1.213 -0.6797 -0.4675  0.2054
  233MOL0     C31346   9.211   9.679   1.114  0.0149  0.4953  0.1973
  233MOL0     C31347   9.103   9.769   1.132  0.7044 -0.6904  0.2404
  233MOL0     C31348   9.030   9.805   1.011 -0.1383  0.5915  0.7648
  233MOL0     C31349   9.076   9.816   1.265 -0.0686 -0.1048 -0.0128
  233MOL0     C31350   8.965   9.907   1.297 -0.2141  0.5439 -1.1818
  233MOL0     O31351   8.900   9.884   1.412 -1.0956 -0.4024  0.1645
  233MOL0     C31352   8.811   9.980   1.459  0.1895 -0.2904 -0.5511
  233MOL0     C31353   8.675   9.943   1.477  0.9713 -0.2250 -0.0482
  233MOL0     C31354   8.583  10.032   1.522 -0.3200 -0.1135 -0.7086
  233MOL0     C31355   8.619  10.160   1.556  0.2430 -0.5936 -0.3014
  233MOL0     O31356   8.543  10.260   1.611 -0.0403  0.5045  1.0533
  233MOL0     C31357   8.413  10.235   1.660  0.1125 -0.2138 -0.1274
  233MOL0     C31358   8.363  10.358   1.724  0.4849 -0.4048 -0.3731
  233MOL0     C31359   8.219  10.358   1.766  0.2139  0.0838  0.0382
  233MOL0     C31360   8.133  10.492   1.757  0.1586 -0.2001 -0.6426
  233MOL0     C31361   8.006  10.470   1.846  0.5358  0.0016 -0.3325
  233MOL0     C31362   7.914  10.594   1.842  1.1294 -0.1345  0.3103
  233MOL0     C31363   7.809  10.595   1.723  0.0198  0.3364 -0.0009
  233MOL0     C31364   7.729  10.727   1.724 -1.2112  0.6312 -0.0631
  233MOL0    Cl31365   7.576  10.704   1.622  0.1556  0.0745 -0.3056
  233MOL0     C31366   8.751  10.202   1.538  0.0023  0.2822  0.2373
  233MOL0     C31367   8.845  10.111   1.489 -0.0115 -0.2717 -0.4726
  233MOL0     O31368   8.947  10.000   1.224  0.2771 -0.5672  0.6485
  233MOL0     C31369   9.160   9.778   1.372 -0.4384 -0.4012  0.0693
  233MOL0     C31370   9.270   9.684   1.338 -0.5981 -0.1350 -0.6978
  233MOL0     N31371   9.869   9.390   1.549  0.4577  0.4137  0.0347
  233MOL0     N31372   9.980   9.380   1.616  0.3325  0.3659 -0.1776
  233MOL0     C31373  10.640   8.866   2.085  0.3774  0.1562 -0.2780
  233MOL0     C31374  10.553   8.756   2.105  0.1914  0.2983  0.0695
  233MOL0     C31375  10.188   8.504   2.119  0.7661  1.1104  0.6975
  233MOL0     C31376  10.191   8.435   2.236 -0.3899  0.4997 -0.1836
  233MOL0     C31377  10.094   8.336   2.254 -0.0320 -1.7158  0.3671
  233MOL0     C31378  10.003   8.294   2.155  0.7414  0.1024 -0.0361
  233MOL0     O31379   9.919   8.186   2.186 -0.3163  1.0571  0.8829
  233MOL0     C31380   9.864   8.099   2.082 -0.0992 -0.6087  0.3460
  233MOL0     C31381   9.738   8.170   2.042  0.1266 -0.5000 -0.3511
  233MOL0     C31382   9.621   8.161   2.150 -0.4959  0.9476  0.0887
  233MOL0     C31383   9.502   8.242   2.125  0.0591  1.3450  0.2752
  233MOL0     C31384   9.536   8.387   2.109  0.2347 -1.1754  0.3174
  233MOL0     C31385   9.542   8.497   2.080 -0.3339 -0.2067  0.4676
  233MOL0     C31386  10.018   8.354   2.031 -0.0133  0.0055 -0.0607
  233MOL0     C31387  10.096   8.467   2.014  0.1197  0.3312 -0.3195
  233MOL0     H31388  10.307   8.895   2.280  0.1512  0.8910 -0.7364
  233MOL0     H31389  10.439   9.094   2.245 -1.6704 -1.3910 -0.1574
  233MOL0     H31390  10.841   9.077   2.025  0.1443  0.7266  1.7488
  233MOL0     H31391  10.684   9.060   1.914 -1.8880  1.1156  0.7202
  233MOL0     H31392  10.793   9.309   2.039 -0.2146 -1.5911  1.6435
  233MOL0     H31393  10.825   9.243   1.867 -0.8798 -0.9264 -0.0161
  233MOL0     H31394  10.600   9.233   1.807  1.5948  1.5912 -1.8982
  233MOL0     H31395  10.550   9.305   1.964 -1.0809  0.7751 -0.8155
  233MOL0     H31396  10.650   9.522   1.898  1.6760  3.5475 -3.5982
  233MOL0     H31397  10.733   9.457   1.763  0.7024  0.8291 -0.0925
  233MOL0     H31398  10.547   9.541   1.650  0.1180  0.0611  0.2945
  233MOL0     H31399  10.510   9.372   1.663 -2.6058 -1.7088  2.1877
  233MOL0     H31400  10.375   9.442   1.880 -2.8493 -1.0724 -0.4022
  233MOL0     H31401  10.404   9.614   1.832  0.3610 -0.7389  1.8833
  233MOL0     H31402  10.297   9.562   1.610  2.7462  1.2296  0.9745
  233MOL0     H31403  10.267   9.397   1.670  2.6645 -0.4933 -0.4185
  233MOL0     H31404  10.138   9.643   1.789  1.9613  0.6670 -1.8405
  233MOL0     H31405  10.123   9.464   1.830  0.0249  0.4856  0.4963
  233MOL0     H31406   9.980   9.694   1.583 -1.3807 -0.1597  1.4241
  233MOL0     H31407   9.658   9.552   1.506  0.0070  1.3479 -0.5926
  233MOL0     H31408   9.753   9.696   1.455 -1.7465  0.5350 -0.8841
  233MOL0     H31409   9.738   9.418   1.318 -0.8712  0.3174  3.9514
  233MOL0     H31410   9.826   9.564   1.249 -1.9392  3.1919  0.0210
  233MOL0     H31411   9.623   9.514   1.121  0.6021  2.3289 -0.5276
  233MOL0     H31412   9.610   9.662   1.210 -0.4091  0.4408 -2.4642
  233MOL0     H31413   9.457   9.527   1.370  0.2396 -0.2308 -0.0894
  233MOL0     H31414   9.477   9.379   1.274 -1.2759  0.2703  0.5904
  233MOL0     H31415   9.218   9.627   1.018 -1.9590  1.7692 -0.7118
  233MOL0     H31416   9.032   9.915   1.005 -0.5047  0.7617  2.9950
  233MOL0     H31417   9.070   9.761   0.919 -1.2772  0.6669  0.2233
  233MOL0     H31418   8.925   9.775   1.015  0.1898 -0.6780  0.3609
  233MOL0     H31419   8.628   9.849   1.448 -3.8575  1.3351  1.6157
  233MOL0     H31420   8.479  10.003   1.534 -0.2468 -0.0076  0.2684
  233MOL0     H31421   8.349  10.201   1.578  0.5725  0.3945 -0.7371
  233MOL0     H31422   8.421  10.150   1.729  2.2359 -0.5011 -0.6807
  233MOL0     H31423   8.426  10.387   1.808 -0.7474 -2.4620  1.3745
  233MOL0     H31424   8.372  10.438   1.650 -1.2326  1.9203  1.7709
  233MOL0     H31425   8.209  10.328   1.871 -2.3979 -3.6790 -1.0733
  233MOL0     H31426   8.161  10.282   1.713 -0.8140  0.9616 -0.1422
  233MOL0     H31427   8.183  10.581   1.797  0.6928 -0.7753  0.0203
  233MOL0     H31428   8.100  10.513   1.655 -2.9525 -1.0811  0.0776
  233MOL0     H31429   8.030  10.435   1.947  2.2048 -1.4803 -1.1634
  233MOL0     H31430   7.938  10.397   1.801 -2.3499  1.8212  0.7990
  233MOL0     H31431   7.852  10.597   1.932  1.9311 -0.7538  0.8964
  233MOL0     H31432   7.972  10.687   1.844 -1.7025  1.7360  0.9908
  233MOL0     H31433   7.742  10.511   1.736 -0.9521  1.2498  1.1373
  233MOL0     H31434   7.868  10.603   1.631  0.4200  2.0727  0.3543
  233MOL0     H31435   7.786  10.812   1.684  1.5691 -1.5769 -1.1459
  233MOL0     H31436   7.698  10.758   1.824 -1.1533  0.1876  0.0950
  233MOL0     H31437   8.790  10.297   1.574  2.4693  0.0117 -1.4743
  233MOL0     H31438   8.952  10.121   1.473  0.3857 -1.5103  1.1191
  233MOL0     H31439   9.145   9.820   1.471  0.9053  1.2206 -0.3806
  233MOL0     H31440   9.317   9.645   1.428 -1.5822  1.0166  0.3657
  233MOL0     H31441  10.725   8.855   2.020  0.6834  2.1830 -0.2872
  233MOL0     H31442  10.590   8.663   2.064  4.0879  1.4822  0.5017
  233MOL0     H31443  10.262   8.451   2.317 -2.6302 -1.2050  2.2642
  233MOL0     H31444  10.100   8.278   2.346 -2.3458  1.5323  2.8044
  233MOL0     H31445   9.928   8.084   1.995  0.7091 -0.4368  0.8968
  233MOL0     H31446   9.829   8.001   2.115 -0.6312 -0.9027 -1.0446
  233MOL0     H31447   9.692   8.126   1.953 -1.7395  1.7606 -0.6009
  233MOL0     H31448   9.759   8.273   2.013 -0.0251 -0.8045 -1.6210
  233MOL0     H31449   9.663   8.185   2.248  2.9583  2.1644 -1.5110
  233MOL0     H31450   9.576   8.062   2.153  1.0209  0.0874 -2.5438
  233MOL0     H31451   9.431   8.234   2.208  1.6145  1.8563  1.7256
  233MOL0     H31452   9.454   8.211   2.032 -1.7263  1.1527  1.2227
  233MOL0     H31453   9.563   8.602   2.072  1.0226 -0.4842  0.2453
  233MOL0     H31454   9.962   8.330   1.941  0.5574  0.7296 -0.6225
  233MOL0     H31455  10.101   8.521   1.920 -0.7314 -2.2643 -1.9634
  234MOL0     O31456   8.071   7.361   7.694  0.7554  0.4595 -0.0729
  234MOL0     C31457   8.193   7.339   7.686 -0.1121 -0.4111  0.3709
  234MOL0     O31458   8.251   7.215   7.686 -0.5292 -0.3202  0.6743
  234MOL0     C31459   8.173   7.101   7.682  0.0089 -0.2871 -0.1623
  234MOL0     C31460   8.076   7.082   7.581 -0.0833  0.9123  0.6715
  234MOL0     C31461   7.988   6.967   7.579 -0.0379 -0.8704 -0.4100
  234MOL0     C31462   8.005   6.874   7.673 -0.3236  0.1417  0.0030
  234MOL0     O31463   7.917   6.770   7.705 -0.1402  0.0526  0.4160
  234MOL0     C31464   7.781   6.789   7.670  0.7018  0.0343  0.6311
  234MOL0     C31465   7.707   6.710   7.769 -0.9212 -0.0021  0.1534
  234MOL0     C31466   7.560   6.719   7.753  0.2094 -0.3050 -0.0113
  234MOL0     C31467   7.520   6.641   7.633  0.6077 -0.2683 -0.6681
  234MOL0     C31468   7.365   6.613   7.630  0.7201  0.8913  0.2602
  234MOL0     C31469   7.306   6.506   7.523  0.5299  0.4081  0.2211
  234MOL0     C31470   7.160   6.504   7.522  0.1908  0.6459  0.1583
  234MOL0     C31471   7.103   6.623   7.444 -0.0550  0.2230 -0.5240
  234MOL0     N31472   6.962   6.608   7.401  0.5026  1.0922  0.6185
  234MOL0     C31473   6.855   6.620   7.479  0.4496  0.8354 -0.0375
  234MOL0     C31474   6.740   6.601   7.402  0.0501  0.1881  0.1391
  234MOL0     C31475   6.601   6.602   7.441 -0.4084  0.1603 -0.7709
  234MOL0     C31476   6.543   6.721   7.369 -0.1144  0.3906  0.1454
  234MOL0     C31477   6.396   6.737   7.415  0.7359  0.1432  0.1130
  234MOL0     C31478   6.318   6.859   7.353  0.3770 -0.0584 -0.5031
  234MOL0     O31479   6.200   6.861   7.432  0.2997 -0.1146 -0.4575
  234MOL0     C31480   6.097   6.945   7.401  0.2617 -0.3764  0.9410
  234MOL0     C31481   6.084   7.013   7.279 -0.3135 -0.0941 -0.3588
  234MOL0     C31482   5.964   7.073   7.248  0.2876 -0.0396 -0.0029
  234MOL0     C31483   5.956   7.154   7.123 -0.4302 -0.5948 -0.6830
  234MOL0     C31484   5.848   7.056   7.327 -0.1084 -0.4111 -0.4709
  234MOL0     C31485   5.715   7.113   7.296  0.0789  0.6361 -0.5943
  234MOL0     O31486   5.608   7.027   7.292  0.1470  0.2310  0.3389
  234MOL0     C31487   5.484   7.070   7.268 -0.5949  0.0649  0.3110
  234MOL0     C31488   5.444   7.114   7.138  0.6219  0.3279 -0.2957
  234MOL0     C31489   5.310   7.126   7.107  1.2392 -0.3560 -0.0888
  234MOL0     C31490   5.207   7.112   7.201  0.5202 -0.7664  0.1943
  234MOL0     O31491   5.084   7.104   7.156 -0.0035 -0.7761  0.1040
  234MOL0     C31492   4.985   7.180   7.225 -0.4940  0.2030 -0.0921
  234MOL0     C31493   4.846   7.132   7.182  0.1012 -0.3544 -0.3847
  234MOL0     C31494   4.805   7.176   7.044  0.5457 -0.1349 -1.0323
  234MOL0     C31495   4.667   7.121   7.011  1.2732  0.2570  0.6509
  234MOL0     C31496   4.616   7.132   6.864  0.6572  0.3747 -0.3198
  234MOL0     C31497   4.494   7.043   6.837 -0.7869 -0.0526 -0.6288
  234MOL0     C31498   4.374   7.099   6.921  0.1079  0.5918  0.7969
  234MOL0     C31499   4.244   7.044   6.847 -0.0397  0.4859  0.4687
  234MOL0    Cl31500   4.227   7.120   6.683 -0.2087 -0.4899 -0.0210
  234MOL0     C31501   5.242   7.075   7.334 -0.3372  0.2204  0.2303
  234MOL0     C31502   5.381   7.065   7.366  0.1719 -0.1361  1.2542
  234MOL0     O31503   5.711   7.236   7.278 -0.2950  0.3252  0.2362
  234MOL0     C31504   5.858   6.988   7.449 -0.2413  0.0833 -0.0943
  234MOL0     C31505   5.980   6.930   7.482  0.1402  0.8036  0.2949
  234MOL0     N31506   6.775   6.583   7.273  0.0134  0.1049 -0.0655
  234MOL0     N31507   6.908   6.585   7.271 -0.2374  0.2093 -0.0593
  234MOL0     C31508   8.113   6.883   7.767  0.3653 -0.2300  0.6293
  234MOL0     C31509   8.201   6.999   7.777  0.5606  0.3887  0.2137
  234MOL0     C31510   8.287   7.453   7.689 -0.3893  0.3707  0.3924
  234MOL0     C31511   8.241   7.582   7.702  0.9478  0.6870  0.0741
  234MOL0     C31512   8.322   7.686   7.732 -0.2665 -0.0384 -0.0990
  234MOL0     C31513   8.464   7.670   7.753  0.6553 -0.4813 -0.5485
  234MOL0     O31514   8.535   7.778   7.794  0.6881 -0.5166  0.4956
  234MOL0     C31515   8.609   7.740   7.908  0.9679 -0.6293  1.1082
  234MOL0     C31516   8.593   7.850   8.019  0.3074 -0.4311 -0.4646
  234MOL0     C31517   8.459   7.840   8.089 -0.2180 -0.3369 -0.6299
  234MOL0     C31518   8.419   7.958   8.177  0.3767 -0.2661  0.2135
  234MOL0     C31519   8.505   7.985   8.301 -0.5953 -0.6340  0.3157
  234MOL0     C31520   8.574   8.003   8.396 -0.2070  0.1032 -0.2047
  234MOL0     C31521   8.517   7.537   7.735 -0.1596  0.2899 -1.3290
  234MOL0     C31522   8.429   7.435   7.710  0.0482  0.8484  0.0070
  234MOL0     H31523   8.039   7.162   7.517  1.8216  1.1591 -0.1692
  234MOL0     H31524   7.903   6.955   7.513 -0.0158 -2.2619 -0.2011
  234MOL0     H31525   7.753   6.894   7.687 -0.2028  0.0086 -0.5637
  234MOL0     H31526   7.755   6.747   7.573 -0.9383  2.3851 -0.0363
  234MOL0     H31527   7.734   6.604   7.772 -2.6401 -0.4469  1.7892
  234MOL0     H31528   7.746   6.752   7.862  1.9853 -3.4676  0.7561
  234MOL0     H31529   7.516   6.679   7.844 -0.0022  1.8335  0.9024
  234MOL0     H31530   7.526   6.823   7.742  0.0382  0.0331  2.9862
  234MOL0     H31531   7.548   6.693   7.541  4.1944  2.9461  1.9354
  234MOL0     H31532   7.573   6.546   7.642  0.5754 -0.4151 -1.8666
  234MOL0     H31533   7.322   6.583   7.726 -1.3178 -1.5380 -1.2769
  234MOL0     H31534   7.312   6.702   7.596 -2.0495 -0.5247  0.6070
  234MOL0     H31535   7.358   6.524   7.428  0.0196 -0.2340 -0.1892
  234MOL0     H31536   7.339   6.406   7.552  0.9667 -0.1184 -1.9120
  234MOL0     H31537   7.136   6.415   7.462  0.7637  0.5704  0.0381
  234MOL0     H31538   7.103   6.483   7.613 -2.3025 -0.3047 -1.5028
  234MOL0     H31539   7.163   6.638   7.354 -1.8844  0.1109 -1.8336
  234MOL0     H31540   7.099   6.715   7.503  1.2063 -0.7734  1.1997
  234MOL0     H31541   6.857   6.623   7.588 -3.1268 -1.3371  0.2309
  234MOL0     H31542   6.554   6.508   7.413  2.3848 -0.9386 -2.1262
  234MOL0     H31543   6.595   6.619   7.549 -0.4633  1.3989 -0.9452
  234MOL0     H31544   6.541   6.699   7.262  3.1519 -0.2848  0.1059
  234MOL0     H31545   6.602   6.811   7.388  1.2713  0.7012 -4.5554
  234MOL0     H31546   6.395   6.752   7.524 -2.5677  3.9753 -0.1953
  234MOL0     H31547   6.344   6.643   7.394  2.0653 -1.2399  2.5691
  234MOL0     H31548   6.311   6.845   7.245 -0.2535 -0.3361 -0.4336
  234MOL0     H31549   6.375   6.950   7.374 -0.4770  0.2801  0.4380
  234MOL0     H31550   6.165   7.020   7.207  0.2489 -1.7210  0.0881
  234MOL0     H31551   5.855   7.142   7.082 -0.2618  0.1296 -1.3469
  234MOL0     H31552   5.997   7.253   7.140  1.6844 -1.5483  0.1348
  234MOL0     H31553   6.022   7.103   7.052 -0.3718 -1.1530 -0.2354
  234MOL0     H31554   5.511   7.127   7.054 -2.3031  2.1782 -2.5444
  234MOL0     H31555   5.280   7.155   7.007  1.2695  0.0762  0.0229
  234MOL0     H31556   5.004   7.181   7.332 -2.1480  3.7524  0.2924
  234MOL0     H31557   4.996   7.285   7.197 -0.6541  0.4678  0.8058
  234MOL0     H31558   4.850   7.023   7.189  1.0759 -0.3851 -1.2109
  234MOL0     H31559   4.774   7.168   7.256  0.4580 -0.3190 -0.0463
  234MOL0     H31560   4.876   7.130   6.975  1.7086 -0.4970  0.3744
  234MOL0     H31561   4.814   7.285   7.046  3.3892 -0.3079 -0.4708
  234MOL0     H31562   4.662   7.018   7.048  1.6308  1.3971  4.2262
  234MOL0     H31563   4.598   7.171   7.079  0.9826  0.6002  0.1044
  234MOL0     H31564   4.695   7.081   6.809  0.7340 -2.5062  2.2125
  234MOL0     H31565   4.585   7.230   6.825 -3.0868 -0.6935 -0.4010
  234MOL0     H31566   4.480   7.044   6.729  2.9565 -1.8262 -1.2794
  234MOL0     H31567   4.528   6.943   6.867 -1.0175 -0.0895 -0.4883
  234MOL0     H31568   4.373   7.209   6.924  1.9324  0.6196  2.3998
  234MOL0     H31569   4.377   7.051   7.019  1.3657  0.0221  0.5037
  234MOL0     H31570   4.154   7.068   6.906  0.4096  0.6046  1.1145
  234MOL0     H31571   4.248   6.934   6.845 -0.3013  0.4670  0.7450
  234MOL0     H31572   5.167   7.045   7.406 -0.1697  2.1314  1.2546
  234MOL0     H31573   5.413   7.043   7.467 -1.2703  0.0967  1.7828
  234MOL0     H31574   5.777   6.971   7.519  0.2652 -2.7651 -0.0820
  234MOL0     H31575   6.002   6.881   7.576  0.8950  0.6390  0.0453
  234MOL0     H31576   8.119   6.804   7.841  2.3398  1.5407  2.5201
  234MOL0     H31577   8.286   7.007   7.843  0.5180 -2.0364  0.6527
  234MOL0     H31578   8.133   7.591   7.700  0.7338 -1.3427 -1.8810
  234MOL0     H31579   8.283   7.787   7.747 -1.5215 -0.7371  1.7129
  234MOL0     H31580   8.584   7.645   7.955  0.8113 -0.7734  0.7348
  234MOL0     H31581   8.709   7.713   7.872  0.4404 -3.2981  1.4625
  234MOL0     H31582   8.592   7.946   7.967 -1.5594  1.3120  2.5262
  234MOL0     H31583   8.678   7.827   8.084 -0.1560 -0.0545  0.2839
  234MOL0     H31584   8.470   7.760   8.164 -2.4398  0.0100  0.1260
  234MOL0     H31585   8.376   7.808   8.026 -1.1994  1.9191 -0.5448
  234MOL0     H31586   8.315   7.947   8.208 -0.8968  3.1135 -2.2347
  234MOL0     H31587   8.425   8.047   8.113 -0.2299 -1.3663 -1.4117
  234MOL0     H31588   8.638   8.005   8.483  0.1747 -2.0175 -0.3752
  234MOL0     H31589   8.622   7.524   7.758 -1.1607 -1.1527  3.8861
  234MOL0     H31590   8.465   7.334   7.697 -2.0609  0.3186 -2.4782
  235MOL0     O31591   1.686   9.824   7.747  0.0331 -0.2197 -0.0307
  235MOL0     C31592   1.725   9.942   7.744  0.1768  0.2488  0.0288
  235MOL0     O31593   1.645  10.045   7.730  0.3158 -0.4025 -0.1349
  235MOL0     C31594   1.509  10.027   7.701  0.1451 -1.1296 -0.2870
  235MOL0     C31595   1.446  10.085   7.590 -0.0328 -0.4479  0.2277
  235MOL0     C31596   1.313  10.065   7.557  0.1627 -0.1798  0.6488
  235MOL0     C31597   1.238   9.987   7.647  0.1046 -0.1043 -0.8959
  235MOL0     O31598   1.110   9.967   7.625 -0.0551  0.0137  0.0410
  235MOL0     C31599   1.051   9.952   7.491 -0.4561  0.4455 -0.9908
  235MOL0     C31600   0.909   9.918   7.518 -0.3209  0.3541  0.2404
  235MOL0     C31601   0.885   9.774   7.556 -0.0555 -0.6292 -0.4861
  235MOL0     C31602   0.735   9.755   7.537  0.6434  0.0174  0.6555
  235MOL0     C31603   0.689   9.639   7.626 -0.1619  0.3408  0.4671
  235MOL0     C31604   0.542   9.611   7.633 -0.1920 -0.4721 -0.0663
  235MOL0     C31605   0.478   9.600   7.492 -0.2973 -0.1459  0.1623
  235MOL0     C31606   0.341   9.535   7.476 -0.4673  0.0891  0.1707
  235MOL0     N31607   0.224   9.602   7.539 -0.3398  0.7094  0.6644
  235MOL0     C31608   0.132   9.534   7.612  0.5189 -0.4217  0.2016
  235MOL0     C31609   0.042   9.628   7.645 -0.1100  0.5851  0.4183
  235MOL0     C31610  -0.078   9.593   7.727  0.6852 -0.2600  0.7602
  235MOL0     C31611  -0.110   9.692   7.838 -0.0641 -0.7175  0.1043
  235MOL0     C31612  -0.231   9.658   7.937 -0.3874 -0.1921  0.8168
  235MOL0     C31613  -0.360   9.630   7.859 -0.0121 -0.5472 -0.1431
  235MOL0     O31614  -0.428   9.540   7.953 -0.3721  0.3666 -0.1608
  235MOL0     C31615  -0.559   9.516   7.929  0.3113  0.0342  0.2883
  235MOL0     C31616  -0.616   9.409   7.994 -0.6541 -0.2019 -0.5182
  235MOL0     C31617  -0.747   9.376   7.975  0.5290  0.4884 -0.3206
  235MOL0     C31618  -0.795   9.255   8.053 -0.0193 -0.6387 -0.4838
  235MOL0     C31619  -0.836   9.444   7.889 -0.3613 -0.2712  0.7695
  235MOL0     C31620  -0.984   9.408   7.856  0.0767  0.8644 -0.2886
  235MOL0     O31621  -1.070   9.515   7.825 -0.0312  0.3176 -0.0821
  235MOL0     C31622  -1.180   9.492   7.747 -0.3126 -0.0342 -0.0268
  235MOL0     C31623  -1.302   9.536   7.791 -0.1559 -0.3855  1.4274
  235MOL0     C31624  -1.413   9.512   7.717  0.5236 -0.0310  0.8990
  235MOL0     C31625  -1.409   9.450   7.593  0.6512  1.0545  1.0379
  235MOL0     O31626  -1.532   9.423   7.539 -0.7899 -0.0597 -0.1669
  235MOL0     C31627  -1.536   9.343   7.423 -0.3207  0.1942  0.3380
  235MOL0     C31628  -1.680   9.343   7.373  0.7031 -0.9626 -0.2681
  235MOL0     C31629  -1.738   9.484   7.334  0.0648  0.1861 -1.2088
  235MOL0     C31630  -1.858   9.515   7.412  0.5291 -0.3948  0.1717
  235MOL0     C31631  -1.885   9.663   7.414  0.2823  0.0734 -0.0256
  235MOL0     C31632  -1.917   9.718   7.276  0.2090 -0.3597  0.3103
  235MOL0     C31633  -1.950   9.870   7.284  0.2222 -0.8279  0.7581
  235MOL0     C31634  -2.052   9.908   7.175 -1.2526  0.4457  0.1104
  235MOL0    Cl31635  -1.991   9.853   7.004 -0.7037  0.3913  0.1425
  235MOL0     C31636  -1.281   9.427   7.542  0.0436  1.1448 -0.7174
  235MOL0     C31637  -1.170   9.440   7.618 -0.6182 -0.1859 -0.0509
  235MOL0     O31638  -1.013   9.290   7.834  1.2861 -0.0434 -0.6336
  235MOL0     C31639  -0.783   9.558   7.836 -0.0198 -0.3098 -0.0621
  235MOL0     C31640  -0.650   9.594   7.851 -0.0165  0.6297  0.2623
  235MOL0     N31641   0.091   9.753   7.613 -0.1412 -0.4684  0.5094
  235MOL0     N31642   0.202   9.732   7.551  0.9478 -0.2583 -0.7047
  235MOL0     C31643   1.290   9.945   7.765  0.0787 -0.4878 -0.6089
  235MOL0     C31644   1.427   9.968   7.792 -0.0713 -0.0637 -0.2046
  235MOL0     C31645   1.864   9.971   7.731 -0.2703 -0.2124 -0.3843
  235MOL0     C31646   1.910  10.100   7.705 -0.1967 -0.5765  0.5632
  235MOL0     C31647   2.046  10.124   7.693  0.3207 -0.5895  0.1891
  235MOL0     C31648   2.145  10.020   7.694 -0.2197  0.2431  0.0272
  235MOL0     O31649   2.292  10.041   7.693  0.5559 -0.1757 -0.3594
  235MOL0     C31650   2.343  10.169   7.647 -0.5809  0.2676  0.1834
  235MOL0     C31651   2.491  10.172   7.605  0.1564  0.6984  0.3244
  235MOL0     C31652   2.520  10.298   7.517  0.5487  0.4646 -0.0651
  235MOL0     C31653   2.658  10.308   7.460  0.1823 -1.0443 -0.2717
  235MOL0     C31654   2.699  10.432   7.388  0.3239 -0.5583 -0.6482
  235MOL0     C31655   2.752  10.533   7.350  1.3403 -0.0991  0.5765
  235MOL0     C31656   2.095   9.888   7.697 -0.5007 -0.2058  0.2348
  235MOL0     C31657   1.955   9.865   7.717 -1.3790  0.5240 -0.2280
  235MOL0     H31658   1.483  10.158   7.518 -3.1445 -1.6890 -2.9441
  235MOL0     H31659   1.281  10.111   7.464 -0.1574 -2.2410 -0.3012
  235MOL0     H31660   1.059  10.048   7.440 -1.2166  2.5808  2.6337
  235MOL0     H31661   1.097   9.870   7.434  0.1590  0.1940 -0.1460
  235MOL0     H31662   0.873   9.991   7.591 -1.6182  1.2373 -1.2280
  235MOL0     H31663   0.862   9.933   7.421 -1.3335 -0.7940  0.5347
  235MOL0     H31664   0.933   9.702   7.490  2.1201  0.0624  0.2600
  235MOL0     H31665   0.924   9.754   7.657  0.0383 -3.0907 -0.9552
  235MOL0     H31666   0.675   9.844   7.562 -0.6479 -0.3870 -0.8772
  235MOL0     H31667   0.720   9.736   7.431 -2.8306  2.2942  0.5608
  235MOL0     H31668   0.740   9.559   7.572 -3.7569  0.4287 -3.6150
  235MOL0     H31669   0.728   9.653   7.727 -0.3629  0.6121  0.5085
  235MOL0     H31670   0.521   9.520   7.689  1.0453 -1.4240 -1.0806
  235MOL0     H31671   0.488   9.684   7.693  2.1804  0.9598  0.4605
  235MOL0     H31672   0.462   9.701   7.452 -1.2540  0.9168  2.9983
  235MOL0     H31673   0.554   9.537   7.445  0.7919  0.7732  0.6655
  235MOL0     H31674   0.344   9.429   7.503 -1.5793  0.2205  0.8988
  235MOL0     H31675   0.322   9.530   7.369 -1.2619  0.0711  0.3110
  235MOL0     H31676   0.119   9.427   7.619 -1.4610 -0.1068  1.9543
  235MOL0     H31677  -0.156   9.569   7.655  1.1305  0.2075  0.1161
  235MOL0     H31678  -0.060   9.499   7.780  2.8511  0.1124  0.7687
  235MOL0     H31679  -0.127   9.789   7.790 -0.0715 -0.3439  0.8496
  235MOL0     H31680  -0.020   9.702   7.899  0.4694  0.0421 -0.7786
  235MOL0     H31681  -0.245   9.739   8.008  1.9967  0.3010  0.8167
  235MOL0     H31682  -0.203   9.564   7.986 -3.9733 -3.4902 -2.6679
  235MOL0     H31683  -0.355   9.587   7.759  0.0213  0.0004 -0.3840
  235MOL0     H31684  -0.410   9.728   7.852 -1.1728 -1.2418 -2.4826
  235MOL0     H31685  -0.555   9.355   8.066 -2.2001 -0.7266  0.4544
  235MOL0     H31686  -0.903   9.252   8.074 -0.2515  3.2774 -0.3826
  235MOL0     H31687  -0.774   9.157   8.008  0.8928  0.3337 -2.2764
  235MOL0     H31688  -0.747   9.259   8.151 -2.9086 -0.2114  1.0327
  235MOL0     H31689  -1.301   9.595   7.883  0.9489  1.2119  0.4451
  235MOL0     H31690  -1.513   9.533   7.753 -0.0671  0.6469 -1.0115
  235MOL0     H31691  -1.471   9.378   7.342  0.2118 -0.2035  0.5919
  235MOL0     H31692  -1.498   9.243   7.444 -1.6973 -0.8051 -1.5918
  235MOL0     H31693  -1.687   9.273   7.290 -3.0186 -0.0673 -0.9012
  235MOL0     H31694  -1.749   9.311   7.451 -0.6260  2.3693  0.0958
  235MOL0     H31695  -1.765   9.482   7.228  0.0620 -1.3391 -1.1982
  235MOL0     H31696  -1.666   9.564   7.355 -1.3134  1.1034  0.2432
  235MOL0     H31697  -1.942   9.461   7.366 -0.6317  1.1840  0.3710
  235MOL0     H31698  -1.841   9.479   7.514 -1.5686 -0.4808  0.5315
  235MOL0     H31699  -1.806   9.726   7.455  1.7641  0.5851 -3.3030
  235MOL0     H31700  -1.977   9.680   7.471  0.9238  2.2048  0.4860
  235MOL0     H31701  -1.832   9.710   7.207  0.5863 -2.3299  0.9367
  235MOL0     H31702  -2.004   9.670   7.231  0.6861 -1.4894  0.5577
  235MOL0     H31703  -1.869   9.935   7.251 -1.7509  0.9489 -0.9528
  235MOL0     H31704  -1.984   9.897   7.384  0.7452  2.7681  0.1133
  235MOL0     H31705  -2.055  10.018   7.175  0.7925  0.5855 -2.5265
  235MOL0     H31706  -2.156   9.879   7.195 -1.7529  1.8905 -0.2510
  235MOL0     H31707  -1.274   9.372   7.449  0.5392  0.2975 -0.1926
  235MOL0     H31708  -1.070   9.407   7.591 -0.7075 -0.9102  0.4970
  235MOL0     H31709  -0.851   9.620   7.778 -0.8845 -0.8053  0.4084
  235MOL0     H31710  -0.620   9.687   7.803  2.9537 -0.7499 -0.7745
  235MOL0     H31711   1.229   9.897   7.840 -1.0208 -0.7819 -1.6653
  235MOL0     H31712   1.475   9.912   7.872 -0.1489 -1.6912 -1.2408
  235MOL0     H31713   1.854  10.192   7.711  0.2772 -0.3560  2.0355
  235MOL0     H31714   2.079  10.227   7.686 -0.3622 -0.2938  1.0623
  235MOL0     H31715   2.287  10.199   7.559  2.2809  2.0165 -1.1753
  235MOL0     H31716   2.324  10.245   7.724 -0.2385  2.1856 -1.5390
  235MOL0     H31717   2.524  10.082   7.552  1.6091  0.5488  1.4163
  235MOL0     H31718   2.551  10.171   7.697 -0.3488  3.5404  0.7821
  235MOL0     H31719   2.480  10.381   7.576 -1.2970 -1.2679  1.2044
  235MOL0     H31720   2.466  10.283   7.423  2.2543 -0.8852 -0.8946
  235MOL0     H31721   2.672  10.226   7.389  1.3886 -0.2644 -0.9691
  235MOL0     H31722   2.731  10.294   7.541 -1.5564 -1.4374  1.2977
  235MOL0     H31723   2.797  10.629   7.334 -0.0943  1.2499  3.6177
  235MOL0     H31724   2.160   9.801   7.691  1.3936  1.0976  1.0543
  235MOL0     H31725   1.924   9.762   7.731 -1.7831  0.3757 -2.0101
  236MOL0     O31726   6.166   8.822   0.569 -0.2840 -0.0538  0.3782
  236MOL0     C31727   6.261   8.789   0.497  0.4824  0.7261 -0.0687
  236MOL0     O31728   6.260   8.683   0.406 -0.1113 -1.1734 -0.5042
  236MOL0     C31729   6.144   8.613   0.407 -0.2675  0.5444 -0.0751
  236MOL0     C31730   6.059   8.645   0.298  0.1874  0.4865  0.5062
  236MOL0     C31731   5.930   8.589   0.297  0.2361  0.5856  0.3150
  236MOL0     C31732   5.889   8.499   0.398 -0.2764  0.2647 -0.7580
  236MOL0     O31733   5.759   8.444   0.410 -0.0142 -0.5719 -0.3359
  236MOL0     C31734   5.659   8.523   0.342  0.4317 -0.6813 -0.9565
  236MOL0     C31735   5.515   8.467   0.380 -0.1098 -1.0435 -0.7315
  236MOL0     C31736   5.412   8.532   0.292  0.0472  0.3425 -0.0049
  236MOL0     C31737   5.266   8.506   0.332  0.2789  0.6178 -0.3143
  236MOL0     C31738   5.164   8.583   0.248  0.1707 -0.7278  0.7233
  236MOL0     C31739   5.021   8.555   0.297 -0.1108  0.6235  0.6651
  236MOL0     C31740   4.922   8.622   0.190 -0.6804  0.1700  0.4097
  236MOL0     C31741   4.873   8.755   0.226 -0.1390 -0.3299 -0.5873
  236MOL0     N31742   4.771   8.805   0.124  0.6202 -0.6191  0.2078
  236MOL0     C31743   4.820   8.830  -0.007  0.0974  0.6259 -0.7748
  236MOL0     C31744   4.704   8.889  -0.061  0.4108  0.4091 -0.1291
  236MOL0     C31745   4.718   8.947  -0.199 -0.0971 -0.1898 -0.0857
  236MOL0     C31746   4.622   8.886  -0.294 -0.5122 -0.2362 -0.0083
  236MOL0     C31747   4.659   8.929  -0.437 -1.2764  0.7120 -0.2184
  236MOL0     C31748   4.582   8.856  -0.545 -0.0219 -0.0614  0.0767
  236MOL0     O31749   4.445   8.892  -0.539  0.5247 -0.7495  0.2500
  236MOL0     C31750   4.356   8.792  -0.503 -0.0491 -0.5932  0.8061
  236MOL0     C31751   4.287   8.795  -0.383  1.0053  0.5341 -1.0013
  236MOL0     C31752   4.181   8.703  -0.362  0.2409 -0.9046  0.3828
  236MOL0     C31753   4.118   8.714  -0.225  0.1266 -0.6909 -0.5602
  236MOL0     C31754   4.149   8.602  -0.450  0.2182 -0.7617  0.3440
  236MOL0     C31755   4.061   8.492  -0.429  0.5193  0.1102  0.3935
  236MOL0     O31756   3.991   8.453  -0.539  0.2208 -0.3736  0.1917
  236MOL0     C31757   3.867   8.376  -0.532  0.8002  0.6845 -0.5440
  236MOL0     C31758   3.848   8.290  -0.641  0.3364  0.4026 -0.2207
  236MOL0     C31759   3.732   8.202  -0.632 -0.0431  0.7319 -0.0172
  236MOL0     C31760   3.646   8.199  -0.524  1.3075 -0.7888 -0.1311
  236MOL0     O31761   3.545   8.111  -0.527  0.3533  0.0787 -0.0022
  236MOL0     C31762   3.411   8.148  -0.535  0.3306 -0.5945 -1.0661
  236MOL0     C31763   3.320   8.031  -0.549 -0.8388  0.5809 -0.2645
  236MOL0     C31764   3.171   8.061  -0.530  0.4667 -0.1220  0.1919
  236MOL0     C31765   3.080   7.948  -0.589 -0.3561  0.6690  0.2767
  236MOL0     C31766   3.080   7.944  -0.741  0.5832  0.4781  0.6401
  236MOL0     C31767   2.998   7.824  -0.781 -0.4709 -0.0012  1.0129
  236MOL0     C31768   2.982   7.806  -0.931 -0.0487  0.6294 -0.7507
  236MOL0     C31769   2.876   7.691  -0.972 -0.4718 -0.9011  0.2283
  236MOL0    Cl31770   2.722   7.758  -0.939 -0.1696  0.9011  0.0688
  236MOL0     C31771   3.659   8.302  -0.426 -0.5100 -0.2293 -0.6613
  236MOL0     C31772   3.774   8.384  -0.427  0.6776 -0.3225 -0.5222
  236MOL0     O31773   4.057   8.438  -0.319 -0.4045  0.7137 -0.2096
  236MOL0     C31774   4.230   8.592  -0.565  0.1915  0.4432 -0.2169
  236MOL0     C31775   4.329   8.693  -0.596  0.0650  0.9991 -0.6843
  236MOL0     N31776   4.596   8.887   0.028 -0.3590  0.7692 -0.4783
  236MOL0     N31777   4.644   8.843   0.143 -0.4786  0.3174 -0.0228
  236MOL0     C31778   5.979   8.472   0.504  0.6978  0.5374  0.0524
  236MOL0     C31779   6.106   8.527   0.505 -0.5882  0.1870  0.2731
  236MOL0     C31780   6.381   8.871   0.485  0.6702 -0.1251  0.1331
  236MOL0     C31781   6.397   9.001   0.543 -0.9707  0.3420  0.0989
  236MOL0     C31782   6.526   9.061   0.544  0.9403  0.7581  1.0056
  236MOL0     C31783   6.633   9.008   0.481  0.3037 -1.0085 -0.9006
  236MOL0     O31784   6.745   9.079   0.481 -0.1477  0.0279 -0.8176
  236MOL0     C31785   6.857   9.007   0.439 -1.6733 -1.1280 -0.2287
  236MOL0     C31786   6.988   9.079   0.481 -1.5460  0.8488 -0.9506
  236MOL0     C31787   7.021   9.201   0.400  0.5271  0.0218  0.3920
  236MOL0     C31788   7.131   9.295   0.454  0.5872 -0.0735 -0.1115
  236MOL0     C31789   7.222   9.352   0.354 -0.3077 -0.1569  0.4162
  236MOL0     C31790   7.284   9.411   0.270  0.0430 -0.3047  0.5880
  236MOL0     C31791   6.603   8.903   0.393  0.5923 -0.0700  0.0886
  236MOL0     C31792   6.490   8.825   0.404  0.2186  0.1018 -0.7250
  236MOL0     H31793   6.094   8.710   0.218 -1.9735 -2.4855 -3.2207
  236MOL0     H31794   5.858   8.618   0.221  0.3907  0.9430  0.3043
  236MOL0     H31795   5.660   8.627   0.374 -2.9008 -0.4499 -1.2015
  236MOL0     H31796   5.664   8.504   0.234 -0.4137 -1.9282 -0.8001
  236MOL0     H31797   5.513   8.361   0.356  2.2819 -0.8782 -1.9028
  236MOL0     H31798   5.496   8.494   0.485 -1.6757  1.0109 -1.4501
  236MOL0     H31799   5.437   8.638   0.303 -0.8250  0.4303  1.3958
  236MOL0     H31800   5.418   8.511   0.185 -3.7971  0.2178 -0.3662
  236MOL0     H31801   5.243   8.402   0.310  0.3762  0.3403  0.8573
  236MOL0     H31802   5.252   8.533   0.437 -0.7465  2.1494 -0.8167
  236MOL0     H31803   5.191   8.689   0.254  2.0696 -1.0742 -0.7917
  236MOL0     H31804   5.183   8.562   0.142 -0.0258  0.3450  0.4638
  236MOL0     H31805   5.004   8.447   0.309 -0.0590  0.3435 -1.3485
  236MOL0     H31806   5.016   8.601   0.396 -0.1140  0.9639  0.5068
  236MOL0     H31807   4.964   8.627   0.089  0.1589  3.4644  0.8010
  236MOL0     H31808   4.831   8.564   0.173  0.0803 -0.7258 -0.7861
  236MOL0     H31809   4.962   8.818   0.233  0.3736 -1.1662  0.8324
  236MOL0     H31810   4.819   8.757   0.320  0.3708  0.7032 -0.3039
  236MOL0     H31811   4.920   8.808  -0.044  1.2739 -0.8225  2.8707
  236MOL0     H31812   4.698   9.054  -0.188 -0.9523 -0.5096  1.7606
  236MOL0     H31813   4.821   8.929  -0.229 -0.0873  0.6008 -0.5579
  236MOL0     H31814   4.523   8.921  -0.266 -0.1510 -0.7167  2.0537
  236MOL0     H31815   4.628   8.779  -0.274 -2.5329 -0.2125  0.9889
  236MOL0     H31816   4.766   8.912  -0.446 -1.5330 -1.7473  0.5981
  236MOL0     H31817   4.639   9.035  -0.455  1.3169  1.5240  1.2159
  236MOL0     H31818   4.607   8.750  -0.537 -0.6348 -0.2472 -0.4243
  236MOL0     H31819   4.624   8.879  -0.644 -4.0055 -0.8533 -1.9901
  236MOL0     H31820   4.309   8.869  -0.306  1.1742  0.3780 -0.9004
  236MOL0     H31821   4.178   8.660  -0.151 -0.7300  0.1974  0.8323
  236MOL0     H31822   4.112   8.818  -0.192 -3.7560 -1.3277  1.4073
  236MOL0     H31823   4.016   8.673  -0.225  0.7252 -2.3709  1.3877
  236MOL0     H31824   3.930   8.276  -0.711  0.3161  0.6570 -0.2988
  236MOL0     H31825   3.720   8.137  -0.718 -0.0925  0.4370  0.2106
  236MOL0     H31826   3.384   8.211  -0.449 -2.5828  0.1930 -2.4349
  236MOL0     H31827   3.400   8.214  -0.621 -2.3358  1.4539  0.6772
  236MOL0     H31828   3.337   7.996  -0.651  0.1475  1.2995 -0.3702
  236MOL0     H31829   3.350   7.955  -0.476 -0.6642 -1.3282 -2.2555
  236MOL0     H31830   3.144   8.158  -0.573 -3.6293 -0.8315  0.7845
  236MOL0     H31831   3.146   8.071  -0.424 -3.1833 -3.2091 -0.1694
  236MOL0     H31832   3.113   7.853  -0.545 -1.8608  0.1310  0.2894
  236MOL0     H31833   2.977   7.965  -0.557 -1.0510  0.4423 -1.7159
  236MOL0     H31834   3.179   7.931  -0.785  0.3587 -0.2114  0.3283
  236MOL0     H31835   3.036   8.034  -0.785  0.0664  0.3482  0.8766
  236MOL0     H31836   3.045   7.734  -0.741  3.4072  1.4334  0.1303
  236MOL0     H31837   2.903   7.830  -0.728  0.4829 -1.0629  2.9658
  236MOL0     H31838   3.080   7.783  -0.973  1.3327 -0.6175  2.8314
  236MOL0     H31839   2.955   7.900  -0.979 -1.7052  0.7973  0.4171
  236MOL0     H31840   2.897   7.604  -0.909 -0.8601  0.9381  3.0537
  236MOL0     H31841   2.886   7.675  -1.080 -1.1011 -2.5950  0.3913
  236MOL0     H31842   3.591   8.309  -0.341 -1.8897 -2.4649 -1.4851
  236MOL0     H31843   3.769   8.454  -0.345  2.2689 -0.0231 -0.6376
  236MOL0     H31844   4.223   8.513  -0.639  1.1701  2.1139 -2.2132
  236MOL0     H31845   4.383   8.706  -0.689 -1.3773  1.7206 -1.4552
  236MOL0     H31846   5.942   8.421   0.592  1.2243  0.0863  0.0216
  236MOL0     H31847   6.164   8.518   0.596 -0.1012 -2.5793 -0.2200
  236MOL0     H31848   6.315   9.043   0.602  1.2813  3.1936  1.4384
  236MOL0     H31849   6.529   9.157   0.593 -1.2907  0.6766  1.3764
  236MOL0     H31850   6.850   8.904   0.476 -1.1158 -0.4573  1.9305
  236MOL0     H31851   6.862   9.009   0.330 -1.1873  0.0293 -0.1954
  236MOL0     H31852   7.076   9.014   0.474  0.9486  4.1044 -2.3126
  236MOL0     H31853   6.980   9.100   0.588 -2.3027  1.2429 -1.0765
  236MOL0     H31854   6.928   9.258   0.398  0.6658  0.2371 -0.3540
  236MOL0     H31855   7.044   9.164   0.299 -0.6374  0.1191  0.0830
  236MOL0     H31856   7.193   9.244   0.529 -2.5070 -3.2763  0.5278
  236MOL0     H31857   7.093   9.382   0.510  0.4270  2.6996 -4.1228
  236MOL0     H31858   7.337   9.467   0.195 -1.8677  2.0824  0.8928
  236MOL0     H31859   6.665   8.864   0.313 -0.2285  0.4973 -0.8446
  236MOL0     H31860   6.483   8.734   0.347  0.7478 -1.5410  1.6644
  237MOL0     O31861   7.578   8.945   9.262  0.0941 -0.3866 -0.3522
  237MOL0     C31862   7.588   8.896   9.374 -0.0583  0.7600 -0.7899
  237MOL0     O31863   7.517   8.792   9.429 -0.1789 -0.1672  0.2633
  237MOL0     C31864   7.403   8.753   9.361  0.4206  0.3425  0.5542
  237MOL0     C31865   7.283   8.819   9.373  0.2691  0.2387 -0.0377
  237MOL0     C31866   7.167   8.768   9.319 -0.1044  0.4374  0.3982
  237MOL0     C31867   7.168   8.662   9.225 -0.1176  0.7022  0.6542
  237MOL0     O31868   7.042   8.645   9.169 -0.0221  0.3728  0.0495
  237MOL0     C31869   7.032   8.571   9.040  0.9232 -0.5099  0.9230
  237MOL0     C31870   6.885   8.575   8.994  0.6820  0.6825  0.2704
  237MOL0     C31871   6.846   8.468   8.897 -0.8369  0.8141  0.3792
  237MOL0     C31872   6.917   8.470   8.765 -0.1699  0.4104  0.2456
  237MOL0     C31873   6.926   8.605   8.686  0.2739  0.1344  0.1021
  237MOL0     C31874   6.949   8.589   8.538  0.4598 -0.5013  0.4856
  237MOL0     C31875   7.090   8.583   8.493 -0.4607  0.3415 -0.0443
  237MOL0     C31876   7.114   8.547   8.356 -0.7074  0.2001  0.4383
  237MOL0     N31877   7.067   8.645   8.256 -0.2941 -0.5988 -0.4112
  237MOL0     C31878   7.124   8.761   8.226 -0.2798 -0.5478 -0.4124
  237MOL0     C31879   7.061   8.817   8.118 -0.0290 -0.6880 -0.4468
  237MOL0     C31880   7.076   8.961   8.066 -0.0020  0.0293 -0.3924
  237MOL0     C31881   7.218   9.016   8.073 -0.5346  0.7069  0.1412
  237MOL0     C31882   7.317   8.971   7.956  0.0684  0.1352  0.0148
  237MOL0     C31883   7.408   8.857   7.977 -0.6744  0.1303  0.4392
  237MOL0     O31884   7.346   8.740   8.011 -0.5430  0.6075 -0.1254
  237MOL0     C31885   7.425   8.638   8.070 -0.4047  0.0924 -0.4621
  237MOL0     C31886   7.570   8.636   8.088  0.3126  0.1270  0.9569
  237MOL0     C31887   7.648   8.532   8.140 -0.4326  0.0783 -0.0039
  237MOL0     C31888   7.799   8.535   8.154 -0.6572  0.0192  0.7070
  237MOL0     C31889   7.574   8.415   8.186 -0.0897 -0.0973 -0.1785
  237MOL0     C31890   7.640   8.294   8.250 -0.3729  0.7559 -0.6136
  237MOL0     O31891   7.755   8.243   8.205  0.3312 -0.1541 -0.8229
  237MOL0     C31892   7.833   8.154   8.276 -0.1452 -0.8922  0.5761
  237MOL0     C31893   7.806   8.074   8.388  0.1979 -0.1621 -0.7947
  237MOL0     C31894   7.903   7.988   8.437  0.2721  0.2977 -0.3145
  237MOL0     C31895   8.039   7.997   8.390  0.3283 -0.1984 -0.5400
  237MOL0     O31896   8.147   7.918   8.418 -0.8288  0.1109 -0.5613
  237MOL0     C31897   8.139   7.821   8.526 -0.5545 -0.0854 -1.2915
  237MOL0     C31898   8.279   7.766   8.548 -0.0279 -0.7084  0.1920
  237MOL0     C31899   8.318   7.744   8.693  1.1358 -0.6489 -0.4773
  237MOL0     C31900   8.375   7.604   8.709 -0.8274 -0.2178 -0.1372
  237MOL0     C31901   8.416   7.575   8.859 -0.2326 -0.6278 -0.6650
  237MOL0     C31902   8.544   7.497   8.884 -0.7049  0.0002  0.1680
  237MOL0     C31903   8.517   7.343   8.874  0.0858 -0.4776  0.4468
  237MOL0     C31904   8.630   7.234   8.886  0.4858  0.5150  0.0490
  237MOL0    Cl31905   8.566   7.067   8.891 -0.4839 -0.1899  1.0664
  237MOL0     C31906   8.066   8.094   8.293 -0.1098 -0.1914  0.0827
  237MOL0     C31907   7.956   8.162   8.235 -0.3815 -0.8946  0.1769
  237MOL0     O31908   7.572   8.239   8.341 -0.3177  0.8707 -0.4307
  237MOL0     C31909   7.436   8.417   8.172 -0.4482 -0.2239 -0.1886
  237MOL0     C31910   7.362   8.520   8.112  0.1924  0.4134 -0.5920
  237MOL0     N31911   6.989   8.717   8.065 -0.0796  0.2544 -0.4597
  237MOL0     N31912   6.988   8.619   8.153 -0.1268 -0.2224 -0.1698
  237MOL0     C31913   7.294   8.595   9.212  0.5800  0.2447  0.1868
  237MOL0     C31914   7.411   8.638   9.284  0.0778  0.6627 -0.5325
  237MOL0     C31915   7.689   8.951   9.479  0.7272 -0.0779  0.4478
  237MOL0     C31916   7.710   8.895   9.607  0.5881  0.0963 -0.3391
  237MOL0     C31917   7.816   8.932   9.688 -0.1038 -0.6048  0.8312
  237MOL0     C31918   7.904   9.039   9.652 -0.1747  0.1796 -0.3518
  237MOL0     O31919   7.990   9.073   9.758 -0.0626 -0.1667 -0.1755
  237MOL0     C31920   8.082   9.183   9.740 -0.2212  0.1028 -0.1094
  237MOL0     C31921   8.117   9.218   9.884  0.3284 -0.1842  0.1904
  237MOL0     C31922   8.255   9.289   9.881 -0.3762  0.8697 -0.3871
  237MOL0     C31923   8.315   9.280  10.025 -0.9367 -0.0934  0.1979
  237MOL0     C31924   8.430   9.359  10.031  1.2627 -0.4047  0.0192
  237MOL0     C31925   8.528   9.428  10.017  0.3487 -0.1423 -0.6896
  237MOL0     C31926   7.881   9.102   9.534  0.3867 -0.0104  0.1906
  237MOL0     C31927   7.779   9.057   9.443 -0.2860  0.3701 -1.1261
  237MOL0     H31928   7.263   8.913   9.423 -1.3729 -0.4850  0.7770
  237MOL0     H31929   7.075   8.824   9.332 -0.1002  0.2245  1.4185
  237MOL0     H31930   7.086   8.608   8.952 -0.5297  0.4743  0.4106
  237MOL0     H31931   7.061   8.466   9.049  0.4144 -0.7359  0.0114
  237MOL0     H31932   6.826   8.564   9.085 -2.4395  0.5898 -1.5855
  237MOL0     H31933   6.855   8.676   8.965 -1.8216  0.2524  1.1178
  237MOL0     H31934   6.880   8.376   8.946  0.8775  0.7756 -0.8070
  237MOL0     H31935   6.736   8.469   8.891 -0.8236 -0.1216 -0.0933
  237MOL0     H31936   7.016   8.431   8.788 -0.7634 -0.9748  0.5029
  237MOL0     H31937   6.864   8.400   8.699  0.5281  3.7269 -4.3016
  237MOL0     H31938   6.825   8.646   8.696 -0.1983 -1.1404  0.8059
  237MOL0     H31939   6.993   8.679   8.731  0.2932  0.4402 -0.4268
  237MOL0     H31940   6.896   8.501   8.502 -1.5961  1.1773 -0.8355
  237MOL0     H31941   6.909   8.674   8.482  2.3734 -0.6957 -1.2850
  237MOL0     H31942   7.138   8.680   8.511 -0.9514  0.5357  0.2457
  237MOL0     H31943   7.148   8.507   8.547 -1.3628 -0.1110  0.2998
  237MOL0     H31944   7.045   8.466   8.331 -1.2269  0.9503 -0.5982
  237MOL0     H31945   7.220   8.529   8.336 -1.3455 -2.1564 -1.3501
  237MOL0     H31946   7.192   8.812   8.293  0.8738 -1.6244 -0.7237
  237MOL0     H31947   7.032   8.956   7.966 -2.7051 -0.3598  0.7272
  237MOL0     H31948   7.002   9.018   8.122  0.7163  0.9591 -0.3550
  237MOL0     H31949   7.263   8.985   8.168 -1.0326 -1.2411 -0.2145
  237MOL0     H31950   7.205   9.125   8.074 -1.4217  0.6110  1.5411
  237MOL0     H31951   7.370   9.062   7.926 -0.1776 -0.4473 -2.4159
  237MOL0     H31952   7.255   8.944   7.870  0.2426 -0.3438  0.0349
  237MOL0     H31953   7.482   8.889   8.052  0.0105  2.9513 -1.2724
  237MOL0     H31954   7.463   8.855   7.883 -1.9977  2.9596 -0.5346
  237MOL0     H31955   7.631   8.720   8.060 -0.7752  0.7155  0.2940
  237MOL0     H31956   7.844   8.487   8.065 -1.1046  0.0614  0.4551
  237MOL0     H31957   7.835   8.637   8.166 -0.2004 -0.2851  2.0264
  237MOL0     H31958   7.828   8.487   8.247  0.1945 -0.5402  0.1695
  237MOL0     H31959   7.702   8.057   8.417  0.1849  2.7191  1.3138
  237MOL0     H31960   7.881   7.909   8.507 -1.7373  0.9767 -0.1137
  237MOL0     H31961   8.118   7.878   8.617  3.3298 -1.1147  0.4773
  237MOL0     H31962   8.058   7.751   8.505 -0.5048 -0.0475 -1.6115
  237MOL0     H31963   8.279   7.668   8.500 -2.4162 -0.3828 -0.6272
  237MOL0     H31964   8.349   7.839   8.505 -0.7855 -0.4355 -0.5984
  237MOL0     H31965   8.236   7.758   8.764 -1.8031  0.1295 -3.7320
  237MOL0     H31966   8.393   7.821   8.716  0.8365 -0.2603 -0.7862
  237MOL0     H31967   8.309   7.526   8.670  2.5377 -4.3558  1.6342
  237MOL0     H31968   8.470   7.598   8.654  0.2606 -1.4524  1.7602
  237MOL0     H31969   8.327   7.529   8.902 -0.4161 -0.8129 -1.2330
  237MOL0     H31970   8.423   7.677   8.898  0.4282 -1.1827  0.7664
  237MOL0     H31971   8.627   7.527   8.819  3.1859  0.8510  4.9112
  237MOL0     H31972   8.592   7.531   8.976  3.5083 -0.6863 -1.5520
  237MOL0     H31973   8.460   7.315   8.785  1.5095  1.7351 -1.2582
  237MOL0     H31974   8.463   7.315   8.965  2.1361 -0.3647  1.7499
  237MOL0     H31975   8.680   7.258   8.980 -0.9429 -0.5496  1.1404
  237MOL0     H31976   8.689   7.255   8.796 -1.4206  1.8509 -0.9598
  237MOL0     H31977   8.169   8.114   8.265 -0.2792 -0.6315 -0.8638
  237MOL0     H31978   7.987   8.230   8.156  0.5890 -1.5219 -0.0067
  237MOL0     H31979   7.382   8.330   8.207 -0.4801 -0.9728 -2.0040
  237MOL0     H31980   7.255   8.525   8.097  0.4167  3.5429 -1.9797
  237MOL0     H31981   7.287   8.508   9.147 -0.9430  2.6126 -3.1180
  237MOL0     H31982   7.506   8.587   9.271 -0.3807 -0.0946 -0.9597
  237MOL0     H31983   7.658   8.806   9.641  0.3033  1.7351  4.2250
  237MOL0     H31984   7.839   8.891   9.785  1.6338 -0.3680  0.5582
  237MOL0     H31985   8.166   9.134   9.690 -0.9567 -0.7800 -0.4913
  237MOL0     H31986   8.052   9.272   9.683  0.7607 -1.0554 -2.6034
  237MOL0     H31987   8.124   9.127   9.945  1.3055 -0.7604 -0.7441
  237MOL0     H31988   8.045   9.292   9.920  1.3338 -0.4726  3.0548
  237MOL0     H31989   8.251   9.388   9.834 -0.8246 -0.6847 -3.9925
  237MOL0     H31990   8.325   9.226   9.824  1.6898  1.2355  1.5965
  237MOL0     H31991   8.335   9.177  10.055 -1.7727  0.0292  1.2338
  237MOL0     H31992   8.247   9.320  10.100 -0.5248 -0.7020  0.9147
  237MOL0     H31993   8.620   9.482  10.013  0.5970 -0.6052 -1.2961
  237MOL0     H31994   7.939   9.191   9.512 -3.0525  2.4905  0.3825
  237MOL0     H31995   7.774   9.105   9.346 -1.8053  1.3110 -0.6197
  238MOL0     O31996   9.748   7.519   1.068  0.3944  0.1234  0.2648
  238MOL0     C31997   9.708   7.438   0.986 -0.9080  0.4785 -0.4025
  238MOL0     O31998   9.579   7.437   0.932 -0.2011 -0.3532  0.1779
  238MOL0     C31999   9.488   7.525   0.975  0.2451  0.2364  0.1893
  238MOL0     C32000   9.366   7.490   1.020  0.6765  0.8625 -0.4659
  238MOL0     C32001   9.274   7.585   1.068  0.3519  1.0586 -0.6221
  238MOL0     C32002   9.304   7.718   1.090  0.5922 -0.0132 -0.1566
  238MOL0     O32003   9.203   7.806   1.131 -0.6397  0.3373 -0.0196
  238MOL0     C32004   9.131   7.889   1.037  0.1085  0.6275 -0.4413
  238MOL0     C32005   8.987   7.848   1.024 -0.6575  0.6300  0.4487
  238MOL0     C32006   8.929   7.854   1.163  0.6445  0.4347 -0.4630
  238MOL0     C32007   8.775   7.824   1.158 -0.3408  0.6155 -0.0358
  238MOL0     C32008   8.712   7.861   1.289  0.7026 -0.4785 -0.0353
  238MOL0     C32009   8.775   7.770   1.397 -0.1415  0.3556  0.3555
  238MOL0     C32010   8.681   7.776   1.520  0.3880 -0.4540 -0.0507
  238MOL0     C32011   8.743   7.721   1.649 -0.4181  0.0744 -0.9505
  238MOL0     N32012   8.668   7.761   1.774 -0.0086  0.0916  0.5428
  238MOL0     C32013   8.533   7.743   1.775 -0.0493  0.3005  0.1400
  238MOL0     C32014   8.500   7.783   1.895 -0.1789 -0.0780  0.2456
  238MOL0     C32015   8.370   7.783   1.971  0.3051  0.8940 -0.3684
  238MOL0     C32016   8.300   7.916   1.982 -0.1388  0.2256  0.2263
  238MOL0     C32017   8.204   7.948   1.863  0.2807  0.3922  0.0536
  238MOL0     C32018   8.119   8.070   1.884 -0.9359  0.7575 -0.5366
  238MOL0     O32019   8.009   8.059   1.793 -0.2504  0.0537 -0.4467
  238MOL0     C32020   7.919   8.165   1.786  0.5943  0.0549 -1.6998
  238MOL0     C32021   7.826   8.167   1.678 -0.5844  0.5995 -0.7167
  238MOL0     C32022   7.725   8.261   1.677  0.4082 -0.2948  0.4353
  238MOL0     C32023   7.633   8.251   1.560  0.5948  0.5619 -0.4129
  238MOL0     C32024   7.717   8.363   1.776 -0.3464  0.1007 -0.2943
  238MOL0     C32025   7.630   8.480   1.773  0.3710  0.7059  0.3605
  238MOL0     O32026   7.593   8.550   1.889 -0.1065 -0.2365  1.1183
  238MOL0     C32027   7.517   8.485   1.973 -0.2163  0.1944  0.4794
  238MOL0     C32028   7.564   8.468   2.100  0.1382 -0.1587 -0.5617
  238MOL0     C32029   7.501   8.377   2.190  0.6430 -0.1012  0.0695
  238MOL0     C32030   7.374   8.320   2.146  0.2783 -0.0884  0.6812
  238MOL0     O32031   7.313   8.211   2.208 -0.1230  0.1555 -0.6578
  238MOL0     C32032   7.373   8.161   2.335  0.1842 -0.2619 -0.1342
  238MOL0     C32033   7.291   8.043   2.383 -1.0113 -0.6437  0.5156
  238MOL0     C32034   7.316   7.914   2.305  0.8791  0.5877 -0.0604
  238MOL0     C32035   7.241   7.796   2.357 -0.0299  0.0723 -0.5440
  238MOL0     C32036   7.126   7.744   2.279 -0.3391  0.5361 -0.2114
  238MOL0     C32037   7.009   7.850   2.253 -0.7233  0.4681 -0.4663
  238MOL0     C32038   6.877   7.785   2.202 -0.0292 -1.0699  0.2802
  238MOL0     C32039   6.858   7.800   2.048 -0.0170 -0.0189  0.7821
  238MOL0    Cl32040   6.963   7.707   1.960 -0.1698  0.0332  0.1817
  238MOL0     C32041   7.331   8.349   2.018 -0.0841 -0.5090 -0.4615
  238MOL0     C32042   7.406   8.409   1.926  0.7188 -0.2356  0.3883
  238MOL0     O32043   7.590   8.513   1.661 -0.6848  0.7105  0.8636
  238MOL0     C32044   7.816   8.361   1.876 -1.1488 -0.0002  0.2764
  238MOL0     C32045   7.909   8.261   1.890 -0.2241  0.5309 -0.5866
  238MOL0     N32046   8.619   7.821   1.970 -0.2724 -0.1786  1.6645
  238MOL0     N32047   8.714   7.807   1.884 -0.1729  0.0164 -0.1569
  238MOL0     C32048   9.423   7.757   1.036 -0.0610  0.3596 -0.8186
  238MOL0     C32049   9.513   7.665   0.971 -0.4954  0.5210  0.1892
  238MOL0     C32050   9.810   7.350   0.915 -0.6014 -0.5414 -0.3892
  238MOL0     C32051   9.950   7.381   0.921  0.9082  0.2685  0.0298
  238MOL0     C32052  10.046   7.300   0.852  0.0358 -0.5659 -0.9924
  238MOL0     C32053  10.001   7.195   0.775 -0.0387 -0.5451 -0.5281
  238MOL0     O32054  10.088   7.105   0.727 -0.2255 -0.1935 -1.0423
  238MOL0     C32055  10.211   7.080   0.811 -0.2668 -0.4161  0.7704
  238MOL0     C32056  10.238   6.937   0.777 -0.5502  0.5873  0.2105
  238MOL0     C32057  10.377   6.878   0.826 -0.3079  0.1001 -0.0872
  238MOL0     C32058  10.388   6.726   0.785  0.4247  0.2014  0.6005
  238MOL0     C32059  10.417   6.720   0.643 -0.2303  0.4325  0.3353
  238MOL0     C32060  10.442   6.704   0.524 -0.2247 -0.3235 -0.0415
  238MOL0     C32061   9.860   7.183   0.752  0.8888 -0.1424 -0.0892
  238MOL0     C32062   9.768   7.257   0.816  0.7933  0.8430  0.0998
  238MOL0     H32063   9.344   7.384   1.019  1.9571  0.5638  0.4144
  238MOL0     H32064   9.171   7.560   1.094 -0.3806  2.4569 -1.9834
  238MOL0     H32065   9.136   7.993   1.071  0.4115  0.5022 -0.0831
  238MOL0     H32066   9.178   7.884   0.939 -3.8230 -2.4557 -2.4583
  238MOL0     H32067   8.929   7.903   0.949 -2.3434 -0.0844  1.1817
  238MOL0     H32068   8.990   7.743   0.993 -0.8147  0.0702  2.2026
  238MOL0     H32069   8.978   7.776   1.222 -1.6862  0.7826  2.1438
  238MOL0     H32070   8.940   7.951   1.213  0.2883  0.6885 -0.8678
  238MOL0     H32071   8.730   7.879   1.074 -0.3373 -2.7344 -2.4440
  238MOL0     H32072   8.759   7.717   1.144 -0.3828 -0.0648  3.9949
  238MOL0     H32073   8.711   7.970   1.304 -3.8488 -0.2042 -1.0642
  238MOL0     H32074   8.606   7.837   1.294 -0.2601  3.1287 -0.3615
  238MOL0     H32075   8.778   7.670   1.354 -0.4261 -0.1731  1.5266
  238MOL0     H32076   8.878   7.797   1.420  0.0858 -0.5129  0.3585
  238MOL0     H32077   8.654   7.880   1.539 -0.3290 -0.4986 -0.7949
  238MOL0     H32078   8.593   7.716   1.498 -0.7014  0.3856  1.7601
  238MOL0     H32079   8.849   7.746   1.658 -0.7950  1.2596  0.7039
  238MOL0     H32080   8.734   7.614   1.631  2.4134 -0.0225 -2.3925
  238MOL0     H32081   8.455   7.711   1.706 -0.7702  2.7197 -0.2534
  238MOL0     H32082   8.303   7.706   1.931 -2.9651  2.7895  1.0444
  238MOL0     H32083   8.393   7.759   2.075 -0.8419  0.7980 -0.1193
  238MOL0     H32084   8.377   7.993   1.971  0.9342 -0.8841 -0.2924
  238MOL0     H32085   8.250   7.928   2.078  0.8641  0.4473  0.7280
  238MOL0     H32086   8.140   7.861   1.847  2.3155 -1.1200 -0.1935
  238MOL0     H32087   8.251   7.960   1.765 -1.0292  0.2116 -0.6289
  238MOL0     H32088   8.189   8.148   1.852  0.9583 -1.8442 -3.4313
  238MOL0     H32089   8.101   8.089   1.990  1.3428  0.6047 -0.0689
  238MOL0     H32090   7.834   8.090   1.601 -2.2047 -1.0275  0.6466
  238MOL0     H32091   7.644   8.156   1.508 -1.3700 -0.3640  0.7348
  238MOL0     H32092   7.531   8.267   1.595  0.5566  0.7583 -0.6134
  238MOL0     H32093   7.647   8.333   1.488  2.4085  1.6905  1.1131
  238MOL0     H32094   7.648   8.526   2.136 -0.5195  0.4476  0.0288
  238MOL0     H32095   7.542   8.366   2.290  2.7948  0.7844 -0.6556
  238MOL0     H32096   7.479   8.131   2.337  0.5941  1.1531  1.1939
  238MOL0     H32097   7.381   8.231   2.419  1.1907 -2.8129  2.0448
  238MOL0     H32098   7.330   8.030   2.485 -1.8000 -0.6945  0.8190
  238MOL0     H32099   7.188   8.079   2.381 -0.8260  0.0466  1.8637
  238MOL0     H32100   7.424   7.903   2.295  0.7740  0.0444 -0.6650
  238MOL0     H32101   7.271   7.915   2.205 -2.3323  0.4780  1.2477
  238MOL0     H32102   7.318   7.723   2.384 -2.6789 -1.0374  5.7772
  238MOL0     H32103   7.196   7.833   2.449 -1.2912  0.4605 -1.2912
  238MOL0     H32104   7.087   7.657   2.333  1.2887  0.8458  1.5635
  238MOL0     H32105   7.173   7.713   2.185  0.4303  0.9104  0.0405
  238MOL0     H32106   6.984   7.893   2.350  0.3220 -3.0467  1.5377
  238MOL0     H32107   7.048   7.926   2.184  1.5519 -0.9258 -0.8087
  238MOL0     H32108   6.794   7.844   2.244  1.3124  0.1804  1.2824
  238MOL0     H32109   6.867   7.682   2.237 -0.3374 -0.8215  0.9383
  238MOL0     H32110   6.874   7.903   2.016  1.5757 -0.3321  0.4563
  238MOL0     H32111   6.757   7.766   2.022  0.7948 -1.7155 -0.3813
  238MOL0     H32112   7.248   8.287   1.987  0.0128 -0.6248 -0.4902
  238MOL0     H32113   7.370   8.416   1.824 -3.9749 -1.9083  1.6542
  238MOL0     H32114   7.815   8.439   1.952  1.1784  2.3707 -1.8965
  238MOL0     H32115   7.978   8.279   1.972 -0.2539 -0.0027 -0.4411
  238MOL0     H32116   9.439   7.864   1.024 -0.0165  0.3684 -0.6800
  238MOL0     H32117   9.611   7.696   0.937  0.2072 -1.6045  0.1557
  238MOL0     H32118   9.986   7.453   0.993  2.1610  0.1127 -0.4126
  238MOL0     H32119  10.153   7.317   0.857 -0.1624  0.5667 -0.2072
  238MOL0     H32120  10.300   7.137   0.783  1.1170 -1.0019  3.6473
  238MOL0     H32121  10.191   7.089   0.918 -0.5155 -0.0460  0.6942
  238MOL0     H32122  10.234   6.923   0.669 -2.0346 -0.7264  0.4017
  238MOL0     H32123  10.152   6.883   0.820 -0.9543 -1.2676 -2.6793
  238MOL0     H32124  10.380   6.876   0.935  3.2243  0.6380 -0.0794
  238MOL0     H32125  10.463   6.928   0.782  1.2157 -2.1357  0.1724
  238MOL0     H32126  10.308   6.660   0.820  2.2064 -0.9335  2.8442
  238MOL0     H32127  10.477   6.682   0.832  1.0345  2.9603  2.2872
  238MOL0     H32128  10.466   6.711   0.420  0.2710  3.2162  0.2140
  238MOL0     H32129   9.826   7.103   0.686  0.6943  0.6494 -0.9616
  238MOL0     H32130   9.662   7.255   0.791  0.0369  2.6346  2.7170
  239MOL0     O32131  10.746   3.785   1.169  0.2122 -0.3361  0.1418
  239MOL0     C32132  10.727   3.691   1.096 -0.3284 -0.6192  0.4620
  239MOL0     O32133  10.613   3.641   1.049 -0.2096 -0.5443 -0.2390
  239MOL0     C32134  10.482   3.694   1.068 -1.3396 -0.0702 -0.2981
  239MOL0     C32135  10.445   3.814   1.138  1.1204  0.0901 -0.8213
  239MOL0     C32136  10.315   3.856   1.145  0.0388  0.1235 -0.2786
  239MOL0     C32137  10.207   3.779   1.084 -0.0765  0.3062  0.0529
  239MOL0     O32138  10.075   3.808   1.097  0.2263 -0.3512  0.8493
  239MOL0     C32139  10.030   3.911   1.185 -0.8175 -0.2826 -0.4640
  239MOL0     C32140   9.883   3.889   1.210  0.2158  0.3585 -0.1139
  239MOL0     C32141   9.799   3.858   1.086 -0.3543 -0.6330  0.0833
  239MOL0     C32142   9.656   3.835   1.120 -0.0799  0.0439 -0.3268
  239MOL0     C32143   9.584   3.737   1.031 -0.8823 -0.0413 -0.3452
  239MOL0     C32144   9.578   3.784   0.882 -0.2935 -0.1644 -0.0432
  239MOL0     C32145   9.535   3.665   0.802  0.0323  0.5155 -0.1535
  239MOL0     C32146   9.387   3.638   0.823 -0.4819 -0.0795 -0.3616
  239MOL0     N32147   9.321   3.580   0.707  0.2457 -0.1853  0.4722
  239MOL0     C32148   9.271   3.455   0.713  0.1165 -0.3438  0.6192
  239MOL0     C32149   9.199   3.450   0.594 -0.5682 -0.5020  0.3293
  239MOL0     C32150   9.113   3.336   0.535  0.9295 -0.7802  1.1528
  239MOL0     C32151   9.188   3.205   0.523 -0.3871  0.2100 -0.0045
  239MOL0     C32152   9.089   3.091   0.479 -0.6466 -0.2328  0.2297
  239MOL0     C32153   9.132   2.949   0.455  0.1475 -0.3844 -0.0721
  239MOL0     O32154   9.179   2.943   0.315 -0.6091 -0.2901  0.1509
  239MOL0     C32155   9.310   2.921   0.283  0.4212 -0.6320 -1.0897
  239MOL0     C32156   9.349   2.946   0.152 -0.3382 -0.4892 -1.0156
  239MOL0     C32157   9.476   2.952   0.105 -0.6333 -0.0770  0.3326
  239MOL0     C32158   9.485   2.977  -0.043  0.4384  0.3269 -0.3591
  239MOL0     C32159   9.584   2.917   0.192  0.4894  0.5388  0.0159
  239MOL0     C32160   9.727   2.921   0.160  0.0778 -0.1395 -0.5488
  239MOL0     O32161   9.765   2.922   0.031 -0.5635 -0.2720 -0.2607
  239MOL0     C32162   9.886   2.879  -0.008 -0.0714  0.0497  0.5365
  239MOL0     C32163  10.008   2.915   0.046 -0.8259 -0.1597  0.2191
  239MOL0     C32164  10.132   2.867   0.003  1.4606  0.1576  0.6304
  239MOL0     C32165  10.138   2.763  -0.088  0.6319 -0.2424  0.6085
  239MOL0     O32166  10.245   2.709  -0.152  0.0047  0.1594 -0.7118
  239MOL0     C32167  10.342   2.802  -0.205 -0.6291 -0.4469  0.2953
  239MOL0     C32168  10.464   2.720  -0.263  0.3476  0.6432 -0.2306
  239MOL0     C32169  10.568   2.797  -0.340  0.4360 -0.1094 -0.2649
  239MOL0     C32170  10.702   2.717  -0.368  0.0286 -0.1238 -0.2503
  239MOL0     C32171  10.791   2.803  -0.464 -0.4057  0.0271  0.2178
  239MOL0     C32172  10.934   2.742  -0.465  0.3608  0.3750  0.7810
  239MOL0     C32173  11.031   2.815  -0.562 -0.5119  0.0327 -0.4820
  239MOL0     C32174  11.082   2.939  -0.490  0.8998  0.5005 -0.1661
  239MOL0    Cl32175  11.203   2.899  -0.357  0.0415 -0.3730 -0.4421
  239MOL0     C32176  10.015   2.716  -0.134 -0.4815  0.0611 -0.0269
  239MOL0     C32177   9.897   2.774  -0.102  0.5430 -0.1734 -0.9706
  239MOL0     O32178   9.803   2.919   0.262 -0.5323 -0.4181 -0.2846
  239MOL0     C32179   9.547   2.882   0.324 -0.2239  0.5129  0.7330
  239MOL0     C32180   9.416   2.887   0.373  0.2256 -0.0194  0.0530
  239MOL0     N32181   9.227   3.564   0.525 -0.7182 -0.0106 -0.5305
  239MOL0     N32182   9.293   3.654   0.596 -0.1481 -0.3553  0.4880
  239MOL0     C32183  10.242   3.658   1.020  0.6113 -0.5277  0.8058
  239MOL0     C32184  10.376   3.623   1.013 -0.1705  0.6916 -0.7050
  239MOL0     C32185  10.855   3.640   1.032 -0.3948 -0.0675  0.5314
  239MOL0     C32186  10.987   3.658   1.085  0.5604 -0.6022  0.0655
  239MOL0     C32187  11.094   3.591   1.027  0.3104  0.1402 -0.1792
  239MOL0     C32188  11.079   3.514   0.907  0.1572  0.1122  0.0415
  239MOL0     O32189  11.205   3.465   0.870  0.3349 -0.0818  0.3514
  239MOL0     C32190  11.203   3.404   0.736  1.1785  1.2979  0.5766
  239MOL0     C32191  11.345   3.378   0.687 -0.6363  0.1255 -0.0067
  239MOL0     C32192  11.355   3.281   0.563 -0.7648  0.1907 -0.8380
  239MOL0     C32193  11.380   3.353   0.431 -0.2926 -0.6428  0.3469
  239MOL0     C32194  11.283   3.462   0.421  0.0608  0.0310  0.5907
  239MOL0     C32195  11.213   3.559   0.408 -0.7525 -0.7031  0.1639
  239MOL0     C32196  10.954   3.507   0.852 -0.0759  0.5679  0.1661
  239MOL0     C32197  10.844   3.570   0.908 -0.5213 -0.4491  0.7416
  239MOL0     H32198  10.511   3.871   1.202  2.3186 -0.0049 -1.9292
  239MOL0     H32199  10.289   3.937   1.213 -3.3392  1.6261 -3.0955
  239MOL0     H32200  10.093   3.914   1.274 -1.8182 -1.2825  0.3186
  239MOL0     H32201  10.046   4.005   1.133 -2.7052  1.0166  1.1729
  239MOL0     H32202   9.878   3.795   1.266  2.3529  0.5326  0.4679
  239MOL0     H32203   9.840   3.974   1.264  0.9669  1.8002 -1.7050
  239MOL0     H32204   9.806   3.946   1.022  1.1641  0.9191  2.2449
  239MOL0     H32205   9.847   3.777   1.029  3.3251  0.9500  0.6282
  239MOL0     H32206   9.642   3.794   1.221 -2.7534 -1.1244 -1.0528
  239MOL0     H32207   9.608   3.933   1.120  0.3409  0.2509 -0.6646
  239MOL0     H32208   9.623   3.636   1.045 -1.0920 -0.1381 -0.4536
  239MOL0     H32209   9.479   3.748   1.062 -1.2999  0.0316 -1.7341
  239MOL0     H32210   9.502   3.862   0.868 -0.0085 -0.3428 -3.0488
  239MOL0     H32211   9.671   3.824   0.840 -2.8231  1.0303 -5.3678
  239MOL0     H32212   9.553   3.676   0.694 -0.0158 -0.0613 -0.2257
  239MOL0     H32213   9.603   3.583   0.829  2.3195  2.4090  0.1882
  239MOL0     H32214   9.330   3.729   0.848  0.1012 -0.3979  2.5055
  239MOL0     H32215   9.385   3.561   0.900  0.2088 -2.4375 -2.5870
  239MOL0     H32216   9.282   3.382   0.792  0.0941  3.6463  4.7152
  239MOL0     H32217   9.025   3.330   0.600 -0.8865  0.4814 -1.0269
  239MOL0     H32218   9.070   3.370   0.440 -1.6625  0.1412  2.5732
  239MOL0     H32219   9.225   3.183   0.623 -0.6233 -0.8682 -0.1444
  239MOL0     H32220   9.263   3.216   0.444 -0.8764 -0.2712 -0.5487
  239MOL0     H32221   9.034   3.124   0.390 -0.4755  2.0409  0.8972
  239MOL0     H32222   9.015   3.087   0.559  2.5154 -1.3487  3.3923
  239MOL0     H32223   9.047   2.882   0.471  1.1228 -1.8848 -1.0093
  239MOL0     H32224   9.201   2.930   0.538 -0.8442  1.5891  1.2905
  239MOL0     H32225   9.278   2.981   0.078 -1.7906 -0.2655  0.4102
  239MOL0     H32226   9.397   3.027  -0.083  1.0524  2.2418  0.5791
  239MOL0     H32227   9.571   3.033  -0.082  0.7739 -0.7123 -1.1779
  239MOL0     H32228   9.488   2.884  -0.100  1.2063 -0.4767  0.9293
  239MOL0     H32229  10.021   2.993   0.120 -2.7494  0.6555 -0.2321
  239MOL0     H32230  10.230   2.909   0.026  1.1232  2.6033 -1.8173
  239MOL0     H32231  10.299   2.868  -0.280  0.4815 -0.6628 -0.5574
  239MOL0     H32232  10.381   2.861  -0.121 -1.6384 -0.5862  0.8841
  239MOL0     H32233  10.516   2.673  -0.180 -0.7131  0.7468  0.5085
  239MOL0     H32234  10.435   2.641  -0.334 -2.4835  0.9119  0.5063
  239MOL0     H32235  10.586   2.891  -0.288 -0.5733 -1.4480  2.7490
  239MOL0     H32236  10.518   2.814  -0.436  3.2782  2.3973 -1.4331
  239MOL0     H32237  10.756   2.715  -0.273 -1.6943  1.8045  0.8667
  239MOL0     H32238  10.683   2.617  -0.407 -0.3029 -0.9745  1.9019
  239MOL0     H32239  10.795   2.905  -0.426 -0.3105  0.9934 -2.2402
  239MOL0     H32240  10.748   2.813  -0.564  1.2789  1.9634 -0.3839
  239MOL0     H32241  10.964   2.738  -0.360  0.6274  0.4533  0.7073
  239MOL0     H32242  10.934   2.636  -0.494 -0.9574  0.8587 -1.2250
  239MOL0     H32243  10.960   2.852  -0.636  0.4674  1.9895 -0.4939
  239MOL0     H32244  11.114   2.757  -0.603  1.1124 -0.1636  2.7822
  239MOL0     H32245  10.996   2.983  -0.439  2.4899  0.8337  2.4538
  239MOL0     H32246  11.128   3.007  -0.562  1.5121  0.5576  0.2682
  239MOL0     H32247  10.013   2.632  -0.203 -1.8192 -0.6916  0.8617
  239MOL0     H32248   9.804   2.756  -0.154 -0.6193  0.3047  0.8416
  239MOL0     H32249   9.617   2.852   0.401 -0.5404 -0.8682  0.4958
  239MOL0     H32250   9.398   2.871   0.479  1.0239 -1.0043  0.0522
  239MOL0     H32251  10.166   3.606   0.963 -2.6686  2.0051  2.4916
  239MOL0     H32252  10.426   3.540   0.965  1.9249  1.0610  0.6918
  239MOL0     H32253  11.004   3.722   1.171  2.5147 -0.5893 -0.2882
  239MOL0     H32254  11.187   3.620   1.076 -0.3363 -1.0856  1.9169
  239MOL0     H32255  11.143   3.313   0.736  1.0220  1.2839 -2.7781
  239MOL0     H32256  11.159   3.475   0.665  1.3199  0.9439  0.1285
  239MOL0     H32257  11.406   3.329   0.763 -1.1104 -3.3195 -1.6631
  239MOL0     H32258  11.394   3.476   0.683  1.7776 -0.8373  2.5024
  239MOL0     H32259  11.259   3.229   0.553 -2.0889  2.0788  1.1193
  239MOL0     H32260  11.428   3.201   0.579  0.1675  1.3570  1.1252
  239MOL0     H32261  11.354   3.279   0.355  1.6157  0.9864 -2.0132
  239MOL0     H32262  11.482   3.384   0.410 -0.7070 -0.0381 -0.8725
  239MOL0     H32263  11.145   3.639   0.394 -0.9917 -1.2267 -2.0209
  239MOL0     H32264  10.939   3.444   0.764 -1.3452 -0.8179  1.3152
  239MOL0     H32265  10.751   3.561   0.853 -1.4173  5.6449  0.6333
  240MOL0     O32266   8.254   1.872   0.013 -0.4400  0.5373 -0.2744
  240MOL0     C32267   8.348   1.937   0.056  0.1278 -0.1030  0.5355
  240MOL0     O32268   8.378   2.059   0.008 -0.3322  0.1191  0.5247
  240MOL0     C32269   8.324   2.103  -0.105 -1.2035 -0.0839 -0.6223
  240MOL0     C32270   8.200   2.163  -0.099  0.4750 -0.4397  0.6797
  240MOL0     C32271   8.155   2.242  -0.204 -0.1940 -0.4139  0.2863
  240MOL0     C32272   8.229   2.263  -0.322 -0.6327 -0.7848 -0.2515
  240MOL0     O32273   8.184   2.344  -0.418  0.5725 -0.4127 -0.2892
  240MOL0     C32274   8.190   2.302  -0.561  0.1244  0.2283 -1.1207
  240MOL0     C32275   8.048   2.240  -0.582  0.4048 -0.3310 -0.3749
  240MOL0     C32276   8.020   2.222  -0.726  0.8870  0.0976 -0.0815
  240MOL0     C32277   7.879   2.157  -0.737 -0.5388  0.0739  0.9928
  240MOL0     C32278   7.841   2.129  -0.892  0.4091  0.5922  0.6339
  240MOL0     C32279   7.849   2.261  -0.976  0.6650 -0.0731  0.2863
  240MOL0     C32280   7.796   2.261  -1.120  0.3704 -0.1018  0.7803
  240MOL0     C32281   7.646   2.269  -1.143 -0.7512 -0.2139 -0.0998
  240MOL0     N32282   7.601   2.275  -1.288 -0.7231 -0.2229  0.4177
  240MOL0     C32283   7.586   2.169  -1.372  0.1598  0.5600 -0.5357
  240MOL0     C32284   7.558   2.226  -1.494 -0.1891  0.1840 -0.1665
  240MOL0     C32285   7.515   2.159  -1.610  1.0171  0.6798 -0.0321
  240MOL0     C32286   7.411   2.242  -1.679 -0.1205  1.0286 -0.5675
  240MOL0     C32287   7.329   2.158  -1.778  0.2012 -0.1826  0.9065
  240MOL0     C32288   7.260   2.264  -1.871  0.5712 -1.1712 -0.9282
  240MOL0     O32289   7.162   2.341  -1.792 -0.0807  0.5786 -0.0684
  240MOL0     C32290   7.056   2.391  -1.855 -1.1697 -0.3772  1.1484
  240MOL0     C32291   6.939   2.392  -1.784  0.2425 -0.0470  0.1341
  240MOL0     C32292   6.825   2.455  -1.834  0.3618 -0.0847 -0.3375
  240MOL0     C32293   6.681   2.412  -1.778  0.8413  0.3463  0.1682
  240MOL0     C32294   6.828   2.532  -1.956  0.0652 -0.3030 -0.1288
  240MOL0     C32295   6.720   2.623  -2.012  0.0491  0.1560  0.8270
  240MOL0     O32296   6.595   2.617  -1.969  0.1326 -0.8839  0.0839
  240MOL0     C32297   6.485   2.668  -2.042  0.1429 -0.4265 -0.4478
  240MOL0     C32298   6.387   2.575  -2.080  0.1711  0.9809  0.3670
  240MOL0     C32299   6.274   2.615  -2.159  0.7963 -0.1269  0.1737
  240MOL0     C32300   6.265   2.741  -2.212  0.1312  0.1249  0.1584
  240MOL0     O32301   6.154   2.784  -2.272 -0.0795 -0.7106 -0.1476
  240MOL0     C32302   6.154   2.764  -2.411 -0.1908 -0.2148  0.4575
  240MOL0     C32303   6.011   2.795  -2.453 -0.7697 -0.2983 -0.2928
  240MOL0     C32304   5.915   2.680  -2.421 -0.1339 -0.4539  0.5684
  240MOL0     C32305   5.763   2.687  -2.468  0.6854 -0.5723 -0.1870
  240MOL0     C32306   5.732   2.732  -2.610  0.6180 -0.2227 -0.7028
  240MOL0     C32307   5.759   2.616  -2.700  0.6044  0.4099  0.5834
  240MOL0     C32308   5.717   2.662  -2.837  0.0601 -0.0330 -0.0992
  240MOL0     C32309   5.705   2.551  -2.944 -0.0750  0.0371  0.4498
  240MOL0    Cl32310   5.577   2.443  -2.899 -0.2511  0.5007  0.2422
  240MOL0     C32311   6.364   2.837  -2.175  0.3165 -0.5354 -1.4397
  240MOL0     C32312   6.476   2.800  -2.100  0.7529  0.2053  0.0121
  240MOL0     O32313   6.750   2.676  -2.119  0.9510  0.2545  0.1076
  240MOL0     C32314   6.949   2.524  -2.028 -0.7999 -0.3801 -0.0040
  240MOL0     C32315   7.059   2.457  -1.982 -0.4656 -0.7280  0.0144
  240MOL0     N32316   7.554   2.362  -1.487  0.8079  0.8817 -0.3441
  240MOL0     N32317   7.586   2.394  -1.365 -0.8220 -0.5813 -0.1982
  240MOL0     C32318   8.354   2.195  -0.328  0.2792 -0.4681 -0.6774
  240MOL0     C32319   8.399   2.123  -0.222 -0.0611 -0.6775  0.3628
  240MOL0     C32320   8.430   1.899   0.182 -0.4003 -0.2349  0.4260
  240MOL0     C32321   8.536   1.972   0.229 -0.3530 -0.0245 -0.8558
  240MOL0     C32322   8.602   1.932   0.353 -0.0471  0.0925 -1.1337
  240MOL0     C32323   8.570   1.804   0.411 -1.1436  0.1470  0.2326
  240MOL0     O32324   8.617   1.758   0.528 -0.2871 -0.2467 -0.2922
  240MOL0     C32325   8.737   1.806   0.583  0.9803 -0.2657 -0.0091
  240MOL0     C32326   8.857   1.756   0.509 -0.2106 -0.0921 -1.1263
  240MOL0     C32327   8.991   1.789   0.574 -0.0627 -0.7648 -0.1311
  240MOL0     C32328   9.104   1.700   0.535 -0.1693 -0.3588 -0.5225
  240MOL0     C32329   9.222   1.733   0.614  0.9956 -0.2863  1.2412
  240MOL0     C32330   9.314   1.784   0.676 -0.0303  0.8498 -0.1912
  240MOL0     C32331   8.475   1.720   0.349  0.2720  0.1472 -0.6828
  240MOL0     C32332   8.411   1.766   0.231  0.0809 -0.0564  0.5455
  240MOL0     H32333   8.136   2.155  -0.012 -0.1821 -3.0840  0.0551
  240MOL0     H32334   8.064   2.296  -0.179  0.6350  3.1757 -3.4908
  240MOL0     H32335   8.197   2.390  -0.626 -3.2725  0.5900 -1.1674
  240MOL0     H32336   8.266   2.228  -0.588 -0.0896  0.7589 -3.4071
  240MOL0     H32337   8.035   2.142  -0.535  1.5521 -0.4641 -0.3278
  240MOL0     H32338   7.970   2.305  -0.540  2.0155  0.5179  1.4297
  240MOL0     H32339   8.018   2.316  -0.782 -1.1687  1.1850  1.6712
  240MOL0     H32340   8.094   2.156  -0.771  1.1323  0.0989  0.3088
  240MOL0     H32341   7.873   2.074  -0.666  1.1614  0.6422  1.8455
  240MOL0     H32342   7.801   2.229  -0.707 -3.0562 -1.8412 -0.5291
  240MOL0     H32343   7.891   2.049  -0.948 -0.5151  2.7456 -3.7020
  240MOL0     H32344   7.734   2.105  -0.886 -0.4751  2.9840 -2.8727
  240MOL0     H32345   7.796   2.342  -0.925  3.7978  1.4076  1.4956
  240MOL0     H32346   7.955   2.287  -0.977  1.1496 -1.8640 -1.6733
  240MOL0     H32347   7.844   2.353  -1.152 -1.4149  1.3665  2.1326
  240MOL0     H32348   7.843   2.178  -1.175 -2.5419 -1.5261  0.2390
  240MOL0     H32349   7.603   2.359  -1.099  0.0156  0.4187 -0.6008
  240MOL0     H32350   7.597   2.180  -1.103 -2.1536 -0.0447 -1.3378
  240MOL0     H32351   7.579   2.069  -1.330  0.1701  0.6700 -0.2746
  240MOL0     H32352   7.606   2.144  -1.669  1.8737  0.5293  1.2904
  240MOL0     H32353   7.463   2.068  -1.578 -2.4331  2.9688  1.4368
  240MOL0     H32354   7.451   2.333  -1.726  2.8753  0.0037 -0.2129
  240MOL0     H32355   7.335   2.258  -1.603  1.2703  0.7006  0.9516
  240MOL0     H32356   7.260   2.078  -1.750 -2.0304 -1.2611 -5.8033
  240MOL0     H32357   7.403   2.106  -1.839 -1.7442 -3.7310  1.3284
  240MOL0     H32358   7.210   2.211  -1.952 -1.1973 -0.7062 -0.1823
  240MOL0     H32359   7.339   2.327  -1.912  2.7478 -2.0584  1.5435
  240MOL0     H32360   6.938   2.345  -1.686  0.1159  0.6883  0.4953
  240MOL0     H32361   6.686   2.367  -1.679  0.1461 -1.0662 -0.4052
  240MOL0     H32362   6.623   2.505  -1.773  1.7986  0.9146  1.2812
  240MOL0     H32363   6.627   2.334  -1.832 -1.5942 -0.0252  2.9159
  240MOL0     H32364   6.388   2.479  -2.030 -1.0988 -0.8826 -2.8597
  240MOL0     H32365   6.192   2.546  -2.178  0.4422  0.2699  0.2747
  240MOL0     H32366   6.221   2.840  -2.450  1.4741 -1.9088 -0.1542
  240MOL0     H32367   6.182   2.667  -2.453 -0.1043  0.2785 -0.6530
  240MOL0     H32368   5.986   2.878  -2.386 -0.1892 -2.8025  3.2972
  240MOL0     H32369   6.002   2.825  -2.558 -0.3176 -2.0622 -0.8773
  240MOL0     H32370   5.914   2.659  -2.314  1.3789  0.6287  0.8385
  240MOL0     H32371   5.965   2.593  -2.466  0.4533 -0.2733  0.8505
  240MOL0     H32372   5.721   2.586  -2.458 -3.1300  0.6241 -2.3274
  240MOL0     H32373   5.703   2.742  -2.396 -0.3215 -1.3529 -0.4134
  240MOL0     H32374   5.782   2.822  -2.648  0.8224 -0.8460 -1.9666
  240MOL0     H32375   5.626   2.755  -2.609 -0.3050 -3.7431  1.2785
  240MOL0     H32376   5.865   2.591  -2.703  0.5833  0.0581  1.9619
  240MOL0     H32377   5.702   2.527  -2.672 -0.5924  0.5488 -1.2376
  240MOL0     H32378   5.794   2.730  -2.872  0.3540  0.2602  1.0849
  240MOL0     H32379   5.624   2.719  -2.841  0.7942  1.1324 -1.4535
  240MOL0     H32380   5.799   2.496  -2.953 -0.0901 -0.0631  0.8843
  240MOL0     H32381   5.686   2.589  -3.045  2.4880 -0.5878 -0.3320
  240MOL0     H32382   6.358   2.940  -2.208  1.4193  0.7517  1.9460
  240MOL0     H32383   6.543   2.881  -2.074  0.5295  0.8660 -1.3666
  240MOL0     H32384   6.966   2.586  -2.116 -1.1280  2.6253  1.9019
  240MOL0     H32385   7.153   2.460  -2.035  0.0141  0.1958  0.8804
  240MOL0     H32386   8.414   2.199  -0.418  0.0039  0.2246 -0.8370
  240MOL0     H32387   8.495   2.075  -0.237 -0.8002 -1.5355 -2.1803
  240MOL0     H32388   8.549   2.071   0.187  0.9472 -0.7318 -2.2298
  240MOL0     H32389   8.669   2.002   0.401 -0.4796  1.0606 -1.9014
  240MOL0     H32390   8.725   1.912   0.606 -0.2756 -0.6446  1.2088
  240MOL0     H32391   8.741   1.757   0.681 -2.0582 -0.0041  0.3502
  240MOL0     H32392   8.855   1.812   0.415 -1.3910 -0.4726 -1.3510
  240MOL0     H32393   8.850   1.648   0.495  0.7145 -0.3034 -0.0796
  240MOL0     H32394   8.969   1.788   0.681 -0.8478 -0.1334 -0.2774
  240MOL0     H32395   9.017   1.888   0.535 -0.6764  0.2123  1.8245
  240MOL0     H32396   9.123   1.710   0.427  2.1451 -1.8052 -0.3250
  240MOL0     H32397   9.074   1.595   0.545 -2.2649  0.2403 -0.0697
  240MOL0     H32398   9.406   1.795   0.730  0.6709  2.6943 -1.6729
  240MOL0     H32399   8.471   1.618   0.385  4.2864 -0.1353 -0.5119
  240MOL0     H32400   8.344   1.696   0.183  0.2766 -0.3898  0.7587
  241MOL0     O32401   4.873  10.944   5.518  0.2937 -0.1900  0.6344
  241MOL0     C32402   4.818  10.849   5.557 -0.3064  0.6159 -0.4661
  241MOL0     O32403   4.882  10.731   5.601 -0.6058  0.3538 -0.3759
  241MOL0     C32404   5.015  10.711   5.573  0.9025 -0.4646  0.3331
  241MOL0     C32405   5.045  10.625   5.465  0.3852  0.7283 -0.1475
  241MOL0     C32406   5.175  10.587   5.428  0.0251  0.1943 -0.8030
  241MOL0     C32407   5.279  10.654   5.503 -0.4909  0.6730 -0.0934
  241MOL0     O32408   5.416  10.629   5.488 -0.3870 -0.2328 -0.1127
  241MOL0     C32409   5.444  10.556   5.372  0.0683  0.2144  1.0653
  241MOL0     C32410   5.593  10.504   5.373  0.7759 -0.1443  0.6825
  241MOL0     C32411   5.638  10.387   5.275 -0.2699  0.3048 -0.5649
  241MOL0     C32412   5.790  10.391   5.273  0.5219 -0.3840 -0.1768
  241MOL0     C32413   5.853  10.277   5.192 -0.1232 -0.9309 -0.1968
  241MOL0     C32414   5.817  10.130   5.222 -0.2029 -0.3919 -0.1549
  241MOL0     C32415   5.908  10.030   5.148  0.6175 -0.5594 -0.3177
  241MOL0     C32416   6.031   9.985   5.220 -0.2528 -0.2444 -0.2906
  241MOL0     N32417   6.126  10.091   5.252  0.4619 -0.7280  0.7456
  241MOL0     C32418   6.194  10.160   5.156 -0.2370  0.2885  0.0682
  241MOL0     C32419   6.287  10.233   5.218 -0.4835  0.3197  0.5841
  241MOL0     C32420   6.372  10.342   5.162 -0.3538  0.0502  0.4239
  241MOL0     C32421   6.276  10.464   5.143  0.0773  0.9941 -0.6249
  241MOL0     C32422   6.361  10.580   5.117 -0.5088  0.3716  0.0567
  241MOL0     C32423   6.271  10.703   5.091  0.4973  0.5208  0.2787
  241MOL0     O32424   6.136  10.703   5.148 -0.4513 -0.3231  0.3848
  241MOL0     C32425   6.075  10.830   5.150  0.7158  0.9436 -1.0646
  241MOL0     C32426   6.108  10.939   5.080 -0.8918 -0.0430 -0.3071
  241MOL0     C32427   6.050  11.067   5.093  1.1454 -0.2496 -0.4357
  241MOL0     C32428   6.113  11.177   5.027 -0.0103  0.0623 -0.4135
  241MOL0     C32429   5.938  11.084   5.183 -0.0920  0.1819  0.4723
  241MOL0     C32430   5.871  11.210   5.220  0.0694 -0.2880  0.5454
  241MOL0     O32431   5.800  11.227   5.334 -0.4918 -0.1367  0.7766
  241MOL0     C32432   5.689  11.314   5.339  0.3150  0.2235 -0.0017
  241MOL0     C32433   5.564  11.268   5.395 -0.4950 -0.0211  0.6052
  241MOL0     C32434   5.447  11.351   5.389  0.1303  0.7680  0.2984
  241MOL0     C32435   5.457  11.479   5.335  0.5355 -0.4449 -0.3007
  241MOL0     O32436   5.354  11.566   5.339 -0.0354  0.0631  0.2738
  241MOL0     C32437   5.315  11.611   5.470  0.3686 -0.0194  0.7514
  241MOL0     C32438   5.200  11.709   5.440 -0.7609  0.1706 -0.3977
  241MOL0     C32439   5.163  11.779   5.577 -0.5123  0.1534  0.2426
  241MOL0     C32440   5.030  11.727   5.623 -0.4595  0.1957  0.7534
  241MOL0     C32441   4.972  11.797   5.748 -0.4963 -0.2248  0.7063
  241MOL0     C32442   4.847  11.740   5.800 -0.0554  0.5539  0.4053
  241MOL0     C32443   4.798  11.838   5.906  0.2853  0.7697 -1.1422
  241MOL0     C32444   4.685  11.780   5.989  0.1557  0.5696  0.5916
  241MOL0    Cl32445   4.527  11.784   5.893 -0.0089  0.2068  0.2838
  241MOL0     C32446   5.576  11.516   5.278  0.3320  0.0412 -0.9068
  241MOL0     C32447   5.687  11.435   5.277  0.0152 -0.4431 -0.0028
  241MOL0     O32448   5.864  11.292   5.124 -0.9519  0.1684 -0.3288
  241MOL0     C32449   5.891  10.965   5.243 -0.0822  0.1528 -0.9923
  241MOL0     C32450   5.958  10.845   5.230  0.1154  0.3650 -0.0300
  241MOL0     N32451   6.280  10.198   5.352 -0.3898  0.3067 -0.4538
  241MOL0     N32452   6.176  10.123   5.373 -0.5348  0.2687 -0.1922
  241MOL0     C32453   5.249  10.748   5.603  0.6758  0.3027 -0.7275
  241MOL0     C32454   5.117  10.770   5.644  0.6085  0.5233 -0.2576
  241MOL0     C32455   4.672  10.840   5.543 -0.0396 -0.2980  0.4261
  241MOL0     C32456   4.597  10.929   5.467  0.2163  0.2814 -0.4458
  241MOL0     C32457   4.456  10.919   5.445 -0.4350  0.1210 -0.0468
  241MOL0     C32458   4.382  10.820   5.511  0.0370  0.1222  0.2789
  241MOL0     O32459   4.251  10.803   5.492  0.4382 -0.0172  0.1454
  241MOL0     C32460   4.187  10.866   5.380  0.3774 -0.2833  0.4269
  241MOL0     C32461   4.031  10.855   5.390 -0.8709  0.2636 -0.3028
  241MOL0     C32462   3.973  10.935   5.509  0.3296 -0.2411 -0.8497
  241MOL0     C32463   3.816  10.910   5.528 -0.4813 -0.8261  0.2016
  241MOL0     C32464   3.783  10.771   5.550  0.5082  0.2060 -0.0452
  241MOL0     C32465   3.765  10.644   5.548  0.4679 -1.0814  0.0173
  241MOL0     C32466   4.459  10.720   5.579  0.4371  0.2554  0.5023
  241MOL0     C32467   4.595  10.734   5.604 -0.2428  0.0448  0.3236
  241MOL0     H32468   4.954  10.586   5.418  3.1157 -0.9217 -4.7321
  241MOL0     H32469   5.199  10.513   5.352  1.6562 -0.2939  0.1373
  241MOL0     H32470   5.382  10.468   5.355 -0.8954  1.1642 -0.6385
  241MOL0     H32471   5.441  10.612   5.278 -0.7797 -2.5377 -0.6771
  241MOL0     H32472   5.663  10.585   5.353 -1.2102  1.7839  1.1637
  241MOL0     H32473   5.609  10.465   5.474  0.8926 -1.7533  0.0719
  241MOL0     H32474   5.606  10.291   5.317 -0.8058  0.5006 -0.5165
  241MOL0     H32475   5.595  10.386   5.174 -2.8990 -0.9845  0.4543
  241MOL0     H32476   5.823  10.490   5.239 -1.1643 -0.1350 -1.1920
  241MOL0     H32477   5.820  10.379   5.377 -1.1391  0.9410  0.5014
  241MOL0     H32478   5.817  10.296   5.090 -3.2180 -0.5841  0.8880
  241MOL0     H32479   5.962  10.284   5.196  0.0131 -2.2735 -0.9130
  241MOL0     H32480   5.828  10.116   5.329 -0.2551 -0.4606 -0.1588
  241MOL0     H32481   5.714  10.102   5.197 -1.4811  3.8364 -0.4832
  241MOL0     H32482   5.851   9.940   5.121  2.8758 -2.1502 -0.0767
  241MOL0     H32483   5.939  10.066   5.049  1.0031  1.0567  0.3642
  241MOL0     H32484   6.079   9.910   5.157 -0.1182  1.1966 -1.9766
  241MOL0     H32485   5.993   9.945   5.314 -0.6227  1.5825  0.3700
  241MOL0     H32486   6.181  10.163   5.048 -1.3941 -3.6151 -0.0449
  241MOL0     H32487   6.459  10.364   5.224  0.8557 -2.8058 -0.1237
  241MOL0     H32488   6.415  10.317   5.065  0.7937  0.1484  0.8884
  241MOL0     H32489   6.213  10.470   5.232 -2.0555  0.8724 -2.0548
  241MOL0     H32490   6.212  10.434   5.060 -1.0833  0.3980  0.4528
  241MOL0     H32491   6.442  10.562   5.045  0.1026  1.8323  0.3344
  241MOL0     H32492   6.423  10.598   5.205 -0.2163  1.2940 -0.3197
  241MOL0     H32493   6.260  10.710   4.982  0.0640  1.3586  0.3633
  241MOL0     H32494   6.316  10.800   5.118 -2.1712  1.4206  1.8972
  241MOL0     H32495   6.195  10.936   5.015 -0.5712  1.7220 -0.0156
  241MOL0     H32496   6.100  11.269   5.084 -1.3114 -1.7053  2.3968
  241MOL0     H32497   6.220  11.162   5.009  1.0281 -0.8339  4.8976
  241MOL0     H32498   6.072  11.188   4.926 -0.5193 -0.0463 -0.2254
  241MOL0     H32499   5.574  11.169   5.439 -0.7794 -0.8399 -1.1061
  241MOL0     H32500   5.355  11.320   5.437  1.1177 -1.2858  0.9359
  241MOL0     H32501   5.282  11.528   5.534  4.2197 -2.6572 -0.3249
  241MOL0     H32502   5.397  11.655   5.527  2.1253  0.0474 -1.7267
  241MOL0     H32503   5.248  11.782   5.373  2.4572 -1.3970 -0.0253
  241MOL0     H32504   5.118  11.668   5.381 -0.8484  1.1753 -1.0043
  241MOL0     H32505   5.163  11.888   5.569  0.8621  0.2693  1.2720
  241MOL0     H32506   5.234  11.767   5.660 -1.1169  2.7735  1.2474
  241MOL0     H32507   4.966  11.726   5.534  2.1039 -2.7794 -1.2846
  241MOL0     H32508   5.036  11.620   5.646 -1.0676  0.2684  1.3111
  241MOL0     H32509   4.947  11.896   5.711  2.6943  0.3925 -0.1650
  241MOL0     H32510   5.048  11.807   5.826  1.1036  0.8061 -0.9205
  241MOL0     H32511   4.783  11.723   5.713  1.8092  1.0804 -1.1307
  241MOL0     H32512   4.872  11.644   5.846 -2.7539  0.6067  2.1935
  241MOL0     H32513   4.756  11.935   5.876 -2.4907 -0.1231 -0.4854
  241MOL0     H32514   4.878  11.870   5.974  0.7030 -0.4487 -1.0298
  241MOL0     H32515   4.663  11.844   6.075  2.5647  1.6380  0.4953
  241MOL0     H32516   4.708  11.678   6.023 -0.1015  0.1798 -0.3727
  241MOL0     H32517   5.582  11.615   5.234  1.0350  0.5336  0.2499
  241MOL0     H32518   5.780  11.471   5.234  0.6796 -1.7981  0.2494
  241MOL0     H32519   5.805  10.984   5.306 -0.4531  0.9844 -1.7233
  241MOL0     H32520   5.910  10.764   5.284 -2.2228  1.2133 -0.7185
  241MOL0     H32521   5.328  10.808   5.647  0.6507  0.3406 -0.7353
  241MOL0     H32522   5.099  10.845   5.721 -0.3482 -0.5889  0.6548
  241MOL0     H32523   4.649  11.020   5.438 -2.7055  1.5057 -2.3423
  241MOL0     H32524   4.403  10.999   5.394  1.8949  0.5166 -2.0555
  241MOL0     H32525   4.211  10.972   5.374  1.7930 -0.6742 -1.6137
  241MOL0     H32526   4.233  10.822   5.291  3.8582  2.4120  0.7146
  241MOL0     H32527   3.992  10.755   5.410  1.2706 -0.1692  2.3774
  241MOL0     H32528   3.989  10.890   5.296 -0.1987  2.7016  0.2398
  241MOL0     H32529   3.985  11.044   5.502  1.3883 -0.2659  0.1387
  241MOL0     H32530   4.022  10.896   5.599  0.1978  0.2692 -0.5480
  241MOL0     H32531   3.761  10.957   5.446 -0.0483 -0.0114  0.3690
  241MOL0     H32532   3.784  10.964   5.617  0.1375 -0.8581  0.4528
  241MOL0     H32533   3.763  10.537   5.551  1.5096 -1.0887  1.3676
  241MOL0     H32534   4.412  10.633   5.624  2.6946 -1.7765 -0.8245
  241MOL0     H32535   4.653  10.662   5.661  0.4853  1.0240  0.8515
  242MOL0     O32536  10.104   9.822   2.423 -0.1215  0.6058 -0.3751
  242MOL0     C32537  10.127   9.744   2.328 -0.0367 -0.0293  0.1129
  242MOL0     O32538  10.033   9.654   2.274  0.2571 -0.0849 -0.4787
  242MOL0     C32539   9.913   9.641   2.339 -0.7505 -0.1185  0.0367
  242MOL0     C32540   9.894   9.551   2.437 -0.4416  0.6251 -0.1540
  242MOL0     C32541   9.767   9.537   2.498  0.0037  0.7529 -0.2289
  242MOL0     C32542   9.658   9.603   2.441  0.5119 -0.2021  0.3295
  242MOL0     O32543   9.530   9.587   2.478  1.0620  0.4726 -0.0757
  242MOL0     C32544   9.489   9.472   2.555 -0.3340 -0.3341 -0.5181
  242MOL0     C32545   9.337   9.470   2.586 -0.2002  0.3155  0.1899
  242MOL0     C32546   9.255   9.426   2.462  0.3566 -0.8962 -0.5891
  242MOL0     C32547   9.113   9.424   2.500  0.8226 -1.4173 -0.0142
  242MOL0     C32548   9.018   9.369   2.403 -0.6003  0.7208 -0.3390
  242MOL0     C32549   8.888   9.328   2.451  0.5570 -0.2123  0.7119
  242MOL0     C32550   8.899   9.184   2.510 -0.8216  0.3296 -0.5638
  242MOL0     C32551   8.772   9.154   2.594  1.0390  0.1928 -0.5558
  242MOL0     N32552   8.654   9.173   2.522 -0.8216 -0.2702  0.6395
  242MOL0     C32553   8.612   9.078   2.434  0.0698  0.3284 -0.6116
  242MOL0     C32554   8.497   9.131   2.386 -0.2165 -0.0622 -0.6764
  242MOL0     C32555   8.389   9.077   2.297 -0.4297 -0.5162 -0.0628
  242MOL0     C32556   8.301   8.968   2.350  0.6530 -0.3112  0.3791
  242MOL0     C32557   8.198   8.913   2.246  0.2580 -0.5856 -0.8418
  242MOL0     C32558   8.085   9.006   2.207 -0.1118 -0.2912  0.3001
  242MOL0     O32559   7.984   8.934   2.134  0.0529  0.3446  0.1719
  242MOL0     C32560   7.865   9.001   2.085 -0.0616 -0.4221  0.1505
  242MOL0     C32561   7.769   8.938   2.013 -0.4736 -0.5581  0.1274
  242MOL0     C32562   7.636   8.985   1.993 -0.1180 -0.5925  0.9173
  242MOL0     C32563   7.545   8.921   1.891 -0.1736  0.3057 -1.0662
  242MOL0     C32564   7.606   9.113   2.053 -0.7850  0.1773 -0.0758
  242MOL0     C32565   7.468   9.173   2.040 -0.0760 -0.2041  0.0731
  242MOL0     O32566   7.467   9.307   2.047 -0.3784  0.0881  0.5557
  242MOL0     C32567   7.350   9.370   2.058  0.3669  0.4944 -0.5847
  242MOL0     C32568   7.255   9.375   1.948  0.7833  0.3627 -0.7821
  242MOL0     C32569   7.139   9.455   1.951  0.3428 -0.6698  0.1774
  242MOL0     C32570   7.108   9.528   2.068 -0.5542  0.6031 -0.4042
  242MOL0     O32571   6.995   9.613   2.064  0.1089 -0.6024  0.8291
  242MOL0     C32572   6.894   9.601   2.167  0.7487 -0.8273  0.3841
  242MOL0     C32573   6.801   9.723   2.164 -0.3607  1.0035 -0.2461
  242MOL0     C32574   6.716   9.727   2.037 -0.2582  0.4878 -0.4117
  242MOL0     C32575   6.581   9.771   2.073 -0.2292 -0.1522  0.0558
  242MOL0     C32576   6.496   9.649   2.120  0.1668 -0.8477 -1.3825
  242MOL0     C32577   6.353   9.695   2.140  0.3440 -0.4558  0.6956
  242MOL0     C32578   6.307   9.631   2.272  0.3118  0.0103  0.2765
  242MOL0     C32579   6.159   9.662   2.289 -0.1455 -0.5250  0.1381
  242MOL0    Cl32580   6.103   9.541   2.405  0.1174  0.1106  0.1118
  242MOL0     C32581   7.204   9.518   2.174 -0.5792  0.3802 -0.2778
  242MOL0     C32582   7.330   9.443   2.171 -0.0347  0.0553  0.3725
  242MOL0     O32583   7.369   9.099   2.036 -0.0495  0.3388  0.6144
  242MOL0     C32584   7.711   9.185   2.112 -0.0023 -0.1147 -0.1944
  242MOL0     C32585   7.838   9.135   2.126 -0.1132 -0.8907  0.4533
  242MOL0     N32586   8.464   9.242   2.458 -0.0278  0.0199  0.3701
  242MOL0     N32587   8.567   9.275   2.531  1.2449  0.0507 -0.3488
  242MOL0     C32588   9.682   9.701   2.355  0.1711 -0.9909  0.4211
  242MOL0     C32589   9.808   9.718   2.293  0.0171  0.6788 -0.2993
  242MOL0     C32590  10.271   9.737   2.287  1.5748 -0.0537  0.1578
  242MOL0     C32591  10.325   9.615   2.246 -0.4739  0.0903  0.8930
  242MOL0     C32592  10.460   9.594   2.206 -0.6893 -0.2272 -0.9411
  242MOL0     C32593  10.552   9.700   2.221  0.0216 -0.3657 -0.1433
  242MOL0     O32594  10.689   9.691   2.207 -0.6145 -0.8161 -0.0698
  242MOL0     C32595  10.745   9.556   2.194 -0.0426  0.6678  0.5783
  242MOL0     C32596  10.906   9.568   2.183 -1.0649  1.0050 -0.5602
  242MOL0     C32597  10.943   9.615   2.042 -1.3298  0.4206 -0.1718
  242MOL0     C32598  11.097   9.619   2.016  0.2949 -0.8138 -0.1187
  242MOL0     C32599  11.130   9.582   1.871 -0.2973 -0.0019 -0.7087
  242MOL0     C32600  11.153   9.555   1.755 -0.3313  0.8133  0.6650
  242MOL0     C32601  10.497   9.821   2.271 -0.2799 -0.0384 -0.3218
  242MOL0     C32602  10.367   9.843   2.302  0.6666 -0.0525 -0.0948
  242MOL0     H32603   9.976   9.491   2.476 -2.1659 -2.1239 -0.4826
  242MOL0     H32604   9.772   9.467   2.581  0.8710  0.7453 -0.2757
  242MOL0     H32605   9.530   9.387   2.502 -2.4152 -2.3977  0.9582
  242MOL0     H32606   9.537   9.485   2.653 -3.4693  0.7161  1.0408
  242MOL0     H32607   9.316   9.403   2.669  1.2622 -1.6825 -0.9726
  242MOL0     H32608   9.315   9.575   2.609 -0.1643  0.8298 -1.8923
  242MOL0     H32609   9.272   9.504   2.388  0.7451 -0.2187  0.1995
  242MOL0     H32610   9.291   9.329   2.427  0.5409 -1.3316  0.7447
  242MOL0     H32611   9.111   9.358   2.587 -2.9647  0.5915  1.6444
  242MOL0     H32612   9.081   9.523   2.532  0.7693 -0.6845 -2.1732
  242MOL0     H32613   8.997   9.451   2.335 -0.1953  0.9972 -0.1337
  242MOL0     H32614   9.061   9.292   2.338 -0.6514 -1.6079  2.1820
  242MOL0     H32615   8.848   9.414   2.505 -0.4872  1.4793 -2.4724
  242MOL0     H32616   8.814   9.324   2.370  0.5257 -1.2562  0.7808
  242MOL0     H32617   8.924   9.105   2.438 -0.1416 -0.4304  0.4797
  242MOL0     H32618   8.985   9.181   2.577 -2.2062  0.6913  1.3126
  242MOL0     H32619   8.778   9.229   2.674 -5.2046  0.8431 -0.1810
  242MOL0     H32620   8.783   9.056   2.640 -0.6269 -0.2703 -1.0546
  242MOL0     H32621   8.651   8.980   2.408 -0.7777  0.0843 -0.9673
  242MOL0     H32622   8.332   9.162   2.259  0.2134  0.4121  0.9980
  242MOL0     H32623   8.447   9.036   2.214  2.1770  0.7954  1.0205
  242MOL0     H32624   8.229   8.993   2.429  0.6101  2.6467 -0.4882
  242MOL0     H32625   8.370   8.895   2.392  0.5259 -0.8878 -0.3979
  242MOL0     H32626   8.137   8.837   2.295 -0.5543  1.4839  1.5866
  242MOL0     H32627   8.253   8.876   2.159  1.5240 -0.2568 -0.2001
  242MOL0     H32628   8.133   9.078   2.139 -3.2288 -0.1990 -2.0200
  242MOL0     H32629   8.051   9.052   2.301  1.4893 -1.0391  1.2864
  242MOL0     H32630   7.811   8.848   1.971  3.5866  1.6424 -0.9806
  242MOL0     H32631   7.523   8.990   1.808  0.1318  0.3138 -1.1412
  242MOL0     H32632   7.590   8.829   1.855 -0.0280  0.6038 -1.6617
  242MOL0     H32633   7.445   8.902   1.930  0.8597  0.5125  1.9334
  242MOL0     H32634   7.274   9.318   1.857  0.6460 -3.3564  1.3340
  242MOL0     H32635   7.080   9.466   1.860  3.0800  4.5934 -1.3686
  242MOL0     H32636   6.833   9.511   2.158  1.8658 -1.8896  2.6764
  242MOL0     H32637   6.945   9.595   2.263  1.7582 -1.4105 -0.1686
  242MOL0     H32638   6.743   9.728   2.257 -0.2163  0.6936 -0.1371
  242MOL0     H32639   6.863   9.812   2.170  0.6068  0.2324  1.9483
  242MOL0     H32640   6.707   9.627   1.995  1.4762  0.2574 -0.3054
  242MOL0     H32641   6.762   9.796   1.967 -0.1606  0.6505 -0.1902
  242MOL0     H32642   6.581   9.848   2.151 -0.0421  0.2316 -0.3207
  242MOL0     H32643   6.543   9.811   1.979 -0.3785 -0.1038  0.1358
  242MOL0     H32644   6.544   9.619   2.213 -0.7955  0.7336 -0.3232
  242MOL0     H32645   6.495   9.573   2.041  1.4358 -2.7360  0.3020
  242MOL0     H32646   6.346   9.803   2.160  0.4515 -1.0454  5.0501
  242MOL0     H32647   6.300   9.652   2.055  0.1490 -0.0685  0.6157
  242MOL0     H32648   6.357   9.657   2.366  0.6799 -2.0470  0.6977
  242MOL0     H32649   6.326   9.525   2.257  0.7020  0.3741 -2.2667
  242MOL0     H32650   6.106   9.656   2.193  1.4146 -1.1674 -0.7240
  242MOL0     H32651   6.144   9.764   2.323  0.5063 -0.0101 -1.0450
  242MOL0     H32652   7.178   9.575   2.263  0.0949 -1.0912  0.9078
  242MOL0     H32653   7.393   9.435   2.259 -0.7475 -2.2042  0.7537
  242MOL0     H32654   7.686   9.283   2.153 -1.7142  0.1106 -1.6520
  242MOL0     H32655   7.911   9.202   2.170  0.6058 -1.1397 -0.3256
  242MOL0     H32656   9.601   9.766   2.323  0.5719 -1.8658 -2.6497
  242MOL0     H32657   9.814   9.787   2.209  0.1329 -0.4566 -1.2586
  242MOL0     H32658  10.264   9.526   2.253 -1.2175  0.4816 -0.2914
  242MOL0     H32659  10.495   9.494   2.183 -1.6544 -1.1266  1.2429
  242MOL0     H32660  10.712   9.501   2.282 -1.4484  0.0758 -0.2852
  242MOL0     H32661  10.708   9.505   2.105  1.0401  1.5827 -0.4307
  242MOL0     H32662  10.954   9.470   2.191  2.6445  2.5844 -1.2723
  242MOL0     H32663  10.956   9.630   2.258 -0.8314 -0.5356  0.6065
  242MOL0     H32664  10.908   9.717   2.029  0.1334  0.7979 -1.3209
  242MOL0     H32665  10.901   9.544   1.970  1.5538 -2.2910  0.5598
  242MOL0     H32666  11.140   9.541   2.080 -1.1102 -2.4126 -1.0245
  242MOL0     H32667  11.133   9.714   2.054 -2.1981 -0.0765  0.6213
  242MOL0     H32668  11.180   9.533   1.654  2.8327  0.8142  1.4066
  242MOL0     H32669  10.570   9.898   2.292  0.4014 -1.1067  1.4432
  242MOL0     H32670  10.345   9.943   2.339 -1.3492 -0.9977  1.4565
  243MOL0     O32671   8.652   0.702   4.722  0.0025 -0.2644  0.1008
  243MOL0     C32672   8.715   0.741   4.819  0.2295  0.4273  0.2793
  243MOL0     O32673   8.666   0.795   4.932  0.4196  0.2597 -0.5861
  243MOL0     C32674   8.544   0.848   4.909 -0.7112 -0.2769 -0.1192
  243MOL0     C32675   8.428   0.775   4.896  0.4749 -0.7087  0.2847
  243MOL0     C32676   8.297   0.837   4.901 -0.7065 -0.3397  1.0140
  243MOL0     C32677   8.290   0.979   4.916  0.4474 -0.7197 -0.0681
  243MOL0     O32678   8.179   1.058   4.949 -0.4381  0.8924 -0.1367
  243MOL0     C32679   8.056   1.009   4.898 -0.2236  0.4438 -0.0019
  243MOL0     C32680   7.941   1.116   4.920 -0.9839  0.7395 -0.4916
  243MOL0     C32681   7.958   1.265   4.853 -0.4991 -0.6782  0.4061
  243MOL0     C32682   7.835   1.307   4.777  0.9250 -0.8136 -0.6198
  243MOL0     C32683   7.722   1.358   4.866  0.0621 -0.7686 -0.2738
  243MOL0     C32684   7.616   1.400   4.768 -0.3137  0.4206  0.4887
  243MOL0     C32685   7.516   1.481   4.853  0.3838 -0.1739 -0.3754
  243MOL0     C32686   7.405   1.537   4.762  0.2755  0.6202 -0.3108
  243MOL0     N32687   7.317   1.636   4.812 -0.1744  0.0233 -0.2630
  243MOL0     C32688   7.237   1.631   4.921  1.0307 -0.4234  0.7119
  243MOL0     C32689   7.155   1.737   4.913 -0.0712 -0.5949 -0.2226
  243MOL0     C32690   7.059   1.770   5.025  1.2786 -1.2001  0.1983
  243MOL0     C32691   6.922   1.842   4.981 -0.4982 -0.1392 -0.1044
  243MOL0     C32692   6.830   1.854   5.106  1.1523 -0.6884 -0.9100
  243MOL0     C32693   6.866   1.985   5.176  0.2410  0.0966 -0.3414
  243MOL0     O32694   6.782   2.008   5.289  0.5465  0.4376  0.6612
  243MOL0     C32695   6.656   2.051   5.275  0.6121 -0.1390 -0.6977
  243MOL0     C32696   6.586   2.079   5.153 -0.7130 -0.1520 -0.5020
  243MOL0     C32697   6.448   2.104   5.153 -0.1478  0.7285 -0.0177
  243MOL0     C32698   6.398   2.154   5.023 -0.6065 -0.0037  0.3843
  243MOL0     C32699   6.376   2.106   5.274 -0.0577 -0.1834  0.0525
  243MOL0     C32700   6.225   2.110   5.285  0.1005  0.7631 -0.6344
  243MOL0     O32701   6.151   2.223   5.244 -0.0709  0.1967  0.0473
  243MOL0     C32702   6.024   2.226   5.264  1.0123 -1.2537 -0.4807
  243MOL0     C32703   5.980   2.346   5.314 -0.0506 -0.9603  0.5611
  243MOL0     C32704   5.834   2.366   5.326 -0.3567 -0.0668  0.0735
  243MOL0     C32705   5.737   2.254   5.299  0.4307  0.3129 -0.4165
  243MOL0     O32706   5.598   2.253   5.336  0.1522  0.2208  1.1631
  243MOL0     C32707   5.528   2.370   5.326  0.5173 -0.3319 -0.0595
  243MOL0     C32708   5.384   2.342   5.370  0.6792  0.0467  0.2702
  243MOL0     C32709   5.293   2.454   5.329 -0.5627  1.2719 -0.3470
  243MOL0     C32710   5.139   2.442   5.342  0.0494 -0.5001  0.4300
  243MOL0     C32711   5.108   2.403   5.482 -0.0655 -0.1932 -0.0067
  243MOL0     C32712   4.954   2.408   5.507 -0.0898 -0.4726  0.9633
  243MOL0     C32713   4.873   2.297   5.441 -0.6356 -0.0955  0.3586
  243MOL0     C32714   4.739   2.271   5.522 -0.8480 -1.3411 -0.1921
  243MOL0    Cl32715   4.637   2.173   5.406  0.1121  0.0732 -0.6133
  243MOL0     C32716   5.796   2.135   5.264  0.6457  0.0816 -0.3415
  243MOL0     C32717   5.931   2.117   5.237  0.3163 -0.5841 -0.4443
  243MOL0     O32718   6.179   2.010   5.337 -0.1516  0.6820  0.2546
  243MOL0     C32719   6.449   2.081   5.387 -0.2287  0.8103  0.5982
  243MOL0     C32720   6.583   2.048   5.389  0.1783  0.6961  0.5311
  243MOL0     N32721   7.190   1.807   4.806  0.1227  0.3142  0.0013
  243MOL0     N32722   7.290   1.756   4.750 -0.8465  0.3448 -0.4858
  243MOL0     C32723   8.415   1.049   4.926  0.1808  0.0542 -0.6901
  243MOL0     C32724   8.540   0.985   4.922 -0.8511  0.0778 -0.6764
  243MOL0     C32725   8.857   0.713   4.817 -0.1556  0.5793 -0.6729
  243MOL0     C32726   8.932   0.770   4.914 -0.2435 -0.1608 -0.7156
  243MOL0     C32727   9.069   0.768   4.912  0.5818  1.2434  0.6618
  243MOL0     C32728   9.138   0.689   4.822  1.0965  0.1464 -0.2073
  243MOL0     O32729   9.277   0.680   4.838 -0.4967  0.3279 -0.1459
  243MOL0     C32730   9.347   0.614   4.728  0.1833  0.1713  0.1435
  243MOL0     C32731   9.494   0.626   4.744  0.6211 -0.4172  0.2321
  243MOL0     C32732   9.562   0.513   4.672 -0.0112 -0.3053  0.0131
  243MOL0     C32733   9.708   0.536   4.668  0.2605 -0.7819  0.5387
  243MOL0     C32734   9.788   0.539   4.787 -1.2529 -0.3366  0.1419
  243MOL0     C32735   9.871   0.512   4.873  1.1057  0.0564  0.3685
  243MOL0     C32736   9.064   0.623   4.718 -0.3865 -0.1580  0.7223
  243MOL0     C32737   8.922   0.636   4.716  0.4710 -0.0979 -0.0402
  243MOL0     H32738   8.437   0.668   4.907 -1.6092 -0.8444  1.1777
  243MOL0     H32739   8.204   0.782   4.911 -2.2235  1.1403 -3.0199
  243MOL0     H32740   8.054   1.006   4.789  1.5912  2.1587 -0.1569
  243MOL0     H32741   8.022   0.915   4.941 -0.2428 -1.4990 -3.8532
  243MOL0     H32742   7.855   1.058   4.884  0.8840 -3.2241  0.8536
  243MOL0     H32743   7.939   1.131   5.028  0.6553  0.1088 -0.3466
  243MOL0     H32744   7.967   1.344   4.929 -2.0123  0.6045 -0.6890
  243MOL0     H32745   8.047   1.255   4.789 -2.5497 -0.3166 -2.6900
  243MOL0     H32746   7.856   1.384   4.702 -2.5116  2.3670  1.3812
  243MOL0     H32747   7.791   1.231   4.711  0.2400 -2.6795  1.8122
  243MOL0     H32748   7.693   1.278   4.935  0.5743 -1.3843 -0.7520
  243MOL0     H32749   7.750   1.445   4.926  1.6816 -1.7984  0.5634
  243MOL0     H32750   7.660   1.462   4.690 -0.3024  0.5265  0.5789
  243MOL0     H32751   7.566   1.313   4.723  1.1887  0.0675 -0.5542
  243MOL0     H32752   7.482   1.427   4.943 -0.7590  0.6341 -0.2998
  243MOL0     H32753   7.569   1.563   4.902  1.1653 -0.7074 -0.3195
  243MOL0     H32754   7.338   1.458   4.728  0.6041 -0.3365  1.1711
  243MOL0     H32755   7.463   1.576   4.678  1.0787  1.4521  0.6102
  243MOL0     H32756   7.242   1.557   5.000  1.1727 -0.7159  0.4336
  243MOL0     H32757   7.023   1.673   5.062 -0.7863 -0.5116  0.1394
  243MOL0     H32758   7.108   1.832   5.100 -0.9818 -0.0201  0.8037
  243MOL0     H32759   6.865   1.786   4.907 -1.9538  2.4961 -1.1101
  243MOL0     H32760   6.942   1.932   4.923 -0.8462  0.8022  1.1902
  243MOL0     H32761   6.843   1.766   5.169  1.5479 -0.8732 -1.2504
  243MOL0     H32762   6.726   1.865   5.074  0.3475  1.7176  1.9607
  243MOL0     H32763   6.866   2.070   5.107 -0.3480  0.2877 -0.1124
  243MOL0     H32764   6.964   1.976   5.225 -1.6491  1.1693  4.2189
  243MOL0     H32765   6.634   2.084   5.056 -2.5784 -0.5218 -1.4936
  243MOL0     H32766   6.479   2.163   4.950 -0.2481 -1.1239  0.6192
  243MOL0     H32767   6.326   2.085   4.979 -0.6598 -0.8919  1.8102
  243MOL0     H32768   6.354   2.254   5.031  1.3207  1.0427 -1.0989
  243MOL0     H32769   6.059   2.417   5.337 -1.0229  0.0398  0.8930
  243MOL0     H32770   5.796   2.461   5.361  1.9617  1.1521 -0.5412
  243MOL0     H32771   5.576   2.450   5.384  3.1031 -1.9803  0.2375
  243MOL0     H32772   5.519   2.392   5.219  1.9067 -2.5875 -0.7095
  243MOL0     H32773   5.355   2.255   5.310  0.8294  0.1839 -0.0039
  243MOL0     H32774   5.374   2.309   5.473 -3.3117 -1.3926 -0.4008
  243MOL0     H32775   5.306   2.462   5.221 -0.3924 -1.0842 -0.5425
  243MOL0     H32776   5.326   2.545   5.381 -1.2007 -0.1970  2.9431
  243MOL0     H32777   5.085   2.534   5.319  2.2894  0.3442 -1.9835
  243MOL0     H32778   5.115   2.364   5.270 -0.5156  1.1367 -1.2146
  243MOL0     H32779   5.149   2.470   5.557 -1.0110  3.1424 -2.2642
  243MOL0     H32780   5.139   2.299   5.499  1.6183  0.2567 -0.1245
  243MOL0     H32781   4.930   2.405   5.613  1.3473  1.4422  1.3862
  243MOL0     H32782   4.906   2.501   5.475 -0.8949 -0.8116  1.1413
  243MOL0     H32783   4.931   2.205   5.456  0.2263  0.6074  1.5900
  243MOL0     H32784   4.860   2.309   5.333 -0.8232 -3.3220 -0.0828
  243MOL0     H32785   4.688   2.363   5.551 -0.0148 -0.6485 -0.8688
  243MOL0     H32786   4.775   2.223   5.614  5.1819  0.3729 -1.2357
  243MOL0     H32787   5.728   2.052   5.250 -0.4841  0.7429  0.9756
  243MOL0     H32788   5.975   2.018   5.225  0.4782 -0.8266  1.7410
  243MOL0     H32789   6.401   2.086   5.484 -2.4318 -0.4006 -0.3524
  243MOL0     H32790   6.635   2.030   5.483 -0.6870 -3.7066  0.3639
  243MOL0     H32791   8.409   1.157   4.925 -3.9609  0.0360  1.2892
  243MOL0     H32792   8.630   1.043   4.907 -0.3423 -1.1235 -2.6273
  243MOL0     H32793   8.895   0.853   4.973  1.5552  1.4309 -1.7048
  243MOL0     H32794   9.118   0.815   4.996 -2.9446  1.5054  2.7594
  243MOL0     H32795   9.315   0.511   4.709  0.5003  0.6711 -4.1131
  243MOL0     H32796   9.317   0.672   4.640 -2.5637  1.0998  1.5650
  243MOL0     H32797   9.512   0.624   4.852  2.2202  0.7177  0.0098
  243MOL0     H32798   9.519   0.726   4.707  1.3247 -0.3721  0.8072
  243MOL0     H32799   9.519   0.483   4.576  0.4321 -2.7789  0.5122
  243MOL0     H32800   9.545   0.425   4.735 -3.4715  3.3295  4.9362
  243MOL0     H32801   9.723   0.629   4.612 -5.1162 -0.2268 -0.5924
  243MOL0     H32802   9.748   0.448   4.618 -3.1648 -3.0308  1.4298
  243MOL0     H32803   9.925   0.493   4.964 -0.2578 -2.4408  0.7463
  243MOL0     H32804   9.112   0.562   4.642 -0.2525  3.2292 -2.1670
  243MOL0     H32805   8.872   0.572   4.644  1.6860  0.4724 -1.4407
  244MOL0     O32806   2.788   5.666   9.966  0.3702  0.2645 -0.2763
  244MOL0     C32807   2.818   5.716   9.856  0.2892 -0.0903  0.1737
  244MOL0     O32808   2.759   5.677   9.736 -0.0149  0.5240 -0.5615
  244MOL0     C32809   2.646   5.596   9.730 -0.1601 -0.2240  0.1954
  244MOL0     C32810   2.533   5.647   9.658 -0.4573 -0.1076 -0.0292
  244MOL0     C32811   2.437   5.552   9.619  1.2965 -0.1672  0.1811
  244MOL0     C32812   2.444   5.416   9.656  0.2112 -0.6390 -1.4209
  244MOL0     O32813   2.338   5.331   9.619  1.1494  0.6800 -1.0211
  244MOL0     C32814   2.328   5.211   9.704 -0.1329  0.3062 -0.8540
  244MOL0     C32815   2.182   5.150   9.693 -0.3378 -0.3439 -0.1550
  244MOL0     C32816   2.169   5.003   9.751 -0.7444  0.5968 -0.7489
  244MOL0     C32817   2.023   4.967   9.782  0.0186 -0.5038 -0.0082
  244MOL0     C32818   1.936   4.965   9.657  0.8875  0.3849 -1.2826
  244MOL0     C32819   1.800   4.892   9.681 -0.4888 -0.2249  0.5042
  244MOL0     C32820   1.720   4.875   9.555 -0.1970 -0.0252 -0.0275
  244MOL0     C32821   1.585   4.806   9.574 -0.1900 -0.1742 -1.0416
  244MOL0     N32822   1.529   4.772   9.447  0.1267  0.3974 -0.0302
  244MOL0     C32823   1.528   4.649   9.393  0.2397  1.2680 -0.1398
  244MOL0     C32824   1.452   4.666   9.279  0.6938  0.7512  0.0262
  244MOL0     C32825   1.413   4.539   9.197 -0.1565  0.3757  0.0908
  244MOL0     C32826   1.283   4.574   9.126 -0.1128  0.2810  0.2157
  244MOL0     C32827   1.214   4.466   9.056  0.6573  0.6014  0.5662
  244MOL0     C32828   1.131   4.367   9.148  0.0133  0.4704  0.1101
  244MOL0     O32829   1.001   4.422   9.200 -0.6602  0.2702 -0.3594
  244MOL0     C32830   0.895   4.416   9.115  0.4103 -0.9752 -0.4188
  244MOL0     C32831   0.782   4.490   9.169 -0.0443  0.5903  0.9580
  244MOL0     C32832   0.657   4.494   9.099  0.7238 -0.6222  0.1515
  244MOL0     C32833   0.541   4.553   9.170  0.1307 -0.2237  0.1449
  244MOL0     C32834   0.648   4.441   8.970  0.4668  0.3489  0.6844
  244MOL0     C32835   0.531   4.451   8.882  0.7719  0.2707 -0.2727
  244MOL0     O32836   0.407   4.433   8.942  0.5049  0.1325 -0.4721
  244MOL0     C32837   0.281   4.473   8.895 -0.5352 -0.4361 -0.0771
  244MOL0     C32838   0.178   4.416   8.976 -0.4519  0.4889  0.4729
  244MOL0     C32839   0.048   4.448   8.958 -0.2455 -0.0377 -0.2618
  244MOL0     C32840   0.012   4.523   8.847  0.5614  0.2407 -0.0586
  244MOL0     O32841  -0.117   4.553   8.802 -0.4979 -0.3093 -0.2057
  244MOL0     C32842  -0.229   4.518   8.893 -0.7455 -0.6957 -0.0870
  244MOL0     C32843  -0.346   4.613   8.843 -1.1939 -0.0258 -0.3233
  244MOL0     C32844  -0.338   4.754   8.897 -0.2910  0.3004  0.7673
  244MOL0     C32845  -0.309   4.765   9.045  0.2110 -0.2226  0.2300
  244MOL0     C32846  -0.426   4.701   9.127  0.3937 -0.3508 -0.5982
  244MOL0     C32847  -0.539   4.796   9.171  0.1908 -0.9260  0.1986
  244MOL0     C32848  -0.652   4.732   9.242 -0.7241  0.3105  0.1932
  244MOL0     C32849  -0.789   4.807   9.233  0.0759 -0.2333  0.8318
  244MOL0    Cl32850  -0.914   4.727   9.325  0.4825 -0.5126 -0.2785
  244MOL0     C32851   0.113   4.572   8.763  0.8615 -0.6337 -0.5493
  244MOL0     C32852   0.248   4.554   8.791 -0.3992 -0.1972  0.8018
  244MOL0     O32853   0.552   4.462   8.761 -0.1257 -0.2499 -0.2390
  244MOL0     C32854   0.767   4.389   8.913 -0.0718 -0.2312 -0.2916
  244MOL0     C32855   0.887   4.373   8.983  0.2632  0.5346  0.7068
  244MOL0     N32856   1.413   4.796   9.263  0.6417  0.3060  0.0044
  244MOL0     N32857   1.462   4.855   9.364  0.2881 -0.7217 -0.3676
  244MOL0     C32858   2.556   5.367   9.734  0.0405  0.0268 -0.0889
  244MOL0     C32859   2.655   5.462   9.769 -0.1451 -0.1080  0.0828
  244MOL0     C32860   2.925   5.819   9.851  0.5806 -0.4651  0.3941
  244MOL0     C32861   2.984   5.856   9.972 -1.1644 -0.6979 -0.6869
  244MOL0     C32862   3.099   5.942   9.971  0.8037 -0.3410  0.6856
  244MOL0     C32863   3.139   6.005   9.853 -1.1617  0.2690 -1.1166
  244MOL0     O32864   3.247   6.090   9.842 -0.4035 -0.0721  0.2477
  244MOL0     C32865   3.326   6.107   9.953 -0.9497 -0.6392 -0.0878
  244MOL0     C32866   3.416   6.232   9.927 -0.5427 -0.0269  0.2331
  244MOL0     C32867   3.538   6.201   9.839 -0.4142  0.2393 -0.3548
  244MOL0     C32868   3.656   6.298   9.863  0.2048  0.4172  0.4892
  244MOL0     C32869   3.732   6.316   9.739 -0.2077 -0.3402  0.0375
  244MOL0     C32870   3.802   6.330   9.644  0.1266 -0.4183 -0.6469
  244MOL0     C32871   3.072   5.970   9.735 -0.6320 -0.4841  0.1723
  244MOL0     C32872   2.966   5.884   9.735 -0.4645  0.0096 -0.3188
  244MOL0     H32873   2.532   5.753   9.636  1.5569 -0.3805 -1.7291
  244MOL0     H32874   2.351   5.585   9.561  0.7391  1.3012  1.7566
  244MOL0     H32875   2.402   5.136   9.677  0.9839  1.8836 -2.3952
  244MOL0     H32876   2.345   5.233   9.810 -3.0256 -1.8219  0.1985
  244MOL0     H32877   2.108   5.222   9.728 -0.6040 -0.0060 -1.3563
  244MOL0     H32878   2.158   5.139   9.587 -0.4899 -1.3538 -0.0229
  244MOL0     H32879   2.221   4.936   9.682  0.5774 -0.1157  0.8840
  244MOL0     H32880   2.232   5.012   9.840 -1.1663  2.3004 -0.5717
  244MOL0     H32881   2.023   4.872   9.835  0.6672  0.7566  2.4203
  244MOL0     H32882   1.975   5.028   9.859 -2.5051  0.2714 -2.0617
  244MOL0     H32883   1.914   5.068   9.626 -2.1154  0.6351  1.2136
  244MOL0     H32884   1.985   4.907   9.578 -1.0137 -1.6508 -1.0521
  244MOL0     H32885   1.829   4.796   9.725  3.4388 -0.0860 -1.3160
  244MOL0     H32886   1.741   4.956   9.747 -0.0555  0.2848  0.4082
  244MOL0     H32887   1.711   4.971   9.505 -0.7763  0.5486  1.1388
  244MOL0     H32888   1.774   4.812   9.483 -1.6296  2.0162 -3.0871
  244MOL0     H32889   1.521   4.875   9.629  1.6938  2.0875 -1.5531
  244MOL0     H32890   1.601   4.713   9.630  4.2322 -1.1973 -3.5271
  244MOL0     H32891   1.589   4.562   9.414  0.2892  0.6217 -2.5684
  244MOL0     H32892   1.489   4.507   9.125 -1.1788 -0.1725 -0.7818
  244MOL0     H32893   1.387   4.464   9.272 -0.0065 -0.2719 -0.4971
  244MOL0     H32894   1.330   4.637   9.050  1.5692  0.4404  1.3327
  244MOL0     H32895   1.210   4.622   9.192 -1.5332 -1.2141 -0.2014
  244MOL0     H32896   1.295   4.407   9.013 -0.4881  0.3689 -1.3707
  244MOL0     H32897   1.150   4.504   8.977 -0.9551  1.7688  2.3441
  244MOL0     H32898   1.194   4.330   9.230 -1.0855  1.9762  1.7229
  244MOL0     H32899   1.113   4.274   9.093  0.0178  0.7522 -0.3674
  244MOL0     H32900   0.779   4.531   9.269  3.6673  0.1981  1.3651
  244MOL0     H32901   0.576   4.606   9.260  0.1640  2.4326 -1.3093
  244MOL0     H32902   0.503   4.634   9.107 -1.5280  0.2300  1.6405
  244MOL0     H32903   0.467   4.477   9.196  0.1360 -0.3381 -0.1694
  244MOL0     H32904   0.203   4.356   9.063 -0.6563 -1.0756 -0.5038
  244MOL0     H32905  -0.026   4.405   9.025  1.4862 -3.9946 -0.6133
  244MOL0     H32906  -0.253   4.412   8.881  1.3627 -1.0163 -2.3145
  244MOL0     H32907  -0.197   4.528   8.997  1.6483 -0.2113 -0.8015
  244MOL0     H32908  -0.326   4.606   8.735 -0.3111 -0.1412 -0.1562
  244MOL0     H32909  -0.441   4.565   8.872 -0.7427 -0.5148  0.3742
  244MOL0     H32910  -0.432   4.801   8.867  1.6741  2.2433 -2.9628
  244MOL0     H32911  -0.261   4.801   8.835  0.5330 -2.5096 -0.4949
  244MOL0     H32912  -0.216   4.713   9.073  0.8655 -1.2609 -3.4016
  244MOL0     H32913  -0.295   4.868   9.079  2.9616  0.3470 -2.1989
  244MOL0     H32914  -0.379   4.668   9.220  1.5171  2.0979 -0.2374
  244MOL0     H32915  -0.468   4.621   9.066 -1.9920  0.7295 -0.4801
  244MOL0     H32916  -0.501   4.875   9.236  1.1525  0.2804 -1.7372
  244MOL0     H32917  -0.579   4.837   9.078  1.1093 -1.5360 -0.4803
  244MOL0     H32918  -0.619   4.725   9.347  3.0723  3.0028 -0.5870
  244MOL0     H32919  -0.652   4.628   9.209 -0.6993 -0.4843  2.5202
  244MOL0     H32920  -0.810   4.808   9.125  1.0570 -2.8712  0.5471
  244MOL0     H32921  -0.777   4.911   9.265  0.0556  0.1261 -0.2774
  244MOL0     H32922   0.093   4.630   8.674  1.9332  0.5915 -0.0168
  244MOL0     H32923   0.319   4.588   8.717  1.7470 -3.6163  1.0504
  244MOL0     H32924   0.769   4.355   8.809  0.6585 -0.3471 -0.2413
  244MOL0     H32925   0.970   4.324   8.932 -0.9547  0.6457 -1.5195
  244MOL0     H32926   2.570   5.265   9.767 -2.6744 -1.0383 -1.8747
  244MOL0     H32927   2.755   5.431   9.797  0.2948  1.7010  0.6272
  244MOL0     H32928   2.959   5.816  10.070  4.0693  1.5512  2.0050
  244MOL0     H32929   3.153   5.966  10.062  1.9042 -0.2465  0.0252
  244MOL0     H32930   3.275   6.119  10.049 -0.4368  0.7247  0.0361
  244MOL0     H32931   3.385   6.015   9.964  0.4920  0.1531 -0.9724
  244MOL0     H32932   3.453   6.266  10.024  3.2303 -0.3086 -0.9563
  244MOL0     H32933   3.356   6.316   9.891  2.8842  2.1962 -0.7389
  244MOL0     H32934   3.517   6.199   9.731  1.6457  0.3232 -0.8174
  244MOL0     H32935   3.571   6.100   9.864 -0.2167 -0.2725 -2.4431
  244MOL0     H32936   3.719   6.261   9.944 -1.0154 -1.3239  0.7068
  244MOL0     H32937   3.626   6.396   9.900  1.1923  2.2012 -2.9716
  244MOL0     H32938   3.856   6.345   9.553  1.1020 -0.8082 -0.1498
  244MOL0     H32939   3.105   6.009   9.639  0.6535 -1.0850  0.3488
  244MOL0     H32940   2.923   5.848   9.642 -1.8937  2.1060 -0.5679
  245MOL0     O32941   5.722   6.982   1.689  0.5933  0.0961 -0.3612
  245MOL0     C32942   5.748   6.952   1.803  0.4673  0.1011  0.1935
  245MOL0     O32943   5.671   6.972   1.912  0.9602 -0.1654 -0.1145
  245MOL0     C32944   5.539   7.013   1.904  0.0962 -0.2373 -0.1090
  245MOL0     C32945   5.493   7.114   1.815  0.1300  0.1911  1.0415
  245MOL0     C32946   5.354   7.130   1.808  0.1247  0.2605 -0.0092
  245MOL0     C32947   5.258   7.059   1.886 -0.2012  0.0472 -0.5191
  245MOL0     O32948   5.123   7.074   1.872 -0.4258 -0.7087  0.4816
  245MOL0     C32949   5.044   6.966   1.828 -0.1750  0.6824 -0.4981
  245MOL0     C32950   4.950   7.015   1.722 -0.0890  0.9458  0.6386
  245MOL0     C32951   4.844   6.911   1.697  0.6218  0.1174  0.4252
  245MOL0     C32952   4.743   6.961   1.586  0.3454 -1.0326  0.5193
  245MOL0     C32953   4.623   6.859   1.598 -1.2277 -0.5102 -0.8662
  245MOL0     C32954   4.509   6.916   1.521  0.4649 -0.1864  0.5512
  245MOL0     C32955   4.391   6.819   1.521  0.8553  0.5579  0.0826
  245MOL0     C32956   4.272   6.869   1.425  0.2118 -0.3932 -0.1051
  245MOL0     N32957   4.172   6.759   1.425 -0.0755 -0.6137  0.6473
  245MOL0     C32958   4.056   6.761   1.507 -0.6438  0.4974 -0.2359
  245MOL0     C32959   3.987   6.656   1.457 -0.4059  0.4276  0.1203
  245MOL0     C32960   3.871   6.584   1.514 -0.1451  0.3048 -0.2451
  245MOL0     C32961   3.892   6.527   1.650 -0.5055 -0.1942  0.2391
  245MOL0     C32962   3.774   6.437   1.697 -0.4034 -0.7760 -0.7502
  245MOL0     C32963   3.772   6.300   1.628  0.4191  1.0412  0.2499
  245MOL0     O32964   3.664   6.215   1.688  0.3054  0.7799  0.3306
  245MOL0     C32965   3.544   6.219   1.618  0.2723  0.4863  0.3196
  245MOL0     C32966   3.515   6.309   1.516  0.0382 -0.1351 -0.1661
  245MOL0     C32967   3.402   6.300   1.431 -0.8887  0.7317  0.1764
  245MOL0     C32968   3.390   6.409   1.327 -0.1658 -0.0693  0.1247
  245MOL0     C32969   3.307   6.195   1.452 -0.4556  1.4334 -0.2485
  245MOL0     C32970   3.170   6.176   1.388  0.2220  0.0964  0.0078
  245MOL0     O32971   3.076   6.113   1.457  0.2869 -0.0630 -0.0471
  245MOL0     C32972   2.946   6.092   1.413  0.7572  0.1754 -0.2906
  245MOL0     C32973   2.871   6.013   1.499  0.3821 -0.7705 -0.4945
  245MOL0     C32974   2.730   6.000   1.486  0.3606 -0.1247 -0.8469
  245MOL0     C32975   2.660   6.057   1.382  0.4505 -0.4656 -0.5419
  245MOL0     O32976   2.523   6.065   1.388 -0.6325 -0.8163 -0.4760
  245MOL0     C32977   2.459   6.021   1.266  0.6628  0.1648  0.2815
  245MOL0     C32978   2.315   5.982   1.295  0.2360 -0.2849 -0.5917
  245MOL0     C32979   2.235   5.973   1.162 -0.0762  0.0658 -0.2860
  245MOL0     C32980   2.099   5.916   1.182 -0.5880 -0.4522  0.6008
  245MOL0     C32981   1.989   6.020   1.212  0.1537  0.3683  0.6463
  245MOL0     C32982   1.857   5.967   1.154 -0.8019  0.4612  0.8694
  245MOL0     C32983   1.739   6.027   1.224 -0.1816 -0.1297  0.4600
  245MOL0     C32984   1.601   5.985   1.172  0.2033 -0.9127  0.3191
  245MOL0    Cl32985   1.579   5.811   1.209  0.4340  0.1061 -0.2429
  245MOL0     C32986   2.737   6.120   1.281 -0.5451  0.3423  0.8781
  245MOL0     C32987   2.877   6.148   1.301  0.2423  0.3157  0.3901
  245MOL0     O32988   3.161   6.224   1.274  0.0265 -0.1344  0.4148
  245MOL0     C32989   3.340   6.103   1.563 -0.6044 -1.0025 -0.3577
  245MOL0     C32990   3.463   6.110   1.630  0.2990  0.9114 -0.1769
  245MOL0     N32991   4.056   6.593   1.354 -0.4051  0.6362 -0.4487
  245MOL0     N32992   4.168   6.653   1.332  0.3129 -0.3703  0.9383
  245MOL0     C32993   5.316   6.978   1.988  0.9158 -0.1181 -0.5110
  245MOL0     C32994   5.451   6.958   1.996  0.1253 -0.1341 -0.3195
  245MOL0     C32995   5.881   6.890   1.823  0.5018  0.6144 -0.5956
  245MOL0     C32996   5.918   6.836   1.952 -0.2257  0.2909 -0.0075
  245MOL0     C32997   6.042   6.782   1.961  0.0767 -0.4146 -0.0161
  245MOL0     C32998   6.142   6.775   1.854 -0.6805  1.0592 -0.3874
  245MOL0     O32999   6.269   6.732   1.868 -0.3571  0.6082 -0.7940
  245MOL0     C33000   6.312   6.689   1.994  0.6309 -0.5652  0.2130
  245MOL0     C33001   6.337   6.798   2.099  0.2135 -0.0347 -0.0240
  245MOL0     C33002   6.440   6.891   2.043 -0.2338  0.5756 -0.7947
  245MOL0     C33003   6.585   6.842   2.035  0.1731  0.1630 -0.5139
  245MOL0     C33004   6.615   6.773   2.165 -0.6134  0.4714  0.4921
  245MOL0     C33005   6.640   6.722   2.277 -1.2695 -0.6372  0.8141
  245MOL0     C33006   6.097   6.818   1.724 -0.0633  0.6804  0.0189
  245MOL0     C33007   5.971   6.879   1.706 -0.6461  0.3278 -0.2274
  245MOL0     H33008   5.550   7.170   1.741  0.2941 -0.8081  0.3855
  245MOL0     H33009   5.319   7.189   1.724  1.0023 -0.0393 -0.6050
  245MOL0     H33010   5.115   6.900   1.777  1.2285  3.4062 -2.3257
  245MOL0     H33011   5.001   6.923   1.920  2.0523 -3.7362 -1.2270
  245MOL0     H33012   4.912   7.110   1.760 -0.6948  1.1516 -0.4450
  245MOL0     H33013   5.004   7.028   1.628 -0.0273 -0.8590  0.3919
  245MOL0     H33014   4.885   6.815   1.666 -0.0095 -0.6667  1.9185
  245MOL0     H33015   4.793   6.892   1.792  0.3721  1.1099  0.4981
  245MOL0     H33016   4.701   7.061   1.602  1.3846 -0.5379  0.2328
  245MOL0     H33017   4.791   6.964   1.488 -0.4674  4.4000 -0.0135
  245MOL0     H33018   4.661   6.761   1.569  0.5876  0.2266 -1.1509
  245MOL0     H33019   4.597   6.850   1.704  1.1346  1.2475 -0.0424
  245MOL0     H33020   4.475   7.011   1.562 -3.2031 -1.1213  0.0475
  245MOL0     H33021   4.538   6.931   1.417  1.8131  2.1130  1.1843
  245MOL0     H33022   4.415   6.719   1.485 -2.6196 -0.3717 -0.0518
  245MOL0     H33023   4.340   6.795   1.614 -1.2796 -0.5625 -1.2908
  245MOL0     H33024   4.317   6.892   1.328 -1.2507  1.8000 -0.3254
  245MOL0     H33025   4.233   6.963   1.465  2.4923  0.3462  0.5806
  245MOL0     H33026   4.038   6.818   1.598  2.4746 -0.1088  0.9240
  245MOL0     H33027   3.784   6.650   1.518 -0.9376 -0.7585  0.9611
  245MOL0     H33028   3.848   6.502   1.444 -0.7749  0.7955 -0.6261
  245MOL0     H33029   3.909   6.618   1.708  2.5938  1.8033 -3.3225
  245MOL0     H33030   3.984   6.469   1.659 -1.2233 -1.3008  0.6575
  245MOL0     H33031   3.677   6.476   1.667  0.6354  0.4253 -2.7561
  245MOL0     H33032   3.780   6.423   1.805  0.5983  5.5991  0.3850
  245MOL0     H33033   3.871   6.254   1.643  1.1257  0.9969 -3.4914
  245MOL0     H33034   3.765   6.308   1.519  2.7501  0.1185 -0.0390
  245MOL0     H33035   3.567   6.404   1.502 -3.8210  2.4236  1.3311
  245MOL0     H33036   3.284   6.438   1.331 -0.3867 -0.7230 -0.6590
  245MOL0     H33037   3.446   6.500   1.348 -1.7737  1.2296 -0.9064
  245MOL0     H33038   3.407   6.374   1.224 -0.0442 -0.3270  0.2302
  245MOL0     H33039   2.922   5.959   1.577 -0.2977  0.4348  0.8295
  245MOL0     H33040   2.684   5.946   1.568  2.2441  1.2279  1.2030
  245MOL0     H33041   2.462   6.101   1.191  0.2346 -0.8094 -0.7923
  245MOL0     H33042   2.506   5.928   1.234  2.4253  0.8614  0.7121
  245MOL0     H33043   2.309   5.886   1.346 -1.3866 -0.2746 -0.7068
  245MOL0     H33044   2.270   6.059   1.358 -1.3450  0.6555 -2.7568
  245MOL0     H33045   2.290   5.909   1.093 -1.6514  0.0669 -1.6047
  245MOL0     H33046   2.229   6.075   1.122 -3.6470  0.4476  0.8884
  245MOL0     H33047   2.075   5.873   1.084  0.2954 -1.0370  0.6238
  245MOL0     H33048   2.097   5.829   1.249 -1.2226  1.1362  2.7520
  245MOL0     H33049   2.007   6.113   1.158 -1.0809 -0.1602 -0.7368
  245MOL0     H33050   1.976   6.029   1.320  0.0874 -3.6914  1.1291
  245MOL0     H33051   1.843   6.003   1.051 -1.2800  1.2121  1.1863
  245MOL0     H33052   1.853   5.857   1.154  2.2307  0.2789  1.3855
  245MOL0     H33053   1.755   6.135   1.215  3.0834 -0.5676 -0.4544
  245MOL0     H33054   1.734   6.002   1.330 -4.7033 -2.5340 -0.0689
  245MOL0     H33055   1.586   5.994   1.064  0.9977 -0.6814  0.2206
  245MOL0     H33056   1.525   6.048   1.219  0.5739 -1.0789  1.1536
  245MOL0     H33057   2.697   6.173   1.195  0.3831 -1.1527 -0.5278
  245MOL0     H33058   2.936   6.214   1.238 -0.9456  1.1558  0.1300
  245MOL0     H33059   3.276   6.018   1.584  0.9474 -2.5617 -1.5698
  245MOL0     H33060   3.489   6.019   1.683 -2.6021  0.3946  0.5473
  245MOL0     H33061   5.256   6.930   2.064  0.5538 -2.2455 -2.0341
  245MOL0     H33062   5.491   6.886   2.068  1.4560 -0.4342 -1.3230
  245MOL0     H33063   5.860   6.848   2.042  0.6411  2.0494  0.3563
  245MOL0     H33064   6.075   6.748   2.059 -1.5758  0.6644  0.9773
  245MOL0     H33065   6.243   6.622   2.045  0.4622 -0.0111  0.7225
  245MOL0     H33066   6.396   6.619   1.982 -1.0718 -2.6432 -0.1070
  245MOL0     H33067   6.363   6.750   2.194  3.3197  0.9323 -0.2638
  245MOL0     H33068   6.246   6.855   2.117 -1.0145 -2.2081  1.0173
  245MOL0     H33069   6.445   6.978   2.110 -0.0743 -1.0721  1.4431
  245MOL0     H33070   6.406   6.940   1.951  1.2064  2.9594 -0.1503
  245MOL0     H33071   6.651   6.928   2.019  0.2477  0.0853 -0.6275
  245MOL0     H33072   6.602   6.777   1.948 -2.5051  0.2248 -1.1842
  245MOL0     H33073   6.670   6.688   2.375 -2.0693 -1.8634  0.6554
  245MOL0     H33074   6.163   6.820   1.638 -2.3659 -0.8269 -1.9195
  245MOL0     H33075   5.940   6.928   1.614 -2.1597 -0.2645 -0.0626
  246MOL0     O33076   1.117   6.445   8.921 -0.4256 -0.0831 -0.1226
  246MOL0     C33077   1.183   6.351   8.873 -0.2516  0.5767 -0.4112
  246MOL0     O33078   1.150   6.276   8.757 -0.5659 -0.5245  0.1604
  246MOL0     C33079   1.034   6.300   8.690 -0.2670  0.4669  0.1323
  246MOL0     C33080   0.972   6.430   8.665  0.3070 -0.1344 -0.5775
  246MOL0     C33081   0.858   6.443   8.581 -0.3926 -0.3583 -0.2894
  246MOL0     C33082   0.816   6.331   8.506  0.8037 -0.2939  0.2458
  246MOL0     O33083   0.714   6.360   8.420  0.3187  0.3570  0.1339
  246MOL0     C33084   0.656   6.259   8.343 -0.3511 -0.5098 -0.3618
  246MOL0     C33085   0.565   6.164   8.424 -0.0697 -0.0283 -0.2252
  246MOL0     C33086   0.474   6.066   8.344  0.4400 -0.6417  0.3709
  246MOL0     C33087   0.556   5.980   8.241 -0.2533  0.7472 -0.5657
  246MOL0     C33088   0.459   5.900   8.157  0.5988 -0.0735  0.0367
  246MOL0     C33089   0.389   5.806   8.258  0.2021 -0.5176 -0.3140
  246MOL0     C33090   0.314   5.700   8.189  0.7384  0.7222  0.3808
  246MOL0     C33091   0.164   5.723   8.180  0.0143 -1.0741 -0.7081
  246MOL0     N33092   0.118   5.833   8.095  0.0353 -0.0498 -0.1064
  246MOL0     C33093   0.157   5.848   7.963  0.0989 -0.5220 -0.2709
  246MOL0     C33094   0.124   5.974   7.928 -0.4336  0.5970 -0.2108
  246MOL0     C33095   0.147   6.029   7.784  0.2365  0.0564 -0.1691
  246MOL0     C33096   0.100   5.927   7.682 -0.1279  0.1852  0.6084
  246MOL0     C33097   0.109   5.980   7.534  0.5560 -0.4259  0.1113
  246MOL0     C33098   0.051   5.869   7.436 -0.3214 -0.6486 -0.2434
  246MOL0     O33099  -0.056   5.786   7.481  0.4174 -0.4170 -0.5989
  246MOL0     C33100  -0.185   5.830   7.481  0.1818 -0.7885 -0.5155
  246MOL0     C33101  -0.283   5.728   7.492  0.7533  0.5859  0.0686
  246MOL0     C33102  -0.426   5.753   7.490 -1.0978 -0.4788 -0.7008
  246MOL0     C33103  -0.521   5.645   7.473 -0.4884  0.2417  0.1094
  246MOL0     C33104  -0.473   5.885   7.498 -0.4389 -0.3231 -0.6324
  246MOL0     C33105  -0.616   5.922   7.511  0.9453  0.4698  0.3636
  246MOL0     O33106  -0.690   5.839   7.585  0.3440 -0.0352 -0.6821
  246MOL0     C33107  -0.809   5.893   7.642 -0.3646 -0.2623  0.4662
  246MOL0     C33108  -0.911   5.815   7.678 -0.2102 -0.3935  0.3976
  246MOL0     C33109  -1.035   5.873   7.710  0.0108  0.8243 -0.5067
  246MOL0     C33110  -1.052   6.007   7.734 -0.1140  0.6960  0.1939
  246MOL0     O33111  -1.179   6.039   7.781 -0.4250 -0.7054  0.0608
  246MOL0     C33112  -1.210   6.179   7.796  0.6196 -0.6630 -0.2566
  246MOL0     C33113  -1.351   6.168   7.846 -0.3526  1.1734  0.2694
  246MOL0     C33114  -1.419   6.302   7.864 -0.5458  0.0287  0.6380
  246MOL0     C33115  -1.495   6.337   7.736 -0.8010 -0.1398 -0.4267
  246MOL0     C33116  -1.545   6.484   7.747 -1.0111 -1.0556  1.2089
  246MOL0     C33117  -1.424   6.580   7.705 -0.2664 -0.4335  0.2197
  246MOL0     C33118  -1.483   6.704   7.645 -0.4941 -0.2743 -0.2484
  246MOL0     C33119  -1.374   6.794   7.605  0.1760 -0.1059  0.3174
  246MOL0    Cl33120  -1.245   6.825   7.734  0.0187 -0.0514  0.3008
  246MOL0     C33121  -0.951   6.088   7.705  0.6282 -0.2997 -0.0560
  246MOL0     C33122  -0.824   6.032   7.668 -0.3176 -0.4975 -0.2395
  246MOL0     O33123  -0.655   6.022   7.452 -0.7339  0.2646  0.1554
  246MOL0     C33124  -0.372   5.988   7.488  0.2549  0.3864 -0.2719
  246MOL0     C33125  -0.231   5.965   7.476  0.3435  0.6886  0.5927
  246MOL0     N33126   0.057   6.032   8.035 -0.3269 -0.2289 -0.0383
  246MOL0     N33127   0.048   5.945   8.127  0.8725 -0.0651  0.6258
  246MOL0     C33128   0.878   6.207   8.522  0.6634 -0.8612 -0.3031
  246MOL0     C33129   0.983   6.184   8.615 -0.1026  0.3393 -0.0300
  246MOL0     C33130   1.320   6.341   8.931  0.0172 -0.2150  0.1334
  246MOL0     C33131   1.351   6.376   9.063 -0.0096  0.5152 -0.3205
  246MOL0     C33132   1.487   6.370   9.110 -0.1840 -0.7769  0.0510
  246MOL0     C33133   1.590   6.325   9.029 -0.6745 -0.7191 -0.4349
  246MOL0     O33134   1.711   6.331   9.080  0.0682  0.4936 -0.1029
  246MOL0     C33135   1.771   6.457   9.110  0.8900  0.0489 -0.8488
  246MOL0     C33136   1.922   6.455   9.103  0.5381  0.7908  0.2133
  246MOL0     C33137   1.982   6.597   9.088 -0.5303  0.1808  0.6105
  246MOL0     C33138   1.945   6.667   8.958  0.0317  0.3533  0.4206
  246MOL0     C33139   2.056   6.701   8.869  1.1347 -0.7692  0.0638
  246MOL0     C33140   2.149   6.722   8.787 -0.1226 -0.4741 -0.0816
  246MOL0     C33141   1.565   6.279   8.896 -0.2756 -0.7592 -0.5643
  246MOL0     C33142   1.424   6.281   8.855 -0.6625 -1.1565  0.4402
  246MOL0     H33143   1.000   6.517   8.723  1.9709 -1.2446  0.3612
  246MOL0     H33144   0.796   6.532   8.573 -2.1245 -1.4625  0.4667
  246MOL0     H33145   0.604   6.303   8.258  1.4813  0.1549 -1.1882
  246MOL0     H33146   0.728   6.190   8.297 -0.5530  0.2405 -1.8678
  246MOL0     H33147   0.639   6.107   8.481  1.3789  1.1203 -0.8833
  246MOL0     H33148   0.499   6.227   8.485 -0.1202  1.7983 -2.0380
  246MOL0     H33149   0.415   6.010   8.417 -0.1436 -1.4894 -0.7216
  246MOL0     H33150   0.403   6.129   8.289  1.7605  0.3436 -0.2765
  246MOL0     H33151   0.621   6.046   8.183  1.8515  0.5581  1.4274
  246MOL0     H33152   0.627   5.917   8.296 -0.9783 -0.5679 -1.0730
  246MOL0     H33153   0.382   5.964   8.113 -0.3970 -0.4527  1.1427
  246MOL0     H33154   0.524   5.857   8.080  1.0870  0.3741  0.1960
  246MOL0     H33155   0.474   5.771   8.318  0.6249 -0.3921 -0.8391
  246MOL0     H33156   0.320   5.863   8.322  0.1632  0.0744 -0.8704
  246MOL0     H33157   0.366   5.675   8.096  0.0119 -2.4545  0.7181
  246MOL0     H33158   0.319   5.603   8.238  0.9095  1.0161  0.9489
  246MOL0     H33159   0.110   5.738   8.274  0.1059  2.2610 -1.0622
  246MOL0     H33160   0.116   5.637   8.133  0.1709 -0.9369 -1.1301
  246MOL0     H33161   0.186   5.761   7.905 -2.8580 -0.9414 -1.3163
  246MOL0     H33162   0.079   6.115   7.776  0.3707  0.3602  1.6432
  246MOL0     H33163   0.249   6.059   7.759  0.8355 -0.0342  1.9652
  246MOL0     H33164  -0.007   5.911   7.695 -0.6556  0.9896 -1.9939
  246MOL0     H33165   0.168   5.843   7.694  1.5053  1.5582  1.4506
  246MOL0     H33166   0.216   5.987   7.516  1.2259 -4.1899  1.7152
  246MOL0     H33167   0.054   6.074   7.521  1.6699  0.4647  1.5626
  246MOL0     H33168   0.138   5.806   7.417  0.8019  1.1058 -1.2379
  246MOL0     H33169   0.028   5.929   7.348  0.0898  0.5616  0.4517
  246MOL0     H33170  -0.236   5.630   7.494 -0.9572 -0.2528  1.0311
  246MOL0     H33171  -0.581   5.629   7.563  0.4072  3.9409  1.5372
  246MOL0     H33172  -0.596   5.679   7.401 -1.0977 -1.8280 -0.2943
  246MOL0     H33173  -0.468   5.551   7.454 -0.8648  0.0982 -0.2612
  246MOL0     H33174  -0.897   5.708   7.669 -0.9307 -0.5702  1.1667
  246MOL0     H33175  -1.118   5.805   7.729  0.5845  0.3925  0.5152
  246MOL0     H33176  -1.150   6.223   7.876  2.7465 -1.9489 -1.0312
  246MOL0     H33177  -1.209   6.239   7.705 -1.0888  1.5161  1.0875
  246MOL0     H33178  -1.405   6.103   7.776  2.2116 -1.3861  0.4884
  246MOL0     H33179  -1.349   6.109   7.938 -1.9541  1.0717  0.2829
  246MOL0     H33180  -1.340   6.373   7.889  0.2459  0.0247 -1.5856
  246MOL0     H33181  -1.486   6.300   7.951  0.9712 -0.7858  1.8272
  246MOL0     H33182  -1.431   6.333   7.647  1.4160  2.7967  0.8491
  246MOL0     H33183  -1.582   6.271   7.736 -1.6439  0.8942  1.2604
  246MOL0     H33184  -1.592   6.512   7.842  0.1578 -0.0137  1.5062
  246MOL0     H33185  -1.625   6.500   7.673 -0.1879  1.6569  0.8005
  246MOL0     H33186  -1.367   6.600   7.796 -1.4982  2.6481  0.4260
  246MOL0     H33187  -1.352   6.534   7.637 -0.2357 -0.4334  0.2516
  246MOL0     H33188  -1.544   6.739   7.729  3.6594 -0.6797  3.2658
  246MOL0     H33189  -1.546   6.692   7.556  1.9146 -0.6748 -1.9856
  246MOL0     H33190  -1.425   6.886   7.573 -1.4000 -0.7764  0.8327
  246MOL0     H33191  -1.329   6.754   7.513 -1.4369  1.1999 -1.1181
  246MOL0     H33192  -0.952   6.196   7.715  1.0710 -0.4892  2.6333
  246MOL0     H33193  -0.744   6.106   7.667  0.2294 -1.0548  0.8178
  246MOL0     H33194  -0.410   6.090   7.480 -0.4391  0.2522  0.9872
  246MOL0     H33195  -0.156   6.041   7.455  1.2110 -0.5767 -1.1284
  246MOL0     H33196   0.857   6.121   8.459 -1.5799  0.1894 -1.0855
  246MOL0     H33197   1.034   6.089   8.628 -0.8365 -0.2116 -1.0588
  246MOL0     H33198   1.270   6.416   9.122  0.3823 -1.9974  2.1426
  246MOL0     H33199   1.503   6.400   9.213  0.2097  0.8042 -0.4404
  246MOL0     H33200   1.738   6.539   9.045 -0.6533  0.7260  0.7165
  246MOL0     H33201   1.747   6.492   9.211  1.9425  0.5229 -0.7537
  246MOL0     H33202   1.948   6.403   9.011 -0.2517  1.2684 -0.2947
  246MOL0     H33203   1.978   6.410   9.186  0.1913  1.3167  0.7441
  246MOL0     H33204   2.087   6.575   9.108 -0.9849 -1.5104  1.2638
  246MOL0     H33205   1.944   6.667   9.164 -2.2603  0.7487 -0.7027
  246MOL0     H33206   1.890   6.753   8.997  0.6204 -0.3769  3.0855
  246MOL0     H33207   1.875   6.611   8.895  0.5227  0.6835 -0.4435
  246MOL0     H33208   2.212   6.723   8.701 -1.4998 -1.3365 -1.1501
  246MOL0     H33209   1.625   6.232   8.818 -2.5083 -1.9855 -1.6647
  246MOL0     H33210   1.409   6.224   8.764  0.7884 -3.3583  1.4775
  247MOL0     O33211  11.274   5.212   3.450 -0.0198  0.5374  0.4899
  247MOL0     C33212  11.272   5.246   3.570 -0.0433  0.1085  0.2999
  247MOL0     O33213  11.159   5.241   3.647 -0.2414 -0.3717 -0.9288
  247MOL0     C33214  11.039   5.230   3.577  0.7855 -0.0679 -0.2676
  247MOL0     C33215  10.961   5.110   3.595 -0.7576  0.0941 -0.9492
  247MOL0     C33216  10.834   5.104   3.529 -0.5469 -0.3302 -0.1019
  247MOL0     C33217  10.783   5.215   3.459  0.3409 -0.4998  0.8216
  247MOL0     O33218  10.656   5.217   3.401 -0.0652  0.1874  0.4174
  247MOL0     C33219  10.567   5.111   3.419  1.1177  0.4004 -0.1997
  247MOL0     C33220  10.441   5.129   3.326  0.0277 -0.4566  0.8903
  247MOL0     C33221  10.314   5.055   3.376  0.5575  0.3039  0.6383
  247MOL0     C33222  10.206   5.058   3.260 -0.1554  0.6837 -0.0609
  247MOL0     C33223  10.066   5.022   3.311 -0.2932  0.7701  0.0766
  247MOL0     C33224  10.005   5.141   3.378 -0.0219  0.4940  0.4558
  247MOL0     C33225   9.851   5.109   3.399  0.4192  0.2907  0.7934
  247MOL0     C33226   9.775   5.236   3.469 -1.3557  0.3857  0.3121
  247MOL0     N33227   9.633   5.227   3.471 -0.4520  0.4824  0.7256
  247MOL0     C33228   9.546   5.287   3.382 -0.5217 -0.6154  0.4312
  247MOL0     C33229   9.429   5.239   3.425 -0.4978  0.0605  0.2867
  247MOL0     C33230   9.306   5.264   3.346 -1.2161 -0.2912  0.3612
  247MOL0     C33231   9.318   5.208   3.204  0.0450  0.2055 -0.0350
  247MOL0     C33232   9.338   5.055   3.197  0.2988  0.3679 -0.2306
  247MOL0     C33233   9.293   5.018   3.054  0.0337  0.5467 -0.3190
  247MOL0     O33234   9.386   5.064   2.957 -0.4322 -0.2638  0.3394
  247MOL0     C33235   9.383   5.009   2.837  0.3615  0.0214  0.0382
  247MOL0     C33236   9.273   4.933   2.789 -0.7711 -0.7316  0.5204
  247MOL0     C33237   9.261   4.886   2.660  0.1049  0.6695 -0.2368
  247MOL0     C33238   9.143   4.799   2.622 -0.3691 -0.0092 -0.0459
  247MOL0     C33239   9.362   4.910   2.566 -1.1138 -0.1698  1.3265
  247MOL0     C33240   9.360   4.854   2.428 -0.2620  1.0051 -0.2249
  247MOL0     O33241   9.243   4.808   2.369  0.1851  0.1274  0.0992
  247MOL0     C33242   9.242   4.764   2.236  0.1765 -0.1661  0.3227
  247MOL0     C33243   9.334   4.799   2.134  0.9971 -0.2884 -0.6352
  247MOL0     C33244   9.320   4.761   2.004 -0.3118  0.4491  0.4040
  247MOL0     C33245   9.207   4.690   1.966  0.1081  0.2114  0.7946
  247MOL0     O33246   9.185   4.630   1.842 -0.0285  0.1269  0.0112
  247MOL0     C33247   9.275   4.660   1.737 -0.2284  1.4877  0.2995
  247MOL0     C33248   9.217   4.600   1.612  0.6278 -0.0662 -0.7585
  247MOL0     C33249   9.160   4.461   1.636  0.3040 -0.3317  0.2019
  247MOL0     C33250   9.126   4.397   1.499 -0.1297 -0.1700 -0.3594
  247MOL0     C33251   9.076   4.257   1.520  0.2164 -0.4274 -0.1350
  247MOL0     C33252   9.056   4.193   1.373 -0.1988  0.3613  0.2117
  247MOL0     C33253   9.195   4.135   1.328  0.9408  0.2605  0.4306
  247MOL0     C33254   9.192   4.080   1.183  0.9573 -0.2900 -0.4148
  247MOL0    Cl33255   9.348   4.033   1.129  0.0290  0.3597  0.4345
  247MOL0     C33256   9.105   4.663   2.060 -0.9536 -0.4800 -0.1180
  247MOL0     C33257   9.123   4.696   2.197  0.4574 -1.3503  0.8558
  247MOL0     O33258   9.475   4.837   2.386  0.3347 -0.0793 -0.6308
  247MOL0     C33259   9.470   4.987   2.612 -0.0224 -0.2964  0.4891
  247MOL0     C33260   9.485   5.029   2.739  0.6151  0.1594 -0.6723
  247MOL0     N33261   9.433   5.165   3.538  0.2627 -0.3087 -1.2232
  247MOL0     N33262   9.564   5.161   3.569  0.4810  0.2278  0.5688
  247MOL0     C33263  10.865   5.323   3.430  0.9896 -0.5630  0.9088
  247MOL0     C33264  10.982   5.330   3.503  0.0177 -0.1965  0.0655
  247MOL0     C33265  11.406   5.293   3.620 -0.7670 -0.2007 -0.5938
  247MOL0     C33266  11.419   5.368   3.743  0.6994 -0.1268  0.5019
  247MOL0     C33267  11.543   5.396   3.800 -0.2083  0.5297 -0.2553
  247MOL0     C33268  11.657   5.354   3.737  0.5313 -0.6685 -0.0741
  247MOL0     O33269  11.770   5.390   3.809  0.4198 -0.3993  0.6444
  247MOL0     C33270  11.898   5.349   3.760 -1.3269 -0.2257 -0.1993
  247MOL0     C33271  12.000   5.425   3.841 -0.0515 -0.1711 -0.3114
  247MOL0     C33272  12.036   5.573   3.805  0.1735  0.1075 -0.1427
  247MOL0     C33273  12.106   5.637   3.923 -0.8476 -0.1840  0.7955
  247MOL0     C33274  12.103   5.782   3.907  0.9507  0.4542 -0.5801
  247MOL0     C33275  12.109   5.902   3.876  0.2967 -0.2926 -0.0131
  247MOL0     C33276  11.645   5.267   3.626  0.4164  0.0329 -0.1729
  247MOL0     C33277  11.520   5.245   3.561  0.3773 -0.1960 -0.2730
  247MOL0     H33278  10.996   5.027   3.655  1.1266 -0.1456 -2.3122
  247MOL0     H33279  10.778   5.012   3.543  1.6889 -1.6185  1.0086
  247MOL0     H33280  10.603   5.010   3.396 -5.4968 -2.5220  0.0288
  247MOL0     H33281  10.542   5.104   3.525  0.2621 -0.0753 -0.4232
  247MOL0     H33282  10.415   5.236   3.328  0.9533 -0.2325  1.4340
  247MOL0     H33283  10.465   5.092   3.226  0.6415  2.7848 -0.2854
  247MOL0     H33284  10.332   4.950   3.399 -1.2609  0.2929  2.3431
  247MOL0     H33285  10.292   5.115   3.465 -1.8575  1.5284 -0.6754
  247MOL0     H33286  10.206   5.159   3.218  2.3065  1.3684  1.4359
  247MOL0     H33287  10.247   4.991   3.184 -0.3452 -0.8618  1.1678
  247MOL0     H33288  10.007   4.987   3.225  1.7582  0.0315 -1.1174
  247MOL0     H33289  10.072   4.941   3.385  4.6181  1.8014  1.1512
  247MOL0     H33290  10.052   5.161   3.475 -1.4910 -2.0516  1.8204
  247MOL0     H33291  10.003   5.229   3.314 -3.0345 -0.7022 -1.3176
  247MOL0     H33292   9.818   5.092   3.296 -0.2309 -0.8257  1.1633
  247MOL0     H33293   9.839   5.017   3.458  3.5274  0.2179  1.4631
  247MOL0     H33294   9.809   5.329   3.421  0.9489 -0.7037 -0.3043
  247MOL0     H33295   9.799   5.230   3.575  1.3000  0.7820 -0.2096
  247MOL0     H33296   9.574   5.342   3.294  0.0254 -3.0367 -1.0166
  247MOL0     H33297   9.228   5.210   3.400 -3.2301 -0.7675 -2.7588
  247MOL0     H33298   9.273   5.367   3.329 -1.2414 -0.5654 -1.4996
  247MOL0     H33299   9.394   5.269   3.155  0.1374  0.3437  0.2762
  247MOL0     H33300   9.224   5.230   3.152 -0.3419  0.8394  0.9073
  247MOL0     H33301   9.269   4.994   3.257  0.0562 -1.0282 -1.8565
  247MOL0     H33302   9.439   5.017   3.211 -0.4068 -1.8646 -0.6975
  247MOL0     H33303   9.186   5.042   3.047  0.0087  0.5216 -0.0192
  247MOL0     H33304   9.310   4.910   3.053  0.1598  0.5320  1.0525
  247MOL0     H33305   9.183   4.920   2.849 -1.3991 -0.7311 -0.4103
  247MOL0     H33306   9.192   4.707   2.592  1.4438  0.6289  0.8069
  247MOL0     H33307   9.095   4.766   2.715  1.2762  1.2376  1.3203
  247MOL0     H33308   9.074   4.842   2.549  0.3238  3.1112  0.9597
  247MOL0     H33309   9.418   4.864   2.157 -0.3944  1.2821  0.2072
  247MOL0     H33310   9.396   4.776   1.929  0.1397 -1.2530  0.4867
  247MOL0     H33311   9.281   4.769   1.726  1.4178  1.2120 -2.7193
  247MOL0     H33312   9.372   4.616   1.761 -0.5660  1.0436  0.8488
  247MOL0     H33313   9.131   4.661   1.583 -0.3024 -0.8078  0.3627
  247MOL0     H33314   9.301   4.595   1.542  1.1363  0.4963 -0.2118
  247MOL0     H33315   9.063   4.456   1.685  0.1098 -0.1080 -0.1577
  247MOL0     H33316   9.237   4.397   1.680  1.7507  1.5869  0.6016
  247MOL0     H33317   9.053   4.455   1.441  0.5609  2.0482  0.8925
  247MOL0     H33318   9.216   4.395   1.438 -0.5759  1.3339 -1.1114
  247MOL0     H33319   8.976   4.250   1.563  1.5429 -1.0706  3.1319
  247MOL0     H33320   9.128   4.192   1.591 -2.1553 -0.7193  1.4269
  247MOL0     H33321   8.987   4.109   1.382 -0.9285  1.0662  1.6482
  247MOL0     H33322   9.022   4.267   1.301 -4.1632 -1.7629 -0.3872
  247MOL0     H33323   9.217   4.058   1.403  1.2108  0.6319  0.7372
  247MOL0     H33324   9.267   4.218   1.329  1.8870 -0.5296  1.0317
  247MOL0     H33325   9.139   4.152   1.120  0.0054  0.0428  0.7277
  247MOL0     H33326   9.132   3.989   1.185 -2.1810  1.6231  0.5125
  247MOL0     H33327   9.015   4.621   2.018 -1.4046  1.8756 -1.7330
  247MOL0     H33328   9.039   4.684   2.265 -0.3879  0.8782  0.3163
  247MOL0     H33329   9.547   5.016   2.541  0.4042 -0.8821  0.7035
  247MOL0     H33330   9.580   5.073   2.768 -0.3377  0.1689  2.8951
  247MOL0     H33331  10.846   5.408   3.365 -0.3418 -2.6720 -1.6381
  247MOL0     H33332  11.034   5.425   3.502 -0.2099  0.0322  2.8401
  247MOL0     H33333  11.326   5.401   3.787 -0.0972 -0.2593 -1.0286
  247MOL0     H33334  11.545   5.469   3.880 -1.4175 -1.8151  2.0963
  247MOL0     H33335  11.911   5.241   3.774 -2.7339 -0.6383 -1.7484
  247MOL0     H33336  11.916   5.374   3.656  1.2983 -0.9584  0.0157
  247MOL0     H33337  12.091   5.373   3.870 -1.3737 -1.7287  1.2465
  247MOL0     H33338  11.956   5.443   3.940  3.1522  0.8891  1.0392
  247MOL0     H33339  11.948   5.630   3.775  1.2010  3.4510  2.6068
  247MOL0     H33340  12.108   5.569   3.723 -1.2722  0.7194 -1.4851
  247MOL0     H33341  12.207   5.596   3.927 -1.9834 -3.4083 -0.3901
  247MOL0     H33342  12.057   5.607   4.016 -0.8333  0.1849  0.9251
  247MOL0     H33343  12.118   6.007   3.855 -0.7400 -0.2951 -0.5565
  247MOL0     H33344  11.731   5.221   3.580  1.7419  3.9011 -2.0056
  247MOL0     H33345  11.523   5.182   3.473  2.0056  1.1697 -1.2715
  248MOL0     O33346   4.782   6.109   9.825  0.0449 -0.2094 -0.5043
  248MOL0     C33347   4.883   6.044   9.803 -0.2772 -0.4735 -0.4925
  248MOL0     O33348   4.902   5.964   9.689 -0.3003  0.6204 -0.4716
  248MOL0     C33349   4.810   5.953   9.589 -0.3342  0.8600  0.5513
  248MOL0     C33350   4.724   6.060   9.548  0.2554 -0.2798 -0.5923
  248MOL0     C33351   4.627   6.051   9.445 -0.1315  0.0383  0.8424
  248MOL0     C33352   4.615   5.929   9.378 -0.3054 -0.4439 -0.1183
  248MOL0     O33353   4.513   5.943   9.290 -0.8244  1.2472 -0.2247
  248MOL0     C33354   4.506   5.838   9.189 -0.7704 -0.6382 -0.1291
  248MOL0     C33355   4.450   5.893   9.054 -0.5732  0.0780 -0.2650
  248MOL0     C33356   4.513   6.025   9.002 -0.0427 -0.8691  0.4871
  248MOL0     C33357   4.448   6.072   8.872 -0.0891  0.7330  0.4083
  248MOL0     C33358   4.495   6.213   8.831 -0.4470 -0.9494  0.5370
  248MOL0     C33359   4.618   6.213   8.746 -0.5883 -0.3593 -0.9583
  248MOL0     C33360   4.666   6.350   8.728  0.0678 -0.8965  0.6154
  248MOL0     C33361   4.801   6.374   8.801 -0.1470  0.2357 -0.3917
  248MOL0     N33362   4.840   6.511   8.767 -0.2587 -0.6379  0.3491
  248MOL0     C33363   4.956   6.555   8.707 -1.1105 -0.2296 -0.5384
  248MOL0     C33364   4.938   6.690   8.709  0.0506 -0.6635 -0.0430
  248MOL0     C33365   5.049   6.777   8.658 -0.0138  0.1850  0.7338
  248MOL0     C33366   5.040   6.921   8.691  0.0161 -0.0892 -0.7006
  248MOL0     C33367   5.082   6.937   8.836 -0.8072 -0.1035 -0.1539
  248MOL0     C33368   5.073   7.090   8.881  0.3656 -0.5025  0.3394
  248MOL0     O33369   5.122   7.104   9.023 -0.2942  0.4659  0.3080
  248MOL0     C33370   5.255   7.131   9.036  0.0414  0.5999 -1.1452
  248MOL0     C33371   5.356   7.152   8.939 -0.5123 -0.5886 -0.3622
  248MOL0     C33372   5.489   7.183   8.975 -0.2783  0.0769 -0.5815
  248MOL0     C33373   5.586   7.205   8.859  0.2754 -0.4280 -0.0118
  248MOL0     C33374   5.530   7.184   9.112  0.8272  0.3072 -0.6832
  248MOL0     C33375   5.674   7.190   9.150  0.5887  0.2543  0.3022
  248MOL0     O33376   5.752   7.285   9.094 -0.5028 -0.1623 -0.8806
  248MOL0     C33377   5.886   7.282   9.137  0.0623  0.6145  0.9111
  248MOL0     C33378   5.971   7.174   9.104  0.2663 -0.0819  0.3870
  248MOL0     C33379   6.113   7.176   9.127 -0.8281 -0.3910 -0.4436
  248MOL0     C33380   6.166   7.286   9.193 -0.1684 -0.1643  0.1033
  248MOL0     O33381   6.301   7.284   9.215 -0.3747  0.5005 -0.0391
  248MOL0     C33382   6.380   7.306   9.100 -0.4816 -0.4209 -0.5355
  248MOL0     C33383   6.533   7.299   9.136  1.0863 -0.0561 -0.3442
  248MOL0     C33384   6.586   7.412   9.226  0.3730 -0.2408  0.3425
  248MOL0     C33385   6.744   7.418   9.218 -0.0307 -0.7474  0.0800
  248MOL0     C33386   6.807   7.529   9.298  0.3860  0.4542  0.2966
  248MOL0     C33387   6.960   7.505   9.296 -0.5801  0.3786  0.0026
  248MOL0     C33388   7.022   7.634   9.350 -0.4237  0.4031  1.1282
  248MOL0     C33389   7.177   7.618   9.333 -0.2051 -0.2826  0.8425
  248MOL0    Cl33390   7.248   7.782   9.363 -0.2415  0.1430 -0.4217
  248MOL0     C33391   6.086   7.392   9.233  0.2710 -0.4280  0.2750
  248MOL0     C33392   5.943   7.388   9.203 -0.7051  0.2814  0.3022
  248MOL0     O33393   5.705   7.120   9.249  0.6860  0.0878  0.5405
  248MOL0     C33394   5.427   7.162   9.203  0.2680 -0.5127 -0.3638
  248MOL0     C33395   5.293   7.149   9.166  0.3747  0.0308  0.2022
  248MOL0     N33396   4.821   6.732   8.762 -0.8335 -0.6023 -0.2906
  248MOL0     N33397   4.774   6.624   8.811 -0.2514 -0.1350  0.0808
  248MOL0     C33398   4.712   5.827   9.410  0.3823  0.4784  0.2151
  248MOL0     C33399   4.813   5.847   9.505  0.0318 -0.2488 -0.9551
  248MOL0     C33400   5.005   6.049   9.894  0.0067 -0.1734  0.5820
  248MOL0     C33401   5.132   6.013   9.855  0.4171 -0.2391  0.2439
  248MOL0     C33402   5.237   6.012   9.942 -0.7160 -0.2176 -0.2578
  248MOL0     C33403   5.215   6.055  10.072 -0.2576  0.0931 -0.9905
  248MOL0     O33404   5.310   6.049  10.174 -0.3295  0.0164  0.3935
  248MOL0     C33405   5.445   6.090  10.133 -0.5611 -0.5605 -0.2468
  248MOL0     C33406   5.514   6.135  10.262  0.2016  0.2341  0.1797
  248MOL0     C33407   5.662   6.117  10.256  0.5467  0.0501  0.0677
  248MOL0     C33408   5.733   6.170  10.375  0.4016 -0.2143  0.4499
  248MOL0     C33409   5.874   6.132  10.398  0.8329  0.9193  0.8538
  248MOL0     C33410   5.985   6.099  10.418 -0.2345  0.5502 -0.2822
  248MOL0     C33411   5.092   6.085  10.109  0.2451 -0.7664 -1.7452
  248MOL0     C33412   4.992   6.094  10.018  0.5805  0.2020  0.1670
  248MOL0     H33413   4.735   6.156   9.596 -1.5366 -0.3349  0.0242
  248MOL0     H33414   4.555   6.126   9.416 -3.0791 -1.8211  2.8574
  248MOL0     H33415   4.605   5.798   9.165 -0.1152  0.7667  0.0961
  248MOL0     H33416   4.436   5.763   9.225 -2.5879  1.7767  1.7717
  248MOL0     H33417   4.462   5.811   8.983 -2.2175 -0.0350 -0.4700
  248MOL0     H33418   4.342   5.912   9.059 -0.5481  0.2263 -0.2676
  248MOL0     H33419   4.514   6.104   9.078  3.5273  1.8395 -2.0213
  248MOL0     H33420   4.620   6.012   8.988  0.6107  4.5803 -2.1536
  248MOL0     H33421   4.472   6.005   8.789  0.7585  1.4230  0.0775
  248MOL0     H33422   4.339   6.071   8.885 -0.0122  0.6627  1.1066
  248MOL0     H33423   4.417   6.255   8.766  0.8123  0.2590 -0.2606
  248MOL0     H33424   4.517   6.272   8.920 -1.6389  0.3277  0.0290
  248MOL0     H33425   4.689   6.154   8.805 -0.3771  0.6352 -0.1927
  248MOL0     H33426   4.597   6.178   8.645 -0.0341  0.4240 -1.3582
  248MOL0     H33427   4.676   6.382   8.624  3.5043  2.4529  1.7254
  248MOL0     H33428   4.598   6.423   8.774 -1.2667 -3.5032  3.1247
  248MOL0     H33429   4.878   6.302   8.771 -2.7334 -3.3288  0.8526
  248MOL0     H33430   4.789   6.365   8.910  2.7911  2.5888  0.2482
  248MOL0     H33431   5.046   6.499   8.687  0.1328  1.4819 -0.0360
  248MOL0     H33432   5.144   6.731   8.687 -0.0578 -0.5752 -0.2801
  248MOL0     H33433   5.067   6.765   8.551  0.1300 -0.1013  0.7882
  248MOL0     H33434   4.936   6.953   8.679 -0.9950 -3.2963 -1.2321
  248MOL0     H33435   5.093   6.987   8.621 -1.2850  1.1051 -0.5983
  248MOL0     H33436   5.188   6.919   8.853 -0.3393  0.2829 -2.3322
  248MOL0     H33437   5.012   6.884   8.901 -1.9936 -0.3529 -1.5852
  248MOL0     H33438   4.973   7.135   8.878  1.5628  2.4419  1.0947
  248MOL0     H33439   5.128   7.148   8.806 -3.9595  2.3953 -0.9867
  248MOL0     H33440   5.334   7.159   8.833  0.3527  0.7936 -0.4665
  248MOL0     H33441   5.529   7.198   8.766 -0.5724 -0.0572  0.4706
  248MOL0     H33442   5.633   7.304   8.868  0.0200 -0.2767 -0.3419
  248MOL0     H33443   5.670   7.135   8.868  0.9487  0.0652 -1.8756
  248MOL0     H33444   5.927   7.100   9.038  0.3927  2.3710 -2.6758
  248MOL0     H33445   6.170   7.085   9.110  1.3310  0.7568  0.3475
  248MOL0     H33446   6.358   7.228   9.026  0.5671 -0.8975 -0.3622
  248MOL0     H33447   6.341   7.396   9.053 -1.3499  0.5624  1.9274
  248MOL0     H33448   6.554   7.201   9.178 -1.7451 -0.7098 -0.2639
  248MOL0     H33449   6.590   7.297   9.042 -0.5609 -2.2981 -1.3851
  248MOL0     H33450   6.557   7.383   9.328  2.3520 -0.3780  0.9070
  248MOL0     H33451   6.546   7.511   9.203  1.3341  1.2983  4.3964
  248MOL0     H33452   6.772   7.324   9.267 -0.3598 -0.3148  1.1479
  248MOL0     H33453   6.771   7.430   9.113  0.3137  1.7698  0.3969
  248MOL0     H33454   6.772   7.532   9.402 -1.2679  1.6405 -0.2673
  248MOL0     H33455   6.778   7.624   9.253  0.1669  1.4599  2.4157
  248MOL0     H33456   7.003   7.428   9.361  2.3147 -0.3957 -2.6022
  248MOL0     H33457   7.002   7.489   9.197 -0.4695  1.8893 -0.2017
  248MOL0     H33458   7.007   7.638   9.459  2.0474 -2.1523  1.6870
  248MOL0     H33459   6.976   7.715   9.293 -1.1722 -1.3421 -0.8945
  248MOL0     H33460   7.197   7.590   9.229  0.8846  3.2516 -0.0497
  248MOL0     H33461   7.231   7.548   9.398  1.6693 -0.3502 -0.7007
  248MOL0     H33462   6.131   7.480   9.279  0.0916 -1.0867  1.7372
  248MOL0     H33463   5.885   7.478   9.223 -1.2414  0.2499 -1.0130
  248MOL0     H33464   5.449   7.172   9.309  1.7356  0.6867 -0.7423
  248MOL0     H33465   5.220   7.146   9.245  1.9273 -1.8997  1.6643
  248MOL0     H33466   4.701   5.737   9.351 -0.2228 -0.2416  1.3904
  248MOL0     H33467   4.880   5.766   9.532 -0.0485 -0.6382 -1.8852
  248MOL0     H33468   5.159   5.980   9.755  3.3552 -2.0109  1.4899
  248MOL0     H33469   5.337   5.984   9.909  0.0610 -2.0178  3.2153
  248MOL0     H33470   5.504   6.010  10.088  1.4639 -0.2116  1.5777
  248MOL0     H33471   5.439   6.169  10.058  0.7546 -0.4122 -0.2239
  248MOL0     H33472   5.476   6.082  10.350 -2.5255  0.2716 -0.8599
  248MOL0     H33473   5.496   6.242  10.274 -1.0047 -0.1156  1.9183
  248MOL0     H33474   5.712   6.175  10.179  2.7037 -0.1218  1.2627
  248MOL0     H33475   5.676   6.009  10.250 -1.3548 -0.2959  0.9855
  248MOL0     H33476   5.674   6.144  10.463 -0.9895 -1.9379 -0.9065
  248MOL0     H33477   5.745   6.279  10.374  0.5809 -0.1852  2.4023
  248MOL0     H33478   6.084   6.062  10.430 -0.8694 -1.4013 -0.6789
  248MOL0     H33479   5.071   6.111  10.213  3.3375 -0.6270 -1.0757
  248MOL0     H33480   4.896   6.135  10.049 -0.4163 -2.7429  1.3401
  249MOL0     O33481   2.765   1.280   3.559  0.6845  0.7329 -0.6366
  249MOL0     C33482   2.775   1.380   3.488 -0.3249 -1.4181  0.0512
  249MOL0     O33483   2.707   1.408   3.379 -0.2336 -0.4533 -0.4356
  249MOL0     C33484   2.626   1.314   3.319  0.0459  0.4531 -0.4997
  249MOL0     C33485   2.637   1.298   3.183  0.3836 -0.1306  1.0545
  249MOL0     C33486   2.553   1.209   3.117 -0.0300 -0.3913 -0.0993
  249MOL0     C33487   2.463   1.122   3.191  0.0845  0.2924 -0.3809
  249MOL0     O33488   2.377   1.034   3.119 -0.3269 -0.5164 -0.1157
  249MOL0     C33489   2.279   0.955   3.188  0.4913  0.8752 -0.1423
  249MOL0     C33490   2.234   0.849   3.091 -0.8714  0.3385  0.5810
  249MOL0     C33491   2.127   0.898   2.993 -0.4060  0.2928  0.2195
  249MOL0     C33492   2.090   0.788   2.897 -0.1198  0.1106  0.6447
  249MOL0     C33493   2.193   0.761   2.786 -0.0136  0.1721 -0.8839
  249MOL0     C33494   2.164   0.623   2.722 -0.4753 -0.7162 -0.6286
  249MOL0     C33495   2.270   0.593   2.619 -0.0700  0.1425 -0.2282
  249MOL0     C33496   2.404   0.564   2.685 -0.4188  0.6870 -0.0340
  249MOL0     N33497   2.515   0.522   2.591  0.2266 -0.1553  0.6125
  249MOL0     C33498   2.494   0.480   2.457  0.6408  0.1999 -0.4052
  249MOL0     C33499   2.621   0.473   2.415  0.2847 -0.0679  0.3568
  249MOL0     C33500   2.661   0.471   2.270  0.4696  0.2482  0.8749
  249MOL0     C33501   2.597   0.353   2.184 -0.3501  0.7161 -0.5016
  249MOL0     C33502   2.483   0.401   2.092  0.7083 -0.3718  0.3877
  249MOL0     C33503   2.335   0.380   2.129 -0.0720 -0.1137 -0.5989
  249MOL0     O33504   2.252   0.442   2.032  0.0280  0.1018 -0.1110
  249MOL0     C33505   2.136   0.502   2.073 -0.7197 -0.9349  0.3426
  249MOL0     C33506   2.138   0.594   2.180 -0.0994 -0.2751  0.0328
  249MOL0     C33507   2.026   0.669   2.212 -1.0311  0.6737 -0.2281
  249MOL0     C33508   2.038   0.768   2.318  0.2990  0.3486  0.5063
  249MOL0     C33509   1.895   0.648   2.155 -0.1189 -0.3985 -0.6716
  249MOL0     C33510   1.763   0.705   2.193 -0.8736 -0.4292  0.1799
  249MOL0     O33511   1.673   0.735   2.099  0.7032  0.4913 -0.5279
  249MOL0     C33512   1.547   0.781   2.145 -0.2648 -0.7703  0.6959
  249MOL0     C33513   1.514   0.912   2.126  1.0999  0.3744  1.1265
  249MOL0     C33514   1.395   0.967   2.177  0.0665  0.2341 -0.2540
  249MOL0     C33515   1.320   0.885   2.263  0.5090  0.0118  0.3073
  249MOL0     O33516   1.210   0.942   2.318  0.2537  0.0851 -0.3954
  249MOL0     C33517   1.167   0.899   2.445  0.2036  0.3899  0.2583
  249MOL0     C33518   1.165   1.010   2.553 -0.3964 -0.0779 -0.1309
  249MOL0     C33519   1.303   1.069   2.595 -0.3021 -0.2480  0.1494
  249MOL0     C33520   1.370   1.169   2.498  0.2353  0.7237  0.2017
  249MOL0     C33521   1.315   1.313   2.510  0.1658  0.0925 -0.1759
  249MOL0     C33522   1.340   1.416   2.395  0.7221  0.3643 -0.6324
  249MOL0     C33523   1.486   1.441   2.373  0.1853 -0.3529 -0.1628
  249MOL0     C33524   1.527   1.526   2.253  0.3840 -0.4402 -0.1493
  249MOL0    Cl33525   1.426   1.668   2.253  0.2636 -0.3171 -0.1358
  249MOL0     C33526   1.352   0.751   2.279 -0.2999  0.5960 -0.3248
  249MOL0     C33527   1.463   0.695   2.212  0.5819 -0.2162 -0.5433
  249MOL0     O33528   1.741   0.709   2.316  0.1264 -0.6474 -0.0054
  249MOL0     C33529   1.895   0.554   2.054 -0.8257 -0.0576  0.4574
  249MOL0     C33530   2.009   0.483   2.012 -0.6693 -0.2892  0.7703
  249MOL0     N33531   2.715   0.499   2.520  0.3768 -0.2948  0.0658
  249MOL0     N33532   2.648   0.528   2.625  0.4620 -0.6552 -0.2752
  249MOL0     C33533   2.472   1.130   3.334 -0.0971  0.2664 -0.1484
  249MOL0     C33534   2.553   1.226   3.395  0.4622  0.9435  0.4544
  249MOL0     C33535   2.853   1.487   3.558 -0.2936  0.6359 -0.3462
  249MOL0     C33536   2.911   1.463   3.680  0.6309  0.0673 -0.2239
  249MOL0     C33537   2.971   1.568   3.750 -0.2504 -1.0508 -0.4133
  249MOL0     C33538   2.989   1.700   3.695 -0.1459  1.0972  0.2727
  249MOL0     O33539   3.057   1.800   3.757  0.2434 -0.4771  0.6796
  249MOL0     C33540   3.150   1.757   3.865 -0.8538 -0.0358  0.5222
  249MOL0     C33541   3.279   1.834   3.841  0.4512  0.2674 -0.5032
  249MOL0     C33542   3.383   1.835   3.964 -0.4612 -0.6581  0.7092
  249MOL0     C33543   3.311   1.867   4.095  0.0658  0.3596  0.6949
  249MOL0     C33544   3.404   1.882   4.205 -0.2202 -0.2166 -0.3859
  249MOL0     C33545   3.488   1.904   4.292 -0.3940 -0.4181 -0.0205
  249MOL0     C33546   2.922   1.725   3.578  1.1287 -0.0450 -0.7770
  249MOL0     C33547   2.855   1.618   3.509 -0.3589 -0.3601 -0.0087
  249MOL0     H33548   2.692   1.378   3.134 -1.3601  0.4833  0.0043
  249MOL0     H33549   2.569   1.197   3.010  3.3330  2.6417 -0.1093
  249MOL0     H33550   2.329   0.907   3.272  2.5565  1.4626 -0.9714
  249MOL0     H33551   2.193   1.008   3.232 -0.0895  1.2749 -1.6764
  249MOL0     H33552   2.323   0.819   3.036 -0.2057  0.7670  1.4022
  249MOL0     H33553   2.200   0.763   3.150 -2.3496  0.9327  0.6362
  249MOL0     H33554   2.033   0.913   3.048  0.1226  0.6742  1.0448
  249MOL0     H33555   2.161   0.983   2.933 -0.8870  1.1862  1.1811
  249MOL0     H33556   2.068   0.697   2.954  0.0097 -1.4346 -1.6492
  249MOL0     H33557   2.002   0.816   2.838  1.4436  0.4566 -1.6705
  249MOL0     H33558   2.206   0.841   2.712 -1.7164  0.4935 -0.8809
  249MOL0     H33559   2.292   0.752   2.832  0.1172  1.7566 -0.7698
  249MOL0     H33560   2.157   0.542   2.795 -0.4080 -2.1377 -2.1314
  249MOL0     H33561   2.071   0.627   2.664 -0.7737  1.3576 -0.0967
  249MOL0     H33562   2.241   0.499   2.571 -1.7572  1.6365 -2.2967
  249MOL0     H33563   2.289   0.671   2.544  1.1076 -0.5067 -0.6433
  249MOL0     H33564   2.401   0.500   2.774  0.7302  3.2399  1.9790
  249MOL0     H33565   2.455   0.654   2.721  0.5625  1.4653 -3.0289
  249MOL0     H33566   2.399   0.467   2.406 -0.6662  2.6763  1.2099
  249MOL0     H33567   2.642   0.569   2.226  0.1578 -1.7722 -4.0919
  249MOL0     H33568   2.770   0.459   2.268  0.3308 -1.4384  1.6099
  249MOL0     H33569   2.572   0.263   2.242 -0.7851 -1.1316 -3.3451
  249MOL0     H33570   2.672   0.314   2.114  0.6771 -2.3412  2.0670
  249MOL0     H33571   2.495   0.346   1.998  0.0493  0.6214 -0.3082
  249MOL0     H33572   2.480   0.507   2.067 -0.8876 -0.3450  0.5996
  249MOL0     H33573   2.320   0.430   2.226 -0.7690  1.2927 -1.3950
  249MOL0     H33574   2.307   0.275   2.143  0.8421 -0.3721 -0.6604
  249MOL0     H33575   2.233   0.616   2.226  0.0185 -0.0165 -0.3290
  249MOL0     H33576   1.993   0.865   2.294  2.1859  1.3309  0.6561
  249MOL0     H33577   1.976   0.727   2.397 -1.3004 -3.1478 -2.2785
  249MOL0     H33578   2.143   0.775   2.350 -0.2606 -0.3846  2.6018
  249MOL0     H33579   1.569   0.972   2.054 -1.9966  3.7913  1.3380
  249MOL0     H33580   1.357   1.064   2.148 -1.0046  0.5262  1.9246
  249MOL0     H33581   1.061   0.872   2.440  0.5758 -2.2667  3.5475
  249MOL0     H33582   1.225   0.821   2.494  0.8053  0.8030  0.2108
  249MOL0     H33583   1.110   1.095   2.512  0.7737  0.9279  0.3380
  249MOL0     H33584   1.121   0.974   2.646 -1.2127  0.7182 -0.1958
  249MOL0     H33585   1.370   0.984   2.614 -1.8131 -0.9957  2.5343
  249MOL0     H33586   1.292   1.111   2.695  2.3614  1.9878 -0.3909
  249MOL0     H33587   1.477   1.165   2.520  0.0429 -1.5649  1.0729
  249MOL0     H33588   1.351   1.131   2.398 -4.2395 -0.8083  1.3892
  249MOL0     H33589   1.361   1.351   2.602  1.0056 -1.5947  0.1314
  249MOL0     H33590   1.208   1.312   2.533  0.6829  0.6998  2.7194
  249MOL0     H33591   1.287   1.377   2.308  1.7601 -0.0794 -1.0789
  249MOL0     H33592   1.292   1.512   2.416  2.1700  1.0179 -0.1593
  249MOL0     H33593   1.539   1.345   2.367 -0.3610 -0.6075 -1.2580
  249MOL0     H33594   1.517   1.491   2.465 -0.4717 -1.3035  0.5926
  249MOL0     H33595   1.513   1.473   2.158  2.2584  0.7698 -1.1569
  249MOL0     H33596   1.635   1.535   2.249  0.7594 -3.5799  0.0842
  249MOL0     H33597   1.290   0.689   2.343  0.0936  0.4730 -0.0582
  249MOL0     H33598   1.481   0.589   2.223 -2.0764 -0.8323 -1.3441
  249MOL0     H33599   1.799   0.527   2.013  0.1575 -3.1806 -0.0543
  249MOL0     H33600   2.005   0.411   1.931  2.2555  1.5721 -1.2376
  249MOL0     H33601   2.399   1.080   3.396 -1.8993 -0.6533 -2.8091
  249MOL0     H33602   2.541   1.228   3.503  0.2095 -3.5779  0.7045
  249MOL0     H33603   2.911   1.362   3.720 -0.1954 -1.8632 -4.5399
  249MOL0     H33604   3.012   1.545   3.848  0.5809 -0.9521 -0.7235
  249MOL0     H33605   3.103   1.775   3.962 -1.0508  1.4429  0.1791
  249MOL0     H33606   3.192   1.656   3.864  0.8125  0.6174  0.7010
  249MOL0     H33607   3.244   1.936   3.823 -2.7577 -0.8748 -1.4287
  249MOL0     H33608   3.335   1.808   3.751  3.7227 -3.2456  2.2044
  249MOL0     H33609   3.441   1.925   3.940 -1.4107  0.5297  2.6196
  249MOL0     H33610   3.448   1.747   3.969  0.0068 -0.2945  1.1190
  249MOL0     H33611   3.248   1.785   4.127  0.6058 -0.8877 -1.2570
  249MOL0     H33612   3.253   1.959   4.082 -2.2351 -1.1943 -0.5083
  249MOL0     H33613   3.560   1.919   4.370 -1.6030 -2.6751  1.6287
  249MOL0     H33614   2.927   1.827   3.541 -0.1158  1.2319  2.2639
  249MOL0     H33615   2.821   1.650   3.411  1.0906  1.9125  0.1587
  250MOL0     O33616  10.550   8.609  10.193 -0.0508  0.5122  0.9711
  250MOL0     C33617  10.534   8.491  10.219  0.5836 -0.1002 -0.0866
  250MOL0     O33618  10.421   8.439  10.282  0.2988 -0.9215 -0.1587
  250MOL0     C33619  10.300   8.511  10.280 -0.7683 -1.1211  0.1909
  250MOL0     C33620  10.194   8.473  10.200  0.0543 -0.4700  0.5505
  250MOL0     C33621  10.075   8.539  10.195  0.0985 -0.4903  0.3577
  250MOL0     C33622  10.065   8.649  10.284 -0.0876  0.4321  1.7758
  250MOL0     O33623   9.950   8.715  10.315  0.0067  0.4453 -0.1983
  250MOL0     C33624   9.831   8.650  10.288  1.0938 -0.7222  0.6056
  250MOL0     C33625   9.723   8.752  10.291 -0.0163 -0.2761  0.4409
  250MOL0     C33626   9.741   8.857  10.175 -0.1794 -0.3520 -0.1482
  250MOL0     C33627   9.647   8.974  10.199  0.3330  0.6109 -0.7264
  250MOL0     C33628   9.678   9.083  10.096 -0.4497 -0.1682 -1.1150
  250MOL0     C33629   9.597   9.209  10.101  0.3059 -0.3828 -0.2077
  250MOL0     C33630   9.655   9.327  10.020  0.1788 -1.0182  0.8662
  250MOL0     C33631   9.590   9.461  10.055 -0.5091 -0.1713 -0.1017
  250MOL0     N33632   9.451   9.465  10.015 -0.6652 -0.5149 -0.5844
  250MOL0     C33633   9.398   9.432   9.893 -0.0250 -0.0541  0.5512
  250MOL0     C33634   9.260   9.445   9.923  1.2258 -0.3184 -0.0102
  250MOL0     C33635   9.152   9.424   9.820 -0.1269  0.2562  0.5335
  250MOL0     C33636   9.021   9.498   9.852  1.0584  0.1266  0.0383
  250MOL0     C33637   9.025   9.654   9.860  1.3606 -0.1689 -0.4758
  250MOL0     C33638   8.891   9.720   9.808 -0.3797  1.3791 -0.0313
  250MOL0     O33639   8.896   9.723   9.671 -0.9872 -0.7528 -0.3989
  250MOL0     C33640   8.784   9.681   9.606  0.3833 -1.0997 -0.2974
  250MOL0     C33641   8.661   9.744   9.616 -0.6446 -1.3296 -1.2790
  250MOL0     C33642   8.550   9.706   9.541  0.5461 -0.1847  1.0883
  250MOL0     C33643   8.433   9.793   9.548  0.1146 -0.8026 -0.0472
  250MOL0     C33644   8.567   9.586   9.466  0.2611  0.0000 -0.4634
  250MOL0     C33645   8.447   9.525   9.391 -0.5195 -0.5830 -0.1277
  250MOL0     O33646   8.324   9.575   9.396  0.1551 -0.2859  0.3974
  250MOL0     C33647   8.213   9.521   9.332  0.7762  0.5697  0.6415
  250MOL0     C33648   8.189   9.385   9.367  0.4013  0.4493  0.4092
  250MOL0     C33649   8.074   9.329   9.314  1.2994  0.3169  1.2586
  250MOL0     C33650   7.985   9.399   9.226  0.1650  0.2162  0.0981
  250MOL0     O33651   7.878   9.326   9.184 -0.6521 -0.4709 -0.0310
  250MOL0     C33652   7.760   9.401   9.148  0.3522  1.1023  0.1147
  250MOL0     C33653   7.701   9.497   9.256  0.7012  0.6108 -0.6329
  250MOL0     C33654   7.600   9.599   9.200  0.1722 -0.3346 -0.0421
  250MOL0     C33655   7.642   9.723   9.113 -0.2567 -0.2938  0.1116
  250MOL0     C33656   7.522   9.811   9.083  0.4318  1.7851  0.8495
  250MOL0     C33657   7.437   9.762   8.958 -0.4240 -0.3768  0.7513
  250MOL0     C33658   7.353   9.875   8.898  0.0911 -0.0048 -0.2994
  250MOL0     C33659   7.239   9.939   8.980 -0.1561  0.2566 -0.5739
  250MOL0    Cl33660   7.128   9.818   9.044 -0.0450 -0.2261 -0.0989
  250MOL0     C33661   8.025   9.528   9.191  0.4551  0.5294  0.2060
  250MOL0     C33662   8.134   9.591   9.251  0.3870 -0.2385  0.1121
  250MOL0     O33663   8.483   9.429   9.318  0.3319 -0.4611  0.8967
  250MOL0     C33664   8.689   9.523   9.453 -0.2997 -0.9449  1.0739
  250MOL0     C33665   8.798   9.572   9.518 -0.1864  0.0961 -0.0414
  250MOL0     N33666   9.238   9.474  10.054 -0.0957 -0.4386  0.1848
  250MOL0     N33667   9.355   9.495  10.107 -0.5441 -0.1828  0.6854
  250MOL0     C33668  10.164   8.695  10.367 -0.2426  0.9152  0.1899
  250MOL0     C33669  10.286   8.620  10.367 -0.0903  0.2893 -0.6813
  250MOL0     C33670  10.642   8.397  10.197  0.4190  0.0142 -0.5111
  250MOL0     C33671  10.765   8.435  10.145  0.4844 -0.1305 -0.5729
  250MOL0     C33672  10.866   8.345  10.118 -0.4156  0.4633 -0.5772
  250MOL0     C33673  10.853   8.212  10.157  0.7709  0.0181  0.4907
  250MOL0     O33674  10.948   8.115  10.137 -0.0194 -0.3594  0.0538
  250MOL0     C33675  11.087   8.156  10.085 -0.0197 -0.5863  1.4136
  250MOL0     C33676  11.173   8.036  10.042  0.1291 -0.5483 -0.1555
  250MOL0     C33677  11.266   8.068   9.931 -1.2966  0.1268  0.1299
  250MOL0     C33678  11.323   7.936   9.879 -0.1639  0.4349  0.4720
  250MOL0     C33679  11.407   7.871   9.976  0.0128 -0.8162 -0.4062
  250MOL0     C33680  11.496   7.842  10.058  0.1664 -0.3448 -0.8192
  250MOL0     C33681  10.723   8.168  10.203 -0.1374  0.4061 -0.1342
  250MOL0     C33682  10.620   8.258  10.214  0.0647  0.1579 -0.2603
  250MOL0     H33683  10.218   8.389  10.135 -0.4285 -1.5372  1.6979
  250MOL0     H33684   9.999   8.513  10.122 -0.4467  0.5516  0.5407
  250MOL0     H33685   9.830   8.591  10.196  0.4835 -0.5830  0.5194
  250MOL0     H33686   9.810   8.585  10.374 -0.6020  1.4688  1.9586
  250MOL0     H33687   9.628   8.700  10.276 -0.4901  1.0948 -1.7987
  250MOL0     H33688   9.738   8.810  10.383  3.9984 -0.2433 -0.0660
  250MOL0     H33689   9.845   8.889  10.184  0.7305 -3.3674  1.4136
  250MOL0     H33690   9.716   8.815  10.077 -4.0824  1.4963 -0.1349
  250MOL0     H33691   9.539   8.955  10.203 -0.0349  2.5452  1.9115
  250MOL0     H33692   9.673   8.997  10.303 -0.1778 -1.1245 -0.1822
  250MOL0     H33693   9.781   9.115  10.112 -1.2537  1.8510  0.4586
  250MOL0     H33694   9.662   9.044   9.995  3.6615  1.2492 -2.4936
  250MOL0     H33695   9.501   9.179  10.058  0.5682  0.8854 -1.8017
  250MOL0     H33696   9.586   9.234  10.207  1.6934  0.8168 -0.3222
  250MOL0     H33697   9.763   9.337  10.038  0.3819 -1.1126 -0.2146
  250MOL0     H33698   9.640   9.306   9.913  0.2639  1.3085  0.3348
  250MOL0     H33699   9.644   9.538   9.999  1.6823 -0.0620  2.0095
  250MOL0     H33700   9.592   9.477  10.163  0.0141  1.6463 -0.3382
  250MOL0     H33701   9.447   9.396   9.804 -0.1459  2.1763 -0.4782
  250MOL0     H33702   9.190   9.467   9.727 -1.5837  1.4384  0.4477
  250MOL0     H33703   9.122   9.319   9.811 -2.2573  0.7478  1.3233
  250MOL0     H33704   8.980   9.455   9.944 -1.4524  2.8875  0.3699
  250MOL0     H33705   8.936   9.474   9.786 -0.5349  3.8523  0.4721
  250MOL0     H33706   9.109   9.690   9.801  0.2354  0.6278 -1.6454
  250MOL0     H33707   9.042   9.682   9.965 -0.8452  0.3750 -0.2188
  250MOL0     H33708   8.872   9.821   9.846 -2.0436  1.2883 -0.5029
  250MOL0     H33709   8.811   9.655   9.846  0.3695  0.8446  0.6659
  250MOL0     H33710   8.659   9.833   9.677  3.6341  1.3602 -4.4628
  250MOL0     H33711   8.394   9.805   9.447 -2.5056 -0.4524  0.9211
  250MOL0     H33712   8.360   9.733   9.603 -3.2209  1.4886 -1.6429
  250MOL0     H33713   8.460   9.883   9.604 -1.3765 -0.5534  0.3112
  250MOL0     H33714   8.249   9.331   9.439 -2.6500 -1.3059  1.8262
  250MOL0     H33715   8.037   9.228   9.326  2.8563 -0.6445 -1.1300
  250MOL0     H33716   7.773   9.458   9.056 -2.2819  0.5785 -0.6538
  250MOL0     H33717   7.684   9.329   9.117 -1.0237  3.6898 -2.9678
  250MOL0     H33718   7.672   9.433   9.339 -0.1902 -0.6951 -1.9136
  250MOL0     H33719   7.780   9.557   9.303  2.4293 -2.3598  0.4929
  250MOL0     H33720   7.566   9.638   9.296  1.4764 -2.0876  1.2034
  250MOL0     H33721   7.518   9.545   9.152  1.0989  0.8565 -3.2289
  250MOL0     H33722   7.726   9.772   9.165  1.4133 -1.7466 -1.1145
  250MOL0     H33723   7.685   9.690   9.019 -0.9033  0.5212 -0.4895
  250MOL0     H33724   7.560   9.912   9.071 -1.7939  2.7401  1.3399
  250MOL0     H33725   7.457   9.828   9.169 -1.4943  2.3133 -0.6535
  250MOL0     H33726   7.508   9.738   8.878  0.0438 -0.5716  1.2199
  250MOL0     H33727   7.368   9.682   8.988 -1.1960  1.6212  5.1090
  250MOL0     H33728   7.290   9.835   8.817 -1.4482 -3.0191  2.1875
  250MOL0     H33729   7.415   9.960   8.866 -1.1640  1.4735  1.0604
  250MOL0     H33730   7.187  10.014   8.919  0.2306  0.2914 -0.8630
  250MOL0     H33731   7.286   9.989   9.065  1.1591 -0.5175 -0.8231
  250MOL0     H33732   7.972   9.581   9.113  0.0470  1.5832  1.1846
  250MOL0     H33733   8.154   9.696   9.232  0.5693 -0.4942 -1.1874
  250MOL0     H33734   8.702   9.432   9.396  2.5550 -1.9587  3.1165
  250MOL0     H33735   8.900   9.533   9.510 -0.3457 -0.3722  0.1437
  250MOL0     H33736  10.142   8.788  10.418  0.3286  1.6439 -0.8457
  250MOL0     H33737  10.377   8.647  10.420 -0.1132 -3.5385  1.6568
  250MOL0     H33738  10.783   8.539  10.120  1.1292 -0.2483 -0.5984
  250MOL0     H33739  10.950   8.374  10.055  1.3765 -0.7587  1.1520
  250MOL0     H33740  11.058   8.213   9.996 -1.5377 -2.3291  0.7188
  250MOL0     H33741  11.141   8.233  10.140 -1.4653  3.1847 -1.9222
  250MOL0     H33742  11.113   7.949  10.013  1.6631 -2.3897  1.7952
  250MOL0     H33743  11.219   8.005  10.137 -0.0008 -1.2693 -0.3173
  250MOL0     H33744  11.347   8.130   9.971  0.0897 -2.2619  1.2575
  250MOL0     H33745  11.221   8.122   9.847 -0.9546 -0.4783 -0.4554
  250MOL0     H33746  11.395   7.954   9.799 -0.0210 -1.3485  0.1435
  250MOL0     H33747  11.247   7.866   9.843  0.2156 -0.0302  0.5634
  250MOL0     H33748  11.589   7.835  10.111 -2.0454 -0.5525  3.3859
  250MOL0     H33749  10.716   8.060  10.211 -2.2121  0.5449  0.5002
  250MOL0     H33750  10.521   8.222  10.240  1.2637 -3.7071 -0.4227
  251MOL0     O33751   9.002   0.039   8.139 -0.7940  0.4313  0.7835
  251MOL0     C33752   9.010  -0.081   8.158  0.1354  0.0312  0.3333
  251MOL0     O33753   8.951  -0.176   8.084  0.6171  0.6722 -1.3177
  251MOL0     C33754   8.868  -0.146   7.980 -0.0672 -0.8145  0.2450
  251MOL0     C33755   8.739  -0.193   7.993  0.1786  0.8860  0.0742
  251MOL0     C33756   8.638  -0.173   7.897 -0.6319  0.1277  0.1871
  251MOL0     C33757   8.662  -0.085   7.791 -0.3442 -0.2593  0.1819
  251MOL0     O33758   8.574  -0.040   7.697  0.3415  0.4489 -0.0701
  251MOL0     C33759   8.429  -0.037   7.731 -0.3820  0.1502  1.5976
  251MOL0     C33760   8.367   0.014   7.596  0.4434  0.7135 -0.6566
  251MOL0     C33761   8.217   0.010   7.604  0.5166 -0.7110 -0.0521
  251MOL0     C33762   8.159   0.086   7.477 -0.5581 -0.6889  0.0416
  251MOL0     C33763   8.009   0.096   7.483  0.0721 -0.4153  0.2563
  251MOL0     C33764   7.944   0.196   7.383 -0.1386 -0.3310  0.3395
  251MOL0     C33765   7.795   0.186   7.389 -0.8495 -1.2927  0.1923
  251MOL0     C33766   7.717   0.299   7.314 -0.6505 -0.3203  0.4930
  251MOL0     N33767   7.577   0.327   7.355  0.0468 -0.0645  0.5420
  251MOL0     C33768   7.478   0.231   7.369 -0.1473  0.8145  0.7844
  251MOL0     C33769   7.354   0.294   7.372  0.0282 -0.7553 -0.2095
  251MOL0     C33770   7.217   0.220   7.374  0.4933  0.0772  0.2611
  251MOL0     C33771   7.104   0.311   7.417 -0.3174  1.0870  0.0283
  251MOL0     C33772   6.969   0.233   7.415  0.8153  0.5162 -0.2779
  251MOL0     C33773   6.861   0.330   7.473  0.5707 -0.5437 -1.4524
  251MOL0     O33774   6.728   0.282   7.473  0.3994  0.1522 -0.2750
  251MOL0     C33775   6.638   0.344   7.557  0.9498 -0.5612 -0.5528
  251MOL0     C33776   6.653   0.467   7.630 -0.5690 -0.4483  0.1511
  251MOL0     C33777   6.552   0.522   7.711 -0.7960  0.2912 -0.2172
  251MOL0     C33778   6.583   0.638   7.802 -0.4143  0.0319  0.2534
  251MOL0     C33779   6.426   0.465   7.709 -0.4354 -0.1324  0.2391
  251MOL0     C33780   6.316   0.525   7.779  0.0017  0.4459 -0.1842
  251MOL0     O33781   6.236   0.434   7.848  0.2124  0.2023 -0.3606
  251MOL0     C33782   6.119   0.484   7.907 -0.0761 -0.3133  0.5561
  251MOL0     C33783   6.113   0.541   8.042 -0.6158  1.1679  0.3607
  251MOL0     C33784   5.987   0.561   8.101 -0.2658 -0.8536 -0.7037
  251MOL0     C33785   5.866   0.547   8.032  0.0595  0.3701  1.3903
  251MOL0     O33786   5.739   0.584   8.081  0.7241  0.7323 -0.5736
  251MOL0     C33787   5.715   0.597   8.224 -0.1635  0.1942 -1.1544
  251MOL0     C33788   5.566   0.611   8.260  0.0597 -0.3803 -0.0878
  251MOL0     C33789   5.483   0.708   8.169  0.2122  0.0572  0.2063
  251MOL0     C33790   5.541   0.851   8.152  0.3790 -0.2815 -1.1741
  251MOL0     C33791   5.462   0.932   8.048  0.2552 -0.1693 -0.9964
  251MOL0     C33792   5.326   0.980   8.109  0.2055 -0.0189 -0.5526
  251MOL0     C33793   5.272   1.068   7.997 -0.2811  0.4086 -0.4525
  251MOL0     C33794   5.153   1.148   8.044  0.2013  0.1633 -0.7237
  251MOL0    Cl33795   5.116   1.272   7.918 -0.4035  0.0404  0.1935
  251MOL0     C33796   5.869   0.496   7.901  0.5262  0.2190  0.1428
  251MOL0     C33797   5.989   0.454   7.848 -0.2440 -0.3245 -0.2576
  251MOL0     O33798   6.292   0.643   7.766  0.2232  1.4960  0.2305
  251MOL0     C33799   6.404   0.337   7.649  0.0192  0.9125  0.2249
  251MOL0     C33800   6.512   0.286   7.568 -0.8023 -0.1256  0.6856
  251MOL0     N33801   7.384   0.432   7.362  0.6323  1.1873  0.2190
  251MOL0     N33802   7.514   0.446   7.357  0.5980  0.5908 -0.5819
  251MOL0     C33803   8.797  -0.035   7.780  1.3508 -0.3302 -0.4959
  251MOL0     C33804   8.900  -0.068   7.871 -0.0128  0.4756 -0.0410
  251MOL0     C33805   9.080  -0.116   8.282  0.2636  0.6062  0.3694
  251MOL0     C33806   9.117  -0.020   8.381 -0.5418  0.7332  0.0472
  251MOL0     C33807   9.178  -0.041   8.506 -0.2467  0.1138  0.4813
  251MOL0     C33808   9.204  -0.169   8.537  0.1786 -0.1444 -1.0447
  251MOL0     O33809   9.272  -0.199   8.659 -0.6749 -0.0834 -0.8643
  251MOL0     C33810   9.260  -0.332   8.716  0.5822  0.8315 -0.3003
  251MOL0     C33811   9.291  -0.329   8.870 -0.8939  0.5811  0.5399
  251MOL0     C33812   9.236  -0.201   8.947  0.5253  0.5407 -0.4030
  251MOL0     C33813   9.230  -0.234   9.095  0.3167 -0.9554  0.3045
  251MOL0     C33814   9.194  -0.115   9.175 -0.3330 -0.0074  0.1512
  251MOL0     C33815   9.154  -0.019   9.235  0.1205 -0.4896 -0.1054
  251MOL0     C33816   9.166  -0.264   8.448 -0.7477  0.5951 -0.1082
  251MOL0     C33817   9.101  -0.248   8.322 -0.3204  0.5517  0.4483
  251MOL0     H33818   8.723  -0.280   8.056  0.2718 -0.1998 -1.3505
  251MOL0     H33819   8.550  -0.236   7.904 -0.7441  0.1361 -0.9260
  251MOL0     H33820   8.392  -0.137   7.756 -0.7823  0.0241  0.5457
  251MOL0     H33821   8.413   0.041   7.806 -1.2376 -0.4027  2.0027
  251MOL0     H33822   8.399   0.113   7.564  0.3072  1.2822  0.8830
  251MOL0     H33823   8.401  -0.056   7.519  0.0619 -1.2554  0.8571
  251MOL0     H33824   8.183  -0.093   7.605  1.2279 -0.9609 -0.4021
  251MOL0     H33825   8.176   0.069   7.687  0.8466  0.1914 -0.5085
  251MOL0     H33826   8.193   0.189   7.464 -0.7390 -0.9710 -4.5212
  251MOL0     H33827   8.181   0.032   7.384 -2.0873 -0.6120 -0.3958
  251MOL0     H33828   7.965  -0.004   7.476 -1.2284 -0.0132  2.1443
  251MOL0     H33829   7.991   0.131   7.584  1.1064 -2.3116  1.1521
  251MOL0     H33830   7.974   0.299   7.403 -0.4403 -0.3916  1.1073
  251MOL0     H33831   7.975   0.176   7.279  0.6658 -1.4499  0.7756
  251MOL0     H33832   7.774   0.090   7.341  0.3084 -0.3140 -2.5233
  251MOL0     H33833   7.757   0.200   7.490 -1.6249  2.2744 -0.4405
  251MOL0     H33834   7.728   0.271   7.209  0.3199  1.2395  0.1481
  251MOL0     H33835   7.774   0.391   7.330 -0.2862 -0.9546  3.5207
  251MOL0     H33836   7.504   0.126   7.356  4.3292  1.8735 -0.9234
  251MOL0     H33837   7.212   0.179   7.273  0.7837  1.6390 -0.4096
  251MOL0     H33838   7.217   0.132   7.440  1.7836 -0.3421 -0.2566
  251MOL0     H33839   7.098   0.386   7.339 -1.2838 -0.4463 -1.4519
  251MOL0     H33840   7.122   0.352   7.517  0.3564 -2.9886  1.7843
  251MOL0     H33841   6.978   0.150   7.486 -0.8207  1.8882  1.6520
  251MOL0     H33842   6.929   0.207   7.316 -0.4932  1.2219  0.0336
  251MOL0     H33843   6.860   0.425   7.419 -0.6263  0.8722  0.9163
  251MOL0     H33844   6.884   0.356   7.576  1.3216 -0.1871 -1.7033
  251MOL0     H33845   6.749   0.516   7.640 -0.7382 -0.3245  1.3869
  251MOL0     H33846   6.535   0.632   7.900 -0.2803  0.9312  0.3797
  251MOL0     H33847   6.691   0.647   7.810 -0.4344 -0.3199  1.0442
  251MOL0     H33848   6.541   0.727   7.755  0.8720 -0.6561 -2.3810
  251MOL0     H33849   6.211   0.544   8.088  0.4666  1.6960 -1.8285
  251MOL0     H33850   5.983   0.598   8.202 -0.9202 -0.3798 -0.8951
  251MOL0     H33851   5.761   0.516   8.281  0.5181  1.2993 -0.0763
  251MOL0     H33852   5.764   0.688   8.260 -1.4117  0.0837  1.0092
  251MOL0     H33853   5.531   0.508   8.258 -0.0185 -0.3839  0.9079
  251MOL0     H33854   5.576   0.649   8.363 -0.0085 -0.0877 -0.1866
  251MOL0     H33855   5.386   0.725   8.217 -0.3443  0.0173 -0.8850
  251MOL0     H33856   5.463   0.665   8.071  0.1003  2.4325 -0.8797
  251MOL0     H33857   5.556   0.910   8.244 -2.5516  2.4353 -2.2426
  251MOL0     H33858   5.638   0.836   8.104  1.3958  0.0792  0.6612
  251MOL0     H33859   5.449   0.880   7.953  1.4173  1.4690 -2.1123
  251MOL0     H33860   5.514   1.027   8.029  0.7011  0.3748  2.2010
  251MOL0     H33861   5.265   0.895   8.140  3.1576 -1.9245  0.5730
  251MOL0     H33862   5.342   1.038   8.201 -1.3051 -1.5568  0.7524
  251MOL0     H33863   5.244   1.014   7.907 -1.8444 -1.5132  1.0782
  251MOL0     H33864   5.356   1.136   7.980 -1.0717  1.2770 -0.9763
  251MOL0     H33865   5.176   1.201   8.137 -1.0570 -1.4621  0.5680
  251MOL0     H33866   5.063   1.088   8.059  0.3396 -0.0957 -0.9169
  251MOL0     H33867   5.772   0.479   7.853  0.1408  0.4822  0.8141
  251MOL0     H33868   5.993   0.394   7.758 -0.8582  0.8391 -1.0843
  251MOL0     H33869   6.310   0.288   7.669  0.4054  0.5645  1.2379
  251MOL0     H33870   6.501   0.193   7.513  1.1040  0.2209 -0.3456
  251MOL0     H33871   8.818   0.040   7.704 -1.4795  3.6952  2.2645
  251MOL0     H33872   9.000  -0.035   7.845 -0.8023 -0.1973 -5.1049
  251MOL0     H33873   9.087   0.079   8.348 -0.9289  0.3607 -0.7465
  251MOL0     H33874   9.210   0.044   8.566  0.1662  0.3272 -0.0270
  251MOL0     H33875   9.155  -0.363   8.708  0.3947  0.7673  1.8299
  251MOL0     H33876   9.326  -0.395   8.656 -1.3145  0.3781 -2.0071
  251MOL0     H33877   9.398  -0.338   8.892 -0.3790  2.6055 -0.7988
  251MOL0     H33878   9.246  -0.417   8.916 -1.2088 -0.1900 -1.1427
  251MOL0     H33879   9.133  -0.175   8.922 -0.0291 -1.6752 -0.6379
  251MOL0     H33880   9.297  -0.111   8.939  1.7719 -0.0256  1.8184
  251MOL0     H33881   9.320  -0.282   9.134  0.8172 -0.6728 -0.4735
  251MOL0     H33882   9.148  -0.307   9.099 -1.7055  1.0477 -1.4348
  251MOL0     H33883   9.120   0.069   9.284 -0.3512 -0.3145 -0.7447
  251MOL0     H33884   9.177  -0.370   8.471  1.6460  1.1903  1.8342
  251MOL0     H33885   9.074  -0.333   8.259 -0.1868 -0.1156  1.2677
  252MOL0     O33886   3.380   9.947   1.106  0.2224  0.3247  0.1962
  252MOL0     C33887   3.358   9.872   1.011  0.6554  0.0499  0.5933
  252MOL0     O33888   3.271   9.768   1.008 -0.5423  0.0696 -0.7713
  252MOL0     C33889   3.169   9.780   1.096  0.0292 -0.3370  0.8236
  252MOL0     C33890   3.174   9.756   1.237  0.6138 -0.9095 -0.0259
  252MOL0     C33891   3.057   9.776   1.323  0.2739  0.0949  0.2512
  252MOL0     C33892   2.934   9.814   1.262  0.7870  0.7992 -0.2127
  252MOL0     O33893   2.810   9.823   1.326 -0.7546 -0.3437  0.2367
  252MOL0     C33894   2.808   9.798   1.471 -0.0191 -0.3537  0.2503
  252MOL0     C33895   2.664   9.804   1.533  0.0732  0.7376  0.4249
  252MOL0     C33896   2.661   9.760   1.681 -0.9091  0.4446  0.4122
  252MOL0     C33897   2.522   9.785   1.747 -0.4719  0.2043  0.5852
  252MOL0     C33898   2.520   9.722   1.891 -0.2002  0.6134 -0.1259
  252MOL0     C33899   2.585   9.814   1.988 -0.7508  0.3002 -0.4588
  252MOL0     C33900   2.567   9.771   2.135 -0.7872 -0.1129 -0.5422
  252MOL0     C33901   2.432   9.829   2.186 -0.1760 -0.0644  0.1907
  252MOL0     N33902   2.312   9.769   2.132 -1.0401 -0.4236 -0.0887
  252MOL0     C33903   2.264   9.640   2.148  0.1003 -0.2227 -0.9114
  252MOL0     C33904   2.150   9.623   2.083 -0.4654  0.0753  0.3781
  252MOL0     C33905   2.058   9.500   2.082 -0.1565  0.2110  0.5571
  252MOL0     C33906   1.909   9.548   2.046 -0.3624 -0.7902 -0.7018
  252MOL0     C33907   1.859   9.638   2.160  0.3527  0.0473  1.0112
  252MOL0     C33908   1.727   9.702   2.111  0.0951 -0.8768  0.6835
  252MOL0     O33909   1.624   9.611   2.140 -0.2840  0.6634  0.6173
  252MOL0     C33910   1.491   9.647   2.124  0.7064  1.1091  0.1762
  252MOL0     C33911   1.423   9.560   2.048 -0.1010  0.4166 -0.0732
  252MOL0     C33912   1.298   9.584   2.002  0.3947  1.0343  0.2631
  252MOL0     C33913   1.240   9.495   1.901  0.6638  0.3205  0.0034
  252MOL0     C33914   1.233   9.711   2.024 -0.9174  0.7022 -0.6181
  252MOL0     C33915   1.104   9.764   1.968 -0.5992 -0.5225  0.0532
  252MOL0     O33916   1.070   9.898   1.996 -0.5898  0.5514  0.4786
  252MOL0     C33917   0.935   9.934   1.976 -1.2422  0.2968 -0.5641
  252MOL0     C33918   0.832   9.894   2.054  0.6149 -0.8489 -0.1410
  252MOL0     C33919   0.704   9.959   2.045  0.0951  1.0409  0.5038
  252MOL0     C33920   0.676  10.056   1.947 -0.3846  0.0264 -0.1439
  252MOL0     O33921   0.556  10.120   1.931  0.1772  0.0666  0.7063
  252MOL0     C33922   0.439  10.029   1.930 -0.4920  0.0190  0.4005
  252MOL0     C33923   0.429   9.934   1.815  0.4683 -0.4363 -0.1700
  252MOL0     C33924   0.446   9.983   1.672 -0.8388  0.3205  0.2709
  252MOL0     C33925   0.344  10.086   1.628 -0.0698  0.7104 -0.0756
  252MOL0     C33926   0.389  10.165   1.509 -0.3122 -0.1854 -0.6981
  252MOL0     C33927   0.310  10.297   1.468 -0.2811  0.4965 -0.0805
  252MOL0     C33928   0.165  10.297   1.493  0.2951 -1.3155 -0.9768
  252MOL0     C33929   0.092  10.181   1.414  0.7363 -0.8781 -0.3829
  252MOL0    Cl33930  -0.077  10.256   1.395  0.0266  0.5315 -0.0664
  252MOL0     C33931   0.790  10.100   1.879  0.0480 -0.3029  0.7050
  252MOL0     C33932   0.915  10.048   1.906  0.8197  0.3121  0.5356
  252MOL0     O33933   1.026   9.689   1.905 -0.5673  0.3638 -0.3898
  252MOL0     C33934   1.307   9.794   2.112  0.7870  0.6709 -0.1378
  252MOL0     C33935   1.432   9.763   2.167  0.0610 -0.4310  0.3898
  252MOL0     N33936   2.149   9.724   1.992 -0.7822  0.5842  0.2686
  252MOL0     N33937   2.236   9.813   2.027 -0.5782  0.0361  0.6070
  252MOL0     C33938   2.930   9.836   1.123  0.7498 -0.6199 -0.6199
  252MOL0     C33939   3.048   9.833   1.043 -0.2460 -0.1978 -0.3910
  252MOL0     C33940   3.454   9.876   0.905 -1.1141 -0.0818 -0.3946
  252MOL0     C33941   3.519   9.995   0.875 -0.0134  0.3132 -0.6167
  252MOL0     C33942   3.618  10.007   0.775  0.4500  0.1839 -0.7469
  252MOL0     C33943   3.637   9.902   0.685  0.5621 -0.2020 -0.1163
  252MOL0     O33944   3.722   9.929   0.575 -0.5916  0.1134 -0.3886
  252MOL0     C33945   3.792   9.820   0.510 -0.2361 -0.4425 -0.5264
  252MOL0     C33946   3.934   9.866   0.505 -0.7753  0.1043  0.9748
  252MOL0     C33947   3.978   9.973   0.413  0.6217 -0.0108 -0.2188
  252MOL0     C33948   4.129  10.000   0.437 -0.1213 -0.2419 -0.5518
  252MOL0     C33949   4.166  10.115   0.354  0.4536 -0.7055 -0.1415
  252MOL0     C33950   4.181  10.213   0.286  0.7861 -0.0312  0.2416
  252MOL0     C33951   3.570   9.784   0.703 -0.0107  0.4228 -0.6377
  252MOL0     C33952   3.475   9.774   0.817 -0.1263 -0.5905  0.6051
  252MOL0     H33953   3.263   9.726   1.291  0.6710 -2.3403 -0.8683
  252MOL0     H33954   3.063   9.738   1.424 -1.4736 -3.5838 -0.8400
  252MOL0     H33955   2.823   9.691   1.485 -0.3314 -0.4649 -0.2333
  252MOL0     H33956   2.873   9.860   1.534 -3.4714  0.7273  3.0698
  252MOL0     H33957   2.629   9.908   1.533 -1.8611  0.1343 -0.7268
  252MOL0     H33958   2.596   9.734   1.484  1.4216 -1.0612  1.0076
  252MOL0     H33959   2.682   9.653   1.678 -1.7028  0.1934  2.1071
  252MOL0     H33960   2.733   9.814   1.744  1.1941  2.1333 -3.1643
  252MOL0     H33961   2.504   9.893   1.744  0.2632  0.3725  1.5341
  252MOL0     H33962   2.460   9.732   1.676 -1.2701  0.1498  1.3061
  252MOL0     H33963   2.414   9.698   1.904 -0.0574 -1.3030 -1.9287
  252MOL0     H33964   2.581   9.631   1.894  1.7845  1.8520 -0.8642
  252MOL0     H33965   2.690   9.796   1.964 -0.6668  0.9916 -0.6305
  252MOL0     H33966   2.557   9.918   1.968 -0.3225  0.0932 -2.2649
  252MOL0     H33967   2.551   9.664   2.152  0.3763  0.0877  2.2495
  252MOL0     H33968   2.656   9.791   2.194 -1.5462 -1.2634  1.0577
  252MOL0     H33969   2.423   9.936   2.165 -5.3508 -0.3443 -0.1988
  252MOL0     H33970   2.433   9.818   2.294  2.1181 -1.1568  0.1183
  252MOL0     H33971   2.290   9.569   2.226 -1.8073 -1.4419 -1.3113
  252MOL0     H33972   2.100   9.425   2.014 -0.5609 -1.2360  1.8625
  252MOL0     H33973   2.062   9.461   2.184 -1.3908 -1.2142  0.0925
  252MOL0     H33974   1.841   9.463   2.039 -0.1900 -1.0870  0.8230
  252MOL0     H33975   1.910   9.612   1.958  0.7131  1.1620  0.6516
  252MOL0     H33976   1.932   9.719   2.173 -0.3663  1.6080 -3.1176
  252MOL0     H33977   1.838   9.576   2.247  0.6353 -0.0016  1.0445
  252MOL0     H33978   1.743   9.717   2.003  0.4152  0.0618  0.8547
  252MOL0     H33979   1.712   9.801   2.153  1.7670  0.8077 -2.3138
  252MOL0     H33980   1.475   9.469   2.020  1.7451  2.0080 -2.2067
  252MOL0     H33981   1.241   9.541   1.802 -1.2863  2.8817  1.0771
  252MOL0     H33982   1.302   9.404   1.900  0.0812 -0.1166  1.3952
  252MOL0     H33983   1.137   9.468   1.926  1.6289 -0.5504  3.6473
  252MOL0     H33984   0.862   9.815   2.122  1.5628 -0.0021  0.4459
  252MOL0     H33985   0.627   9.920   2.112 -0.7431 -0.3183 -1.1703
  252MOL0     H33986   0.445   9.972   2.023  0.4802 -1.6018 -0.6103
  252MOL0     H33987   0.357  10.102   1.933 -1.0941 -0.5871 -0.6244
  252MOL0     H33988   0.514   9.866   1.826  0.5070 -0.5945 -1.3026
  252MOL0     H33989   0.333   9.882   1.823  0.7474 -1.1438 -1.2701
  252MOL0     H33990   0.453   9.903   1.598  0.7990  1.7461 -1.1982
  252MOL0     H33991   0.541  10.036   1.663 -0.9715  0.3887 -1.0051
  252MOL0     H33992   0.245  10.048   1.599 -0.3815  3.0242 -2.4693
  252MOL0     H33993   0.320  10.167   1.698 -4.8766  0.2192 -0.7580
  252MOL0     H33994   0.371  10.109   1.416 -1.0877 -1.5299  0.2208
  252MOL0     H33995   0.495  10.184   1.523 -0.1912 -2.0063  1.5116
  252MOL0     H33996   0.354  10.374   1.531  1.8589 -2.6220  2.5545
  252MOL0     H33997   0.337  10.312   1.363 -0.2693  1.0990  0.0043
  252MOL0     H33998   0.128  10.388   1.446  1.4475  0.7410  1.8476
  252MOL0     H33999   0.140  10.296   1.599 -0.4078 -1.1209 -1.1319
  252MOL0     H34000   0.093  10.088   1.471 -0.2207  0.2970  1.6537
  252MOL0     H34001   0.138  10.166   1.316  0.0898  2.3373 -1.2851
  252MOL0     H34002   0.789  10.181   1.806  2.9322  0.3047  1.2196
  252MOL0     H34003   0.998  10.100   1.859 -0.2711  1.3669 -0.2875
  252MOL0     H34004   1.267   9.889   2.144  0.7293  0.0192  1.8516
  252MOL0     H34005   1.476   9.830   2.241  0.6447 -0.3445 -0.0286
  252MOL0     H34006   2.839   9.876   1.079  2.0440  3.5619  0.0722
  252MOL0     H34007   3.047   9.841   0.935 -1.8651 -1.5405 -0.5150
  252MOL0     H34008   3.502  10.087   0.931  1.6925  0.2882 -0.0294
  252MOL0     H34009   3.655  10.106   0.749 -1.8696  1.6060  1.0308
  252MOL0     H34010   3.778   9.725   0.562  0.0365 -1.4920 -2.2898
  252MOL0     H34011   3.755   9.815   0.407 -2.2865  0.1023  0.1452
  252MOL0     H34012   3.992   9.776   0.482  1.6273  2.0984 -1.3995
  252MOL0     H34013   3.967   9.906   0.601 -0.4377 -0.2198  0.9971
  252MOL0     H34014   3.929  10.066   0.445  0.4231 -1.0750  2.9873
  252MOL0     H34015   3.954   9.945   0.310 -0.2664 -1.6533  0.3979
  252MOL0     H34016   4.193   9.915   0.412  0.9136  0.1336  0.7033
  252MOL0     H34017   4.139  10.017   0.545  0.6103 -1.0215 -0.4870
  252MOL0     H34018   4.197  10.295   0.219 -1.1935 -0.3070 -0.6430
  252MOL0     H34019   3.581   9.700   0.634 -0.2573  0.2471 -0.4638
  252MOL0     H34020   3.413   9.685   0.826 -0.5633 -0.3589 -0.0250
  253MOL0     O34021   0.592  10.409   5.238  0.5961 -0.5410  0.3317
  253MOL0     C34022   0.585  10.297   5.289 -0.9966 -0.8407  0.2530
  253MOL0     O34023   0.475  10.239   5.337  0.2378  0.2707 -0.5534
  253MOL0     C34024   0.351  10.285   5.339 -0.4013  0.0388 -0.1744
  253MOL0     C34025   0.294  10.406   5.296  0.0922 -0.3900 -0.6263
  253MOL0     C34026   0.160  10.430   5.300 -0.4888  0.5736  0.0649
  253MOL0     C34027   0.068  10.331   5.344  0.4283 -0.3440 -0.2973
  253MOL0     O34028  -0.067  10.358   5.341  0.9167  0.1348 -0.1843
  253MOL0     C34029  -0.129  10.314   5.463 -0.1346 -0.4703  1.2112
  253MOL0     C34030  -0.269  10.389   5.455  0.0352  0.9207  0.8677
  253MOL0     C34031  -0.361  10.334   5.341  0.0424 -0.1764 -0.0643
  253MOL0     C34032  -0.501  10.406   5.341 -0.2401 -0.6219 -0.8696
  253MOL0     C34033  -0.591  10.357   5.234 -0.2841 -0.9566  0.5561
  253MOL0     C34034  -0.692  10.462   5.193  0.7277  0.7548  0.1348
  253MOL0     C34035  -0.779  10.506   5.312  1.0596  0.2982 -0.2100
  253MOL0     C34036  -0.866  10.402   5.372  0.6209  0.6527 -0.1148
  253MOL0     N34037  -0.966  10.351   5.275  0.1534 -0.1223 -0.5281
  253MOL0     C34038  -1.052  10.441   5.205  0.8887  0.1121  0.6990
  253MOL0     C34039  -1.109  10.362   5.114  0.1824 -0.2314  0.3846
  253MOL0     C34040  -1.227  10.409   5.035  0.2839  0.6863  0.0017
  253MOL0     C34041  -1.249  10.322   4.912  0.1007  0.3227 -0.3192
  253MOL0     C34042  -1.338  10.393   4.800 -1.0299  0.9418 -0.3790
  253MOL0     C34043  -1.487  10.393   4.834 -0.0623 -0.1937 -0.3629
  253MOL0     O34044  -1.515  10.425   4.965  0.0745 -0.4211  0.4341
  253MOL0     C34045  -1.635  10.471   4.991  0.3242  0.0695 -0.5764
  253MOL0     C34046  -1.655  10.526   5.117  0.7723 -0.2968  0.0202
  253MOL0     C34047  -1.777  10.571   5.165  0.2649 -0.3074  0.5799
  253MOL0     C34048  -1.790  10.635   5.300  0.3164 -0.6749  0.1522
  253MOL0     C34049  -1.888  10.557   5.076 -1.1018  0.2137 -0.1001
  253MOL0     C34050  -2.019  10.589   5.108 -0.5087  0.0438  0.5974
  253MOL0     O34051  -2.051  10.723   5.073  0.2731  0.2800 -0.1800
  253MOL0     C34052  -2.185  10.743   5.098  0.8692  0.0834 -2.0976
  253MOL0     C34053  -2.225  10.829   5.201 -0.4457 -1.2631 -0.2213
  253MOL0     C34054  -2.364  10.869   5.210 -0.0084  0.4259 -1.0092
  253MOL0     C34055  -2.462  10.805   5.135 -0.1646 -0.4388  0.0607
  253MOL0     O34056  -2.596  10.834   5.159  0.2922  0.2673 -0.2060
  253MOL0     C34057  -2.666  10.912   5.059 -0.2359 -0.4022 -0.1408
  253MOL0     C34058  -2.794  10.836   5.025 -0.0858  0.2355  0.3512
  253MOL0     C34059  -2.902  10.867   5.124 -0.1112 -0.2378 -1.1671
  253MOL0     C34060  -3.028  10.798   5.080 -0.9622  0.2343  0.5525
  253MOL0     C34061  -3.138  10.838   5.172  0.4628  0.7274 -0.3067
  253MOL0     C34062  -3.279  10.809   5.136  0.9237 -0.2033 -0.3922
  253MOL0     C34063  -3.371  10.918   5.078  0.3617 -0.5380  0.4005
  253MOL0     C34064  -3.316  10.996   4.961 -0.1173  0.6085  0.5360
  253MOL0    Cl34065  -3.245  11.154   5.020 -0.1499  0.0207 -0.6310
  253MOL0     C34066  -2.413  10.721   5.028  0.7837 -0.0749 -0.4086
  253MOL0     C34067  -2.283  10.694   5.016  0.5378 -0.9264 -0.0540
  253MOL0     O34068  -2.085  10.515   5.176 -0.3654 -0.7897 -0.2735
  253MOL0     C34069  -1.867  10.507   4.945 -0.2585  0.1711 -1.3292
  253MOL0     C34070  -1.743  10.464   4.910  0.2066 -0.9553  0.2518
  253MOL0     N34071  -1.052  10.239   5.121  0.3249 -0.5452 -0.1820
  253MOL0     N34072  -0.964  10.230   5.216  0.3932  0.0937  0.5107
  253MOL0     C34073   0.126  10.213   5.399 -0.0077  0.4747 -0.1736
  253MOL0     C34074   0.265  10.190   5.399  0.2347  0.0622 -0.4875
  253MOL0     C34075   0.710  10.240   5.328 -0.7803 -0.3707 -0.8145
  253MOL0     C34076   0.721  10.114   5.392 -0.5947 -0.4000  0.2261
  253MOL0     C34077   0.857  10.071   5.429  0.7280  0.4735 -0.2916
  253MOL0     C34078   0.967  10.146   5.400  0.1161  0.2394  0.8093
  253MOL0     O34079   1.091  10.111   5.411 -0.0568 -0.5024 -0.0521
  253MOL0     C34080   1.120  10.079   5.543  0.0308 -0.2657  0.1045
  253MOL0     C34081   1.262  10.022   5.550 -1.0926 -0.6631  0.3066
  253MOL0     C34082   1.297   9.905   5.457  0.6857  0.3934 -0.2962
  253MOL0     C34083   1.448   9.874   5.469  0.4025 -0.4626  0.0590
  253MOL0     C34084   1.467   9.763   5.554 -0.1229 -0.0859  0.1424
  253MOL0     C34085   1.487   9.679   5.637  0.4764  0.5783  0.5751
  253MOL0     C34086   0.955  10.269   5.335 -0.5500 -0.6008 -0.8786
  253MOL0     C34087   0.832  10.311   5.293  0.2582 -0.1515 -0.0008
  253MOL0     H34088   0.368  10.483   5.277 -0.7091  1.9535  4.2933
  253MOL0     H34089   0.134  10.527   5.258  0.8793  0.4979 -1.0149
  253MOL0     H34090  -0.143  10.205   5.466 -3.5891 -0.1501  1.5900
  253MOL0     H34091  -0.066  10.353   5.543 -0.3116  3.3169 -0.3037
  253MOL0     H34092  -0.324  10.369   5.548  2.3238 -0.5548  1.9762
  253MOL0     H34093  -0.253  10.497   5.453 -0.8633  1.0662 -1.8239
  253MOL0     H34094  -0.317  10.358   5.243 -1.5064 -1.2898 -1.0674
  253MOL0     H34095  -0.375  10.227   5.352  2.6535 -0.6342 -0.5963
  253MOL0     H34096  -0.552  10.386   5.436  0.4064  0.7240 -0.2144
  253MOL0     H34097  -0.479  10.513   5.333 -2.2144  0.3823  3.6410
  253MOL0     H34098  -0.530  10.338   5.145  0.6805  0.6263  0.8267
  253MOL0     H34099  -0.635  10.261   5.261 -2.7809  0.0397  0.2426
  253MOL0     H34100  -0.638  10.550   5.157  2.5968  0.1922  1.4238
  253MOL0     H34101  -0.755  10.434   5.108  2.4555  0.2661 -1.0251
  253MOL0     H34102  -0.712  10.553   5.384  1.8448  1.1235 -1.4321
  253MOL0     H34103  -0.838  10.593   5.282  1.6631  1.2224  1.1789
  253MOL0     H34104  -0.920  10.434   5.461 -0.7251 -2.6835  0.4034
  253MOL0     H34105  -0.791  10.328   5.401  1.2801  1.1403 -0.5244
  253MOL0     H34106  -1.087  10.541   5.226  0.7457  0.0517  0.7492
  253MOL0     H34107  -1.322  10.407   5.089  0.6788  0.3757  0.6962
  253MOL0     H34108  -1.206  10.511   5.001 -0.0832  0.2304 -1.6751
  253MOL0     H34109  -1.297  10.231   4.951  1.2751  0.0458  0.5415
  253MOL0     H34110  -1.154  10.285   4.874 -0.3095 -2.6251  1.1872
  253MOL0     H34111  -1.320  10.344   4.704  1.0059 -0.4405  0.6332
  253MOL0     H34112  -1.303  10.494   4.776 -0.7909  1.0754  0.4899
  253MOL0     H34113  -1.517  10.289   4.815  0.8168 -0.0427 -3.0143
  253MOL0     H34114  -1.531  10.458   4.758  1.9460 -1.0030 -2.3153
  253MOL0     H34115  -1.558  10.538   5.165  1.9035 -4.2336 -0.9259
  253MOL0     H34116  -1.849  10.727   5.296  0.2000 -0.6668  1.5351
  253MOL0     H34117  -1.852  10.575   5.368  0.2767 -1.2619 -0.3948
  253MOL0     H34118  -1.695  10.662   5.347 -1.4628  3.6360  1.7928
  253MOL0     H34119  -2.145  10.866   5.265 -1.7322 -0.7519  1.1397
  253MOL0     H34120  -2.393  10.936   5.290  1.4189 -1.0545  0.8603
  253MOL0     H34121  -2.691  11.009   5.103 -0.1233 -0.4859  0.1125
  253MOL0     H34122  -2.605  10.931   4.970  3.7280 -0.5039  2.2987
  253MOL0     H34123  -2.827  10.865   4.925 -2.2148 -4.6895 -0.6652
  253MOL0     H34124  -2.764  10.731   5.018 -0.6917 -0.1081  2.2774
  253MOL0     H34125  -2.921  10.973   5.145 -1.3058 -0.8225  0.9940
  253MOL0     H34126  -2.878  10.826   5.223 -3.2181  0.3804 -0.0342
  253MOL0     H34127  -3.053  10.835   4.980 -2.1669  1.2318  1.1940
  253MOL0     H34128  -3.000  10.693   5.090  4.0870  1.4764  2.9031
  253MOL0     H34129  -3.127  10.943   5.204 -2.1796  0.5564  1.4980
  253MOL0     H34130  -3.127  10.784   5.267 -1.4834  3.7011  1.8190
  253MOL0     H34131  -3.288  10.718   5.075  1.6474 -1.5793  1.4724
  253MOL0     H34132  -3.335  10.775   5.223 -1.5021  1.7726 -1.0627
  253MOL0     H34133  -3.388  10.991   5.158 -0.9854 -0.3877  0.0128
  253MOL0     H34134  -3.473  10.882   5.062  1.4123 -3.9925  0.6852
  253MOL0     H34135  -3.390  11.011   4.882  0.5175  2.6404  0.2655
  253MOL0     H34136  -3.230  10.947   4.914  0.4500  1.9220  0.1605
  253MOL0     H34137  -2.490  10.671   4.969 -0.2468 -0.5151  1.2336
  253MOL0     H34138  -2.245  10.625   4.941  4.5805  1.2833 -0.3179
  253MOL0     H34139  -1.953  10.506   4.879  0.8361 -0.5367 -2.8015
  253MOL0     H34140  -1.729  10.420   4.812  0.6102  1.0593 -0.6414
  253MOL0     H34141   0.062  10.130   5.427  0.5500 -0.9994 -2.9518
  253MOL0     H34142   0.295  10.096   5.444 -3.0913 -0.8539  0.0770
  253MOL0     H34143   0.632  10.052   5.393 -1.9901  1.5088  1.5672
  253MOL0     H34144   0.868   9.970   5.469 -0.8159  0.5281  0.3292
  253MOL0     H34145   1.110  10.162   5.614  1.6160 -1.2824  1.6183
  253MOL0     H34146   1.063  10.000   5.593 -0.2594  0.4193  0.8756
  253MOL0     H34147   1.268   9.981   5.651 -1.0326 -2.0389 -0.2400
  253MOL0     H34148   1.326  10.108   5.529 -1.2217 -0.5159  0.5052
  253MOL0     H34149   1.277   9.943   5.357  0.1809 -1.0112 -0.7528
  253MOL0     H34150   1.230   9.820   5.475 -0.5388  0.9601 -2.0195
  253MOL0     H34151   1.501   9.963   5.504 -2.2028  0.9924  0.5793
  253MOL0     H34152   1.480   9.844   5.369  1.3384 -4.8779  1.4429
  253MOL0     H34153   1.503   9.599   5.706  1.8938  1.6967  1.5979
  253MOL0     H34154   1.051  10.317   5.322  0.2730 -2.2741 -1.1705
  253MOL0     H34155   0.827  10.405   5.239 -0.2073  0.4850  1.1200
  254MOL0     O34156   9.424   4.148   6.506 -0.1265 -1.2274  0.0342
  254MOL0     C34157   9.419   4.192   6.390  0.4812  0.1508 -0.4274
  254MOL0     O34158   9.306   4.243   6.330 -0.6178 -0.1461  0.2216
  254MOL0     C34159   9.175   4.217   6.370  0.3702 -0.5852 -0.0232
  254MOL0     C34160   9.079   4.308   6.332  0.6168  0.1563 -0.1712
  254MOL0     C34161   8.944   4.281   6.369 -0.0093 -0.3599 -0.1758
  254MOL0     C34162   8.907   4.164   6.432  0.8830 -0.4328 -0.3678
  254MOL0     O34163   8.765   4.150   6.450 -0.3875 -0.1813 -1.0298
  254MOL0     C34164   8.697   4.030   6.486  0.3977  0.1977  0.5368
  254MOL0     C34165   8.548   4.060   6.476 -0.1833 -0.2536  0.6116
  254MOL0     C34166   8.476   3.931   6.448  0.6675  0.7660 -0.1019
  254MOL0     C34167   8.328   3.949   6.473  1.1716 -0.2839 -0.4786
  254MOL0     C34168   8.248   3.877   6.366  0.7170 -0.3311  0.0798
  254MOL0     C34169   8.245   3.961   6.235 -0.5131  0.1488 -1.2238
  254MOL0     C34170   8.178   3.885   6.125  0.4977  0.1628  0.4760
  254MOL0     C34171   8.136   3.984   6.020  0.3941  0.1351  0.4425
  254MOL0     N34172   8.092   3.920   5.897 -0.2044 -0.3568  0.2272
  254MOL0     C34173   7.994   3.819   5.889  0.3925 -0.3367  0.0940
  254MOL0     C34174   8.007   3.771   5.760  0.5670  0.5743 -0.2685
  254MOL0     C34175   7.953   3.634   5.719 -0.3683  0.3375 -0.6147
  254MOL0     C34176   8.070   3.531   5.670  0.6750  0.7862 -0.8904
  254MOL0     C34177   8.200   3.521   5.760 -0.0297 -0.5238  0.1024
  254MOL0     C34178   8.279   3.392   5.731  0.2034  0.2926 -0.2135
  254MOL0     O34179   8.410   3.387   5.791  1.0217 -0.1921  0.5611
  254MOL0     C34180   8.517   3.420   5.720  0.5189 -0.5644  0.1631
  254MOL0     C34181   8.638   3.382   5.766  0.3306  0.3013 -0.1182
  254MOL0     C34182   8.752   3.428   5.696 -0.7125 -0.4848 -0.3408
  254MOL0     C34183   8.886   3.393   5.764 -0.1103 -0.4000  0.8177
  254MOL0     C34184   8.747   3.525   5.596  0.9570 -0.7366  0.0464
  254MOL0     C34185   8.870   3.592   5.541  0.7884  0.2523 -1.5847
  254MOL0     O34186   8.850   3.710   5.475  0.5269 -0.1705 -0.9023
  254MOL0     C34187   8.949   3.798   5.445 -0.0431 -0.3072 -0.0436
  254MOL0     C34188   8.950   3.861   5.325 -0.9383 -0.9706 -0.1386
  254MOL0     C34189   9.054   3.951   5.302  0.1682 -0.5839  0.2551
  254MOL0     C34190   9.152   3.978   5.388 -0.8567 -0.6787  0.0878
  254MOL0     O34191   9.244   4.069   5.348 -0.3400 -0.6336  0.0239
  254MOL0     C34192   9.356   4.091   5.429  0.5724 -1.1709 -0.5143
  254MOL0     C34193   9.447   3.967   5.428 -0.6003 -0.0565 -0.0600
  254MOL0     C34194   9.538   3.958   5.302  0.5737  0.3770 -0.7347
  254MOL0     C34195   9.657   3.857   5.344  0.7703 -0.3244 -0.7474
  254MOL0     C34196   9.726   3.785   5.226 -0.1535 -0.3868 -0.4587
  254MOL0     C34197   9.869   3.849   5.191  0.5813  0.1090  0.3689
  254MOL0     C34198   9.866   3.980   5.117 -0.6597  0.5850 -0.7791
  254MOL0     C34199   9.777   3.967   4.995 -0.3953 -0.7222  0.1987
  254MOL0    Cl34200   9.828   4.115   4.910 -0.0892 -0.1963  0.1160
  254MOL0     C34201   9.143   3.919   5.519 -0.6319 -1.0629  0.3074
  254MOL0     C34202   9.043   3.835   5.542 -0.0001 -0.0235  0.4024
  254MOL0     O34203   8.980   3.539   5.552 -0.6115  0.2408  0.7491
  254MOL0     C34204   8.617   3.568   5.554 -0.1548 -0.0065  0.1527
  254MOL0     C34205   8.501   3.513   5.615  0.4422  1.1828 -0.6618
  254MOL0     N34206   8.105   3.844   5.696 -0.4911  0.0268  0.0426
  254MOL0     N34207   8.157   3.935   5.779 -0.2385 -0.0660 -0.3688
  254MOL0     C34208   9.004   4.070   6.462  0.2433 -0.0812  0.2976
  254MOL0     C34209   9.136   4.096   6.439  1.3425  0.0706  0.5131
  254MOL0     C34210   9.539   4.167   6.305  0.1108  0.0581 -0.7611
  254MOL0     C34211   9.662   4.140   6.364 -0.1755 -0.1666  0.0271
  254MOL0     C34212   9.778   4.142   6.290 -0.0245  0.4156  0.7790
  254MOL0     C34213   9.773   4.157   6.150 -0.0267 -0.4927  0.3739
  254MOL0     O34214   9.882   4.178   6.068 -0.4548  0.4076 -0.1560
  254MOL0     C34215  10.013   4.138   6.128 -0.2164  0.0035 -0.5701
  254MOL0     C34216  10.029   3.983   6.171 -0.5030  0.4298 -0.8459
  254MOL0     C34217  10.175   3.951   6.206 -0.3092 -0.0502 -0.0461
  254MOL0     C34218  10.219   4.026   6.336  0.5868  0.2627  0.0288
  254MOL0     C34219  10.361   4.000   6.380  0.7533 -0.5728  0.6506
  254MOL0     C34220  10.480   3.974   6.413  0.5384 -0.1509 -0.0472
  254MOL0     C34221   9.645   4.179   6.090 -0.3278 -0.2662 -0.3734
  254MOL0     C34222   9.526   4.180   6.166  1.3371 -0.4196  0.0064
  254MOL0     H34223   9.116   4.397   6.283  0.7465  0.8845  1.2130
  254MOL0     H34224   8.865   4.349   6.343  0.2156 -0.4056 -0.9898
  254MOL0     H34225   8.728   3.950   6.418  0.3615 -0.0977  0.8677
  254MOL0     H34226   8.734   3.994   6.582 -0.1324 -1.7611  0.0550
  254MOL0     H34227   8.516   4.101   6.572  1.9671 -0.9184  1.6799
  254MOL0     H34228   8.531   4.135   6.399  1.4047  0.2425  0.6985
  254MOL0     H34229   8.496   3.913   6.342  0.9321  0.7841 -0.0564
  254MOL0     H34230   8.518   3.845   6.500 -1.3208  0.1169  0.5209
  254MOL0     H34231   8.315   3.910   6.574 -0.4822 -2.0053 -1.2766
  254MOL0     H34232   8.302   4.055   6.478  1.7624 -0.1359 -0.5400
  254MOL0     H34233   8.299   3.783   6.341  0.2859 -0.1070 -1.8660
  254MOL0     H34234   8.144   3.856   6.394  0.0243  1.3335 -1.0611
  254MOL0     H34235   8.208   4.064   6.244 -0.1072  0.5220 -3.3201
  254MOL0     H34236   8.350   3.957   6.206  0.2283 -2.0492  1.2846
  254MOL0     H34237   8.240   3.805   6.084  0.4239  1.0932 -1.5913
  254MOL0     H34238   8.084   3.834   6.149  0.2278 -1.0096 -2.6022
  254MOL0     H34239   8.218   4.053   6.001  0.2793  0.5800  1.5149
  254MOL0     H34240   8.059   4.045   6.068 -0.7625 -2.5040  2.2029
  254MOL0     H34241   7.955   3.767   5.976  2.3528  0.4204  1.5026
  254MOL0     H34242   7.892   3.594   5.801  2.5116 -1.9909  0.5896
  254MOL0     H34243   7.882   3.647   5.637 -1.0165 -0.3642 -0.1817
  254MOL0     H34244   8.107   3.573   5.577  3.2593 -1.2428 -0.8729
  254MOL0     H34245   8.024   3.435   5.646 -0.0309  0.8780  0.0299
  254MOL0     H34246   8.162   3.522   5.863 -1.8911 -3.8246 -0.4121
  254MOL0     H34247   8.254   3.614   5.741 -1.6092  0.6659  1.1539
  254MOL0     H34248   8.284   3.369   5.624  2.1506  0.4539 -0.1810
  254MOL0     H34249   8.223   3.306   5.767  2.0543 -1.4320 -1.2606
  254MOL0     H34250   8.648   3.317   5.852 -2.2338 -0.6917 -0.5001
  254MOL0     H34251   8.927   3.481   5.813  2.0852 -0.3050 -1.0145
  254MOL0     H34252   8.860   3.306   5.825  0.1458 -0.7881  0.3885
  254MOL0     H34253   8.960   3.358   5.691  1.3737  1.2211  1.4836
  254MOL0     H34254   8.869   3.843   5.254 -0.0101 -0.5834 -1.3349
  254MOL0     H34255   9.056   4.022   5.219 -0.9972 -2.2888 -1.3031
  254MOL0     H34256   9.410   4.175   5.386  2.4679 -3.1434 -2.1730
  254MOL0     H34257   9.327   4.134   5.526  0.6530 -1.9503 -0.1358
  254MOL0     H34258   9.510   3.974   5.517  1.6133 -3.9471 -1.1129
  254MOL0     H34259   9.390   3.875   5.444  0.7593 -0.7531  0.9241
  254MOL0     H34260   9.576   4.053   5.264  1.2668  0.2828 -0.2914
  254MOL0     H34261   9.476   3.900   5.232 -0.2195  0.2151  0.0714
  254MOL0     H34262   9.724   3.928   5.393 -1.1701  0.9415  0.1845
  254MOL0     H34263   9.624   3.780   5.414  1.0110  0.2303 -0.0167
  254MOL0     H34264   9.662   3.788   5.137  0.7172  1.2246 -1.0685
  254MOL0     H34265   9.737   3.681   5.256 -1.1478  0.2407  2.4381
  254MOL0     H34266   9.938   3.864   5.275 -0.2836  1.6130  0.8397
  254MOL0     H34267   9.910   3.772   5.125  0.2980 -1.5726  2.0610
  254MOL0     H34268   9.968   3.988   5.077  0.9852 -2.2799  2.3148
  254MOL0     H34269   9.847   4.067   5.181  0.1448  2.3269 -2.7759
  254MOL0     H34270   9.669   3.965   5.012 -0.1869 -0.7142  1.6470
  254MOL0     H34271   9.798   3.874   4.942 -1.0693 -0.0981 -1.2192
  254MOL0     H34272   9.220   3.941   5.592  1.4096 -4.4583 -0.5709
  254MOL0     H34273   9.034   3.787   5.639  2.0894  0.4456  0.8731
  254MOL0     H34274   8.605   3.639   5.472  1.1808 -0.2278 -0.2658
  254MOL0     H34275   8.405   3.535   5.570  0.0570  0.6037 -0.1369
  254MOL0     H34276   8.978   3.969   6.492  0.6881 -0.0504  0.8037
  254MOL0     H34277   9.211   4.019   6.454  0.3163 -0.8365  1.1166
  254MOL0     H34278   9.656   4.129   6.472  0.4049  0.1161  0.0936
  254MOL0     H34279   9.875   4.125   6.338  0.4610  2.6057  0.6747
  254MOL0     H34280  10.090   4.155   6.052 -1.2783 -1.3122 -1.9759
  254MOL0     H34281  10.045   4.203   6.211 -0.1263  1.3155 -1.6037
  254MOL0     H34282   9.999   3.919   6.088  0.8125  0.0237 -1.0372
  254MOL0     H34283   9.962   3.979   6.257 -3.1570  1.2708 -2.7566
  254MOL0     H34284  10.239   3.981   6.123  1.6242 -1.1032  0.9833
  254MOL0     H34285  10.182   3.844   6.228  0.2698  0.5522  3.2767
  254MOL0     H34286  10.151   3.998   6.416 -0.5025 -2.2056 -1.6410
  254MOL0     H34287  10.212   4.133   6.312 -2.5854  0.0851 -0.2260
  254MOL0     H34288  10.574   3.939   6.449  0.6895  0.6440  0.3605
  254MOL0     H34289   9.654   4.191   5.983  3.5630  0.8942 -0.0673
  254MOL0     H34290   9.430   4.196   6.117 -0.0844  1.4559  3.1070
  255MOL0     O34291   4.244   1.661   3.302  0.3221 -0.2399  0.8987
  255MOL0     C34292   4.310   1.632   3.201  0.1256  0.4056 -0.5335
  255MOL0     O34293   4.418   1.545   3.202  0.3109 -0.9791  0.4853
  255MOL0     C34294   4.439   1.474   3.317  0.2404 -0.1255  0.4321
  255MOL0     C34295   4.559   1.499   3.380 -0.2349 -0.1837 -0.4494
  255MOL0     C34296   4.585   1.435   3.500  0.2514  0.1885 -0.3145
  255MOL0     C34297   4.493   1.343   3.555 -0.9969  0.6052  0.7896
  255MOL0     O34298   4.520   1.282   3.678 -0.1169  0.4651 -0.1858
  255MOL0     C34299   4.586   1.355   3.782  0.0739 -0.7477  0.1142
  255MOL0     C34300   4.736   1.325   3.801  0.3204 -0.1201 -0.4474
  255MOL0     C34301   4.798   1.421   3.897 -0.1230  0.2140  0.2682
  255MOL0     C34302   4.799   1.567   3.845  0.9843 -0.1186  0.2721
  255MOL0     C34303   4.901   1.652   3.927  0.1600 -1.0614  0.1938
  255MOL0     C34304   4.883   1.802   3.896  0.2188  0.2987  0.6019
  255MOL0     C34305   4.800   1.880   3.992  0.7832  0.4031  0.1152
  255MOL0     C34306   4.818   2.024   3.970  0.2803 -0.0206 -0.2028
  255MOL0     N34307   4.739   2.069   3.863  0.1829 -0.5876  0.7295
  255MOL0     C34308   4.604   2.058   3.843  0.7695 -0.1240  1.2728
  255MOL0     C34309   4.589   2.097   3.709 -0.6141  0.3351  0.0082
  255MOL0     C34310   4.462   2.110   3.622 -0.4898  0.9262 -0.1877
  255MOL0     C34311   4.422   1.974   3.568  0.5902  0.6035  0.0746
  255MOL0     C34312   4.468   1.961   3.417 -0.0166  0.6253 -1.1667
  255MOL0     C34313   4.623   1.971   3.404 -0.4162 -0.1780  0.3330
  255MOL0     O34314   4.642   1.955   3.265 -0.5350  0.1262 -0.1830
  255MOL0     C34315   4.770   1.938   3.220  0.5088  0.0832 -0.4590
  255MOL0     C34316   4.781   1.910   3.086  0.1819  0.2316  0.4876
  255MOL0     C34317   4.900   1.872   3.032 -0.7670 -0.2402  0.6833
  255MOL0     C34318   4.906   1.831   2.895  0.0248  0.0347  0.7519
  255MOL0     C34319   5.019   1.876   3.109 -0.2879 -0.9246 -1.0448
  255MOL0     C34320   5.152   1.844   3.052 -0.2960  0.4235 -0.2097
  255MOL0     O34321   5.220   1.758   3.143  0.5739  1.4307  0.0273
  255MOL0     C34322   5.349   1.747   3.108 -0.3386 -0.3820 -0.4159
  255MOL0     C34323   5.438   1.810   3.198 -0.1781  0.8118  0.3434
  255MOL0     C34324   5.575   1.792   3.173 -0.4205 -0.3763 -0.5916
  255MOL0     C34325   5.627   1.718   3.064 -0.4968 -0.5080 -0.1318
  255MOL0     O34326   5.761   1.710   3.047  0.1605  0.0470 -0.5432
  255MOL0     C34327   5.814   1.702   2.917 -0.1834 -0.4264 -0.0169
  255MOL0     C34328   5.975   1.710   2.925  0.0903  0.0136 -0.2710
  255MOL0     C34329   6.041   1.574   2.958  0.5134 -0.1166 -0.6663
  255MOL0     C34330   6.185   1.600   2.940 -0.6248 -1.0301  0.2933
  255MOL0     C34331   6.265   1.485   2.999 -0.5014 -0.4165 -0.0595
  255MOL0     C34332   6.234   1.350   2.943  0.5885  0.6639  0.5275
  255MOL0     C34333   6.260   1.350   2.794 -0.5533  0.2075 -1.2953
  255MOL0     C34334   6.303   1.205   2.756 -0.3868  0.1947 -0.1996
  255MOL0    Cl34335   6.161   1.138   2.672  0.3852  0.5386  0.4576
  255MOL0     C34336   5.531   1.666   2.970  0.1630 -1.0380  0.0485
  255MOL0     C34337   5.390   1.673   3.001 -0.4590  0.8346 -0.8669
  255MOL0     O34338   5.191   1.895   2.944  0.2114  0.3528 -0.0572
  255MOL0     C34339   5.012   1.910   3.245  0.1210 -0.0111 -0.4903
  255MOL0     C34340   4.885   1.943   3.296  0.1291 -0.5688 -0.3224
  255MOL0     N34341   4.716   2.122   3.662  0.7147  0.6834  0.1917
  255MOL0     N34342   4.808   2.098   3.747  1.0113 -0.1475  0.1785
  255MOL0     C34343   4.384   1.303   3.484 -0.1218 -0.6412 -0.1601
  255MOL0     C34344   4.351   1.371   3.369 -1.1038 -0.6720 -0.1120
  255MOL0     C34345   4.270   1.699   3.072 -0.5407 -0.3732 -0.3042
  255MOL0     C34346   4.315   1.643   2.950  0.2695 -0.4327  0.0664
  255MOL0     C34347   4.285   1.707   2.826  0.7966 -0.9540 -0.1863
  255MOL0     C34348   4.185   1.815   2.819 -0.6598 -0.1026 -0.0098
  255MOL0     O34349   4.153   1.894   2.711  0.1652 -0.2538  0.1173
  255MOL0     C34350   4.207   1.853   2.576 -0.0164  0.6130 -0.2123
  255MOL0     C34351   4.164   1.945   2.472 -0.4434 -0.7846 -0.2318
  255MOL0     C34352   4.252   2.072   2.486 -0.5185  0.5088 -0.1379
  255MOL0     C34353   4.241   2.174   2.369  0.6217  0.7479 -0.3371
  255MOL0     C34354   4.352   2.274   2.380  0.3403  0.5936 -0.4942
  255MOL0     C34355   4.424   2.366   2.393 -0.0164  0.6664 -0.0125
  255MOL0     C34356   4.143   1.858   2.940  0.1726  0.2315 -0.4061
  255MOL0     C34357   4.182   1.804   3.067  0.0812 -0.1678  0.5716
  255MOL0     H34358   4.625   1.571   3.333  2.0103 -1.9381 -0.1391
  255MOL0     H34359   4.671   1.465   3.558 -0.3986 -1.5831  1.6901
  255MOL0     H34360   4.567   1.462   3.764  3.4916  0.3255  1.9507
  255MOL0     H34361   4.534   1.332   3.875  1.6048  2.4182  1.9348
  255MOL0     H34362   4.741   1.221   3.834  1.2586  0.2536  0.6498
  255MOL0     H34363   4.785   1.326   3.703  0.6715  0.7984 -0.2746
  255MOL0     H34364   4.745   1.404   3.992 -1.3267  0.0790 -0.4113
  255MOL0     H34365   4.902   1.394   3.914 -0.5977 -1.0160  1.3547
  255MOL0     H34366   4.821   1.565   3.738  0.9718  0.8285  0.2480
  255MOL0     H34367   4.699   1.609   3.858  1.4827  0.1377  4.7381
  255MOL0     H34368   4.890   1.633   4.034 -1.2077 -0.0809  0.2500
  255MOL0     H34369   5.000   1.615   3.900  2.4469  3.2371  1.7957
  255MOL0     H34370   4.978   1.854   3.885 -1.0226  2.2478 -2.2972
  255MOL0     H34371   4.851   1.805   3.792  4.3480  0.2238 -0.8278
  255MOL0     H34372   4.695   1.858   3.972  0.5261  1.6345  0.0371
  255MOL0     H34373   4.825   1.862   4.097 -1.6544  0.8703  0.8367
  255MOL0     H34374   4.921   2.058   3.959 -0.2915  1.8758 -0.1442
  255MOL0     H34375   4.781   2.075   4.060  0.1441 -1.8131  0.7962
  255MOL0     H34376   4.526   2.028   3.913 -1.8973 -0.4524 -1.6360
  255MOL0     H34377   4.379   2.140   3.686 -0.4417 -2.0898  1.4279
  255MOL0     H34378   4.481   2.179   3.539 -1.5078 -0.6343 -1.7661
  255MOL0     H34379   4.314   1.956   3.580  0.9347 -0.2845  2.2072
  255MOL0     H34380   4.463   1.891   3.626  0.0392 -0.6915 -1.3187
  255MOL0     H34381   4.428   2.051   3.370  1.1637  2.9188  1.8863
  255MOL0     H34382   4.424   1.877   3.363 -2.3544  1.6371 -0.9432
  255MOL0     H34383   4.673   1.894   3.464  2.9484  0.1017 -1.8583
  255MOL0     H34384   4.668   2.066   3.433  1.0787 -0.3623 -1.2341
  255MOL0     H34385   4.692   1.917   3.023  0.6959 -0.0176 -0.2876
  255MOL0     H34386   4.992   1.765   2.882 -0.1767 -0.4732  1.8265
  255MOL0     H34387   4.815   1.780   2.863  0.0310  2.1608 -3.1348
  255MOL0     H34388   4.919   1.914   2.826 -1.1078 -0.9980 -0.7797
  255MOL0     H34389   5.395   1.855   3.286 -1.5534  1.3270 -0.5657
  255MOL0     H34390   5.645   1.835   3.244  0.4558 -1.8711 -0.4818
  255MOL0     H34391   5.780   1.617   2.856  0.7390 -0.0632 -1.0793
  255MOL0     H34392   5.785   1.786   2.853 -1.4799 -2.1528 -1.8312
  255MOL0     H34393   6.011   1.749   2.829 -0.4441 -0.3997 -0.6536
  255MOL0     H34394   6.008   1.782   3.000  2.0853 -1.4290  0.3093
  255MOL0     H34395   6.000   1.494   2.895 -1.2941  0.3523 -0.1321
  255MOL0     H34396   6.013   1.542   3.059 -0.7209 -2.5433 -1.6841
  255MOL0     H34397   6.216   1.619   2.837 -0.8200 -1.5100  0.1433
  255MOL0     H34398   6.206   1.689   3.000  2.0584 -1.9949  0.9531
  255MOL0     H34399   6.269   1.492   3.108 -0.4218  0.3405 -0.1060
  255MOL0     H34400   6.369   1.505   2.975 -1.0935  2.2652 -0.7179
  255MOL0     H34401   6.295   1.282   3.004  0.2975 -2.0583 -1.9748
  255MOL0     H34402   6.130   1.326   2.969  0.9398 -0.3106  1.1186
  255MOL0     H34403   6.343   1.420   2.778 -0.3291  0.9553  2.2032
  255MOL0     H34404   6.168   1.386   2.746 -1.7827 -2.7702 -1.3677
  255MOL0     H34405   6.342   1.150   2.842  0.4090  3.3157  1.5780
  255MOL0     H34406   6.382   1.208   2.680 -0.7557  1.2200 -0.5627
  255MOL0     H34407   5.567   1.614   2.882 -0.7596 -1.0636 -0.3275
  255MOL0     H34408   5.318   1.626   2.934 -0.7112 -0.2792  0.1482
  255MOL0     H34409   5.097   1.899   3.312 -1.7103 -2.6946  1.6198
  255MOL0     H34410   4.891   1.976   3.399  2.3110  1.5679 -1.0541
  255MOL0     H34411   4.311   1.229   3.515  1.1743 -1.8436  0.1243
  255MOL0     H34412   4.257   1.341   3.323 -2.1601  2.1766 -0.0172
  255MOL0     H34413   4.389   1.564   2.940  2.7723  1.7849 -0.2303
  255MOL0     H34414   4.328   1.672   2.732 -0.4562 -2.5087 -0.2311
  255MOL0     H34415   4.315   1.842   2.576 -0.0633 -0.6487  2.3022
  255MOL0     H34416   4.163   1.754   2.564 -1.9136  0.9880  2.5225
  255MOL0     H34417   4.058   1.972   2.476 -0.1560  0.7370 -1.8017
  255MOL0     H34418   4.183   1.902   2.374  1.5599  1.8692 -1.1223
  255MOL0     H34419   4.356   2.036   2.490  0.3488  2.9316  2.4163
  255MOL0     H34420   4.238   2.118   2.584  0.7936 -1.8585  1.2765
  255MOL0     H34421   4.143   2.217   2.392 -0.1285 -1.6712  1.4434
  255MOL0     H34422   4.236   2.116   2.277  0.6935 -0.4188  0.3758
  255MOL0     H34423   4.503   2.435   2.415  1.8632 -0.7748 -1.9361
  255MOL0     H34424   4.085   1.950   2.940 -0.2298 -0.0124  0.2894
  255MOL0     H34425   4.127   1.848   3.150 -0.8979  1.3750 -0.8465
  256MOL0     O34426   2.734   8.628  10.447 -1.0328 -0.0260 -0.2767
  256MOL0     C34427   2.770   8.727  10.507  0.7172 -0.1487 -0.2692
  256MOL0     O34428   2.697   8.791  10.606  0.1918 -0.0835  0.0069
  256MOL0     C34429   2.569   8.735  10.627 -0.2466 -0.3864 -0.0021
  256MOL0     C34430   2.559   8.622  10.703  0.3413  0.2853  0.4505
  256MOL0     C34431   2.435   8.554  10.726 -0.3387 -0.4247 -0.0462
  256MOL0     C34432   2.319   8.610  10.678 -0.6874  0.1710 -0.5489
  256MOL0     O34433   2.202   8.541  10.713  0.0539 -0.1014 -0.2983
  256MOL0     C34434   2.074   8.601  10.702 -0.0814 -0.6392  0.4562
  256MOL0     C34435   1.973   8.504  10.767 -0.3674  0.6864 -0.2590
  256MOL0     C34436   1.828   8.533  10.722 -1.1337 -0.2814 -0.6645
  256MOL0     C34437   1.741   8.432  10.788 -0.5442 -0.5175  0.0940
  256MOL0     C34438   1.592   8.455  10.757 -0.4581 -0.3128  0.1128
  256MOL0     C34439   1.567   8.460  10.608 -0.1464 -1.0141 -0.1643
  256MOL0     C34440   1.436   8.422  10.558 -0.5530  0.1859 -0.0512
  256MOL0     C34441   1.332   8.516  10.605 -0.5190  0.3587  0.6687
  256MOL0     N34442   1.199   8.487  10.548  0.1688 -0.5842  0.4141
  256MOL0     C34443   1.114   8.394  10.601 -0.3120  0.5947 -0.6090
  256MOL0     C34444   1.015   8.386  10.514  0.6454 -0.1151  0.0282
  256MOL0     C34445   0.893   8.310  10.555 -0.4281 -0.0534  0.4522
  256MOL0     C34446   0.781   8.389  10.632  0.6450  0.1456  0.2211
  256MOL0     C34447   0.698   8.491  10.560  0.0095  0.1174 -0.7700
  256MOL0     C34448   0.653   8.441  10.426  0.6868 -0.3447 -0.1369
  256MOL0     O34449   0.560   8.330  10.440  0.1494 -0.4795  0.2050
  256MOL0     C34450   0.437   8.368  10.391  0.0874 -0.0658 -0.7098
  256MOL0     C34451   0.357   8.269  10.334  1.0152  0.3548 -0.7283
  256MOL0     C34452   0.235   8.293  10.273 -0.3579 -1.2222 -0.1197
  256MOL0     C34453   0.168   8.169  10.213  0.1495  0.5692 -0.1689
  256MOL0     C34454   0.183   8.426  10.266  0.4027  0.2059  0.0270
  256MOL0     C34455   0.049   8.452  10.194  0.5082  0.1959  0.2336
  256MOL0     O34456   0.029   8.582  10.167 -0.2328  0.1750 -0.6122
  256MOL0     C34457  -0.083   8.621  10.107  0.2527 -0.3002 -0.2775
  256MOL0     C34458  -0.141   8.550  10.003  0.6043  0.2661  1.0431
  256MOL0     C34459  -0.266   8.593   9.945 -0.0065 -0.4379 -0.8216
  256MOL0     C34460  -0.315   8.720   9.977  0.4763 -0.4505  0.1864
  256MOL0     O34461  -0.430   8.787   9.934 -0.5545 -0.0634  0.1381
  256MOL0     C34462  -0.515   8.728   9.840 -0.2715 -0.3715  0.0892
  256MOL0     C34463  -0.660   8.780   9.849 -0.1938  0.8988 -0.2300
  256MOL0     C34464  -0.742   8.720   9.735  0.0290  0.2647 -0.2431
  256MOL0     C34465  -0.899   8.722   9.766 -0.1686 -0.7628  0.7486
  256MOL0     C34466  -0.946   8.690   9.909 -0.2084 -0.7698  1.0714
  256MOL0     C34467  -1.103   8.675   9.907  0.1710 -0.1063 -0.2633
  256MOL0     C34468  -1.169   8.812   9.878  0.1212 -0.1693  0.0770
  256MOL0     C34469  -1.294   8.849   9.957  0.0051  0.5286  0.5111
  256MOL0    Cl34470  -1.418   8.713   9.956 -0.0835  0.3408 -0.1209
  256MOL0     C34471  -0.243   8.785  10.076  0.9568 -0.7466  0.1225
  256MOL0     C34472  -0.130   8.744  10.139 -0.6206  0.5685 -0.7490
  256MOL0     O34473  -0.032   8.361  10.172 -0.5224 -0.5817  0.0101
  256MOL0     C34474   0.254   8.525  10.335  0.3646 -0.7307 -0.0340
  256MOL0     C34475   0.377   8.500  10.401  0.4084  0.4893 -0.4542
  256MOL0     N34476   1.033   8.482  10.409  0.6556  0.0461 -0.0396
  256MOL0     N34477   1.141   8.534  10.430 -0.0443  0.4559  0.3693
  256MOL0     C34478   2.333   8.727  10.608  1.1569 -0.1518 -0.3470
  256MOL0     C34479   2.452   8.790  10.579 -0.5130  0.4123  1.0263
  256MOL0     C34480   2.909   8.782  10.479 -0.4137  0.9513 -0.1149
  256MOL0     C34481   3.008   8.695  10.423 -0.2776  0.7844 -0.8438
  256MOL0     C34482   3.132   8.746  10.398 -0.8193  0.1406  0.2735
  256MOL0     C34483   3.167   8.879  10.429 -0.2465  0.1221  0.2041
  256MOL0     O34484   3.303   8.914  10.411  0.3387  0.1304 -0.5233
  256MOL0     C34485   3.325   9.017  10.313 -0.5158  0.8860  0.2851
  256MOL0     C34486   3.352   9.149  10.375 -0.5015 -0.3140 -0.3462
  256MOL0     C34487   3.466   9.148  10.481 -0.5593  0.4182  0.0809
  256MOL0     C34488   3.476   9.288  10.547 -0.3574 -0.0232  0.4148
  256MOL0     C34489   3.569   9.285  10.660  0.4261 -0.5121  0.1100
  256MOL0     C34490   3.651   9.295  10.753  0.3397  0.2656  0.0924
  256MOL0     C34491   3.074   8.966  10.496  0.1268  0.3349 -0.4376
  256MOL0     C34492   2.946   8.916  10.505  0.3933 -0.4769 -0.8010
  256MOL0     H34493   2.649   8.574  10.741  0.8669  1.1436  0.3142
  256MOL0     H34494   2.451   8.466  10.787  1.5500 -1.3867 -1.7859
  256MOL0     H34495   2.072   8.696  10.757 -2.1113 -0.1640 -0.3424
  256MOL0     H34496   2.053   8.618  10.596  1.9781  0.7999  0.2153
  256MOL0     H34497   2.001   8.400  10.749  0.9512  0.8002  0.9115
  256MOL0     H34498   1.986   8.502  10.876 -0.8042 -2.4026 -0.1799
  256MOL0     H34499   1.795   8.637  10.732  1.1782  0.5231 -0.7816
  256MOL0     H34500   1.838   8.512  10.615 -0.4794 -0.6029 -0.5461
  256MOL0     H34501   1.785   8.337  10.757  2.1876  0.5777  0.2857
  256MOL0     H34502   1.761   8.428  10.896  2.2798 -2.0796 -0.3723
  256MOL0     H34503   1.540   8.370  10.804  2.4170 -2.7306 -0.7315
  256MOL0     H34504   1.559   8.544  10.810  1.6347 -0.3873  1.6599
  256MOL0     H34505   1.597   8.561  10.578  3.9831 -1.8315  0.5667
  256MOL0     H34506   1.632   8.392  10.552  1.5496  1.6885 -1.7140
  256MOL0     H34507   1.456   8.428  10.450  2.7957  2.4103  0.5711
  256MOL0     H34508   1.404   8.319  10.581 -2.1952  0.1780 -1.9985
  256MOL0     H34509   1.363   8.620  10.590  0.3252 -0.0092 -0.1943
  256MOL0     H34510   1.319   8.498  10.712  1.8493 -1.4854  0.7304
  256MOL0     H34511   1.119   8.337  10.694  1.8562 -1.4440 -1.8664
  256MOL0     H34512   0.852   8.273  10.460 -2.2825 -1.3292  1.6787
  256MOL0     H34513   0.924   8.216  10.602 -1.1684 -0.3607  0.3446
  256MOL0     H34514   0.828   8.435  10.719 -2.0105 -0.3115  2.0233
  256MOL0     H34515   0.700   8.324  10.668  2.3293  0.0442  4.2822
  256MOL0     H34516   0.768   8.574  10.549  1.8247 -0.9402  1.7994
  256MOL0     H34517   0.606   8.528  10.607  0.9666  1.3074  0.2427
  256MOL0     H34518   0.734   8.408  10.360  0.0184 -0.8868 -0.7056
  256MOL0     H34519   0.609   8.528  10.377  1.2973 -0.7473 -1.4272
  256MOL0     H34520   0.400   8.169  10.339  0.6439  0.2515  2.4495
  256MOL0     H34521   0.088   8.126  10.275  0.8826 -1.0148 -0.2737
  256MOL0     H34522   0.128   8.182  10.113 -1.0210  0.8025  0.3085
  256MOL0     H34523   0.238   8.085  10.217 -1.7662 -1.1706  4.4536
  256MOL0     H34524  -0.092   8.461   9.966 -0.2297 -0.0330  0.6540
  256MOL0     H34525  -0.321   8.539   9.868  1.0535 -1.0050 -1.2082
  256MOL0     H34526  -0.469   8.728   9.741  0.0720  2.1579  0.1875
  256MOL0     H34527  -0.517   8.621   9.861 -1.3348 -0.0703  1.6933
  256MOL0     H34528  -0.700   8.739   9.943 -1.3869 -1.1515 -1.5481
  256MOL0     H34529  -0.665   8.889   9.849 -1.8153  0.8749 -2.0654
  256MOL0     H34530  -0.718   8.614   9.723 -2.7684 -0.2517 -2.1911
  256MOL0     H34531  -0.718   8.763   9.637  3.6488 -3.8652 -1.4849
  256MOL0     H34532  -0.938   8.819   9.735  2.5883  0.2092  0.0383
  256MOL0     H34533  -0.933   8.647   9.695  2.7067 -1.1386 -0.3570
  256MOL0     H34534  -0.909   8.776   9.967  0.3683  0.6295 -1.2363
  256MOL0     H34535  -0.907   8.594   9.944  0.0297 -1.2935 -0.5739
  256MOL0     H34536  -1.133   8.595   9.839  2.2446  0.0404 -1.4377
  256MOL0     H34537  -1.126   8.653  10.012  0.1916 -0.7026 -0.3813
  256MOL0     H34538  -1.187   8.805   9.771 -0.5720 -3.5794  0.3149
  256MOL0     H34539  -1.092   8.888   9.897  0.8833 -0.0876 -2.9130
  256MOL0     H34540  -1.339   8.943   9.925  0.5282  0.0701 -1.6831
  256MOL0     H34541  -1.271   8.863  10.063 -0.9227  0.5402  0.7254
  256MOL0     H34542  -0.292   8.878  10.103 -0.4343 -0.2610 -3.5542
  256MOL0     H34543  -0.086   8.800  10.220  1.5308 -2.8531  0.7038
  256MOL0     H34544   0.208   8.623  10.332 -0.8255 -1.2891 -1.9741
  256MOL0     H34545   0.430   8.585  10.441  1.4837  0.1517 -1.1225
  256MOL0     H34546   2.246   8.779  10.572  1.5218 -1.0186 -2.6399
  256MOL0     H34547   2.459   8.878  10.515  1.6220 -0.0946  0.4672
  256MOL0     H34548   2.981   8.590  10.416 -1.0510  1.0145 -1.4400
  256MOL0     H34549   3.214   8.680  10.375 -0.1403  0.6703  1.0921
  256MOL0     H34550   3.416   9.001  10.254  2.5397  3.4112  3.8313
  256MOL0     H34551   3.239   9.028  10.246 -2.0210  1.2581  2.1787
  256MOL0     H34552   3.263   9.164  10.438  0.5615 -0.8444  1.3668
  256MOL0     H34553   3.375   9.234  10.310  4.8425  1.6645  3.3262
  256MOL0     H34554   3.561   9.123  10.433 -0.9208 -0.2926 -0.2658
  256MOL0     H34555   3.444   9.075  10.559 -1.5658 -0.9576 -1.4322
  256MOL0     H34556   3.384   9.337  10.580 -2.5171 -2.4426 -1.5207
  256MOL0     H34557   3.517   9.362  10.478  0.3039 -2.3164 -1.8556
  256MOL0     H34558   3.716   9.297  10.838 -1.5099 -1.7219  1.6464
  256MOL0     H34559   3.082   9.064  10.542 -3.1947  1.2226 -1.4892
  256MOL0     H34560   2.870   8.982  10.546  1.8029  2.1081 -2.0711
  257MOL0     O34561   6.573   5.316   4.675 -0.0912  0.0298  0.1418
  257MOL0     C34562   6.625   5.325   4.790 -0.5714 -0.4345 -0.0673
  257MOL0     O34563   6.602   5.247   4.894 -0.0224 -0.1468  0.0674
  257MOL0     C34564   6.530   5.135   4.896  0.1227 -0.0461 -0.2655
  257MOL0     C34565   6.522   5.045   4.791  0.0123  0.1503  0.3892
  257MOL0     C34566   6.418   4.948   4.785 -0.2786 -0.3714 -0.2704
  257MOL0     C34567   6.340   4.921   4.897  0.4995 -0.2110  1.3206
  257MOL0     O34568   6.247   4.817   4.908  0.6391 -0.4314 -0.0675
  257MOL0     C34569   6.133   4.826   4.817 -0.2035 -0.3108 -0.7765
  257MOL0     C34570   6.023   4.900   4.896  0.3449  0.7845  0.8024
  257MOL0     C34571   5.986   5.030   4.836 -0.3913 -0.1424  0.2585
  257MOL0     C34572   5.894   5.017   4.714 -1.2174  0.6083 -0.0154
  257MOL0     C34573   5.860   5.143   4.634  0.5453 -0.2156 -0.1186
  257MOL0     C34574   5.753   5.238   4.711  0.2566 -0.6013 -0.0249
  257MOL0     C34575   5.750   5.363   4.630  0.5447  0.8965 -0.0278
  257MOL0     C34576   5.647   5.455   4.697  0.3546 -0.2512 -0.1750
  257MOL0     N34577   5.507   5.422   4.687  0.1610 -0.9567  0.7090
  257MOL0     C34578   5.416   5.399   4.784 -0.0965 -0.2482 -0.1561
  257MOL0     C34579   5.303   5.378   4.723  1.1727  0.2327  0.6082
  257MOL0     C34580   5.179   5.308   4.784  0.6746 -1.0586  0.0535
  257MOL0     C34581   5.131   5.200   4.689 -0.0731 -0.3920  0.1022
  257MOL0     C34582   5.014   5.126   4.747 -0.3386  0.1503 -0.0385
  257MOL0     C34583   4.955   5.023   4.648  0.4567  0.4636 -0.0098
  257MOL0     O34584   4.883   5.084   4.539 -0.3455  0.7320  0.3988
  257MOL0     C34585   4.751   5.131   4.551 -0.3839  0.3347 -0.5548
  257MOL0     C34586   4.699   5.191   4.433 -0.6701 -0.1745  0.1033
  257MOL0     C34587   4.563   5.237   4.437  0.4028  0.5040 -0.3394
  257MOL0     C34588   4.506   5.296   4.309  0.1830  0.3334 -1.2906
  257MOL0     C34589   4.488   5.229   4.556  0.8379  0.4833 -0.5732
  257MOL0     C34590   4.358   5.299   4.568 -0.0704  0.2214 -0.1328
  257MOL0     O34591   4.283   5.234   4.656 -0.0432  0.4702 -0.6046
  257MOL0     C34592   4.169   5.296   4.696 -0.5644  0.3290 -0.4115
  257MOL0     C34593   4.067   5.303   4.605 -0.3742 -0.7025  0.3696
  257MOL0     C34594   3.942   5.350   4.640  0.5642  0.3618 -0.1011
  257MOL0     C34595   3.921   5.400   4.765  0.3890 -0.0612  0.0905
  257MOL0     O34596   3.807   5.470   4.801 -0.6084 -0.4851 -0.2516
  257MOL0     C34597   3.704   5.501   4.706  0.2069  0.6951 -0.7144
  257MOL0     C34598   3.596   5.391   4.691  0.1972 -0.4973  0.1601
  257MOL0     C34599   3.539   5.356   4.832  0.0796  0.6141 -0.8513
  257MOL0     C34600   3.391   5.301   4.822  0.1432  0.0058  0.1577
  257MOL0     C34601   3.367   5.181   4.729  0.6534  0.6058  0.0022
  257MOL0     C34602   3.435   5.044   4.757 -0.1703  0.3928  0.3389
  257MOL0     C34603   3.401   4.941   4.650 -0.7889 -0.1981  0.5703
  257MOL0     C34604   3.440   4.795   4.697  0.6598 -0.2420  1.2355
  257MOL0    Cl34605   3.555   4.733   4.578 -0.3349 -0.5213 -0.4438
  257MOL0     C34606   4.030   5.396   4.854 -0.3634  0.7857 -0.5007
  257MOL0     C34607   4.154   5.351   4.823 -0.0778  0.0890 -0.1191
  257MOL0     O34608   4.336   5.412   4.520 -0.0430  0.2738  0.0321
  257MOL0     C34609   4.547   5.172   4.672 -0.3711 -0.6178 -0.0467
  257MOL0     C34610   4.681   5.125   4.671  0.2072  0.3725  0.4712
  257MOL0     N34611   5.326   5.369   4.585 -0.3826  0.3783 -0.3279
  257MOL0     N34612   5.449   5.412   4.568 -0.3942  0.5940  0.1617
  257MOL0     C34613   6.361   5.000   5.006 -0.2806  0.2686  0.5060
  257MOL0     C34614   6.459   5.101   5.009  0.7662 -0.5950 -0.3239
  257MOL0     C34615   6.729   5.425   4.810 -0.1606 -0.6060 -0.0532
  257MOL0     C34616   6.798   5.447   4.935  0.1507  0.5046  0.5562
  257MOL0     C34617   6.906   5.533   4.940  0.5681  0.0778 -0.1273
  257MOL0     C34618   6.942   5.597   4.819 -0.8875  0.6903 -1.5192
  257MOL0     O34619   7.058   5.671   4.845  0.0819  0.1754  0.2628
  257MOL0     C34620   7.121   5.748   4.742  0.7793 -0.1427  0.8867
  257MOL0     C34621   7.219   5.853   4.797 -0.3460  0.1792 -0.2668
  257MOL0     C34622   7.351   5.794   4.839 -0.3341  0.5866  0.3546
  257MOL0     C34623   7.437   5.879   4.937 -0.0524  0.1815 -1.2024
  257MOL0     C34624   7.362   5.908   5.068  0.0189  0.3749  0.0382
  257MOL0     C34625   7.310   5.948   5.169  0.6344  1.0632 -0.2090
  257MOL0     C34626   6.884   5.575   4.699  0.2619 -0.3810 -0.2203
  257MOL0     C34627   6.778   5.487   4.693  0.0769 -0.6748  0.0217
  257MOL0     H34628   6.581   5.074   4.704  2.6621  0.3457  2.1487
  257MOL0     H34629   6.409   4.902   4.687 -2.2858 -0.7835  0.0571
  257MOL0     H34630   6.153   4.880   4.724 -0.3400 -2.1431 -1.9148
  257MOL0     H34631   6.110   4.725   4.783  0.2944  0.7641 -4.7995
  257MOL0     H34632   5.936   4.834   4.886  1.0032  0.1675 -1.2461
  257MOL0     H34633   6.045   4.909   5.003  0.6959  1.7575  0.6583
  257MOL0     H34634   5.933   5.095   4.906  1.4663  1.3794  0.3079
  257MOL0     H34635   6.076   5.089   4.820 -0.5816  0.4675  1.3184
  257MOL0     H34636   5.943   4.949   4.643 -0.5965  2.4102 -1.3769
  257MOL0     H34637   5.802   4.972   4.751 -0.3044 -0.4586  1.0703
  257MOL0     H34638   5.960   5.183   4.614  2.3037 -2.3887  3.3774
  257MOL0     H34639   5.817   5.121   4.535  1.4232 -1.8461 -0.1695
  257MOL0     H34640   5.652   5.195   4.705  0.4466 -1.3372  1.5624
  257MOL0     H34641   5.781   5.256   4.815  1.6339 -0.3440 -0.4192
  257MOL0     H34642   5.844   5.418   4.633 -0.1187  2.0225  1.7976
  257MOL0     H34643   5.722   5.333   4.529  1.7061 -2.7470  0.5785
  257MOL0     H34644   5.664   5.556   4.660  2.3791 -0.2785  0.6039
  257MOL0     H34645   5.664   5.458   4.805 -1.9233 -3.2945  0.4057
  257MOL0     H34646   5.428   5.394   4.892 -1.0108 -4.8130 -0.0672
  257MOL0     H34647   5.203   5.252   4.875 -0.6148 -2.9135 -0.6713
  257MOL0     H34648   5.105   5.383   4.810  1.3337 -0.3959  0.0503
  257MOL0     H34649   5.218   5.135   4.672  0.2132  0.4817 -2.0678
  257MOL0     H34650   5.110   5.234   4.587  2.3307 -1.0583 -0.6896
  257MOL0     H34651   4.940   5.202   4.774  0.7017  0.7675  1.2104
  257MOL0     H34652   5.055   5.071   4.833  3.0741  1.8867 -0.3594
  257MOL0     H34653   4.895   4.953   4.706 -0.5671  1.6680  0.4153
  257MOL0     H34654   5.035   4.962   4.602  1.2345  0.9008  0.7346
  257MOL0     H34655   4.769   5.205   4.351 -0.5094 -1.4833 -0.0010
  257MOL0     H34656   4.413   5.249   4.277 -0.2923 -0.5912  1.2648
  257MOL0     H34657   4.483   5.400   4.333  1.2900 -0.0264  1.8723
  257MOL0     H34658   4.578   5.293   4.227  0.2138  1.9219 -1.3608
  257MOL0     H34659   4.087   5.260   4.507 -0.9469  0.5210 -0.3135
  257MOL0     H34660   3.862   5.341   4.568 -0.2034  0.0365  0.7798
  257MOL0     H34661   3.658   5.583   4.762  1.0493  0.3098  0.5666
  257MOL0     H34662   3.745   5.540   4.612  0.4320 -0.9314 -1.3211
  257MOL0     H34663   3.526   5.432   4.618  0.7118  0.0847 -0.0176
  257MOL0     H34664   3.648   5.301   4.656  1.1711  0.2381 -0.3516
  257MOL0     H34665   3.540   5.445   4.895  1.7977  0.2704 -0.3627
  257MOL0     H34666   3.605   5.287   4.886 -0.7568  0.8846  0.5601
  257MOL0     H34667   3.365   5.265   4.922 -1.7357 -2.9682 -1.2415
  257MOL0     H34668   3.326   5.380   4.785  2.5259  0.7102 -3.0025
  257MOL0     H34669   3.389   5.210   4.626  0.2013 -0.2309 -0.3386
  257MOL0     H34670   3.260   5.159   4.739  0.4002  1.8519  0.1598
  257MOL0     H34671   3.543   5.051   4.743 -0.4917  1.4941 -2.3084
  257MOL0     H34672   3.407   5.010   4.857  0.3089  1.9159  1.0326
  257MOL0     H34673   3.463   4.971   4.564  2.5424 -4.8831  0.9729
  257MOL0     H34674   3.297   4.939   4.614  0.3012 -0.1248 -2.9680
  257MOL0     H34675   3.352   4.730   4.695  0.8327 -0.4614  0.5936
  257MOL0     H34676   3.466   4.803   4.803 -0.3125  2.5569  1.3532
  257MOL0     H34677   4.012   5.432   4.955  0.1770 -1.4027  0.4342
  257MOL0     H34678   4.231   5.348   4.900 -3.0789 -0.1934  3.1464
  257MOL0     H34679   4.498   5.172   4.769  0.3336 -1.0395  0.3195
  257MOL0     H34680   4.725   5.104   4.768  1.2298  0.7838  0.1128
  257MOL0     H34681   6.301   4.983   5.095 -1.3852 -0.3115 -0.3228
  257MOL0     H34682   6.452   5.170   5.093  1.9042 -1.0600  0.1672
  257MOL0     H34683   6.766   5.396   5.026 -0.1614 -1.4598 -0.5827
  257MOL0     H34684   6.958   5.552   5.033  0.9737  3.2249 -0.8921
  257MOL0     H34685   7.169   5.686   4.665 -0.4624 -2.3541  1.7759
  257MOL0     H34686   7.037   5.795   4.689 -1.5060 -2.4514  2.1776
  257MOL0     H34687   7.183   5.900   4.888  0.9873  1.6525 -0.4579
  257MOL0     H34688   7.220   5.929   4.718 -1.5805  1.7730  1.1977
  257MOL0     H34689   7.408   5.759   4.753  0.5473  1.9549  0.3526
  257MOL0     H34690   7.324   5.706   4.899 -0.6735  0.3773 -0.1006
  257MOL0     H34691   7.465   5.972   4.888  1.3428 -0.0498 -0.8772
  257MOL0     H34692   7.531   5.825   4.954  1.4556  2.1802 -2.6828
  257MOL0     H34693   7.266   5.986   5.259 -0.0255  0.5417 -0.3023
  257MOL0     H34694   6.922   5.626   4.611  1.1272  4.1166  2.4229
  257MOL0     H34695   6.738   5.476   4.592  0.8322  2.7327 -0.7693
  258MOL0     O34696   3.513   6.129   8.175  0.3226 -0.3342 -0.3613
  258MOL0     C34697   3.577   6.030   8.198 -1.0106 -0.2113 -0.8954
  258MOL0     O34698   3.527   5.902   8.225  0.1306  0.0034 -0.9206
  258MOL0     C34699   3.387   5.886   8.231  0.0593 -0.8206  0.3273
  258MOL0     C34700   3.327   5.895   8.113 -0.6067 -0.0520  0.4595
  258MOL0     C34701   3.191   5.869   8.096  0.2789  0.1124  0.2166
  258MOL0     C34702   3.115   5.838   8.204 -0.0312 -1.1327  0.0563
  258MOL0     O34703   2.980   5.813   8.190 -0.0837 -0.4105 -0.1584
  258MOL0     C34704   2.909   5.746   8.299 -0.5801  0.2032 -0.7923
  258MOL0     C34705   2.755   5.732   8.276 -0.2242  0.4130  0.1590
  258MOL0     C34706   2.712   5.653   8.158 -0.2877 -0.6068  0.0543
  258MOL0     C34707   2.754   5.508   8.164  0.7150 -0.4790 -0.1843
  258MOL0     C34708   2.681   5.421   8.052 -0.6821  0.2042  0.0242
  258MOL0     C34709   2.726   5.278   8.077  0.1517  0.5891  0.5384
  258MOL0     C34710   2.665   5.205   8.201 -0.2022 -1.1491  0.0774
  258MOL0     C34711   2.510   5.220   8.220 -0.5079 -0.0012 -0.2008
  258MOL0     N34712   2.445   5.152   8.107  0.1412 -0.6595  0.3084
  258MOL0     C34713   2.353   5.054   8.113 -0.2640  0.1991  0.8779
  258MOL0     C34714   2.290   5.044   7.997 -0.5088  0.3259 -0.2934
  258MOL0     C34715   2.203   4.926   7.952 -0.9764  0.3878 -0.8633
  258MOL0     C34716   2.191   4.817   8.057 -0.0610 -0.6320  0.0387
  258MOL0     C34717   2.124   4.701   7.996 -0.3675  0.3954 -0.0296
  258MOL0     C34718   2.135   4.574   8.083  0.2021  0.6604 -1.1090
  258MOL0     O34719   2.060   4.463   8.026 -0.0918 -0.3733  0.2201
  258MOL0     C34720   1.927   4.439   8.045 -0.2262 -0.3763  0.4025
  258MOL0     C34721   1.870   4.320   8.003 -0.5775 -1.0530  0.2066
  258MOL0     C34722   1.729   4.297   8.009 -0.1358  0.2802  0.3275
  258MOL0     C34723   1.671   4.160   7.985 -0.1604 -0.0533 -0.8447
  258MOL0     C34724   1.648   4.407   8.047 -0.9597 -0.3038 -0.6071
  258MOL0     C34725   1.498   4.420   8.038 -1.0080  0.1811 -0.4012
  258MOL0     O34726   1.433   4.312   7.967 -0.0371 -0.1546 -0.3043
  258MOL0     C34727   1.300   4.308   7.967  0.1468 -1.0115  1.4705
  258MOL0     C34728   1.235   4.211   8.035  0.0450  0.5708  0.1919
  258MOL0     C34729   1.097   4.193   8.024 -0.5041  0.1960 -0.8259
  258MOL0     C34730   1.013   4.265   7.939 -0.8216 -0.6729 -0.0349
  258MOL0     O34731   0.880   4.232   7.927  0.0146 -0.2102  0.8350
  258MOL0     C34732   0.790   4.325   7.864 -0.5562  0.0045 -0.9032
  258MOL0     C34733   0.667   4.242   7.828 -0.1655 -0.4443 -0.2855
  258MOL0     C34734   0.569   4.221   7.952 -0.0060 -0.3445 -0.4250
  258MOL0     C34735   0.453   4.132   7.911 -0.4881 -0.7566  0.3116
  258MOL0     C34736   0.337   4.156   8.010  0.2263  0.0560  0.6425
  258MOL0     C34737   0.221   4.071   7.968  0.4682  0.4826  0.4568
  258MOL0     C34738   0.089   4.140   7.995 -0.3901 -0.3359  0.2387
  258MOL0     C34739   0.044   4.223   7.884 -0.1395 -0.3068 -0.6481
  258MOL0    Cl34740  -0.091   4.331   7.938 -0.4478 -0.2220 -0.1507
  258MOL0     C34741   1.083   4.365   7.862  0.3549  0.6270 -0.8166
  258MOL0     C34742   1.225   4.382   7.879 -0.1592  0.2242  0.3695
  258MOL0     O34743   1.442   4.518   8.091 -0.1170  0.0396  0.3513
  258MOL0     C34744   1.711   4.519   8.109  0.5234  0.1209  0.4874
  258MOL0     C34745   1.847   4.539   8.110  0.5555  0.0284  0.3790
  258MOL0     N34746   2.348   5.143   7.922  0.3503  0.1280 -0.1776
  258MOL0     N34747   2.445   5.203   7.985  0.1611 -0.4436  0.1146
  258MOL0     C34748   3.180   5.850   8.326  0.4490  1.3671  0.6102
  258MOL0     C34749   3.317   5.854   8.340  0.1624 -0.4572 -0.6039
  258MOL0     C34750   3.724   6.045   8.196 -0.0914  0.8532  0.1780
  258MOL0     C34751   3.784   6.170   8.211 -0.2930  0.3826  1.1959
  258MOL0     C34752   3.920   6.193   8.226 -1.4612  0.0397 -0.8883
  258MOL0     C34753   4.013   6.086   8.234 -0.4762  1.0614  0.7469
  258MOL0     O34754   4.148   6.104   8.245  0.2641  0.2587 -0.2349
  258MOL0     C34755   4.211   6.066   8.374  0.1725 -0.2381 -0.5961
  258MOL0     C34756   4.304   6.177   8.413  0.7266  0.0221 -0.8686
  258MOL0     C34757   4.228   6.316   8.438  1.1147  0.4989 -0.3998
  258MOL0     C34758   4.286   6.426   8.526  0.3547 -0.3761 -0.2686
  258MOL0     C34759   4.414   6.461   8.460 -0.0459 -0.4044  0.3985
  258MOL0     C34760   4.526   6.487   8.423  0.1785  0.0857 -0.4273
  258MOL0     C34761   3.950   5.959   8.225 -0.6886  0.4527 -0.5790
  258MOL0     C34762   3.818   5.935   8.196  0.0694 -0.3374 -0.5537
  258MOL0     H34763   3.381   5.909   8.019 -0.7274  0.2023  0.4267
  258MOL0     H34764   3.149   5.862   7.996  1.2336 -0.1118 -0.1820
  258MOL0     H34765   2.967   5.656   8.321  1.1011  0.7494 -2.6238
  258MOL0     H34766   2.912   5.807   8.389 -1.6723  0.0625 -0.6519
  258MOL0     H34767   2.704   5.691   8.364 -0.7791 -0.3331 -0.4976
  258MOL0     H34768   2.712   5.833   8.279  1.8565  1.3833 -0.5052
  258MOL0     H34769   2.604   5.656   8.145 -0.2432  3.3326 -0.9589
  258MOL0     H34770   2.748   5.708   8.070 -1.1003  0.0070  0.0956
  258MOL0     H34771   2.862   5.503   8.146  0.5646  2.6010 -2.9931
  258MOL0     H34772   2.717   5.481   8.263  1.6611  1.7617  0.8706
  258MOL0     H34773   2.573   5.437   8.062 -0.9670 -1.7071  0.4137
  258MOL0     H34774   2.697   5.456   7.950 -1.5668  1.9585  0.4449
  258MOL0     H34775   2.707   5.219   7.987  0.3179  1.5964 -0.1788
  258MOL0     H34776   2.836   5.279   8.081  0.2681 -2.6592  1.2979
  258MOL0     H34777   2.681   5.098   8.185 -2.3579 -1.6665  0.9428
  258MOL0     H34778   2.721   5.233   8.291 -1.1551 -1.2850  0.7412
  258MOL0     H34779   2.487   5.324   8.245  0.8649 -0.2816  2.5887
  258MOL0     H34780   2.482   5.165   8.310 -1.0645  0.3180 -0.1800
  258MOL0     H34781   2.343   4.980   8.192  1.4022 -1.0667 -0.0531
  258MOL0     H34782   2.097   4.952   7.942 -1.3987 -1.4459 -1.5420
  258MOL0     H34783   2.232   4.895   7.851  0.3094 -1.1951 -0.0395
  258MOL0     H34784   2.137   4.855   8.145 -0.6912 -0.4869 -0.4041
  258MOL0     H34785   2.296   4.796   8.080  0.6503  1.1550 -1.3514
  258MOL0     H34786   2.177   4.685   7.902 -0.0353 -1.8338  0.4917
  258MOL0     H34787   2.021   4.729   7.973 -0.2480  0.5051 -0.4563
  258MOL0     H34788   2.083   4.589   8.178  0.3497 -2.0293 -0.5400
  258MOL0     H34789   2.237   4.538   8.101 -0.3446 -0.4126 -0.0861
  258MOL0     H34790   1.926   4.235   7.966  0.4920 -0.9433  1.4890
  258MOL0     H34791   1.733   4.091   8.044 -0.9906  1.6424  2.2059
  258MOL0     H34792   1.567   4.141   8.014 -0.2195 -1.5921 -1.9009
  258MOL0     H34793   1.686   4.145   7.878  0.1278  1.8113 -1.1033
  258MOL0     H34794   1.295   4.144   8.097  0.1212 -0.4449 -0.9397
  258MOL0     H34795   1.056   4.120   8.092  0.1545  2.3595  2.0922
  258MOL0     H34796   0.764   4.389   7.949 -0.3127  0.2329 -0.9959
  258MOL0     H34797   0.814   4.381   7.774 -1.1434  1.5202 -0.1542
  258MOL0     H34798   0.620   4.283   7.739  2.2261  1.3608 -0.8368
  258MOL0     H34799   0.709   4.146   7.796  0.5046  0.3479 -1.8713
  258MOL0     H34800   0.520   4.314   7.980 -1.7491 -1.6793  1.2518
  258MOL0     H34801   0.623   4.177   8.036 -1.4629  0.7070  1.1235
  258MOL0     H34802   0.420   4.157   7.810  0.9602 -1.1225 -0.2922
  258MOL0     H34803   0.475   4.025   7.920  0.6036 -0.5241  0.5900
  258MOL0     H34804   0.309   4.262   8.004 -0.1936 -0.0681  0.3830
  258MOL0     H34805   0.361   4.147   8.116 -1.3039 -1.0021  0.9332
  258MOL0     H34806   0.218   4.048   7.861 -0.3411  0.4805  0.4718
  258MOL0     H34807   0.228   3.975   8.018 -0.7714 -0.0251 -0.2807
  258MOL0     H34808   0.107   4.207   8.079 -0.5427  1.3176 -1.0010
  258MOL0     H34809   0.020   4.060   8.024  0.2289 -0.4775  1.3712
  258MOL0     H34810   0.005   4.166   7.800 -1.0695  0.0429 -0.4634
  258MOL0     H34811   0.118   4.294   7.845 -1.2619  1.3602  0.1271
  258MOL0     H34812   1.022   4.429   7.800 -1.1610 -1.6881 -1.8407
  258MOL0     H34813   1.284   4.438   7.806  2.7026 -0.1243  2.2581
  258MOL0     H34814   1.650   4.601   8.147  0.9404  0.0760  1.2786
  258MOL0     H34815   1.890   4.629   8.151 -0.7038  0.8142  0.0310
  258MOL0     H34816   3.118   5.828   8.413 -1.1142  0.7713 -0.6172
  258MOL0     H34817   3.346   5.835   8.443 -0.5608 -2.4937 -0.7132
  258MOL0     H34818   3.723   6.260   8.211  0.3254  0.8143  0.6280
  258MOL0     H34819   3.982   6.279   8.244 -3.3173  1.5293 -1.3097
  258MOL0     H34820   4.135   6.061   8.453 -1.2182 -0.6468 -1.9133
  258MOL0     H34821   4.262   5.970   8.368 -0.5760 -0.7001  0.1686
  258MOL0     H34822   4.377   6.205   8.336  0.7742  0.5320 -0.6386
  258MOL0     H34823   4.373   6.162   8.497 -1.1047 -0.1975  0.6493
  258MOL0     H34824   4.136   6.294   8.493  0.6878  1.7815 -0.5651
  258MOL0     H34825   4.204   6.365   8.343  3.3532  1.2231 -0.6518
  258MOL0     H34826   4.310   6.386   8.625 -1.1389 -0.5283  0.0499
  258MOL0     H34827   4.221   6.514   8.526  1.8558  0.8550 -3.2066
  258MOL0     H34828   4.627   6.519   8.412 -0.4737  1.8338 -1.8702
  258MOL0     H34829   4.019   5.877   8.238  0.1469  0.7820 -2.5898
  258MOL0     H34830   3.780   5.835   8.181 -2.1153  0.0846  1.4869
  259MOL0     O34831   3.683   4.263   4.151 -0.3531  0.9837 -0.4525
  259MOL0     C34832   3.725   4.309   4.256  0.5168  0.1966 -0.1171
  259MOL0     O34833   3.648   4.348   4.367  0.4712 -0.0537 -0.1975
  259MOL0     C34834   3.525   4.290   4.388 -0.5120  0.0410  0.3989
  259MOL0     C34835   3.482   4.164   4.347 -0.3826 -0.3567  0.3575
  259MOL0     C34836   3.349   4.129   4.381  0.8170  0.2582  0.8520
  259MOL0     C34837   3.267   4.212   4.459 -0.2423  0.2135 -0.4723
  259MOL0     O34838   3.138   4.167   4.486 -0.3287  0.1145 -0.2646
  259MOL0     C34839   3.031   4.244   4.542 -0.6041 -0.2302  0.0397
  259MOL0     C34840   2.898   4.169   4.524 -0.4365 -0.8270 -0.4040
  259MOL0     C34841   2.784   4.274   4.526 -0.4250  1.4579  0.1302
  259MOL0     C34842   2.645   4.210   4.509  0.0251  0.2720  0.2528
  259MOL0     C34843   2.537   4.310   4.475  0.3016 -0.3518  0.3698
  259MOL0     C34844   2.532   4.431   4.565 -0.2170 -0.5783  0.0142
  259MOL0     C34845   2.524   4.391   4.716  0.6923 -0.0168  0.2410
  259MOL0     C34846   2.474   4.521   4.796 -0.4242  0.6983  0.9854
  259MOL0     N34847   2.328   4.549   4.784  0.3349 -0.1094  0.0978
  259MOL0     C34848   2.277   4.674   4.788  0.3118 -0.0641 -0.7590
  259MOL0     C34849   2.142   4.655   4.793  0.7589  0.7162 -0.9043
  259MOL0     C34850   2.038   4.760   4.829 -0.7663 -0.3216 -0.2462
  259MOL0     C34851   1.901   4.716   4.891 -1.0110 -0.2119  0.7695
  259MOL0     C34852   1.810   4.842   4.910  0.3233  0.2926  0.4999
  259MOL0     C34853   1.708   4.813   5.017 -0.3696  0.2371 -0.5228
  259MOL0     O34854   1.601   4.737   4.970  0.0336  0.4034  0.2990
  259MOL0     C34855   1.478   4.753   5.020 -0.1497  0.5147  0.6218
  259MOL0     C34856   1.448   4.817   5.142  0.3156  0.3501 -0.1880
  259MOL0     C34857   1.315   4.856   5.178  0.0825  0.3563 -0.2285
  259MOL0     C34858   1.290   4.926   5.305 -1.0127  0.0364 -0.3381
  259MOL0     C34859   1.202   4.807   5.096 -0.7833 -0.6828 -0.0931
  259MOL0     C34860   1.061   4.853   5.106 -0.4234 -0.2788  0.1851
  259MOL0     O34861   1.024   4.905   5.224  0.2050  0.4457  0.6194
  259MOL0     C34862   0.897   4.951   5.233  0.3026  0.1330  0.4605
  259MOL0     C34863   0.786   4.870   5.198 -0.0891  0.2672  0.3418
  259MOL0     C34864   0.655   4.919   5.203 -0.4243  0.3708 -1.0323
  259MOL0     C34865   0.624   5.042   5.244 -0.0698  0.6226 -0.1748
  259MOL0     O34866   0.491   5.083   5.244 -0.1647  0.3974 -1.0476
  259MOL0     C34867   0.470   5.222   5.265 -0.7467 -0.5167  0.3197
  259MOL0     C34868   0.323   5.245   5.251 -1.1200  0.0060  0.6341
  259MOL0     C34869   0.271   5.241   5.111  0.8766 -0.3296 -1.6821
  259MOL0     C34870   0.165   5.353   5.090 -0.5119 -0.4120 -0.3255
  259MOL0     C34871   0.073   5.317   4.973 -0.5398 -0.2887 -0.0734
  259MOL0     C34872  -0.030   5.424   4.946 -0.5110 -0.1177  0.2228
  259MOL0     C34873  -0.094   5.425   4.816 -0.6599  0.7289 -0.3782
  259MOL0     C34874  -0.187   5.304   4.803 -0.0751  0.8258 -0.1719
  259MOL0    Cl34875  -0.112   5.141   4.815 -0.2695 -0.2308 -0.2063
  259MOL0     C34876   0.735   5.126   5.272  0.3475 -0.7186  0.5086
  259MOL0     C34877   0.865   5.078   5.271 -0.1083 -0.5484  0.2564
  259MOL0     O34878   0.996   4.858   5.000  0.5076 -0.1985 -0.8259
  259MOL0     C34879   1.234   4.733   4.986 -0.1193 -0.0620 -0.0622
  259MOL0     C34880   1.367   4.702   4.952 -0.1467  0.0089  1.3086
  259MOL0     N34881   2.112   4.519   4.804 -0.3086  0.3242  0.4982
  259MOL0     N34882   2.225   4.456   4.787 -0.0329  0.6572 -1.0141
  259MOL0     C34883   3.321   4.331   4.514 -0.3155  0.6979 -0.3257
  259MOL0     C34884   3.445   4.362   4.479  0.5031  0.2533 -0.2037
  259MOL0     C34885   3.870   4.339   4.259 -0.7962  0.3079 -0.0928
  259MOL0     C34886   3.927   4.394   4.382 -0.6111 -0.9476 -0.1999
  259MOL0     C34887   4.060   4.429   4.381 -0.1828 -0.8180 -0.0095
  259MOL0     C34888   4.146   4.396   4.279  0.1580 -0.7286  0.1948
  259MOL0     O34889   4.273   4.445   4.281 -0.0833  0.5026  0.1573
  259MOL0     C34890   4.367   4.418   4.181 -0.0179 -0.5194 -0.1925
  259MOL0     C34891   4.501   4.407   4.251 -0.5012  0.8384  0.2649
  259MOL0     C34892   4.538   4.537   4.325  0.6837 -0.0369 -0.0642
  259MOL0     C34893   4.682   4.581   4.311  0.8457  0.0494  0.2506
  259MOL0     C34894   4.692   4.693   4.399  0.3115 -0.2782  0.0094
  259MOL0     C34895   4.697   4.781   4.475  0.4636 -0.0407 -0.4164
  259MOL0     C34896   4.091   4.329   4.164  0.8820  0.4588 -0.0132
  259MOL0     C34897   3.956   4.298   4.151  0.0660 -0.5008  0.7611
  259MOL0     H34898   3.547   4.091   4.299  1.1602  1.2804 -0.1697
  259MOL0     H34899   3.303   4.042   4.336  2.5021  0.9586 -2.6104
  259MOL0     H34900   3.044   4.251   4.650 -1.0767 -2.5265  0.3017
  259MOL0     H34901   3.037   4.344   4.499 -0.1820  0.6225  1.9807
  259MOL0     H34902   2.883   4.102   4.439  0.4865 -2.2893  0.5432
  259MOL0     H34903   2.887   4.093   4.602 -3.0525  1.2846  1.5077
  259MOL0     H34904   2.797   4.333   4.618 -0.4060  0.6234  0.6767
  259MOL0     H34905   2.800   4.336   4.438  0.7381  0.9393 -0.0379
  259MOL0     H34906   2.644   4.139   4.426  0.6467  0.5626 -0.0121
  259MOL0     H34907   2.610   4.162   4.601 -2.9580  3.4171  0.9458
  259MOL0     H34908   2.539   4.343   4.371 -2.4620 -0.5093  0.2102
  259MOL0     H34909   2.437   4.268   4.490  0.0071 -0.0780 -0.7344
  259MOL0     H34910   2.625   4.489   4.556 -1.1108  0.6273 -2.4803
  259MOL0     H34911   2.445   4.494   4.542  0.5144  0.6880  0.6086
  259MOL0     H34912   2.462   4.301   4.724  2.4767 -1.2327  0.9587
  259MOL0     H34913   2.623   4.379   4.760  0.9469  0.0518 -0.3085
  259MOL0     H34914   2.532   4.602   4.750 -3.6153  2.4123 -0.4630
  259MOL0     H34915   2.488   4.504   4.903 -2.4365  1.2312  1.3780
  259MOL0     H34916   2.323   4.772   4.797 -0.5217  0.1554  2.0465
  259MOL0     H34917   2.087   4.833   4.893 -0.5747 -0.7171  0.0674
  259MOL0     H34918   2.010   4.808   4.735 -4.2002  0.1395  0.8918
  259MOL0     H34919   1.919   4.668   4.988 -1.2396 -1.3962  0.2445
  259MOL0     H34920   1.859   4.646   4.818  1.9749 -0.8768 -0.4564
  259MOL0     H34921   1.770   4.877   4.815 -1.0108  0.6490  1.1637
  259MOL0     H34922   1.862   4.932   4.943 -0.4426  1.3717 -1.1077
  259MOL0     H34923   1.686   4.910   5.063  1.2853  1.4384 -2.1295
  259MOL0     H34924   1.755   4.764   5.103 -1.2405 -1.7664 -1.1261
  259MOL0     H34925   1.534   4.847   5.202 -0.1145 -0.3766  0.8218
  259MOL0     H34926   1.385   4.952   5.353 -1.1186 -0.7530  0.3230
  259MOL0     H34927   1.246   5.023   5.281  1.7464  1.1476 -1.2542
  259MOL0     H34928   1.232   4.862   5.373  1.7671 -3.5812 -1.0366
  259MOL0     H34929   0.815   4.770   5.167  0.0380 -0.0732  1.4893
  259MOL0     H34930   0.569   4.867   5.162 -0.5866  2.1242 -3.0737
  259MOL0     H34931   0.506   5.267   5.358  1.8413  1.2567 -1.3820
  259MOL0     H34932   0.519   5.269   5.179 -0.5994  2.4001  1.8696
  259MOL0     H34933   0.265   5.171   5.307 -1.2100 -0.8760 -0.5786
  259MOL0     H34934   0.300   5.346   5.286  1.5354  1.4660 -1.4761
  259MOL0     H34935   0.234   5.139   5.094 -1.2600  0.2800 -0.9978
  259MOL0     H34936   0.354   5.263   5.043  3.0792  3.0075  1.7132
  259MOL0     H34937   0.096   5.362   5.174 -0.4486 -2.1677 -0.0496
  259MOL0     H34938   0.213   5.448   5.066  0.6986 -0.6990  0.8900
  259MOL0     H34939   0.030   5.221   5.004 -0.8322  0.0272  0.5093
  259MOL0     H34940   0.127   5.297   4.880 -1.3871  0.2441 -0.7052
  259MOL0     H34941  -0.118   5.420   5.011 -2.1523 -0.2780 -1.8895
  259MOL0     H34942   0.010   5.525   4.944 -0.2758 -0.2190 -1.9595
  259MOL0     H34943  -0.013   5.425   4.742 -1.1979  1.3212 -0.9867
  259MOL0     H34944  -0.151   5.517   4.800 -1.4492  0.3736  0.3453
  259MOL0     H34945  -0.225   5.306   4.700  3.1559  5.2657 -1.5647
  259MOL0     H34946  -0.255   5.308   4.889  0.7301 -0.1254  0.5313
  259MOL0     H34947   0.726   5.233   5.286 -0.7154 -0.6818 -0.3004
  259MOL0     H34948   0.954   5.139   5.283 -0.0509 -0.8069  1.2513
  259MOL0     H34949   1.144   4.700   4.934 -0.9537 -1.2591  2.0105
  259MOL0     H34950   1.386   4.640   4.865 -0.9800 -0.8347  1.7139
  259MOL0     H34951   3.252   4.387   4.577 -1.0107  0.9590 -1.2874
  259MOL0     H34952   3.490   4.453   4.519  1.0842  0.1095 -0.5247
  259MOL0     H34953   3.860   4.417   4.465 -0.7097  1.4307 -0.8706
  259MOL0     H34954   4.103   4.491   4.460  4.5652 -0.0365 -2.7897
  259MOL0     H34955   4.344   4.328   4.124 -1.8989 -0.2516  0.0922
  259MOL0     H34956   4.357   4.499   4.108 -2.6047 -1.0252 -0.4988
  259MOL0     H34957   4.580   4.382   4.180 -1.0282  0.2429 -0.1162
  259MOL0     H34958   4.507   4.326   4.324  1.0072 -1.3643 -2.1548
  259MOL0     H34959   4.496   4.522   4.425 -3.9568 -1.0889 -1.9263
  259MOL0     H34960   4.467   4.609   4.284 -0.4145 -0.5242  0.9259
  259MOL0     H34961   4.703   4.608   4.207  3.4338  1.3859  1.0161
  259MOL0     H34962   4.749   4.501   4.343 -1.3574 -2.4320 -0.9831
  259MOL0     H34963   4.701   4.858   4.551  2.0165 -1.9551  1.5817
  259MOL0     H34964   4.151   4.310   4.075  2.3946  2.1390  0.6065
  259MOL0     H34965   3.930   4.249   4.057  1.5388 -1.7134  0.9444
  260MOL0     O34966   3.851   6.585   5.767 -0.4021 -0.2450  0.2598
  260MOL0     C34967   3.953   6.550   5.825  0.1494 -0.3580 -0.4311
  260MOL0     O34968   3.956   6.486   5.946 -0.1637 -1.3186 -0.7177
  260MOL0     C34969   3.862   6.420   6.015 -0.1845  0.7826 -0.4918
  260MOL0     C34970   3.739   6.372   5.969 -1.1935 -1.1518 -0.3181
  260MOL0     C34971   3.658   6.286   6.047  0.0416  0.3301 -0.7535
  260MOL0     C34972   3.688   6.273   6.185 -0.1213  0.0947 -0.6024
  260MOL0     O34973   3.603   6.189   6.257  0.1203 -0.1817  0.3492
  260MOL0     C34974   3.480   6.253   6.284  0.0721 -0.1284 -0.3843
  260MOL0     C34975   3.420   6.171   6.398  0.3819 -0.0257  0.0052
  260MOL0     C34976   3.272   6.206   6.423 -1.5640  0.0958  0.5350
  260MOL0     C34977   3.193   6.128   6.528 -0.4936 -0.2028  0.4853
  260MOL0     C34978   3.067   6.206   6.587 -0.4590 -0.8794  0.8125
  260MOL0     C34979   2.970   6.224   6.467  0.4992  0.0784  0.4355
  260MOL0     C34980   2.850   6.312   6.502 -0.0598 -0.0173  0.0825
  260MOL0     C34981   2.782   6.287   6.633 -0.9106  0.2600 -0.1506
  260MOL0     N34982   2.712   6.156   6.634 -0.0438 -0.4835  0.1754
  260MOL0     C34983   2.573   6.131   6.638 -0.7083  0.1746 -0.1353
  260MOL0     C34984   2.561   5.993   6.648 -0.4038  0.9849 -0.5725
  260MOL0     C34985   2.431   5.920   6.666 -0.7688 -0.4145  0.2425
  260MOL0     C34986   2.338   5.991   6.770 -0.0733  0.1035  0.6252
  260MOL0     C34987   2.208   5.911   6.822  0.8452  0.0905 -0.5453
  260MOL0     C34988   2.117   5.872   6.704  0.0743  0.5664 -0.0649
  260MOL0     O34989   2.081   5.990   6.628  0.0126 -0.5347  0.3028
  260MOL0     C34990   1.964   6.048   6.678 -0.5009 -0.1134  1.3300
  260MOL0     C34991   1.840   6.019   6.618  0.3083 -0.4720 -0.1656
  260MOL0     C34992   1.728   6.083   6.668 -0.7180  0.1277 -0.2886
  260MOL0     C34993   1.590   6.052   6.604  0.0106  0.3246  0.4749
  260MOL0     C34994   1.748   6.190   6.775 -0.2463 -0.0746 -0.1698
  260MOL0     C34995   1.641   6.291   6.814 -0.1476 -0.1393  0.4066
  260MOL0     O34996   1.532   6.300   6.736 -0.0996  0.3023 -0.3310
  260MOL0     C34997   1.426   6.329   6.811  0.0164  0.1052 -0.3286
  260MOL0     C34998   1.365   6.224   6.877  0.3186 -0.3503 -0.5528
  260MOL0     C34999   1.260   6.244   6.965  0.1866  0.0736 -0.2468
  260MOL0     C35000   1.202   6.372   6.976 -0.0118  0.4898 -0.3313
  260MOL0     O35001   1.103   6.387   7.067 -0.0756  0.7334  0.0949
  260MOL0     C35002   1.069   6.523   7.093  0.9683  0.4637 -0.4491
  260MOL0     C35003   0.954   6.530   7.199 -0.3096 -0.1698 -0.8288
  260MOL0     C35004   0.994   6.467   7.337  0.6694  0.5892 -0.1004
  260MOL0     C35005   1.004   6.311   7.345  1.2412  0.0049  0.3461
  260MOL0     C35006   0.963   6.282   7.491  0.1080  0.2370  0.3338
  260MOL0     C35007   0.845   6.184   7.503  0.3966  0.8656  1.1950
  260MOL0     C35008   0.881   6.046   7.443 -0.2550 -0.6433 -0.1147
  260MOL0     C35009   0.939   5.943   7.542 -0.0459  0.5971  0.0828
  260MOL0    Cl35010   1.073   6.013   7.638  0.3493  0.1013  0.0398
  260MOL0     C35011   1.267   6.480   6.908  0.0358  0.0741 -0.1931
  260MOL0     C35012   1.377   6.459   6.825  0.0911 -1.0963  0.8329
  260MOL0     O35013   1.671   6.365   6.915  0.5414  0.8812  0.1571
  260MOL0     C35014   1.875   6.217   6.822  0.2673 -0.5292 -0.1779
  260MOL0     C35015   1.981   6.144   6.779 -0.6503 -0.8115  0.6973
  260MOL0     N35016   2.686   5.940   6.640 -0.2430  0.1846 -0.3698
  260MOL0     N35017   2.774   6.036   6.644 -0.7940 -0.4584 -0.4657
  260MOL0     C35018   3.804   6.333   6.237  0.4193  0.9464 -0.1234
  260MOL0     C35019   3.886   6.404   6.148 -0.7612  0.3790  0.4844
  260MOL0     C35020   4.090   6.580   5.777  0.9611 -0.1848  0.1612
  260MOL0     C35021   4.208   6.516   5.832  0.3638 -0.7895  0.1830
  260MOL0     C35022   4.327   6.556   5.774  1.4173 -0.2372  0.2021
  260MOL0     C35023   4.338   6.657   5.674  1.3462 -0.1765  0.2092
  260MOL0     O35024   4.456   6.687   5.618  0.4478  0.3559 -0.4404
  260MOL0     C35025   4.567   6.670   5.703 -0.2879  0.3726  0.0194
  260MOL0     C35026   4.678   6.756   5.660  0.0534  0.3409 -0.1802
  260MOL0     C35027   4.656   6.910   5.691 -1.5810  0.0175 -0.1672
  260MOL0     C35028   4.765   6.975   5.778  0.0713 -0.6568  1.1819
  260MOL0     C35029   4.781   6.902   5.904 -0.2008  0.1849 -0.6068
  260MOL0     C35030   4.783   6.834   6.006 -0.1390  0.7646 -0.0261
  260MOL0     C35031   4.224   6.711   5.620  0.0788 -0.0467 -0.1513
  260MOL0     C35032   4.096   6.671   5.667 -0.3073 -0.9360 -0.4415
  260MOL0     H35033   3.717   6.373   5.863  2.2902  2.5153 -1.2558
  260MOL0     H35034   3.568   6.257   5.994 -0.6037 -0.9346  0.9583
  260MOL0     H35035   3.505   6.354   6.316 -1.0361  0.4332 -1.2137
  260MOL0     H35036   3.410   6.248   6.200 -3.7076 -0.7439  2.5369
  260MOL0     H35037   3.428   6.064   6.379  0.1537  0.1322 -1.0880
  260MOL0     H35038   3.486   6.196   6.481  0.2250 -1.7267  0.6755
  260MOL0     H35039   3.280   6.310   6.455  3.3185  0.2467 -0.3197
  260MOL0     H35040   3.219   6.191   6.329 -2.5674  0.2843  1.0624
  260MOL0     H35041   3.160   6.028   6.500 -0.4434 -0.3326  0.8823
  260MOL0     H35042   3.256   6.102   6.614  3.0495 -1.8969 -2.3756
  260MOL0     H35043   3.030   6.146   6.670 -1.2207 -2.2111 -0.4470
  260MOL0     H35044   3.104   6.303   6.623 -3.1276  0.5040  0.0346
  260MOL0     H35045   3.029   6.258   6.381 -0.3285  1.3918  0.3491
  260MOL0     H35046   2.932   6.126   6.440 -1.0727  0.2041  2.0107
  260MOL0     H35047   2.890   6.414   6.495 -1.0749  0.3739 -0.1523
  260MOL0     H35048   2.779   6.302   6.421  1.1576 -1.3916 -0.8632
  260MOL0     H35049   2.717   6.370   6.662  0.7543  1.5173  0.0669
  260MOL0     H35050   2.850   6.283   6.718 -0.3974 -1.0974 -0.6063
  260MOL0     H35051   2.509   6.217   6.621  0.3279  0.9818 -0.0258
  260MOL0     H35052   2.379   5.912   6.570 -1.2850 -1.3372  0.5824
  260MOL0     H35053   2.456   5.816   6.688 -1.3557 -0.5966  0.0881
  260MOL0     H35054   2.307   6.092   6.741 -1.0544 -0.6639 -1.1381
  260MOL0     H35055   2.397   5.994   6.862  1.0930  1.7749 -0.1379
  260MOL0     H35056   2.154   5.966   6.899 -0.9284  0.0655 -1.7106
  260MOL0     H35057   2.243   5.814   6.859  2.4787 -0.1374 -2.4904
  260MOL0     H35058   2.025   5.826   6.743 -0.1033  0.5211 -0.5270
  260MOL0     H35059   2.177   5.801   6.646  2.6222  0.3997  2.5732
  260MOL0     H35060   1.831   5.947   6.538 -0.7360 -4.4194  3.1900
  260MOL0     H35061   1.549   6.132   6.542  1.0977  0.5962  0.0851
  260MOL0     H35062   1.587   5.965   6.538 -2.3627 -0.6250  1.7127
  260MOL0     H35063   1.529   6.031   6.693  0.8377  2.5602  1.6453
  260MOL0     H35064   1.403   6.122   6.875  2.1118  0.2970 -1.7801
  260MOL0     H35065   1.217   6.163   7.022  2.8530 -0.9493  0.4829
  260MOL0     H35066   1.148   6.571   7.152 -0.5850 -1.1600  3.3497
  260MOL0     H35067   1.038   6.584   7.008  0.4792 -0.0823 -0.6679
  260MOL0     H35068   0.928   6.634   7.221  0.6228 -0.3253  1.2280
  260MOL0     H35069   0.873   6.470   7.156  0.5593 -0.6796 -1.7883
  260MOL0     H35070   0.911   6.508   7.395 -2.0740 -2.7637 -1.3492
  260MOL0     H35071   1.090   6.502   7.377  2.1238 -2.5420 -0.5846
  260MOL0     H35072   0.940   6.262   7.271  1.4768  0.9646 -0.5172
  260MOL0     H35073   1.108   6.280   7.329  0.8369 -0.1028 -2.8516
  260MOL0     H35074   0.950   6.365   7.561  0.2538 -0.3892  1.1165
  260MOL0     H35075   1.052   6.235   7.535  0.9752  2.6497  1.2823
  260MOL0     H35076   0.811   6.176   7.606  0.8978 -0.9623  1.2508
  260MOL0     H35077   0.766   6.230   7.443  1.2485  1.0068  0.1397
  260MOL0     H35078   0.939   6.070   7.353 -3.1402 -0.7021 -2.1116
  260MOL0     H35079   0.789   5.996   7.411 -1.0597  1.7162 -1.6909
  260MOL0     H35080   0.970   5.855   7.484 -2.2141 -0.4331  0.4026
  260MOL0     H35081   0.860   5.913   7.611 -0.0446  2.4568  0.9443
  260MOL0     H35082   1.204   6.568   6.911 -0.2622 -0.0839 -1.4042
  260MOL0     H35083   1.417   6.547   6.776 -1.3528 -2.0642 -2.3786
  260MOL0     H35084   1.881   6.293   6.899 -1.1735  0.4075 -0.9566
  260MOL0     H35085   2.082   6.161   6.814 -1.0298  3.7165  0.2283
  260MOL0     H35086   3.833   6.315   6.340  1.8082 -0.3150 -0.6976
  260MOL0     H35087   3.972   6.457   6.188 -2.5429  3.3700  0.6914
  260MOL0     H35088   4.193   6.438   5.906 -2.2598 -2.2332 -1.7221
  260MOL0     H35089   4.411   6.495   5.805  0.6905 -0.2952  2.2544
  260MOL0     H35090   4.537   6.704   5.803  2.5973  2.5489  0.2901
  260MOL0     H35091   4.604   6.567   5.702  1.2257  0.7563  3.1633
  260MOL0     H35092   4.700   6.746   5.553  2.3789 -2.4958  0.4393
  260MOL0     H35093   4.768   6.715   5.707 -1.4855  0.2879  2.9773
  260MOL0     H35094   4.564   6.932   5.745 -1.2706 -0.6711  0.6598
  260MOL0     H35095   4.650   6.973   5.602 -3.2501 -0.3764 -0.3670
  260MOL0     H35096   4.743   7.081   5.798  3.7212  1.2913 -3.1339
  260MOL0     H35097   4.862   6.983   5.728 -0.2391 -3.4540 -0.0240
  260MOL0     H35098   4.793   6.786   6.101 -0.8406  0.5651 -0.0515
  260MOL0     H35099   4.232   6.787   5.543 -1.3698  1.2009  0.8595
  260MOL0     H35100   4.007   6.718   5.626 -1.2871 -2.5747 -0.2673
  261MOL0     O35101   5.022   2.380   6.391  0.4161 -0.2674  0.2407
  261MOL0     C35102   5.030   2.262   6.359 -1.0519  0.3953  0.2159
  261MOL0     O35103   4.930   2.166   6.359  0.3121 -0.1570 -0.1353
  261MOL0     C35104   4.802   2.201   6.370  0.7401 -0.0302 -0.5640
  261MOL0     C35105   4.742   2.225   6.493 -1.1593 -0.0771 -0.0663
  261MOL0     C35106   4.603   2.262   6.507 -0.0491 -0.2286  0.5853
  261MOL0     C35107   4.514   2.245   6.400  0.6412  0.3957  0.7412
  261MOL0     O35108   4.383   2.226   6.429 -0.8558  0.5410 -0.4164
  261MOL0     C35109   4.298   2.162   6.335 -0.5306 -1.4192 -0.7326
  261MOL0     C35110   4.160   2.133   6.392  0.1848  0.5651 -0.1257
  261MOL0     C35111   4.067   2.255   6.400  0.7886  0.4897  0.5100
  261MOL0     C35112   3.922   2.207   6.432 -0.1825  0.0640  0.8485
  261MOL0     C35113   3.826   2.325   6.449 -0.2979 -0.0683  0.7176
  261MOL0     C35114   3.785   2.387   6.317  0.4585  0.9046  0.5328
  261MOL0     C35115   3.644   2.463   6.318  0.4557 -0.2511 -0.2747
  261MOL0     C35116   3.518   2.380   6.339  0.4019 -0.0590 -0.3094
  261MOL0     N35117   3.495   2.291   6.225  0.4968 -0.5547 -0.4622
  261MOL0     C35118   3.384   2.285   6.145 -0.4784 -0.8083  0.3045
  261MOL0     C35119   3.382   2.160   6.093 -0.5047  0.4459 -0.1315
  261MOL0     C35120   3.287   2.090   5.998  0.1353 -0.3079  0.5702
  261MOL0     C35121   3.280   2.129   5.855 -0.8825 -0.1028  0.3959
  261MOL0     C35122   3.242   2.276   5.836 -0.3549  0.6460  0.0447
  261MOL0     C35123   3.164   2.292   5.701 -0.4124 -0.1825  0.0355
  261MOL0     O35124   3.032   2.247   5.727  0.0226 -0.6470 -0.1603
  261MOL0     C35125   2.934   2.251   5.634  0.3435  0.8343 -0.4171
  261MOL0     C35126   2.966   2.268   5.494  0.6035  0.3853  0.0346
  261MOL0     C35127   2.868   2.262   5.393 -1.3787 -0.1588 -0.7615
  261MOL0     C35128   2.907   2.309   5.255 -0.2089  0.1256  0.4903
  261MOL0     C35129   2.738   2.226   5.436 -0.5059 -0.4094 -0.1762
  261MOL0     C35130   2.630   2.191   5.346  1.0378  1.0944 -0.2916
  261MOL0     O35131   2.498   2.215   5.376  0.2504 -0.1881  0.2568
  261MOL0     C35132   2.414   2.194   5.265 -1.0569  0.2165  0.5425
  261MOL0     C35133   2.399   2.308   5.186 -0.0988  0.6610 -0.2901
  261MOL0     C35134   2.316   2.310   5.073 -0.1202  0.1432  0.0017
  261MOL0     C35135   2.244   2.194   5.040 -0.5006 -0.0528 -0.0769
  261MOL0     O35136   2.147   2.198   4.936  0.7488 -0.4330  1.0931
  261MOL0     C35137   2.045   2.098   4.925 -1.3045  0.2719 -0.2703
  261MOL0     C35138   1.945   2.145   4.822  0.4433  0.1334 -0.3386
  261MOL0     C35139   1.837   2.040   4.785 -0.3235 -0.7967 -0.1104
  261MOL0     C35140   1.773   2.092   4.652  0.5764 -0.0695 -0.3631
  261MOL0     C35141   1.627   2.038   4.647  0.4775  0.1015 -0.3720
  261MOL0     C35142   1.575   2.083   4.512 -1.2047 -0.1444 -0.3006
  261MOL0     C35143   1.438   2.021   4.480 -0.6088 -0.1124  0.2747
  261MOL0     C35144   1.396   2.060   4.345 -0.2439 -0.0834 -1.1979
  261MOL0    Cl35145   1.305   1.930   4.276 -0.3117  0.3113  0.3002
  261MOL0     C35146   2.257   2.077   5.122 -0.7611 -0.4269 -0.3966
  261MOL0     C35147   2.334   2.089   5.242 -1.0443  0.9681  0.3804
  261MOL0     O35148   2.679   2.129   5.246  0.3096  0.7345  0.8552
  261MOL0     C35149   2.704   2.206   5.571  0.1171  0.5297 -0.4096
  261MOL0     C35150   2.803   2.214   5.673  0.2634 -0.5518 -0.1736
  261MOL0     N35151   3.498   2.091   6.142  0.4034  0.3428 -0.9920
  261MOL0     N35152   3.554   2.170   6.227  0.1291 -0.3446  0.8363
  261MOL0     C35153   4.581   2.207   6.281  0.2429 -0.1826 -0.5528
  261MOL0     C35154   4.723   2.184   6.264 -0.0180 -0.4423  0.5973
  261MOL0     C35155   5.166   2.210   6.330 -0.9481  0.0864  0.4324
  261MOL0     C35156   5.174   2.069   6.278 -0.2623 -1.1055 -0.1514
  261MOL0     C35157   5.303   2.025   6.228 -0.5208  0.1451 -0.4083
  261MOL0     C35158   5.420   2.101   6.249  0.1648  0.6239 -0.2528
  261MOL0     O35159   5.538   2.046   6.218 -0.3519 -0.4243  0.8208
  261MOL0     C35160   5.642   2.141   6.177  0.2420 -0.3736 -0.1349
  261MOL0     C35161   5.743   2.069   6.080  0.1314 -0.1303 -0.1516
  261MOL0     C35162   5.811   1.960   6.164 -0.5734  0.0307  0.1698
  261MOL0     C35163   5.866   1.847   6.074 -0.3787 -0.2618 -0.4516
  261MOL0     C35164   5.980   1.766   6.125  0.2941  0.1571  0.3820
  261MOL0     C35165   6.078   1.701   6.151  0.4776  0.1415 -1.0652
  261MOL0     C35166   5.408   2.236   6.297  0.2729  0.1296 -0.5356
  261MOL0     C35167   5.288   2.286   6.334 -0.4071  0.7728  0.0190
  261MOL0     H35168   4.818   2.227   6.570  0.2704  3.6124 -1.3845
  261MOL0     H35169   4.548   2.275   6.600 -3.7927 -1.0091 -1.3027
  261MOL0     H35170   4.285   2.213   6.239 -0.7029 -1.9788 -1.0115
  261MOL0     H35171   4.345   2.073   6.294  0.3857 -1.2014 -0.1726
  261MOL0     H35172   4.102   2.066   6.329 -0.3863  1.5315 -0.6471
  261MOL0     H35173   4.176   2.087   6.491  0.6424  0.2801 -0.3262
  261MOL0     H35174   4.110   2.329   6.468 -0.1712  1.0413  0.5341
  261MOL0     H35175   4.066   2.301   6.301  1.3397  0.8856  0.6812
  261MOL0     H35176   3.883   2.132   6.363  1.0538 -2.6271  2.8656
  261MOL0     H35177   3.935   2.150   6.525  3.1503 -2.6650 -1.0631
  261MOL0     H35178   3.742   2.288   6.508  1.8813 -0.3299  3.9265
  261MOL0     H35179   3.876   2.397   6.515 -3.0617  1.9213  0.8120
  261MOL0     H35180   3.860   2.458   6.282  0.4238  0.7481  0.1376
  261MOL0     H35181   3.773   2.314   6.237 -0.8976  0.8228  0.7884
  261MOL0     H35182   3.642   2.530   6.403  2.6931 -1.1363  0.5638
  261MOL0     H35183   3.614   2.518   6.228 -2.2856 -0.3879  0.4596
  261MOL0     H35184   3.432   2.445   6.359 -2.7725 -4.2113  0.7846
  261MOL0     H35185   3.525   2.316   6.428 -0.9488 -0.1665 -0.2544
  261MOL0     H35186   3.307   2.360   6.126  0.2377 -0.5735 -1.9550
  261MOL0     H35187   3.315   1.984   6.000  1.2482 -0.0182  1.8691
  261MOL0     H35188   3.184   2.100   6.033 -1.2209  2.7058 -3.5220
  261MOL0     H35189   3.201   2.069   5.809  1.3110 -2.9982  0.1109
  261MOL0     H35190   3.377   2.118   5.806 -0.2020  0.9988  1.4506
  261MOL0     H35191   3.331   2.340   5.839  0.1504 -0.0049  3.3756
  261MOL0     H35192   3.177   2.303   5.920 -0.1448 -0.2501  0.5102
  261MOL0     H35193   3.209   2.235   5.619  1.2655  4.5801 -2.7503
  261MOL0     H35194   3.164   2.396   5.666  0.6993 -1.4183 -4.2395
  261MOL0     H35195   3.062   2.296   5.452  0.3651  1.3726  0.1043
  261MOL0     H35196   2.829   2.368   5.206  0.0070 -1.7997 -2.4071
  261MOL0     H35197   3.004   2.360   5.259 -0.6662  1.0066  0.5444
  261MOL0     H35198   2.910   2.224   5.186 -1.9983 -0.3601  0.9747
  261MOL0     H35199   2.460   2.396   5.203  0.9086 -0.3252  1.4850
  261MOL0     H35200   2.305   2.401   5.014  2.0337 -0.9976 -2.3574
  261MOL0     H35201   2.085   2.002   4.891 -1.0344 -0.6956  2.5471
  261MOL0     H35202   1.992   2.083   5.020 -1.2855 -1.4168 -0.5066
  261MOL0     H35203   1.897   2.237   4.856 -1.0487  0.2327 -2.5202
  261MOL0     H35204   2.007   2.176   4.737  0.2442  2.6343  0.3692
  261MOL0     H35205   1.767   2.022   4.867  1.0052 -2.0431  0.8093
  261MOL0     H35206   1.885   1.944   4.766 -0.4401 -0.9940  0.5394
  261MOL0     H35207   1.779   2.201   4.648 -1.3215  0.0271 -2.8679
  261MOL0     H35208   1.837   2.061   4.568  3.4962  2.6664  0.6481
  261MOL0     H35209   1.561   2.085   4.720 -0.4360 -3.7592  1.5348
  261MOL0     H35210   1.633   1.929   4.658  0.8075  0.2550  1.0843
  261MOL0     H35211   1.581   2.192   4.504  2.2960 -0.0947  1.1132
  261MOL0     H35212   1.643   2.053   4.431 -3.5239 -1.0713 -2.0052
  261MOL0     H35213   1.370   2.044   4.563  1.3044  1.3426  1.5404
  261MOL0     H35214   1.460   1.914   4.473  0.7234  0.2151 -1.1512
  261MOL0     H35215   1.479   2.075   4.275 -1.8868 -1.2067 -3.5329
  261MOL0     H35216   1.334   2.150   4.344  2.1181  1.6604  0.1471
  261MOL0     H35217   2.201   1.986   5.100  0.3958 -1.2743  0.0624
  261MOL0     H35218   2.332   2.014   5.320  0.2696  0.8943  0.3651
  261MOL0     H35219   2.600   2.191   5.600  0.1945  0.1444 -0.3249
  261MOL0     H35220   2.783   2.197   5.779  2.6788 -1.0917  0.2504
  261MOL0     H35221   4.518   2.184   6.197  0.5585 -0.2794 -0.7656
  261MOL0     H35222   4.757   2.143   6.170 -0.4860  0.1044  0.1784
  261MOL0     H35223   5.083   2.010   6.264  0.1230 -1.4466 -1.3089
  261MOL0     H35224   5.324   1.923   6.198 -1.5233  0.1464 -1.1742
  261MOL0     H35225   5.595   2.229   6.132 -0.4190  0.0462  1.3081
  261MOL0     H35226   5.685   2.184   6.267  0.4478  1.0343 -0.8772
  261MOL0     H35227   5.818   2.132   6.031 -0.2453 -1.1884 -2.1709
  261MOL0     H35228   5.685   2.032   5.995 -0.4035  1.0702 -0.3364
  261MOL0     H35229   5.741   1.915   6.235 -0.9956  2.4807  1.4292
  261MOL0     H35230   5.896   1.998   6.222  1.7386  1.0177 -3.5241
  261MOL0     H35231   5.902   1.894   5.981 -1.3668  0.9156 -0.2580
  261MOL0     H35232   5.785   1.782   6.039 -0.7501 -0.4715  0.7518
  261MOL0     H35233   6.168   1.645   6.168  0.5790  0.8875  1.2158
  261MOL0     H35234   5.502   2.288   6.311  0.2238 -0.5065  3.4162
  261MOL0     H35235   5.283   2.392   6.358  1.0239  1.4825 -2.4634
  262MOL0     O35236   1.835   6.703   5.979 -0.1871 -0.3089  0.5011
  262MOL0     C35237   1.876   6.781   6.064 -0.9730 -1.1588 -0.0419
  262MOL0     O35238   1.815   6.898   6.096 -0.3587  0.3651  0.3819
  262MOL0     C35239   1.700   6.929   6.030  1.1351 -0.7027  0.0703
  262MOL0     C35240   1.577   6.895   6.097 -0.7785 -0.0425  0.5415
  262MOL0     C35241   1.454   6.925   6.030 -0.5412  0.2518 -0.4935
  262MOL0     C35242   1.453   6.982   5.901  0.2393 -0.3653 -0.6455
  262MOL0     O35243   1.336   7.016   5.841 -0.6272 -0.0284 -0.2704
  262MOL0     C35244   1.219   7.038   5.914 -0.5460  0.4303  0.2619
  262MOL0     C35245   1.218   7.148   6.023 -0.2514 -0.4742  0.0577
  262MOL0     C35246   1.215   7.281   5.962  0.4483 -0.9254 -1.0345
  262MOL0     C35247   1.209   7.380   6.078 -0.8433  0.4858 -0.2094
  262MOL0     C35248   1.242   7.527   6.046 -0.1562  0.9280  0.0593
  262MOL0     C35249   1.149   7.621   6.126 -1.1516 -0.6772  0.5276
  262MOL0     C35250   1.135   7.759   6.062  0.7217 -0.6279  0.2716
  262MOL0     C35251   1.024   7.843   6.128  0.7025  0.3381 -0.6088
  262MOL0     N35252   0.888   7.787   6.120 -0.0828  0.1357 -0.5354
  262MOL0     C35253   0.802   7.793   6.012  0.2187  0.4237 -0.2479
  262MOL0     C35254   0.689   7.722   6.043  0.9125 -1.0195 -0.4444
  262MOL0     C35255   0.580   7.692   5.951  0.0241 -0.3996  0.0545
  262MOL0     C35256   0.445   7.672   6.007  0.1673 -1.0953 -0.9018
  262MOL0     C35257   0.337   7.634   5.908 -0.0757  0.2900  0.7506
  262MOL0     C35258   0.212   7.622   5.982 -1.2536  0.0955  0.4661
  262MOL0     O35259   0.124   7.524   5.920 -0.0507 -0.8134  0.0294
  262MOL0     C35260  -0.006   7.534   5.957  0.1630  1.1451  0.0873
  262MOL0     C35261  -0.100   7.472   5.870 -1.2574 -0.9308 -1.0440
  262MOL0     C35262  -0.228   7.447   5.904  0.6809 -0.4284  0.6641
  262MOL0     C35263  -0.304   7.377   5.796 -0.2974 -0.2551  1.0308
  262MOL0     C35264  -0.281   7.488   6.028 -0.4531 -0.5893 -0.2430
  262MOL0     C35265  -0.413   7.447   6.085  0.3844 -0.1583  0.6953
  262MOL0     O35266  -0.518   7.407   5.993 -0.7524  0.4730  0.1066
  262MOL0     C35267  -0.643   7.374   6.043  0.0110  0.0457  0.3968
  262MOL0     C35268  -0.730   7.463   6.101 -0.4929 -1.0586 -0.2154
  262MOL0     C35269  -0.859   7.421   6.145 -0.2352 -0.1044  0.2392
  262MOL0     C35270  -0.896   7.291   6.133 -0.1457 -0.5007 -0.0111
  262MOL0     O35271  -1.014   7.237   6.173 -0.2403  0.4379  0.8040
  262MOL0     C35272  -1.117   7.328   6.208  0.4295 -0.0216  0.1930
  262MOL0     C35273  -1.253   7.259   6.201  0.1796 -0.0970  0.0161
  262MOL0     C35274  -1.378   7.346   6.230  0.3643  0.0128  0.5888
  262MOL0     C35275  -1.512   7.262   6.219  0.0372  0.6665  0.2080
  262MOL0     C35276  -1.510   7.130   6.302  0.2686  0.0315 -1.5285
  262MOL0     C35277  -1.659   7.085   6.340 -0.7724 -0.3791  0.1750
  262MOL0     C35278  -1.751   7.172   6.429  0.1271  0.4526 -0.0041
  262MOL0     C35279  -1.872   7.103   6.495  0.0977 -0.2054 -0.1212
  262MOL0    Cl35280  -1.970   7.012   6.379 -0.1345  0.1788  0.5301
  262MOL0     C35281  -0.808   7.204   6.076 -0.4336 -0.2598 -0.3947
  262MOL0     C35282  -0.682   7.247   6.029  0.3736  0.0649  0.8457
  262MOL0     O35283  -0.421   7.434   6.209 -0.3242 -0.1470 -0.3528
  262MOL0     C35284  -0.184   7.552   6.117 -0.2350 -0.1304  0.3947
  262MOL0     C35285  -0.053   7.581   6.076 -0.6359  0.2013  0.4078
  262MOL0     N35286   0.700   7.677   6.171  0.9504 -0.4057 -0.1570
  262MOL0     N35287   0.822   7.706   6.207  0.0990  0.4088 -0.3200
  262MOL0     C35288   1.577   7.017   5.841 -0.1426  0.5843 -0.5168
  262MOL0     C35289   1.699   6.995   5.910  0.2482  0.4315  0.5653
  262MOL0     C35290   2.008   6.767   6.123 -0.3656  0.3166 -0.6860
  262MOL0     C35291   2.046   6.849   6.238  0.3376 -0.3214 -0.4225
  262MOL0     C35292   2.166   6.824   6.311  0.0607 -0.5296 -0.3167
  262MOL0     C35293   2.246   6.714   6.285 -0.6171 -0.3290  0.5723
  262MOL0     O35294   2.352   6.687   6.372 -0.8357  0.0720 -0.1147
  262MOL0     C35295   2.440   6.576   6.346 -0.6934  0.3526  0.3452
  262MOL0     C35296   2.378   6.441   6.375 -0.3856  0.2670  0.1011
  262MOL0     C35297   2.319   6.434   6.524  0.0429 -0.2306  0.8139
  262MOL0     C35298   2.427   6.459   6.633  0.2859  0.2899  0.1511
  262MOL0     C35299   2.397   6.391   6.762 -0.6541  0.7279  0.1690
  262MOL0     C35300   2.376   6.331   6.860  0.0267  1.0012 -0.0033
  262MOL0     C35301   2.219   6.647   6.163  0.3528  0.7553 -0.8983
  262MOL0     C35302   2.102   6.670   6.089  0.4436  0.1917 -0.6934
  262MOL0     H35303   1.585   6.855   6.197  0.7829 -1.8786 -0.2577
  262MOL0     H35304   1.364   6.893   6.081  1.2692  0.1511  2.9720
  262MOL0     H35305   1.152   7.070   5.834  1.1350 -0.8026 -1.7377
  262MOL0     H35306   1.184   6.943   5.956  2.7605 -0.0760  2.2578
  262MOL0     H35307   1.123   7.129   6.075  0.4576  1.9234  2.4060
  262MOL0     H35308   1.295   7.138   6.099 -0.6354 -0.8695  0.4029
  262MOL0     H35309   1.297   7.308   5.895 -0.3932  3.4933 -0.5904
  262MOL0     H35310   1.124   7.288   5.903 -2.1701 -1.2787  2.5727
  262MOL0     H35311   1.109   7.369   6.121 -0.4031 -2.8332  0.2424
  262MOL0     H35312   1.273   7.343   6.159 -2.8020 -0.8882  0.7984
  262MOL0     H35313   1.349   7.544   6.062 -0.1478  2.5337 -1.4218
  262MOL0     H35314   1.223   7.546   5.940  0.8816  0.7730 -0.1646
  262MOL0     H35315   1.047   7.582   6.137 -1.9520  1.3973  1.0382
  262MOL0     H35316   1.186   7.634   6.228  0.1884  4.5360 -0.3558
  262MOL0     H35317   1.228   7.815   6.075  0.9325 -0.7270 -0.7249
  262MOL0     H35318   1.110   7.756   5.956  1.9370  1.6394 -0.1549
  262MOL0     H35319   1.030   7.941   6.080  2.1183 -0.9778 -3.4083
  262MOL0     H35320   1.049   7.852   6.234  2.8664 -1.7291 -0.8544
  262MOL0     H35321   0.837   7.830   5.917  0.4485 -0.4290 -0.5087
  262MOL0     H35322   0.570   7.771   5.877  0.7238  0.1820  0.5697
  262MOL0     H35323   0.593   7.602   5.890 -2.8909 -1.1140  0.3434
  262MOL0     H35324   0.417   7.765   6.059 -0.5932 -1.5296 -0.5251
  262MOL0     H35325   0.453   7.597   6.086 -2.7375 -1.7390 -1.1395
  262MOL0     H35326   0.356   7.540   5.857 -0.2434 -0.3008  1.7567
  262MOL0     H35327   0.310   7.713   5.837 -2.3258  0.1658  1.4082
  262MOL0     H35328   0.181   7.726   5.993  0.5406  0.6253  0.8664
  262MOL0     H35329   0.227   7.592   6.086  0.5116 -1.9894 -0.3315
  262MOL0     H35330  -0.057   7.439   5.776  1.4213  2.8822 -1.3890
  262MOL0     H35331  -0.364   7.292   5.829  1.0400 -2.1413 -1.0690
  262MOL0     H35332  -0.382   7.442   5.755  0.5508  0.5040  0.5754
  262MOL0     H35333  -0.234   7.344   5.718  0.6764 -0.9545  2.1748
  262MOL0     H35334  -0.699   7.562   6.131 -0.0555 -1.2711  0.0416
  262MOL0     H35335  -0.921   7.485   6.207  0.5571 -0.6934  1.6845
  262MOL0     H35336  -1.103   7.373   6.307 -0.6118 -2.4257  1.5346
  262MOL0     H35337  -1.131   7.406   6.133 -2.7175 -2.8558 -2.4971
  262MOL0     H35338  -1.270   7.213   6.103  1.7088  0.2339 -0.4459
  262MOL0     H35339  -1.242   7.179   6.275 -1.2118 -1.8800 -1.6039
  262MOL0     H35340  -1.378   7.427   6.157  2.9242  1.4682  2.0464
  262MOL0     H35341  -1.373   7.392   6.329  0.7065 -0.3285  0.7311
  262MOL0     H35342  -1.600   7.319   6.250 -0.4474  1.1642 -1.9272
  262MOL0     H35343  -1.513   7.244   6.111  1.9507  0.2223  0.2265
  262MOL0     H35344  -1.467   7.158   6.398 -1.8508  1.0534 -0.8200
  262MOL0     H35345  -1.448   7.051   6.259 -1.3695 -1.4823 -1.2479
  262MOL0     H35346  -1.715   7.051   6.252  1.4560 -3.6542 -0.1395
  262MOL0     H35347  -1.649   6.988   6.389 -1.3012 -1.0955 -1.0960
  262MOL0     H35348  -1.795   7.258   6.379 -2.3379 -0.8607 -0.2508
  262MOL0     H35349  -1.681   7.216   6.501  0.4055  2.4255 -1.3966
  262MOL0     H35350  -1.941   7.175   6.538 -0.1170  1.2749 -2.7790
  262MOL0     H35351  -1.845   7.021   6.562  0.8842  1.3909  1.6145
  262MOL0     H35352  -0.838   7.099   6.080  2.7180 -1.2222  0.6098
  262MOL0     H35353  -0.614   7.171   5.991  0.0905 -0.6324  1.6945
  262MOL0     H35354  -0.218   7.575   6.218 -2.4837 -0.9121 -0.1296
  262MOL0     H35355   0.012   7.630   6.148  0.7312 -2.4445  1.1056
  262MOL0     H35356   1.582   7.053   5.739  1.3371 -0.0414 -0.6771
  262MOL0     H35357   1.792   7.024   5.861  0.2488  2.8773  1.8896
  262MOL0     H35358   1.980   6.929   6.271  0.0557 -0.2229 -1.2056
  262MOL0     H35359   2.204   6.880   6.396 -0.4604 -0.4607 -0.1244
  262MOL0     H35360   2.467   6.580   6.240 -1.6249  0.9840  0.1205
  262MOL0     H35361   2.532   6.581   6.406  0.3712 -2.7416 -0.8517
  262MOL0     H35362   2.453   6.363   6.360  1.2124  1.7704 -0.1396
  262MOL0     H35363   2.301   6.424   6.300  0.5894  1.7164 -1.2888
  262MOL0     H35364   2.269   6.338   6.536 -0.2027 -0.0061  1.6290
  262MOL0     H35365   2.246   6.512   6.546 -0.4556 -0.6619  0.6833
  262MOL0     H35366   2.438   6.567   6.642  0.8353  0.2015  0.6189
  262MOL0     H35367   2.526   6.430   6.595  0.2747  0.7110 -0.2044
  262MOL0     H35368   2.369   6.269   6.947 -1.5324  1.8057  0.4822
  262MOL0     H35369   2.285   6.563   6.144 -2.1072 -2.4199  3.0606
  262MOL0     H35370   2.091   6.613   5.998  0.5291 -1.0222  0.0384
  263MOL0     O35371   2.391   9.996   8.036  0.4339 -0.3293 -0.2579
  263MOL0     C35372   2.380   9.871   8.020 -0.1044  0.1814 -0.1342
  263MOL0     O35373   2.487   9.783   8.002 -0.1858  0.3352  0.4794
  263MOL0     C35374   2.615   9.837   7.996 -0.0041 -0.0928  0.4106
  263MOL0     C35375   2.706   9.804   8.099  0.0113 -1.0975 -0.3507
  263MOL0     C35376   2.839   9.853   8.092  0.1492  0.1400  0.4263
  263MOL0     C35377   2.880   9.938   7.991 -0.4849 -0.4172 -0.1523
  263MOL0     O35378   3.006   9.991   8.005  0.2105  0.2908  0.4067
  263MOL0     C35379   2.999  10.129   8.046  0.4899  0.0900  0.1345
  263MOL0     C35380   2.993  10.153   8.193 -0.0704 -0.0869 -0.9538
  263MOL0     C35381   2.848  10.155   8.227  0.7801 -0.5600  0.5030
  263MOL0     C35382   2.818  10.138   8.381  0.4727 -0.6779 -0.1798
  263MOL0     C35383   2.669  10.139   8.396 -1.6402  0.9273 -0.1628
  263MOL0     C35384   2.601  10.015   8.343  0.1400  0.3117  0.9134
  263MOL0     C35385   2.460  10.001   8.406  0.0951  0.1435  0.6522
  263MOL0     C35386   2.445   9.862   8.468  0.1818 -0.4480 -0.1758
  263MOL0     N35387   2.308   9.823   8.513 -0.0322 -0.6615  0.0030
  263MOL0     C35388   2.200   9.807   8.428  0.5320  0.0964  0.3016
  263MOL0     C35389   2.092   9.778   8.505 -0.1520  0.4081 -0.3267
  263MOL0     C35390   1.949   9.741   8.461 -1.1451 -0.4935 -0.0204
  263MOL0     C35391   1.859   9.742   8.580 -0.1606 -0.3885  0.2069
  263MOL0     C35392   1.711   9.739   8.550 -0.0099 -0.0798 -1.1310
  263MOL0     C35393   1.616   9.712   8.658  0.0635 -0.1304  0.0781
  263MOL0     O35394   1.491   9.665   8.605  0.4791  0.0913  0.6279
  263MOL0     C35395   1.384   9.649   8.687  0.0066  0.6399 -0.1763
  263MOL0     C35396   1.377   9.670   8.830  0.1488  0.4742 -0.7094
  263MOL0     C35397   1.267   9.632   8.909  0.2991  0.6714 -0.3910
  263MOL0     C35398   1.289   9.635   9.056  0.4699 -0.5922 -0.5177
  263MOL0     C35399   1.147   9.598   8.846  0.0923  0.1149 -0.0026
  263MOL0     C35400   1.022   9.578   8.918  0.3973  0.1613  0.8981
  263MOL0     O35401   0.917   9.519   8.846 -0.5984  0.7162  0.4276
  263MOL0     C35402   0.795   9.517   8.924 -0.2641 -0.6660  0.3618
  263MOL0     C35403   0.702   9.618   8.892  0.0331 -0.4656  0.0898
  263MOL0     C35404   0.567   9.626   8.952  0.0044  0.8241  0.0439
  263MOL0     C35405   0.535   9.524   9.045  0.1874 -0.2824  0.7816
  263MOL0     O35406   0.412   9.545   9.100 -0.3019  0.3834 -0.4701
  263MOL0     C35407   0.378   9.470   9.216  0.2640  0.0415  0.0740
  263MOL0     C35408   0.249   9.529   9.270 -0.5723 -0.0683  0.6300
  263MOL0     C35409   0.184   9.453   9.387  0.1536 -0.2781  0.1797
  263MOL0     C35410   0.060   9.523   9.435 -0.2708  0.5503 -0.6562
  263MOL0     C35411  -0.010   9.451   9.560 -0.4258 -0.6090 -0.0001
  263MOL0     C35412  -0.133   9.537   9.594  0.5686  0.9307  0.8578
  263MOL0     C35413  -0.114   9.627   9.716  0.7714 -0.1589 -0.0737
  263MOL0     C35414  -0.170   9.758   9.700  0.0417  0.8883 -0.0086
  263MOL0    Cl35415  -0.179   9.830   9.865 -0.1212 -0.1568 -0.2533
  263MOL0     C35416   0.617   9.409   9.065 -0.4103 -0.4647 -0.8371
  263MOL0     C35417   0.742   9.407   9.001 -0.2523 -0.1230 -0.1916
  263MOL0     O35418   1.004   9.624   9.031  0.1709 -0.5913 -0.1107
  263MOL0     C35419   1.147   9.583   8.706  0.3592 -0.6092 -0.2476
  263MOL0     C35420   1.261   9.600   8.628 -0.2515 -0.8269 -0.0125
  263MOL0     N35421   2.142   9.776   8.638 -0.4480  0.1916 -0.4946
  263MOL0     N35422   2.270   9.812   8.644 -0.4402 -0.3234 -0.0001
  263MOL0     C35423   2.787   9.984   7.895 -0.6900  0.3699  0.8078
  263MOL0     C35424   2.655   9.930   7.899 -0.8051 -0.6499 -0.3774
  263MOL0     C35425   2.252   9.805   8.028  0.1183 -0.0126 -0.1492
  263MOL0     C35426   2.242   9.664   8.022 -0.0042  0.4425  0.2157
  263MOL0     C35427   2.119   9.602   8.031 -0.6022 -0.4216  0.5989
  263MOL0     C35428   2.000   9.677   8.057  0.3694 -0.2959 -0.3663
  263MOL0     O35429   1.880   9.605   8.064 -0.1429 -0.3132  0.0947
  263MOL0     C35430   1.758   9.686   8.046  0.1238  0.4110  0.5925
  263MOL0     C35431   1.629   9.614   8.056  0.0506  0.5803 -0.6728
  263MOL0     C35432   1.586   9.601   8.208 -0.4997  0.6245  0.2371
  263MOL0     C35433   1.443   9.551   8.207  0.0317 -0.1216 -0.3984
  263MOL0     C35434   1.421   9.418   8.152  0.0682  0.3956 -0.0376
  263MOL0     C35435   1.392   9.305   8.114  0.1495 -0.6642  0.0905
  263MOL0     C35436   2.014   9.817   8.069 -0.1363 -0.4338  0.0876
  263MOL0     C35437   2.136   9.884   8.051  0.8374 -0.0998 -0.3172
  263MOL0     H35438   2.683   9.732   8.177  2.2366  0.0750  1.5193
  263MOL0     H35439   2.902   9.825   8.175  0.2235  0.9684  0.6647
  263MOL0     H35440   3.088  10.174   8.000  1.9156 -4.4818 -2.1293
  263MOL0     H35441   2.913  10.185   8.008  1.6458  2.1405  0.3768
  263MOL0     H35442   3.046  10.074   8.248 -0.3910 -0.3806 -1.0639
  263MOL0     H35443   3.038  10.240   8.242 -3.4132 -0.3582  3.2113
  263MOL0     H35444   2.809  10.252   8.196  1.2007 -0.6521 -0.3544
  263MOL0     H35445   2.785  10.094   8.162 -0.0123  2.6547 -2.0031
  263MOL0     H35446   2.858  10.043   8.418 -1.7155 -1.5177  0.1748
  263MOL0     H35447   2.855  10.221   8.442  2.1433  0.1451 -2.1886
  263MOL0     H35448   2.647  10.136   8.503 -1.3594  2.1007 -0.0505
  263MOL0     H35449   2.631  10.231   8.350  0.7457  0.6246 -3.0985
  263MOL0     H35450   2.586  10.014   8.234  0.9736 -1.0290  0.7812
  263MOL0     H35451   2.663   9.928   8.367 -1.6313 -0.5987  2.4400
  263MOL0     H35452   2.443  10.073   8.487 -2.2896 -0.7440  1.0438
  263MOL0     H35453   2.380  10.022   8.334  1.5061  4.0045 -0.0327
  263MOL0     H35454   2.509   9.865   8.556  0.5191 -1.6498 -0.3604
  263MOL0     H35455   2.483   9.787   8.398 -0.3584  1.1121 -2.2516
  263MOL0     H35456   2.200   9.828   8.321 -2.8929  0.1400  0.1786
  263MOL0     H35457   1.917   9.827   8.401  0.8188 -0.8190 -1.6199
  263MOL0     H35458   1.938   9.657   8.391 -1.8601  0.2117 -0.7857
  263MOL0     H35459   1.880   9.827   8.646  2.6065 -3.9426  4.4580
  263MOL0     H35460   1.877   9.653   8.640 -1.7376 -1.4050 -0.7427
  263MOL0     H35461   1.696   9.671   8.466  2.2999 -2.9320  0.6109
  263MOL0     H35462   1.673   9.834   8.509 -1.1825  0.4744  1.0681
  263MOL0     H35463   1.592   9.808   8.705 -0.2771  0.9941 -2.2269
  263MOL0     H35464   1.657   9.633   8.722 -4.3242 -2.9122 -0.0855
  263MOL0     H35465   1.466   9.709   8.879 -0.6832 -0.2490  1.4844
  263MOL0     H35466   1.253   9.727   9.103  3.2339  0.9736 -1.2425
  263MOL0     H35467   1.239   9.555   9.111 -0.0434 -0.6347 -1.0331
  263MOL0     H35468   1.396   9.629   9.080  0.2181  1.0651  1.2591
  263MOL0     H35469   0.744   9.695   8.828  0.2492 -0.2508  0.4899
  263MOL0     H35470   0.501   9.702   8.912  0.7161 -0.6793 -4.5837
  263MOL0     H35471   0.369   9.365   9.187 -0.2900 -1.6046  5.2447
  263MOL0     H35472   0.456   9.470   9.293 -0.9038 -0.5775  1.2891
  263MOL0     H35473   0.266   9.632   9.301 -3.4441  0.3752  1.0524
  263MOL0     H35474   0.180   9.534   9.186 -0.3570  1.6638  0.5294
  263MOL0     H35475   0.254   9.458   9.471  3.3499 -2.4145 -2.1293
  263MOL0     H35476   0.176   9.345   9.366  3.8968 -0.3282 -1.9318
  263MOL0     H35477   0.092   9.623   9.465  2.2088 -0.3945  0.1028
  263MOL0     H35478  -0.023   9.527   9.363 -2.0431  1.6504  1.3290
  263MOL0     H35479   0.062   9.443   9.642 -0.0164 -2.3910 -0.4909
  263MOL0     H35480  -0.042   9.348   9.539 -2.0068  0.0761 -1.1488
  263MOL0     H35481  -0.161   9.603   9.511 -1.5142  0.5784  1.2313
  263MOL0     H35482  -0.217   9.469   9.605 -0.1644  1.6243 -0.2101
  263MOL0     H35483  -0.012   9.630   9.753  0.0821 -0.9383  2.0261
  263MOL0     H35484  -0.179   9.587   9.794 -0.8190  0.2983 -1.1104
  263MOL0     H35485  -0.271   9.733   9.666  0.1052 -1.2073  1.2054
  263MOL0     H35486  -0.108   9.812   9.627 -0.1885 -0.5824 -1.3351
  263MOL0     H35487   0.582   9.330   9.131 -0.4271  0.7446  0.6777
  263MOL0     H35488   0.808   9.326   9.029 -0.2593  0.5769  2.0948
  263MOL0     H35489   1.057   9.556   8.651  1.1147 -0.0566 -1.8036
  263MOL0     H35490   1.263   9.586   8.520 -0.1568  1.3630 -0.3397
  263MOL0     H35491   2.816  10.037   7.805 -0.9092 -1.2625 -0.2722
  263MOL0     H35492   2.594   9.944   7.810 -0.8240  0.5631 -0.1781
  263MOL0     H35493   2.328   9.599   8.012 -2.1920 -2.3003 -2.5718
  263MOL0     H35494   2.111   9.494   8.027  2.4011 -0.7422 -4.0709
  263MOL0     H35495   1.765   9.761   8.124 -0.0466 -0.5020  1.5040
  263MOL0     H35496   1.766   9.729   7.945 -0.5287 -0.8387 -0.0181
  263MOL0     H35497   1.637   9.515   8.009  0.1839 -1.0863  2.5953
  263MOL0     H35498   1.568   9.680   7.994  1.7756  1.2327 -1.7470
  263MOL0     H35499   1.581   9.702   8.250 -2.8681  1.0530 -0.9277
  263MOL0     H35500   1.654   9.525   8.248 -1.3645 -1.3558 -1.8573
  263MOL0     H35501   1.380   9.633   8.170 -1.7274 -1.3499 -0.3026
  263MOL0     H35502   1.400   9.539   8.307  0.4623  2.4941  0.1653
  263MOL0     H35503   1.388   9.203   8.079  0.4019 -0.6020 -0.1238
  263MOL0     H35504   1.938   9.895   8.074  2.1573  2.4348 -3.8915
  263MOL0     H35505   2.125   9.992   8.048 -0.3932 -0.2059 -0.0896
  264MOL0     O35506  10.636  11.291  10.920 -0.1559  0.0071 -0.5035
  264MOL0     C35507  10.622  11.410  10.895 -0.2762 -0.1561  0.1475
  264MOL0     O35508  10.511  11.482  10.872 -0.6694 -0.0145 -1.0815
  264MOL0     C35509  10.382  11.427  10.890  0.2277  0.9348  1.3090
  264MOL0     C35510  10.277  11.512  10.856 -0.1597  0.4957  0.6501
  264MOL0     C35511  10.147  11.465  10.853 -0.4388  1.3546 -0.4225
  264MOL0     C35512  10.118  11.326  10.874 -0.7959  0.2845  0.3395
  264MOL0     O35513   9.999  11.269  10.861 -0.0184 -0.2879  0.2100
  264MOL0     C35514   9.882  11.339  10.806 -0.6117 -0.1952  0.1348
  264MOL0     C35515   9.774  11.224  10.815  1.5559 -0.5722  0.5130
  264MOL0     C35516   9.660  11.267  10.725 -0.0174  0.0231  0.6210
  264MOL0     C35517   9.550  11.163  10.722 -0.6476  0.4562  0.2104
  264MOL0     C35518   9.412  11.218  10.725  0.6470 -0.6491  0.3313
  264MOL0     C35519   9.305  11.108  10.720  0.4543  0.3844 -0.1540
  264MOL0     C35520   9.155  11.155  10.708 -0.1961 -0.8457  0.7098
  264MOL0     C35521   9.097  11.219  10.835 -0.3931  0.2767  0.1726
  264MOL0     N35522   8.952  11.251  10.827 -0.7076 -0.9829  0.7094
  264MOL0     C35523   8.868  11.266  10.924 -0.5753  0.5793  0.0321
  264MOL0     C35524   8.740  11.258  10.876  0.3542 -0.3662  0.7028
  264MOL0     C35525   8.606  11.255  10.946 -0.1229 -0.0796  0.2702
  264MOL0     C35526   8.512  11.357  10.883  0.6575 -0.3772  0.8381
  264MOL0     C35527   8.367  11.303  10.883 -0.1612 -0.1283 -0.3103
  264MOL0     C35528   8.271  11.379  10.802  0.0924 -0.1272  0.7368
  264MOL0     O35529   8.248  11.506  10.866  0.4657  0.7739  1.0326
  264MOL0     C35530   8.151  11.577  10.810 -0.1796 -0.4892 -0.2929
  264MOL0     C35531   8.178  11.710  10.779  0.5022 -0.2289  0.3190
  264MOL0     C35532   8.078  11.799  10.729  0.6579 -0.2089 -0.4956
  264MOL0     C35533   8.118  11.938  10.689  0.0827 -0.0972  0.7233
  264MOL0     C35534   7.949  11.740  10.697  0.9544 -0.5228  0.4430
  264MOL0     C35535   7.854  11.822  10.614 -0.2671  0.5547  0.4133
  264MOL0     O35536   7.848  11.953  10.642  0.4716  0.0917  1.2047
  264MOL0     C35537   7.737  12.026  10.617  0.2796  0.4668 -0.2032
  264MOL0     C35538   7.750  12.162  10.600  0.2802  0.3449  0.3109
  264MOL0     C35539   7.639  12.252  10.598 -0.1216  0.7804  0.0150
  264MOL0     C35540   7.510  12.210  10.622 -0.1567  0.1022 -0.1560
  264MOL0     O35541   7.412  12.302  10.634 -0.1770  0.3306 -0.7849
  264MOL0     C35542   7.289  12.283  10.565 -0.9868  0.2903 -0.7103
  264MOL0     C35543   7.193  12.391  10.589 -0.3737  0.9154 -0.0875
  264MOL0     C35544   7.073  12.376  10.491 -0.3246  0.4492  0.7263
  264MOL0     C35545   6.944  12.371  10.567  0.0060  1.0439 -0.7629
  264MOL0     C35546   6.913  12.238  10.629 -0.0573  0.5843  0.3592
  264MOL0     C35547   6.897  12.125  10.533 -0.7479 -0.0431  0.3691
  264MOL0     C35548   6.894  11.989  10.609  1.0516  0.3252 -0.4958
  264MOL0     C35549   6.846  11.889  10.509 -0.1165 -0.2355  0.6812
  264MOL0    Cl35550   6.665  11.899  10.488 -0.0802 -0.4285  0.1251
  264MOL0     C35551   7.492  12.070  10.631 -0.5294  0.7278  0.4367
  264MOL0     C35552   7.605  11.980  10.635  0.3997 -1.0726  0.3372
  264MOL0     O35553   7.797  11.763  10.526  0.2107  0.1007 -0.2241
  264MOL0     C35554   7.925  11.602  10.717  0.0791 -0.8808 -0.1824
  264MOL0     C35555   8.026  11.515  10.777  0.6640 -0.6042 -0.0555
  264MOL0     N35556   8.756  11.240  10.735 -0.2081  0.2958  0.7435
  264MOL0     N35557   8.885  11.234  10.707 -1.2539 -0.5742  0.0379
  264MOL0     C35558  10.216  11.245  10.934  0.5617  0.7033  0.2912
  264MOL0     C35559  10.350  11.294  10.935 -0.2377  0.0357 -0.1425
  264MOL0     C35560  10.747  11.496  10.899  0.8503 -0.5270 -0.0219
  264MOL0     C35561  10.739  11.634  10.892  0.2598 -0.1573  0.4899
  264MOL0     C35562  10.857  11.709  10.891  0.1082 -0.3812  0.2402
  264MOL0     C35563  10.986  11.652  10.903  0.6409 -0.6982  0.4050
  264MOL0     O35564  11.097  11.726  10.895 -0.2004  0.1445 -0.2118
  264MOL0     C35565  11.094  11.867  10.886  0.9464 -1.5749  1.1717
  264MOL0     C35566  11.224  11.934  10.914  0.3251  0.3233 -0.1188
  264MOL0     C35567  11.227  12.072  10.844  0.2030  0.0742 -0.5211
  264MOL0     C35568  11.355  12.158  10.845 -0.5310 -0.1145  0.3304
  264MOL0     C35569  11.391  12.181  10.985 -0.3268  0.4923  0.2752
  264MOL0     C35570  11.412  12.206  11.100 -0.6581 -0.0273  0.8029
  264MOL0     C35571  10.996  11.512  10.905  0.2045 -0.2820  0.3914
  264MOL0     C35572  10.881  11.438  10.904 -0.2409 -0.2711 -0.7023
  264MOL0     H35573  10.287  11.616  10.828 -2.3576  1.1608  2.0566
  264MOL0     H35574  10.059  11.524  10.827 -0.4841  0.4053 -2.6310
  264MOL0     H35575   9.846  11.426  10.861  0.9117  1.9412 -2.0641
  264MOL0     H35576   9.898  11.367  10.701 -0.3173  1.7116  0.6467
  264MOL0     H35577   9.817  11.127  10.787  0.8685 -0.0862 -2.6919
  264MOL0     H35578   9.728  11.224  10.914  1.8542  1.8225  0.7069
  264MOL0     H35579   9.616  11.362  10.757 -1.8315 -1.1749  1.8955
  264MOL0     H35580   9.704  11.283  10.626  1.0258 -0.9742  0.9046
  264MOL0     H35581   9.559  11.107  10.628 -1.6241  1.2425 -0.3733
  264MOL0     H35582   9.567  11.090  10.801 -2.2515 -1.0304 -0.7469
  264MOL0     H35583   9.400  11.285  10.811 -2.2276  2.9688 -2.5538
  264MOL0     H35584   9.397  11.282  10.638  2.2820  0.4326  0.8008
  264MOL0     H35585   9.319  11.031  10.643 -2.2446 -1.2166  0.8120
  264MOL0     H35586   9.307  11.060  10.818  2.0532  2.2520  0.7899
  264MOL0     H35587   9.137  11.225  10.625 -2.7333 -1.2697  0.8144
  264MOL0     H35588   9.101  11.067  10.672 -0.7138 -0.4047  0.3960
  264MOL0     H35589   9.153  11.311  10.853 -0.0645  0.0330  0.4372
  264MOL0     H35590   9.113  11.147  10.916 -2.1008  0.0761  0.3572
  264MOL0     H35591   8.902  11.266  11.027 -2.2778  1.1723  0.6251
  264MOL0     H35592   8.556  11.158  10.938 -4.0472  1.6411  1.3401
  264MOL0     H35593   8.625  11.260  11.053  3.1710  0.6508 -0.2380
  264MOL0     H35594   8.540  11.372  10.778 -3.3768  0.5397 -0.2794
  264MOL0     H35595   8.509  11.455  10.931 -1.1570  0.9780 -1.8546
  264MOL0     H35596   8.333  11.288  10.986 -1.2679  1.8778 -0.3403
  264MOL0     H35597   8.375  11.204  10.837  0.9888  0.1938 -0.8528
  264MOL0     H35598   8.182  11.316  10.794  1.8895 -2.6208 -1.7549
  264MOL0     H35599   8.305  11.388  10.699 -0.7219 -1.8963  0.2696
  264MOL0     H35600   8.278  11.752  10.790  1.4146 -2.1632 -0.0727
  264MOL0     H35601   8.083  11.959  10.588  0.6376  0.1959  0.5862
  264MOL0     H35602   8.092  12.013  10.764 -1.1943  1.1122 -0.8619
  264MOL0     H35603   8.227  11.949  10.683  0.1582  1.1886  3.1858
  264MOL0     H35604   7.853  12.194  10.591  0.8023 -0.3661  3.0731
  264MOL0     H35605   7.667  12.356  10.588  0.9879  0.3692 -1.5859
  264MOL0     H35606   7.307  12.286  10.457  0.8423 -3.6528 -0.6612
  264MOL0     H35607   7.242  12.191  10.599  1.6391 -0.4234  1.2914
  264MOL0     H35608   7.150  12.373  10.688 -1.0177 -1.4090 -0.7074
  264MOL0     H35609   7.246  12.486  10.581  0.4502  0.3299 -4.1868
  264MOL0     H35610   7.093  12.291  10.425  0.6225 -0.9993  2.7385
  264MOL0     H35611   7.086  12.467  10.433  1.9619 -0.5996 -0.5432
  264MOL0     H35612   6.942  12.439  10.652  2.6652  0.3349 -0.0218
  264MOL0     H35613   6.868  12.381  10.489  1.6352 -2.3214 -3.1000
  264MOL0     H35614   6.811  12.245  10.667 -1.9410 -2.4834 -3.3391
  264MOL0     H35615   6.989  12.210  10.703  0.4003  1.4707  0.2313
  264MOL0     H35616   6.809  12.142  10.471  0.0833  2.7892 -0.1904
  264MOL0     H35617   6.976  12.118  10.458  0.6424 -2.1397  1.9209
  264MOL0     H35618   6.819  11.995  10.688  1.8945  0.2654  0.3263
  264MOL0     H35619   6.994  11.970  10.649  0.5992  0.9308  0.9740
  264MOL0     H35620   6.871  11.789  10.546 -0.7345 -0.5197  0.3391
  264MOL0     H35621   6.894  11.886  10.411  1.6793 -0.4635  1.5073
  264MOL0     H35622   7.398  12.022  10.659  1.6316 -3.1572  1.7582
  264MOL0     H35623   7.601  11.872  10.625 -0.0865 -0.8383 -3.6900
  264MOL0     H35624   7.831  11.557  10.690  1.1136 -1.7447 -2.5978
  264MOL0     H35625   8.012  11.409  10.796  2.3187 -0.5163  2.0878
  264MOL0     H35626  10.209  11.138  10.951  0.0714  1.1271  3.1434
  264MOL0     H35627  10.424  11.223  10.971 -0.1840 -1.8957 -3.6626
  264MOL0     H35628  10.641  11.679  10.878  0.3999 -0.5279 -2.4324
  264MOL0     H35629  10.832  11.814  10.881 -1.1539 -0.8560 -2.4169
  264MOL0     H35630  11.049  11.894  10.790 -1.5199 -0.0385  2.6446
  264MOL0     H35631  11.023  11.902  10.961  1.2647 -3.0974  2.2318
  264MOL0     H35632  11.300  11.868  10.872  1.9331  0.0213  2.9490
  264MOL0     H35633  11.232  11.939  11.023 -1.3652 -1.7263  0.1709
  264MOL0     H35634  11.148  12.124  10.898  0.9356 -0.9366  1.6243
  264MOL0     H35635  11.201  12.058  10.738  0.1483  0.2246 -0.5283
  264MOL0     H35636  11.325  12.245  10.787 -1.8991 -0.4391  0.5153
  264MOL0     H35637  11.438  12.101  10.803 -0.5358 -0.0529  0.2376
  264MOL0     H35638  11.431  12.249  11.196 -3.9104  2.1667  0.6242
  264MOL0     H35639  11.095  11.469  10.905 -0.3022 -1.8006 -2.9388
  264MOL0     H35640  10.891  11.330  10.900 -1.8066 -0.5430  0.9169
  265MOL0     O35641   4.354   3.838   9.266 -0.1010  0.0563  1.4387
  265MOL0     C35642   4.320   3.955   9.300  0.4229  0.2699  0.0521
  265MOL0     O35643   4.194   3.997   9.320 -1.1173 -0.2159 -0.6830
  265MOL0     C35644   4.095   3.927   9.269 -0.1634 -0.2300 -0.9298
  265MOL0     C35645   3.987   3.890   9.357  0.8125 -0.1607  0.4050
  265MOL0     C35646   3.883   3.811   9.313 -0.2370  0.0923 -0.2352
  265MOL0     C35647   3.882   3.771   9.172 -0.1052  0.3367 -0.4901
  265MOL0     O35648   3.779   3.697   9.112 -0.0844 -0.7072 -0.3181
  265MOL0     C35649   3.656   3.657   9.177  0.2051 -0.4807 -0.4508
  265MOL0     C35650   3.561   3.785   9.176 -0.1999 -0.6859  0.1578
  265MOL0     C35651   3.425   3.752   9.228  0.4512  0.5937 -0.0032
  265MOL0     C35652   3.327   3.876   9.244 -0.1455  0.2404 -0.1665
  265MOL0     C35653   3.180   3.843   9.264 -0.2864  0.1188 -0.1892
  265MOL0     C35654   3.147   3.765   9.398  0.6840 -0.0156  0.5410
  265MOL0     C35655   3.178   3.840   9.526 -0.2203 -1.0916 -0.4924
  265MOL0     C35656   3.127   3.741   9.642 -0.3019 -0.3039  0.0658
  265MOL0     N35657   3.195   3.770   9.765 -0.3649  0.2102  0.8011
  265MOL0     C35658   3.187   3.886   9.841 -0.5510  0.6982  0.2210
  265MOL0     C35659   3.277   3.867   9.938  0.5347 -0.2507  0.0498
  265MOL0     C35660   3.304   3.963  10.050  0.3503 -0.0519 -0.3541
  265MOL0     C35661   3.186   3.957  10.147  0.1744 -0.2071 -0.8849
  265MOL0     C35662   3.183   4.073  10.249 -0.0403 -0.8330  0.2804
  265MOL0     C35663   3.055   4.069  10.334 -0.6603 -0.9712  0.1780
  265MOL0     O35664   3.062   3.963  10.428 -0.3399 -1.1710 -0.7721
  265MOL0     C35665   2.960   3.939  10.528 -0.6427 -1.7737  0.5694
  265MOL0     C35666   2.846   4.025  10.540 -0.9801  0.4062  0.2423
  265MOL0     C35667   2.734   3.997  10.624 -1.5688  1.1327  0.2642
  265MOL0     C35668   2.622   4.091  10.611 -0.1367 -0.7349  0.4335
  265MOL0     C35669   2.744   3.885  10.705 -1.4633  0.2937  0.0009
  265MOL0     C35670   2.637   3.842  10.797 -0.6870  0.0722  0.8760
  265MOL0     O35671   2.517   3.911  10.801  0.1639 -0.5854  0.3685
  265MOL0     C35672   2.420   3.887  10.893 -0.0112 -0.6213 -0.3106
  265MOL0     C35673   2.434   3.843  11.024  0.1321  0.4553 -0.3502
  265MOL0     C35674   2.340   3.852  11.120  0.4377  0.2075  0.7929
  265MOL0     C35675   2.208   3.875  11.073 -0.2049 -0.4182 -0.2541
  265MOL0     O35676   2.085   3.881  11.140  0.2305 -0.2744 -0.0170
  265MOL0     C35677   2.079   3.819  11.268  0.4128  0.2232 -0.2384
  265MOL0     C35678   1.937   3.827  11.336 -0.3412  0.4846  0.3155
  265MOL0     C35679   1.918   3.767  11.483  0.2862  0.6021  0.3030
  265MOL0     C35680   1.772   3.777  11.522  0.6126  0.0119  0.3549
  265MOL0     C35681   1.682   3.672  11.446 -0.3898 -0.2968 -0.5063
  265MOL0     C35682   1.535   3.654  11.500 -0.4989  0.6688 -0.8812
  265MOL0     C35683   1.531   3.543  11.618  0.0793  0.2381  0.0090
  265MOL0     C35684   1.386   3.513  11.655 -0.2604  0.5276  0.3609
  265MOL0    Cl35685   1.385   3.370  11.768  0.1242 -0.0658 -0.3495
  265MOL0     C35686   2.185   3.904  10.940  0.4881  0.4841  0.4145
  265MOL0     C35687   2.290   3.916  10.848 -0.4861  0.4267  0.7545
  265MOL0     O35688   2.666   3.746  10.866 -0.5053 -0.0067 -0.0886
  265MOL0     C35689   2.866   3.797  10.693  0.3991 -0.3529  0.0224
  265MOL0     C35690   2.960   3.819  10.592  0.4114  0.5488  0.4570
  265MOL0     N35691   3.337   3.743   9.913 -0.0176  0.4388 -0.0249
  265MOL0     N35692   3.292   3.682   9.806  0.9317 -0.0635 -0.2820
  265MOL0     C35693   3.991   3.801   9.097 -0.1783 -0.0117  0.0990
  265MOL0     C35694   4.096   3.876   9.135  0.0420  0.0152 -1.1314
  265MOL0     C35695   4.417   4.059   9.322 -0.1558 -0.3053  0.2119
  265MOL0     C35696   4.556   4.033   9.305 -0.0053  0.9479 -1.0202
  265MOL0     C35697   4.656   4.132   9.329  0.1611 -0.1852  0.6336
  265MOL0     C35698   4.610   4.261   9.368 -0.2121  0.6860  0.6833
  265MOL0     O35699   4.679   4.376   9.382  0.2403 -0.5976  0.2378
  265MOL0     C35700   4.823   4.361   9.388  0.8045  0.3461 -0.0083
  265MOL0     C35701   4.904   4.486   9.377  0.0993 -0.2236  0.9353
  265MOL0     C35702   5.050   4.439   9.368  0.2376  0.0494  1.0484
  265MOL0     C35703   5.150   4.553   9.346 -0.5502 -0.1860  0.0665
  265MOL0     C35704   5.289   4.510   9.361  0.0687 -0.2396 -0.6667
  265MOL0     C35705   5.405   4.477   9.388  0.8785  0.6204  0.4599
  265MOL0     C35706   4.468   4.285   9.385  0.2401  0.1432  0.2815
  265MOL0     C35707   4.378   4.182   9.358  0.7721 -0.4015 -0.4564
  265MOL0     H35708   3.990   3.941   9.453 -0.1598  2.5654 -0.9251
  265MOL0     H35709   3.791   3.794   9.367 -1.1126 -0.5259 -1.8529
  265MOL0     H35710   3.613   3.581   9.111  0.2581 -0.8358 -0.0781
  265MOL0     H35711   3.681   3.618   9.276 -1.4944  0.6551  0.4795
  265MOL0     H35712   3.600   3.865   9.239 -0.5066 -1.5191  1.4463
  265MOL0     H35713   3.543   3.825   9.076 -1.3957  0.8184  0.9445
  265MOL0     H35714   3.374   3.697   9.148 -2.5768  0.8442  1.5921
  265MOL0     H35715   3.432   3.691   9.319 -0.7454 -3.0049 -2.1083
  265MOL0     H35716   3.364   3.939   9.325 -0.1067 -2.6919  2.2797
  265MOL0     H35717   3.329   3.938   9.154 -1.7863 -1.2372 -1.2952
  265MOL0     H35718   3.124   3.937   9.271 -0.0292  0.3461 -1.0224
  265MOL0     H35719   3.146   3.790   9.174  0.6482  1.4219 -1.3440
  265MOL0     H35720   3.039   3.752   9.398  0.6261  0.4453  0.1247
  265MOL0     H35721   3.199   3.668   9.399  0.6449 -0.0805 -0.9414
  265MOL0     H35722   3.285   3.853   9.546 -0.5326  0.7187  0.2065
  265MOL0     H35723   3.128   3.937   9.532 -0.5443 -1.3544  2.1687
  265MOL0     H35724   3.156   3.641   9.606  1.7030 -0.7992  2.7265
  265MOL0     H35725   3.019   3.752   9.652 -0.0391  1.3947  1.4766
  265MOL0     H35726   3.125   3.973   9.823 -0.2643  0.7946 -0.3288
  265MOL0     H35727   3.394   3.934  10.106 -1.4845 -2.5426  1.5800
  265MOL0     H35728   3.318   4.058   9.999  2.0205 -0.4397 -0.6852
  265MOL0     H35729   3.199   3.874  10.218 -0.3587 -0.3578 -0.9642
  265MOL0     H35730   3.090   3.949  10.096  0.7588 -0.2479 -1.9956
  265MOL0     H35731   3.191   4.166  10.191  0.0058  1.1757  3.3151
  265MOL0     H35732   3.264   4.081  10.322  1.1065  1.5628 -1.1246
  265MOL0     H35733   2.959   4.061  10.283 -0.6308 -0.1494 -0.0175
  265MOL0     H35734   3.061   4.159  10.395  1.2402 -1.9679  1.5604
  265MOL0     H35735   2.831   4.106  10.469 -3.5483 -2.0669 -2.3797
  265MOL0     H35736   2.648   4.179  10.551  2.0051 -1.0124  0.8855
  265MOL0     H35737   2.528   4.053  10.571 -2.3351  1.5660  2.9296
  265MOL0     H35738   2.592   4.128  10.710  0.9368  2.2089 -0.2153
  265MOL0     H35739   2.530   3.812  11.064 -1.0710 -2.3793  0.6678
  265MOL0     H35740   2.362   3.827  11.223  4.8938  1.1761  0.2681
  265MOL0     H35741   2.115   3.716  11.254 -0.4061 -0.1826  0.5296
  265MOL0     H35742   2.151   3.875  11.328  1.5166 -0.9789 -0.3845
  265MOL0     H35743   1.909   3.932  11.335 -2.1489  0.0437 -0.9179
  265MOL0     H35744   1.869   3.780  11.264  0.2535 -0.0448  0.0843
  265MOL0     H35745   1.978   3.824  11.555  2.1030 -1.3384  0.4496
  265MOL0     H35746   1.944   3.660  11.480 -3.0556 -0.3793 -3.6536
  265MOL0     H35747   1.770   3.759  11.630  1.9735  0.6022  0.4993
  265MOL0     H35748   1.739   3.878  11.497  1.3195  0.2423  0.3278
  265MOL0     H35749   1.726   3.572  11.439 -4.9391 -2.5500 -0.5063
  265MOL0     H35750   1.683   3.715  11.345  1.6986 -0.6701 -0.6869
  265MOL0     H35751   1.507   3.754  11.536 -1.3330  0.3747 -0.6958
  265MOL0     H35752   1.471   3.620  11.418 -1.1569 -2.2212  0.7152
  265MOL0     H35753   1.573   3.579  11.713  0.4907 -0.0211 -0.0754
  265MOL0     H35754   1.569   3.450  11.575 -2.1030  0.2147 -2.0937
  265MOL0     H35755   1.339   3.479  11.563  3.2557 -2.3385 -0.6086
  265MOL0     H35756   1.331   3.597  11.700  1.6334  2.6918 -1.1017
  265MOL0     H35757   2.087   3.929  10.901  0.3028 -1.3596 -0.4376
  265MOL0     H35758   2.269   3.956  10.749  0.2961  2.0813  1.2242
  265MOL0     H35759   2.870   3.705  10.750  1.9112 -0.8505 -0.8269
  265MOL0     H35760   3.025   3.733  10.588 -5.1293 -4.2107 -2.1012
  265MOL0     H35761   3.976   3.745   9.006 -1.8314  0.4087  0.0806
  265MOL0     H35762   4.179   3.883   9.064 -0.0119  0.2855 -1.1683
  265MOL0     H35763   4.593   3.932   9.285  0.2164  0.8760 -0.2932
  265MOL0     H35764   4.760   4.109   9.309  0.7911  1.0718  2.2207
  265MOL0     H35765   4.858   4.318   9.482 -0.5928  0.7157  0.7076
  265MOL0     H35766   4.862   4.289   9.315  1.6462  0.1080  0.6692
  265MOL0     H35767   4.886   4.549   9.464  1.5543 -0.0484  1.1329
  265MOL0     H35768   4.879   4.554   9.295 -1.0038 -1.5100  0.1811
  265MOL0     H35769   5.048   4.367   9.285 -0.8481  0.1070  1.0165
  265MOL0     H35770   5.081   4.385   9.458  2.0728  1.5312  1.3790
  265MOL0     H35771   5.136   4.638   9.415  1.8061 -0.2260  0.6713
  265MOL0     H35772   5.145   4.594   9.245  0.1359 -3.2584 -1.3214
  265MOL0     H35773   5.507   4.461   9.414 -0.2201 -2.3287  3.7272
  265MOL0     H35774   4.438   4.389   9.396  0.1560  0.0492  0.9699
  265MOL0     H35775   4.275   4.217   9.364  0.7061 -0.7415  0.6323
  266MOL0     O35776   6.357  10.308   7.865 -0.3076 -0.7654 -0.0334
  266MOL0     C35777   6.461  10.260   7.897 -0.1224 -0.0528 -0.5700
  266MOL0     O35778   6.475  10.142   7.973  0.1717 -0.1955 -0.1450
  266MOL0     C35779   6.353  10.090   8.014 -0.4013 -0.4454 -0.5753
  266MOL0     C35780   6.263  10.033   7.929 -0.7831 -0.3662  0.7080
  266MOL0     C35781   6.155   9.967   7.966  0.3064 -0.2859 -0.5809
  266MOL0     C35782   6.122   9.965   8.107 -0.3386  0.4013 -0.6791
  266MOL0     O35783   6.017   9.901   8.168 -0.4590 -0.6848 -0.4976
  266MOL0     C35784   5.913   9.839   8.082  0.3401 -0.5198  0.2727
  266MOL0     C35785   5.813   9.776   8.181 -0.8749 -0.1728 -0.3789
  266MOL0     C35786   5.696   9.718   8.098 -0.3752 -0.4857  0.3247
  266MOL0     C35787   5.609   9.615   8.180 -0.3152 -0.3165 -0.3346
  266MOL0     C35788   5.505   9.537   8.112 -0.7243 -0.7398  0.5145
  266MOL0     C35789   5.452   9.435   8.206  0.6703 -0.1484 -0.3990
  266MOL0     C35790   5.319   9.361   8.162 -1.3526  0.5662 -0.1013
  266MOL0     C35791   5.329   9.291   8.031 -0.1982 -0.5090  0.9847
  266MOL0     N35792   5.194   9.269   7.973 -0.0667  0.9378 -0.8027
  266MOL0     C35793   5.109   9.164   8.010 -0.8010 -0.7090  0.5779
  266MOL0     C35794   4.995   9.192   7.937 -0.0787  0.6982 -0.4763
  266MOL0     C35795   4.870   9.115   7.953  0.5942  0.3311  0.0948
  266MOL0     C35796   4.783   9.200   8.051 -0.9161  0.0589 -0.1253
  266MOL0     C35797   4.643   9.135   8.068 -0.5064 -0.4395  0.4119
  266MOL0     C35798   4.542   9.153   7.959  0.2373  0.2294  0.0383
  266MOL0     O35799   4.414   9.089   7.991  0.2107 -0.2594 -0.1541
  266MOL0     C35800   4.315   9.150   8.051 -0.5808 -0.0880  0.4475
  266MOL0     C35801   4.312   9.291   8.079  0.1351 -0.0211  0.2297
  266MOL0     C35802   4.193   9.350   8.132  0.2707  0.0393  0.5334
  266MOL0     C35803   4.163   9.494   8.134  0.2259  0.3414  0.0163
  266MOL0     C35804   4.087   9.268   8.176 -0.2531  0.8522  0.0617
  266MOL0     C35805   3.963   9.317   8.235  0.4152  0.9167 -0.3923
  266MOL0     O35806   3.877   9.375   8.138  0.2272  0.1351 -0.4058
  266MOL0     C35807   3.786   9.450   8.206 -0.1027 -0.6147 -0.2844
  266MOL0     C35808   3.665   9.393   8.258 -0.5335  0.2085  0.1458
  266MOL0     C35809   3.581   9.468   8.345 -0.9638 -0.7279  0.7438
  266MOL0     C35810   3.611   9.607   8.361  0.4478 -0.1325  0.8784
  266MOL0     O35811   3.543   9.677   8.458  0.0129 -0.8141  0.2817
  266MOL0     C35812   3.491   9.605   8.573 -0.6294 -0.2403 -0.0965
  266MOL0     C35813   3.485   9.704   8.692 -0.5888  1.0550 -0.4573
  266MOL0     C35814   3.615   9.725   8.765 -0.1195 -0.1983  0.8390
  266MOL0     C35815   3.599   9.809   8.893 -0.4147  0.6585  0.5265
  266MOL0     C35816   3.723   9.827   8.982 -0.3752 -0.2895 -0.5758
  266MOL0     C35817   3.665   9.883   9.115 -0.6333 -0.0009 -0.5074
  266MOL0     C35818   3.620   9.768   9.209 -0.6348 -0.3461 -0.3431
  266MOL0     C35819   3.494   9.796   9.290 -0.2057 -0.7323 -0.2218
  266MOL0    Cl35820   3.354   9.778   9.180  0.4405 -0.0444 -0.2210
  266MOL0     C35821   3.713   9.662   8.288 -0.4632  0.3464 -0.7351
  266MOL0     C35822   3.798   9.584   8.215 -0.7301 -0.6203  0.0917
  266MOL0     O35823   3.946   9.300   8.357  0.1207  0.3183 -0.9967
  266MOL0     C35824   4.103   9.133   8.164 -0.1864  0.2804  0.6879
  266MOL0     C35825   4.210   9.075   8.105 -0.9573  0.1728 -0.1510
  266MOL0     N35826   5.014   9.291   7.854  0.2734 -0.3491  0.1517
  266MOL0     N35827   5.138   9.337   7.870  0.3757  0.4517 -0.6831
  266MOL0     C35828   6.207  10.028   8.197  0.1866 -0.8832  0.0742
  266MOL0     C35829   6.326  10.084   8.151 -0.7056 -0.2709  0.6514
  266MOL0     C35830   6.577  10.301   7.815 -0.3570  0.5421  0.1090
  266MOL0     C35831   6.561  10.371   7.696 -0.1047  0.0856  0.6845
  266MOL0     C35832   6.677  10.398   7.622  0.7318 -0.1639  0.0000
  266MOL0     C35833   6.805  10.370   7.665  0.8938 -0.7365 -0.5914
  266MOL0     O35834   6.922  10.413   7.601 -0.3778  0.0778  0.2236
  266MOL0     C35835   6.934  10.465   7.470  0.5415  0.7329  0.4437
  266MOL0     C35836   7.077  10.495   7.418 -0.6037 -0.1408  0.2609
  266MOL0     C35837   7.165  10.373   7.427 -0.2991 -0.0003 -0.3579
  266MOL0     C35838   7.323  10.401   7.418 -0.3517 -0.7322  0.5699
  266MOL0     C35839   7.366  10.426   7.278  0.9109  0.3951  1.3249
  266MOL0     C35840   7.394  10.435   7.162  0.0992 -0.7838 -0.2349
  266MOL0     C35841   6.811  10.301   7.787  0.3319 -0.2298  0.1185
  266MOL0     C35842   6.701  10.258   7.857  0.6872 -0.1445 -0.2704
  266MOL0     H35843   6.286  10.053   7.824 -1.5146  0.1614  0.6424
  266MOL0     H35844   6.079   9.928   7.899 -0.8048  1.4560 -0.4036
  266MOL0     H35845   5.867   9.922   8.028  0.2352  1.1837  2.8115
  266MOL0     H35846   5.952   9.758   8.020 -1.4369 -0.7782 -0.5531
  266MOL0     H35847   5.862   9.707   8.250 -0.8274  1.3612  1.2107
  266MOL0     H35848   5.785   9.865   8.239  0.6234  0.6160 -0.7977
  266MOL0     H35849   5.626   9.791   8.057  0.9557  0.2951 -0.6168
  266MOL0     H35850   5.744   9.667   8.013  2.2682  1.4423  0.5494
  266MOL0     H35851   5.683   9.547   8.224  0.2115  1.5918  1.9853
  266MOL0     H35852   5.567   9.683   8.255  0.9719 -0.6144  0.7141
  266MOL0     H35853   5.421   9.603   8.087  0.5890  1.6350  1.9519
  266MOL0     H35854   5.545   9.491   8.022 -2.4528  2.1343 -1.9135
  266MOL0     H35855   5.537   9.367   8.222  0.1850 -0.8109 -0.5919
  266MOL0     H35856   5.428   9.480   8.302 -0.9461 -1.7077 -0.0083
  266MOL0     H35857   5.289   9.285   8.235 -0.5821  0.4970  0.1558
  266MOL0     H35858   5.237   9.431   8.147 -2.1803 -0.8421 -2.8890
  266MOL0     H35859   5.380   9.195   8.046  0.7146  0.0598  1.6860
  266MOL0     H35860   5.383   9.349   7.956  1.3069 -1.7227  1.0658
  266MOL0     H35861   5.110   9.087   8.086 -5.3359 -0.2663  1.4011
  266MOL0     H35862   4.831   9.109   7.851  1.6938 -2.8968 -0.2624
  266MOL0     H35863   4.886   9.013   7.989  0.8333  0.6955  1.0679
  266MOL0     H35864   4.773   9.306   8.027  0.1150  0.7914  2.3904
  266MOL0     H35865   4.840   9.200   8.144 -0.6751 -1.5932 -0.2294
  266MOL0     H35866   4.618   9.172   8.168  1.5209 -1.1619  1.2285
  266MOL0     H35867   4.673   9.030   8.068  1.2954 -0.1787 -4.7222
  266MOL0     H35868   4.579   9.105   7.868 -1.2461  0.7662 -0.8791
  266MOL0     H35869   4.545   9.262   7.946  1.4280  0.1144 -0.8100
  266MOL0     H35870   4.396   9.355   8.052  2.0936 -1.7653  1.8052
  266MOL0     H35871   4.084   9.520   8.064 -0.5361  0.1920  0.8067
  266MOL0     H35872   4.124   9.524   8.232 -1.7804  1.8848 -1.1748
  266MOL0     H35873   4.244   9.552   8.089 -0.2387 -0.8398 -2.5031
  266MOL0     H35874   3.645   9.287   8.245 -0.0587  0.1115  0.2103
  266MOL0     H35875   3.502   9.407   8.388  0.7203 -2.6347  1.3068
  266MOL0     H35876   3.393   9.565   8.543 -1.0429 -0.8934  1.9846
  266MOL0     H35877   3.563   9.528   8.601 -1.9275 -1.3703  0.2122
  266MOL0     H35878   3.443   9.794   8.648 -0.0551  0.0910 -3.1801
  266MOL0     H35879   3.414   9.666   8.766 -0.9850  0.6969 -1.0118
  266MOL0     H35880   3.688   9.770   8.697  0.3709 -0.1000  1.4231
  266MOL0     H35881   3.659   9.629   8.794  1.8134  1.4001  3.5724
  266MOL0     H35882   3.566   9.910   8.867  2.0095  0.9738 -1.7024
  266MOL0     H35883   3.518   9.762   8.950 -0.8863 -1.1214 -1.5039
  266MOL0     H35884   3.794   9.897   8.937  0.5055 -1.0175 -0.3526
  266MOL0     H35885   3.775   9.732   8.997  3.1615  1.7645  1.5560
  266MOL0     H35886   3.744   9.945   9.159  0.3024 -0.5006 -1.4426
  266MOL0     H35887   3.588   9.960   9.107  0.4948  1.6678  2.7731
  266MOL0     H35888   3.706   9.744   9.272  1.3310 -0.5819 -2.9328
  266MOL0     H35889   3.600   9.674   9.157  1.4710 -2.3596  2.1784
  266MOL0     H35890   3.493   9.894   9.339 -1.5732 -0.4566 -0.7336
  266MOL0     H35891   3.478   9.715   9.362  1.1990  0.1730  1.1467
  266MOL0     H35892   3.749   9.764   8.297  0.4516  0.0508 -0.8492
  266MOL0     H35893   3.882   9.621   8.157 -0.7244 -2.4472 -1.1638
  266MOL0     H35894   4.024   9.064   8.194  0.2423 -1.4553 -1.8105
  266MOL0     H35895   4.202   8.968   8.120  1.9527  0.0444  1.3477
  266MOL0     H35896   6.183  10.018   8.303 -1.0531 -0.5910 -0.1635
  266MOL0     H35897   6.402  10.117   8.221  0.3286 -1.2222  0.0196
  266MOL0     H35898   6.463  10.395   7.657  0.3239  1.6934  0.5076
  266MOL0     H35899   6.664  10.457   7.532 -0.5600 -0.9412 -0.3447
  266MOL0     H35900   6.879  10.396   7.404 -2.5272  3.0745  0.3000
  266MOL0     H35901   6.869  10.553   7.459 -2.5080 -1.5107 -1.1476
  266MOL0     H35902   7.118  10.576   7.479 -4.0806  1.8810  0.1825
  266MOL0     H35903   7.080  10.542   7.319  1.3052  1.3189  0.9693
  266MOL0     H35904   7.138  10.294   7.356 -0.6232 -0.6473  0.4669
  266MOL0     H35905   7.147  10.330   7.525 -0.8371  1.2450  0.1021
  266MOL0     H35906   7.387  10.329   7.472  0.8027 -1.0762 -1.1817
  266MOL0     H35907   7.324  10.492   7.478 -2.2141  0.6270 -1.3319
  266MOL0     H35908   7.410  10.443   7.056  0.2189 -0.8350 -0.2205
  266MOL0     H35909   6.906  10.274   7.833 -0.4998 -1.8375  0.9771
  266MOL0     H35910   6.714  10.194   7.944  3.6396  0.7154  0.0305
  267MOL0     O35911   8.349   7.482   5.419 -0.0756 -0.4813  0.1223
  267MOL0     C35912   8.380   7.566   5.334  0.1481 -0.1239  0.1080
  267MOL0     O35913   8.290   7.650   5.269 -0.9232  0.2177  0.1764
  267MOL0     C35914   8.156   7.626   5.286  0.3290 -0.1202 -0.3910
  267MOL0     C35915   8.089   7.631   5.408  0.1543  0.3787  0.5703
  267MOL0     C35916   7.948   7.614   5.418  0.1026 -0.1797  0.3590
  267MOL0     C35917   7.863   7.615   5.305 -0.6500 -0.5650  0.0087
  267MOL0     O35918   7.734   7.619   5.331 -0.1993  0.3095  0.0931
  267MOL0     C35919   7.664   7.690   5.229 -0.4334  0.2712 -0.9171
  267MOL0     C35920   7.521   7.721   5.274  0.5299  0.2606 -0.1242
  267MOL0     C35921   7.457   7.819   5.179  0.4284 -0.5894 -0.4323
  267MOL0     C35922   7.304   7.817   5.182 -0.2879  0.1016 -0.4211
  267MOL0     C35923   7.241   7.825   5.321  0.9094  0.0696 -0.3738
  267MOL0     C35924   7.094   7.857   5.318  0.9030 -0.9717 -0.3191
  267MOL0     C35925   7.073   8.010   5.326  0.2697  0.4807 -0.1712
  267MOL0     C35926   6.935   8.058   5.279 -0.6962 -0.2779 -0.2531
  267MOL0     N35927   6.945   8.196   5.231  0.9352  0.6155 -0.0607
  267MOL0     C35928   7.022   8.238   5.120  0.1370 -0.2828 -0.7473
  267MOL0     C35929   6.991   8.366   5.103  0.2822  0.4139 -0.6263
  267MOL0     C35930   7.041   8.479   5.016  0.0873  0.3329  0.4226
  267MOL0     C35931   7.172   8.439   4.967 -0.2351 -0.3185 -0.3002
  267MOL0     C35932   7.226   8.537   4.862  0.0198  0.4042 -0.5180
  267MOL0     C35933   7.377   8.521   4.830 -0.5580  0.5244 -0.5368
  267MOL0     O35934   7.454   8.552   4.950 -0.0135  0.1550  0.8512
  267MOL0     C35935   7.579   8.505   4.952  0.6301  0.3458 -0.0239
  267MOL0     C35936   7.652   8.557   5.058 -0.3706  0.2832 -0.9352
  267MOL0     C35937   7.789   8.521   5.089 -0.7140  0.0593  0.4840
  267MOL0     C35938   7.855   8.602   5.198 -0.8143 -0.3913 -0.2579
  267MOL0     C35939   7.858   8.434   4.999 -0.1430  0.3947  0.0576
  267MOL0     C35940   7.999   8.388   5.003  0.7364 -0.1417 -0.1591
  267MOL0     O35941   8.067   8.441   5.096 -0.2975 -0.0306 -0.0598
  267MOL0     C35942   8.200   8.447   5.106 -0.2678  0.0766 -0.7613
  267MOL0     C35943   8.249   8.436   5.230 -0.0061 -0.4898 -0.7348
  267MOL0     C35944   8.385   8.436   5.266 -0.4556  0.0068 -0.1164
  267MOL0     C35945   8.478   8.439   5.164 -0.2377 -0.1738 -0.1318
  267MOL0     O35946   8.615   8.447   5.190  0.3155 -0.5747 -0.3170
  267MOL0     C35947   8.656   8.363   5.306 -0.8058  0.4362  0.2170
  267MOL0     C35948   8.809   8.352   5.313 -0.2569 -0.2288  0.0092
  267MOL0     C35949   8.868   8.295   5.189 -0.1651 -0.2767  0.8421
  267MOL0     C35950   9.020   8.272   5.195 -1.1820 -0.0364  0.1428
  267MOL0     C35951   9.075   8.232   5.060 -0.2264 -0.4612 -0.1767
  267MOL0     C35952   9.227   8.211   5.077  0.0954 -0.1665  0.4474
  267MOL0     C35953   9.304   8.323   5.020 -1.2714 -0.1001 -0.9237
  267MOL0     C35954   9.458   8.309   5.016  0.5993  0.0580  0.3145
  267MOL0    Cl35955   9.511   8.175   4.897 -0.1127  0.1882 -0.2974
  267MOL0     C35956   8.437   8.450   5.031  0.0570  0.3089 -0.5358
  267MOL0     C35957   8.295   8.449   4.999 -0.3398 -1.0499  0.2210
  267MOL0     O35958   8.042   8.297   4.935  0.1849  0.1331  0.7900
  267MOL0     C35959   7.792   8.394   4.882  0.0900  0.7971 -0.0372
  267MOL0     C35960   7.654   8.423   4.864  0.0684  0.0550 -0.2793
  267MOL0     N35961   6.890   8.395   5.195 -0.4386  0.1522 -0.6051
  267MOL0     N35962   6.862   8.299   5.268  0.1030  0.9490 -0.0320
  267MOL0     C35963   7.938   7.620   5.178  0.3672  0.3350 -0.5857
  267MOL0     C35964   8.079   7.614   5.169  0.9736  0.6755 -0.4990
  267MOL0     C35965   8.525   7.587   5.309 -0.7756 -0.6121 -0.7238
  267MOL0     C35966   8.561   7.703   5.259 -0.1961  0.6015  0.2917
  267MOL0     C35967   8.701   7.732   5.221  0.5637  0.7350  0.0131
  267MOL0     C35968   8.799   7.641   5.259  0.9282 -0.6271  0.5927
  267MOL0     O35969   8.933   7.662   5.240 -0.1021 -0.0094  0.1939
  267MOL0     C35970   8.985   7.794   5.240 -0.3566  0.0739 -0.7342
  267MOL0     C35971   9.123   7.794   5.179  0.2988 -0.1366 -0.2744
  267MOL0     C35972   9.225   7.714   5.255  0.6203 -0.5905 -0.0254
  267MOL0     C35973   9.367   7.729   5.190  0.3062 -0.2488 -0.8176
  267MOL0     C35974   9.410   7.868   5.204 -0.6714  0.2209  0.4738
  267MOL0     C35975   9.448   7.982   5.232  1.4237  1.0569 -0.9048
  267MOL0     C35976   8.757   7.516   5.316 -0.2808  0.0952 -1.0222
  267MOL0     C35977   8.623   7.482   5.328  0.5068  0.5599  0.1574
  267MOL0     H35978   8.157   7.623   5.493  2.2179 -0.6744 -1.0831
  267MOL0     H35979   7.905   7.610   5.517 -4.7840  0.8468 -1.4108
  267MOL0     H35980   7.718   7.781   5.198  1.8347 -0.3047  1.0218
  267MOL0     H35981   7.668   7.616   5.149 -0.3290 -2.0190  1.0967
  267MOL0     H35982   7.456   7.633   5.268  0.3982  0.3926 -0.6703
  267MOL0     H35983   7.520   7.754   5.379 -0.4725  1.3725 -0.4614
  267MOL0     H35984   7.488   7.922   5.198  2.4583 -1.0863 -0.7736
  267MOL0     H35985   7.495   7.804   5.078  2.8089 -2.3987  0.6364
  267MOL0     H35986   7.259   7.905   5.136 -1.6790 -0.9869 -1.2561
  267MOL0     H35987   7.273   7.720   5.140  1.7249 -1.4443  1.4054
  267MOL0     H35988   7.271   7.729   5.364 -0.8160 -2.5639 -4.4483
  267MOL0     H35989   7.299   7.906   5.366  2.3875  0.0401 -2.0950
  267MOL0     H35990   7.056   7.819   5.223  1.4718 -1.6188 -0.2997
  267MOL0     H35991   7.034   7.811   5.397 -2.7193  2.0890 -1.0096
  267MOL0     H35992   7.082   8.043   5.430  2.3568  0.6270 -0.3623
  267MOL0     H35993   7.141   8.066   5.262 -1.1684 -0.7535 -2.9518
  267MOL0     H35994   6.864   8.058   5.362 -0.2508  3.1681  0.2835
  267MOL0     H35995   6.895   7.988   5.205  0.8966 -1.3094 -0.2062
  267MOL0     H35996   7.100   8.190   5.060 -0.0601  0.9808 -2.0665
  267MOL0     H35997   6.970   8.480   4.932 -1.6693 -2.9305  1.6817
  267MOL0     H35998   7.045   8.576   5.066 -0.5632  0.0314  1.0971
  267MOL0     H35999   7.181   8.336   4.931 -2.0903 -1.2607  1.7273
  267MOL0     H36000   7.243   8.445   5.050  1.9062 -0.4322 -2.0605
  267MOL0     H36001   7.203   8.640   4.891 -1.6739 -0.1482  0.2681
  267MOL0     H36002   7.171   8.516   4.770  1.4151 -1.3608 -0.9965
  267MOL0     H36003   7.416   8.595   4.759  0.6972  1.9687  1.5637
  267MOL0     H36004   7.399   8.421   4.791 -2.8526  0.8911 -3.0843
  267MOL0     H36005   7.605   8.624   5.130  2.7059 -1.2593  2.8750
  267MOL0     H36006   7.947   8.650   5.163 -0.3520  1.6009  3.2563
  267MOL0     H36007   7.798   8.686   5.237  0.7970 -0.0440  1.4635
  267MOL0     H36008   7.890   8.536   5.278 -1.9263  1.5815  1.9552
  267MOL0     H36009   8.181   8.435   5.314  0.9729  3.9035  0.3659
  267MOL0     H36010   8.416   8.416   5.368  0.4151 -2.1554 -0.7544
  267MOL0     H36011   8.631   8.417   5.398  1.2748 -0.3588  1.3260
  267MOL0     H36012   8.612   8.265   5.287  0.1491 -0.3454  1.7681
  267MOL0     H36013   8.842   8.453   5.341 -1.0741 -0.3950  1.6814
  267MOL0     H36014   8.823   8.282   5.396  1.4099  1.8366  1.6134
  267MOL0     H36015   8.858   8.359   5.102  1.1344 -1.9949 -0.6489
  267MOL0     H36016   8.824   8.197   5.167  0.6155 -0.5381  0.3825
  267MOL0     H36017   9.076   8.359   5.230  0.8593 -1.2662  0.0878
  267MOL0     H36018   9.028   8.188   5.265 -5.2775 -2.9038 -2.3599
  267MOL0     H36019   9.049   8.307   4.985  1.6998 -0.6363 -1.0618
  267MOL0     H36020   9.025   8.142   5.023 -2.6362 -1.0679  3.8696
  267MOL0     H36021   9.263   8.197   5.179 -1.2335  0.9779  1.0950
  267MOL0     H36022   9.259   8.116   5.032  0.0886  0.4139 -0.8522
  267MOL0     H36023   9.275   8.414   5.073  1.3774 -0.2523  1.0403
  267MOL0     H36024   9.265   8.343   4.920 -1.7518 -2.1445 -1.1813
  267MOL0     H36025   9.499   8.283   5.114  1.2299  1.4688  0.4575
  267MOL0     H36026   9.516   8.399   4.991  1.1075 -0.4430 -0.3616
  267MOL0     H36027   8.515   8.458   4.955 -0.2311 -0.1491 -0.8885
  267MOL0     H36028   8.269   8.474   4.897 -0.5934 -1.4054  0.1984
  267MOL0     H36029   7.837   8.315   4.822  0.7165 -0.3492  1.8418
  267MOL0     H36030   7.607   8.373   4.780  1.7467 -1.6777 -0.2574
  267MOL0     H36031   7.887   7.622   5.082  0.7938 -0.4088 -0.8312
  267MOL0     H36032   8.117   7.592   5.070 -3.0771 -0.4194 -2.0273
  267MOL0     H36033   8.487   7.781   5.244 -2.8361 -1.8026  0.1754
  267MOL0     H36034   8.721   7.836   5.196  4.4610 -0.1454 -1.1273
  267MOL0     H36035   8.923   7.859   5.178  0.7472  0.6381 -1.2898
  267MOL0     H36036   8.984   7.839   5.340  0.8012 -1.1294 -0.1496
  267MOL0     H36037   9.152   7.898   5.166 -1.7047  0.4419 -0.4433
  267MOL0     H36038   9.108   7.754   5.079 -0.3020  1.9644 -1.0632
  267MOL0     H36039   9.184   7.613   5.263  0.3643 -0.4565  0.3541
  267MOL0     H36040   9.232   7.746   5.359 -1.1288  1.4498 -0.4654
  267MOL0     H36041   9.368   7.692   5.087  4.0461 -0.0443 -0.9906
  267MOL0     H36042   9.442   7.672   5.245  0.6603  1.3892  0.4823
  267MOL0     H36043   9.497   8.073   5.262 -0.1713  0.9030  2.6851
  267MOL0     H36044   8.835   7.446   5.342 -0.2899  1.0280  1.8653
  267MOL0     H36045   8.600   7.378   5.349  2.8957 -0.3781 -1.4088
  268MOL0     O36046   1.517   9.232   7.596  0.0529  0.4426  0.0048
  268MOL0     C36047   1.555   9.248   7.709  0.2918  0.3391 -0.2667
  268MOL0     O36048   1.482   9.204   7.819  0.9603  0.2609 -0.1962
  268MOL0     C36049   1.369   9.127   7.796 -0.0194  0.0905 -0.8823
  268MOL0     C36050   1.377   8.993   7.746 -0.2375 -0.1864 -0.1973
  268MOL0     C36051   1.266   8.909   7.732 -0.1187  0.5529  0.9671
  268MOL0     C36052   1.137   8.961   7.752 -0.2315 -0.2093  1.0170
  268MOL0     O36053   1.038   8.876   7.740  0.3045  0.2535 -0.3099
  268MOL0     C36054   0.937   8.901   7.644 -0.0787  0.1142 -0.4551
  268MOL0     C36055   0.880   8.768   7.579 -0.0511 -0.3855  0.1884
  268MOL0     C36056   0.765   8.707   7.662  0.0045  0.2957 -0.6905
  268MOL0     C36057   0.684   8.610   7.580 -0.0382 -0.0661 -0.9121
  268MOL0     C36058   0.592   8.527   7.667  0.6410  0.9088 -0.7690
  268MOL0     C36059   0.488   8.615   7.756 -0.8991  0.2391 -0.2377
  268MOL0     C36060   0.388   8.691   7.671  0.1933 -0.1828  0.3512
  268MOL0     C36061   0.289   8.595   7.598  0.0816  0.1163 -0.5750
  268MOL0     N36062   0.183   8.670   7.532  1.1704  0.4588 -0.5013
  268MOL0     C36063   0.072   8.713   7.595  0.0671  0.4842 -0.1017
  268MOL0     C36064   0.009   8.781   7.498  0.1324 -0.6143 -0.6507
  268MOL0     C36065  -0.124   8.848   7.509  0.3928 -0.7635  0.1805
  268MOL0     C36066  -0.194   8.806   7.377 -0.3871 -0.5868  0.1750
  268MOL0     C36067  -0.338   8.849   7.363 -0.2176  0.6936 -0.0138
  268MOL0     C36068  -0.397   8.807   7.236  0.1117  0.4574  0.6761
  268MOL0     O36069  -0.503   8.895   7.196  0.1761  0.0379 -0.3601
  268MOL0     C36070  -0.480   9.021   7.144 -1.2081 -0.0751  0.9996
  268MOL0     C36071  -0.353   9.058   7.079  0.4790 -0.2818  0.0874
  268MOL0     C36072  -0.344   9.178   7.012  0.0857 -0.0948 -0.1676
  268MOL0     C36073  -0.206   9.217   6.967 -0.3016 -0.7368  0.6469
  268MOL0     C36074  -0.461   9.270   7.002  0.4618  0.0624 -0.3641
  268MOL0     C36075  -0.461   9.392   6.920 -1.2086  0.4605 -0.2202
  268MOL0     O36076  -0.529   9.492   6.972 -0.0867 -0.7240  0.0766
  268MOL0     C36077  -0.566   9.594   6.879  0.7466 -0.8706  0.1450
  268MOL0     C36078  -0.474   9.683   6.829  0.7195 -0.6490  0.3522
  268MOL0     C36079  -0.507   9.771   6.726 -0.9050 -1.1318 -0.1480
  268MOL0     C36080  -0.638   9.789   6.687 -0.8360  0.2989  0.0521
  268MOL0     O36081  -0.681   9.889   6.601 -0.4196  0.3433 -0.1016
  268MOL0     C36082  -0.653   9.877   6.460  0.3098  0.2551  0.6846
  268MOL0     C36083  -0.780   9.837   6.380  0.1362  0.9541  0.0953
  268MOL0     C36084  -0.903   9.926   6.387  0.1624  0.6809  0.1254
  268MOL0     C36085  -0.887  10.077   6.366  0.0593  0.7892 -0.1336
  268MOL0     C36086  -1.016  10.147   6.410 -0.4887 -0.5284  0.4995
  268MOL0     C36087  -1.009  10.298   6.377 -0.2284  0.0336  0.1735
  268MOL0     C36088  -1.138  10.387   6.396  0.7520  0.2935 -0.4349
  268MOL0     C36089  -1.268  10.330   6.332  0.4133  0.4415 -0.1011
  268MOL0    Cl36090  -1.387  10.449   6.317  0.7504 -0.1719  0.2059
  268MOL0     C36091  -0.732   9.700   6.746  0.0310 -0.0040 -0.8318
  268MOL0     C36092  -0.704   9.603   6.836 -0.8953 -0.3363 -0.0552
  268MOL0     O36093  -0.395   9.396   6.817  0.1988  0.0790 -0.6234
  268MOL0     C36094  -0.576   9.235   7.074  0.6960 -0.7789 -0.1347
  268MOL0     C36095  -0.592   9.106   7.135 -0.5889 -0.1617 -0.2931
  268MOL0     N36096   0.092   8.793   7.385  0.3503  0.7800  0.3068
  268MOL0     N36097   0.197   8.722   7.414  0.2997  0.3826 -0.0566
  268MOL0     C36098   1.123   9.097   7.802  0.8116  0.8511  0.4978
  268MOL0     C36099   1.237   9.171   7.824 -0.2729  0.3174 -0.0096
  268MOL0     C36100   1.699   9.288   7.727 -0.0661 -0.0906  0.1417
  268MOL0     C36101   1.750   9.293   7.846 -0.1570 -0.8925 -0.2502
  268MOL0     C36102   1.884   9.326   7.867 -0.3305 -1.0674  0.6429
  268MOL0     C36103   1.961   9.374   7.755 -0.4112  0.7252 -0.5881
  268MOL0     O36104   2.087   9.431   7.772 -0.2536  0.7358 -0.2400
  268MOL0     C36105   2.198   9.333   7.740  1.2320 -0.5405 -0.2011
  268MOL0     C36106   2.331   9.384   7.791  0.0040  0.4510  0.0946
  268MOL0     C36107   2.372   9.528   7.747  0.0141  0.9640 -0.4022
  268MOL0     C36108   2.458   9.515   7.625  0.0645  0.0798 -0.0921
  268MOL0     C36109   2.504   9.644   7.593  0.7863 -0.4261  0.8570
  268MOL0     C36110   2.533   9.762   7.551 -0.4580  0.0410 -0.0344
  268MOL0     C36111   1.915   9.356   7.625 -0.4113 -0.1850 -0.5405
  268MOL0     C36112   1.782   9.311   7.614  0.6994  0.2438 -0.4490
  268MOL0     H36113   1.474   8.946   7.731  0.4048 -0.0142  2.7060
  268MOL0     H36114   1.275   8.805   7.702  0.4338  1.0942 -0.8768
  268MOL0     H36115   0.851   8.956   7.683 -2.1171 -1.5719 -2.2770
  268MOL0     H36116   0.983   8.960   7.564 -2.3104  2.5024 -0.0989
  268MOL0     H36117   0.822   8.795   7.490  0.4259 -1.8589 -0.5936
  268MOL0     H36118   0.953   8.689   7.563 -0.8441 -1.5265  1.8893
  268MOL0     H36119   0.808   8.649   7.744 -2.2802  0.2585  0.5618
  268MOL0     H36120   0.707   8.791   7.700  0.6446 -0.1718  1.4555
  268MOL0     H36121   0.631   8.673   7.507  0.9807  2.4466  0.3883
  268MOL0     H36122   0.730   8.539   7.511 -1.1152 -0.6170 -1.0820
  268MOL0     H36123   0.534   8.465   7.599  0.5011  1.0636 -0.7905
  268MOL0     H36124   0.652   8.461   7.731  2.5216  3.0784 -0.1422
  268MOL0     H36125   0.435   8.546   7.823 -2.2369  1.5508  0.1105
  268MOL0     H36126   0.544   8.681   7.823 -0.0800 -0.0128 -0.6701
  268MOL0     H36127   0.332   8.753   7.741  1.5936  2.0643 -0.4307
  268MOL0     H36128   0.426   8.757   7.592 -3.3749 -3.3704 -4.6333
  268MOL0     H36129   0.245   8.525   7.670 -0.9872 -1.0855 -2.3423
  268MOL0     H36130   0.346   8.524   7.539  0.3215 -1.9144  1.9115
  268MOL0     H36131   0.039   8.683   7.694 -0.2132 -3.2284 -1.1572
  268MOL0     H36132  -0.178   8.812   7.597  0.0133 -2.4238 -0.6782
  268MOL0     H36133  -0.118   8.957   7.506 -0.3420 -0.7317 -0.1826
  268MOL0     H36134  -0.178   8.698   7.371 -0.6621 -0.6482  0.5187
  268MOL0     H36135  -0.133   8.858   7.302  3.2323  0.4880  3.5093
  268MOL0     H36136  -0.341   8.958   7.367 -0.4036  0.7642 -1.6877
  268MOL0     H36137  -0.401   8.817   7.447  0.3791 -0.3148  0.0701
  268MOL0     H36138  -0.440   8.707   7.232 -1.8269  1.2320 -3.1869
  268MOL0     H36139  -0.321   8.808   7.156  0.5518 -1.6758  1.0279
  268MOL0     H36140  -0.261   9.001   7.084  1.6789  1.5396 -0.1194
  268MOL0     H36141  -0.194   9.324   6.982  0.5712 -0.8470  0.7850
  268MOL0     H36142  -0.126   9.163   7.019  0.4503 -0.0268  0.2341
  268MOL0     H36143  -0.189   9.193   6.862  0.9094  2.5776 -0.0194
  268MOL0     H36144  -0.371   9.665   6.856  0.4184  0.3245  2.3470
  268MOL0     H36145  -0.429   9.837   6.690 -1.3331  0.5708  1.8573
  268MOL0     H36146  -0.628   9.976   6.423  0.2193 -0.1127 -0.3855
  268MOL0     H36147  -0.576   9.804   6.433 -0.6466  0.5233 -3.4264
  268MOL0     H36148  -0.764   9.823   6.273  1.6749 -1.7361  0.5886
  268MOL0     H36149  -0.807   9.736   6.412 -0.9578  0.8893 -0.9647
  268MOL0     H36150  -0.955   9.920   6.483 -0.3061  1.1510 -0.0929
  268MOL0     H36151  -0.977   9.894   6.313 -0.9094 -0.7528  1.7474
  268MOL0     H36152  -0.795  10.116   6.412 -0.3355  2.0950 -0.4010
  268MOL0     H36153  -0.879  10.102   6.260 -2.3431  2.5533  0.0339
  268MOL0     H36154  -1.033  10.146   6.518 -1.1853  0.6451  0.4187
  268MOL0     H36155  -1.096  10.088   6.365 -0.8836 -0.5406  1.2114
  268MOL0     H36156  -0.935  10.348   6.441  2.9333 -3.7869 -0.1390
  268MOL0     H36157  -0.977  10.300   6.273 -1.2564 -0.3847 -0.1602
  268MOL0     H36158  -1.114  10.485   6.352  1.6026 -0.5998 -2.0677
  268MOL0     H36159  -1.161  10.397   6.502 -1.6823 -2.0978 -0.6148
  268MOL0     H36160  -1.301  10.246   6.394  1.1277 -1.8240 -2.5766
  268MOL0     H36161  -1.250  10.282   6.235  0.8131 -3.2635  1.6136
  268MOL0     H36162  -0.836   9.702   6.717 -1.5452 -2.0879  3.7834
  268MOL0     H36163  -0.782   9.538   6.875 -2.2120  2.3695  2.1535
  268MOL0     H36164  -0.663   9.298   7.061  1.6938  0.7417  0.2542
  268MOL0     H36165  -0.689   9.094   7.181  0.3628 -0.5746  1.7408
  268MOL0     H36166   1.026   9.128   7.838 -0.1457 -1.6140  0.2382
  268MOL0     H36167   1.232   9.268   7.872  1.3233  0.4549 -0.0578
  268MOL0     H36168   1.694   9.277   7.938  0.0714  0.6661  0.1860
  268MOL0     H36169   1.922   9.330   7.969  0.6204  1.3931  0.2522
  268MOL0     H36170   2.167   9.245   7.797  1.0481  1.0058  2.2233
  268MOL0     H36171   2.198   9.303   7.635 -1.4433  1.2972 -0.8231
  268MOL0     H36172   2.400   9.301   7.777 -1.8006 -0.8917 -1.2438
  268MOL0     H36173   2.329   9.388   7.900  1.7241 -1.1657  0.2354
  268MOL0     H36174   2.439   9.559   7.828 -2.5627 -0.8336  2.6344
  268MOL0     H36175   2.282   9.586   7.725 -2.3837 -2.6273 -0.8780
  268MOL0     H36176   2.410   9.472   7.537 -1.8948  2.8231 -0.5086
  268MOL0     H36177   2.544   9.450   7.646 -0.3412 -0.5851 -0.4526
  268MOL0     H36178   2.550   9.866   7.534 -3.0044  0.7139  0.9493
  268MOL0     H36179   1.967   9.393   7.537  0.8651  3.9868  1.6515
  268MOL0     H36180   1.738   9.297   7.516  0.7130 -0.7208 -0.3297
  269MOL0     O36181   7.690   0.424   2.029 -0.7906  0.0040 -0.2838
  269MOL0     C36182   7.687   0.543   1.980 -0.8977 -0.1175 -0.0690
  269MOL0     O36183   7.583   0.598   1.929  0.2102  0.7456  0.4295
  269MOL0     C36184   7.461   0.545   1.949  0.1749 -0.0738 -0.0685
  269MOL0     C36185   7.408   0.456   1.850 -0.5765 -0.5550 -0.7007
  269MOL0     C36186   7.279   0.415   1.854 -0.0869  1.5449 -0.4257
  269MOL0     C36187   7.192   0.451   1.955 -0.7727  0.0407 -0.0807
  269MOL0     O36188   7.061   0.425   1.962  0.4568  0.4989 -0.2830
  269MOL0     C36189   7.016   0.312   1.887  0.2830  0.1629 -0.4992
  269MOL0     C36190   6.867   0.290   1.920  0.4385  0.4624  0.2053
  269MOL0     C36191   6.789   0.419   1.924  0.8082  0.4260  0.8647
  269MOL0     C36192   6.646   0.371   1.931  0.5021 -0.8375  0.3835
  269MOL0     C36193   6.538   0.476   1.953 -0.5255  0.7337 -0.6379
  269MOL0     C36194   6.389   0.412   1.971  0.2228 -0.1672 -0.1451
  269MOL0     C36195   6.333   0.362   2.107 -0.0568  0.6474 -0.1861
  269MOL0     C36196   6.199   0.291   2.098 -0.3918  0.4459 -0.4041
  269MOL0     N36197   6.140   0.281   2.237 -0.2832  0.2637  0.0720
  269MOL0     C36198   6.076   0.384   2.307  0.7279  0.3467 -0.3433
  269MOL0     C36199   6.039   0.333   2.429  0.5573 -0.4401 -0.7106
  269MOL0     C36200   5.959   0.384   2.541  0.5202 -0.2873  0.1320
  269MOL0     C36201   5.851   0.486   2.492  0.7612 -0.4605  0.6401
  269MOL0     C36202   5.733   0.515   2.586  0.0246 -0.8888 -0.4615
  269MOL0     C36203   5.618   0.589   2.523 -0.0219  0.2472 -1.0653
  269MOL0     O36204   5.546   0.675   2.613 -0.0209  0.0479  0.1786
  269MOL0     C36205   5.424   0.730   2.573  0.3206  1.2440 -0.1323
  269MOL0     C36206   5.355   0.805   2.667  0.4942 -0.0697 -0.8834
  269MOL0     C36207   5.235   0.866   2.645 -0.0993  0.5451  0.5299
  269MOL0     C36208   5.178   0.955   2.760 -0.1340 -0.4342  0.0256
  269MOL0     C36209   5.170   0.844   2.522  0.0788 -1.0211  0.9963
  269MOL0     C36210   5.042   0.911   2.484  0.0251 -0.6171 -0.1192
  269MOL0     O36211   4.966   0.978   2.577  0.3791 -0.4576 -0.3810
  269MOL0     C36212   4.832   1.020   2.546 -0.6385 -0.8994 -0.8420
  269MOL0     C36213   4.777   1.057   2.424 -0.0431 -0.1213 -0.0041
  269MOL0     C36214   4.649   1.092   2.410  0.2380 -0.4311  0.1772
  269MOL0     C36215   4.559   1.097   2.518  0.0668 -0.2574 -0.5983
  269MOL0     O36216   4.421   1.108   2.502 -0.0788  0.0874  0.0474
  269MOL0     C36217   4.350   1.185   2.597 -0.1222 -0.3189 -0.6006
  269MOL0     C36218   4.300   1.320   2.531  0.7966 -0.2499  0.1852
  269MOL0     C36219   4.224   1.287   2.403 -0.0141 -0.8006  0.1316
  269MOL0     C36220   4.152   1.415   2.344  0.6372 -0.0815 -0.0355
  269MOL0     C36221   4.119   1.407   2.198  0.1705  0.0641  0.1689
  269MOL0     C36222   4.232   1.427   2.100  0.0410  0.4979  0.5795
  269MOL0     C36223   4.171   1.442   1.967 -0.1364  0.1174 -0.1013
  269MOL0     C36224   4.281   1.487   1.880 -0.2332 -0.6456 -0.4079
  269MOL0    Cl36225   4.206   1.511   1.708 -0.3521 -0.3214  0.3356
  269MOL0     C36226   4.619   1.065   2.645  0.1948 -0.6020 -0.9066
  269MOL0     C36227   4.758   1.041   2.671  0.8211 -0.1959  1.0155
  269MOL0     O36228   5.020   0.905   2.363 -0.0712 -0.6028  0.0236
  269MOL0     C36229   5.240   0.768   2.423 -0.4164 -0.5771  0.1556
  269MOL0     C36230   5.365   0.711   2.449 -0.8170 -0.6031 -0.0992
  269MOL0     N36231   6.084   0.204   2.431  0.5354 -0.9477 -0.0631
  269MOL0     N36232   6.146   0.172   2.317  0.1538  0.5391 -0.3329
  269MOL0     C36233   7.248   0.523   2.062 -0.6501 -0.1109 -0.1630
  269MOL0     C36234   7.378   0.577   2.063 -0.8815  0.0722  0.2037
  269MOL0     C36235   7.820   0.616   1.979 -0.1593  0.1627 -0.4016
  269MOL0     C36236   7.831   0.756   1.954  0.5684 -0.2821 -0.8443
  269MOL0     C36237   7.961   0.812   1.952 -0.2113  0.8140 -0.5938
  269MOL0     C36238   8.078   0.734   1.987 -0.0817 -0.5176 -0.8436
  269MOL0     O36239   8.194   0.797   2.010 -0.4050 -0.2945  0.6706
  269MOL0     C36240   8.316   0.760   1.939 -0.0764 -0.2990 -0.2627
  269MOL0     C36241   8.434   0.846   1.982 -0.0632 -0.0677  0.0718
  269MOL0     C36242   8.507   0.796   2.110  0.6857 -0.1461 -0.6946
  269MOL0     C36243   8.403   0.810   2.237 -0.1821  0.4711 -0.5856
  269MOL0     C36244   8.478   0.788   2.365 -0.3982 -0.7933 -0.4736
  269MOL0     C36245   8.542   0.775   2.470  0.0286 -0.0595 -0.8360
  269MOL0     C36246   8.062   0.599   2.003  0.4543  0.7315 -0.9296
  269MOL0     C36247   7.935   0.541   1.985 -0.6827  0.2699  0.3295
  269MOL0     H36248   7.476   0.423   1.772 -2.2354 -2.7589 -1.3139
  269MOL0     H36249   7.246   0.355   1.769 -0.6161  1.5038 -0.1969
  269MOL0     H36250   7.016   0.332   1.780 -3.6241  1.8338 -0.3551
  269MOL0     H36251   7.072   0.219   1.901  0.0219  0.1601  0.6821
  269MOL0     H36252   6.820   0.212   1.860  0.6605  0.6191 -0.1766
  269MOL0     H36253   6.864   0.247   2.021 -0.3896 -3.7037 -1.3876
  269MOL0     H36254   6.829   0.477   2.008  3.1617 -2.7831  2.1528
  269MOL0     H36255   6.800   0.468   1.826  1.5726 -3.6756 -1.3067
  269MOL0     H36256   6.625   0.301   1.849  0.9053 -0.8882  0.3223
  269MOL0     H36257   6.643   0.312   2.023 -2.0059  0.1837  1.0329
  269MOL0     H36258   6.569   0.531   2.042  0.6778 -0.1707 -0.4717
  269MOL0     H36259   6.550   0.540   1.866  0.5895  0.8837 -0.3877
  269MOL0     H36260   6.317   0.492   1.950  0.0356  0.2264  1.8419
  269MOL0     H36261   6.367   0.329   1.903  1.5242 -0.9629  0.3759
  269MOL0     H36262   6.398   0.291   2.160 -0.6739 -1.6514 -2.3317
  269MOL0     H36263   6.313   0.455   2.162 -4.3791  2.1640 -3.6931
  269MOL0     H36264   6.203   0.189   2.058  2.2693 -0.6047  2.1928
  269MOL0     H36265   6.129   0.354   2.041 -1.9537  3.1590  3.9475
  269MOL0     H36266   6.043   0.479   2.266 -1.2075  0.6914  1.8311
  269MOL0     H36267   5.906   0.299   2.586  0.3607  0.1487  0.7693
  269MOL0     H36268   6.024   0.416   2.623  0.6281 -0.7277  0.2226
  269MOL0     H36269   5.807   0.447   2.400  2.5629  0.6915 -0.7700
  269MOL0     H36270   5.901   0.580   2.467 -1.0775 -0.1258 -2.2177
  269MOL0     H36271   5.766   0.573   2.673  0.3555  1.1583 -1.8833
  269MOL0     H36272   5.698   0.417   2.621  1.2856 -1.3723 -0.5285
  269MOL0     H36273   5.553   0.504   2.496 -0.2589 -0.0940  0.4806
  269MOL0     H36274   5.649   0.644   2.433  0.2238  0.8437 -0.6171
  269MOL0     H36275   5.390   0.819   2.769 -2.8685 -2.4985  0.7994
  269MOL0     H36276   5.173   1.058   2.725 -0.3947 -0.2346  0.6388
  269MOL0     H36277   5.079   0.927   2.799 -0.2437  0.6545  0.5465
  269MOL0     H36278   5.249   0.949   2.843 -0.3964  0.2454  0.3080
  269MOL0     H36279   4.834   1.056   2.332 -0.3989  2.2785 -0.3218
  269MOL0     H36280   4.609   1.121   2.314  1.6639  2.2798  0.2984
  269MOL0     H36281   4.263   1.133   2.636 -0.7347  1.3292  0.3501
  269MOL0     H36282   4.414   1.216   2.680 -1.0650  2.0366 -0.6836
  269MOL0     H36283   4.243   1.378   2.604  1.5672 -0.2819  0.8308
  269MOL0     H36284   4.385   1.384   2.506  1.0240 -1.3492 -2.1469
  269MOL0     H36285   4.147   1.212   2.424 -0.5349  0.1808  2.0186
  269MOL0     H36286   4.292   1.251   2.326 -0.3648 -3.2102  0.8789
  269MOL0     H36287   4.056   1.427   2.395 -0.6858 -2.1812 -1.9116
  269MOL0     H36288   4.225   1.494   2.368  1.2203 -0.2298 -1.2715
  269MOL0     H36289   4.043   1.485   2.188  1.4460  1.4026  0.4431
  269MOL0     H36290   4.071   1.311   2.181 -0.4745  0.2933  0.6691
  269MOL0     H36291   4.282   1.521   2.124  0.1089  1.2639 -2.2131
  269MOL0     H36292   4.305   1.347   2.083  0.6757  0.9547  1.0894
  269MOL0     H36293   4.082   1.505   1.968  0.4456  0.9491 -0.4134
  269MOL0     H36294   4.137   1.342   1.936  3.0015 -0.7111 -1.2593
  269MOL0     H36295   4.360   1.412   1.886  0.1269 -0.3486 -1.2108
  269MOL0     H36296   4.328   1.579   1.916 -0.5613 -0.0484 -1.4530
  269MOL0     H36297   4.555   1.065   2.732 -0.2471 -0.3228 -1.2259
  269MOL0     H36298   4.788   1.022   2.773  1.4347  2.2931  1.3710
  269MOL0     H36299   5.203   0.764   2.321  3.2362 -6.4628 -1.4606
  269MOL0     H36300   5.410   0.658   2.365 -1.6354 -0.0413 -0.9046
  269MOL0     H36301   7.182   0.549   2.144  1.2123 -1.3520  1.8421
  269MOL0     H36302   7.424   0.630   2.146  2.5166 -2.7775  0.3977
  269MOL0     H36303   7.743   0.819   1.943  0.7690  0.0212 -0.7284
  269MOL0     H36304   7.972   0.921   1.950 -1.3460  1.0046  1.2814
  269MOL0     H36305   8.340   0.658   1.969  3.3545  1.0061  1.9668
  269MOL0     H36306   8.300   0.773   1.832 -0.1494  0.5187 -0.1617
  269MOL0     H36307   8.405   0.950   2.000 -1.3140 -0.1721 -1.1452
  269MOL0     H36308   8.506   0.837   1.900 -0.3133 -0.4181 -0.1105
  269MOL0     H36309   8.598   0.857   2.110  0.8657 -0.4035 -1.5381
  269MOL0     H36310   8.543   0.692   2.111  3.3438  0.6160  2.9266
  269MOL0     H36311   8.324   0.735   2.232  0.3204 -0.0951 -0.1479
  269MOL0     H36312   8.351   0.906   2.233 -0.9425  0.0411 -1.6619
  269MOL0     H36313   8.617   0.769   2.547  0.5622  1.1853 -1.2345
  269MOL0     H36314   8.149   0.545   2.041  0.1740  0.8966 -0.0401
  269MOL0     H36315   7.943   0.433   1.987  1.0049  0.2759 -2.0718
  270MOL0     O36316   4.511   2.002   9.823  0.1948 -0.1612 -1.4357
  270MOL0     C36317   4.472   2.082   9.743  0.0284 -0.1871  0.0410
  270MOL0     O36318   4.539   2.191   9.696 -0.4699  0.0357  0.6340
  270MOL0     C36319   4.677   2.189   9.702 -0.2047 -0.4508  0.0299
  270MOL0     C36320   4.758   2.078   9.701  0.0428 -0.3732 -0.2015
  270MOL0     C36321   4.900   2.089   9.702  0.0709  0.2305 -0.2283
  270MOL0     C36322   4.964   2.209   9.692 -0.1260 -0.3369  0.5707
  270MOL0     O36323   5.098   2.231   9.672 -0.4927  0.2436  0.0628
  270MOL0     C36324   5.177   2.119   9.613  0.0994 -0.9193 -0.3217
  270MOL0     C36325   5.321   2.167   9.604  0.2625 -0.4385  0.1198
  270MOL0     C36326   5.402   2.146   9.742 -0.4375  0.1332  0.0371
  270MOL0     C36327   5.544   2.210   9.733  0.5639 -0.2111 -0.3673
  270MOL0     C36328   5.552   2.366   9.726  0.1597 -0.0726  0.1637
  270MOL0     C36329   5.697   2.398   9.737  0.1998 -0.4668  0.2460
  270MOL0     C36330   5.713   2.548   9.704 -0.4290 -0.1386 -0.0116
  270MOL0     C36331   5.858   2.577   9.672  0.1851 -0.1598  0.3336
  270MOL0     N36332   5.932   2.575   9.800 -0.2637 -0.7667 -0.0084
  270MOL0     C36333   6.043   2.511   9.824 -0.2301 -0.0013  0.1331
  270MOL0     C36334   6.098   2.559   9.945 -0.3968 -0.3459 -0.3966
  270MOL0     C36335   6.215   2.516  10.028  0.6720 -0.3224  1.0748
  270MOL0     C36336   6.169   2.400  10.111 -0.1543  0.9517 -0.1308
  270MOL0     C36337   6.070   2.444  10.221  0.0166 -0.1159 -0.7728
  270MOL0     C36338   5.926   2.393  10.187 -0.9252 -0.3152 -0.1986
  270MOL0     O36339   5.923   2.252  10.202 -0.5662 -0.1463  0.5056
  270MOL0     C36340   5.806   2.174  10.190  0.3734 -0.6061  0.2373
  270MOL0     C36341   5.795   2.058  10.260 -0.3775 -0.7026 -0.2386
  270MOL0     C36342   5.675   1.974  10.266 -0.0332 -0.0203 -0.6269
  270MOL0     C36343   5.684   1.855  10.354 -0.0673 -0.2296 -0.5407
  270MOL0     C36344   5.566   2.018  10.192 -0.5574 -0.2176 -0.3991
  270MOL0     C36345   5.429   1.959  10.173  0.9000  0.6286  0.2187
  270MOL0     O36346   5.391   1.914  10.053 -0.0579 -0.5486 -0.1058
  270MOL0     C36347   5.260   1.872  10.028 -0.2360 -0.4456  0.0035
  270MOL0     C36348   5.147   1.965  10.007 -0.6365  0.4502  0.1692
  270MOL0     C36349   5.021   1.914   9.972  0.0195 -0.8789 -0.6242
  270MOL0     C36350   4.996   1.776   9.937 -0.7776  0.6580 -0.8808
  270MOL0     O36351   4.883   1.719   9.872 -0.4271 -0.2208  0.1694
  270MOL0     C36352   4.753   1.764   9.909 -0.0365 -0.0833  0.8023
  270MOL0     C36353   4.707   1.658  10.011 -0.3741 -0.2165 -0.0479
  270MOL0     C36354   4.558   1.641   9.999  0.0769 -0.0231 -0.6825
  270MOL0     C36355   4.518   1.529  10.092  0.6623 -0.0794 -0.2734
  270MOL0     C36356   4.366   1.529  10.092  0.5354 -0.2373  0.7027
  270MOL0     C36357   4.300   1.406  10.166 -0.4771 -0.1808  0.4163
  270MOL0     C36358   4.146   1.409  10.145 -0.3585 -0.1259  0.1885
  270MOL0     C36359   4.078   1.292  10.221 -0.6584 -0.4571 -0.5139
  270MOL0    Cl36360   3.897   1.291  10.212 -0.1023 -0.3434  0.1224
  270MOL0     C36361   5.109   1.691   9.953 -0.3175 -0.0530  0.4670
  270MOL0     C36362   5.239   1.737  10.000  0.0546 -0.4922  0.0693
  270MOL0     O36363   5.366   1.943  10.278  0.5995  0.5102 -0.4310
  270MOL0     C36364   5.574   2.142  10.124  0.2660  0.9375 -0.2974
  270MOL0     C36365   5.694   2.213  10.115  0.4493 -0.0194  0.6968
  270MOL0     N36366   6.007   2.656   9.987  0.0971 -0.1555 -0.0209
  270MOL0     N36367   5.913   2.665   9.900 -0.0707 -0.2031 -0.7867
  270MOL0     C36368   4.876   2.322   9.695 -0.4519 -0.4669  0.2238
  270MOL0     C36369   4.738   2.308   9.710  0.4104  0.2793 -0.7335
  270MOL0     C36370   4.335   2.091   9.716  0.2425  0.2223 -0.4386
  270MOL0     C36371   4.277   2.171   9.613  0.4234  0.7567  0.0244
  270MOL0     C36372   4.146   2.156   9.568 -0.8535 -0.1590 -0.8557
  270MOL0     C36373   4.060   2.062   9.632  0.4125 -0.7553 -0.4418
  270MOL0     O36374   3.934   2.044   9.585 -0.1600  0.2645  1.0075
  270MOL0     C36375   3.853   1.928   9.619 -0.8118 -0.2087  0.4143
  270MOL0     C36376   3.698   1.949   9.604 -0.0326  0.3886  0.0467
  270MOL0     C36377   3.633   1.803   9.616  0.0445  0.0110 -1.0198
  270MOL0     C36378   3.486   1.809   9.611 -0.3625  0.1375  0.0509
  270MOL0     C36379   3.437   1.855   9.481  0.6136  1.1338  0.7941
  270MOL0     C36380   3.383   1.907   9.381  0.1545  0.0038  0.6035
  270MOL0     C36381   4.119   1.994   9.742  0.7410  0.3001 -0.5085
  270MOL0     C36382   4.250   2.005   9.782  0.4855 -0.5983  0.4638
  270MOL0     H36383   4.721   1.978   9.718 -1.1724  0.2436  0.9725
  270MOL0     H36384   4.961   2.001   9.718 -2.8906 -1.7342  1.3377
  270MOL0     H36385   5.181   2.030   9.677 -0.7719 -0.8393 -0.1387
  270MOL0     H36386   5.144   2.091   9.512  0.8537 -0.8893 -0.5818
  270MOL0     H36387   5.378   2.123   9.522  0.3458  0.7157 -0.4641
  270MOL0     H36388   5.323   2.273   9.576  0.7541 -0.8776 -1.6132
  270MOL0     H36389   5.345   2.192   9.823 -2.4774 -0.5198 -0.9703
  270MOL0     H36390   5.412   2.042   9.776  0.3889  1.1238  3.1520
  270MOL0     H36391   5.594   2.165   9.819 -3.3684  0.0476  2.3377
  270MOL0     H36392   5.586   2.169   9.641 -0.0028 -2.4375  0.3062
  270MOL0     H36393   5.511   2.403   9.632 -1.0095  1.8844  1.3595
  270MOL0     H36394   5.510   2.423   9.809  2.9993  0.8158  1.1273
  270MOL0     H36395   5.728   2.381   9.841  1.4352 -0.0682 -0.0337
  270MOL0     H36396   5.744   2.332   9.664 -1.8142 -0.7050 -0.8816
  270MOL0     H36397   5.659   2.567   9.610  0.2580 -1.9889 -0.8313
  270MOL0     H36398   5.678   2.606   9.789 -1.9375  1.4485 -1.6331
  270MOL0     H36399   5.858   2.676   9.626 -2.5143 -0.4020 -0.3557
  270MOL0     H36400   5.900   2.512   9.594 -0.1606 -2.1441  1.7489
  270MOL0     H36401   6.077   2.421   9.773  0.8233 -0.2066  1.1534
  270MOL0     H36402   6.296   2.490   9.959 -0.6916 -2.8920  0.3489
  270MOL0     H36403   6.246   2.603  10.088 -1.2893  1.0460  0.2168
  270MOL0     H36404   6.254   2.353  10.161 -0.4488 -0.1264 -0.6095
  270MOL0     H36405   6.133   2.320  10.046 -2.7119  3.2453 -1.7795
  270MOL0     H36406   6.069   2.551  10.240 -0.2978 -0.5687  2.4406
  270MOL0     H36407   6.102   2.399  10.316  2.4722 -1.7084 -2.2398
  270MOL0     H36408   5.902   2.411  10.081 -0.4594  1.2805 -0.0686
  270MOL0     H36409   5.864   2.440  10.264  3.5209  2.5584  2.0308
  270MOL0     H36410   5.885   2.033  10.315  1.3078  1.5505 -1.7997
  270MOL0     H36411   5.642   1.769  10.301 -0.8774  0.5104 -1.1458
  270MOL0     H36412   5.783   1.830  10.392 -0.3352 -1.5085 -0.6486
  270MOL0     H36413   5.620   1.878  10.439 -1.7782  3.9517 -2.6283
  270MOL0     H36414   5.157   2.072  10.019 -4.1748  1.0034 -0.9095
  270MOL0     H36415   4.943   1.988   9.957  0.3185  0.0477  1.8903
  270MOL0     H36416   4.751   1.867   9.948 -1.7029  1.3652 -2.6738
  270MOL0     H36417   4.686   1.758   9.823  2.1954 -0.2112 -1.0198
  270MOL0     H36418   4.754   1.562   9.987  2.1856 -0.0616  3.5266
  270MOL0     H36419   4.743   1.701  10.105  3.4100 -0.0155 -1.4207
  270MOL0     H36420   4.525   1.605   9.901 -0.7670 -3.9206  0.8098
  270MOL0     H36421   4.508   1.734  10.029  0.2662 -0.4988  1.3005
  270MOL0     H36422   4.560   1.441  10.041  1.1495  0.9176 -1.6567
  270MOL0     H36423   4.553   1.531  10.195  1.3945 -0.5741 -0.4993
  270MOL0     H36424   4.349   1.518   9.984  2.3086 -1.1578  0.4646
  270MOL0     H36425   4.318   1.621  10.126  1.0153  1.0149 -1.7516
  270MOL0     H36426   4.341   1.322  10.110 -1.0328 -0.2225  0.0667
  270MOL0     H36427   4.345   1.409  10.266  1.3548  0.6331 -0.3734
  270MOL0     H36428   4.125   1.418  10.038 -1.6228  0.7686  0.4904
  270MOL0     H36429   4.129   1.510  10.182  1.9443  0.9645 -1.4945
  270MOL0     H36430   4.113   1.195  10.184 -2.0813 -0.4693 -1.9485
  270MOL0     H36431   4.110   1.303  10.325  4.0485 -1.1230 -1.7013
  270MOL0     H36432   5.103   1.592   9.909  2.1531 -0.1588  0.2144
  270MOL0     H36433   5.325   1.673  10.021 -0.9761 -1.6236  0.9565
  270MOL0     H36434   5.482   2.162  10.070 -0.2866 -2.2159 -0.7422
  270MOL0     H36435   5.700   2.309  10.064  0.3666  0.3194  1.3257
  270MOL0     H36436   4.927   2.418   9.693 -1.1531 -0.0722  0.6514
  270MOL0     H36437   4.673   2.395   9.704  1.6783  1.1317 -3.2173
  270MOL0     H36438   4.348   2.220   9.547  0.7536 -1.2647 -1.2459
  270MOL0     H36439   4.116   2.207   9.476 -2.0003 -3.0655 -2.2198
  270MOL0     H36440   3.893   1.852   9.551  1.0224  0.1663  1.0139
  270MOL0     H36441   3.878   1.902   9.723  0.0586  0.0076  0.2712
  270MOL0     H36442   3.692   1.997   9.506  1.8282 -2.7924 -1.7826
  270MOL0     H36443   3.661   2.013   9.685  1.8244 -0.2680  1.5022
  270MOL0     H36444   3.665   1.766   9.714 -1.1139 -2.0801 -1.3829
  270MOL0     H36445   3.664   1.749   9.527  0.2009  0.1391 -1.0446
  270MOL0     H36446   3.431   1.851   9.695  0.7814 -1.7267  1.8144
  270MOL0     H36447   3.465   1.701   9.614 -0.8754  0.1943 -1.1480
  270MOL0     H36448   3.335   1.956   9.299 -0.6499 -0.4322  0.7911
  270MOL0     H36449   4.045   1.942   9.801 -2.1979  4.3076 -0.2300
  270MOL0     H36450   4.277   1.935   9.860  5.2966 -0.1890 -0.5447
  271MOL0     O36451   8.357   5.639   3.685  0.1737 -0.1141  0.4340
  271MOL0     C36452   8.307   5.705   3.776 -0.5571 -0.2301 -0.7861
  271MOL0     O36453   8.172   5.716   3.804  0.2204  0.1238 -0.3945
  271MOL0     C36454   8.100   5.619   3.741 -0.1021  0.2082 -0.1273
  271MOL0     C36455   8.027   5.636   3.618  0.0445 -0.8883  0.7213
  271MOL0     C36456   7.949   5.529   3.571  0.5824  0.0804  0.3389
  271MOL0     C36457   7.922   5.425   3.656  0.4815  0.3965  0.4749
  271MOL0     O36458   7.838   5.321   3.611 -0.1066  0.4694 -0.6602
  271MOL0     C36459   7.719   5.354   3.540  0.2504  0.4471  0.5356
  271MOL0     C36460   7.620   5.242   3.526 -0.0938  1.1374 -0.8720
  271MOL0     C36461   7.538   5.219   3.662 -0.7150  0.3098  0.8364
  271MOL0     C36462   7.436   5.106   3.644  0.7948 -0.7930 -0.2822
  271MOL0     C36463   7.371   5.079   3.783 -0.4624  0.5295  0.1515
  271MOL0     C36464   7.279   4.953   3.770 -0.3490 -0.1961  0.1784
  271MOL0     C36465   7.253   4.902   3.915  0.5376  0.3569  1.2801
  271MOL0     C36466   7.153   4.776   3.913  0.6832 -0.1704 -0.0856
  271MOL0     N36467   7.027   4.792   3.845  0.4716  0.1532  0.0462
  271MOL0     C36468   6.910   4.838   3.907 -0.7817  0.6689 -0.2556
  271MOL0     C36469   6.818   4.848   3.810  0.4961 -0.2224  0.7388
  271MOL0     C36470   6.672   4.887   3.836  0.6073 -0.2069  0.3684
  271MOL0     C36471   6.648   5.034   3.884  1.0848 -0.0202  0.0605
  271MOL0     C36472   6.498   5.052   3.900 -0.0377  0.7805 -0.5266
  271MOL0     C36473   6.428   5.107   3.775 -0.7823  0.0737  0.0952
  271MOL0     O36474   6.293   5.128   3.815  0.4229  0.7124  0.7001
  271MOL0     C36475   6.197   5.176   3.722  0.1672  0.3537  1.1194
  271MOL0     C36476   6.071   5.197   3.766  0.8630  0.5952 -0.3206
  271MOL0     C36477   5.964   5.252   3.683  1.1929 -0.0184  0.4824
  271MOL0     C36478   5.827   5.269   3.749 -0.5123 -0.1113 -0.1192
  271MOL0     C36479   5.999   5.277   3.549 -0.4636  0.1928 -0.0172
  271MOL0     C36480   5.913   5.358   3.448  0.9348  0.6450 -0.7312
  271MOL0     O36481   5.795   5.409   3.499  0.2792  0.4843 -0.0496
  271MOL0     C36482   5.706   5.498   3.432  0.0858 -1.2241 -0.4929
  271MOL0     C36483   5.593   5.546   3.500  0.5426  0.4318  0.5505
  271MOL0     C36484   5.508   5.636   3.444  0.7776  0.0646 -0.2358
  271MOL0     C36485   5.533   5.682   3.313  0.7120 -0.4031 -0.0894
  271MOL0     O36486   5.436   5.775   3.267 -0.6836  0.1170 -0.1427
  271MOL0     C36487   5.455   5.816   3.129  0.4366 -0.0113  0.1642
  271MOL0     C36488   5.337   5.931   3.114  0.3135 -0.2517 -0.8737
  271MOL0     C36489   5.384   6.036   3.007 -0.0819  0.9294 -0.3207
  271MOL0     C36490   5.301   6.167   2.995 -0.3864  0.0079 -0.4505
  271MOL0     C36491   5.341   6.241   2.872  0.9011  0.8018 -0.2782
  271MOL0     C36492   5.239   6.357   2.866  0.6013  0.8099  0.1353
  271MOL0     C36493   5.289   6.449   2.755  0.3921  0.0093  0.0006
  271MOL0     C36494   5.184   6.548   2.701  0.0247  0.6194 -0.3234
  271MOL0    Cl36495   5.035   6.472   2.627  0.4197  0.1091  0.4956
  271MOL0     C36496   5.643   5.640   3.245 -1.0364  0.1424  0.2074
  271MOL0     C36497   5.733   5.546   3.300 -0.7601  0.9197 -0.4720
  271MOL0     O36498   5.958   5.385   3.339 -0.7184  0.0344 -0.3437
  271MOL0     C36499   6.130   5.239   3.504 -0.4200  0.2378  0.3379
  271MOL0     C36500   6.224   5.188   3.588 -0.3296 -0.1109  0.1272
  271MOL0     N36501   6.877   4.824   3.690  0.3745  0.2656  0.2862
  271MOL0     N36502   7.000   4.791   3.714  0.3124  0.0547  0.0431
  271MOL0     C36503   7.983   5.402   3.781  0.3445  0.9729  0.5274
  271MOL0     C36504   8.074   5.511   3.824  0.1175  0.2661  0.3277
  271MOL0     C36505   8.406   5.763   3.877 -0.2899 -0.3757 -0.1383
  271MOL0     C36506   8.546   5.760   3.864 -0.0578  0.2461 -0.1880
  271MOL0     C36507   8.634   5.811   3.961  0.3430  0.3497 -0.0764
  271MOL0     C36508   8.583   5.874   4.070  0.1228  0.0855  1.4023
  271MOL0     O36509   8.665   5.943   4.163 -0.2184  0.3229 -0.2968
  271MOL0     C36510   8.804   5.959   4.135 -0.0916 -0.5210  0.0400
  271MOL0     C36511   8.859   6.045   4.241 -0.4986 -0.3602  0.3904
  271MOL0     C36512   9.011   6.044   4.233  0.4718 -0.9083  0.2128
  271MOL0     C36513   9.074   6.161   4.313  0.1356 -0.0184 -0.7209
  271MOL0     C36514   9.224   6.150   4.301 -1.4087  0.4104  0.3947
  271MOL0     C36515   9.342   6.130   4.287 -0.0140 -0.9516  1.0789
  271MOL0     C36516   8.451   5.880   4.090 -0.4489 -0.1951 -0.1387
  271MOL0     C36517   8.356   5.825   3.995 -0.4891  0.1464 -0.7483
  271MOL0     H36518   8.027   5.725   3.556  0.8465 -0.6869  1.0073
  271MOL0     H36519   7.901   5.533   3.473  2.1269 -0.2910 -0.4806
  271MOL0     H36520   7.667   5.439   3.583 -1.4446  1.1426 -2.5907
  271MOL0     H36521   7.747   5.368   3.435 -0.3825 -1.4581  0.0720
  271MOL0     H36522   7.564   5.254   3.433 -2.0709  1.5837  0.3077
  271MOL0     H36523   7.687   5.156   3.523 -2.1459 -0.5170 -2.1047
  271MOL0     H36524   7.608   5.196   3.742  1.5242  0.4475 -0.9679
  271MOL0     H36525   7.492   5.314   3.690 -3.4513 -0.8430  0.5820
  271MOL0     H36526   7.352   5.135   3.581  2.3595  0.2905 -1.9576
  271MOL0     H36527   7.487   5.017   3.607  1.5937  0.7348 -3.1226
  271MOL0     H36528   7.455   5.043   3.843  0.1091 -0.9879 -1.4688
  271MOL0     H36529   7.325   5.165   3.834  0.3375  0.0873  1.6686
  271MOL0     H36530   7.180   4.983   3.734 -1.7730 -1.3066  2.8623
  271MOL0     H36531   7.326   4.880   3.703  0.2786  0.7148 -0.3897
  271MOL0     H36532   7.350   4.875   3.957  1.7629  0.8561 -1.0703
  271MOL0     H36533   7.209   4.985   3.971 -0.3749  1.3789 -0.8252
  271MOL0     H36534   7.131   4.747   4.016 -2.1339  0.2474 -0.4742
  271MOL0     H36535   7.212   4.694   3.873  0.2037  0.9412 -3.3350
  271MOL0     H36536   6.890   4.850   4.013 -0.0617 -1.0575  0.1122
  271MOL0     H36537   6.604   4.875   3.751 -0.3290 -4.4238  1.4654
  271MOL0     H36538   6.650   4.811   3.913  3.3187 -2.3850 -0.8382
  271MOL0     H36539   6.694   5.101   3.811  0.1472 -0.6995 -1.1808
  271MOL0     H36540   6.698   5.039   3.982 -1.8706 -0.8512  1.7380
  271MOL0     H36541   6.488   5.132   3.974  1.1634 -1.4072  2.1661
  271MOL0     H36542   6.442   4.964   3.932 -0.5018  1.0011 -0.7252
  271MOL0     H36543   6.427   5.023   3.705 -0.3362  1.1505 -1.2529
  271MOL0     H36544   6.476   5.192   3.725 -1.4812  3.5596  4.6464
  271MOL0     H36545   6.051   5.186   3.872  0.0295  1.2634 -0.3975
  271MOL0     H36546   5.834   5.226   3.849  0.6617 -1.8902 -0.9007
  271MOL0     H36547   5.819   5.377   3.763  4.0004  0.2022  1.6866
  271MOL0     H36548   5.739   5.235   3.693 -2.4192 -0.9897  3.1753
  271MOL0     H36549   5.580   5.491   3.593 -0.6949 -1.4570 -0.6604
  271MOL0     H36550   5.430   5.679   3.507  1.6368  0.8763  0.3050
  271MOL0     H36551   5.558   5.846   3.108  0.4598 -0.0642  0.2022
  271MOL0     H36552   5.420   5.744   3.055  1.2312  2.9095 -3.3003
  271MOL0     H36553   5.237   5.890   3.097  0.6354 -1.1634 -0.6029
  271MOL0     H36554   5.342   5.981   3.211 -1.7395 -0.8586 -0.4114
  271MOL0     H36555   5.397   5.987   2.910  1.4309  1.7338 -0.5451
  271MOL0     H36556   5.485   6.062   3.038 -0.2645  1.1832  0.0723
  271MOL0     H36557   5.194   6.144   2.988 -0.9242  2.0389  0.1917
  271MOL0     H36558   5.332   6.230   3.080  4.6167  1.1414 -2.7297
  271MOL0     H36559   5.334   6.184   2.778 -0.0220 -0.4608  0.5292
  271MOL0     H36560   5.442   6.277   2.891  0.7593  0.8314  0.4263
  271MOL0     H36561   5.140   6.319   2.840  1.2599 -0.6360 -0.3821
  271MOL0     H36562   5.239   6.404   2.965  1.8846  0.8426  0.1403
  271MOL0     H36563   5.323   6.385   2.673  2.7007  0.0570  0.8690
  271MOL0     H36564   5.375   6.499   2.800  1.1782 -1.4593  0.1972
  271MOL0     H36565   5.238   6.597   2.620 -1.7344 -0.8573 -2.5071
  271MOL0     H36566   5.165   6.628   2.774  1.7486  1.8472 -1.1742
  271MOL0     H36567   5.654   5.674   3.142 -0.3901  0.6180  0.4290
  271MOL0     H36568   5.809   5.512   3.230 -0.4931  0.9828 -0.2147
  271MOL0     H36569   6.156   5.237   3.399  1.8221 -2.4029  0.8408
  271MOL0     H36570   6.319   5.155   3.547 -0.0616  1.1225 -0.2918
  271MOL0     H36571   7.971   5.323   3.854 -1.0725  0.8162  0.1694
  271MOL0     H36572   8.116   5.512   3.924 -0.8256  0.3591  0.7309
  271MOL0     H36573   8.586   5.701   3.782 -0.3751 -2.9978  1.8098
  271MOL0     H36574   8.740   5.808   3.941  0.5131  0.1408  0.8359
  271MOL0     H36575   8.848   5.859   4.145 -1.3345 -1.1708 -0.6947
  271MOL0     H36576   8.812   6.003   4.035 -1.7974  1.5321  0.7439
  271MOL0     H36577   8.831   5.985   4.328 -1.2587 -0.7970 -0.1406
  271MOL0     H36578   8.816   6.146   4.238 -1.3093 -0.6671  1.3388
  271MOL0     H36579   9.035   6.058   4.127 -2.1821 -0.3130 -0.3740
  271MOL0     H36580   9.058   5.952   4.270  2.4595 -0.7898 -1.7899
  271MOL0     H36581   9.037   6.147   4.414 -0.8789  0.7092 -0.9854
  271MOL0     H36582   9.031   6.257   4.286  1.8548  1.0739  0.2639
  271MOL0     H36583   9.446   6.116   4.263 -1.0252 -0.9174 -5.0726
  271MOL0     H36584   8.420   5.933   4.180  0.2901  2.2805 -1.2623
  271MOL0     H36585   8.250   5.844   4.005 -0.4564 -0.0022 -0.0668
  272MOL0     O36586   2.214   3.143   3.444  0.3512 -0.4970 -0.7495
  272MOL0     C36587   2.234   3.112   3.561 -1.0506  0.0242 -0.6290
  272MOL0     O36588   2.146   3.053   3.642 -0.3583  0.3564 -0.1768
  272MOL0     C36589   2.017   3.019   3.613 -0.5221 -0.0401  0.0226
  272MOL0     C36590   1.957   2.891   3.645 -0.7190 -0.1181  0.8294
  272MOL0     C36591   1.828   2.865   3.616 -0.3987  0.3047 -0.9863
  272MOL0     C36592   1.749   2.962   3.551 -0.1038  0.5875 -0.5669
  272MOL0     O36593   1.613   2.960   3.531  0.1048 -0.2460 -0.3478
  272MOL0     C36594   1.551   2.824   3.551 -0.4543  0.1274  0.2956
  272MOL0     C36595   1.406   2.841   3.499  1.2158 -0.0635  0.4459
  272MOL0     C36596   1.339   2.712   3.464 -0.0447 -0.8235  0.2481
  272MOL0     C36597   1.207   2.738   3.377 -0.3068 -1.1685 -0.6254
  272MOL0     C36598   1.132   2.600   3.376  0.7792 -0.0356 -0.2142
  272MOL0     C36599   0.986   2.634   3.361  0.1055 -0.1255 -0.1701
  272MOL0     C36600   0.886   2.517   3.370 -0.5317  0.3586  0.1365
  272MOL0     C36601   0.899   2.431   3.250  0.3785 -0.4651  0.1488
  272MOL0     N36602   0.882   2.507   3.125 -0.0308 -0.2913 -0.2510
  272MOL0     C36603   0.777   2.597   3.101  0.1077 -0.4676  1.2353
  272MOL0     C36604   0.789   2.629   2.968 -0.9108  0.3779  0.5209
  272MOL0     C36605   0.683   2.709   2.899  0.1149 -0.2265 -0.6495
  272MOL0     C36606   0.587   2.628   2.822 -0.0324  0.3417 -0.6795
  272MOL0     C36607   0.640   2.541   2.712  0.3385  0.0813 -0.2349
  272MOL0     C36608   0.717   2.615   2.611 -0.1527 -1.2220  0.5245
  272MOL0     O36609   0.759   2.536   2.504 -0.4735 -1.2714  0.1674
  272MOL0     C36610   0.872   2.464   2.519 -0.3074  0.3405 -0.1758
  272MOL0     C36611   0.972   2.497   2.616  0.6774 -0.3805 -0.0573
  272MOL0     C36612   1.085   2.425   2.629 -0.6214  1.5625 -0.2802
  272MOL0     C36613   1.175   2.451   2.733  0.2007 -0.0155 -0.9194
  272MOL0     C36614   1.105   2.315   2.544 -0.5697  0.8640  0.1746
  272MOL0     C36615   1.218   2.220   2.572 -0.2463  0.6338 -0.1449
  272MOL0     O36616   1.227   2.151   2.690  0.3094  0.0679  0.0028
  272MOL0     C36617   1.293   2.033   2.696 -0.3572  0.4060 -0.1338
  272MOL0     C36618   1.359   2.006   2.806 -0.3036  0.2674  0.9789
  272MOL0     C36619   1.436   1.895   2.819  1.0845 -0.0864 -0.4104
  272MOL0     C36620   1.443   1.801   2.713  0.6310  0.8233  0.1734
  272MOL0     O36621   1.512   1.685   2.729  0.0715 -0.2025  0.0062
  272MOL0     C36622   1.647   1.715   2.759  0.3283 -0.0547  0.3717
  272MOL0     C36623   1.749   1.633   2.681  0.4297 -0.0925  0.8895
  272MOL0     C36624   1.729   1.481   2.706 -1.1278  0.2578 -0.4023
  272MOL0     C36625   1.815   1.407   2.598  0.7848  0.0742 -0.4954
  272MOL0     C36626   1.826   1.260   2.621  0.6450  0.6705 -0.8785
  272MOL0     C36627   1.904   1.179   2.519 -0.4567 -0.5375 -0.4698
  272MOL0     C36628   1.924   1.031   2.561  0.7804 -0.8275  0.2868
  272MOL0     C36629   1.791   0.949   2.565 -0.1596  0.0054 -0.1400
  272MOL0    Cl36630   1.709   0.928   2.719  0.0432  0.1123  0.0662
  272MOL0     C36631   1.357   1.814   2.600 -0.6270  0.6165  0.1445
  272MOL0     C36632   1.287   1.936   2.597  0.4203  0.7419  0.2763
  272MOL0     O36633   1.303   2.215   2.484 -0.3763 -0.4790  0.3056
  272MOL0     C36634   1.005   2.278   2.449 -0.1961  0.4090 -0.3893
  272MOL0     C36635   0.896   2.362   2.434  0.6407 -0.1314 -0.1315
  272MOL0     N36636   0.914   2.587   2.921  0.0700 -0.7214 -0.2447
  272MOL0     N36637   0.964   2.508   3.014  0.8764  0.1045  0.3230
  272MOL0     C36638   1.801   3.088   3.542 -0.2936 -0.0078 -0.0688
  272MOL0     C36639   1.935   3.111   3.558 -0.1987 -0.3543  0.3323
  272MOL0     C36640   2.373   3.114   3.603 -0.5805  0.1761  0.5814
  272MOL0     C36641   2.485   3.121   3.516 -0.2611  0.0453  0.1127
  272MOL0     C36642   2.619   3.133   3.560 -0.4053  0.1978 -1.1677
  272MOL0     C36643   2.644   3.126   3.695 -0.0965  0.8092  0.6999
  272MOL0     O36644   2.771   3.113   3.743 -0.0525  0.1072 -0.0704
  272MOL0     C36645   2.865   3.224   3.713 -0.2065 -0.8898 -0.7420
  272MOL0     C36646   2.884   3.311   3.844 -0.2964  0.6803  0.1920
  272MOL0     C36647   2.951   3.233   3.954  0.6021  0.6070  0.0462
  272MOL0     C36648   3.093   3.196   3.927  0.1224 -0.1930  0.2655
  272MOL0     C36649   3.185   3.283   4.001  0.2720 -0.4140 -0.2564
  272MOL0     C36650   3.260   3.358   4.049 -0.1572 -0.6114 -0.5937
  272MOL0     C36651   2.542   3.118   3.787  0.1962  0.4779  0.2648
  272MOL0     C36652   2.406   3.110   3.739  0.6947 -0.0215 -0.3597
  272MOL0     H36653   2.025   2.818   3.689  2.6036  1.0253 -1.9374
  272MOL0     H36654   1.785   2.769   3.645  2.4966 -0.5613  0.8009
  272MOL0     H36655   1.599   2.746   3.492 -1.6856 -0.1346 -0.4025
  272MOL0     H36656   1.539   2.798   3.656 -2.6213  0.4186  0.1775
  272MOL0     H36657   1.351   2.905   3.568  2.5016  1.4082  0.1602
  272MOL0     H36658   1.415   2.901   3.409  2.7373 -1.1058 -0.1364
  272MOL0     H36659   1.405   2.652   3.401 -0.4983 -3.3091  1.9798
  272MOL0     H36660   1.319   2.643   3.547 -0.8345 -0.9126 -0.0062
  272MOL0     H36661   1.149   2.815   3.429  2.4922  0.9538 -0.4369
  272MOL0     H36662   1.223   2.766   3.273  1.1210 -2.5285 -0.8090
  272MOL0     H36663   1.161   2.536   3.292 -0.6781 -0.2489 -0.5924
  272MOL0     H36664   1.145   2.548   3.471 -1.2312 -4.2756 -1.9984
  272MOL0     H36665   0.962   2.708   3.438  0.1046  0.4568 -0.7233
  272MOL0     H36666   0.968   2.690   3.269 -1.3409 -1.6456 -0.8602
  272MOL0     H36667   0.913   2.452   3.454 -0.2675  1.1022  0.6442
  272MOL0     H36668   0.787   2.562   3.375 -1.1091 -0.9808  1.2463
  272MOL0     H36669   0.823   2.352   3.258 -0.0321 -0.2501 -1.2820
  272MOL0     H36670   0.997   2.386   3.231 -0.4056 -1.3167 -2.3210
  272MOL0     H36671   0.682   2.611   3.151  0.0891 -4.6326  2.7904
  272MOL0     H36672   0.628   2.770   2.972 -0.2530  1.8398 -2.5321
  272MOL0     H36673   0.730   2.790   2.843  1.7136 -1.3443 -0.9767
  272MOL0     H36674   0.514   2.687   2.767 -0.9677 -0.9805 -0.8972
  272MOL0     H36675   0.531   2.574   2.899  3.3812 -1.0637  1.0308
  272MOL0     H36676   0.555   2.491   2.664  1.6125  0.1168 -2.6758
  272MOL0     H36677   0.704   2.464   2.757  0.6373  0.4668 -0.0027
  272MOL0     H36678   0.796   2.676   2.656 -0.8678 -1.0842  1.6461
  272MOL0     H36679   0.641   2.680   2.568  0.2779 -0.8535  0.3189
  272MOL0     H36680   0.951   2.582   2.679 -0.3516  1.4791 -2.7218
  272MOL0     H36681   1.282   2.440   2.713  0.1359  1.1467 -2.0543
  272MOL0     H36682   1.171   2.556   2.763  3.2104  0.3298 -1.4738
  272MOL0     H36683   1.143   2.381   2.811  0.4967 -0.4273 -1.1659
  272MOL0     H36684   1.369   2.075   2.889  1.0150  0.6055  0.5621
  272MOL0     H36685   1.493   1.868   2.907  2.9511 -1.2744 -1.9155
  272MOL0     H36686   1.668   1.815   2.720 -0.2910  0.0181  0.2108
  272MOL0     H36687   1.669   1.712   2.866 -1.4078 -1.0189  0.7394
  272MOL0     H36688   1.750   1.660   2.575  2.1280 -0.7934  0.6850
  272MOL0     H36689   1.847   1.668   2.714  1.1781 -1.8753  0.6769
  272MOL0     H36690   1.626   1.449   2.692 -0.8566 -0.5485 -0.6029
  272MOL0     H36691   1.771   1.453   2.803 -4.0406  2.1695  1.5364
  272MOL0     H36692   1.769   1.414   2.499  0.2704 -1.2717 -0.3714
  272MOL0     H36693   1.913   1.456   2.587  0.5681  0.5182 -0.4999
  272MOL0     H36694   1.728   1.219   2.644  1.4695  0.7844  3.8747
  272MOL0     H36695   1.874   1.239   2.717 -1.7851 -0.7762  0.1010
  272MOL0     H36696   1.871   1.187   2.415  1.6832 -0.3858 -1.1831
  272MOL0     H36697   2.004   1.222   2.512  1.6877 -5.2194 -3.6945
  272MOL0     H36698   1.985   1.019   2.651  3.0706 -0.2566 -1.1203
  272MOL0     H36699   1.983   0.979   2.485 -0.1229 -0.4904 -0.6711
  272MOL0     H36700   1.821   0.852   2.523 -0.9447  0.9968 -3.2875
  272MOL0     H36701   1.727   1.002   2.495  1.1823  2.2316  0.2332
  272MOL0     H36702   1.352   1.739   2.522 -1.6451  2.2589 -1.4535
  272MOL0     H36703   1.230   1.950   2.506  1.1746  0.3438 -0.2753
  272MOL0     H36704   1.014   2.188   2.389 -0.7132  2.1895 -3.3379
  272MOL0     H36705   0.821   2.338   2.360 -0.5820  0.3403  0.9239
  272MOL0     H36706   1.740   3.162   3.491 -1.4354 -1.0686 -0.3130
  272MOL0     H36707   1.989   3.200   3.528  1.6636 -1.1245  1.2413
  272MOL0     H36708   2.473   3.124   3.408 -0.5271  1.0292  0.1664
  272MOL0     H36709   2.697   3.135   3.485 -0.2612 -1.5101 -1.0995
  272MOL0     H36710   2.961   3.195   3.670  0.2393 -2.6922  1.3274
  272MOL0     H36711   2.813   3.285   3.638 -2.0986 -0.0892  1.0977
  272MOL0     H36712   2.782   3.329   3.880  0.3567  0.9466  2.0158
  272MOL0     H36713   2.937   3.406   3.827  0.7392  0.1691  0.4998
  272MOL0     H36714   2.900   3.137   3.971 -0.3559  1.1730  0.4875
  272MOL0     H36715   2.946   3.291   4.047 -0.6056 -3.2405  2.6428
  272MOL0     H36716   3.117   3.207   3.821  0.3960  1.7851  0.4932
  272MOL0     H36717   3.115   3.093   3.957  2.8000  0.2894  0.1968
  272MOL0     H36718   3.328   3.420   4.104 -2.0790  0.4060  0.7321
  272MOL0     H36719   2.573   3.114   3.890  1.5787  2.0158 -0.0609
  272MOL0     H36720   2.330   3.105   3.816  3.0719  0.7924  2.2542
  273MOL0     O36721   8.167   9.901   2.185 -0.3662  1.1157  0.1400
  273MOL0     C36722   8.221  10.010   2.207  1.0812  0.2355 -0.7973
  273MOL0     O36723   8.162  10.103   2.287  0.2311  0.0703  0.4844
  273MOL0     C36724   8.044  10.073   2.357  0.2756 -0.1542  0.0049
  273MOL0     C36725   8.031   9.956   2.430  0.0367 -0.1947 -0.3933
  273MOL0     C36726   7.922   9.944   2.518 -1.4919 -0.1975  1.0337
  273MOL0     C36727   7.812  10.025   2.515 -0.0399 -0.5391  0.6341
  273MOL0     O36728   7.690  10.001   2.585 -0.3488 -0.0909  0.0507
  273MOL0     C36729   7.704   9.957   2.719 -0.6062  0.8324 -0.5099
  273MOL0     C36730   7.566   9.962   2.781 -0.4618  0.6589  0.5041
  273MOL0     C36731   7.515  10.099   2.811  0.1368  0.3197  0.0998
  273MOL0     C36732   7.367  10.106   2.844  0.2169  0.3041 -0.3082
  273MOL0     C36733   7.340  10.257   2.885 -0.0862 -0.1874 -0.2059
  273MOL0     C36734   7.343  10.301   3.036 -0.0821  0.5715  0.9887
  273MOL0     C36735   7.302  10.444   3.048  0.3652  0.6006  0.7268
  273MOL0     C36736   7.374  10.551   2.961  0.5883 -0.2502  0.4062
  273MOL0     N36737   7.509  10.578   2.993 -0.2079  0.5829 -0.4614
  273MOL0     C36738   7.618  10.554   2.900 -0.1097  0.6686 -0.1445
  273MOL0     C36739   7.727  10.585   2.979  0.1919  0.2478  0.2149
  273MOL0     C36740   7.860  10.563   2.914 -0.1656 -0.1182 -1.0852
  273MOL0     C36741   7.879  10.468   2.788 -0.7283 -0.1140 -0.0328
  273MOL0     C36742   7.871  10.322   2.815  0.5410  1.1679  0.7369
  273MOL0     C36743   7.985  10.243   2.752 -0.1681  0.0951 -0.0627
  273MOL0     O36744   8.106  10.275   2.820  0.2134 -0.4970  0.5923
  273MOL0     C36745   8.227  10.244   2.756  0.2607 -0.3131 -0.6957
  273MOL0     C36746   8.337  10.328   2.793 -0.0022 -0.3725 -0.0390
  273MOL0     C36747   8.459  10.323   2.730  1.0047  0.8137  0.2101
  273MOL0     C36748   8.565  10.430   2.744 -0.6456 -0.0715 -0.4430
  273MOL0     C36749   8.481  10.212   2.638 -0.1411  0.6952 -0.2933
  273MOL0     C36750   8.599  10.186   2.562 -0.8866  0.0913 -0.4471
  273MOL0     O36751   8.668  10.289   2.496 -0.2897 -0.3114 -0.1330
  273MOL0     C36752   8.792  10.262   2.440 -0.3796 -0.1632  0.1479
  273MOL0     C36753   8.897  10.185   2.501 -0.5370 -0.6309  0.7760
  273MOL0     C36754   9.024  10.172   2.454 -0.1770 -0.2171 -0.5440
  273MOL0     C36755   9.057  10.238   2.337 -0.6618  0.2577  0.5112
  273MOL0     O36756   9.187  10.220   2.295 -0.6636 -0.1969  0.4246
  273MOL0     C36757   9.246  10.306   2.199 -0.2907 -0.2393  0.0476
  273MOL0     C36758   9.389  10.265   2.181  0.0732 -1.4180 -0.2717
  273MOL0     C36759   9.411  10.119   2.120  0.3172 -0.4737 -1.2671
  273MOL0     C36760   9.557  10.097   2.069 -0.7310  0.5150  0.3213
  273MOL0     C36761   9.562   9.956   2.018  1.1548  0.2630  0.0889
  273MOL0     C36762   9.695   9.927   1.947  0.7483  0.0831 -0.5531
  273MOL0     C36763   9.708   9.780   1.923 -0.4794 -0.1719  0.1142
  273MOL0     C36764   9.683   9.727   1.788  0.0807  0.0467  0.7519
  273MOL0    Cl36765   9.508   9.714   1.758  0.4406 -0.1351  0.1414
  273MOL0     C36766   8.957  10.310   2.265  0.3302 -0.1943  0.2042
  273MOL0     C36767   8.828  10.324   2.320  1.0631  0.0133  0.9124
  273MOL0     O36768   8.627  10.065   2.549  0.6517  0.0194 -0.0658
  273MOL0     C36769   8.382  10.112   2.629  0.2386  0.0176  0.1112
  273MOL0     C36770   8.251  10.135   2.677  0.9737 -0.1987 -0.7044
  273MOL0     N36771   7.685  10.629   3.105  0.2254  0.3398 -0.1394
  273MOL0     N36772   7.554  10.612   3.114 -0.2874 -0.1966  0.5449
  273MOL0     C36773   7.821  10.138   2.421  0.2491  0.4296  0.0109
  273MOL0     C36774   7.938  10.158   2.352  0.2210  0.3240 -0.2507
  273MOL0     C36775   8.342  10.057   2.142  0.5839 -0.3833 -0.1748
  273MOL0     C36776   8.380   9.995   2.023 -0.5405  0.6443 -0.5116
  273MOL0     C36777   8.494  10.044   1.956 -0.0680  0.0145  0.4233
  273MOL0     C36778   8.565  10.158   1.997  0.6111 -0.8338  0.2814
  273MOL0     O36779   8.685  10.191   1.937  0.5363  0.1282 -0.4083
  273MOL0     C36780   8.802  10.115   1.985 -1.2086  0.2736 -0.5989
  273MOL0     C36781   8.874  10.057   1.857 -0.0496  0.0909 -1.4048
  273MOL0     C36782   8.999   9.982   1.906 -0.3334 -0.1044  0.7054
  273MOL0     C36783   9.090   9.939   1.795  0.9737  0.0000 -0.4970
  273MOL0     C36784   9.134  10.047   1.703  0.2765  0.8648 -0.6914
  273MOL0     C36785   9.181  10.133   1.628  0.8286  0.2690  0.5644
  273MOL0     C36786   8.517  10.222   2.114 -0.0233  0.7503 -0.1448
  273MOL0     C36787   8.412  10.168   2.194 -0.0573  0.0578 -0.2298
  273MOL0     H36788   8.104   9.876   2.428  0.6950  0.1763  3.0370
  273MOL0     H36789   7.926   9.858   2.584  0.4357  0.7203  2.2078
  273MOL0     H36790   7.737   9.853   2.724 -4.7533 -0.6443  3.4837
  273MOL0     H36791   7.776  10.017   2.775  1.1040 -1.5175 -0.0229
  273MOL0     H36792   7.499   9.921   2.705  2.3350  0.3677 -2.0304
  273MOL0     H36793   7.566   9.893   2.866  0.8052  1.3103  1.0577
  273MOL0     H36794   7.579  10.138   2.891  0.7625  0.7047 -0.5784
  273MOL0     H36795   7.536  10.168   2.729  1.6038  0.8939  0.9091
  273MOL0     H36796   7.310  10.065   2.760 -0.3891  1.5866 -0.5595
  273MOL0     H36797   7.334  10.048   2.930 -0.6484  2.5235  0.9588
  273MOL0     H36798   7.411  10.317   2.826 -0.9068  0.1860 -0.8360
  273MOL0     H36799   7.237  10.271   2.851  0.6900 -0.0766 -2.7099
  273MOL0     H36800   7.264  10.242   3.083 -2.8655  2.7896 -0.4978
  273MOL0     H36801   7.445  10.279   3.066 -0.1587 -2.6607 -0.7194
  273MOL0     H36802   7.194  10.437   3.030  0.6160 -2.5006 -0.1056
  273MOL0     H36803   7.310  10.469   3.154 -1.3597 -0.0571  1.0400
  273MOL0     H36804   7.316  10.641   2.979  0.6442 -0.0421 -0.3977
  273MOL0     H36805   7.352  10.547   2.854 -0.6260  2.2752  0.4887
  273MOL0     H36806   7.604  10.516   2.800 -1.8303 -1.1186  0.7040
  273MOL0     H36807   7.886  10.665   2.884 -1.4907  1.5675  2.8135
  273MOL0     H36808   7.933  10.523   2.986  0.1385 -2.6301 -2.6928
  273MOL0     H36809   7.978  10.489   2.749 -1.5492  2.9170 -0.7758
  273MOL0     H36810   7.807  10.494   2.709 -0.6334 -0.7188 -0.3245
  273MOL0     H36811   7.775  10.292   2.772  1.1583  0.2100 -0.0044
  273MOL0     H36812   7.868  10.289   2.920  1.6435 -0.7224  0.2265
  273MOL0     H36813   7.996  10.268   2.646  1.3033  0.6513  0.1922
  273MOL0     H36814   7.967  10.136   2.765 -1.2361  0.3416  0.5174
  273MOL0     H36815   8.332  10.407   2.867  0.9950  0.4393 -0.8110
  273MOL0     H36816   8.658  10.377   2.766  0.6481  2.2603 -0.0085
  273MOL0     H36817   8.573  10.489   2.652 -2.6815  0.5558 -0.2841
  273MOL0     H36818   8.533  10.500   2.822  1.2999 -1.5240  1.7769
  273MOL0     H36819   8.870  10.117   2.582 -3.0176  0.1004  0.6671
  273MOL0     H36820   9.091  10.114   2.517 -2.3461 -2.2477  0.0396
  273MOL0     H36821   9.195  10.301   2.103  1.9135 -0.8635 -1.1484
  273MOL0     H36822   9.240  10.409   2.236 -0.2398  0.3727 -1.5735
  273MOL0     H36823   9.431  10.341   2.114 -0.0400 -1.7103 -0.6833
  273MOL0     H36824   9.425  10.281   2.283 -1.2914  0.9865 -0.0757
  273MOL0     H36825   9.350  10.100   2.032  0.6950 -0.7357 -1.4769
  273MOL0     H36826   9.381  10.044   2.194 -1.9184  0.4141 -1.1941
  273MOL0     H36827   9.584  10.160   1.984  2.1915 -1.0293 -0.0356
  273MOL0     H36828   9.639  10.111   2.140  0.8545  0.3188 -1.4047
  273MOL0     H36829   9.489   9.937   1.938  1.1132  1.8805 -0.2806
  273MOL0     H36830   9.543   9.882   2.097  0.2260 -0.9569 -1.2254
  273MOL0     H36831   9.715   9.995   1.863  4.2737 -0.1730 -0.0776
  273MOL0     H36832   9.776   9.952   2.017 -1.1053  0.8594  1.4198
  273MOL0     H36833   9.653   9.723   1.998 -1.2028 -0.9179 -0.9552
  273MOL0     H36834   9.814   9.762   1.944 -0.0991  1.2867 -0.4179
  273MOL0     H36835   9.727   9.627   1.779 -1.9047 -0.8110 -0.0327
  273MOL0     H36836   9.722   9.794   1.711  0.0556 -0.0565  0.6485
  273MOL0     H36837   8.982  10.338   2.163  1.3261 -1.7305 -0.0107
  273MOL0     H36838   8.749  10.361   2.256  2.0550 -0.8029 -0.8697
  273MOL0     H36839   8.404  10.022   2.572 -0.3534  0.5920 -1.0539
  273MOL0     H36840   8.170  10.065   2.659 -0.6519  2.2088 -3.6531
  273MOL0     H36841   7.725  10.188   2.414  0.2558  0.3847 -0.4009
  273MOL0     H36842   7.934  10.244   2.286  2.5510  1.4910  0.9972
  273MOL0     H36843   8.317   9.926   1.967 -4.3782  2.2313  1.5014
  273MOL0     H36844   8.528   9.994   1.866 -0.8877  2.5017 -1.3758
  273MOL0     H36845   8.861  10.169   2.060 -1.3631  0.1391 -0.3776
  273MOL0     H36846   8.769  10.022   2.034  1.0192 -0.1092  0.3168
  273MOL0     H36847   8.899  10.136   1.784  1.0555 -0.5231 -1.7240
  273MOL0     H36848   8.818   9.981   1.802 -3.3525  2.8435 -2.1854
  273MOL0     H36849   8.979   9.888   1.960  0.6484 -1.0908 -0.5957
  273MOL0     H36850   9.050  10.055   1.970  0.2616  0.5269 -0.4747
  273MOL0     H36851   9.058   9.847   1.744  2.0284  0.9086 -2.9531
  273MOL0     H36852   9.178   9.901   1.849 -0.4630 -0.4225  1.6838
  273MOL0     H36853   9.220  10.197   1.551 -2.5130  0.8745 -0.7785
  273MOL0     H36854   8.567  10.307   2.160 -1.6291  0.4998  2.2528
  273MOL0     H36855   8.408  10.198   2.299  0.9972 -0.8502  0.0950
  274MOL0     O36856   0.849   5.957   9.304 -0.3571  0.7676  0.1500
  274MOL0     C36857   0.838   6.000   9.420  0.1362  0.3355 -0.1194
  274MOL0     O36858   0.720   6.046   9.468 -0.1994  0.0350  0.5236
  274MOL0     C36859   0.610   6.062   9.384 -0.7405 -0.4567 -0.4045
  274MOL0     C36860   0.484   6.050   9.427  0.4678 -0.2974  0.6009
  274MOL0     C36861   0.372   6.061   9.351  0.6977 -0.6687  0.6464
  274MOL0     C36862   0.389   6.101   9.211  0.8259 -0.1223 -0.9553
  274MOL0     O36863   0.277   6.113   9.126 -0.2846 -0.3168 -0.5611
  274MOL0     C36864   0.150   6.080   9.179  0.1807 -0.1533  0.9689
  274MOL0     C36865   0.057   6.098   9.058  0.8390 -0.0129  0.4864
  274MOL0     C36866  -0.093   6.085   9.094  0.7303 -0.3382  0.6148
  274MOL0     C36867  -0.140   6.058   9.243 -0.2029 -0.2899 -0.1495
  274MOL0     C36868  -0.291   6.081   9.253 -0.3242  0.4376  0.1124
  274MOL0     C36869  -0.377   5.961   9.208 -0.4299 -0.2510  0.9869
  274MOL0     C36870  -0.522   6.005   9.221  0.1841 -0.3526 -0.4836
  274MOL0     C36871  -0.634   5.900   9.219 -0.2868 -0.9533  0.4114
  274MOL0     N36872  -0.762   5.967   9.243  0.8569  0.0109 -0.4691
  274MOL0     C36873  -0.836   6.018   9.137  0.3643  0.5934  0.4015
  274MOL0     C36874  -0.958   6.051   9.186 -1.1633 -0.1682 -0.7883
  274MOL0     C36875  -1.083   6.103   9.112  0.7465 -0.0855 -0.8903
  274MOL0     C36876  -1.112   6.240   9.173 -0.6681 -1.2355  0.5968
  274MOL0     C36877  -1.222   6.309   9.097  0.0116 -0.8390 -0.1501
  274MOL0     C36878  -1.254   6.444   9.164 -1.1588 -0.5645  0.6183
  274MOL0     O36879  -1.138   6.526   9.141  0.2811  0.3306  0.0600
  274MOL0     C36880  -1.123   6.642   9.209 -0.3922 -0.3395 -0.7917
  274MOL0     C36881  -1.208   6.690   9.297  0.0812 -0.0302 -0.1684
  274MOL0     C36882  -1.187   6.810   9.375  0.2567  0.6589  0.5111
  274MOL0     C36883  -1.306   6.825   9.473  1.5997 -0.0037  0.7317
  274MOL0     C36884  -1.059   6.870   9.361  0.2123  0.0393  0.5565
  274MOL0     C36885  -1.017   6.989   9.447  0.9543  0.5125  0.0246
  274MOL0     O36886  -0.943   7.077   9.388 -0.0452  0.2757  0.0868
  274MOL0     C36887  -0.872   7.180   9.445  0.4166 -0.2285 -0.1535
  274MOL0     C36888  -0.862   7.297   9.359 -0.7930  0.1438 -0.1608
  274MOL0     C36889  -0.792   7.412   9.397  0.5296  0.1288  0.5210
  274MOL0     C36890  -0.732   7.417   9.530  0.2161  0.2926  0.0291
  274MOL0     O36891  -0.661   7.529   9.552  0.1546  0.0089  0.1441
  274MOL0     C36892  -0.544   7.509   9.635 -0.1797  0.2658 -0.0083
  274MOL0     C36893  -0.460   7.631   9.639 -0.7606 -0.1958  0.3978
  274MOL0     C36894  -0.326   7.617   9.705  0.4106  0.3267  0.0900
  274MOL0     C36895  -0.353   7.551   9.840  0.5526  0.3812 -0.2799
  274MOL0     C36896  -0.230   7.550   9.932 -0.4718  0.1425  0.1093
  274MOL0     C36897  -0.133   7.437   9.873 -0.3618  0.7743  0.1248
  274MOL0     C36898   0.002   7.445   9.944  0.4581  0.1923 -0.4212
  274MOL0     C36899   0.102   7.340   9.890  0.2805 -0.1042  0.9311
  274MOL0    Cl36900   0.034   7.180   9.871  0.3229 -0.4040  0.5880
  274MOL0     C36901  -0.746   7.301   9.620  0.1859  0.2091  0.4110
  274MOL0     C36902  -0.819   7.181   9.576 -0.6350 -0.6661 -0.6800
  274MOL0     O36903  -1.074   7.013   9.554 -0.5391  0.5671 -0.2639
  274MOL0     C36904  -0.974   6.813   9.274 -1.3541 -0.9585  1.3486
  274MOL0     C36905  -1.000   6.703   9.200  0.0871  0.1413 -0.0915
  274MOL0     N36906  -0.957   6.013   9.326 -0.2141 -0.0720 -0.0260
  274MOL0     N36907  -0.843   5.960   9.354  0.1265 -0.1034 -0.4127
  274MOL0     C36908   0.518   6.127   9.165  0.8544 -0.3267 -0.6007
  274MOL0     C36909   0.626   6.105   9.251 -0.0597 -0.4666 -0.1582
  274MOL0     C36910   0.945   5.977   9.523 -0.4198  0.2386  1.0832
  274MOL0     C36911   1.073   5.941   9.477 -0.1998  0.2546  0.0513
  274MOL0     C36912   1.183   5.923   9.563  0.1626 -0.5148  0.2007
  274MOL0     C36913   1.156   5.923   9.704  0.5507 -0.9091  0.5136
  274MOL0     O36914   1.264   5.896   9.782 -0.2140  0.3993 -0.8049
  274MOL0     C36915   1.288   5.762   9.830  0.4807 -0.9807 -0.5999
  274MOL0     C36916   1.314   5.671   9.708 -0.7443 -0.4675 -0.2531
  274MOL0     C36917   1.457   5.688   9.656 -0.0286  0.4295  0.1923
  274MOL0     C36918   1.559   5.624   9.743  0.9533 -0.2381  0.2990
  274MOL0     C36919   1.600   5.484   9.706 -0.4098 -0.1204 -0.8032
  274MOL0     C36920   1.629   5.362   9.697  0.0474  0.1299 -0.3326
  274MOL0     C36921   1.027   5.967   9.749 -0.5725  0.9845  0.5961
  274MOL0     C36922   0.923   5.984   9.659  0.3926  0.4426 -0.1557
  274MOL0     H36923   0.480   6.034   9.534  0.3377 -3.6949  0.1968
  274MOL0     H36924   0.277   6.042   9.399  0.2151 -1.8694 -0.6862
  274MOL0     H36925   0.141   5.978   9.217  0.2688 -0.2594  0.7081
  274MOL0     H36926   0.127   6.157   9.254 -0.9057  0.0779  0.4062
  274MOL0     H36927   0.070   6.196   9.010 -1.3269 -0.9361 -2.2075
  274MOL0     H36928   0.074   6.017   8.987 -1.0687 -1.3486  1.4669
  274MOL0     H36929  -0.133   6.184   9.073  2.5157  0.0726 -1.0844
  274MOL0     H36930  -0.131   6.003   9.032 -1.4691  0.1348  1.2590
  274MOL0     H36931  -0.125   5.957   9.282 -0.5741 -0.3746 -0.2235
  274MOL0     H36932  -0.088   6.133   9.303  0.2432  1.0966 -2.1493
  274MOL0     H36933  -0.314   6.098   9.359  0.1047  3.2518 -0.1711
  274MOL0     H36934  -0.316   6.179   9.213  0.4086  0.7745  0.4573
  274MOL0     H36935  -0.355   5.931   9.105 -0.8218  0.0810  0.8048
  274MOL0     H36936  -0.361   5.878   9.277  1.9868 -2.4263 -1.8732
  274MOL0     H36937  -0.539   6.066   9.310  2.2872 -0.9032  0.3556
  274MOL0     H36938  -0.539   6.079   9.142  0.6211  0.6042  0.2863
  274MOL0     H36939  -0.616   5.831   9.302  0.6264 -0.5512  0.5493
  274MOL0     H36940  -0.641   5.865   9.115 -0.8801 -0.4768  0.2845
  274MOL0     H36941  -0.803   6.042   9.036 -1.1628 -2.6917 -1.0348
  274MOL0     H36942  -1.050   6.102   9.008  1.1358 -0.6277 -0.7638
  274MOL0     H36943  -1.162   6.029   9.124  0.2370  0.8816  4.1341
  274MOL0     H36944  -1.018   6.295   9.168 -0.6292 -1.3557 -0.0661
  274MOL0     H36945  -1.121   6.229   9.282  0.7296  0.6343  0.9468
  274MOL0     H36946  -1.314   6.251   9.110  0.0186 -1.0243 -0.8818
  274MOL0     H36947  -1.212   6.321   8.989  6.4180  0.5301  0.2445
  274MOL0     H36948  -1.273   6.427   9.271  2.1779  0.0518  1.4217
  274MOL0     H36949  -1.341   6.489   9.115 -0.9649  0.2856  1.0313
  274MOL0     H36950  -1.300   6.641   9.327  0.1246  0.2415  0.4130
  274MOL0     H36951  -1.316   6.926   9.515  2.5778 -0.7787  3.0346
  274MOL0     H36952  -1.402   6.804   9.425  2.5112 -2.3343 -0.1786
  274MOL0     H36953  -1.291   6.758   9.558  1.9553  1.1531  1.6095
  274MOL0     H36954  -0.893   7.303   9.255  1.9529  2.3232 -0.9766
  274MOL0     H36955  -0.785   7.490   9.322 -0.2939  0.6155  0.9435
  274MOL0     H36956  -0.575   7.478   9.735  4.6084 -0.6630  1.4447
  274MOL0     H36957  -0.491   7.427   9.586  2.6435  1.3820  0.9903
  274MOL0     H36958  -0.436   7.648   9.534 -0.8639 -5.9703 -0.8856
  274MOL0     H36959  -0.514   7.715   9.683 -0.8174 -1.5245  3.1158
  274MOL0     H36960  -0.269   7.709   9.718 -0.2578  0.7292  0.2252
  274MOL0     H36961  -0.262   7.556   9.641  1.4590 -0.8396  2.1557
  274MOL0     H36962  -0.435   7.603   9.889  1.0121  1.2346 -0.3910
  274MOL0     H36963  -0.393   7.450   9.827  0.5364  0.4106 -0.4543
  274MOL0     H36964  -0.249   7.534  10.039  1.1036  1.2880  0.6003
  274MOL0     H36965  -0.182   7.648   9.934  0.9453 -0.5292  1.0766
  274MOL0     H36966  -0.170   7.335   9.888  2.1987 -0.3538 -0.6907
  274MOL0     H36967  -0.109   7.450   9.767 -1.2565  1.9876  0.0544
  274MOL0     H36968  -0.025   7.419  10.046  1.3891 -0.6462 -0.3671
  274MOL0     H36969   0.042   7.545   9.926 -0.3357  0.1325 -2.8885
  274MOL0     H36970   0.182   7.339   9.964  0.2724  2.8739  1.0892
  274MOL0     H36971   0.149   7.377   9.798  1.6063 -1.6417  0.9374
  274MOL0     H36972  -0.694   7.294   9.715  0.0526 -0.1659  0.4576
  274MOL0     H36973  -0.830   7.099   9.646  2.3052 -1.2610 -0.7936
  274MOL0     H36974  -0.874   6.856   9.271 -2.0935  0.8501  1.1682
  274MOL0     H36975  -0.928   6.657   9.133 -0.3354  1.9011 -1.8654
  274MOL0     H36976   0.505   6.165   9.064 -1.6032 -1.5402 -0.8141
  274MOL0     H36977   0.724   6.128   9.209 -0.2868  0.1193 -0.3803
  274MOL0     H36978   1.101   5.925   9.373  1.2462 -0.0883  0.4680
  274MOL0     H36979   1.285   5.906   9.533  0.5810 -0.0959  1.3243
  274MOL0     H36980   1.364   5.759   9.909 -0.0564 -1.0321 -0.0708
  274MOL0     H36981   1.196   5.734   9.883  1.6044 -1.2008  1.3436
  274MOL0     H36982   1.251   5.683   9.619  2.0836 -1.8267 -2.6181
  274MOL0     H36983   1.306   5.569   9.747  0.7785  0.4754  2.8476
  274MOL0     H36984   1.475   5.793   9.631  0.0548 -0.0315 -1.8346
  274MOL0     H36985   1.460   5.636   9.560 -3.1270  0.3464  0.0427
  274MOL0     H36986   1.515   5.598   9.840 -2.1703 -2.0817 -1.4361
  274MOL0     H36987   1.647   5.689   9.749  2.6597 -2.4546  0.5036
  274MOL0     H36988   1.645   5.256   9.688 -0.5066 -0.3640  3.0998
  274MOL0     H36989   1.020   5.962   9.858  1.5755 -2.9087  0.7501
  274MOL0     H36990   0.824   5.996   9.702 -0.6835  1.2664 -2.7261
  275MOL0     O36991   0.451   6.135   6.866  0.4262  0.0505  0.2310
  275MOL0     C36992   0.486   6.065   6.963  0.2047 -0.5258  0.0695
  275MOL0     O36993   0.403   6.008   7.048  0.0241 -0.3038 -0.0633
  275MOL0     C36994   0.267   6.021   7.033 -0.2911 -0.0318  0.0142
  275MOL0     C36995   0.206   5.945   6.932 -0.1790 -0.2353 -0.0907
  275MOL0     C36996   0.065   5.937   6.931 -0.4483  0.2886 -0.8568
  275MOL0     C36997  -0.014   6.007   7.020  0.3781 -0.4944 -0.1747
  275MOL0     O36998  -0.144   5.980   7.028  0.3841 -0.0719 -0.2798
  275MOL0     C36999  -0.200   5.923   7.150 -0.7377  1.1297 -0.2770
  275MOL0     C37000  -0.348   5.898   7.139  0.1675  1.0373 -0.5586
  275MOL0     C37001  -0.446   6.025   7.132  0.0494 -0.0190 -0.3452
  275MOL0     C37002  -0.583   5.989   7.112  0.1967  0.3416 -0.3447
  275MOL0     C37003  -0.669   6.112   7.094 -0.2358 -0.0796 -0.6314
  275MOL0     C37004  -0.810   6.096   7.033  0.0800  0.1715 -0.6155
  275MOL0     C37005  -0.904   6.008   7.117  0.3198 -0.9483  0.2993
  275MOL0     C37006  -0.981   6.072   7.236 -0.0430  0.0691 -0.2329
  275MOL0     N37007  -1.092   6.153   7.177  0.0388  0.0319 -1.0780
  275MOL0     C37008  -1.091   6.294   7.179 -0.4653 -0.0452 -0.3499
  275MOL0     C37009  -1.221   6.324   7.157 -0.1513 -0.5912  0.9115
  275MOL0     C37010  -1.297   6.453   7.137 -0.4329 -0.4654  0.4911
  275MOL0     C37011  -1.210   6.567   7.090 -1.5415 -0.0958  0.4564
  275MOL0     C37012  -1.302   6.674   7.038 -0.0991 -0.3512 -0.3459
  275MOL0     C37013  -1.228   6.780   6.954  0.5096  0.1332  0.6473
  275MOL0     O37014  -1.132   6.844   7.037  0.6521 -0.2686 -0.6235
  275MOL0     C37015  -1.005   6.843   6.996  0.2495 -0.0526  0.2835
  275MOL0     C37016  -0.961   6.911   6.877 -0.1598  0.9998  0.0078
  275MOL0     C37017  -0.821   6.930   6.854  0.2392  0.8434  0.3291
  275MOL0     C37018  -0.790   6.980   6.709  1.4098 -0.0829  0.1646
  275MOL0     C37019  -0.727   6.878   6.947 -0.6738  0.6748 -0.9694
  275MOL0     C37020  -0.582   6.877   6.922 -0.9007 -0.8556 -0.0151
  275MOL0     O37021  -0.521   6.951   6.827  0.3772  0.0489 -0.2632
  275MOL0     C37022  -0.398   6.890   6.784  0.5680 -0.1252 -0.9514
  275MOL0     C37023  -0.388   6.835   6.660  0.7719 -0.0152 -0.3646
  275MOL0     C37024  -0.264   6.775   6.616 -0.4119  0.3583 -0.0587
  275MOL0     C37025  -0.150   6.782   6.690 -0.0888 -1.3304 -0.0032
  275MOL0     O37026  -0.034   6.722   6.647 -0.4432  1.3217  0.4524
  275MOL0     C37027  -0.004   6.594   6.702 -0.0649  0.1784 -0.3603
  275MOL0     C37028   0.140   6.549   6.685  0.0466 -0.5644  0.7596
  275MOL0     C37029   0.189   6.564   6.547  0.5637  0.4260 -0.0387
  275MOL0     C37030   0.324   6.487   6.512  1.1942  0.1526 -0.4144
  275MOL0     C37031   0.339   6.511   6.364 -0.5467 -0.4530  0.7289
  275MOL0     C37032   0.444   6.426   6.291 -0.6029 -0.7250  0.0362
  275MOL0     C37033   0.387   6.295   6.244 -0.7296 -0.5545 -0.4324
  275MOL0     C37034   0.500   6.187   6.245  0.1349 -0.1533  1.0992
  275MOL0    Cl37035   0.655   6.242   6.176  0.1722 -0.1391 -0.0971
  275MOL0     C37036  -0.155   6.845   6.812 -0.6459  0.4291 -0.1974
  275MOL0     C37037  -0.281   6.897   6.860 -0.1791  0.1343 -0.4374
  275MOL0     O37038  -0.521   6.791   6.993 -0.1358 -0.1345  0.1526
  275MOL0     C37039  -0.771   6.823   7.069 -0.3815 -0.3967  0.1655
  275MOL0     C37040  -0.907   6.809   7.090 -0.2363  0.9054  0.2930
  275MOL0     N37041  -1.286   6.203   7.127 -0.7915  0.1647 -0.7039
  275MOL0     N37042  -1.215   6.101   7.145 -0.0731 -0.1689  0.3679
  275MOL0     C37043   0.045   6.091   7.121 -0.5183  1.3231  0.5458
  275MOL0     C37044   0.187   6.101   7.118 -0.1752 -0.0996 -0.2192
  275MOL0     C37045   0.623   6.039   6.988 -1.1266  0.6790 -1.0813
  275MOL0     C37046   0.715   6.146   6.995  0.6437 -0.1980  0.6381
  275MOL0     C37047   0.850   6.132   7.005  0.0961  0.2870  0.3329
  275MOL0     C37048   0.899   6.000   7.016 -0.0530  0.2534  0.4682
  275MOL0     O37049   1.036   5.972   7.020 -0.0474  0.1729  0.3459
  275MOL0     C37050   1.078   5.941   7.152 -0.5943  0.3420 -1.0238
  275MOL0     C37051   1.188   5.849   7.136 -1.0136  0.0984  0.0711
  275MOL0     C37052   1.272   5.834   7.263 -0.4294 -0.7342 -0.4337
  275MOL0     C37053   1.335   5.968   7.319  0.6732 -0.0490  1.1405
  275MOL0     C37054   1.442   6.021   7.227  0.2043  0.6154  0.2654
  275MOL0     C37055   1.513   6.060   7.139 -0.0823  0.0388 -0.2205
  275MOL0     C37056   0.808   5.896   7.010 -0.4097 -0.0220 -0.6292
  275MOL0     C37057   0.671   5.913   7.003 -0.1093  0.1133  0.0040
  275MOL0     H37058   0.260   5.878   6.866  0.0894 -0.6114  0.5034
  275MOL0     H37059   0.019   5.863   6.868  0.6354 -0.8600 -0.3358
  275MOL0     H37060  -0.149   5.827   7.161 -1.9847 -0.9480 -7.5359
  275MOL0     H37061  -0.171   5.983   7.237 -0.7139 -1.6289  1.7345
  275MOL0     H37062  -0.360   5.843   7.045 -0.1571 -0.1583  0.1545
  275MOL0     H37063  -0.386   5.840   7.223 -1.3223  2.1097 -0.4427
  275MOL0     H37064  -0.449   6.076   7.229  1.0641  3.2229 -1.8674
  275MOL0     H37065  -0.417   6.097   7.055 -3.0482  1.1582 -0.5511
  275MOL0     H37066  -0.581   5.920   7.026  2.9976 -0.5568  0.3339
  275MOL0     H37067  -0.621   5.926   7.193  0.1212 -0.5193 -1.0275
  275MOL0     H37068  -0.679   6.155   7.194 -0.4620 -1.8436  0.1344
  275MOL0     H37069  -0.616   6.188   7.036  0.0213  1.3278  1.3541
  275MOL0     H37070  -0.865   6.189   7.013  1.1725  0.7038 -1.2348
  275MOL0     H37071  -0.800   6.039   6.940 -2.0420  0.8863 -1.3398
  275MOL0     H37072  -0.982   5.968   7.052 -0.9967  0.3717  0.9905
  275MOL0     H37073  -0.846   5.926   7.158  2.1911  0.1891  0.0360
  275MOL0     H37074  -0.911   6.125   7.302  2.3269 -2.1647 -0.7950
  275MOL0     H37075  -1.025   5.991   7.295  0.2944 -0.2793 -0.4565
  275MOL0     H37076  -1.013   6.369   7.191  0.7259 -1.3916  0.8807
  275MOL0     H37077  -1.388   6.424   7.084 -1.2653 -0.1427  1.6872
  275MOL0     H37078  -1.332   6.489   7.235 -0.0826  2.2588 -0.2959
  275MOL0     H37079  -1.144   6.531   7.011  0.7090 -0.0200  2.1903
  275MOL0     H37080  -1.158   6.612   7.175 -0.5858  2.2979 -1.2806
  275MOL0     H37081  -1.358   6.720   7.120 -0.8398 -0.6071 -0.6995
  275MOL0     H37082  -1.384   6.632   6.979 -2.7570  1.2654  1.9480
  275MOL0     H37083  -1.297   6.859   6.923  1.3522  2.2918  3.8045
  275MOL0     H37084  -1.181   6.722   6.874  1.2605 -0.2432  1.3524
  275MOL0     H37085  -1.030   6.930   6.796 -2.5048 -0.9241  1.4090
  275MOL0     H37086  -0.758   7.085   6.711 -1.6775  0.9647 -0.8509
  275MOL0     H37087  -0.713   6.922   6.657  0.3903 -1.9277  0.6491
  275MOL0     H37088  -0.870   6.963   6.637  2.6033 -1.6688 -0.8495
  275MOL0     H37089  -0.474   6.823   6.595  1.6839 -2.7521 -1.1942
  275MOL0     H37090  -0.259   6.735   6.515  1.5097  1.0489 -0.2638
  275MOL0     H37091  -0.034   6.583   6.807  0.2657  2.1557 -0.0278
  275MOL0     H37092  -0.074   6.527   6.652  0.2842 -0.8505  0.4920
  275MOL0     H37093   0.204   6.613   6.746 -0.6749 -1.2451  2.3074
  275MOL0     H37094   0.144   6.450   6.732 -3.6321 -0.4563  1.6115
  275MOL0     H37095   0.212   6.667   6.518  1.7157  0.3090  0.3867
  275MOL0     H37096   0.110   6.534   6.478  0.9161  1.1302 -0.7718
  275MOL0     H37097   0.412   6.520   6.568 -0.2262 -1.0992  2.8247
  275MOL0     H37098   0.311   6.383   6.542 -0.9511 -0.0386 -1.7850
  275MOL0     H37099   0.383   6.611   6.357  0.4647 -0.9177  0.3395
  275MOL0     H37100   0.244   6.505   6.310 -0.3331 -1.9070  0.4958
  275MOL0     H37101   0.485   6.474   6.202  0.8225  0.8289  1.4637
  275MOL0     H37102   0.521   6.403   6.365  0.2522 -1.6002 -1.0920
  275MOL0     H37103   0.336   6.316   6.149 -1.4924 -1.7061 -0.3026
  275MOL0     H37104   0.309   6.266   6.315 -0.4935 -2.9455 -1.0883
  275MOL0     H37105   0.461   6.102   6.188 -2.4224  1.5654  0.0694
  275MOL0     H37106   0.512   6.150   6.348  1.5455  1.5934  1.6238
  275MOL0     H37107  -0.073   6.850   6.883 -0.4547  1.3503 -0.4791
  275MOL0     H37108  -0.285   6.919   6.966  0.6239  0.4123 -0.4608
  275MOL0     H37109  -0.696   6.802   7.144  2.5808  2.6627 -1.6277
  275MOL0     H37110  -0.934   6.783   7.192  0.0058 -1.8319 -0.2430
  275MOL0     H37111  -0.013   6.140   7.198  2.1146  1.3891  2.6470
  275MOL0     H37112   0.234   6.168   7.189 -0.4595  1.2744 -1.2747
  275MOL0     H37113   0.669   6.244   6.981 -1.2770 -0.5665  3.4433
  275MOL0     H37114   0.911   6.221   7.018  2.4492 -0.8480 -1.8667
  275MOL0     H37115   1.105   6.035   7.200  0.4445 -0.0496 -0.8141
  275MOL0     H37116   0.995   5.893   7.206  1.3291 -2.0983 -0.0828
  275MOL0     H37117   1.255   5.883   7.056  0.2520 -0.8488  0.6877
  275MOL0     H37118   1.156   5.753   7.096  2.4790 -1.6956  1.1720
  275MOL0     H37119   1.357   5.772   7.233 -0.2921 -1.2362  0.9117
  275MOL0     H37120   1.224   5.778   7.344 -1.2267 -1.1186 -1.1668
  275MOL0     H37121   1.385   5.946   7.414  0.6209 -1.9744  0.7750
  275MOL0     H37122   1.261   6.048   7.323  0.3558 -0.3012  0.3800
  275MOL0     H37123   1.569   6.109   7.062 -1.8512  2.1178 -0.2569
  275MOL0     H37124   0.846   5.795   7.012  1.0330  0.3110  4.8197
  275MOL0     H37125   0.601   5.830   7.003  0.5639 -0.4700 -0.6308
  276MOL0     O37126   3.566  11.267   1.551  0.0375 -0.4302 -0.9566
  276MOL0     C37127   3.599  11.155   1.503  0.1323  0.0645  0.1082
  276MOL0     O37128   3.550  11.097   1.392  0.4654  0.4272  0.3191
  276MOL0     C37129   3.430  11.135   1.342  0.8060  0.3972  0.6517
  276MOL0     C37130   3.413  11.131   1.203 -0.3346 -0.5555 -0.0738
  276MOL0     C37131   3.280  11.148   1.160  0.3422 -1.2707 -0.2602
  276MOL0     C37132   3.171  11.164   1.245  0.0802  0.1744  0.5921
  276MOL0     O37133   3.048  11.175   1.187  0.5742  0.3748 -0.0983
  276MOL0     C37134   2.926  11.224   1.258  1.3020 -0.4076  0.0786
  276MOL0     C37135   2.793  11.213   1.173  0.5868  0.3993 -0.1201
  276MOL0     C37136   2.695  11.331   1.178 -0.0784 -0.2350  0.2432
  276MOL0     C37137   2.571  11.301   1.089  0.4354 -0.2375 -0.3512
  276MOL0     C37138   2.509  11.431   1.037 -0.1382  0.2810  0.5899
  276MOL0     C37139   2.460  11.527   1.158  0.6876 -0.9539 -0.3727
  276MOL0     C37140   2.365  11.635   1.106  0.0916 -0.4991 -0.0746
  276MOL0     C37141   2.296  11.730   1.196 -0.1765 -0.5263 -0.5298
  276MOL0     N37142   2.201  11.668   1.288 -0.6217 -0.3676 -0.6079
  276MOL0     C37143   2.231  11.591   1.405  0.1384 -0.5566 -0.4132
  276MOL0     C37144   2.112  11.570   1.463 -0.0059  0.2669  0.3032
  276MOL0     C37145   2.085  11.484   1.584  0.6416 -0.4562 -0.8822
  276MOL0     C37146   2.048  11.342   1.542 -0.1744  0.2567 -1.0015
  276MOL0     C37147   1.904  11.314   1.539  0.5787 -0.6506  0.2446
  276MOL0     C37148   1.850  11.167   1.538 -0.4988 -0.4476 -0.3145
  276MOL0     O37149   1.914  11.091   1.642  0.4232 -0.2205  0.0981
  276MOL0     C37150   1.855  10.979   1.698 -0.6795  0.7505  0.3926
  276MOL0     C37151   1.766  10.888   1.637 -0.1013  0.6282  0.3911
  276MOL0     C37152   1.719  10.768   1.701  0.4399 -0.1907  0.1563
  276MOL0     C37153   1.623  10.681   1.624 -0.6164 -1.4248  1.0190
  276MOL0     C37154   1.762  10.750   1.835  0.2077 -0.2031 -1.1211
  276MOL0     C37155   1.716  10.638   1.918  0.1845  0.4713  0.0014
  276MOL0     O37156   1.793  10.578   2.009 -0.5048  0.0817 -0.1238
  276MOL0     C37157   1.737  10.495   2.106  0.9357  0.3527  0.1004
  276MOL0     C37158   1.695  10.363   2.091 -0.5392  0.5700 -0.4739
  276MOL0     C37159   1.631  10.291   2.196  0.2147  0.1912 -0.1325
  276MOL0     C37160   1.590  10.368   2.308 -0.1368  0.0231 -0.8467
  276MOL0     O37161   1.516  10.306   2.410  0.3594 -0.3024  0.2943
  276MOL0     C37162   1.392  10.245   2.365  0.3649  0.1930 -0.6443
  276MOL0     C37163   1.279  10.253   2.471  0.3015  0.8648 -0.3733
  276MOL0     C37164   1.143  10.243   2.409 -0.4670 -0.2749  0.3478
  276MOL0     C37165   1.039  10.208   2.507  0.2022 -0.8127  0.1390
  276MOL0     C37166   0.897  10.189   2.461  0.2234  0.0671  0.7339
  276MOL0     C37167   0.814  10.324   2.478 -0.9096 -0.7185 -0.0844
  276MOL0     C37168   0.670  10.298   2.432 -0.4057 -0.4022  0.8554
  276MOL0     C37169   0.569  10.407   2.479 -0.2298 -1.2217  0.0027
  276MOL0    Cl37170   0.646  10.557   2.386  0.1657  0.5973  0.2914
  276MOL0     C37171   1.636  10.498   2.323  0.0328 -0.9089 -0.2726
  276MOL0     C37172   1.704  10.566   2.220  0.4033 -0.2138  0.6277
  276MOL0     O37173   1.604  10.603   1.897 -0.3872  0.7736 -0.0388
  276MOL0     C37174   1.839  10.842   1.900  0.5679 -0.8493 -0.7547
  276MOL0     C37175   1.894  10.946   1.829 -0.6051 -0.7995  0.1319
  276MOL0     N37176   2.018  11.645   1.404  0.0366 -0.5326  0.2315
  276MOL0     N37177   2.072  11.701   1.297  0.5778  0.2818 -0.2960
  276MOL0     C37178   3.190  11.167   1.383 -0.0053  0.2396  0.4507
  276MOL0     C37179   3.320  11.159   1.431 -0.3409  0.8878  0.0591
  276MOL0     C37180   3.735  11.103   1.542 -0.4801  0.2616  0.0042
  276MOL0     C37181   3.817  11.018   1.460 -0.1468  0.2350 -0.0983
  276MOL0     C37182   3.937  10.958   1.513 -0.1798 -0.0856 -0.3044
  276MOL0     C37183   3.997  11.012   1.628  0.7717 -0.1512  0.1096
  276MOL0     O37184   4.122  10.974   1.684  0.0722 -0.4575  0.5350
  276MOL0     C37185   4.222  11.027   1.596 -0.0774 -1.0173 -0.3533
  276MOL0     C37186   4.230  11.180   1.570  0.7952  0.6438 -0.3293
  276MOL0     C37187   4.296  11.264   1.683  0.7290 -0.0812 -0.5720
  276MOL0     C37188   4.202  11.281   1.800  0.7139 -0.2916 -0.1593
  276MOL0     C37189   4.281  11.362   1.903  0.2627  0.0396  0.2459
  276MOL0     C37190   4.342  11.427   1.986  0.2281  0.4955 -0.9344
  276MOL0     C37191   3.928  11.105   1.709 -0.1180  0.1648  0.0980
  276MOL0     C37192   3.798  11.146   1.668  1.0400  1.0463  0.1345
  276MOL0     H37193   3.496  11.107   1.138  1.2963  1.2133  1.2159
  276MOL0     H37194   3.269  11.157   1.052  1.8206  0.9075 -0.2824
  276MOL0     H37195   2.918  11.192   1.362  3.5873 -0.1532  0.3916
  276MOL0     H37196   2.944  11.328   1.287  0.2156 -0.4300  0.8826
  276MOL0     H37197   2.816  11.194   1.068  0.9815 -1.7882  0.3103
  276MOL0     H37198   2.743  11.121   1.206  1.0406  0.5427  1.0155
  276MOL0     H37199   2.652  11.358   1.274 -2.0221  0.8319 -0.8564
  276MOL0     H37200   2.745  11.421   1.139  0.5641 -0.4859  0.4694
  276MOL0     H37201   2.609  11.241   1.006  3.1947 -0.8627  1.2196
  276MOL0     H37202   2.488  11.247   1.136 -2.7593  3.4288 -1.3254
  276MOL0     H37203   2.574  11.484   0.967 -0.7262 -1.1123 -1.0952
  276MOL0     H37204   2.422  11.414   0.973  0.6884 -0.3253 -0.4042
  276MOL0     H37205   2.412  11.462   1.233 -1.5236  0.1832 -0.7259
  276MOL0     H37206   2.544  11.567   1.215 -1.1165  0.1104  1.7104
  276MOL0     H37207   2.422  11.700   1.039  0.6072 -1.8459 -0.9707
  276MOL0     H37208   2.290  11.585   1.044 -1.2170  0.7985  0.3855
  276MOL0     H37209   2.244  11.802   1.133 -1.7266 -1.6916 -0.6588
  276MOL0     H37210   2.375  11.781   1.251 -0.1599 -1.7499  0.6340
  276MOL0     H37211   2.322  11.546   1.444 -0.2359  0.7074  2.0965
  276MOL0     H37212   2.180  11.477   1.639  1.1975 -2.4223 -1.9798
  276MOL0     H37213   2.016  11.524   1.659  1.7861 -1.8056  0.9857
  276MOL0     H37214   2.101  11.269   1.604 -2.8005 -0.5315  0.4660
  276MOL0     H37215   2.090  11.330   1.441  1.2047  0.0795 -0.4319
  276MOL0     H37216   1.864  11.362   1.449 -0.1127 -2.8756 -0.7081
  276MOL0     H37217   1.850  11.360   1.623  0.1922 -2.3844  0.9779
  276MOL0     H37218   1.854  11.121   1.438  1.8653  0.4163 -0.6714
  276MOL0     H37219   1.741  11.168   1.548 -0.5504 -0.5342 -0.8275
  276MOL0     H37220   1.736  10.906   1.534  2.1944  1.4058 -0.2108
  276MOL0     H37221   1.524  10.699   1.666 -0.0175 -2.0079  2.7653
  276MOL0     H37222   1.635  10.696   1.516  2.5004 -0.8447  1.3478
  276MOL0     H37223   1.651  10.576   1.641  1.3411 -1.4993 -1.8563
  276MOL0     H37224   1.718  10.327   1.991  0.9455  1.4714 -0.4761
  276MOL0     H37225   1.612  10.186   2.178  1.9200  0.0277 -1.1778
  276MOL0     H37226   1.369  10.292   2.268 -1.4649  1.2758  0.2631
  276MOL0     H37227   1.409  10.138   2.353 -2.6038 -0.2419 -1.8965
  276MOL0     H37228   1.295  10.165   2.535 -0.4759 -0.6737 -2.1991
  276MOL0     H37229   1.291  10.344   2.530  2.3967  2.3986 -2.9552
  276MOL0     H37230   1.154  10.173   2.324  0.0216 -0.8280  0.8515
  276MOL0     H37231   1.117  10.342   2.371  0.4521 -0.1056  0.1206
  276MOL0     H37232   1.073  10.125   2.570  1.0657 -0.7119 -0.1661
  276MOL0     H37233   1.040  10.277   2.592 -1.7853 -2.2362  1.3770
  276MOL0     H37234   0.835  10.119   2.518 -1.5590 -1.9927 -3.2920
  276MOL0     H37235   0.889  10.158   2.356 -3.5500  2.0976  0.2344
  276MOL0     H37236   0.821  10.355   2.583 -0.3403  1.0328 -0.5916
  276MOL0     H37237   0.861  10.399   2.412  1.9429 -2.0150  0.3101
  276MOL0     H37238   0.630  10.200   2.458  2.4502 -1.6696  0.8376
  276MOL0     H37239   0.695  10.294   2.326  0.2102 -0.8696  1.0113
  276MOL0     H37240   0.556  10.421   2.587  1.2548  0.8697 -0.0304
  276MOL0     H37241   0.469  10.403   2.433  0.0559  1.3104 -0.9504
  276MOL0     H37242   1.615  10.554   2.414  2.4710  4.3102 -2.5105
  276MOL0     H37243   1.721  10.672   2.235  0.0158 -0.3018  1.8066
  276MOL0     H37244   1.852  10.824   2.006 -0.0166  0.7290 -0.3974
  276MOL0     H37245   1.967  11.007   1.882  0.7004 -1.8270 -0.4424
  276MOL0     H37246   3.107  11.184   1.451 -0.5479  1.1439 -0.4139
  276MOL0     H37247   3.334  11.158   1.539  0.0830 -0.2252  0.0109
  276MOL0     H37248   3.780  10.976   1.368 -0.8908  0.3333  0.1512
  276MOL0     H37249   3.979  10.884   1.445  0.1027 -0.1831 -0.0245
  276MOL0     H37250   4.311  10.990   1.647 -0.6372 -0.7109  0.8619
  276MOL0     H37251   4.215  10.968   1.504  0.6383  0.9926 -1.7662
  276MOL0     H37252   4.130  11.215   1.546 -0.2868 -2.0086 -0.0226
  276MOL0     H37253   4.294  11.180   1.481  0.5973 -0.9185 -0.5002
  276MOL0     H37254   4.331  11.357   1.639 -0.3862 -0.4747 -2.3763
  276MOL0     H37255   4.386  11.211   1.715 -0.7124 -2.2505  0.0858
  276MOL0     H37256   4.186  11.187   1.852  2.2870 -0.2127  0.5117
  276MOL0     H37257   4.112  11.343   1.790  1.2336  0.8049  1.5133
  276MOL0     H37258   4.389  11.495   2.054  2.4506  0.3575 -2.2194
  276MOL0     H37259   3.972  11.133   1.804 -1.6609  0.5154  0.7545
  276MOL0     H37260   3.730  11.208   1.725  0.6325  0.8435 -0.1290
  277MOL0     O37261   3.142   2.394   0.215  0.6614  0.5397  0.3691
  277MOL0     C37262   3.192   2.280   0.220 -0.1692  0.4288 -0.4241
  277MOL0     O37263   3.123   2.164   0.251 -0.9199  0.5501  0.3741
  277MOL0     C37264   2.989   2.167   0.283 -0.5363 -1.0972 -0.7990
  277MOL0     C37265   2.943   2.094   0.393 -0.2872 -0.3010  0.4081
  277MOL0     C37266   2.811   2.066   0.414  0.4875  0.3379  0.4741
  277MOL0     C37267   2.714   2.119   0.326  0.3740 -0.1289 -0.4625
  277MOL0     O37268   2.588   2.083   0.351  0.2663 -0.3780 -0.3568
  277MOL0     C37269   2.483   2.139   0.274  0.3558  0.4363 -0.2531
  277MOL0     C37270   2.338   2.100   0.316 -0.0961  0.1611 -1.1185
  277MOL0     C37271   2.240   2.106   0.197  0.4008 -0.5406  0.7940
  277MOL0     C37272   2.099   2.091   0.264  0.9583 -0.4444  0.3785
  277MOL0     C37273   1.995   2.032   0.159  0.0451  0.7296 -0.3655
  277MOL0     C37274   1.952   2.150   0.074 -0.0311 -0.0121  0.3990
  277MOL0     C37275   1.842   2.109  -0.022 -0.4353 -0.2328  0.9102
  277MOL0     C37276   1.840   2.220  -0.119  1.0037  0.2385 -0.7340
  277MOL0     N37277   1.730   2.207  -0.211  0.4733 -0.0779  0.0061
  277MOL0     C37278   1.601   2.260  -0.196 -0.0888  0.4195 -0.2077
  277MOL0     C37279   1.548   2.239  -0.320 -0.2465 -0.9014  0.1349
  277MOL0     C37280   1.405   2.275  -0.373  0.0882 -0.1226 -0.2118
  277MOL0     C37281   1.343   2.399  -0.306 -0.0856  0.0938  0.1814
  277MOL0     C37282   1.230   2.459  -0.373 -0.0840  0.2982  0.2167
  277MOL0     C37283   1.091   2.389  -0.341 -0.1413 -0.2536  0.2299
  277MOL0     O37284   1.078   2.260  -0.402  0.2079  0.0880 -0.7144
  277MOL0     C37285   0.965   2.194  -0.383  0.2098 -0.3517  0.7105
  277MOL0     C37286   0.844   2.250  -0.342  0.3592 -0.1188 -0.6529
  277MOL0     C37287   0.711   2.195  -0.336 -0.7011 -0.4180  1.0498
  277MOL0     C37288   0.596   2.285  -0.306 -0.6164  0.6453 -0.2361
  277MOL0     C37289   0.707   2.057  -0.372  0.5646  0.0294 -0.3279
  277MOL0     C37290   0.585   1.972  -0.357  0.1770 -0.4967  1.0881
  277MOL0     O37291   0.495   2.022  -0.261 -1.0071 -0.2497 -0.0756
  277MOL0     C37292   0.368   1.961  -0.261  0.5020 -0.4035 -0.5428
  277MOL0     C37293   0.260   2.035  -0.296  0.1154 -0.9699  0.5357
  277MOL0     C37294   0.133   1.976  -0.303  0.5825 -0.2010 -0.2538
  277MOL0     C37295   0.117   1.841  -0.273  0.9145 -1.0055  0.4432
  277MOL0     O37296  -0.011   1.785  -0.279  0.0527 -0.4048 -0.6699
  277MOL0     C37297  -0.117   1.869  -0.219  0.8493 -0.0332  0.2105
  277MOL0     C37298  -0.229   1.774  -0.204  0.5987 -0.1493  0.0696
  277MOL0     C37299  -0.335   1.818  -0.102 -0.2625  0.1046  1.2862
  277MOL0     C37300  -0.416   1.932  -0.152  0.5930 -0.1137 -0.3376
  277MOL0     C37301  -0.549   1.922  -0.077  0.0383 -0.7623 -0.2839
  277MOL0     C37302  -0.551   1.941   0.074  0.6878 -0.7167 -0.9851
  277MOL0     C37303  -0.531   2.098   0.108 -0.1695 -0.4853  0.3959
  277MOL0     C37304  -0.475   2.111   0.248 -0.1010  0.4712  0.6283
  277MOL0    Cl37305  -0.449   2.281   0.310 -0.4606  0.1335 -0.3232
  277MOL0     C37306   0.223   1.760  -0.231  0.3307 -0.5677  0.0776
  277MOL0     C37307   0.347   1.826  -0.234  0.3543  0.8565 -0.9375
  277MOL0     O37308   0.557   1.882  -0.437  0.1643  0.3459 -0.0538
  277MOL0     C37309   0.824   1.998  -0.420  0.6442 -1.1203  0.1385
  277MOL0     C37310   0.955   2.060  -0.420  0.3303 -0.6456 -0.1112
  277MOL0     N37311   1.629   2.160  -0.394  0.7361  0.0217  0.0010
  277MOL0     N37312   1.737   2.141  -0.330 -0.3979  0.0586  0.0362
  277MOL0     C37313   2.760   2.191   0.220 -0.4303 -0.3451  0.7375
  277MOL0     C37314   2.898   2.215   0.198 -0.0534 -0.5688  0.5029
  277MOL0     C37315   3.339   2.263   0.198 -0.4709 -0.1064 -0.0086
  277MOL0     C37316   3.420   2.369   0.178  0.1330 -0.0544 -0.0115
  277MOL0     C37317   3.559   2.350   0.150  0.8668 -0.1480 -0.0905
  277MOL0     C37318   3.619   2.224   0.153 -0.2788  0.0634 -0.5572
  277MOL0     O37319   3.750   2.221   0.118 -0.4272  0.7174 -0.1065
  277MOL0     C37320   3.832   2.134   0.205  0.0785  0.3459  0.4469
  277MOL0     C37321   3.984   2.170   0.212  0.8361  0.0760 -0.0964
  277MOL0     C37322   4.064   2.060   0.292  0.1371 -0.5629 -0.3390
  277MOL0     C37323   4.205   2.104   0.303 -0.2584  0.6516  0.5527
  277MOL0     C37324   4.224   2.220   0.381 -0.1491 -0.4639  0.1156
  277MOL0     C37325   4.237   2.326   0.440  0.5397  0.2384 -0.2026
  277MOL0     C37326   3.535   2.113   0.174  0.1499  0.2470 -0.5709
  277MOL0     C37327   3.400   2.131   0.205 -0.6646  0.3255  0.3931
  277MOL0     H37328   3.013   2.037   0.454 -0.9514  0.1459  1.6010
  277MOL0     H37329   2.773   1.990   0.483 -1.1092  0.5515 -0.1222
  277MOL0     H37330   2.491   2.248   0.267 -0.4582  0.5030 -0.2986
  277MOL0     H37331   2.499   2.097   0.174  0.1818 -0.4325  0.0727
  277MOL0     H37332   2.355   2.000   0.358  1.2369  1.0505  0.6134
  277MOL0     H37333   2.307   2.156   0.404  0.3595  0.1226 -0.9277
  277MOL0     H37334   2.253   2.208   0.158 -2.1022  0.9646  3.5269
  277MOL0     H37335   2.277   2.030   0.128  2.0774  2.0199 -1.3648
  277MOL0     H37336   2.106   2.014   0.341  1.1527 -0.5664  0.2401
  277MOL0     H37337   2.058   2.186   0.300  0.1822  0.1668 -1.9539
  277MOL0     H37338   2.045   1.953   0.102  0.0352  1.6941 -1.7593
  277MOL0     H37339   1.916   1.981   0.214  0.4716 -0.5438 -0.8861
  277MOL0     H37340   1.921   2.237   0.132  0.0538  1.2271 -1.3364
  277MOL0     H37341   2.039   2.175   0.013 -1.4858  0.9274 -1.3997
  277MOL0     H37342   1.865   2.024  -0.088  1.3231 -0.4316  1.7188
  277MOL0     H37343   1.740   2.103   0.017 -0.6693  1.3162  0.6069
  277MOL0     H37344   1.926   2.224  -0.186 -0.8028 -2.1290 -3.3878
  277MOL0     H37345   1.831   2.317  -0.069 -2.0888 -0.2077 -0.1887
  277MOL0     H37346   1.573   2.327  -0.116  3.4035  2.6227 -0.5880
  277MOL0     H37347   1.409   2.297  -0.480 -0.6895  0.4376 -0.1338
  277MOL0     H37348   1.343   2.187  -0.357 -1.0622  0.9286  1.3474
  277MOL0     H37349   1.422   2.473  -0.314  0.0617 -0.2150 -1.5811
  277MOL0     H37350   1.327   2.375  -0.200 -0.1936  0.0942  0.1654
  277MOL0     H37351   1.247   2.445  -0.480  0.2884  2.3563 -0.0344
  277MOL0     H37352   1.232   2.568  -0.363  2.4465  0.2086  1.4466
  277MOL0     H37353   1.015   2.456  -0.383  0.8163  0.7616  0.0527
  277MOL0     H37354   1.073   2.374  -0.234 -1.1706 -3.1433 -0.2738
  277MOL0     H37355   0.848   2.357  -0.321  0.6107 -0.6201  2.2134
  277MOL0     H37356   0.524   2.280  -0.387 -0.2041 -3.5187 -0.6017
  277MOL0     H37357   0.562   2.270  -0.203 -0.8185 -0.6147 -0.4676
  277MOL0     H37358   0.629   2.389  -0.299 -1.2396  0.7995  0.5008
  277MOL0     H37359   0.261   2.138  -0.332 -0.4762  0.0066  3.0804
  277MOL0     H37360   0.046   2.037  -0.326  1.3030  0.2152 -2.0967
  277MOL0     H37361  -0.087   1.929  -0.133 -0.9611  3.1812 -1.1847
  277MOL0     H37362  -0.164   1.942  -0.285  0.9700  1.5694  1.8197
  277MOL0     H37363  -0.276   1.754  -0.301  0.9244 -0.2480 -0.0681
  277MOL0     H37364  -0.194   1.680  -0.162  0.0840  0.2745  1.4781
  277MOL0     H37365  -0.285   1.841  -0.008  0.7159 -2.1261  1.3733
  277MOL0     H37366  -0.403   1.732  -0.100  0.4808 -0.8267 -3.2545
  277MOL0     H37367  -0.370   2.028  -0.126  0.8464 -0.5697  0.9257
  277MOL0     H37368  -0.423   1.926  -0.261  0.3387 -0.8781 -0.2832
  277MOL0     H37369  -0.596   1.826  -0.102 -1.9449  0.1582 -0.3279
  277MOL0     H37370  -0.630   1.987  -0.113 -0.3809  0.7743  3.0744
  277MOL0     H37371  -0.646   1.914   0.120 -0.1996  4.3052  0.7293
  277MOL0     H37372  -0.466   1.891   0.122  0.8449 -0.8729 -1.4192
  277MOL0     H37373  -0.628   2.146   0.092  1.3470  2.4783 -0.5498
  277MOL0     H37374  -0.465   2.149   0.038 -0.9994  1.0074  0.6512
  277MOL0     H37375  -0.375   2.066   0.249 -0.6425 -0.7589  1.3594
  277MOL0     H37376  -0.543   2.060   0.317  0.7053 -1.0290  0.3631
  277MOL0     H37377   0.235   1.657  -0.197 -0.1755 -0.6720 -0.0537
  277MOL0     H37378   0.439   1.776  -0.204 -1.4523 -0.5148  3.0820
  277MOL0     H37379   0.812   1.895  -0.452 -0.7249 -2.4849  4.3608
  277MOL0     H37380   1.041   2.001  -0.450  1.1510  0.9436 -1.0263
  277MOL0     H37381   2.693   2.237   0.149 -0.6802  0.5907  1.5549
  277MOL0     H37382   2.937   2.271   0.113  1.7845 -0.3841  1.4127
  277MOL0     H37383   3.387   2.472   0.169  1.0705  0.2029 -0.6652
  277MOL0     H37384   3.618   2.429   0.105  1.6264 -0.4857  0.2936
  277MOL0     H37385   3.799   2.136   0.309  2.0367  0.3667  1.1224
  277MOL0     H37386   3.833   2.031   0.168 -0.8954  0.8693 -1.1581
  277MOL0     H37387   3.988   2.265   0.265 -3.0347 -0.6386  1.8958
  277MOL0     H37388   4.033   2.170   0.115 -1.2695 -1.4083 -1.2555
  277MOL0     H37389   4.062   1.963   0.240  1.2314 -0.4058 -0.7025
  277MOL0     H37390   4.017   2.043   0.389 -1.9257 -0.0266 -1.1934
  277MOL0     H37391   4.237   2.113   0.199 -0.9313 -1.2370  0.1469
  277MOL0     H37392   4.263   2.029   0.358 -0.5180 -0.1276 -0.2186
  277MOL0     H37393   4.246   2.421   0.489 -1.0001 -0.5023  1.6255
  277MOL0     H37394   3.583   2.016   0.165  0.6257  0.6858 -3.9401
  277MOL0     H37395   3.340   2.044   0.232  2.0458 -1.2395  1.8557
  278MOL0     O37396   3.122   6.661   3.866  0.6320  0.3673 -0.3694
  278MOL0     C37397   3.185   6.643   3.970 -0.8950  0.3445 -0.4440
  278MOL0     O37398   3.127   6.597   4.082 -0.4327  0.4085 -0.0523
  278MOL0     C37399   2.995   6.573   4.093  0.8661 -0.3389  0.2275
  278MOL0     C37400   2.946   6.447   4.144  0.0641 -0.4146 -0.2963
  278MOL0     C37401   2.807   6.432   4.152 -0.3580  0.7059 -0.9557
  278MOL0     C37402   2.715   6.535   4.124  0.5110  0.1546  0.5829
  278MOL0     O37403   2.577   6.508   4.145 -0.6402 -0.2056  0.2087
  278MOL0     C37404   2.480   6.609   4.145  0.2025 -0.5111  0.5528
  278MOL0     C37405   2.350   6.530   4.153  0.0586 -0.4281  0.8014
  278MOL0     C37406   2.233   6.615   4.163 -0.7425 -0.4813 -0.3475
  278MOL0     C37407   2.196   6.687   4.035 -0.0446 -0.8018 -0.0780
  278MOL0     C37408   2.096   6.613   3.944  0.7028  0.2405  0.7714
  278MOL0     C37409   2.070   6.669   3.807 -0.7620  0.1398  0.3581
  278MOL0     C37410   2.034   6.818   3.822  0.0460  0.4690  1.1356
  278MOL0     C37411   1.887   6.836   3.883 -0.8147  0.0254  0.2705
  278MOL0     N37412   1.851   6.971   3.844  0.5765 -0.3687  0.0157
  278MOL0     C37413   1.896   7.086   3.897  0.4099  0.3766  0.2652
  278MOL0     C37414   1.828   7.185   3.838 -0.6189 -0.1804  1.2247
  278MOL0     C37415   1.846   7.333   3.852 -0.4482 -0.8774  0.2630
  278MOL0     C37416   1.735   7.405   3.923 -0.0501 -0.2519  0.1622
  278MOL0     C37417   1.772   7.518   4.019 -1.2296 -0.6649  0.1467
  278MOL0     C37418   1.858   7.623   3.955  0.6711  1.2445  0.2869
  278MOL0     O37419   1.858   7.737   4.044  0.4083  0.3856 -1.2178
  278MOL0     C37420   1.776   7.839   4.021  0.6570  0.1685  0.0429
  278MOL0     C37421   1.650   7.820   3.971  0.0389 -0.2130  0.0165
  278MOL0     C37422   1.568   7.936   3.951 -1.0859 -0.8018 -0.1619
  278MOL0     C37423   1.430   7.911   3.896 -0.2290  0.1118 -0.1088
  278MOL0     C37424   1.611   8.067   3.997  0.5603  0.4839  0.4349
  278MOL0     C37425   1.529   8.186   4.003  0.1277  0.4787 -0.7324
  278MOL0     O37426   1.571   8.295   4.088  0.3810 -0.3957  0.6923
  278MOL0     C37427   1.482   8.400   4.107 -1.4154 -0.1022  0.4884
  278MOL0     C37428   1.527   8.524   4.071  0.6814 -0.1404  1.0399
  278MOL0     C37429   1.445   8.634   4.084 -0.5270 -0.4825 -0.4617
  278MOL0     C37430   1.315   8.623   4.142  0.0509 -0.5208 -0.7624
  278MOL0     O37431   1.220   8.722   4.157 -0.1411  0.0530 -0.1053
  278MOL0     C37432   1.240   8.838   4.061  0.0917  0.8882  0.4478
  278MOL0     C37433   1.107   8.912   4.035  0.2323  1.0979  0.5197
  278MOL0     C37434   1.080   8.997   4.161 -0.1780 -1.0648  0.1186
  278MOL0     C37435   1.029   9.133   4.123  0.0640  0.0405 -0.2348
  278MOL0     C37436   1.030   9.220   4.250 -1.4872 -0.4447  0.5700
  278MOL0     C37437   0.965   9.365   4.251 -0.0037 -0.0064  0.0828
  278MOL0     C37438   0.968   9.440   4.122 -0.1369  0.3402 -0.5241
  278MOL0     C37439   1.005   9.590   4.121 -0.1006 -0.2261 -0.2705
  278MOL0    Cl37440   1.182   9.623   4.151  0.1269 -0.4250  0.0294
  278MOL0     C37441   1.265   8.493   4.185  0.2346 -0.7107 -0.6240
  278MOL0     C37442   1.350   8.382   4.158  0.2696  0.2857 -0.6924
  278MOL0     O37443   1.427   8.187   3.936 -0.1655  0.0505  0.1367
  278MOL0     C37444   1.735   8.078   4.053 -0.0955 -0.3814 -0.6204
  278MOL0     C37445   1.823   7.967   4.069 -0.1841  0.6300  0.4385
  278MOL0     N37446   1.733   7.129   3.760  0.1512 -0.7044  0.0926
  278MOL0     N37447   1.747   7.001   3.756  0.5914  0.6576 -0.5053
  278MOL0     C37448   2.758   6.656   4.069 -0.6898  0.0024  0.5903
  278MOL0     C37449   2.896   6.674   4.053  0.2400  0.4134  0.6767
  278MOL0     C37450   3.321   6.689   3.981 -0.8033 -1.0603 -0.7363
  278MOL0     C37451   3.389   6.700   4.109  1.0301 -0.5430  0.7391
  278MOL0     C37452   3.515   6.754   4.120 -0.0915  0.6615 -0.3031
  278MOL0     C37453   3.583   6.809   4.018  1.3230 -0.0408  1.4282
  278MOL0     O37454   3.704   6.867   4.024  0.1243  0.4104  0.0495
  278MOL0     C37455   3.808   6.813   4.101 -0.9774  0.0727  0.5787
  278MOL0     C37456   3.837   6.663   4.068  0.3795  0.4104 -0.1980
  278MOL0     C37457   3.842   6.624   3.912 -0.3129 -0.0220  0.0984
  278MOL0     C37458   3.897   6.480   3.901 -0.5378 -0.6992 -0.8413
  278MOL0     C37459   3.798   6.383   3.848  1.1737 -0.3535  0.2283
  278MOL0     C37460   3.712   6.296   3.819 -1.2225 -0.3617 -0.1711
  278MOL0     C37461   3.528   6.789   3.888  0.2019 -0.8298 -0.1194
  278MOL0     C37462   3.404   6.727   3.870  1.1885 -0.2835 -0.0096
  278MOL0     H37463   3.024   6.383   4.183 -0.2247 -2.1165 -2.3064
  278MOL0     H37464   2.764   6.337   4.182  2.7811 -0.8459 -1.0082
  278MOL0     H37465   2.493   6.665   4.238 -0.6203  1.1683 -0.2776
  278MOL0     H37466   2.482   6.688   4.069  0.5016 -0.3208  0.7559
  278MOL0     H37467   2.342   6.469   4.063 -1.1751 -0.1247  0.6922
  278MOL0     H37468   2.371   6.482   4.249 -0.0431 -1.9590  0.0758
  278MOL0     H37469   2.155   6.542   4.187  1.6271 -3.9783 -2.2712
  278MOL0     H37470   2.241   6.685   4.246  0.5255 -0.8609 -0.1137
  278MOL0     H37471   2.148   6.781   4.066  1.8138 -0.4789  2.0585
  278MOL0     H37472   2.288   6.719   3.985 -1.8911  0.8060 -2.7989
  278MOL0     H37473   2.141   6.515   3.924  1.7668  1.1472 -1.6989
  278MOL0     H37474   1.998   6.607   3.992  0.2050 -0.5079 -0.2930
  278MOL0     H37475   2.157   6.680   3.740 -0.6805  4.5767  0.9161
  278MOL0     H37476   2.001   6.602   3.754 -1.2851  0.5338  0.5351
  278MOL0     H37477   2.097   6.885   3.881  1.1059 -1.3407  2.1333
  278MOL0     H37478   2.041   6.865   3.723 -0.0543 -0.3718  0.7252
  278MOL0     H37479   1.890   6.825   3.991 -2.0746  2.8110  0.6658
  278MOL0     H37480   1.828   6.762   3.829  2.1593  0.6752 -4.6244
  278MOL0     H37481   1.966   7.100   3.978 -1.9208  1.0181  2.3024
  278MOL0     H37482   1.942   7.338   3.905 -0.1985 -2.9514  0.1284
  278MOL0     H37483   1.874   7.368   3.753  0.1194  0.8168  0.9920
  278MOL0     H37484   1.682   7.331   3.983  0.8341 -1.5794 -0.6507
  278MOL0     H37485   1.659   7.446   3.855  1.9270 -0.3558 -2.2378
  278MOL0     H37486   1.822   7.476   4.106 -0.0984  2.4414  1.0986
  278MOL0     H37487   1.680   7.562   4.060  0.0146 -0.2898  2.7199
  278MOL0     H37488   1.812   7.650   3.859 -1.4223  1.6081  1.3297
  278MOL0     H37489   1.961   7.587   3.945  1.1019  1.7632  2.4477
  278MOL0     H37490   1.613   7.721   3.949  1.0833 -0.6231  0.0156
  278MOL0     H37491   1.369   7.911   3.986  0.9718 -2.2838  0.8033
  278MOL0     H37492   1.414   7.975   3.808  3.0075 -3.1343 -3.4268
  278MOL0     H37493   1.418   7.810   3.855 -0.0449 -0.0174  0.1533
  278MOL0     H37494   1.628   8.548   4.039 -0.5519  2.4155 -1.3703
  278MOL0     H37495   1.470   8.733   4.047  1.2106 -0.2021  1.2995
  278MOL0     H37496   1.326   8.901   4.087  0.2030  1.0740 -0.3212
  278MOL0     H37497   1.267   8.793   3.964  1.8251  1.8318  0.4458
  278MOL0     H37498   1.121   8.981   3.952 -0.4425  0.7500  0.1085
  278MOL0     H37499   1.038   8.831   4.009  1.0772 -0.5645  3.0868
  278MOL0     H37500   1.171   8.999   4.222  1.2583  2.4961 -1.8534
  278MOL0     H37501   1.012   8.949   4.232 -0.0080 -0.9884  0.3352
  278MOL0     H37502   1.097   9.183   4.053 -1.5496  2.0493 -0.4508
  278MOL0     H37503   0.937   9.117   4.067 -1.1660 -1.5612  2.1026
  278MOL0     H37504   1.129   9.237   4.293 -1.7770  0.4283  0.9023
  278MOL0     H37505   0.979   9.159   4.325  2.0188 -1.3066  2.4447
  278MOL0     H37506   0.861   9.348   4.281 -0.6392  0.5320 -1.6357
  278MOL0     H37507   1.015   9.427   4.326 -1.3346 -1.2223  2.0699
  278MOL0     H37508   0.866   9.422   4.087 -0.8542 -1.4258  2.1584
  278MOL0     H37509   1.042   9.400   4.051  0.4160 -0.9761  0.7332
  278MOL0     H37510   0.949   9.637   4.202  0.4782 -2.2387  1.3642
  278MOL0     H37511   0.975   9.634   4.025  0.2797  0.6162 -0.0127
  278MOL0     H37512   1.166   8.495   4.230  0.8719  0.5919  0.8141
  278MOL0     H37513   1.323   8.278   4.170 -1.5633  0.6305 -1.4683
  278MOL0     H37514   1.767   8.174   4.091 -1.2712 -0.2638  0.1241
  278MOL0     H37515   1.919   7.980   4.117 -0.4830  1.4642  0.8375
  278MOL0     H37516   2.693   6.739   4.044  1.4380  1.7394  0.4973
  278MOL0     H37517   2.939   6.766   4.017  0.4643 -0.5623 -1.7545
  278MOL0     H37518   3.335   6.653   4.190  0.4283  0.3095  0.8504
  278MOL0     H37519   3.560   6.744   4.218 -0.3478  0.8701 -0.1609
  278MOL0     H37520   3.903   6.862   4.078 -0.8095 -0.4073  0.2569
  278MOL0     H37521   3.771   6.821   4.204 -1.3259 -0.4131  0.4916
  278MOL0     H37522   3.750   6.613   4.113 -1.3948  1.0365 -2.7072
  278MOL0     H37523   3.929   6.626   4.115 -0.0758 -2.4607 -1.3208
  278MOL0     H37524   3.911   6.688   3.856  0.4892 -1.3653 -0.5071
  278MOL0     H37525   3.741   6.635   3.870  0.7936 -0.5169 -2.9290
  278MOL0     H37526   3.937   6.433   3.991  0.3920 -1.6450 -1.7252
  278MOL0     H37527   3.982   6.486   3.833 -1.2164 -1.9335 -1.8502
  278MOL0     H37528   3.628   6.232   3.799 -2.1406 -0.8153  4.0586
  278MOL0     H37529   3.588   6.810   3.801  1.4049 -1.1448  0.6108
  278MOL0     H37530   3.372   6.720   3.767  0.2917  1.2890  0.1181
  279MOL0     O37531   8.393   7.612  11.293  0.3468  0.5122  0.3983
  279MOL0     C37532   8.432   7.695  11.208  0.6375  0.3624 -0.5121
  279MOL0     O37533   8.357   7.766  11.124  0.2360  0.1044 -0.0486
  279MOL0     C37534   8.223   7.741  11.094 -0.1106 -0.3243 -0.2946
  279MOL0     C37535   8.161   7.617  11.074  0.3414  0.5791 -0.2745
  279MOL0     C37536   8.025   7.603  11.040  0.4122  0.4040 -0.4878
  279MOL0     C37537   7.942   7.719  11.015 -0.1625  0.3953  0.2294
  279MOL0     O37538   7.814   7.710  10.967  0.7104 -0.0705  0.1493
  279MOL0     C37539   7.734   7.633  11.056  1.5643 -0.9125  0.0155
  279MOL0     C37540   7.586   7.674  11.055  0.7169  0.1889 -0.1388
  279MOL0     C37541   7.507   7.586  10.959 -0.8479  0.5560  0.0864
  279MOL0     C37542   7.386   7.660  10.891 -0.3973  0.7390 -0.0771
  279MOL0     C37543   7.295   7.571  10.808  0.4325 -0.1736 -0.4412
  279MOL0     C37544   7.197   7.654  10.730  0.0625 -0.0167 -0.9358
  279MOL0     C37545   7.119   7.562  10.630 -1.2881 -0.4811  0.3115
  279MOL0     C37546   7.028   7.651  10.553  0.5094  0.0451 -0.1168
  279MOL0     N37547   6.962   7.572  10.443  0.4434 -0.2085  0.1068
  279MOL0     C37548   6.982   7.581  10.310 -0.4108  0.0321 -0.5994
  279MOL0     C37549   6.873   7.525  10.254  0.0188 -0.1456 -0.9292
  279MOL0     C37550   6.851   7.517  10.101  0.2630 -0.3804 -0.7909
  279MOL0     C37551   6.707   7.536  10.059  0.5472 -0.0568  0.7213
  279MOL0     C37552   6.661   7.673  10.053  0.6302 -0.3444 -0.4542
  279MOL0     C37553   6.526   7.698   9.982 -0.2626 -0.4277 -1.0606
  279MOL0     O37554   6.422   7.611  10.043 -1.0969 -0.2482  0.4369
  279MOL0     C37555   6.298   7.599   9.985  0.5238 -0.3223  0.6977
  279MOL0     C37556   6.219   7.500  10.030  0.5476 -0.0824 -0.2100
  279MOL0     C37557   6.097   7.465   9.981 -0.3274  0.2673  0.4681
  279MOL0     C37558   6.045   7.333  10.026  0.1895  0.9025 -0.0712
  279MOL0     C37559   6.037   7.551   9.893  0.3674 -0.2496 -0.6176
  279MOL0     C37560   5.902   7.530   9.830  0.8934  0.5323  0.8568
  279MOL0     O37561   5.895   7.601   9.715  0.0944 -0.1926 -0.1442
  279MOL0     C37562   5.786   7.578   9.638 -0.5418 -0.8754  0.0607
  279MOL0     C37563   5.784   7.484   9.537  0.4136  0.2218 -0.3509
  279MOL0     C37564   5.680   7.490   9.444 -0.6061  0.1290  0.5262
  279MOL0     C37565   5.577   7.585   9.455  0.0005  0.4375 -0.5622
  279MOL0     O37566   5.494   7.602   9.349 -0.6268  0.3971 -0.3492
  279MOL0     C37567   5.527   7.553   9.212  0.1197 -0.0916 -0.3472
  279MOL0     C37568   5.441   7.630   9.110  0.7583 -0.4087  0.2784
  279MOL0     C37569   5.393   7.537   8.988  0.2775 -0.1669  0.5098
  279MOL0     C37570   5.273   7.601   8.912 -0.2737  0.5947 -0.1436
  279MOL0     C37571   5.261   7.564   8.767  0.3245 -0.6552 -0.2098
  279MOL0     C37572   5.142   7.640   8.707  0.4027 -0.6015  0.4058
  279MOL0     C37573   5.086   7.599   8.573 -0.3742  0.2370  0.1684
  279MOL0     C37574   5.097   7.456   8.540  0.3372  0.1822 -0.5975
  279MOL0    Cl37575   4.966   7.379   8.630  0.2061 -0.1076 -0.2608
  279MOL0     C37576   5.590   7.684   9.544  0.0079 -0.0693 -0.6600
  279MOL0     C37577   5.693   7.682   9.640  0.0146  0.8436  1.4423
  279MOL0     O37578   5.807   7.463   9.875  0.1696 -0.4936  0.4860
  279MOL0     C37579   6.107   7.664   9.845 -0.6905  0.2065 -0.0567
  279MOL0     C37580   6.242   7.680   9.883  0.4663 -0.6241 -0.7238
  279MOL0     N37581   6.781   7.496  10.358 -0.0328  0.3399 -0.8394
  279MOL0     N37582   6.831   7.529  10.470  0.0845 -0.5248 -0.0871
  279MOL0     C37583   8.004   7.842  11.022 -0.7370 -0.6754  0.6705
  279MOL0     C37584   8.139   7.856  11.069 -0.1609  0.4133  0.9333
  279MOL0     C37585   8.575   7.721  11.195 -0.0121  0.0053 -0.8774
  279MOL0     C37586   8.620   7.805  11.091 -0.4138 -0.2708 -0.0216
  279MOL0     C37587   8.753   7.825  11.065  0.3396  0.8951  0.4945
  279MOL0     C37588   8.857   7.760  11.145  0.3167 -0.5365  0.2115
  279MOL0     O37589   8.992   7.765  11.126 -0.2634  0.6284  0.9133
  279MOL0     C37590   9.053   7.825  11.004  0.7282  0.5167 -0.2859
  279MOL0     C37591   9.031   7.745  10.872  0.7417 -0.0166 -0.5999
  279MOL0     C37592   9.066   7.598  10.892  0.4772 -0.0256 -1.0330
  279MOL0     C37593   9.069   7.533  10.753 -0.2922  0.9520 -0.1154
  279MOL0     C37594   8.938   7.502  10.700 -0.1496 -0.7379 -1.2204
  279MOL0     C37595   8.835   7.505  10.640  0.4398  0.1115  0.0242
  279MOL0     C37596   8.811   7.679  11.248 -0.1843 -0.7417 -0.5062
  279MOL0     C37597   8.676   7.659  11.278  0.3630 -1.0903  0.2110
  279MOL0     H37598   8.227   7.531  11.085 -0.7323 -0.3129 -0.5751
  279MOL0     H37599   7.989   7.502  11.058  5.3362 -1.7207 -1.0090
  279MOL0     H37600   7.744   7.526  11.032 -0.8132 -0.8174 -1.7521
  279MOL0     H37601   7.761   7.637  11.162 -3.0749 -1.8721  1.4587
  279MOL0     H37602   7.548   7.646  11.154 -1.3024  1.7772 -0.4116
  279MOL0     H37603   7.563   7.780  11.043 -2.4439  0.1847  3.7513
  279MOL0     H37604   7.572   7.537  10.887  1.2473 -1.8913  3.3463
  279MOL0     H37605   7.467   7.503  11.017 -3.1726  2.7053  1.7580
  279MOL0     H37606   7.333   7.714  10.970  1.7914  0.3606  1.7767
  279MOL0     H37607   7.425   7.742  10.829 -3.2098  2.2259 -0.0495
  279MOL0     H37608   7.359   7.505  10.749  1.3336 -0.2288  0.5764
  279MOL0     H37609   7.238   7.510  10.880  1.8057 -0.6473  0.2806
  279MOL0     H37610   7.135   7.721  10.790  1.9564  3.6377 -2.7300
  279MOL0     H37611   7.259   7.723  10.672  1.6171 -0.0965  0.5161
  279MOL0     H37612   7.188   7.513  10.560 -0.3431  1.2589 -0.0178
  279MOL0     H37613   7.066   7.497  10.701 -1.6389  0.6481  1.1034
  279MOL0     H37614   7.082   7.725  10.493  1.2741 -1.4243 -1.2883
  279MOL0     H37615   6.956   7.698  10.621  0.3828  2.0436 -1.5466
  279MOL0     H37616   7.073   7.608  10.257 -1.1728  0.0272 -1.9591
  279MOL0     H37617   6.917   7.590  10.052  0.5083  1.4049  1.9522
  279MOL0     H37618   6.888   7.418  10.074  3.3505  0.6373 -0.7463
  279MOL0     H37619   6.646   7.474  10.126 -0.6603 -1.5412 -1.6265
  279MOL0     H37620   6.695   7.491   9.960 -1.4438  3.6088 -0.8940
  279MOL0     H37621   6.737   7.740  10.011 -3.0739  2.8055 -2.7997
  279MOL0     H37622   6.640   7.714  10.153 -2.0951  1.9134 -1.8118
  279MOL0     H37623   6.540   7.675   9.877  2.7092 -2.3807 -0.3532
  279MOL0     H37624   6.488   7.799   9.997 -0.0308 -0.2453 -1.6770
  279MOL0     H37625   6.257   7.431  10.105 -0.2319 -0.1736  0.1155
  279MOL0     H37626   6.123   7.265  10.062  1.8117  3.0439  0.6680
  279MOL0     H37627   5.973   7.335  10.108  2.9545 -1.3330  2.6728
  279MOL0     H37628   5.995   7.282   9.942  0.4369 -0.0702  0.3566
  279MOL0     H37629   5.851   7.399   9.531  1.3022  1.0206 -2.4066
  279MOL0     H37630   5.694   7.417   9.366  2.7613  0.4151  0.7304
  279MOL0     H37631   5.635   7.558   9.194  0.5277 -0.3131  1.8379
  279MOL0     H37632   5.491   7.450   9.212  1.3728 -0.7229  3.7738
  279MOL0     H37633   5.354   7.673   9.161  0.0054  0.3676 -1.5820
  279MOL0     H37634   5.491   7.712   9.058 -1.2378 -0.5382 -1.9909
  279MOL0     H37635   5.356   7.443   9.031  1.4111  0.3776  2.8821
  279MOL0     H37636   5.476   7.508   8.923  0.3063 -1.2558  0.9916
  279MOL0     H37637   5.180   7.572   8.962  1.5681 -2.9219  1.6395
  279MOL0     H37638   5.284   7.709   8.926  0.2888  0.6345 -0.8414
  279MOL0     H37639   5.239   7.457   8.766 -2.0174 -0.3027  1.9720
  279MOL0     H37640   5.350   7.581   8.706 -0.4750 -3.0871 -2.2069
  279MOL0     H37641   5.059   7.617   8.776 -3.4327 -1.3410 -3.9620
  279MOL0     H37642   5.151   7.749   8.709  0.4375 -0.5993  2.7247
  279MOL0     H37643   5.150   7.653   8.502 -1.3921  2.1316  0.6197
  279MOL0     H37644   4.989   7.645   8.552  0.3986  1.2339 -1.4601
  279MOL0     H37645   5.192   7.409   8.566 -1.8331 -3.1034  2.4887
  279MOL0     H37646   5.080   7.431   8.434 -2.0523 -0.2119 -0.1775
  279MOL0     H37647   5.516   7.763   9.533  1.2131  1.1515 -0.3415
  279MOL0     H37648   5.695   7.760   9.715 -2.3535  0.2323  2.2315
  279MOL0     H37649   6.069   7.738   9.776  0.7696 -0.6709 -1.8875
  279MOL0     H37650   6.291   7.764   9.837  2.2502  1.2150  3.9370
  279MOL0     H37651   7.941   7.924  10.990 -1.3106 -1.6048 -0.6635
  279MOL0     H37652   8.189   7.952  11.076 -0.1399  0.3371  2.0241
  279MOL0     H37653   8.556   7.856  11.020  1.4500 -0.1355 -1.7029
  279MOL0     H37654   8.774   7.899  10.988 -0.3099  0.9185  0.3306
  279MOL0     H37655   9.020   7.928  10.989  1.0174  0.3566 -2.2520
  279MOL0     H37656   9.162   7.831  11.012  1.0548 -2.6875 -0.9534
  279MOL0     H37657   9.099   7.789  10.799  1.1833  1.1170  0.4615
  279MOL0     H37658   8.928   7.756  10.837  0.3768  0.9162  0.7167
  279MOL0     H37659   9.001   7.550  10.964  2.4287  4.2552  4.2466
  279MOL0     H37660   9.164   7.591  10.940  0.3387 -0.8478 -0.8736
  279MOL0     H37661   9.139   7.449  10.754 -1.1305  0.2461  0.2547
  279MOL0     H37662   9.107   7.605  10.680 -0.7853  0.7386 -0.5913
  279MOL0     H37663   8.741   7.507  10.588  0.1662 -0.7276  0.4710
  279MOL0     H37664   8.885   7.617  11.298 -0.3575  0.0973  0.8409
  279MOL0     H37665   8.657   7.594  11.363  1.2848 -0.5806  0.8106
  280MOL0     O37666   4.814   8.354   5.947 -0.2033  0.0743  0.2594
  280MOL0     C37667   4.860   8.270   6.020 -0.7764  0.1806  0.0678
  280MOL0     O37668   4.791   8.215   6.125 -0.7857 -0.4189  0.1215
  280MOL0     C37669   4.665   8.264   6.148  0.5864 -0.5177 -0.8713
  280MOL0     C37670   4.625   8.331   6.265 -0.0750  0.4661  0.1842
  280MOL0     C37671   4.495   8.382   6.279  0.4864  0.4677  0.1534
  280MOL0     C37672   4.387   8.354   6.185 -0.8253 -0.5037 -0.2178
  280MOL0     O37673   4.262   8.371   6.228  0.7016  0.8691  0.3213
  280MOL0     C37674   4.160   8.387   6.130  0.5330 -0.9907  0.7869
  280MOL0     C37675   4.077   8.252   6.127 -0.3184  0.9103  0.1371
  280MOL0     C37676   3.949   8.282   6.044 -0.0305 -0.7785 -0.7572
  280MOL0     C37677   3.859   8.155   6.041  0.3118  0.2051 -0.3781
  280MOL0     C37678   3.720   8.188   5.984 -0.5736  0.1758  0.5763
  280MOL0     C37679   3.619   8.250   6.085 -0.2909  0.2302 -0.2469
  280MOL0     C37680   3.588   8.166   6.215  0.2446 -0.1869  0.2962
  280MOL0     C37681   3.482   8.055   6.182  1.0053 -0.4652  0.3014
  280MOL0     N37682   3.493   7.927   6.249  1.0773 -0.7407 -0.8351
  280MOL0     C37683   3.593   7.838   6.245  0.3941  0.1083  0.0551
  280MOL0     C37684   3.572   7.755   6.342 -0.4008  0.0484  0.8354
  280MOL0     C37685   3.666   7.631   6.375  0.8525  0.1247 -0.2406
  280MOL0     C37686   3.648   7.520   6.278  0.4025  0.6333 -0.2861
  280MOL0     C37687   3.511   7.461   6.280 -0.6567 -1.2942  1.0313
  280MOL0     C37688   3.469   7.399   6.409  0.3302  0.5681 -0.1101
  280MOL0     O37689   3.367   7.300   6.391  0.8459  0.0873 -0.4823
  280MOL0     C37690   3.317   7.239   6.503  0.1180 -0.0600 -0.1040
  280MOL0     C37691   3.178   7.246   6.524 -1.1800  1.2438 -0.2681
  280MOL0     C37692   3.115   7.193   6.641 -0.1562  0.2841  1.1799
  280MOL0     C37693   2.967   7.217   6.651  0.1493  0.0177 -0.4866
  280MOL0     C37694   3.194   7.113   6.729 -0.3779 -0.1621  0.9166
  280MOL0     C37695   3.147   7.055   6.854 -0.3408  0.7401  0.1691
  280MOL0     O37696   3.232   6.965   6.920 -0.1553  0.3325  0.0970
  280MOL0     C37697   3.204   6.920   7.048  0.9036 -0.2775 -0.1567
  280MOL0     C37698   3.213   7.008   7.162 -1.0714  0.7274  0.5992
  280MOL0     C37699   3.169   6.978   7.285 -0.3393 -0.9990  0.1966
  280MOL0     C37700   3.112   6.852   7.305 -0.3654  0.3153 -1.3922
  280MOL0     O37701   3.053   6.825   7.429 -0.8048  0.1869 -0.2245
  280MOL0     C37702   2.917   6.765   7.428 -0.4361 -0.1941  0.3528
  280MOL0     C37703   2.839   6.822   7.547 -0.6208  0.0703  0.1314
  280MOL0     C37704   2.698   6.770   7.555  0.1488  1.0379 -0.5389
  280MOL0     C37705   2.602   6.876   7.635  0.0578  0.2487 -0.2778
  280MOL0     C37706   2.460   6.837   7.632  0.0454  0.5028  1.1281
  280MOL0     C37707   2.407   6.720   7.716 -0.0811  0.1745 -0.4009
  280MOL0     C37708   2.251   6.710   7.707 -0.2517  0.1830  0.7102
  280MOL0     C37709   2.190   6.675   7.575  0.8279  0.4277  0.4613
  280MOL0    Cl37710   2.248   6.525   7.496  0.2069  0.2480 -0.8042
  280MOL0     C37711   3.094   6.763   7.193 -0.2656  1.0704 -0.4219
  280MOL0     C37712   3.133   6.805   7.066 -0.1449  0.4954  0.3692
  280MOL0     O37713   3.038   7.090   6.899  0.2190 -0.2997 -0.1175
  280MOL0     C37714   3.333   7.106   6.702 -0.4494 -0.6979 -0.2916
  280MOL0     C37715   3.396   7.165   6.596  0.0491 -0.7356  0.0317
  280MOL0     N37716   3.460   7.794   6.410  0.0662  0.3912  0.9689
  280MOL0     N37717   3.412   7.893   6.353  0.4899 -0.0247  0.2550
  280MOL0     C37718   4.436   8.286   6.066  0.4189 -0.3257 -0.2511
  280MOL0     C37719   4.562   8.237   6.053 -1.0112 -0.6429 -0.0871
  280MOL0     C37720   5.001   8.236   6.014  0.0159 -0.4206 -0.6207
  280MOL0     C37721   5.078   8.237   5.893  0.8579 -0.1438 -0.0307
  280MOL0     C37722   5.210   8.182   5.888  0.4676 -0.1484 -0.8676
  280MOL0     C37723   5.267   8.135   6.010 -0.6745  1.1825  0.2135
  280MOL0     O37724   5.388   8.065   6.002 -0.2871  0.3215  0.0501
  280MOL0     C37725   5.470   8.064   6.117 -0.1854  0.3411 -0.6648
  280MOL0     C37726   5.623   8.043   6.099 -0.1121 -0.0949  0.0655
  280MOL0     C37727   5.681   8.147   6.010  0.5859  0.1318  0.7500
  280MOL0     C37728   5.830   8.122   5.984  0.4948  0.0049  0.1337
  280MOL0     C37729   5.891   8.249   5.939  0.7666 -0.8873 -0.0063
  280MOL0     C37730   5.912   8.367   5.921 -0.2747  0.5043 -0.5826
  280MOL0     C37731   5.192   8.140   6.128 -0.0745 -0.1776 -0.2164
  280MOL0     C37732   5.068   8.197   6.130  0.1746 -0.2775 -0.5702
  280MOL0     H37733   4.696   8.342   6.346 -0.0638  0.9404  0.1137
  280MOL0     H37734   4.454   8.426   6.369 -1.4417 -1.9967  0.5854
  280MOL0     H37735   4.095   8.472   6.152  1.6353  0.0620  0.0628
  280MOL0     H37736   4.211   8.398   6.034  2.4040 -0.5904  1.7980
  280MOL0     H37737   4.146   8.173   6.096 -1.1849 -0.7145  2.1637
  280MOL0     H37738   4.051   8.229   6.230  0.1419  0.1104  0.0809
  280MOL0     H37739   3.892   8.362   6.091 -0.7737 -0.1956 -2.5729
  280MOL0     H37740   3.977   8.333   5.951  0.5019  1.3435  0.5253
  280MOL0     H37741   3.902   8.076   5.978  0.3483 -3.0729  3.3684
  280MOL0     H37742   3.839   8.098   6.132  0.4120 -1.0330 -1.0977
  280MOL0     H37743   3.729   8.260   5.901  4.0409  1.0660  1.5500
  280MOL0     H37744   3.664   8.102   5.945 -3.4629  2.8186 -1.6319
  280MOL0     H37745   3.666   8.343   6.119 -0.3840 -0.6005  2.3633
  280MOL0     H37746   3.523   8.271   6.037 -1.3714 -0.8709  1.3291
  280MOL0     H37747   3.676   8.117   6.259 -0.5634 -0.8041  1.2585
  280MOL0     H37748   3.554   8.230   6.296  1.4807 -0.5361  1.1172
  280MOL0     H37749   3.491   8.037   6.074  2.4141  1.4208  0.0539
  280MOL0     H37750   3.379   8.091   6.194  1.8120  2.8294 -1.3278
  280MOL0     H37751   3.673   7.841   6.171  0.0849  1.8948 -0.2557
  280MOL0     H37752   3.775   7.643   6.373  1.1113 -1.9498 -2.0178
  280MOL0     H37753   3.640   7.605   6.478  1.3263 -0.7754 -0.3381
  280MOL0     H37754   3.711   7.436   6.308 -0.3885  0.5404  1.1936
  280MOL0     H37755   3.678   7.555   6.179 -0.2409  2.1907  0.0300
  280MOL0     H37756   3.512   7.377   6.210  0.8841  0.3847 -1.0968
  280MOL0     H37757   3.431   7.530   6.250  0.0514 -0.1811  1.6400
  280MOL0     H37758   3.430   7.488   6.458 -2.0737 -0.3638 -0.1784
  280MOL0     H37759   3.552   7.352   6.463  1.2638 -3.2790 -4.2344
  280MOL0     H37760   3.113   7.304   6.460 -0.4670  1.6981 -0.6004
  280MOL0     H37761   2.926   7.265   6.562 -3.3228 -1.1656  0.3167
  280MOL0     H37762   2.908   7.125   6.655 -1.5065  0.9926 -1.2447
  280MOL0     H37763   2.937   7.278   6.736  2.2386 -1.5723  1.5267
  280MOL0     H37764   3.264   7.104   7.159  1.4948 -0.2701  4.4272
  280MOL0     H37765   3.183   7.047   7.368 -0.5486 -0.7087 -0.0054
  280MOL0     H37766   2.860   6.777   7.335 -1.4997  1.0623  1.1286
  280MOL0     H37767   2.925   6.657   7.445  0.3621 -0.8705 -3.3846
  280MOL0     H37768   2.903   6.795   7.631 -0.2598 -1.3571 -0.5592
  280MOL0     H37769   2.848   6.929   7.527 -0.4043 -0.3942 -2.6875
  280MOL0     H37770   2.697   6.670   7.599 -1.6906  0.6730 -1.3056
  280MOL0     H37771   2.668   6.751   7.452  1.0348  0.6006 -0.7209
  280MOL0     H37772   2.644   6.895   7.734  0.3330 -0.3530 -0.2773
  280MOL0     H37773   2.604   6.970   7.580  1.8165 -0.7649 -2.0719
  280MOL0     H37774   2.429   6.827   7.528  1.2383  0.1886  0.7869
  280MOL0     H37775   2.401   6.919   7.672 -2.6396 -0.4296 -0.6679
  280MOL0     H37776   2.458   6.629   7.683  1.4836  1.0374 -0.4285
  280MOL0     H37777   2.437   6.731   7.821 -2.3295  2.5620  0.1125
  280MOL0     H37778   2.205   6.801   7.745 -2.4748 -0.9089  0.8138
  280MOL0     H37779   2.218   6.630   7.774  0.3948 -0.9136 -0.2423
  280MOL0     H37780   2.217   6.749   7.498  2.4142  1.1265  1.6200
  280MOL0     H37781   2.081   6.677   7.583  0.5257 -0.0060 -2.4494
  280MOL0     H37782   3.053   6.664   7.212 -0.3662  0.8187 -1.8247
  280MOL0     H37783   3.122   6.743   6.977  0.7553  0.0327  0.5733
  280MOL0     H37784   3.396   7.043   6.764  0.8097  0.9893  0.2085
  280MOL0     H37785   3.503   7.154   6.583 -0.4799 -3.0165 -3.8580
  280MOL0     H37786   4.366   8.258   5.988 -3.1858  0.5468  2.4086
  280MOL0     H37787   4.584   8.176   5.966  0.2134  3.0547 -2.6094
  280MOL0     H37788   5.029   8.270   5.801 -0.7176  5.3636  2.3791
  280MOL0     H37789   5.261   8.175   5.793  1.0660 -0.1074 -0.5587
  280MOL0     H37790   5.465   8.156   6.177 -1.7241  1.1248 -1.9410
  280MOL0     H37791   5.440   7.977   6.176 -1.0744  0.6099 -0.7095
  280MOL0     H37792   5.650   7.953   6.043 -0.0530  0.8297 -1.4466
  280MOL0     H37793   5.687   8.032   6.187 -1.2887  0.0463  0.9681
  280MOL0     H37794   5.671   8.249   6.048  1.3920  0.4479  0.1404
  280MOL0     H37795   5.634   8.152   5.911 -1.1929 -0.4528  1.5147
  280MOL0     H37796   5.853   8.036   5.919  0.4951  0.5070 -0.5387
  280MOL0     H37797   5.882   8.096   6.077 -1.5730  0.7729  1.5589
  280MOL0     H37798   5.929   8.472   5.912  1.8993  0.1431 -1.3728
  280MOL0     H37799   5.238   8.106   6.220  0.8700 -0.5921 -0.8199
  280MOL0     H37800   5.018   8.202   6.226  2.5494  3.1594  0.6706
  281MOL0     O37801   0.745   9.182   7.467  0.4864 -0.3077  0.8990
  281MOL0     C37802   0.767   9.110   7.368  0.2378 -0.1725  0.3907
  281MOL0     O37803   0.672   9.055   7.281 -0.3579  0.0002 -0.1600
  281MOL0     C37804   0.549   9.112   7.269 -0.4775  0.3350  1.0789
  281MOL0     C37805   0.515   9.252   7.257 -0.0575  0.2141  0.1286
  281MOL0     C37806   0.382   9.287   7.236 -0.4779 -0.2798 -0.3986
  281MOL0     C37807   0.271   9.198   7.254 -0.5401  0.9664  0.7123
  281MOL0     O37808   0.138   9.229   7.227 -0.3077  0.2072 -0.2645
  281MOL0     C37809   0.081   9.322   7.320 -0.0955  0.7053 -0.4855
  281MOL0     C37810  -0.063   9.334   7.287  0.1626  0.4702 -0.0237
  281MOL0     C37811  -0.151   9.423   7.376 -0.3750 -0.1084 -0.2098
  281MOL0     C37812  -0.292   9.447   7.322 -0.5512  0.2461  0.9966
  281MOL0     C37813  -0.377   9.548   7.399  0.2301  0.6877 -0.2831
  281MOL0     C37814  -0.529   9.525   7.375  0.0562 -0.0760  0.1634
  281MOL0     C37815  -0.621   9.632   7.436 -0.0649  0.1041 -0.3558
  281MOL0     C37816  -0.764   9.588   7.432  0.2200 -0.3700  0.4431
  281MOL0     N37817  -0.823   9.597   7.302  0.5838 -0.4942  0.1158
  281MOL0     C37818  -0.886   9.710   7.243  0.4282  0.1822 -0.5800
  281MOL0     C37819  -0.903   9.676   7.113  0.4719 -0.0746 -1.0160
  281MOL0     C37820  -0.955   9.769   7.001 -0.5762 -0.1511  0.1670
  281MOL0     C37821  -1.048   9.711   6.898 -0.0274 -0.0901  0.2610
  281MOL0     C37822  -1.115   9.811   6.797 -0.2465 -0.7166 -0.8881
  281MOL0     C37823  -1.235   9.759   6.729 -0.3433  0.5321 -0.1033
  281MOL0     O37824  -1.291   9.851   6.634 -0.0823 -0.2268  0.6755
  281MOL0     C37825  -1.386   9.941   6.674 -0.0768  0.2158 -0.8550
  281MOL0     C37826  -1.498   9.917   6.758  0.6832 -0.1569  0.6678
  281MOL0     C37827  -1.607  10.013   6.769  0.5945 -0.1175 -0.0229
  281MOL0     C37828  -1.737   9.964   6.845 -0.3485  0.0552 -0.0660
  281MOL0     C37829  -1.604  10.126   6.696  0.0015 -0.3912 -0.0096
  281MOL0     C37830  -1.715  10.236   6.696 -1.0961 -0.7579 -0.2727
  281MOL0     O37831  -1.691  10.339   6.612  0.2227 -0.4698 -0.9258
  281MOL0     C37832  -1.795  10.442   6.611  0.0725  1.0608  0.7310
  281MOL0     C37833  -1.815  10.502   6.485  0.0977  0.2876  0.3936
  281MOL0     C37834  -1.915  10.600   6.477 -0.1549 -0.2097  0.0852
  281MOL0     C37835  -1.976  10.658   6.583 -0.1403  0.1806 -0.8088
  281MOL0     O37836  -2.065  10.759   6.548  0.4452 -0.1361 -0.2306
  281MOL0     C37837  -2.079  10.871   6.637 -0.0596 -0.2957 -0.1470
  281MOL0     C37838  -2.167  10.980   6.576 -0.4127 -0.2743 -0.4736
  281MOL0     C37839  -2.200  11.095   6.669 -0.0584  0.1693 -0.2919
  281MOL0     C37840  -2.265  11.204   6.592 -0.5193 -1.1359  0.0092
  281MOL0     C37841  -2.314  11.317   6.678  0.5678 -0.5998  0.1726
  281MOL0     C37842  -2.400  11.418   6.593  0.0670 -0.9339  0.2047
  281MOL0     C37843  -2.459  11.537   6.676  0.5701 -0.3706 -0.6300
  281MOL0     C37844  -2.532  11.624   6.575 -0.1662  0.3352 -1.5429
  281MOL0    Cl37845  -2.618  11.746   6.676 -0.0310 -0.1870 -0.1537
  281MOL0     C37846  -1.942  10.621   6.716 -0.1187  0.3141  0.3810
  281MOL0     C37847  -1.857  10.505   6.729  1.1230  0.2470  0.6719
  281MOL0     O37848  -1.822  10.213   6.753  0.6315  0.5635 -0.5410
  281MOL0     C37849  -1.495  10.147   6.611 -0.3170 -0.0170  0.2564
  281MOL0     C37850  -1.388  10.059   6.606 -0.6639 -0.6621 -1.0141
  281MOL0     N37851  -0.875   9.544   7.106 -0.0557  0.3263  0.4900
  281MOL0     N37852  -0.830   9.501   7.216 -0.1495  0.8731  0.1680
  281MOL0     C37853   0.311   9.065   7.272 -0.2056 -0.0198 -0.3858
  281MOL0     C37854   0.440   9.027   7.282 -0.2771  0.3253 -0.1251
  281MOL0     C37855   0.913   9.083   7.342 -0.2665 -0.1110  0.0341
  281MOL0     C37856   1.008   9.161   7.403  0.8795 -0.1744 -0.2582
  281MOL0     C37857   1.141   9.124   7.393 -0.1458  0.8216  0.8199
  281MOL0     C37858   1.184   9.026   7.300  0.1920  0.6002 -0.0270
  281MOL0     O37859   1.315   8.986   7.272 -0.2776  0.4913 -0.2281
  281MOL0     C37860   1.420   8.999   7.367 -0.2017  0.1079 -0.2646
  281MOL0     C37861   1.533   8.906   7.336  0.2503  0.9637 -0.5370
  281MOL0     C37862   1.658   8.943   7.411 -0.3274  0.4324  0.9140
  281MOL0     C37863   1.781   8.850   7.407  0.2240  0.8621  0.6206
  281MOL0     C37864   1.754   8.699   7.406 -0.8876  1.1015  0.1630
  281MOL0     C37865   1.743   8.572   7.402 -0.1220 -0.1984 -0.1423
  281MOL0     C37866   1.083   8.950   7.235 -0.7301 -0.8452  0.4370
  281MOL0     C37867   0.952   8.985   7.249  0.1152 -0.1407  0.5755
  281MOL0     H37868   0.598   9.321   7.245 -0.4307  0.4427 -1.3625
  281MOL0     H37869   0.375   9.390   7.203 -2.4276 -0.8784 -2.1099
  281MOL0     H37870   0.095   9.272   7.417  0.1057  0.8575 -0.4356
  281MOL0     H37871   0.135   9.417   7.318 -0.1894  0.7476 -1.3662
  281MOL0     H37872  -0.052   9.388   7.192  3.1639 -2.9810 -1.8776
  281MOL0     H37873  -0.110   9.237   7.272  1.6910 -1.0499  3.9384
  281MOL0     H37874  -0.155   9.389   7.480  0.1476  3.8240  1.2763
  281MOL0     H37875  -0.094   9.516   7.386  4.2183 -2.4255 -1.6967
  281MOL0     H37876  -0.283   9.486   7.220  1.2280  0.9592  1.3777
  281MOL0     H37877  -0.332   9.346   7.314 -0.6853  0.4138 -1.0470
  281MOL0     H37878  -0.353   9.540   7.506 -3.1579  0.2357  0.5798
  281MOL0     H37879  -0.342   9.647   7.368 -1.2005  0.9876 -1.0247
  281MOL0     H37880  -0.551   9.527   7.268 -0.4910 -1.3952  0.2221
  281MOL0     H37881  -0.553   9.427   7.417 -1.0231  0.4445  0.7898
  281MOL0     H37882  -0.595   9.653   7.540  1.0137 -2.1318 -0.1197
  281MOL0     H37883  -0.603   9.732   7.395  4.3278 -0.0837  0.6781
  281MOL0     H37884  -0.823   9.650   7.501 -3.3362 -2.9300 -0.0153
  281MOL0     H37885  -0.766   9.484   7.465  1.6846 -0.6952 -0.3991
  281MOL0     H37886  -0.905   9.803   7.296 -1.4500 -0.3723 -0.2008
  281MOL0     H37887  -1.009   9.852   7.048  0.3042  0.0806  0.7934
  281MOL0     H37888  -0.877   9.816   6.942  0.4224 -0.8772  0.8660
  281MOL0     H37889  -1.131   9.663   6.952 -1.3457  0.6794 -1.0218
  281MOL0     H37890  -0.997   9.632   6.842 -0.1245 -0.6722  0.9645
  281MOL0     H37891  -1.041   9.837   6.721 -0.3581  1.5472 -0.2907
  281MOL0     H37892  -1.148   9.900   6.852  1.8736 -1.4851  1.8501
  281MOL0     H37893  -1.304   9.723   6.806 -1.4979 -0.4348 -1.5223
  281MOL0     H37894  -1.206   9.666   6.679  1.4530  1.0770 -0.1465
  281MOL0     H37895  -1.504   9.828   6.818  1.9335  0.0020  1.0635
  281MOL0     H37896  -1.710   9.870   6.895 -0.2049 -0.3774 -0.9401
  281MOL0     H37897  -1.761  10.034   6.925 -1.5829 -0.5295  0.0957
  281MOL0     H37898  -1.825   9.948   6.783 -0.0832  0.9935 -0.6888
  281MOL0     H37899  -1.778  10.461   6.391 -0.6733  0.9208 -0.2036
  281MOL0     H37900  -1.947  10.620   6.375  0.2606  1.1429  0.1926
  281MOL0     H37901  -2.130  10.854   6.732 -0.8777  2.7198  0.0772
  281MOL0     H37902  -1.982  10.920   6.650  0.1184 -0.5621 -0.4541
  281MOL0     H37903  -2.117  11.011   6.484 -0.1266  0.5181 -0.0671
  281MOL0     H37904  -2.257  10.940   6.529 -1.5602  1.1115  0.4559
  281MOL0     H37905  -2.115  11.130   6.729  0.3099 -0.1107 -0.6496
  281MOL0     H37906  -2.280  11.056   6.732  0.7844 -0.5758  0.3609
  281MOL0     H37907  -2.203  11.237   6.508 -1.4111 -1.1768 -0.6815
  281MOL0     H37908  -2.358  11.158   6.556  0.1177 -0.8493 -2.1550
  281MOL0     H37909  -2.236  11.377   6.725 -1.5501  1.4999  1.2089
  281MOL0     H37910  -2.377  11.284   6.761  1.2506  0.3102  1.0801
  281MOL0     H37911  -2.334  11.448   6.511  0.6725 -3.8929 -0.5199
  281MOL0     H37912  -2.490  11.376   6.547 -0.8782  1.0782  0.1044
  281MOL0     H37913  -2.379  11.588   6.729 -1.1200  4.2360 -2.0357
  281MOL0     H37914  -2.525  11.497   6.754 -0.5342  0.2626 -1.2000
  281MOL0     H37915  -2.609  11.572   6.517 -1.1997  0.4037 -0.2902
  281MOL0     H37916  -2.455  11.670   6.512  0.6493  1.1907  0.0318
  281MOL0     H37917  -1.991  10.673   6.798  2.0411  0.9874  1.3277
  281MOL0     H37918  -1.838  10.473   6.831 -2.5735 -1.2799  1.0320
  281MOL0     H37919  -1.483  10.243   6.562  2.4077 -1.0778 -1.4248
  281MOL0     H37920  -1.314  10.086   6.531 -1.8447  1.1580 -1.5917
  281MOL0     H37921   0.235   8.990   7.295  1.0653 -0.7785  1.6698
  281MOL0     H37922   0.454   8.923   7.309  0.0902  0.7179  1.2333
  281MOL0     H37923   0.989   9.251   7.461  0.8072  0.7379 -1.6595
  281MOL0     H37924   1.208   9.180   7.458 -0.9470  0.3190  2.1158
  281MOL0     H37925   1.463   9.100   7.371  0.9486 -0.4041  2.6788
  281MOL0     H37926   1.388   8.971   7.467  1.0481 -1.3671 -0.2350
  281MOL0     H37927   1.553   8.895   7.230 -0.6191 -2.0087 -0.4831
  281MOL0     H37928   1.500   8.807   7.367 -2.2247  1.8000 -0.2453
  281MOL0     H37929   1.630   8.952   7.516  1.7934  0.4486  1.5226
  281MOL0     H37930   1.686   9.044   7.379 -0.3473  0.1591  0.0106
  281MOL0     H37931   1.849   8.877   7.489  1.9391 -0.5825 -0.2556
  281MOL0     H37932   1.841   8.862   7.317  1.7087 -2.8685  0.9413
  281MOL0     H37933   1.728   8.466   7.408  2.1172 -0.5311  0.3458
  281MOL0     H37934   1.115   8.867   7.172  0.4488 -0.9096  1.0863
  281MOL0     H37935   0.878   8.922   7.201  0.1619  0.2337  0.0001
  282MOL0     O37936   6.084   3.776   1.560 -0.5378  0.2642  0.1750
  282MOL0     C37937   6.145   3.682   1.501 -0.5095 -0.6454 -0.3977
  282MOL0     O37938   6.096   3.566   1.444  0.0596 -0.7026 -0.1156
  282MOL0     C37939   5.971   3.513   1.468 -0.2084  0.6938 -0.2570
  282MOL0     C37940   5.883   3.548   1.568 -0.1252 -0.6366  0.0152
  282MOL0     C37941   5.758   3.484   1.568 -0.4978  0.5623  0.2488
  282MOL0     C37942   5.728   3.379   1.477  0.0447 -0.5512  0.5923
  282MOL0     O37943   5.607   3.324   1.490 -0.0970 -0.1468  0.0383
  282MOL0     C37944   5.521   3.282   1.381 -0.2931 -0.6591 -0.2020
  282MOL0     C37945   5.508   3.132   1.399  0.2555  0.3516  0.2894
  282MOL0     C37946   5.389   3.080   1.329  0.0193  0.9363 -0.0031
  282MOL0     C37947   5.369   2.931   1.375 -0.6939 -0.0409 -0.3343
  282MOL0     C37948   5.251   2.860   1.321  0.7867 -1.0946  0.2016
  282MOL0     C37949   5.117   2.927   1.356  0.6935  0.3585  0.1022
  282MOL0     C37950   4.992   2.858   1.283  0.0491 -0.6557  0.2469
  282MOL0     C37951   4.854   2.910   1.339  0.3512 -0.6965  0.0588
  282MOL0     N37952   4.729   2.875   1.259 -0.5016  0.1951  0.2935
  282MOL0     C37953   4.610   2.927   1.265 -0.2354  0.5595  0.1706
  282MOL0     C37954   4.536   2.849   1.169 -0.4522 -0.8049  0.0852
  282MOL0     C37955   4.390   2.872   1.145  0.8314 -0.0805 -0.0753
  282MOL0     C37956   4.329   2.770   1.047 -0.0652  0.1023  0.7563
  282MOL0     C37957   4.177   2.795   1.024 -0.4358 -0.5085  0.7210
  282MOL0     C37958   4.071   2.784   1.137  0.4304 -0.6137  0.8017
  282MOL0     O37959   4.077   2.875   1.237  0.3154 -0.4020  0.2304
  282MOL0     C37960   3.992   2.874   1.346 -1.5330  1.0919 -0.6155
  282MOL0     C37961   3.998   2.986   1.431 -0.3842 -0.4329 -0.9941
  282MOL0     C37962   3.922   2.989   1.545 -0.5174  0.1841  0.1929
  282MOL0     C37963   3.958   3.090   1.652 -0.4245 -0.5303 -0.2338
  282MOL0     C37964   3.847   2.879   1.588 -0.6702 -0.7899 -0.3272
  282MOL0     C37965   3.762   2.874   1.707 -0.3722 -0.1316  0.4243
  282MOL0     O37966   3.765   2.760   1.784 -0.0923 -0.8789  0.4604
  282MOL0     C37967   3.666   2.737   1.874 -0.1632  0.2677  0.5206
  282MOL0     C37968   3.702   2.737   2.007  0.4382  0.6908  0.1251
  282MOL0     C37969   3.614   2.708   2.113  0.4689  0.2456 -0.2327
  282MOL0     C37970   3.477   2.682   2.077 -0.0887  0.4752 -0.4085
  282MOL0     O37971   3.371   2.661   2.158 -0.2721  0.1509  0.3186
  282MOL0     C37972   3.377   2.725   2.290 -0.7624 -0.4798  0.5667
  282MOL0     C37973   3.233   2.725   2.341  0.5127 -0.0832 -0.3475
  282MOL0     C37974   3.152   2.826   2.263  0.7906  0.0121 -0.4849
  282MOL0     C37975   3.002   2.812   2.296  0.4657 -0.3177  0.3489
  282MOL0     C37976   2.909   2.920   2.247  0.5818  0.6357  0.5979
  282MOL0     C37977   2.790   2.940   2.346 -0.1475 -0.8095 -0.6982
  282MOL0     C37978   2.663   2.995   2.287  0.3834  0.1818  0.0012
  282MOL0     C37979   2.627   3.140   2.326  0.3098  0.6036 -0.6071
  282MOL0    Cl37980   2.480   3.198   2.233  0.1620  0.1077  0.1910
  282MOL0     C37981   3.443   2.685   1.943  0.2602 -0.7268  1.2003
  282MOL0     C37982   3.533   2.713   1.839  0.2380  0.5561 -0.2417
  282MOL0     O37983   3.701   2.973   1.731  1.2359 -0.9120  0.3011
  282MOL0     C37984   3.837   2.770   1.504 -1.0261  0.8411 -0.3232
  282MOL0     C37985   3.907   2.762   1.380  0.0770  0.0762 -0.6981
  282MOL0     N37986   4.619   2.763   1.106  0.0755  0.7683 -0.3302
  282MOL0     N37987   4.728   2.774   1.165 -0.7318 -0.2792  0.0709
  282MOL0     C37988   5.823   3.355   1.375  0.5141  0.5719  0.7544
  282MOL0     C37989   5.940   3.418   1.371  0.2197 -0.4576  0.9176
  282MOL0     C37990   6.287   3.716   1.474 -0.0142 -0.1090  0.6788
  282MOL0     C37991   6.373   3.622   1.417 -0.2844 -0.0860  0.8924
  282MOL0     C37992   6.508   3.654   1.388  0.4336  0.9114 -0.1446
  282MOL0     C37993   6.560   3.777   1.428  0.0519  0.2221 -0.0424
  282MOL0     O37994   6.696   3.796   1.392  0.2537  0.2170  0.0853
  282MOL0     C37995   6.763   3.899   1.470 -0.9908  0.0712 -0.1116
  282MOL0     C37996   6.902   3.912   1.412  0.0314 -0.4508 -0.7983
  282MOL0     C37997   6.909   4.016   1.296 -0.5198  0.6599 -0.1334
  282MOL0     C37998   7.038   4.009   1.206  0.5308  0.0964  0.6367
  282MOL0     C37999   7.163   4.038   1.269 -0.9221 -0.8209 -0.4559
  282MOL0     C38000   7.262   4.043   1.346  0.6253 -0.5181 -0.6016
  282MOL0     C38001   6.476   3.870   1.493  0.2282  0.1921  0.6907
  282MOL0     C38002   6.338   3.844   1.507 -1.1386 -0.1633 -0.9883
  282MOL0     H38003   5.914   3.619   1.645  1.3139 -3.1771  1.9275
  282MOL0     H38004   5.676   3.497   1.638 -0.0679 -2.2474  1.4211
  282MOL0     H38005   5.429   3.340   1.387  0.8662  1.1551  0.7052
  282MOL0     H38006   5.558   3.314   1.283 -2.0247 -0.2213 -0.7401
  282MOL0     H38007   5.592   3.078   1.354  0.0414  0.6469 -0.4653
  282MOL0     H38008   5.500   3.102   1.504 -1.5434 -2.7951 -0.6050
  282MOL0     H38009   5.297   3.131   1.361 -0.9574 -1.0183  0.4753
  282MOL0     H38010   5.396   3.097   1.221  0.7418 -0.7277 -0.2447
  282MOL0     H38011   5.463   2.876   1.361 -0.0969  0.4166  1.5812
  282MOL0     H38012   5.358   2.924   1.483  0.7712 -1.9115 -0.2474
  282MOL0     H38013   5.250   2.867   1.212 -1.9413 -0.8085  0.1835
  282MOL0     H38014   5.254   2.757   1.360 -1.8097 -0.4273  2.4436
  282MOL0     H38015   5.090   2.915   1.461  0.7886 -1.5263 -0.0453
  282MOL0     H38016   5.114   3.036   1.343  3.6889  0.4728 -0.1993
  282MOL0     H38017   4.990   2.886   1.177  1.4201  5.0125  1.3460
  282MOL0     H38018   5.015   2.752   1.297  3.8510 -0.0574 -0.3292
  282MOL0     H38019   4.861   3.019   1.327  1.4559 -0.8930 -1.4162
  282MOL0     H38020   4.845   2.864   1.437  2.0288 -1.8009 -0.2676
  282MOL0     H38021   4.583   3.012   1.328 -2.5927 -1.4697  2.1242
  282MOL0     H38022   4.340   2.870   1.242  1.8205  2.2201  0.5292
  282MOL0     H38023   4.372   2.974   1.110  0.5037  0.7569  2.3782
  282MOL0     H38024   4.341   2.674   1.098 -0.9114 -3.1227 -4.3554
  282MOL0     H38025   4.384   2.758   0.953 -3.6617  0.1449 -1.5512
  282MOL0     H38026   4.131   2.735   0.944 -2.3804  0.3788  1.0989
  282MOL0     H38027   4.171   2.899   0.990 -1.4653 -1.6781 -3.1178
  282MOL0     H38028   4.095   2.686   1.180  3.7267 -0.8307 -1.2305
  282MOL0     H38029   3.973   2.782   1.087 -0.4087  1.3040  2.2482
  282MOL0     H38030   4.062   3.066   1.395 -0.6841  0.9426  1.3046
  282MOL0     H38031   3.887   3.173   1.648  1.2066  0.9321 -0.2273
  282MOL0     H38032   3.971   3.056   1.755 -0.2708  1.4281  0.4418
  282MOL0     H38033   4.057   3.132   1.632  0.9769 -1.5313  3.7787
  282MOL0     H38034   3.801   2.769   2.038 -1.1593  3.5836  2.9589
  282MOL0     H38035   3.639   2.703   2.219 -1.2136  0.0245  0.1917
  282MOL0     H38036   3.450   2.667   2.349  0.1746  2.1225  2.1085
  282MOL0     H38037   3.407   2.830   2.286  0.8543 -0.9584 -1.9664
  282MOL0     H38038   3.180   2.629   2.341  1.5894 -0.7632  2.2401
  282MOL0     H38039   3.223   2.746   2.448  0.1976 -0.3330 -0.3268
  282MOL0     H38040   3.164   2.814   2.155  2.4167  1.4739 -0.5132
  282MOL0     H38041   3.185   2.929   2.278  0.3020  0.2009 -0.6836
  282MOL0     H38042   2.957   2.719   2.260 -3.2295  1.8936 -1.4577
  282MOL0     H38043   3.005   2.805   2.405  1.4804  0.1738  0.3657
  282MOL0     H38044   2.879   2.892   2.146 -0.3823 -0.9847  1.2884
  282MOL0     H38045   2.959   3.016   2.239  1.0408  0.7125  3.2583
  282MOL0     H38046   2.773   2.843   2.394  2.1892 -2.6689 -3.2863
  282MOL0     H38047   2.834   2.993   2.431 -0.3687 -2.2550  0.3539
  282MOL0     H38048   2.587   2.928   2.330 -1.3065  2.7822  1.3452
  282MOL0     H38049   2.655   2.994   2.178 -3.5681  0.3871  0.1222
  282MOL0     H38050   2.713   3.201   2.297  1.6075 -0.1661  1.4138
  282MOL0     H38051   2.607   3.136   2.433  1.7156  3.4287 -0.1324
  282MOL0     H38052   3.340   2.664   1.917  1.0086  0.6580 -4.1372
  282MOL0     H38053   3.495   2.729   1.739 -2.4040  1.8289  0.8537
  282MOL0     H38054   3.766   2.695   1.537 -0.5779  0.0510 -1.1259
  282MOL0     H38055   3.893   2.675   1.317  2.7391 -2.1486  1.5238
  282MOL0     H38056   5.802   3.277   1.303 -0.1165  0.1880  1.3348
  282MOL0     H38057   6.008   3.400   1.289 -0.3710 -3.8022  1.0298
  282MOL0     H38058   6.328   3.526   1.391  0.4700 -0.3446  0.5299
  282MOL0     H38059   6.580   3.576   1.366 -0.2476  0.3740 -0.5388
  282MOL0     H38060   6.705   3.991   1.458 -0.7782 -0.0504 -2.8932
  282MOL0     H38061   6.779   3.865   1.573 -0.0455 -1.5164 -0.7352
  282MOL0     H38062   6.925   3.815   1.367 -2.1410 -1.2503 -0.2942
  282MOL0     H38063   6.965   3.936   1.498 -0.2951 -0.8616 -0.4411
  282MOL0     H38064   6.899   4.113   1.344 -0.5152  1.8691 -2.4522
  282MOL0     H38065   6.821   4.007   1.231  0.4185  2.1265 -1.6961
  282MOL0     H38066   7.039   4.079   1.122 -0.3468 -0.0625  0.4788
  282MOL0     H38067   7.038   3.915   1.150 -2.9292  0.9641 -1.1598
  282MOL0     H38068   7.342   4.059   1.415 -3.6660 -0.0706  5.0550
  282MOL0     H38069   6.519   3.961   1.534 -1.2688  0.6742  1.2511
  282MOL0     H38070   6.281   3.919   1.559  1.5933  1.3651  0.0093
  283MOL0     O38071  10.309   2.061   2.786  0.7209 -0.2695 -0.2339
  283MOL0     C38072  10.343   2.171   2.736  0.2063  0.7560 -0.2101
  283MOL0     O38073  10.273   2.234   2.638 -0.3992  0.1069  0.0009
  283MOL0     C38074  10.149   2.187   2.602 -0.1616 -0.3688 -0.0483
  283MOL0     C38075  10.035   2.197   2.684 -0.5572  0.2435 -0.7077
  283MOL0     C38076   9.908   2.165   2.639  0.4100  0.3627 -0.3609
  283MOL0     C38077   9.886   2.117   2.507  0.1147 -0.7534 -0.7169
  283MOL0     O38078   9.764   2.087   2.449  0.3773  1.0311  0.4947
  283MOL0     C38079   9.651   2.061   2.536 -0.1611 -1.0596 -0.4760
  283MOL0     C38080   9.555   1.965   2.481  0.4300  0.3268 -0.8238
  283MOL0     C38081   9.480   2.009   2.349  0.0498  0.2461 -0.1811
  283MOL0     C38082   9.347   1.936   2.316 -0.0924  0.5103 -0.2173
  283MOL0     C38083   9.259   2.028   2.226 -0.0722  0.2306 -0.5084
  283MOL0     C38084   9.118   1.953   2.216 -0.4718  0.5585 -0.0474
  283MOL0     C38085   9.041   1.995   2.091 -0.1850 -0.1554  0.5186
  283MOL0     C38086   8.897   1.949   2.108  0.7176 -0.1306 -0.3662
  283MOL0     N38087   8.818   1.989   1.994  0.9464  0.1001  0.8519
  283MOL0     C38088   8.750   2.105   1.983  0.2936  0.1068 -0.0058
  283MOL0     C38089   8.696   2.120   1.862  0.0695 -0.1108 -0.5928
  283MOL0     C38090   8.606   2.225   1.814 -0.1236 -0.7468 -0.0133
  283MOL0     C38091   8.485   2.169   1.736 -0.2028  0.4509  0.8354
  283MOL0     C38092   8.391   2.276   1.671  0.4435 -0.5305  0.1550
  283MOL0     C38093   8.280   2.195   1.605  0.2773 -0.4302  0.8620
  283MOL0     O38094   8.164   2.181   1.689 -0.4231 -0.2802 -0.1226
  283MOL0     C38095   8.071   2.278   1.710  0.0938 -0.0333 -0.4630
  283MOL0     C38096   8.057   2.397   1.631  0.2625  0.5527 -0.3634
  283MOL0     C38097   7.954   2.486   1.682 -1.0673  0.1857  0.5411
  283MOL0     C38098   7.956   2.616   1.599  0.2520 -0.1538 -0.6145
  283MOL0     C38099   7.868   2.458   1.791 -0.2980  0.6461 -0.1242
  283MOL0     C38100   7.759   2.537   1.837  0.3756 -0.5131 -1.0281
  283MOL0     O38101   7.675   2.483   1.939  0.6101  0.0119  0.6108
  283MOL0     C38102   7.564   2.543   1.979  0.5425  0.2376 -0.2397
  283MOL0     C38103   7.472   2.606   1.895 -1.0541 -0.5776 -0.1262
  283MOL0     C38104   7.343   2.652   1.946 -0.7845  0.2074  0.9061
  283MOL0     C38105   7.327   2.642   2.091  0.5794 -0.1267  0.0520
  283MOL0     O38106   7.217   2.692   2.152  0.5619 -0.4928  0.8756
  283MOL0     C38107   7.099   2.605   2.127 -0.7678  0.4889  0.4165
  283MOL0     C38108   7.001   2.607   2.242 -0.1095 -0.9542 -0.9514
  283MOL0     C38109   6.866   2.598   2.182  0.6294  0.4570  0.2364
  283MOL0     C38110   6.825   2.459   2.118 -0.6093 -0.3955 -0.8330
  283MOL0     C38111   6.670   2.465   2.107 -0.7697  0.6021 -0.1207
  283MOL0     C38112   6.613   2.329   2.060 -0.1086 -0.2273  0.2841
  283MOL0     C38113   6.460   2.353   2.032 -0.5226 -0.3498 -0.1415
  283MOL0     C38114   6.400   2.234   1.960  0.7432  0.7255  0.6806
  283MOL0    Cl38115   6.244   2.272   1.876  0.0035  0.0404 -0.3392
  283MOL0     C38116   7.423   2.590   2.169 -0.0896 -0.4260 -0.5453
  283MOL0     C38117   7.542   2.542   2.116  0.5785  0.2242  0.0145
  283MOL0     O38118   7.744   2.647   1.787  0.4090  0.0310 -0.1810
  283MOL0     C38119   7.892   2.334   1.862  0.1140 -0.0032 -0.9846
  283MOL0     C38120   7.988   2.242   1.815  0.7922 -0.2871  1.0205
  283MOL0     N38121   8.739   2.004   1.797 -0.1103 -0.0480  0.9097
  283MOL0     N38122   8.819   1.929   1.869  0.0578  0.2147 -0.1069
  283MOL0     C38123   9.997   2.114   2.422  0.2322 -0.7809 -0.3047
  283MOL0     C38124  10.127   2.136   2.473  0.2240  0.0715 -0.1505
  283MOL0     C38125  10.466   2.234   2.790  0.9979  0.3736 -0.8005
  283MOL0     C38126  10.554   2.164   2.872 -0.2638 -0.1922 -0.5052
  283MOL0     C38127  10.666   2.221   2.936  0.1950 -0.0943  0.2144
  283MOL0     C38128  10.684   2.360   2.917  0.0688  0.0955  0.0568
  283MOL0     O38129  10.781   2.422   2.990  0.3811  0.2416 -0.4296
  283MOL0     C38130  10.783   2.568   2.995 -0.1372  0.2980  1.3024
  283MOL0     C38131  10.910   2.621   3.075  1.7589  0.1168  0.0379
  283MOL0     C38132  11.042   2.555   3.036 -0.1589  0.1931  0.1486
  283MOL0     C38133  11.145   2.613   3.138  0.9676  0.4860 -0.0074
  283MOL0     C38134  11.169   2.754   3.098 -0.5994 -0.1277 -0.0670
  283MOL0     C38135  11.200   2.867   3.072  0.4215 -0.3070 -0.5700
  283MOL0     C38136  10.600   2.428   2.836 -0.1224 -0.0740 -0.0313
  283MOL0     C38137  10.487   2.372   2.777 -0.2899  0.0573 -0.0500
  283MOL0     H38138  10.053   2.237   2.783 -0.7265  1.8483 -1.3039
  283MOL0     H38139   9.825   2.180   2.708 -0.0908  4.0106 -1.5028
  283MOL0     H38140   9.682   2.018   2.632  0.6236 -3.1514 -1.5933
  283MOL0     H38141   9.599   2.156   2.553  0.5305 -0.3942 -1.8921
  283MOL0     H38142   9.612   1.873   2.464  0.1667  0.1482 -0.7571
  283MOL0     H38143   9.481   1.952   2.562 -1.5849  5.8269 -1.3680
  283MOL0     H38144   9.448   2.113   2.363  0.1111 -0.0046  2.3268
  283MOL0     H38145   9.548   2.008   2.263 -0.7283 -1.0922 -0.8045
  283MOL0     H38146   9.370   1.844   2.261  1.7442  1.1227 -0.5227
  283MOL0     H38147   9.292   1.897   2.402 -2.3748  1.4194 -1.1639
  283MOL0     H38148   9.241   2.130   2.264 -0.1783  1.0455 -2.6238
  283MOL0     H38149   9.315   2.046   2.134 -0.4443 -0.5410 -0.8978
  283MOL0     H38150   9.134   1.845   2.215  1.0443  0.5913  3.6268
  283MOL0     H38151   9.065   1.979   2.309  1.5798  1.8856  0.8280
  283MOL0     H38152   9.051   2.104   2.087  2.3204 -0.2839  1.3406
  283MOL0     H38153   9.088   1.955   2.001 -0.4357 -0.9097  0.7139
  283MOL0     H38154   8.849   1.996   2.195 -1.1538  1.4709 -2.1541
  283MOL0     H38155   8.883   1.842   2.122 -1.2421 -0.1090 -1.6599
  283MOL0     H38156   8.749   2.183   2.059 -0.9057 -0.9951  1.1597
  283MOL0     H38157   8.570   2.297   1.888  0.0204 -0.9764  0.2784
  283MOL0     H38158   8.670   2.282   1.747  1.3874  0.0791  2.0364
  283MOL0     H38159   8.428   2.108   1.806  2.5302 -2.3882  0.8212
  283MOL0     H38160   8.513   2.106   1.651 -1.2055  1.0235  0.0584
  283MOL0     H38161   8.440   2.342   1.599 -1.0529  2.7624  1.9300
  283MOL0     H38162   8.349   2.337   1.752  1.0373  0.2459 -0.1149
  283MOL0     H38163   8.318   2.095   1.582 -2.0131 -1.2602  0.4847
  283MOL0     H38164   8.252   2.236   1.508  1.7632 -1.1755  0.0760
  283MOL0     H38165   8.122   2.414   1.546 -1.0395  0.3965 -1.4094
  283MOL0     H38166   7.881   2.609   1.520  0.8938  1.6769 -1.4394
  283MOL0     H38167   7.947   2.710   1.655  2.2028  0.3990 -1.1492
  283MOL0     H38168   8.051   2.635   1.549 -0.4100  1.0222 -1.4668
  283MOL0     H38169   7.481   2.610   1.787 -1.1431 -0.3093 -0.1237
  283MOL0     H38170   7.256   2.688   1.892  0.3447 -0.4014 -1.4120
  283MOL0     H38171   7.059   2.639   2.031  1.4605  0.6292 -0.5241
  283MOL0     H38172   7.131   2.502   2.110 -2.5171  0.2163 -1.6200
  283MOL0     H38173   7.024   2.528   2.314 -0.6758 -1.4787 -1.3350
  283MOL0     H38174   7.009   2.700   2.299  0.0535 -2.0005  0.8147
  283MOL0     H38175   6.842   2.671   2.103  2.0101 -1.0516 -1.6998
  283MOL0     H38176   6.809   2.622   2.272  2.1644 -0.8559  1.6112
  283MOL0     H38177   6.878   2.458   2.023 -1.1499  0.2382 -1.1498
  283MOL0     H38178   6.858   2.371   2.173  0.2256  0.3060 -0.1657
  283MOL0     H38179   6.625   2.532   2.033 -1.6281  0.0467 -0.1282
  283MOL0     H38180   6.626   2.467   2.207 -0.6742 -1.3220 -0.0014
  283MOL0     H38181   6.669   2.291   1.974 -2.1286 -1.4425 -0.5585
  283MOL0     H38182   6.619   2.251   2.136  0.5328 -0.0554  0.4196
  283MOL0     H38183   6.442   2.447   1.978 -1.3796 -0.2738  0.2683
  283MOL0     H38184   6.408   2.357   2.128 -1.7168  4.3916 -0.7236
  283MOL0     H38185   6.393   2.150   2.030  2.4370  0.7472  0.9052
  283MOL0     H38186   6.466   2.191   1.884  0.9442 -1.5385  2.0562
  283MOL0     H38187   7.400   2.582   2.275 -1.8005 -1.6956 -0.9750
  283MOL0     H38188   7.607   2.481   2.178 -3.6384 -3.5550  1.2716
  283MOL0     H38189   7.834   2.301   1.948 -0.6284 -1.8685 -2.1303
  283MOL0     H38190   8.001   2.149   1.870  1.3163 -0.1297  1.1710
  283MOL0     H38191   9.974   2.081   2.321  0.5318 -0.2247 -0.5564
  283MOL0     H38192  10.218   2.120   2.415  1.6133  1.0884  1.6534
  283MOL0     H38193  10.523   2.062   2.893 -3.5853  0.8002  0.1284
  283MOL0     H38194  10.719   2.161   3.008 -4.1857 -0.0463  3.9578
  283MOL0     H38195  10.791   2.623   2.901 -1.7747 -1.7742 -0.1164
  283MOL0     H38196  10.690   2.606   3.039 -1.8629  0.1066 -1.8793
  283MOL0     H38197  10.888   2.602   3.180 -1.9243 -2.5131 -0.9946
  283MOL0     H38198  10.904   2.730   3.061 -0.2007  0.5704  3.3772
  283MOL0     H38199  11.066   2.583   2.933  1.2551 -1.9971 -0.2012
  283MOL0     H38200  11.045   2.446   3.041 -2.0680  0.1427  1.1541
  283MOL0     H38201  11.236   2.557   3.115  0.3806 -0.8994  0.9635
  283MOL0     H38202  11.111   2.603   3.241  0.2229  5.5002  0.4846
  283MOL0     H38203  11.214   2.969   3.043  2.3467 -1.2502 -3.3760
  283MOL0     H38204  10.607   2.536   2.825  2.0943 -0.3993 -3.4039
  283MOL0     H38205  10.431   2.443   2.716  1.6488  3.3359  1.6723
  284MOL0     O38206   8.385   8.097   0.844 -0.6452  0.0567  0.1673
  284MOL0     C38207   8.444   8.088   0.951 -0.2368 -0.3599  1.0559
  284MOL0     O38208   8.387   8.046   1.064 -0.3581 -0.1471  0.2376
  284MOL0     C38209   8.256   8.006   1.068 -0.5449 -0.1398  0.3878
  284MOL0     C38210   8.142   8.071   1.011 -0.8267 -0.5613  1.1402
  284MOL0     C38211   8.018   8.021   1.039  0.5426 -0.1641  0.0068
  284MOL0     C38212   7.994   7.912   1.124 -0.3770 -1.0507 -0.7300
  284MOL0     O38213   7.871   7.850   1.159  0.0443  0.2769  0.7288
  284MOL0     C38214   7.754   7.880   1.076 -0.5942 -0.8667 -0.8840
  284MOL0     C38215   7.766   7.823   0.943  0.2045 -0.0330  0.4917
  284MOL0     C38216   7.622   7.846   0.877  0.0667  1.0425 -0.0924
  284MOL0     C38217   7.644   7.811   0.730 -0.1489  0.2994  0.8453
  284MOL0     C38218   7.516   7.834   0.640  0.2284  0.3209  0.2473
  284MOL0     C38219   7.564   7.836   0.489 -0.4366  0.5838 -0.3381
  284MOL0     C38220   7.574   7.697   0.426  0.6983 -0.4025 -0.4883
  284MOL0     C38221   7.497   7.690   0.295 -0.3077  0.1915 -0.1557
  284MOL0     N38222   7.520   7.574   0.218 -0.0222  0.6009 -0.2861
  284MOL0     C38223   7.455   7.458   0.225  0.7125 -0.2137 -0.2392
  284MOL0     C38224   7.518   7.370   0.139 -1.0444 -0.6573  0.1943
  284MOL0     C38225   7.462   7.237   0.119  0.0333  0.2742  0.0835
  284MOL0     C38226   7.336   7.253   0.031 -0.2501  0.5651 -0.0097
  284MOL0     C38227   7.243   7.136   0.046  0.6775  0.1602  0.0514
  284MOL0     C38228   7.185   7.110   0.181 -1.1117 -0.6363 -0.5692
  284MOL0     O38229   7.119   7.230   0.220 -1.2026 -0.0828  0.8459
  284MOL0     C38230   6.985   7.222   0.207  1.0490  0.4022  0.0395
  284MOL0     C38231   6.929   7.282   0.096  0.1942 -0.5355  0.2993
  284MOL0     C38232   6.792   7.276   0.082  0.1133 -0.8917  0.3351
  284MOL0     C38233   6.737   7.343  -0.043 -0.2705  0.6351 -0.5703
  284MOL0     C38234   6.716   7.218   0.188 -0.0172  0.1459 -0.0083
  284MOL0     C38235   6.568   7.220   0.195  1.3720 -0.0647  0.2702
  284MOL0     O38236   6.496   7.327   0.144  0.2504 -0.0000  0.4520
  284MOL0     C38237   6.364   7.308   0.168  0.0425  1.2774 -0.4942
  284MOL0     C38238   6.300   7.382   0.269  0.3129 -0.5039 -0.8490
  284MOL0     C38239   6.164   7.383   0.293  0.0288 -0.4521 -0.3471
  284MOL0     C38240   6.074   7.308   0.210 -1.0227  0.3916  0.4394
  284MOL0     O38241   5.942   7.314   0.233 -0.3789  0.1109 -0.6381
  284MOL0     C38242   5.879   7.415   0.319 -0.0834  0.1701 -0.1696
  284MOL0     C38243   5.730   7.398   0.315  0.0717  0.1959 -0.2362
  284MOL0     C38244   5.671   7.263   0.346  0.7322  0.5483  0.0629
  284MOL0     C38245   5.514   7.266   0.336 -0.0059 -0.3872 -0.0888
  284MOL0     C38246   5.453   7.303   0.476  0.3197 -0.8359  0.4482
  284MOL0     C38247   5.468   7.200   0.594 -0.1008  0.7846  0.3319
  284MOL0     C38248   5.399   7.255   0.721  0.6558  0.4114  0.1411
  284MOL0     C38249   5.414   7.162   0.840 -0.2470 -0.6158  0.7633
  284MOL0    Cl38250   5.300   7.212   0.966  0.1956  0.6584  0.0137
  284MOL0     C38251   6.134   7.236   0.103  1.3824 -0.6296  0.9442
  284MOL0     C38252   6.267   7.246   0.082  0.4433  0.1825  0.3327
  284MOL0     O38253   6.522   7.114   0.232  0.1343  0.3388 -0.1782
  284MOL0     C38254   6.775   7.158   0.300  0.2062  0.0018  0.2709
  284MOL0     C38255   6.913   7.164   0.313  0.7847  0.0154  0.5058
  284MOL0     N38256   7.624   7.438   0.087 -0.0435  0.1185  1.1391
  284MOL0     N38257   7.620   7.561   0.127  0.1809 -0.3261  0.0429
  284MOL0     C38258   8.099   7.854   1.190 -0.5812 -0.4001 -0.8659
  284MOL0     C38259   8.228   7.897   1.156 -0.7824  0.2122 -0.5392
  284MOL0     C38260   8.584   8.140   0.957  0.1878 -0.9906 -0.1950
  284MOL0     C38261   8.645   8.192   1.075 -0.1154 -0.5252 -0.6602
  284MOL0     C38262   8.783   8.237   1.084 -0.9046  0.0961  0.0561
  284MOL0     C38263   8.854   8.249   0.968  0.2033 -0.3881 -0.6002
  284MOL0     O38264   8.973   8.315   0.967 -0.2618  0.4978  0.2335
  284MOL0     C38265   9.054   8.276   0.858  0.5015  0.3525  0.6967
  284MOL0     C38266   9.188   8.348   0.880  0.1910  0.3201 -0.0765
  284MOL0     C38267   9.285   8.352   0.764  0.0688  0.5273  1.0959
  284MOL0     C38268   9.311   8.226   0.696  0.2081  0.6781 -0.0799
  284MOL0     C38269   9.408   8.150   0.779 -0.3707  0.4113 -0.5531
  284MOL0     C38270   9.480   8.085   0.844 -0.1152 -0.5156  0.1148
  284MOL0     C38271   8.794   8.199   0.853 -0.6143  0.8300  0.3962
  284MOL0     C38272   8.667   8.143   0.848 -0.2083  0.3581  0.2953
  284MOL0     H38273   8.154   8.161   0.952  3.1404 -0.4437  1.8805
  284MOL0     H38274   7.939   8.079   0.991 -0.7676 -0.1217  2.1108
  284MOL0     H38275   7.670   7.827   1.123 -0.2794  1.2791  2.4425
  284MOL0     H38276   7.726   7.986   1.075 -1.2063 -1.0283 -1.9794
  284MOL0     H38277   7.849   7.863   0.884 -1.2485  1.5155 -0.6059
  284MOL0     H38278   7.792   7.717   0.944  1.3061  0.0108 -4.1225
  284MOL0     H38279   7.552   7.774   0.920  0.0922  0.8208 -0.4181
  284MOL0     H38280   7.598   7.953   0.881 -1.3216  0.8756 -2.2121
  284MOL0     H38281   7.725   7.874   0.694 -0.2589 -0.5522 -1.0254
  284MOL0     H38282   7.673   7.706   0.718  4.7885  1.4754  0.6021
  284MOL0     H38283   7.440   7.760   0.666  1.5690 -1.2494 -0.1141
  284MOL0     H38284   7.479   7.935   0.659  0.7831  0.7270 -0.7200
  284MOL0     H38285   7.486   7.895   0.441  0.1027 -0.0990 -2.1049
  284MOL0     H38286   7.657   7.891   0.470 -0.8206  0.5302 -2.5784
  284MOL0     H38287   7.673   7.675   0.385 -0.7068 -1.8502 -3.4183
  284MOL0     H38288   7.534   7.632   0.504 -0.0789  0.9371  0.2616
  284MOL0     H38289   7.517   7.774   0.227 -0.8064 -1.3645 -2.3244
  284MOL0     H38290   7.396   7.692   0.335  0.0933 -1.0497  0.9829
  284MOL0     H38291   7.360   7.445   0.276  0.0835  0.8933 -1.0843
  284MOL0     H38292   7.534   7.164   0.081  0.9822  0.5123  1.3475
  284MOL0     H38293   7.435   7.200   0.218  0.2195  0.9273  0.3818
  284MOL0     H38294   7.374   7.251  -0.072  1.6817  1.1419  0.6527
  284MOL0     H38295   7.281   7.347   0.039 -1.3490 -0.1377  1.0243
  284MOL0     H38296   7.293   7.046   0.010 -0.2450  0.0782 -1.0791
  284MOL0     H38297   7.167   7.147  -0.032 -0.5461 -0.2190  1.1624
  284MOL0     H38298   7.254   7.076   0.259  0.7570  1.4930 -1.1722
  284MOL0     H38299   7.113   7.029   0.176  1.4522 -3.4131  2.6511
  284MOL0     H38300   7.001   7.324   0.027  1.3729  1.1156  2.3889
  284MOL0     H38301   6.734   7.451  -0.029 -0.5542  0.5026  0.4713
  284MOL0     H38302   6.791   7.321  -0.135 -1.3123 -1.0539 -0.8256
  284MOL0     H38303   6.634   7.309  -0.056  0.3517 -1.4646 -0.4173
  284MOL0     H38304   6.365   7.420   0.347  0.8726 -0.8682 -1.1313
  284MOL0     H38305   6.136   7.436   0.384  3.2434  0.8333  0.0391
  284MOL0     H38306   5.906   7.402   0.424 -0.0444  4.4298  0.5181
  284MOL0     H38307   5.914   7.516   0.300  3.8765 -0.8019  1.0271
  284MOL0     H38308   5.682   7.472   0.380  1.1840  1.3811 -0.7001
  284MOL0     H38309   5.717   7.434   0.212  2.3424  2.8661  0.2874
  284MOL0     H38310   5.697   7.234   0.448 -1.5607  1.9725  1.1339
  284MOL0     H38311   5.709   7.181   0.284 -1.2136 -0.7016  0.4616
  284MOL0     H38312   5.477   7.334   0.259  1.1890 -1.4973 -1.6879
  284MOL0     H38313   5.486   7.169   0.293 -1.8022  0.6051 -1.2964
  284MOL0     H38314   5.347   7.330   0.468  0.5637 -0.0628 -0.3563
  284MOL0     H38315   5.492   7.401   0.504 -1.9292  0.7158 -1.3963
  284MOL0     H38316   5.408   7.112   0.572 -1.2079  1.9963 -1.8047
  284MOL0     H38317   5.571   7.163   0.602 -0.2500  0.4089  0.5285
  284MOL0     H38318   5.292   7.252   0.697  1.2659 -1.2182 -2.9137
  284MOL0     H38319   5.417   7.360   0.747 -2.2128  1.1154 -0.3756
  284MOL0     H38320   5.513   7.151   0.886 -1.0567 -2.0908  2.2703
  284MOL0     H38321   5.387   7.063   0.803  1.9655 -0.8108 -0.5124
  284MOL0     H38322   6.068   7.196   0.026  2.4218 -1.7067  0.5711
  284MOL0     H38323   6.311   7.201  -0.007 -1.6994  1.3613 -1.4505
  284MOL0     H38324   6.717   7.106   0.376 -0.8110 -1.3136 -1.3265
  284MOL0     H38325   6.966   7.128   0.401 -1.6011 -3.9338  0.5860
  284MOL0     H38326   8.087   7.772   1.260 -0.9688 -0.3018 -0.8149
  284MOL0     H38327   8.312   7.852   1.208 -0.0324  0.4940 -1.4889
  284MOL0     H38328   8.582   8.203   1.163  0.2992 -0.7285 -0.3357
  284MOL0     H38329   8.816   8.279   1.178 -1.9072  1.6183 -0.2250
  284MOL0     H38330   9.078   8.169   0.863 -0.7623  0.0623  0.9457
  284MOL0     H38331   9.017   8.309   0.761 -0.9790 -0.7673  0.8473
  284MOL0     H38332   9.228   8.304   0.972 -1.6400 -0.9400  0.1775
  284MOL0     H38333   9.176   8.451   0.913  1.6752  0.6145 -0.3829
  284MOL0     H38334   9.379   8.402   0.787  1.3959  0.6540 -3.5281
  284MOL0     H38335   9.239   8.418   0.690  1.7605  0.2572 -0.2455
  284MOL0     H38336   9.350   8.240   0.595  2.9939 -0.5050  0.7329
  284MOL0     H38337   9.221   8.163   0.694 -0.4534  1.5637  0.7412
  284MOL0     H38338   9.558   8.038   0.901 -1.2270 -0.4612  1.7569
  284MOL0     H38339   8.843   8.212   0.757 -0.1246  0.7727  0.6327
  284MOL0     H38340   8.640   8.096   0.754 -3.0115  2.4093 -0.0523
  285MOL0     O38341   5.781   7.277   8.633 -0.0115  0.0242 -0.1128
  285MOL0     C38342   5.868   7.279   8.542 -1.1071  0.1757 -0.7598
  285MOL0     O38343   5.847   7.250   8.415 -0.5855 -0.4670  0.4758
  285MOL0     C38344   5.719   7.196   8.392 -0.0458 -0.5614  0.0951
  285MOL0     C38345   5.593   7.261   8.407 -0.5995  0.3096 -0.0546
  285MOL0     C38346   5.471   7.198   8.365 -0.2983 -0.4701  0.4676
  285MOL0     C38347   5.478   7.073   8.314  0.2074  0.5414  0.9502
  285MOL0     O38348   5.377   7.007   8.250  0.0462 -0.6348 -0.2260
  285MOL0     C38349   5.245   7.072   8.240 -0.1752 -0.1006 -0.2782
  285MOL0     C38350   5.168   7.057   8.367  0.1163 -0.4561  0.9817
  285MOL0     C38351   5.029   7.113   8.374  0.4925 -0.3643 -0.2572
  285MOL0     C38352   4.937   7.040   8.275 -0.6684 -0.7819  0.3145
  285MOL0     C38353   4.790   7.047   8.297  0.7247  0.3438 -0.2121
  285MOL0     C38354   4.724   6.956   8.186 -0.0731 -0.1303  0.2846
  285MOL0     C38355   4.573   6.963   8.179 -0.2359  0.3401  0.3607
  285MOL0     C38356   4.523   6.899   8.309  1.1780 -0.4936 -0.0823
  285MOL0     N38357   4.377   6.878   8.307  0.3605  0.1363 -0.0676
  285MOL0     C38358   4.314   6.761   8.268 -0.9248  0.8002 -0.0703
  285MOL0     C38359   4.182   6.778   8.309 -0.1785 -0.4847 -0.1867
  285MOL0     C38360   4.068   6.677   8.316  0.1072 -0.4917 -0.1317
  285MOL0     C38361   3.958   6.728   8.225  0.0554  0.6319  0.3097
  285MOL0     C38362   3.871   6.614   8.163  0.3535  0.3338 -0.4275
  285MOL0     C38363   3.756   6.550   8.243 -0.2359 -0.5976  0.4558
  285MOL0     O38364   3.815   6.491   8.360 -0.4454 -0.4345 -0.0727
  285MOL0     C38365   3.737   6.397   8.430 -0.7102 -0.2492 -0.8139
  285MOL0     C38366   3.801   6.310   8.519 -0.5028  0.1107 -0.2154
  285MOL0     C38367   3.733   6.206   8.578 -0.9853 -0.1230  0.2608
  285MOL0     C38368   3.821   6.110   8.658  0.0126  0.1973  0.7334
  285MOL0     C38369   3.594   6.190   8.556  0.1185 -0.0191 -1.0408
  285MOL0     C38370   3.497   6.083   8.606 -0.0696  0.0111 -1.7971
  285MOL0     O38371   3.355   6.114   8.604  0.2170  0.5233 -0.8017
  285MOL0     C38372   3.266   6.056   8.691  0.5940  0.6731  0.4538
  285MOL0     C38373   3.135   6.022   8.645 -0.1755 -0.4409 -0.0153
  285MOL0     C38374   3.051   5.941   8.724 -1.0815  1.1396  0.9022
  285MOL0     C38375   3.081   5.917   8.860  0.0222  0.7152 -0.1232
  285MOL0     O38376   2.986   5.857   8.943  0.5088  0.6234  0.0032
  285MOL0     C38377   3.024   5.774   9.047  0.0823  0.8683  0.3909
  285MOL0     C38378   2.901   5.696   9.080 -0.2889 -0.0620  0.1632
  285MOL0     C38379   2.923   5.607   9.200  1.0487  0.2266 -0.5101
  285MOL0     C38380   2.806   5.492   9.209 -0.4264  0.6559 -0.0185
  285MOL0     C38381   2.815   5.406   9.344  0.8475 -0.8457 -0.1139
  285MOL0     C38382   2.693   5.329   9.375 -0.2320  0.2056 -0.2817
  285MOL0     C38383   2.644   5.251   9.253  0.4006 -1.0543 -0.7410
  285MOL0     C38384   2.552   5.145   9.302  0.2377  0.6446 -0.0332
  285MOL0    Cl38385   2.465   5.071   9.171  0.3873  0.4419 -0.1218
  285MOL0     C38386   3.202   5.964   8.914 -0.4525  0.3880  0.7724
  285MOL0     C38387   3.292   6.027   8.823  0.6196  0.9470  0.3015
  285MOL0     O38388   3.540   5.985   8.657 -0.4991  0.4321 -0.4620
  285MOL0     C38389   3.531   6.287   8.476 -0.3162 -0.0773  0.0894
  285MOL0     C38390   3.601   6.385   8.411  0.6926  1.2504  0.2256
  285MOL0     N38391   4.171   6.910   8.349 -0.3874 -0.3915 -0.4874
  285MOL0     N38392   4.284   6.972   8.354 -0.3079  0.1688  0.5539
  285MOL0     C38393   5.605   7.013   8.297  0.0050 -0.4444  0.3983
  285MOL0     C38394   5.720   7.074   8.329  0.0102 -0.4199  0.2082
  285MOL0     C38395   6.001   7.338   8.580  0.5785 -0.3972 -0.3548
  285MOL0     C38396   6.103   7.332   8.485  0.2354 -0.5735 -0.0129
  285MOL0     C38397   6.229   7.372   8.524 -0.1495  0.0789 -0.2105
  285MOL0     C38398   6.261   7.409   8.654  0.4274 -0.9317  0.3818
  285MOL0     O38399   6.390   7.415   8.699  0.7284  0.4432  0.4219
  285MOL0     C38400   6.498   7.371   8.620 -0.1658 -0.3670  0.0232
  285MOL0     C38401   6.621   7.350   8.716  0.3179 -0.0044 -0.3985
  285MOL0     C38402   6.688   7.478   8.753 -0.0243 -1.4589  1.3800
  285MOL0     C38403   6.821   7.477   8.829  0.2367  0.6240 -0.1971
  285MOL0     C38404   6.874   7.612   8.835 -0.4606  0.5565 -0.3672
  285MOL0     C38405   6.927   7.721   8.844  0.5213 -0.0867 -0.3273
  285MOL0     C38406   6.159   7.424   8.746  0.1665  0.8001 -0.3479
  285MOL0     C38407   6.023   7.392   8.705 -0.6663 -0.3595 -0.0977
  285MOL0     H38408   5.598   7.363   8.442  0.4416  1.0085 -2.0943
  285MOL0     H38409   5.386   7.265   8.368 -0.1314 -0.2334 -0.1185
  285MOL0     H38410   5.252   7.177   8.209  0.1577 -0.9127 -3.2527
  285MOL0     H38411   5.183   7.019   8.167  0.5135 -0.7580 -0.3935
  285MOL0     H38412   5.146   6.952   8.388 -5.0263  0.6681  2.5080
  285MOL0     H38413   5.233   7.101   8.444  1.8042  0.4637 -0.8694
  285MOL0     H38414   4.995   7.086   8.474  1.7793 -0.7271  0.1024
  285MOL0     H38415   5.016   7.222   8.379  1.7708 -0.1999 -0.2126
  285MOL0     H38416   4.970   7.086   8.182 -0.5153 -3.1484 -0.8783
  285MOL0     H38417   4.963   6.933   8.272  1.0550 -0.3995  0.6113
  285MOL0     H38418   4.779   7.014   8.401 -0.0124 -0.4837 -0.5346
  285MOL0     H38419   4.755   7.151   8.296 -0.0351  0.0974 -1.1752
  285MOL0     H38420   4.749   6.990   8.085 -1.4338  2.5129  0.7247
  285MOL0     H38421   4.760   6.854   8.197  1.4847  0.0032 -2.5917
  285MOL0     H38422   4.538   7.067   8.177  0.8819  0.7292  0.2215
  285MOL0     H38423   4.527   6.923   8.088 -1.4531 -1.7560  1.8137
  285MOL0     H38424   4.547   6.975   8.385 -0.4825  0.4210 -0.4140
  285MOL0     H38425   4.569   6.802   8.327  0.2283 -1.3151 -1.8518
  285MOL0     H38426   4.352   6.661   8.247 -3.0287 -0.8359  3.0997
  285MOL0     H38427   4.099   6.577   8.284 -0.8223 -0.9246  0.2720
  285MOL0     H38428   4.039   6.666   8.421 -2.5206 -1.2036 -0.8620
  285MOL0     H38429   4.011   6.779   8.144  0.6807  0.5449  0.6567
  285MOL0     H38430   3.890   6.799   8.273 -3.0137 -3.3898  2.5881
  285MOL0     H38431   3.944   6.543   8.124  1.4253  1.1601  0.0365
  285MOL0     H38432   3.820   6.659   8.078 -2.0795  0.4713  0.9940
  285MOL0     H38433   3.708   6.478   8.176 -2.4708  0.0013  1.3220
  285MOL0     H38434   3.683   6.623   8.277  2.4069  1.9214  1.0970
  285MOL0     H38435   3.902   6.345   8.538 -1.6733  4.2300 -0.6008
  285MOL0     H38436   3.782   6.007   8.659 -0.7230  0.4512  2.4513
  285MOL0     H38437   3.918   6.105   8.608  0.4735  2.9290  1.2485
  285MOL0     H38438   3.830   6.135   8.764  0.8976 -0.2693  0.7822
  285MOL0     H38439   3.112   6.049   8.543  1.1538 -0.7321 -0.4031
  285MOL0     H38440   2.960   5.903   8.678 -0.4508  1.0023 -0.2747
  285MOL0     H38441   3.103   5.704   9.017 -0.9820 -1.2994  2.3401
  285MOL0     H38442   3.062   5.831   9.133 -0.2981  2.5401 -0.5171
  285MOL0     H38443   2.829   5.774   9.105 -0.1722  0.3614 -0.7805
  285MOL0     H38444   2.863   5.649   8.989 -3.7236  2.2656  0.1989
  285MOL0     H38445   2.917   5.671   9.288  0.3789  1.1079 -1.1722
  285MOL0     H38446   3.022   5.561   9.205  0.7176 -0.3482  1.3730
  285MOL0     H38447   2.711   5.538   9.183 -1.5368 -1.0260  0.9181
  285MOL0     H38448   2.835   5.430   9.124  2.3093 -1.0114  1.9544
  285MOL0     H38449   2.825   5.473   9.429 -0.9097  0.9008 -1.1847
  285MOL0     H38450   2.893   5.330   9.343  2.8606  1.0927  0.7661
  285MOL0     H38451   2.710   5.262   9.461 -0.4375  0.8617  0.2835
  285MOL0     H38452   2.622   5.404   9.411  0.3962 -0.3033  2.2117
  285MOL0     H38453   2.728   5.201   9.204  0.5837 -1.7369  0.2439
  285MOL0     H38454   2.593   5.321   9.187  2.5480 -0.3172 -1.7196
  285MOL0     H38455   2.481   5.181   9.377  0.8157  0.8914  0.4111
  285MOL0     H38456   2.626   5.081   9.352  1.1055 -0.3078 -2.3897
  285MOL0     H38457   3.225   5.954   9.020  0.0851 -0.5934  0.5727
  285MOL0     H38458   3.383   6.066   8.869 -0.5956  1.3468  2.5482
  285MOL0     H38459   3.425   6.275   8.459 -0.0834 -2.4447  0.0224
  285MOL0     H38460   3.557   6.454   8.340 -1.0581 -0.3963 -0.3838
  285MOL0     H38461   5.598   6.915   8.252  1.9078 -0.6664  0.4948
  285MOL0     H38462   5.817   7.027   8.319  1.5132  1.7939  2.9457
  285MOL0     H38463   6.100   7.290   8.385  1.8377  3.8371 -2.1594
  285MOL0     H38464   6.310   7.366   8.451  1.2317 -0.3939  1.3073
  285MOL0     H38465   6.479   7.282   8.559 -1.4296 -0.0788 -0.0265
  285MOL0     H38466   6.510   7.450   8.546 -0.7245  0.6013  0.9304
  285MOL0     H38467   6.689   7.284   8.661 -0.6199 -1.7301  0.4342
  285MOL0     H38468   6.587   7.314   8.814 -2.6929  2.2726 -0.4634
  285MOL0     H38469   6.613   7.543   8.799  0.5227  1.9207 -1.9754
  285MOL0     H38470   6.700   7.518   8.652 -3.7663 -1.7468  0.6852
  285MOL0     H38471   6.889   7.413   8.773 -0.9517 -0.9140  0.0284
  285MOL0     H38472   6.813   7.416   8.920 -0.0161 -0.7553 -1.1158
  285MOL0     H38473   6.962   7.822   8.856  2.4627 -0.8147  0.6295
  285MOL0     H38474   6.194   7.459   8.843  2.7476 -3.2535  0.4167
  285MOL0     H38475   5.942   7.397   8.778  1.0320 -0.2793  1.8918
  286MOL0     O38476   7.829   4.661   0.677 -0.1887 -0.3178  0.0749
  286MOL0     C38477   7.821   4.583   0.584  0.4522  0.3526  0.0514
  286MOL0     O38478   7.715   4.492   0.566 -0.4226  0.6389 -0.3142
  286MOL0     C38479   7.634   4.455   0.677  0.0164  0.9750 -0.8002
  286MOL0     C38480   7.653   4.452   0.816  0.7027 -0.4181  0.5596
  286MOL0     C38481   7.564   4.400   0.908  0.3371  1.2711  0.2802
  286MOL0     C38482   7.438   4.348   0.867 -0.4947 -1.2511  0.3203
  286MOL0     O38483   7.342   4.303   0.959 -1.4031 -0.3069  0.2604
  286MOL0     C38484   7.347   4.322   1.101 -0.2014 -0.0117 -0.1964
  286MOL0     C38485   7.286   4.462   1.129  0.3518 -0.1474  0.0536
  286MOL0     C38486   7.214   4.475   1.264 -0.2680 -0.5349  0.1345
  286MOL0     C38487   7.064   4.470   1.238  0.3994  0.1010  0.3377
  286MOL0     C38488   6.977   4.484   1.361 -0.3903  0.2064  0.2409
  286MOL0     C38489   6.831   4.507   1.324 -0.2303  0.3499 -0.1486
  286MOL0     C38490   6.745   4.494   1.446  0.8954 -0.2925  0.3190
  286MOL0     C38491   6.605   4.553   1.417  1.0763 -0.0495 -0.2119
  286MOL0     N38492   6.517   4.556   1.544 -0.4485  0.4571  0.6651
  286MOL0     C38493   6.498   4.448   1.620 -0.3299 -0.0548  0.2615
  286MOL0     C38494   6.447   4.499   1.743  0.1764  1.0500  0.9386
  286MOL0     C38495   6.408   4.420   1.865  0.2542 -1.0241  0.2756
  286MOL0     C38496   6.267   4.372   1.856  0.4251 -0.0312  0.4558
  286MOL0     C38497   6.155   4.479   1.853 -0.0934 -0.5248  0.1213
  286MOL0     C38498   6.011   4.427   1.856  0.8894 -0.2720  0.3933
  286MOL0     O38499   5.997   4.344   1.977 -0.6552 -0.2398  0.5305
  286MOL0     C38500   5.873   4.297   2.016  0.1517 -0.2252 -0.0564
  286MOL0     C38501   5.872   4.230   2.137  0.8053 -0.5472 -0.6732
  286MOL0     C38502   5.761   4.155   2.188  0.0139  0.2212 -0.0917
  286MOL0     C38503   5.768   4.077   2.310 -0.0664  0.3601  0.4480
  286MOL0     C38504   5.631   4.175   2.132  0.4281 -0.2978  0.5662
  286MOL0     C38505   5.501   4.132   2.190  0.8194  1.0217  0.8659
  286MOL0     O38506   5.394   4.143   2.103 -0.0941  0.2629  0.2528
  286MOL0     C38507   5.273   4.108   2.144 -0.0978 -0.9287  0.6065
  286MOL0     C38508   5.245   3.981   2.204  0.6107  0.0826  0.3687
  286MOL0     C38509   5.110   3.953   2.255  0.9704 -0.6308  0.2767
  286MOL0     C38510   5.006   4.036   2.225  1.0730 -0.9327  1.0589
  286MOL0     O38511   4.868   4.018   2.249 -0.2278 -0.0824 -0.7182
  286MOL0     C38512   4.835   3.891   2.307 -1.3815  0.0138 -0.3224
  286MOL0     C38513   4.687   3.864   2.339 -0.3140 -0.0520 -0.3587
  286MOL0     C38514   4.643   3.952   2.472 -0.3151  0.0222  0.4600
  286MOL0     C38515   4.516   3.897   2.525 -1.2523 -0.8739 -0.1849
  286MOL0     C38516   4.394   3.905   2.425 -0.0392 -0.5614  0.0923
  286MOL0     C38517   4.365   4.049   2.381 -0.3819 -0.0103 -0.0556
  286MOL0     C38518   4.229   4.055   2.307 -0.4014 -0.4900 -0.8120
  286MOL0     C38519   4.187   4.203   2.272  0.0416  0.0252 -0.9841
  286MOL0    Cl38520   4.146   4.296   2.424  0.0249 -0.3142  0.3578
  286MOL0     C38521   5.037   4.159   2.162 -0.1812  0.1115  1.0420
  286MOL0     C38522   5.166   4.195   2.123 -0.7127 -0.1897  0.2960
  286MOL0     O38523   5.501   4.079   2.296 -0.5926  0.2848 -0.6036
  286MOL0     C38524   5.634   4.248   2.008  0.3028  0.0805  0.4967
  286MOL0     C38525   5.749   4.309   1.960  0.0214 -0.9463  0.0510
  286MOL0     N38526   6.434   4.630   1.721 -0.7646  0.3557 -0.2384
  286MOL0     N38527   6.473   4.668   1.608  0.4983 -0.0313  0.0185
  286MOL0     C38528   7.421   4.345   0.733  0.7530 -0.4116 -0.1603
  286MOL0     C38529   7.517   4.390   0.642  0.3872  0.6495 -0.0555
  286MOL0     C38530   7.914   4.603   0.481 -0.2267 -0.2545 -0.5852
  286MOL0     C38531   8.017   4.702   0.491  0.3207  0.6093 -0.1027
  286MOL0     C38532   8.111   4.716   0.390 -0.4725 -0.6423 -0.0983
  286MOL0     C38533   8.116   4.630   0.280  0.3026  0.2944  0.6828
  286MOL0     O38534   8.200   4.644   0.179 -0.2738 -0.2289 -0.6101
  286MOL0     C38535   8.326   4.584   0.189 -0.0701 -0.0261  0.1786
  286MOL0     C38536   8.441   4.690   0.194  0.4309  0.9410  0.1163
  286MOL0     C38537   8.448   4.776   0.070  0.1110  0.0439 -0.6284
  286MOL0     C38538   8.480   4.708  -0.063 -1.1844 -0.6962  0.6873
  286MOL0     C38539   8.597   4.621  -0.054 -0.0864 -0.1559  0.7383
  286MOL0     C38540   8.676   4.531  -0.046  0.5334 -0.1675 -0.3946
  286MOL0     C38541   8.013   4.528   0.272  0.3937 -0.8851  0.8488
  286MOL0     C38542   7.911   4.518   0.367  0.4196 -0.6228 -0.0041
  286MOL0     H38543   7.745   4.486   0.864  0.1847  2.2917 -0.1791
  286MOL0     H38544   7.601   4.400   1.010 -0.6264  1.4950  0.6368
  286MOL0     H38545   7.284   4.241   1.139 -1.4208  1.0548  0.1376
  286MOL0     H38546   7.445   4.312   1.148  0.2883  3.2134 -0.2807
  286MOL0     H38547   7.365   4.537   1.120  0.8550 -0.7257 -0.3840
  286MOL0     H38548   7.222   4.489   1.044  0.8302 -1.0030 -0.5989
  286MOL0     H38549   7.248   4.393   1.327  1.2737 -2.1089 -2.5490
  286MOL0     H38550   7.250   4.564   1.315  1.2839 -0.7231 -0.5866
  286MOL0     H38551   7.033   4.541   1.160  1.3992  0.6377  0.4124
  286MOL0     H38552   7.032   4.372   1.202  0.5326  0.3734 -0.5461
  286MOL0     H38553   6.983   4.393   1.422 -2.8812  0.2141  0.6094
  286MOL0     H38554   7.012   4.566   1.425 -0.4511  2.4332 -2.4383
  286MOL0     H38555   6.816   4.606   1.279  2.3542  0.0213 -1.9568
  286MOL0     H38556   6.810   4.427   1.253 -1.3707  0.1934  0.3326
  286MOL0     H38557   6.731   4.386   1.463 -0.3928  0.0184  1.3458
  286MOL0     H38558   6.792   4.542   1.532  2.9609 -3.2060  0.9726
  286MOL0     H38559   6.562   4.484   1.344  4.5312 -1.9861 -0.6465
  286MOL0     H38560   6.604   4.655   1.378  0.2370 -0.5767 -1.6569
  286MOL0     H38561   6.534   4.347   1.603 -0.6784 -0.0611 -0.4687
  286MOL0     H38562   6.479   4.342   1.892  1.5084  0.1850  0.5903
  286MOL0     H38563   6.414   4.486   1.952  0.7955 -2.2123  1.1655
  286MOL0     H38564   6.256   4.323   1.954  1.9009 -1.5944 -0.1175
  286MOL0     H38565   6.244   4.303   1.775 -3.8138  1.3392  0.2522
  286MOL0     H38566   6.168   4.551   1.772  4.5485  0.0389  1.0866
  286MOL0     H38567   6.174   4.538   1.944  1.2121  0.5947 -0.8395
  286MOL0     H38568   5.987   4.378   1.762  1.0789  0.9002 -0.2812
  286MOL0     H38569   5.948   4.514   1.876  0.8866 -0.3314  0.6548
  286MOL0     H38570   5.964   4.209   2.190 -0.6740 -2.0668  1.4623
  286MOL0     H38571   5.726   3.976   2.308  1.5247 -0.3402 -0.6132
  286MOL0     H38572   5.872   4.062   2.341  0.0850 -1.3708 -0.7289
  286MOL0     H38573   5.712   4.135   2.384 -0.5198 -1.5219  1.6453
  286MOL0     H38574   5.327   3.909   2.206 -1.5225 -2.7127 -2.1899
  286MOL0     H38575   5.099   3.856   2.302  1.8990  0.2356  2.4088
  286MOL0     H38576   4.869   3.810   2.242  0.3000  0.1157  0.3530
  286MOL0     H38577   4.886   3.887   2.404 -1.4413  1.4435 -0.2053
  286MOL0     H38578   4.619   3.901   2.262 -0.3013  2.3725  0.6992
  286MOL0     H38579   4.675   3.757   2.359  2.6030 -0.2324  0.9546
  286MOL0     H38580   4.644   4.059   2.447 -2.2863 -0.0187  0.0084
  286MOL0     H38581   4.716   3.934   2.551 -3.3724 -2.1726  3.0462
  286MOL0     H38582   4.513   3.793   2.560 -1.5305  0.4321  4.3402
  286MOL0     H38583   4.487   3.960   2.609  1.7044  1.4087 -0.7049
  286MOL0     H38584   4.313   3.874   2.491 -0.6886 -1.7705 -1.2235
  286MOL0     H38585   4.403   3.837   2.340 -2.7459 -1.0422  0.1201
  286MOL0     H38586   4.361   4.109   2.472  0.1628 -3.5057  2.4321
  286MOL0     H38587   4.437   4.064   2.300  0.0633 -1.7182  0.0027
  286MOL0     H38588   4.157   4.022   2.381 -0.4900  4.0887  1.4971
  286MOL0     H38589   4.224   3.997   2.214 -0.1060 -1.5635 -0.1696
  286MOL0     H38590   4.093   4.188   2.218 -0.6380 -0.0120  0.1872
  286MOL0     H38591   4.250   4.270   2.213 -0.5439  2.1968  0.7432
  286MOL0     H38592   4.952   4.224   2.141 -0.3629 -0.6028 -0.6182
  286MOL0     H38593   5.184   4.291   2.076  0.5900 -0.2485  0.6352
  286MOL0     H38594   5.541   4.259   1.954  0.8440  0.4261 -0.3929
  286MOL0     H38595   5.743   4.368   1.869  2.4461  0.0148  0.4318
  286MOL0     H38596   7.335   4.290   0.696  2.9902 -5.1574  0.8987
  286MOL0     H38597   7.499   4.380   0.535  1.5407  0.1836 -0.2142
  286MOL0     H38598   8.043   4.772   0.569 -2.2547 -1.8124  3.2094
  286MOL0     H38599   8.189   4.787   0.419 -1.4708 -1.1107  4.5006
  286MOL0     H38600   8.336   4.515   0.274  0.5279 -1.1558 -0.7817
  286MOL0     H38601   8.340   4.513   0.107  0.2836 -0.2480  0.4270
  286MOL0     H38602   8.519   4.615   0.209 -0.1058  0.7929  2.7309
  286MOL0     H38603   8.417   4.759   0.275  1.4623  0.5435  0.7674
  286MOL0     H38604   8.518   4.858   0.082 -0.6503  0.8444 -1.4492
  286MOL0     H38605   8.352   4.828   0.065  0.0585  0.6043  3.4596
  286MOL0     H38606   8.502   4.785  -0.137  1.5325 -0.4509  1.6331
  286MOL0     H38607   8.393   4.646  -0.089 -0.7976 -0.8599 -0.2600
  286MOL0     H38608   8.755   4.460  -0.031 -0.0812 -0.7061  0.3809
  286MOL0     H38609   8.023   4.444   0.204 -3.2983 -0.9234  0.1531
  286MOL0     H38610   7.846   4.431   0.362 -0.3334 -0.0094 -1.5357
  287MOL0     O38611   0.171   2.851   7.437 -0.3862 -0.6741  0.4125
  287MOL0     C38612   0.248   2.845   7.339 -0.2469 -0.9220 -0.6645
  287MOL0     O38613   0.217   2.917   7.223  0.2627  0.3848  0.3158
  287MOL0     C38614   0.107   2.987   7.215  1.0569 -0.6724  0.2433
  287MOL0     C38615   0.108   3.121   7.256  0.1242  0.7400 -0.3540
  287MOL0     C38616  -0.014   3.187   7.251  0.6064 -0.1359  0.3190
  287MOL0     C38617  -0.134   3.136   7.199 -0.1912  0.1099  0.2739
  287MOL0     O38618  -0.260   3.187   7.211  0.3142  0.6456  0.1720
  287MOL0     C38619  -0.265   3.335   7.225 -0.7157  1.3704 -1.1216
  287MOL0     C38620  -0.411   3.391   7.223 -0.6253 -0.5733 -1.4306
  287MOL0     C38621  -0.464   3.389   7.076 -0.3089  0.0689 -0.2773
  287MOL0     C38622  -0.611   3.418   7.080 -0.5109 -0.4351  0.7821
  287MOL0     C38623  -0.698   3.282   7.107 -0.2642  0.4443 -0.0845
  287MOL0     C38624  -0.840   3.313   7.153 -0.1799 -0.4083  0.0149
  287MOL0     C38625  -0.929   3.383   7.051 -0.2340  0.4580 -0.5534
  287MOL0     C38626  -1.060   3.428   7.105  0.2730 -0.0760  0.7668
  287MOL0     N38627  -1.144   3.482   6.986 -0.1544  0.2084  0.3918
  287MOL0     C38628  -1.257   3.424   6.941 -0.7801 -0.5185  0.5919
  287MOL0     C38629  -1.324   3.522   6.874 -1.0550  0.6370  1.4777
  287MOL0     C38630  -1.462   3.510   6.815  0.3832 -0.0402  0.0335
  287MOL0     C38631  -1.569   3.566   6.908 -0.9206 -0.8021 -0.4189
  287MOL0     C38632  -1.554   3.500   7.049 -0.4026 -0.0830  0.5570
  287MOL0     C38633  -1.668   3.535   7.145 -0.2398 -0.2377 -0.1727
  287MOL0     O38634  -1.789   3.485   7.089  0.0479 -0.2759 -0.0133
  287MOL0     C38635  -1.912   3.529   7.124  0.4319 -0.8269  0.2587
  287MOL0     C38636  -1.928   3.607   7.245 -0.1566  0.1699  1.7684
  287MOL0     C38637  -2.050   3.637   7.301 -0.0551  0.7535  0.3173
  287MOL0     C38638  -2.055   3.698   7.440  0.2562 -0.0201 -0.4404
  287MOL0     C38639  -2.167   3.585   7.239 -0.1623  0.9101  1.0071
  287MOL0     C38640  -2.303   3.591   7.307  0.7097 -0.8133 -0.6885
  287MOL0     O38641  -2.407   3.627   7.232 -0.5391 -0.8967 -0.7778
  287MOL0     C38642  -2.506   3.707   7.270  0.4312 -0.0046 -0.0949
  287MOL0     C38643  -2.616   3.656   7.353  0.2401 -0.9661 -0.3552
  287MOL0     C38644  -2.725   3.739   7.385  0.0870  1.0480 -0.3926
  287MOL0     C38645  -2.741   3.864   7.333 -0.5389 -0.8816 -0.1615
  287MOL0     O38646  -2.857   3.934   7.346  0.6191  0.5828 -0.1376
  287MOL0     C38647  -2.846   4.070   7.374 -0.4622  0.0817  0.2526
  287MOL0     C38648  -2.943   4.132   7.479 -0.5569 -0.1888 -0.6487
  287MOL0     C38649  -3.093   4.110   7.437  0.6908  0.1541  0.4066
  287MOL0     C38650  -3.154   4.217   7.352  0.2276 -0.3473 -0.3936
  287MOL0     C38651  -3.304   4.217   7.358  0.1451 -0.0022  0.1083
  287MOL0     C38652  -3.361   4.308   7.253  0.3483 -0.1486  0.7368
  287MOL0     C38653  -3.507   4.301   7.224 -0.4238  0.2927 -0.2352
  287MOL0     C38654  -3.576   4.422   7.163 -0.6608 -0.2932  0.1298
  287MOL0    Cl38655  -3.749   4.384   7.173  0.3976 -0.2137 -0.2171
  287MOL0     C38656  -2.637   3.917   7.253 -0.5472 -0.2641  0.9245
  287MOL0     C38657  -2.520   3.837   7.225  0.0818  0.3998  0.4436
  287MOL0     O38658  -2.309   3.571   7.432  0.1650 -0.1068  0.3725
  287MOL0     C38659  -2.146   3.506   7.112 -0.7822  0.4442  0.2495
  287MOL0     C38660  -2.025   3.479   7.059 -0.2413 -0.0948  0.5757
  287MOL0     N38661  -1.253   3.637   6.868 -0.2894 -0.1889  0.2637
  287MOL0     N38662  -1.143   3.612   6.936 -0.0661  0.6624  0.3287
  287MOL0     C38663  -0.124   3.005   7.146 -1.1162  0.2189 -0.7633
  287MOL0     C38664  -0.011   2.931   7.160 -0.5655 -0.6562  0.2513
  287MOL0     C38665   0.377   2.770   7.356 -0.6659 -0.4467  0.1159
  287MOL0     C38666   0.468   2.753   7.247  0.7194  0.0885  0.3764
  287MOL0     C38667   0.591   2.691   7.275  0.8417 -0.4822  0.2389
  287MOL0     C38668   0.621   2.629   7.400 -0.0916 -0.0052 -0.1298
  287MOL0     O38669   0.743   2.572   7.422  0.2340 -0.0613  0.2101
  287MOL0     C38670   0.852   2.573   7.326 -0.2285 -0.0113 -0.4793
  287MOL0     C38671   0.908   2.421   7.324 -0.4789  0.0046 -0.2158
  287MOL0     C38672   1.026   2.398   7.222  0.1188  0.6176 -0.7702
  287MOL0     C38673   1.149   2.482   7.253 -0.1631 -1.3156 -0.2441
  287MOL0     C38674   1.189   2.584   7.163  0.0495  0.4163  0.1796
  287MOL0     C38675   1.224   2.667   7.082 -0.3399  0.3353  0.4546
  287MOL0     C38676   0.528   2.643   7.504 -0.3195  0.3021  0.1615
  287MOL0     C38677   0.403   2.716   7.487  0.1059 -0.2740  0.2615
  287MOL0     H38678   0.186   3.161   7.320  1.0275 -1.9658  0.3522
  287MOL0     H38679  -0.029   3.288   7.286 -1.2537 -0.0881 -0.5064
  287MOL0     H38680  -0.227   3.369   7.322 -3.4894 -1.9879  1.4269
  287MOL0     H38681  -0.208   3.376   7.141  0.1055 -1.5661 -2.1222
  287MOL0     H38682  -0.467   3.333   7.297 -0.7032  3.5927  2.1536
  287MOL0     H38683  -0.403   3.493   7.261 -0.1747 -0.8303 -0.8110
  287MOL0     H38684  -0.401   3.455   7.015  0.3392 -1.6346 -1.5274
  287MOL0     H38685  -0.437   3.286   7.052  2.7470  0.1747  2.0365
  287MOL0     H38686  -0.626   3.486   7.164  0.5726 -0.4734  1.0262
  287MOL0     H38687  -0.634   3.453   6.979  2.5595  0.4954  0.2940
  287MOL0     H38688  -0.701   3.211   7.024  0.6753  0.5213 -0.1895
  287MOL0     H38689  -0.654   3.230   7.193 -1.1826  0.4931  0.4275
  287MOL0     H38690  -0.884   3.216   7.179  1.5623 -1.3939 -0.4994
  287MOL0     H38691  -0.840   3.364   7.250  2.1240 -3.2721  1.7128
  287MOL0     H38692  -0.878   3.473   7.017  0.2824 -0.5905 -2.7342
  287MOL0     H38693  -0.942   3.317   6.965  0.5768 -0.0948 -0.2633
  287MOL0     H38694  -1.044   3.497   7.188  3.0163  0.1526  0.1332
  287MOL0     H38695  -1.108   3.344   7.155  0.8916 -0.9736 -0.0986
  287MOL0     H38696  -1.301   3.330   6.974 -2.5912  1.3204  4.0361
  287MOL0     H38697  -1.460   3.583   6.734 -1.0154 -0.1090 -0.0846
  287MOL0     H38698  -1.487   3.413   6.772  1.3540  0.4252 -1.6792
  287MOL0     H38699  -1.666   3.538   6.866 -0.0581 -2.2675 -1.5712
  287MOL0     H38700  -1.578   3.674   6.921  2.1353 -0.8305  5.6215
  287MOL0     H38701  -1.462   3.537   7.097  0.6580 -2.1212  0.2161
  287MOL0     H38702  -1.544   3.391   7.050  2.3440  0.0683 -0.4283
  287MOL0     H38703  -1.684   3.640   7.169  5.0299  0.2630  2.7469
  287MOL0     H38704  -1.640   3.493   7.242  1.4357  0.7343 -0.2060
  287MOL0     H38705  -1.845   3.645   7.302  0.8145  1.7760 -0.5651
  287MOL0     H38706  -2.137   3.770   7.446 -0.2042 -0.5032 -0.8355
  287MOL0     H38707  -2.060   3.618   7.514 -0.0998 -1.2837 -1.7702
  287MOL0     H38708  -1.963   3.754   7.459  0.6746 -1.3835  1.9714
  287MOL0     H38709  -2.614   3.559   7.403 -3.6079  0.3029  2.8164
  287MOL0     H38710  -2.806   3.689   7.438  1.6934  0.5284  1.6943
  287MOL0     H38711  -2.743   4.100   7.393  0.6195 -3.5555  0.8390
  287MOL0     H38712  -2.876   4.100   7.273  3.2220  0.6943 -0.8034
  287MOL0     H38713  -2.923   4.081   7.574  1.3380  1.4795 -0.0625
  287MOL0     H38714  -2.928   4.239   7.499  1.6468 -0.7018  0.7391
  287MOL0     H38715  -3.156   4.095   7.525  0.0089  0.2524 -0.0568
  287MOL0     H38716  -3.101   4.020   7.375 -2.8236  1.0513 -0.6898
  287MOL0     H38717  -3.121   4.316   7.386 -1.5154 -0.1429  0.7923
  287MOL0     H38718  -3.127   4.210   7.246  1.1078  0.0962 -0.2088
  287MOL0     H38719  -3.341   4.252   7.455 -0.1515 -2.2597  0.8889
  287MOL0     H38720  -3.325   4.112   7.335 -0.6730  0.7239 -2.8976
  287MOL0     H38721  -3.339   4.411   7.283  2.5765 -0.6479  0.9675
  287MOL0     H38722  -3.309   4.301   7.157  1.4621  2.6852  1.0225
  287MOL0     H38723  -3.563   4.270   7.312  1.3058  1.1154  1.2378
  287MOL0     H38724  -3.517   4.214   7.158 -0.0576 -0.2735  0.4481
  287MOL0     H38725  -3.543   4.443   7.061 -0.7000  1.3803  0.4352
  287MOL0     H38726  -3.550   4.508   7.225 -0.3431 -0.6592  0.5076
  287MOL0     H38727  -2.654   4.009   7.198 -2.8072 -2.1017 -1.7154
  287MOL0     H38728  -2.443   3.887   7.168  0.0423 -0.3704 -0.3201
  287MOL0     H38729  -2.232   3.494   7.048 -0.3780 -1.2803 -0.0203
  287MOL0     H38730  -2.007   3.436   6.961  1.9063  1.0323  0.4261
  287MOL0     H38731  -0.217   2.971   7.102 -2.0472 -0.8612  1.8323
  287MOL0     H38732  -0.018   2.830   7.121 -0.0116 -0.9916  1.0015
  287MOL0     H38733   0.461   2.809   7.153  3.2746 -0.1026  0.0167
  287MOL0     H38734   0.655   2.701   7.188 -2.0999  0.4072 -1.9824
  287MOL0     H38735   0.817   2.598   7.226 -3.3738  0.1237  0.5473
  287MOL0     H38736   0.928   2.644   7.362  1.6637 -2.3958  0.5721
  287MOL0     H38737   0.822   2.359   7.296 -1.7454  0.0870  2.9712
  287MOL0     H38738   0.932   2.389   7.426  0.4093  1.0023 -0.1059
  287MOL0     H38739   0.988   2.425   7.123  0.3701  1.2098 -0.7068
  287MOL0     H38740   1.058   2.295   7.237 -1.0281  0.4340  0.6084
  287MOL0     H38741   1.245   2.434   7.271  0.3128 -0.5092 -0.6095
  287MOL0     H38742   1.124   2.523   7.352  0.7654  0.0226 -0.5429
  287MOL0     H38743   1.269   2.720   7.000  1.7584 -1.9870 -0.0030
  287MOL0     H38744   0.542   2.587   7.596 -0.2994  1.4006  0.8506
  287MOL0     H38745   0.340   2.718   7.575  0.9979  4.9534  1.0853
  288MOL0     O38746   1.445   2.232   9.487 -0.5822 -0.1539  0.0706
  288MOL0     C38747   1.460   2.165   9.384 -0.0472 -0.7279 -0.4867
  288MOL0     O38748   1.353   2.102   9.315 -0.1961 -0.0572 -0.3750
  288MOL0     C38749   1.225   2.125   9.363  0.4441  0.1233  0.1675
  288MOL0     C38750   1.185   2.075   9.486 -0.6285 -0.1590  0.1301
  288MOL0     C38751   1.052   2.103   9.525 -0.0292 -0.2136 -0.3662
  288MOL0     C38752   0.964   2.179   9.444  0.4101  0.3334 -1.0218
  288MOL0     O38753   0.835   2.202   9.467  0.2692 -0.7727 -0.0306
  288MOL0     C38754   0.766   2.092   9.524  0.8819  0.7007 -0.9994
  288MOL0     C38755   0.614   2.135   9.526 -0.2380  0.9622 -0.4551
  288MOL0     C38756   0.560   2.165   9.393  0.2287 -0.0272  0.2337
  288MOL0     C38757   0.411   2.119   9.388 -0.3294  0.9228  0.4528
  288MOL0     C38758   0.351   2.202   9.272 -1.0056 -0.0973 -0.1498
  288MOL0     C38759   0.205   2.244   9.291 -0.8454  0.7075  0.2549
  288MOL0     C38760   0.141   2.299   9.168 -0.1449  0.6526 -0.2166
  288MOL0     C38761   0.173   2.438   9.134 -0.5727 -0.1677 -0.6554
  288MOL0     N38762   0.143   2.464   8.994  0.7214  0.6491  1.0236
  288MOL0     C38763   0.204   2.388   8.890  0.8019 -0.8084  0.0673
  288MOL0     C38764   0.162   2.454   8.778  0.0396 -0.3920  0.5452
  288MOL0     C38765   0.190   2.418   8.634 -1.0583  0.6032  0.0976
  288MOL0     C38766   0.171   2.539   8.528  0.6588  0.4853  0.1615
  288MOL0     C38767   0.269   2.660   8.548  0.2360 -0.3790  0.1152
  288MOL0     C38768   0.236   2.787   8.462  0.0811  0.4825 -0.6031
  288MOL0     O38769   0.251   2.914   8.538  0.0471  0.1598 -0.3520
  288MOL0     C38770   0.160   2.943   8.641  1.0423  0.6949  0.2319
  288MOL0     C38771   0.179   3.075   8.693 -0.3845  0.0767 -0.2029
  288MOL0     C38772   0.075   3.137   8.776  0.2989 -0.6640  0.5005
  288MOL0     C38773   0.074   3.289   8.793 -0.4006  0.5475  0.5213
  288MOL0     C38774  -0.023   3.055   8.833  1.4824 -0.2520 -0.4266
  288MOL0     C38775  -0.127   3.103   8.928  0.1081  0.1935 -0.5998
  288MOL0     O38776  -0.231   3.007   8.947  0.5930 -0.8475 -0.4123
  288MOL0     C38777  -0.356   3.067   8.972  0.2862 -0.3529  0.4563
  288MOL0     C38778  -0.402   3.185   8.906  0.1758  0.5422  0.0978
  288MOL0     C38779  -0.536   3.231   8.941  0.2096 -0.2441  0.7175
  288MOL0     C38780  -0.615   3.171   9.032  0.1083  1.4050  0.3455
  288MOL0     O38781  -0.736   3.218   9.049 -0.3696 -0.8885 -0.0113
  288MOL0     C38782  -0.790   3.208   9.183 -0.4137  1.0781  0.9780
  288MOL0     C38783  -0.904   3.110   9.168 -0.5682  0.1662 -0.3314
  288MOL0     C38784  -1.017   3.169   9.077  0.9267  0.2506 -0.1905
  288MOL0     C38785  -1.133   3.072   9.055 -0.2058 -0.4053 -0.1759
  288MOL0     C38786  -1.256   3.101   9.144 -0.1362 -0.1577  0.2907
  288MOL0     C38787  -1.374   3.028   9.089 -0.8334  0.9429  0.4755
  288MOL0     C38788  -1.514   3.080   9.141 -1.1182  0.0189 -0.3948
  288MOL0     C38789  -1.633   2.991   9.099  0.2395 -0.6607  0.1960
  288MOL0    Cl38790  -1.787   3.047   9.165  0.0726  0.4318  0.4267
  288MOL0     C38791  -0.572   3.046   9.090  1.3680 -0.1011 -0.1175
  288MOL0     C38792  -0.440   3.005   9.061  0.3192 -0.0124  0.2563
  288MOL0     O38793  -0.132   3.219   8.970 -1.0386  0.3119  0.6229
  288MOL0     C38794  -0.035   2.918   8.787 -0.1625 -0.2333 -0.0922
  288MOL0     C38795   0.045   2.865   8.691  0.3568  0.0470  0.5616
  288MOL0     N38796   0.059   2.544   8.811 -0.3195 -0.1513  0.6883
  288MOL0     N38797   0.052   2.550   8.935 -0.9040  0.0588  0.0853
  288MOL0     C38798   1.007   2.220   9.320 -0.9695  0.5710 -0.3100
  288MOL0     C38799   1.141   2.199   9.278 -0.4522 -1.0458 -0.4884
  288MOL0     C38800   1.599   2.155   9.326  0.4161  0.2199 -0.4308
  288MOL0     C38801   1.704   2.226   9.378  1.1061 -0.5192  0.7043
  288MOL0     C38802   1.838   2.226   9.330 -0.4480 -0.2910 -0.0444
  288MOL0     C38803   1.863   2.162   9.206 -0.0483 -1.0730 -1.2301
  288MOL0     O38804   1.992   2.138   9.156  0.2388 -0.3277  0.3260
  288MOL0     C38805   2.109   2.191   9.223 -0.2951  0.0626  0.1761
  288MOL0     C38806   2.229   2.187   9.132 -0.2079  1.0562  1.2914
  288MOL0     C38807   2.345   2.278   9.169 -0.6808 -0.0866  0.0154
  288MOL0     C38808   2.418   2.235   9.299 -0.2172 -0.2457  0.0279
  288MOL0     C38809   2.504   2.341   9.336 -0.3298 -0.4575 -0.5668
  288MOL0     C38810   2.574   2.433   9.368 -0.5764  0.0720 -0.3893
  288MOL0     C38811   1.753   2.102   9.141 -0.3800 -0.7554 -0.6644
  288MOL0     C38812   1.627   2.091   9.201  0.4477 -0.1572 -0.1723
  288MOL0     H38813   1.253   2.011   9.541  2.0924  1.9837 -0.5161
  288MOL0     H38814   1.022   2.068   9.623 -3.1814  1.5930 -0.5335
  288MOL0     H38815   0.763   2.013   9.448 -0.1994 -0.7150  0.4457
  288MOL0     H38816   0.806   2.057   9.619 -1.0681  0.7727 -0.0944
  288MOL0     H38817   0.557   2.050   9.566 -0.3491  1.5883  0.7765
  288MOL0     H38818   0.605   2.220   9.595  0.7096  0.3351  0.4791
  288MOL0     H38819   0.574   2.273   9.385 -2.2318  0.3690  0.2291
  288MOL0     H38820   0.609   2.116   9.309  1.1219  0.4260  0.4876
  288MOL0     H38821   0.403   2.010   9.381 -2.7205  0.9935  0.9776
  288MOL0     H38822   0.364   2.154   9.481 -2.5252  1.5370 -0.8069
  288MOL0     H38823   0.411   2.290   9.249  2.0745 -2.2928 -1.2632
  288MOL0     H38824   0.362   2.136   9.185 -0.2030  1.1305 -1.0206
  288MOL0     H38825   0.152   2.150   9.310 -0.3808  0.7574  1.9431
  288MOL0     H38826   0.198   2.293   9.388  0.5351 -1.0734  1.3081
  288MOL0     H38827   0.169   2.229   9.090 -2.2615 -2.3820  1.5498
  288MOL0     H38828   0.032   2.307   9.173 -0.1511  1.1002 -0.8927
  288MOL0     H38829   0.280   2.459   9.142 -0.3084 -1.7775  0.5133
  288MOL0     H38830   0.118   2.508   9.197  2.4470  1.7860 -0.0005
  288MOL0     H38831   0.269   2.301   8.894 -0.2708 -1.7604 -1.9122
  288MOL0     H38832   0.293   2.382   8.629 -1.5715 -0.9407  0.2071
  288MOL0     H38833   0.146   2.326   8.595  2.3619 -1.0521 -0.2864
  288MOL0     H38834   0.070   2.580   8.540  0.7096  0.6589  0.0010
  288MOL0     H38835   0.191   2.496   8.429  3.4853 -2.2734  1.7573
  288MOL0     H38836   0.371   2.626   8.528 -0.0037 -0.2138 -1.5456
  288MOL0     H38837   0.279   2.696   8.651 -0.5631  0.1889  0.0061
  288MOL0     H38838   0.140   2.774   8.412 -0.3459 -1.0037  0.5410
  288MOL0     H38839   0.319   2.792   8.390 -0.1845  1.8590 -0.8291
  288MOL0     H38840   0.265   3.132   8.658  0.7636 -0.4116  1.7025
  288MOL0     H38841  -0.020   3.327   8.753 -1.0639 -2.2735 -0.8699
  288MOL0     H38842   0.079   3.302   8.902 -2.5185 -1.1529  0.8875
  288MOL0     H38843   0.157   3.338   8.740  0.8453 -0.7701  1.1688
  288MOL0     H38844  -0.334   3.245   8.845  2.9172 -2.5324 -0.1436
  288MOL0     H38845  -0.574   3.319   8.891  0.1293 -0.1195  0.9985
  288MOL0     H38846  -0.712   3.181   9.255 -0.3146  0.8182  0.7724
  288MOL0     H38847  -0.823   3.311   9.203  0.6509  1.9671 -1.4306
  288MOL0     H38848  -0.882   3.017   9.115 -3.5013 -0.1734 -1.1593
  288MOL0     H38849  -0.954   3.087   9.263 -1.4428  0.8691 -0.6084
  288MOL0     H38850  -0.971   3.191   8.980  1.8138 -0.0268  0.1548
  288MOL0     H38851  -1.052   3.264   9.117  0.1324 -0.7694  1.6487
  288MOL0     H38852  -1.163   3.079   8.950 -1.7828 -5.0499 -0.2173
  288MOL0     H38853  -1.113   2.966   9.072 -1.1746 -0.6611 -0.5522
  288MOL0     H38854  -1.263   3.210   9.146 -1.3647 -0.2077 -0.4308
  288MOL0     H38855  -1.245   3.080   9.251  1.9515  1.6265  0.4915
  288MOL0     H38856  -1.375   3.033   8.980  3.5262 -1.6942  0.0854
  288MOL0     H38857  -1.349   2.927   9.123  1.6564  1.6215  0.8388
  288MOL0     H38858  -1.520   3.185   9.112  3.5069  0.8579  0.8259
  288MOL0     H38859  -1.514   3.072   9.250 -1.4310  1.2807 -0.2892
  288MOL0     H38860  -1.627   2.891   9.142  0.0013 -0.6326  0.2973
  288MOL0     H38861  -1.632   2.978   8.991  2.7701  1.0102 -0.0543
  288MOL0     H38862  -0.622   2.989   9.167  3.7722 -2.3339 -0.0937
  288MOL0     H38863  -0.399   2.922   9.118 -0.3232 -1.1662 -0.9301
  288MOL0     H38864  -0.111   2.856   8.833 -2.0967  3.5362  2.2682
  288MOL0     H38865   0.016   2.768   8.651 -2.9881  1.0868  0.1914
  288MOL0     H38866   0.940   2.270   9.252 -0.9547 -0.1730 -0.8743
  288MOL0     H38867   1.183   2.211   9.179 -3.5653 -2.3489 -2.1175
  288MOL0     H38868   1.685   2.275   9.473 -1.6729 -1.2308  0.5884
  288MOL0     H38869   1.913   2.274   9.392 -0.2032  1.6183 -1.6919
  288MOL0     H38870   2.078   2.293   9.247 -1.7562 -0.6609  1.5643
  288MOL0     H38871   2.117   2.136   9.317 -1.1693 -1.5553 -0.6612
  288MOL0     H38872   2.189   2.222   9.037 -1.2679  0.9508  1.6884
  288MOL0     H38873   2.253   2.083   9.110  1.5100  1.6238  0.2631
  288MOL0     H38874   2.298   2.377   9.177 -0.6194 -0.0996  0.5344
  288MOL0     H38875   2.422   2.284   9.091 -3.0693 -0.0084 -2.4733
  288MOL0     H38876   2.463   2.140   9.269 -1.2147 -0.2060 -1.7439
  288MOL0     H38877   2.347   2.229   9.383  0.5427  0.2056  0.7182
  288MOL0     H38878   2.652   2.505   9.384  2.0345 -2.8728  1.1491
  288MOL0     H38879   1.773   2.046   9.050 -0.7319 -0.6923 -0.7845
  288MOL0     H38880   1.543   2.039   9.156  1.3658 -1.3420 -0.5625
  289MOL0     O38881   0.839   4.479   4.986  0.4158  0.0025 -0.1011
  289MOL0     C38882   0.852   4.472   4.863 -0.0875  0.1835 -0.1372
  289MOL0     O38883   0.768   4.535   4.774  0.3743 -0.0324 -1.1037
  289MOL0     C38884   0.648   4.581   4.814  0.2041  0.2868 -0.4629
  289MOL0     C38885   0.535   4.498   4.795 -0.3739  0.7078 -0.6888
  289MOL0     C38886   0.409   4.539   4.825  0.2832 -0.7289 -0.3121
  289MOL0     C38887   0.390   4.670   4.883 -1.0237 -0.2592  0.8730
  289MOL0     O38888   0.277   4.735   4.913 -0.2339 -0.0542  0.1224
  289MOL0     C38889   0.154   4.680   4.869  0.2498 -0.2039  0.2354
  289MOL0     C38890   0.055   4.796   4.871  0.5694  0.3478 -0.2612
  289MOL0     C38891  -0.088   4.734   4.860 -0.0448 -0.0062  0.3381
  289MOL0     C38892  -0.200   4.834   4.886 -0.2824  0.6606 -0.0309
  289MOL0     C38893  -0.346   4.775   4.912  0.0117 -0.6992  0.1885
  289MOL0     C38894  -0.387   4.753   5.058  0.3982  0.1188 -0.1362
  289MOL0     C38895  -0.519   4.661   5.069  0.5646 -0.0881  0.4623
  289MOL0     C38896  -0.477   4.517   5.106 -0.0509 -0.6274 -0.0335
  289MOL0     N38897  -0.582   4.437   5.163  0.1006  0.5808  0.5501
  289MOL0     C38898  -0.639   4.453   5.281  0.0895  0.3512 -0.0558
  289MOL0     C38899  -0.722   4.350   5.289 -0.7205  0.0899  1.1050
  289MOL0     C38900  -0.811   4.323   5.404  0.3404  0.1569  0.5919
  289MOL0     C38901  -0.929   4.414   5.399 -0.5931  0.1580 -0.2850
  289MOL0     C38902  -1.034   4.372   5.503  0.5081 -0.3007  0.4593
  289MOL0     C38903  -1.153   4.456   5.495 -0.4032  0.6008  1.4959
  289MOL0     O38904  -1.234   4.429   5.610  0.3743  0.9671 -0.2124
  289MOL0     C38905  -1.355   4.498   5.613 -0.0551  0.2181 -1.1441
  289MOL0     C38906  -1.388   4.594   5.522 -0.1589  0.5178  0.0399
  289MOL0     C38907  -1.515   4.651   5.540 -0.6308 -0.1566  1.5733
  289MOL0     C38908  -1.559   4.740   5.426 -0.2877  0.6075  0.1717
  289MOL0     C38909  -1.603   4.631   5.650  0.1749  0.5677  1.1103
  289MOL0     C38910  -1.726   4.703   5.674 -0.5149 -0.4861 -0.8964
  289MOL0     O38911  -1.833   4.643   5.737 -0.5103  0.3946 -0.3172
  289MOL0     C38912  -1.952   4.710   5.764  0.2238  0.3485 -0.2520
  289MOL0     C38913  -2.071   4.698   5.696 -0.3854  1.0257  0.0627
  289MOL0     C38914  -2.183   4.766   5.741  0.3953  0.2512  0.1443
  289MOL0     C38915  -2.185   4.845   5.860 -0.2810 -0.6968 -0.0239
  289MOL0     O38916  -2.288   4.914   5.909 -0.1778 -0.0050  0.7872
  289MOL0     C38917  -2.398   4.921   5.826  0.5938  0.3938 -0.0282
  289MOL0     C38918  -2.487   4.797   5.860  1.1048  0.0338 -0.3362
  289MOL0     C38919  -2.612   4.791   5.770  0.1108 -0.5438  0.8208
  289MOL0     C38920  -2.664   4.648   5.768  0.1748 -0.7380  0.4780
  289MOL0     C38921  -2.809   4.668   5.718 -0.0822  0.3339  0.3358
  289MOL0     C38922  -2.889   4.536   5.725  0.3209  0.1161 -0.0362
  289MOL0     C38923  -2.941   4.508   5.863 -0.1775  0.1191  0.6113
  289MOL0     C38924  -3.042   4.396   5.853  0.3888 -0.3891 -0.4120
  289MOL0    Cl38925  -3.107   4.350   6.010  0.2307 -0.1699  0.0503
  289MOL0     C38926  -2.063   4.855   5.925  0.4376 -0.2269  0.6503
  289MOL0     C38927  -1.950   4.797   5.875  0.5623  0.7846  0.3893
  289MOL0     O38928  -1.722   4.823   5.656  0.3134  0.0169 -0.0746
  289MOL0     C38929  -1.562   4.534   5.737  0.2869 -0.3189  0.8632
  289MOL0     C38930  -1.439   4.468   5.722  0.8041 -0.0295  0.2978
  289MOL0     N38931  -0.704   4.254   5.193  0.0713 -0.5355  0.0230
  289MOL0     N38932  -0.619   4.313   5.117 -0.1138  0.9143 -0.1809
  289MOL0     C38933   0.507   4.749   4.903  0.8572 -0.3440 -0.9310
  289MOL0     C38934   0.638   4.705   4.872  0.4113 -0.1989 -0.3393
  289MOL0     C38935   0.979   4.423   4.810  0.3995  0.1763  0.1283
  289MOL0     C38936   1.076   4.373   4.904 -0.9102 -0.2633  0.2960
  289MOL0     C38937   1.200   4.329   4.856  0.1233 -0.0421  0.2947
  289MOL0     C38938   1.234   4.337   4.722 -0.0133 -0.2768  0.1308
  289MOL0     O38939   1.362   4.309   4.672  0.6305  0.4645 -0.5078
  289MOL0     C38940   1.471   4.281   4.764 -0.3003 -0.3929 -0.2503
  289MOL0     C38941   1.593   4.261   4.679 -0.4183 -0.3020 -0.4636
  289MOL0     C38942   1.717   4.216   4.761 -1.0732 -0.1696 -0.6155
  289MOL0     C38943   1.766   4.338   4.835  0.0325  0.3254  0.2980
  289MOL0     C38944   1.880   4.309   4.920 -1.1096  0.1616  0.5362
  289MOL0     C38945   1.971   4.269   4.991  0.8915 -0.1340 -0.1134
  289MOL0     C38946   1.134   4.387   4.632 -0.3234  0.3311  0.4388
  289MOL0     C38947   1.006   4.431   4.673 -0.6941 -0.4581  1.2181
  289MOL0     H38948   0.551   4.394   4.766 -1.4583  0.6255 -1.0311
  289MOL0     H38949   0.332   4.464   4.812  0.3313 -0.9094  0.3948
  289MOL0     H38950   0.163   4.645   4.766  1.3361 -0.8444  0.5289
  289MOL0     H38951   0.122   4.600   4.937 -0.3502  0.7627  1.1218
  289MOL0     H38952   0.068   4.846   4.967 -1.4085 -2.0246  1.3801
  289MOL0     H38953   0.061   4.870   4.791  1.9118  0.8501  0.2783
  289MOL0     H38954  -0.099   4.707   4.754  2.6787 -0.6456  0.1180
  289MOL0     H38955  -0.100   4.638   4.911  3.5521 -0.8891 -0.1991
  289MOL0     H38956  -0.179   4.910   4.962 -1.2311 -0.6102  1.5745
  289MOL0     H38957  -0.205   4.892   4.794  3.2815  1.0033 -0.1418
  289MOL0     H38958  -0.418   4.846   4.869  1.0259  0.5753  0.5306
  289MOL0     H38959  -0.347   4.680   4.859 -0.3825 -1.9916  2.4081
  289MOL0     H38960  -0.297   4.730   5.117  1.6561  0.4075 -1.8813
  289MOL0     H38961  -0.417   4.843   5.112  1.6786  0.2780  0.3540
  289MOL0     H38962  -0.592   4.698   5.141  1.3662  0.5684  0.9489
  289MOL0     H38963  -0.580   4.664   4.978  0.0893  0.5905  0.7964
  289MOL0     H38964  -0.399   4.529   5.182 -2.2281  0.1514  2.2240
  289MOL0     H38965  -0.425   4.463   5.026  1.7927  0.1741  0.5568
  289MOL0     H38966  -0.636   4.543   5.341 -1.0285  0.6481 -0.4184
  289MOL0     H38967  -0.837   4.217   5.396  0.7187  0.2041 -2.9359
  289MOL0     H38968  -0.753   4.332   5.497  0.4954  0.0489  0.5071
  289MOL0     H38969  -0.975   4.398   5.301  2.1166 -2.9374 -1.2215
  289MOL0     H38970  -0.896   4.517   5.410  0.9880 -0.2681 -0.7747
  289MOL0     H38971  -0.996   4.385   5.605  0.5717  0.4828  0.3468
  289MOL0     H38972  -1.068   4.272   5.478  0.0203 -0.0152 -0.0463
  289MOL0     H38973  -1.214   4.439   5.406 -0.3563 -0.4348  1.6502
  289MOL0     H38974  -1.125   4.562   5.501 -2.0217  0.9722  4.1241
  289MOL0     H38975  -1.342   4.607   5.425 -0.2884  1.5743  0.1057
  289MOL0     H38976  -1.524   4.839   5.457 -3.6124  2.2338 -0.8710
  289MOL0     H38977  -1.537   4.724   5.320  2.1904  4.8406 -0.1853
  289MOL0     H38978  -1.668   4.740   5.429 -0.2733  1.0522  0.9313
  289MOL0     H38979  -2.082   4.643   5.603  2.8662  2.9267 -1.6053
  289MOL0     H38980  -2.273   4.751   5.682  0.6767  2.7303 -1.0887
  289MOL0     H38981  -2.461   5.007   5.848  1.2738  1.0741 -0.6599
  289MOL0     H38982  -2.378   4.918   5.718  2.7755  0.9394  0.3202
  289MOL0     H38983  -2.429   4.708   5.834 -0.2494 -1.5061  1.6308
  289MOL0     H38984  -2.509   4.802   5.967  0.7784 -0.9490 -0.3482
  289MOL0     H38985  -2.594   4.809   5.663 -2.3692 -1.0262  0.2455
  289MOL0     H38986  -2.677   4.872   5.801  1.0322  0.4390  0.2622
  289MOL0     H38987  -2.597   4.591   5.703  1.2735  1.5281 -0.4977
  289MOL0     H38988  -2.662   4.602   5.867  2.5573 -1.1101  0.3180
  289MOL0     H38989  -2.791   4.699   5.614 -2.1156 -1.5698 -0.6928
  289MOL0     H38990  -2.875   4.738   5.772 -1.4329  0.0784 -0.9075
  289MOL0     H38991  -2.972   4.556   5.656 -0.3084  2.0062  1.2047
  289MOL0     H38992  -2.828   4.456   5.681 -0.5795  0.4970 -2.1059
  289MOL0     H38993  -2.974   4.601   5.909 -1.2527  1.2257 -2.1900
  289MOL0     H38994  -2.853   4.480   5.922 -0.6276 -0.1503  1.1756
  289MOL0     H38995  -3.006   4.301   5.813  0.9954 -0.6393  0.6597
  289MOL0     H38996  -3.116   4.431   5.781 -0.4555  2.3261  1.5726
  289MOL0     H38997  -2.059   4.910   6.018  1.0106  0.9085 -0.0208
  289MOL0     H38998  -1.855   4.820   5.922  1.1496  2.4201 -1.4485
  289MOL0     H38999  -1.628   4.504   5.818 -3.4952  3.2185 -0.5920
  289MOL0     H39000  -1.424   4.380   5.784 -1.0753 -0.7552 -0.2112
  289MOL0     H39001   0.493   4.847   4.946 -0.2421 -0.6795 -0.4747
  289MOL0     H39002   0.718   4.779   4.875  2.0409 -1.8856 -0.2022
  289MOL0     H39003   1.046   4.375   5.008 -1.0905 -2.2739  0.3291
  289MOL0     H39004   1.271   4.305   4.934 -0.4345  0.2203  0.8822
  289MOL0     H39005   1.483   4.366   4.831  0.8840 -0.5923 -0.1807
  289MOL0     H39006   1.453   4.190   4.821  1.5338  0.0171  1.0541
  289MOL0     H39007   1.608   4.354   4.623 -1.3076  2.2855  3.2802
  289MOL0     H39008   1.579   4.178   4.609  1.0772 -2.1529  1.2974
  289MOL0     H39009   1.788   4.187   4.684 -0.1832  1.1343 -0.3133
  289MOL0     H39010   1.693   4.137   4.833 -1.4656  0.5872  0.1021
  289MOL0     H39011   1.683   4.382   4.892 -1.2495  2.1032 -2.6765
  289MOL0     H39012   1.793   4.406   4.754 -1.4026  0.3739 -0.1776
  289MOL0     H39013   2.054   4.267   5.058  0.1826 -0.0912  0.7844
  289MOL0     H39014   1.153   4.404   4.526  0.7170  1.2715  0.7508
  289MOL0     H39015   0.937   4.477   4.603  2.1452  0.9557 -0.8668
  290MOL0     O39016   3.793  11.158   0.014  0.7960 -0.5260  0.4444
  290MOL0     C39017   3.792  11.038   0.044 -0.6118  0.5035  0.4050
  290MOL0     O39018   3.896  10.956   0.051 -0.3870  0.2757  0.8088
  290MOL0     C39019   4.025  11.001   0.032  0.5616 -0.2728  0.7603
  290MOL0     C39020   4.122  10.930   0.103 -0.4208  0.3952  0.8030
  290MOL0     C39021   4.257  10.958   0.092  0.4720 -0.1355 -0.2597
  290MOL0     C39022   4.303  11.047  -0.007 -0.0106  0.4260 -0.8412
  290MOL0     O39023   4.436  11.068  -0.035  0.5496 -0.8350 -0.1188
  290MOL0     C39024   4.531  10.987   0.035  0.1112 -0.0300  0.4690
  290MOL0     C39025   4.673  11.024  -0.021  1.1411  0.0728  0.8079
  290MOL0     C39026   4.688  11.042  -0.171 -1.3533 -0.1912  0.0163
  290MOL0     C39027   4.619  10.932  -0.250  0.0499 -0.1074 -0.4391
  290MOL0     C39028   4.683  10.926  -0.391  0.3128 -0.0335 -0.0144
  290MOL0     C39029   4.622  10.815  -0.480 -0.2180  0.5620 -0.3959
  290MOL0     C39030   4.684  10.825  -0.621  0.0028  0.2332  0.0862
  290MOL0     C39031   4.835  10.788  -0.614  0.2114  0.5546  0.2388
  290MOL0     N39032   4.894  10.708  -0.724  0.1763  0.4182  0.0087
  290MOL0     C39033   4.955  10.763  -0.831 -1.2390  0.3746  0.5203
  290MOL0     C39034   4.986  10.655  -0.904  0.4182 -0.0718  0.0913
  290MOL0     C39035   5.039  10.666  -1.049 -0.3868 -0.8441 -0.0357
  290MOL0     C39036   5.189  10.643  -1.060 -0.2098  1.1802 -1.4401
  290MOL0     C39037   5.216  10.615  -1.206  0.1855 -0.6389 -0.3964
  290MOL0     C39038   5.333  10.527  -1.215 -0.4087  0.1145  0.4651
  290MOL0     O39039   5.444  10.579  -1.138 -0.2295 -0.9182  0.0448
  290MOL0     C39040   5.569  10.558  -1.187  0.1210 -0.2951 -0.2991
  290MOL0     C39041   5.638  10.432  -1.179  0.3548 -0.2824 -0.7328
  290MOL0     C39042   5.764  10.413  -1.228  0.0866  0.0682 -0.0894
  290MOL0     C39043   5.830  10.284  -1.217 -0.4156  0.7389  0.4238
  290MOL0     C39044   5.817  10.528  -1.300 -0.0954 -0.1445 -0.0680
  290MOL0     C39045   5.954  10.519  -1.370  0.9538  0.0210  0.2512
  290MOL0     O39046   6.014  10.634  -1.405  0.5975  0.7197  0.3798
  290MOL0     C39047   6.117  10.630  -1.492 -1.5949 -0.4051  0.5661
  290MOL0     C39048   6.250  10.600  -1.444  0.1134  0.4383 -0.5276
  290MOL0     C39049   6.361  10.612  -1.530 -0.7542 -1.1096 -0.2938
  290MOL0     C39050   6.337  10.641  -1.665 -0.1784  0.7753 -0.5225
  290MOL0     O39051   6.447  10.645  -1.745 -0.8492 -0.0245 -0.8006
  290MOL0     C39052   6.469  10.751  -1.839 -0.3019  0.0100  0.8632
  290MOL0     C39053   6.619  10.747  -1.872 -0.4498  0.4724  0.4992
  290MOL0     C39054   6.663  10.606  -1.919  0.6105 -0.2558  0.7957
  290MOL0     C39055   6.816  10.609  -1.945 -0.2109 -0.2083  0.0191
  290MOL0     C39056   6.853  10.486  -2.013  0.6109  0.2428 -0.6572
  290MOL0     C39057   6.865  10.374  -1.904  0.5630 -0.4698  0.4331
  290MOL0     C39058   6.890  10.238  -1.953 -0.1525  0.7335  0.2235
  290MOL0     C39059   6.914  10.134  -1.840 -0.6681 -0.0420 -0.5276
  290MOL0    Cl39060   6.930   9.982  -1.931 -0.3057 -0.0825 -0.0262
  290MOL0     C39061   6.205  10.664  -1.715  0.0968 -1.2163  0.2524
  290MOL0     C39062   6.094  10.653  -1.623 -0.8509  0.0137  0.8991
  290MOL0     O39063   6.000  10.410  -1.400  0.4884 -0.2321  0.5209
  290MOL0     C39064   5.747  10.648  -1.317 -0.7349  1.1912 -0.5363
  290MOL0     C39065   5.627  10.660  -1.253  0.7682 -0.1225  0.1212
  290MOL0     N39066   4.959  10.532  -0.844 -0.4743 -0.3257 -0.1658
  290MOL0     N39067   4.906  10.568  -0.733  0.2018  0.1210  0.6265
  290MOL0     C39068   4.209  11.119  -0.080 -0.5159 -0.3403 -0.4036
  290MOL0     C39069   4.069  11.095  -0.066  0.0505 -0.2640  0.1352
  290MOL0     C39070   3.669  10.984   0.085 -0.1222 -1.1174 -0.4301
  290MOL0     C39071   3.559  11.069   0.102 -0.5440  0.3738  0.1993
  290MOL0     C39072   3.435  11.019   0.116  0.2050 -0.6506 -0.6013
  290MOL0     C39073   3.408  10.878   0.130 -0.1209  0.5255  0.7416
  290MOL0     O39074   3.283  10.816   0.158 -1.0397 -0.4552 -0.0327
  290MOL0     C39075   3.184  10.895   0.219  0.3889  0.4004 -0.4729
  290MOL0     C39076   3.134  10.816   0.338 -0.5911 -1.1970 -0.1303
  290MOL0     C39077   3.064  10.905   0.444  0.1757 -0.3874 -0.2554
  290MOL0     C39078   2.997  10.812   0.539 -0.1506  0.5034  0.0293
  290MOL0     C39079   3.092  10.710   0.592  0.5575 -0.6152 -0.6870
  290MOL0     C39080   3.153  10.633   0.652 -0.7568  0.6319  0.5330
  290MOL0     C39081   3.521  10.794   0.120 -0.2495 -0.4192 -0.3521
  290MOL0     C39082   3.647  10.848   0.098  0.6513  1.0106 -0.6359
  290MOL0     H39083   4.091  10.860   0.179 -0.0720 -1.4194 -0.6620
  290MOL0     H39084   4.335  10.898   0.139  3.3459 -0.4710 -4.7678
  290MOL0     H39085   4.525  11.006   0.142  0.7989 -2.3110  0.9701
  290MOL0     H39086   4.518  10.881   0.013  4.5813 -0.3829 -1.6107
  290MOL0     H39087   4.697  11.118   0.029 -0.2722  1.6661 -1.3213
  290MOL0     H39088   4.737  10.940   0.008  3.0572  1.4227  0.6515
  290MOL0     H39089   4.637  11.139  -0.180 -0.4110  0.2300 -1.0410
  290MOL0     H39090   4.792  11.059  -0.200 -2.5217  2.5281 -3.3132
  290MOL0     H39091   4.635  10.837  -0.199 -0.0194 -0.4012 -0.9590
  290MOL0     H39092   4.514  10.965  -0.254 -1.0451 -3.2462 -0.3926
  290MOL0     H39093   4.662  11.016  -0.448 -1.2467 -0.4496 -0.1448
  290MOL0     H39094   4.791  10.918  -0.373  0.2331 -0.0678  0.4639
  290MOL0     H39095   4.635  10.715  -0.437 -2.6091 -0.5464 -2.0364
  290MOL0     H39096   4.515  10.834  -0.481 -0.5999 -1.3331 -2.2652
  290MOL0     H39097   4.632  10.763  -0.694 -0.4948 -1.1338  1.5317
  290MOL0     H39098   4.676  10.926  -0.662 -0.6740 -0.8364 -2.6105
  290MOL0     H39099   4.862  10.737  -0.521  0.3762  1.0124  0.4499
  290MOL0     H39100   4.893  10.881  -0.621  0.8192  0.4400  2.6098
  290MOL0     H39101   4.974  10.867  -0.856 -4.3126  1.6125  2.7754
  290MOL0     H39102   4.992  10.593  -1.116  0.5873 -0.6870 -0.9071
  290MOL0     H39103   5.010  10.763  -1.090  0.0324 -1.0695 -0.9077
  290MOL0     H39104   5.211  10.549  -1.008 -1.1341  1.7984  0.1502
  290MOL0     H39105   5.248  10.716  -1.005 -1.4888  1.4938 -0.4254
  290MOL0     H39106   5.261  10.707  -1.243  2.3237 -0.7963  1.6049
  290MOL0     H39107   5.130  10.584  -1.266 -1.8867  1.1941  1.4695
  290MOL0     H39108   5.378  10.514  -1.313  1.9113 -0.8482  1.5847
  290MOL0     H39109   5.299  10.427  -1.188 -2.3405  0.3651 -0.8372
  290MOL0     H39110   5.602  10.345  -1.125  1.7539 -1.4558 -1.6396
  290MOL0     H39111   5.816  10.214  -1.300 -0.0868 -1.4966  2.1507
  290MOL0     H39112   5.936  10.282  -1.191 -0.6944  1.4677  1.7299
  290MOL0     H39113   5.792  10.229  -1.130 -0.0172 -0.4462 -0.1219
  290MOL0     H39114   6.258  10.568  -1.341  0.6383  0.0004 -0.7008
  290MOL0     H39115   6.463  10.593  -1.499  0.4930  3.0286 -1.2122
  290MOL0     H39116   6.412  10.747  -1.932  3.0322  0.5210 -1.3694
  290MOL0     H39117   6.459  10.850  -1.794 -1.6632 -0.2513  1.1806
  290MOL0     H39118   6.642  10.801  -1.964 -0.6756 -1.2484 -0.6135
  290MOL0     H39119   6.683  10.778  -1.788  0.9365  0.3849 -0.4875
  290MOL0     H39120   6.601  10.577  -2.004 -2.1963 -2.0196  3.2450
  290MOL0     H39121   6.637  10.530  -1.845 -1.3358 -1.1883 -0.7539
  290MOL0     H39122   6.840  10.690  -2.014 -0.1141  0.7987  1.1908
  290MOL0     H39123   6.877  10.634  -1.857 -0.7923  1.5906 -0.0418
  290MOL0     H39124   6.952  10.498  -2.057  0.2957 -2.5025 -2.3436
  290MOL0     H39125   6.777  10.462  -2.087 -2.0477  1.5438  1.4393
  290MOL0     H39126   6.949  10.408  -1.843  0.6646  0.4700 -0.1956
  290MOL0     H39127   6.768  10.374  -1.854 -0.1465  0.1520 -0.8911
  290MOL0     H39128   6.987  10.239  -2.003  1.2011  0.2538  2.6971
  290MOL0     H39129   6.812  10.198  -2.018  0.5139  1.5039 -1.0890
  290MOL0     H39130   6.822  10.123  -1.783 -0.9762  0.1316 -0.9833
  290MOL0     H39131   6.991  10.157  -1.766 -0.2119 -0.9505 -0.7100
  290MOL0     H39132   6.178  10.687  -1.817 -0.8196 -2.2634  0.2356
  290MOL0     H39133   5.992  10.679  -1.648 -1.1936  1.6078  3.6109
  290MOL0     H39134   5.787  10.735  -1.369  2.5580 -0.1305 -0.4674
  290MOL0     H39135   5.576  10.756  -1.248  0.7072 -0.1907  1.1339
  290MOL0     H39136   4.253  11.197  -0.141  1.2659 -0.3792  0.7539
  290MOL0     H39137   3.998  11.172  -0.094  1.0325  0.8993  0.7823
  290MOL0     H39138   3.575  11.176   0.102 -1.6073  0.5728  1.9056
  290MOL0     H39139   3.355  11.091   0.123 -1.2781 -2.3465  1.5493
  290MOL0     H39140   3.215  10.993   0.257 -0.3510  0.5319 -0.1918
  290MOL0     H39141   3.105  10.922   0.148 -0.1260  1.7300  0.5759
  290MOL0     H39142   3.228  10.770   0.370 -1.2443 -4.3780 -2.3397
  290MOL0     H39143   3.074  10.733   0.301  1.1341 -1.7791 -1.7691
  290MOL0     H39144   3.002  10.989   0.409  0.6395  1.4236  2.9132
  290MOL0     H39145   3.134  10.970   0.497  1.6747  1.6771 -4.2873
  290MOL0     H39146   2.921  10.751   0.490  1.4544 -1.3818 -0.2296
  290MOL0     H39147   2.949  10.863   0.623  0.3971 -1.0114  1.3215
  290MOL0     H39148   3.212  10.559   0.701  0.6539  1.2682 -0.1426
  290MOL0     H39149   3.505  10.688   0.134  0.0958 -0.4260  0.0164
  290MOL0     H39150   3.732  10.781   0.094  2.4548  2.9243  2.2127
  291MOL0     O39151   9.081   0.371   9.477  0.7900 -0.0495 -0.3441
  291MOL0     C39152   9.104   0.314   9.585 -1.1573 -0.3989 -0.4412
  291MOL0     O39153   9.014   0.271   9.676  0.0747  0.5188 -0.0450
  291MOL0     C39154   8.888   0.316   9.652  0.8561  0.8033  0.1725
  291MOL0     C39155   8.847   0.442   9.692 -1.1291  0.1641 -0.5720
  291MOL0     C39156   8.715   0.475   9.659 -0.3208 -0.9610 -0.2870
  291MOL0     C39157   8.620   0.388   9.595 -0.2064 -0.1926 -0.7515
  291MOL0     O39158   8.490   0.414   9.558 -0.1676  0.0522 -0.1250
  291MOL0     C39159   8.421   0.535   9.607 -0.1450 -1.2586 -0.0685
  291MOL0     C39160   8.275   0.524   9.563 -0.4096  0.0849  0.1497
  291MOL0     C39161   8.259   0.512   9.413 -0.2729  0.0272  0.1274
  291MOL0     C39162   8.115   0.540   9.373  0.4390  0.9186  0.2360
  291MOL0     C39163   8.095   0.532   9.218  0.0548 -0.1228  0.2248
  291MOL0     C39164   8.120   0.661   9.145 -0.3856 -0.1634  0.3160
  291MOL0     C39165   8.027   0.676   9.028 -0.7241  0.4025  0.1409
  291MOL0     C39166   7.891   0.726   9.075 -0.2894  0.1570  0.1490
  291MOL0     N39167   7.800   0.734   8.963 -0.5915 -0.2291 -0.2846
  291MOL0     C39168   7.771   0.631   8.871 -0.4035  0.7332  0.0167
  291MOL0     C39169   7.689   0.697   8.786  0.2414 -1.4759 -0.8666
  291MOL0     C39170   7.628   0.620   8.662 -0.7056 -0.9013 -0.2480
  291MOL0     C39171   7.482   0.640   8.626  0.6408  0.1327 -0.1226
  291MOL0     C39172   7.398   0.620   8.747  0.8199  0.1538 -0.7128
  291MOL0     C39173   7.248   0.665   8.718  0.0057 -0.0842  0.6817
  291MOL0     O39174   7.178   0.602   8.823  0.3951 -0.8073  0.2583
  291MOL0     C39175   7.043   0.611   8.827  0.5826  0.3985 -0.0108
  291MOL0     C39176   6.963   0.508   8.885 -1.0430 -0.3485 -1.1086
  291MOL0     C39177   6.821   0.516   8.893 -0.9353 -1.3101 -0.0502
  291MOL0     C39178   6.748   0.405   8.956 -0.0317  0.1245  0.3395
  291MOL0     C39179   6.768   0.631   8.823  1.2382  0.1779  0.2852
  291MOL0     C39180   6.628   0.656   8.817 -0.0543  0.6252  0.4885
  291MOL0     O39181   6.560   0.640   8.937  0.2725  0.3042  0.7781
  291MOL0     C39182   6.427   0.681   8.938  0.4662 -0.1161 -0.0061
  291MOL0     C39183   6.393   0.820   8.921 -0.2705  0.3536  0.7492
  291MOL0     C39184   6.262   0.852   8.943  0.8973  0.4088 -0.4456
  291MOL0     C39185   6.170   0.756   8.983 -0.0911 -0.5111 -0.2389
  291MOL0     O39186   6.036   0.768   8.992  0.4288 -0.0005 -0.7499
  291MOL0     C39187   5.972   0.891   8.956 -0.2908 -0.5044 -0.4013
  291MOL0     C39188   5.861   0.925   9.060 -0.2366 -0.3467  0.1150
  291MOL0     C39189   5.770   1.037   9.014  0.2064  0.0353  1.1081
  291MOL0     C39190   5.737   1.133   9.128  0.3592 -0.0831 -0.3718
  291MOL0     C39191   5.847   1.230   9.171 -0.0669  0.3965 -0.0398
  291MOL0     C39192   5.805   1.306   9.301  0.6372 -0.2085 -0.5859
  291MOL0     C39193   5.882   1.433   9.326  0.5157 -0.0603 -0.4779
  291MOL0     C39194   5.821   1.523   9.434 -1.3358 -0.1642 -0.4345
  291MOL0    Cl39195   5.692   1.606   9.354  0.1639 -0.1137  0.0744
  291MOL0     C39196   6.206   0.619   8.991  0.4934 -0.0905  0.4882
  291MOL0     C39197   6.339   0.580   8.979  0.3836  0.2948  0.9728
  291MOL0     O39198   6.573   0.692   8.712  0.3144 -0.1082  0.0143
  291MOL0     C39199   6.844   0.738   8.773 -0.8565 -0.0573 -1.1043
  291MOL0     C39200   6.980   0.732   8.773 -0.2017  0.1510  0.5351
  291MOL0     N39201   7.684   0.834   8.817  0.8200 -1.0001  0.9489
  291MOL0     N39202   7.750   0.854   8.924 -0.1407  0.8185  0.5212
  291MOL0     C39203   8.664   0.266   9.557 -0.7646  0.8577 -0.5055
  291MOL0     C39204   8.795   0.229   9.589 -1.2291 -0.7845  0.3649
  291MOL0     C39205   9.250   0.302   9.617 -0.7200  0.4832  0.9136
  291MOL0     C39206   9.347   0.364   9.531 -0.5456  0.4843 -0.0098
  291MOL0     C39207   9.483   0.345   9.554 -0.5686  0.3473 -0.1589
  291MOL0     C39208   9.525   0.246   9.644 -0.0581  0.7829  0.6167
  291MOL0     O39209   9.649   0.194   9.654 -0.2404 -0.1379 -0.0841
  291MOL0     C39210   9.758   0.297   9.646  0.5064 -0.4780 -0.2343
  291MOL0     C39211   9.892   0.244   9.691 -0.1209 -0.2117 -0.2503
  291MOL0     C39212   9.941   0.124   9.603  0.0184 -0.0032 -0.1740
  291MOL0     C39213  10.020   0.138   9.477 -0.5712 -0.4771  0.0849
  291MOL0     C39214  10.072   0.007   9.436  0.8656 -0.7485  0.2267
  291MOL0     C39215  10.108  -0.102   9.407 -0.2002  0.3514  0.5583
  291MOL0     C39216   9.441   0.198   9.736  0.3028 -1.0521  0.4027
  291MOL0     C39217   9.303   0.228   9.721 -0.8340  0.2016 -1.0435
  291MOL0     H39218   8.922   0.510   9.732 -0.2942 -0.5986 -0.7952
  291MOL0     H39219   8.700   0.581   9.679  0.1589 -1.2175  1.6483
  291MOL0     H39220   8.418   0.547   9.716  1.7461 -1.9620  0.0973
  291MOL0     H39221   8.473   0.626   9.576 -0.0205 -1.1739  0.3818
  291MOL0     H39222   8.240   0.433   9.611 -0.8856  2.0634  3.9681
  291MOL0     H39223   8.206   0.604   9.593 -0.6827  0.2370 -0.8339
  291MOL0     H39224   8.320   0.581   9.354 -1.8355 -0.5379 -2.3040
  291MOL0     H39225   8.284   0.408   9.388  3.1297  0.6279  0.4552
  291MOL0     H39226   8.052   0.464   9.419 -1.7903  2.5424  0.0038
  291MOL0     H39227   8.083   0.636   9.415 -0.5734 -0.2490  2.2590
  291MOL0     H39228   8.159   0.454   9.176 -0.1470  0.0320 -0.3748
  291MOL0     H39229   7.994   0.499   9.193  0.2988 -2.6231  2.0875
  291MOL0     H39230   8.106   0.753   9.203  0.1754 -1.0324  1.8913
  291MOL0     H39231   8.226   0.656   9.119 -0.6082 -1.3330 -0.4820
  291MOL0     H39232   8.076   0.745   8.960 -0.0413  0.4333  0.6494
  291MOL0     H39233   8.019   0.576   8.986  0.4432 -0.3448  1.5975
  291MOL0     H39234   7.911   0.830   9.103 -2.3458  0.7191 -0.2802
  291MOL0     H39235   7.840   0.681   9.161  1.1905  2.1733  2.2190
  291MOL0     H39236   7.796   0.526   8.871  0.9910  1.0487 -0.1387
  291MOL0     H39237   7.694   0.654   8.582  1.9138 -1.0572  1.7045
  291MOL0     H39238   7.639   0.511   8.669 -3.3675 -1.2933 -0.9277
  291MOL0     H39239   7.459   0.572   8.543  1.8333  0.5378 -0.8183
  291MOL0     H39240   7.474   0.745   8.594 -0.5320 -0.0669 -0.5022
  291MOL0     H39241   7.438   0.670   8.836  1.1897 -0.9726 -0.2284
  291MOL0     H39242   7.396   0.513   8.768  1.7107  0.2951  0.1727
  291MOL0     H39243   7.205   0.637   8.622  0.2176  0.4868  0.4136
  291MOL0     H39244   7.249   0.774   8.731  0.6412  0.3478 -2.3198
  291MOL0     H39245   7.021   0.425   8.924 -0.3253  0.2380 -0.9185
  291MOL0     H39246   6.817   0.332   9.000 -0.7239 -0.1529  0.9849
  291MOL0     H39247   6.676   0.445   9.028 -1.3471 -2.9098  0.8572
  291MOL0     H39248   6.688   0.353   8.880 -1.5839  2.9469 -0.5063
  291MOL0     H39249   6.469   0.894   8.900 -1.0894  0.5375 -1.8536
  291MOL0     H39250   6.245   0.959   8.936 -0.7961  0.1348 -1.0896
  291MOL0     H39251   6.043   0.975   8.951 -0.8975  0.0223 -0.3154
  291MOL0     H39252   5.948   0.881   8.850  2.0601  0.5082 -1.0971
  291MOL0     H39253   5.799   0.837   9.084 -1.0513 -0.1068 -1.0605
  291MOL0     H39254   5.913   0.955   9.152 -1.4265 -1.7819  1.3121
  291MOL0     H39255   5.672   1.008   8.975  0.8910 -0.3376 -0.3691
  291MOL0     H39256   5.812   1.097   8.933  1.4092 -1.1531  0.8241
  291MOL0     H39257   5.656   1.201   9.100  2.0205  2.2619  0.2058
  291MOL0     H39258   5.695   1.081   9.215  0.8077 -0.4427 -0.3689
  291MOL0     H39259   5.858   1.309   9.096  2.0338 -0.3217 -0.5461
  291MOL0     H39260   5.947   1.186   9.176 -0.8864 -1.8617 -1.6181
  291MOL0     H39261   5.699   1.331   9.295  0.0839 -2.6366 -3.6891
  291MOL0     H39262   5.820   1.244   9.391 -2.8106  1.7568  1.5675
  291MOL0     H39263   5.905   1.497   9.240 -2.7780  1.3577 -0.4329
  291MOL0     H39264   5.977   1.407   9.374  1.4366  3.2947 -0.2272
  291MOL0     H39265   5.895   1.592   9.474 -1.1437 -0.5770 -0.0683
  291MOL0     H39266   5.799   1.456   9.518  3.3074 -1.6289 -0.1347
  291MOL0     H39267   6.135   0.554   9.040  0.4302  0.2342  0.8344
  291MOL0     H39268   6.374   0.479   8.999  0.5120  0.0299 -0.4508
  291MOL0     H39269   6.799   0.827   8.729  0.6492  0.8577 -0.8912
  291MOL0     H39270   7.040   0.813   8.734  0.7237 -0.2397  1.1100
  291MOL0     H39271   8.594   0.201   9.505 -2.6291  2.9341 -0.7300
  291MOL0     H39272   8.837   0.137   9.551  1.4877  0.7623 -0.6544
  291MOL0     H39273   9.310   0.430   9.453  0.3543  0.8518 -0.1474
  291MOL0     H39274   9.562   0.389   9.494 -0.5778 -0.2392 -0.6092
  291MOL0     H39275   9.769   0.330   9.542  0.5222 -2.3300 -0.8423
  291MOL0     H39276   9.725   0.385   9.703 -2.3909 -1.5937 -0.0257
  291MOL0     H39277   9.892   0.208   9.794  3.6417 -1.7892 -0.6468
  291MOL0     H39278   9.970   0.322   9.686  0.9034 -1.2686 -2.0256
  291MOL0     H39279   9.854   0.059   9.585  2.6439 -4.0156  0.1811
  291MOL0     H39280  10.013   0.071   9.667  0.3125 -0.9996 -1.2852
  291MOL0     H39281  10.101   0.210   9.494  0.0715 -1.6373  2.2431
  291MOL0     H39282   9.960   0.180   9.396  2.2527  1.8191 -0.9861
  291MOL0     H39283  10.141  -0.191   9.358 -0.8421  0.6723 -0.4999
  291MOL0     H39284   9.473   0.136   9.819  2.3983 -1.8969 -0.9495
  291MOL0     H39285   9.228   0.197   9.793 -0.4276  3.5125  1.0009
  292MOL0     O39286   5.561  10.752   0.815 -0.1379 -0.3008  0.5579
  292MOL0     C39287   5.625  10.724   0.917 -0.8896  0.5585 -0.6163
  292MOL0     O39288   5.571  10.667   1.030  0.3881  0.2927  0.9242
  292MOL0     C39289   5.448  10.618   1.039 -0.8551 -0.0217  0.2761
  292MOL0     C39290   5.413  10.604   1.170  0.0472 -0.3673 -0.5802
  292MOL0     C39291   5.284  10.552   1.194 -0.1737 -0.5585 -0.4794
  292MOL0     C39292   5.202  10.498   1.100  0.3441 -0.2455  0.1602
  292MOL0     O39293   5.091  10.440   1.141 -0.1427  0.3166  0.5979
  292MOL0     C39294   4.993  10.413   1.040 -0.3418  0.2202 -0.4526
  292MOL0     C39295   4.885  10.313   1.086 -0.4024 -0.4298 -0.8530
  292MOL0     C39296   4.801  10.356   1.200  0.3084  0.6251 -0.7202
  292MOL0     C39297   4.702  10.249   1.248 -0.3832 -0.3266  0.4948
  292MOL0     C39298   4.605  10.308   1.351 -0.4165  0.0687  0.2424
  292MOL0     C39299   4.479  10.380   1.285  0.3987 -0.3212  0.0624
  292MOL0     C39300   4.370  10.410   1.390  0.7340  0.3984 -0.2419
  292MOL0     C39301   4.242  10.435   1.319  0.7417  0.4279  0.6524
  292MOL0     N39302   4.129  10.486   1.404 -0.4282  0.6097 -0.7516
  292MOL0     C39303   4.033  10.410   1.459  0.0433 -0.8454 -0.5997
  292MOL0     C39304   3.952  10.491   1.532 -0.3003 -1.0321 -0.0691
  292MOL0     C39305   3.839  10.444   1.619 -0.3638 -0.1590 -0.0327
  292MOL0     C39306   3.881  10.405   1.766  0.3108 -0.0312  0.5694
  292MOL0     C39307   3.774  10.327   1.832  0.0677 -0.1931 -0.3852
  292MOL0     C39308   3.832  10.258   1.958  0.1356  0.1289  0.8689
  292MOL0     O39309   3.729  10.172   2.020 -0.2561  0.3876 -0.0488
  292MOL0     C39310   3.643  10.205   2.113 -0.9976 -0.3494 -0.9862
  292MOL0     C39311   3.545  10.297   2.096  0.2062  1.0814 -0.7668
  292MOL0     C39312   3.470  10.333   2.209 -0.0479 -0.3508  0.4766
  292MOL0     C39313   3.364  10.434   2.187  0.4693 -0.6579 -0.7303
  292MOL0     C39314   3.471  10.261   2.330  0.0261 -0.2928 -1.0144
  292MOL0     C39315   3.389  10.284   2.452  0.2553  0.3449  0.6244
  292MOL0     O39316   3.253  10.308   2.429  0.5065  0.0481  0.5908
  292MOL0     C39317   3.178  10.363   2.531  1.1558  0.2297 -0.5752
  292MOL0     C39318   3.039  10.324   2.535  0.3336  0.0202 -0.1589
  292MOL0     C39319   2.938  10.389   2.615  0.8984 -0.8794  0.0831
  292MOL0     C39320   2.977  10.490   2.697 -0.8653  0.6852  0.1064
  292MOL0     O39321   2.891  10.558   2.776 -0.3151 -0.4393  0.5813
  292MOL0     C39322   2.784  10.497   2.853 -0.1151  0.5604  1.0525
  292MOL0     C39323   2.665  10.596   2.867 -0.1223 -0.0785 -0.4649
  292MOL0     C39324   2.560  10.555   2.975 -1.0263 -1.0034  1.1323
  292MOL0     C39325   2.440  10.480   2.928  0.1660 -0.1175 -0.5555
  292MOL0     C39326   2.339  10.570   2.854 -0.1665 -0.0559 -0.2445
  292MOL0     C39327   2.269  10.677   2.932 -0.6417 -0.0103  0.1175
  292MOL0     C39328   2.129  10.620   2.969 -0.8021 -0.4334 -0.3486
  292MOL0     C39329   2.064  10.730   3.067 -0.5314 -0.0709  0.0469
  292MOL0    Cl39330   1.901  10.684   3.137 -0.0588 -0.1018 -0.4573
  292MOL0     C39331   3.114  10.530   2.688  0.2075 -0.6916  0.3401
  292MOL0     C39332   3.207  10.461   2.619 -0.1262  0.0448  0.3614
  292MOL0     O39333   3.439  10.274   2.566 -0.2963 -0.4082  0.2498
  292MOL0     C39334   3.564  10.148   2.341 -0.2975 -0.3769 -0.5683
  292MOL0     C39335   3.652  10.131   2.238 -0.1975 -0.3841  0.0833
  292MOL0     N39336   4.010  10.616   1.524 -0.2092  0.1576 -0.4639
  292MOL0     N39337   4.116  10.608   1.452  0.4526 -0.5919  0.0125
  292MOL0     C39338   5.239  10.518   0.966  0.2584  0.3693 -0.4038
  292MOL0     C39339   5.363  10.577   0.935 -0.1430 -0.1028 -1.0670
  292MOL0     C39340   5.767  10.760   0.929 -0.4210 -0.5563 -0.8758
  292MOL0     C39341   5.846  10.739   1.041 -0.2835 -0.8738  0.4127
  292MOL0     C39342   5.983  10.773   1.044  0.0162  0.0987 -0.2280
  292MOL0     C39343   6.048  10.815   0.937 -0.0171  0.0536  0.9922
  292MOL0     O39344   6.186  10.832   0.926 -0.3433  0.2820 -0.0837
  292MOL0     C39345   6.233  10.955   0.969  0.2331  0.1029  0.4744
  292MOL0     C39346   6.384  11.003   0.937  0.1074 -0.1242  0.9979
  292MOL0     C39347   6.424  10.950   0.802 -0.3258 -0.3135  0.1892
  292MOL0     C39348   6.547  11.014   0.743  0.2327 -0.2979 -0.8270
  292MOL0     C39349   6.657  11.013   0.841 -0.1061  0.2887 -0.0020
  292MOL0     C39350   6.752  11.020   0.925 -0.4071  0.7863  0.1069
  292MOL0     C39351   5.969  10.829   0.815 -0.3867 -0.3751 -0.0012
  292MOL0     C39352   5.835  10.804   0.815 -0.0386 -0.4385  1.1292
  292MOL0     H39353   5.472  10.632   1.256 -1.3589 -1.0415  0.6420
  292MOL0     H39354   5.256  10.565   1.298 -2.2405 -1.5396 -0.8666
  292MOL0     H39355   4.940  10.503   1.005 -2.0855 -0.9859 -1.0761
  292MOL0     H39356   5.029  10.370   0.946  2.1477  1.2223 -0.0208
  292MOL0     H39357   4.824  10.293   0.997 -1.2741  2.1818 -0.9195
  292MOL0     H39358   4.934  10.221   1.118 -0.2065  0.2062  0.7215
  292MOL0     H39359   4.860  10.380   1.289 -0.6154  0.2922  0.0080
  292MOL0     H39360   4.745  10.441   1.161  1.6109  1.5863 -0.5517
  292MOL0     H39361   4.656  10.201   1.162 -2.5133  2.1377  0.1288
  292MOL0     H39362   4.762  10.178   1.305  1.7667  0.0768 -1.1296
  292MOL0     H39363   4.572  10.231   1.422  1.8832 -1.8312 -0.6292
  292MOL0     H39364   4.659  10.388   1.404  0.3072  0.1397 -0.5897
  292MOL0     H39365   4.513  10.469   1.232  0.5464  0.4313  1.3857
  292MOL0     H39366   4.433  10.316   1.209 -3.3372  2.5792 -0.3935
  292MOL0     H39367   4.356  10.324   1.456  0.1955  1.2845  0.8277
  292MOL0     H39368   4.400  10.486   1.463  0.0285  0.1030  0.3710
  292MOL0     H39369   4.210  10.336   1.286 -0.3035 -1.3945  6.0326
  292MOL0     H39370   4.250  10.498   1.231 -3.1901 -1.7395 -1.5639
  292MOL0     H39371   4.006  10.307   1.435 -0.2167 -1.4191  1.9112
  292MOL0     H39372   3.771  10.528   1.634 -1.8448 -1.3208 -0.0356
  292MOL0     H39373   3.782  10.362   1.574 -0.9376 -0.6582  1.5415
  292MOL0     H39374   3.912  10.487   1.831 -0.5476 -0.7035  1.8684
  292MOL0     H39375   3.960  10.330   1.760  1.0380  0.7295  0.3390
  292MOL0     H39376   3.750  10.239   1.772 -0.3858 -0.5874  0.3646
  292MOL0     H39377   3.685  10.384   1.859  0.0393 -1.2327  1.8757
  292MOL0     H39378   3.868  10.329   2.033  1.4873  0.5267 -0.1123
  292MOL0     H39379   3.904  10.183   1.925  0.0166  0.2043  0.4282
  292MOL0     H39380   3.548  10.347   2.000 -0.6493  1.2759 -0.7004
  292MOL0     H39381   3.350  10.494   2.277 -1.8664 -2.3694  0.1744
  292MOL0     H39382   3.380  10.508   2.109 -0.1581  1.0850  0.7352
  292MOL0     H39383   3.273  10.383   2.151  2.9265 -4.4961 -2.1185
  292MOL0     H39384   3.002  10.256   2.459 -1.7758  0.2931  0.5536
  292MOL0     H39385   2.835  10.359   2.603  0.4852  0.5553 -0.2089
  292MOL0     H39386   2.744  10.404   2.811  0.4607  0.2556  1.1620
  292MOL0     H39387   2.818  10.464   2.952 -2.1578 -0.2919  1.5158
  292MOL0     H39388   2.706  10.689   2.906  1.9497 -1.4787  0.8413
  292MOL0     H39389   2.609  10.605   2.773 -0.4892  0.8957 -0.1675
  292MOL0     H39390   2.533  10.646   3.030  0.9161 -0.4137  1.1769
  292MOL0     H39391   2.604  10.498   3.058 -0.3769 -0.5732  1.0891
  292MOL0     H39392   2.467  10.390   2.870  1.0579  0.6218 -1.3241
  292MOL0     H39393   2.378  10.444   3.011 -2.5216  1.2604 -1.8348
  292MOL0     H39394   2.266  10.506   2.804 -0.2788 -0.6880  0.6953
  292MOL0     H39395   2.392  10.614   2.770 -3.7215  0.4539 -2.4371
  292MOL0     H39396   2.319  10.692   3.028 -2.0021  0.4537  0.7633
  292MOL0     H39397   2.273  10.774   2.882  0.9688  0.2117  0.6012
  292MOL0     H39398   2.138  10.526   3.024  1.2967 -0.4441 -0.5993
  292MOL0     H39399   2.068  10.606   2.880 -0.8675  1.2036 -0.5884
  292MOL0     H39400   2.049  10.815   3.000 -0.9227 -1.0497 -1.1496
  292MOL0     H39401   2.135  10.752   3.148 -2.7202 -1.0065  2.3386
  292MOL0     H39402   3.150  10.604   2.758 -1.7166 -0.4074  1.0971
  292MOL0     H39403   3.312  10.491   2.624 -0.0907  1.0714 -3.4081
  292MOL0     H39404   3.568  10.090   2.432 -3.8793 -1.1150 -0.7350
  292MOL0     H39405   3.737  10.065   2.225  0.6376  1.1669 -3.8354
  292MOL0     H39406   5.189  10.477   0.878  1.1209  0.0956 -0.7794
  292MOL0     H39407   5.400  10.586   0.834  1.5605 -3.1632 -0.8058
  292MOL0     H39408   5.796  10.702   1.130  0.8118 -0.7004  1.1362
  292MOL0     H39409   6.047  10.748   1.128  1.2752  1.2067 -0.8177
  292MOL0     H39410   6.168  11.026   0.916  1.1751 -0.4085 -1.4763
  292MOL0     H39411   6.220  10.969   1.077  2.8701  0.2812  0.8417
  292MOL0     H39412   6.453  10.975   1.017  1.7197  2.1585  0.4989
  292MOL0     H39413   6.382  11.112   0.939  2.1582 -0.0467  1.1508
  292MOL0     H39414   6.343  10.957   0.729  0.8871  3.4605 -1.0518
  292MOL0     H39415   6.450  10.844   0.815  3.9050  0.3007 -1.5413
  292MOL0     H39416   6.530  11.120   0.723  1.2983  0.4956  1.9360
  292MOL0     H39417   6.582  10.963   0.653  0.4905 -0.1079 -0.8374
  292MOL0     H39418   6.824  11.013   1.004 -1.0755 -2.5007  0.5497
  292MOL0     H39419   6.017  10.849   0.720 -0.4537  0.0512  0.0539
  292MOL0     H39420   5.784  10.806   0.719  0.2587 -0.0572  0.9762
  293MOL0     O39421   2.117   0.387   2.405  0.5959 -0.4245 -0.0070
  293MOL0     C39422   2.066   0.328   2.500  0.5356 -0.4318  0.3749
  293MOL0     O39423   2.129   0.260   2.596  0.1737  0.0476 -0.0636
  293MOL0     C39424   2.256   0.213   2.589 -0.9197  0.1824 -0.2209
  293MOL0     C39425   2.335   0.221   2.705  0.3761 -0.2654 -0.1708
  293MOL0     C39426   2.472   0.188   2.719  0.2239  0.9629  0.2793
  293MOL0     C39427   2.522   0.128   2.606  0.0723  0.7375 -0.3961
  293MOL0     O39428   2.651   0.083   2.611  0.7680 -0.4189  0.0694
  293MOL0     C39429   2.746   0.190   2.649 -0.2555 -0.7603  0.6840
  293MOL0     C39430   2.876   0.164   2.595  0.0944  0.2995 -0.3792
  293MOL0     C39431   2.981   0.267   2.633  0.2264 -0.4072  0.7199
  293MOL0     C39432   3.102   0.243   2.546 -1.2324  0.6256  0.2998
  293MOL0     C39433   3.090   0.317   2.410  0.3018 -0.4626 -0.5379
  293MOL0     C39434   3.231   0.331   2.336  0.3557  0.7711 -0.5560
  293MOL0     C39435   3.216   0.382   2.189 -0.5458  1.0464 -0.7213
  293MOL0     C39436   3.339   0.394   2.099  0.3806 -0.0634  0.5724
  293MOL0     N39437   3.456   0.456   2.155 -0.0984 -0.5480 -0.7383
  293MOL0     C39438   3.523   0.419   2.269 -0.2971  0.3569  0.4865
  293MOL0     C39439   3.635   0.498   2.267 -0.2867  0.5949  0.0172
  293MOL0     C39440   3.741   0.492   2.368 -0.4834 -0.7011  1.0416
  293MOL0     C39441   3.687   0.549   2.503  0.3014 -0.0748  0.4262
  293MOL0     C39442   3.702   0.705   2.505  0.3102  0.7697 -0.2420
  293MOL0     C39443   3.594   0.785   2.418 -0.4743  0.1183  0.5887
  293MOL0     O39444   3.454   0.738   2.445  0.5451 -0.6809  0.5756
  293MOL0     C39445   3.354   0.759   2.358  0.9540  0.0347  0.7334
  293MOL0     C39446   3.227   0.730   2.402  0.3577  0.2619 -0.1659
  293MOL0     C39447   3.110   0.764   2.329  0.8007 -0.1529  0.1105
  293MOL0     C39448   2.987   0.726   2.393  0.0372  0.0477 -0.6366
  293MOL0     C39449   3.121   0.811   2.200  0.7288 -0.2954 -0.4324
  293MOL0     C39450   3.000   0.840   2.116  0.0984  0.3139  0.2443
  293MOL0     O39451   3.025   0.827   1.978 -0.1110  0.2608  0.3501
  293MOL0     C39452   2.919   0.845   1.890  0.2934 -0.0057 -0.6538
  293MOL0     C39453   2.927   0.935   1.788 -0.2228  0.8136  0.6477
  293MOL0     C39454   2.816   0.951   1.694 -0.2817  0.2822  0.1717
  293MOL0     C39455   2.705   0.872   1.704 -0.9124 -0.1037  0.1699
  293MOL0     O39456   2.600   0.894   1.619 -0.2117 -0.6549  0.8171
  293MOL0     C39457   2.467   0.878   1.666 -0.1145  0.4192  0.2306
  293MOL0     C39458   2.430   0.973   1.783  0.2971  0.8342 -0.4051
  293MOL0     C39459   2.281   0.972   1.824 -0.2972  0.4504  0.0204
  293MOL0     C39460   2.217   0.834   1.820  0.0761  0.3919  0.1540
  293MOL0     C39461   2.082   0.823   1.887  1.0190  0.0922  0.0258
  293MOL0     C39462   1.966   0.904   1.816  0.2414 -0.9446  0.1270
  293MOL0     C39463   1.850   0.952   1.904  0.9656 -0.3162  0.7980
  293MOL0     C39464   1.898   1.060   2.004 -0.6018 -0.2837  0.3498
  293MOL0    Cl39465   1.797   1.055   2.141 -0.0600 -0.1222  0.1124
  293MOL0     C39466   2.702   0.769   1.805  0.0443 -0.3662  1.0145
  293MOL0     C39467   2.806   0.762   1.906  0.5795  0.9299  0.0038
  293MOL0     O39468   2.900   0.890   2.166  0.4850 -0.8196 -0.0217
  293MOL0     C39469   3.249   0.838   2.155  0.8970 -0.3859 -0.0362
  293MOL0     C39470   3.367   0.810   2.226  0.0235  0.3343 -1.4341
  293MOL0     N39471   3.642   0.570   2.147 -0.4126  0.5535 -0.2656
  293MOL0     N39472   3.535   0.537   2.091 -0.5190  0.1951  0.8329
  293MOL0     C39473   2.451   0.113   2.486  0.7595 -0.2024  0.2184
  293MOL0     C39474   2.313   0.152   2.476 -0.6281  0.1668 -0.0075
  293MOL0     C39475   1.915   0.312   2.497  0.2487  0.1535 -0.2392
  293MOL0     C39476   1.829   0.400   2.421 -0.4349 -0.7245 -0.7869
  293MOL0     C39477   1.692   0.376   2.406  0.1739 -0.1388  0.0821
  293MOL0     C39478   1.633   0.266   2.470  0.5676  0.0140  0.2100
  293MOL0     O39479   1.502   0.214   2.446 -0.1313 -1.3565  0.7873
  293MOL0     C39480   1.415   0.303   2.366 -0.2571 -0.9718 -0.2480
  293MOL0     C39481   1.270   0.253   2.360  0.0560  0.9070 -0.0853
  293MOL0     C39482   1.179   0.339   2.271 -0.1321  0.2255  0.3112
  293MOL0     C39483   1.034   0.299   2.277  0.4900 -0.4001  0.6923
  293MOL0     C39484   1.013   0.153   2.262  0.4446  0.1754  0.1347
  293MOL0     C39485   0.987   0.036   2.253 -0.7278 -0.2512  0.5915
  293MOL0     C39486   1.708   0.191   2.564  0.3511  0.6546  0.6664
  293MOL0     C39487   1.848   0.210   2.569  0.1405 -0.0463  0.7728
  293MOL0     H39488   2.288   0.281   2.782  0.8801  2.6547 -2.0133
  293MOL0     H39489   2.532   0.206   2.808 -2.1190  2.7872  1.5907
  293MOL0     H39490   2.717   0.281   2.595  4.3656  0.5987  0.0863
  293MOL0     H39491   2.759   0.217   2.754 -0.5001  3.8349 -0.2789
  293MOL0     H39492   2.897   0.064   2.633 -0.8537  0.8661  1.7537
  293MOL0     H39493   2.862   0.166   2.486 -2.0461  1.6873 -0.1226
  293MOL0     H39494   2.956   0.373   2.640  0.0926 -0.4312  0.6097
  293MOL0     H39495   3.005   0.247   2.738  4.0044  0.6539  0.2217
  293MOL0     H39496   3.186   0.285   2.602 -0.5251 -1.6136  0.9997
  293MOL0     H39497   3.115   0.136   2.530 -0.4214  0.5049  1.6362
  293MOL0     H39498   3.025   0.259   2.345  1.7716 -2.5482 -0.2525
  293MOL0     H39499   3.058   0.418   2.437  0.3812 -1.0903  2.2369
  293MOL0     H39500   3.294   0.394   2.400  0.5121 -0.4407  0.5353
  293MOL0     H39501   3.278   0.232   2.343 -2.1106 -0.3843  1.4097
  293MOL0     H39502   3.142   0.332   2.127  0.1348  0.6615 -1.2337
  293MOL0     H39503   3.188   0.485   2.214 -0.3192  1.1046 -0.7088
  293MOL0     H39504   3.311   0.449   2.008  1.2385  1.5850  1.2572
  293MOL0     H39505   3.359   0.290   2.073 -0.0463  0.3758 -1.7530
  293MOL0     H39506   3.496   0.358   2.355 -1.1228 -0.2601 -0.1862
  293MOL0     H39507   3.770   0.387   2.369 -1.6166 -1.0772 -0.8184
  293MOL0     H39508   3.822   0.553   2.325 -1.3183  0.4452  1.0535
  293MOL0     H39509   3.748   0.502   2.581 -0.6939  1.1993  2.0128
  293MOL0     H39510   3.585   0.517   2.523 -1.2252  1.2498 -4.0032
  293MOL0     H39511   3.807   0.731   2.484  1.1011 -0.8293  1.4367
  293MOL0     H39512   3.687   0.737   2.609 -0.6790  2.1014 -0.7701
  293MOL0     H39513   3.620   0.761   2.314 -2.9927 -2.6911  0.4605
  293MOL0     H39514   3.603   0.892   2.437 -0.4679  0.6769 -2.0635
  293MOL0     H39515   3.224   0.687   2.501  0.6160  0.1846 -0.1896
  293MOL0     H39516   2.938   0.644   2.341  0.1745 -2.6530  3.0654
  293MOL0     H39517   3.005   0.687   2.494 -0.5878  0.3972 -0.3842
  293MOL0     H39518   2.923   0.814   2.405 -2.0029 -1.6831  2.8187
  293MOL0     H39519   3.018   0.994   1.792  1.7432 -1.8654 -1.0438
  293MOL0     H39520   2.834   1.027   1.618  0.3247 -1.0432 -1.0465
  293MOL0     H39521   2.406   0.914   1.583 -0.5272 -0.9267 -0.0654
  293MOL0     H39522   2.451   0.771   1.681 -2.2769  0.6818  0.1127
  293MOL0     H39523   2.487   0.933   1.868  3.2593 -0.0662 -2.6269
  293MOL0     H39524   2.471   1.072   1.761  2.0120  0.5047  1.0533
  293MOL0     H39525   2.233   1.035   1.748  1.0836 -0.3276 -1.5704
  293MOL0     H39526   2.276   1.014   1.925 -2.0846  1.1963 -0.3488
  293MOL0     H39527   2.203   0.801   1.717 -1.3212 -0.4394  0.5733
  293MOL0     H39528   2.290   0.769   1.870 -0.5775  0.6860  1.5488
  293MOL0     H39529   2.106   0.854   1.989 -0.4013 -1.3410  0.8417
  293MOL0     H39530   2.048   0.719   1.892  0.3418  0.2140 -1.5002
  293MOL0     H39531   2.016   0.998   1.789 -0.7194  0.0860  1.7625
  293MOL0     H39532   1.934   0.849   1.727 -0.2739  0.0648 -0.3272
  293MOL0     H39533   1.800   0.874   1.963 -3.2815  1.1131 -0.5622
  293MOL0     H39534   1.769   0.995   1.846  0.8815 -0.2630  0.9540
  293MOL0     H39535   1.904   1.159   1.958 -0.2709 -0.5312 -0.1563
  293MOL0     H39536   2.001   1.037   2.034  0.0410  0.8170 -0.8894
  293MOL0     H39537   2.619   0.703   1.827 -0.3403  0.2028  1.3082
  293MOL0     H39538   2.792   0.704   1.997  1.4239  0.6079 -0.0561
  293MOL0     H39539   3.257   0.872   2.053 -2.1570  1.5837  0.2227
  293MOL0     H39540   3.465   0.831   2.185  1.5734  3.4532  3.0782
  293MOL0     H39541   2.482   0.068   2.392 -0.0785 -1.6544  0.5941
  293MOL0     H39542   2.240   0.124   2.401 -1.0192 -1.6217  0.9739
  293MOL0     H39543   1.873   0.486   2.371 -1.1971 -0.1022 -0.4128
  293MOL0     H39544   1.641   0.445   2.340 -0.0022  1.7084  2.0373
  293MOL0     H39545   1.420   0.403   2.409  0.1232 -1.1857  0.2105
  293MOL0     H39546   1.442   0.316   2.261 -0.2069  3.6181  0.1454
  293MOL0     H39547   1.226   0.251   2.460 -1.3360  0.6740 -0.6872
  293MOL0     H39548   1.270   0.151   2.320 -4.0278  0.8488 -0.3800
  293MOL0     H39549   1.214   0.323   2.169  2.3266  0.1316  1.0853
  293MOL0     H39550   1.191   0.443   2.303  2.1187  0.1149  0.0516
  293MOL0     H39551   0.974   0.355   2.204 -1.6472 -1.9308  1.1874
  293MOL0     H39552   0.997   0.327   2.375 -0.0743  0.7738  0.1608
  293MOL0     H39553   0.992  -0.071   2.242  1.0773 -0.1556  0.1683
  293MOL0     H39554   1.661   0.117   2.629 -1.1757  0.8789 -0.1300
  293MOL0     H39555   1.912   0.144   2.627  0.4555  1.5688  2.3382
  294MOL0     O39556   9.376   4.315   7.110 -0.7194 -0.1175 -0.3809
  294MOL0     C39557   9.420   4.327   6.999  0.3722 -0.2167  0.0582
  294MOL0     O39558   9.342   4.349   6.889 -0.0053  0.5138  0.2088
  294MOL0     C39559   9.203   4.353   6.881 -0.2432 -0.0788 -0.0258
  294MOL0     C39560   9.147   4.338   6.749  0.2932 -0.1867 -0.6532
  294MOL0     C39561   9.003   4.346   6.735  0.1528 -0.4437 -0.3720
  294MOL0     C39562   8.920   4.369   6.847  0.3934  0.6684 -0.1964
  294MOL0     O39563   8.781   4.386   6.847 -0.8377 -0.0496 -0.5849
  294MOL0     C39564   8.718   4.361   6.725  0.9714  0.2915  0.0698
  294MOL0     C39565   8.572   4.404   6.729  0.9684  0.4137 -0.3708
  294MOL0     C39566   8.492   4.313   6.822  0.0984  0.5847 -0.7055
  294MOL0     C39567   8.336   4.346   6.821  0.6597  0.1703 -0.1178
  294MOL0     C39568   8.239   4.232   6.779 -0.5119  0.0871 -0.4314
  294MOL0     C39569   8.226   4.125   6.892  0.1984  0.6904  0.1541
  294MOL0     C39570   8.147   3.994   6.859  0.5339  0.1243  0.0210
  294MOL0     C39571   7.988   4.032   6.848 -0.6210 -0.6207  0.1708
  294MOL0     N39572   7.910   3.927   6.783 -0.2046 -0.0712  0.0640
  294MOL0     C39573   7.873   3.814   6.853 -0.0476 -1.3664  0.8323
  294MOL0     C39574   7.806   3.744   6.764 -0.0686 -0.0791  0.4561
  294MOL0     C39575   7.731   3.624   6.790 -0.0549 -0.0878 -0.2091
  294MOL0     C39576   7.583   3.649   6.834 -1.4900 -0.2022  0.2413
  294MOL0     C39577   7.512   3.713   6.714  0.1740  0.0575 -0.3544
  294MOL0     C39578   7.526   3.624   6.577  0.3984  0.2608  0.4720
  294MOL0     O39579   7.414   3.665   6.498 -0.6212 -0.2258  0.2285
  294MOL0     C39580   7.404   3.808   6.465 -0.2267  0.0193  0.4597
  294MOL0     C39581   7.278   3.865   6.468 -1.0375  0.0916 -0.3135
  294MOL0     C39582   7.260   3.998   6.440  0.0057 -0.2839  0.4400
  294MOL0     C39583   7.112   4.043   6.450  0.6489 -0.0904 -0.5249
  294MOL0     C39584   7.374   4.087   6.434 -0.9397  0.1857 -0.3106
  294MOL0     C39585   7.374   4.229   6.448  0.1315 -0.9340  1.0997
  294MOL0     O39586   7.480   4.300   6.389  0.2047 -0.0855  0.1672
  294MOL0     C39587   7.490   4.437   6.407  0.2978  0.1238  0.1212
  294MOL0     C39588   7.627   4.477   6.439 -0.6939 -0.1953 -0.1910
  294MOL0     C39589   7.657   4.612   6.454 -0.4723 -0.7092  0.7469
  294MOL0     C39590   7.558   4.709   6.442  0.4860  0.1087 -0.1021
  294MOL0     O39591   7.582   4.842   6.452 -0.6896  0.3187 -0.5487
  294MOL0     C39592   7.720   4.896   6.450  0.1730 -0.1367 -0.0995
  294MOL0     C39593   7.708   5.044   6.488  0.8148 -0.1043 -0.3970
  294MOL0     C39594   7.605   5.116   6.399  0.5918  0.1887 -0.2339
  294MOL0     C39595   7.625   5.273   6.402 -1.0715  0.4351  0.7004
  294MOL0     C39596   7.529   5.351   6.314 -0.3163 -0.3095 -1.0114
  294MOL0     C39597   7.526   5.502   6.334  1.1473 -0.3128  0.6364
  294MOL0     C39598   7.441   5.565   6.221 -0.1190  0.0958 -0.0315
  294MOL0     C39599   7.518   5.611   6.097 -1.1548 -0.1058  0.3484
  294MOL0    Cl39600   7.625   5.740   6.148 -0.1657  0.1657  0.3704
  294MOL0     C39601   7.435   4.672   6.407  0.2605 -0.5527  0.9299
  294MOL0     C39602   7.398   4.539   6.384  1.2900  0.2577 -0.0133
  294MOL0     O39603   7.272   4.278   6.489  0.0545  0.3850 -0.0423
  294MOL0     C39604   7.509   4.025   6.425  1.0889 -0.3600  0.1702
  294MOL0     C39605   7.520   3.889   6.443  0.1541 -0.1111  0.0261
  294MOL0     N39606   7.822   3.812   6.640  0.2352 -0.5433  0.6012
  294MOL0     N39607   7.881   3.924   6.650 -0.4841 -0.5933 -0.8265
  294MOL0     C39608   8.984   4.370   6.972  0.2900 -0.1718  0.4525
  294MOL0     C39609   9.122   4.367   6.988 -0.2734 -0.2269 -1.1886
  294MOL0     C39610   9.561   4.321   6.970 -0.0642  0.3728  0.4461
  294MOL0     C39611   9.612   4.316   6.837  0.0236 -0.0157 -0.1337
  294MOL0     C39612   9.742   4.321   6.820 -0.3346 -0.4949 -0.5866
  294MOL0     C39613   9.827   4.326   6.929 -0.5278 -0.0307  0.8681
  294MOL0     O39614   9.961   4.344   6.905  0.2962  0.6943  0.3617
  294MOL0     C39615  10.060   4.341   7.007 -0.5511 -0.5537 -0.4742
  294MOL0     C39616  10.201   4.353   6.938  0.0687 -0.0010 -0.4315
  294MOL0     C39617  10.225   4.500   6.884 -0.2666 -0.8105 -0.4334
  294MOL0     C39618  10.372   4.529   6.844  0.7470  1.1855  0.0553
  294MOL0     C39619  10.419   4.654   6.897 -0.7324 -0.2625 -0.1630
  294MOL0     C39620  10.448   4.768   6.939  0.1156 -0.0863  0.3883
  294MOL0     C39621   9.779   4.320   7.066  0.1874  0.9840 -0.2684
  294MOL0     C39622   9.643   4.307   7.088  0.8099  0.1404  0.0979
  294MOL0     H39623   9.205   4.300   6.666 -0.7583 -0.3400 -1.3364
  294MOL0     H39624   8.956   4.339   6.637 -0.3105  0.4407 -0.2262
  294MOL0     H39625   8.764   4.403   6.635  0.4455 -0.0584 -0.3664
  294MOL0     H39626   8.724   4.255   6.699  1.1990  0.7825 -2.1212
  294MOL0     H39627   8.548   4.504   6.767 -0.3867 -0.0342  0.0289
  294MOL0     H39628   8.525   4.378   6.634 -2.2591  1.6503  0.7441
  294MOL0     H39629   8.516   4.211   6.791  1.1003  0.6161 -0.0440
  294MOL0     H39630   8.526   4.332   6.924  1.6944  1.8408 -1.4390
  294MOL0     H39631   8.317   4.380   6.924  1.7757 -0.0012  0.1650
  294MOL0     H39632   8.302   4.428   6.758 -0.7371 -0.3440 -0.0799
  294MOL0     H39633   8.141   4.269   6.747  0.1678  1.3898 -1.0723
  294MOL0     H39634   8.271   4.181   6.688 -0.6627 -2.2391  0.7493
  294MOL0     H39635   8.323   4.094   6.932 -1.0824 -1.9354  1.4707
  294MOL0     H39636   8.180   4.168   6.981  0.1092 -0.1902  0.5481
  294MOL0     H39637   8.188   3.953   6.766  1.0776  0.9070 -0.0979
  294MOL0     H39638   8.164   3.914   6.932  2.2279  0.5224  0.0957
  294MOL0     H39639   7.976   4.124   6.789  3.0439 -1.0261 -1.5105
  294MOL0     H39640   7.949   4.054   6.948  1.0764 -0.1079  0.7680
  294MOL0     H39641   7.885   3.788   6.958 -1.3849  1.3405  1.7423
  294MOL0     H39642   7.738   3.562   6.701 -0.1107  0.7382 -0.7949
  294MOL0     H39643   7.776   3.568   6.873 -0.2370  1.2557  0.8343
  294MOL0     H39644   7.581   3.708   6.926  1.2766 -0.6933  0.7192
  294MOL0     H39645   7.529   3.559   6.862 -1.3191 -0.1729  0.6663
  294MOL0     H39646   7.539   3.818   6.701 -3.7017  1.2081 -0.2885
  294MOL0     H39647   7.406   3.725   6.739 -0.3158 -0.0700 -2.2174
  294MOL0     H39648   7.526   3.516   6.597 -2.5071  0.0644 -0.0661
  294MOL0     H39649   7.622   3.643   6.528  0.9176 -2.5192  0.2437
  294MOL0     H39650   7.191   3.801   6.484  0.2122 -1.4305  0.6027
  294MOL0     H39651   7.095   4.071   6.554  0.9874 -1.3520 -0.1117
  294MOL0     H39652   7.102   4.135   6.391  1.8039 -0.3232 -1.1246
  294MOL0     H39653   7.037   3.969   6.419 -1.2848 -0.2409  3.8726
  294MOL0     H39654   7.687   4.387   6.451 -1.4366 -0.3910  2.7499
  294MOL0     H39655   7.759   4.639   6.476  0.0629 -2.6858  0.9265
  294MOL0     H39656   7.785   4.853   6.527 -1.7186 -0.6453  1.2897
  294MOL0     H39657   7.761   4.893   6.348  0.6772 -1.1091  0.1194
  294MOL0     H39658   7.681   5.039   6.593 -0.0749 -0.7197 -0.6437
  294MOL0     H39659   7.810   5.080   6.470  0.8227 -0.8912 -2.1911
  294MOL0     H39660   7.498   5.104   6.421  0.4553  1.2157 -0.2547
  294MOL0     H39661   7.628   5.078   6.299 -2.6823 -1.1818 -0.6198
  294MOL0     H39662   7.611   5.303   6.506  0.6343  0.6857  0.8895
  294MOL0     H39663   7.730   5.294   6.377 -1.5894  0.8323 -1.3648
  294MOL0     H39664   7.428   5.320   6.344 -0.2109  0.2704  0.0182
  294MOL0     H39665   7.541   5.321   6.210  2.2734  0.2325 -0.9255
  294MOL0     H39666   7.487   5.531   6.432  0.4039  0.4771  0.1161
  294MOL0     H39667   7.628   5.538   6.317  0.8028 -0.4053 -2.0075
  294MOL0     H39668   7.390   5.653   6.260  1.2950 -0.0285  2.2684
  294MOL0     H39669   7.362   5.497   6.187  1.1662 -1.1024 -0.7086
  294MOL0     H39670   7.454   5.650   6.017 -0.3202  0.7820  0.0891
  294MOL0     H39671   7.578   5.526   6.064 -2.2846 -1.0107  0.5529
  294MOL0     H39672   7.361   4.747   6.379  0.2638 -0.4883  1.0921
  294MOL0     H39673   7.293   4.521   6.364  0.5364  2.6336  1.4624
  294MOL0     H39674   7.595   4.090   6.412 -0.0969  1.5287  1.2753
  294MOL0     H39675   7.616   3.839   6.431  1.3239  1.0113  3.4496
  294MOL0     H39676   8.915   4.374   7.056  1.3562 -1.1897  1.4266
  294MOL0     H39677   9.163   4.389   7.086  1.6557  2.5521 -2.4801
  294MOL0     H39678   9.547   4.331   6.751  0.8729  1.2044 -0.5938
  294MOL0     H39679   9.777   4.322   6.717  1.3856  0.5839 -0.0311
  294MOL0     H39680  10.056   4.422   7.080 -1.0788 -2.1335  1.3346
  294MOL0     H39681  10.056   4.251   7.070 -1.8021 -0.2971 -0.1510
  294MOL0     H39682  10.209   4.277   6.860  1.5458 -1.6777  1.2492
  294MOL0     H39683  10.275   4.333   7.016 -1.4141  0.7386  1.2392
  294MOL0     H39684  10.206   4.562   6.972  2.1042 -1.5980  0.7171
  294MOL0     H39685  10.148   4.521   6.810 -0.8854 -4.2694 -0.9078
  294MOL0     H39686  10.386   4.529   6.735  1.5001  0.1531  0.1373
  294MOL0     H39687  10.434   4.449   6.886 -1.0450 -0.5058 -0.3410
  294MOL0     H39688  10.467   4.870   6.965  1.1778  1.2186 -4.5067
  294MOL0     H39689   9.842   4.316   7.154 -1.1262 -1.3945  0.6705
  294MOL0     H39690   9.617   4.300   7.193  1.2379 -0.8554  0.1449
  295MOL0     O39691   6.449   1.555   6.894  0.3720  0.7005 -0.1445
  295MOL0     C39692   6.448   1.487   6.792  0.4333 -0.4590 -1.2591
  295MOL0     O39693   6.361   1.395   6.762  0.9577 -0.3715  0.3939
  295MOL0     C39694   6.270   1.364   6.859 -0.0833  0.7596 -0.1122
  295MOL0     C39695   6.136   1.383   6.830 -0.2032  0.0197 -1.0182
  295MOL0     C39696   6.035   1.340   6.910  0.5631 -0.7123  0.5567
  295MOL0     C39697   6.059   1.262   7.019 -1.5296 -0.2959 -0.4824
  295MOL0     O39698   5.974   1.218   7.110  0.2238 -1.0805 -0.0590
  295MOL0     C39699   5.838   1.239   7.077 -0.5968 -0.4429  0.1625
  295MOL0     C39700   5.758   1.158   7.167  0.1044 -0.0101  0.0468
  295MOL0     C39701   5.606   1.184   7.153 -0.7112  0.0811  0.0873
  295MOL0     C39702   5.537   1.095   7.047 -0.5842 -0.7501 -0.5967
  295MOL0     C39703   5.387   1.128   7.040 -1.1681  0.1561 -0.7830
  295MOL0     C39704   5.313   1.067   7.158 -0.5891 -0.1497  0.4196
  295MOL0     C39705   5.166   1.104   7.183  0.1725 -0.9399 -0.7073
  295MOL0     C39706   5.073   1.032   7.088 -0.6652  0.3878  1.5048
  295MOL0     N39707   4.946   1.093   7.072  0.4421  0.1081  0.4472
  295MOL0     C39708   4.840   1.079   7.162  0.7849 -0.3575  0.0747
  295MOL0     C39709   4.747   1.163   7.108 -1.0474 -0.1783 -0.1268
  295MOL0     C39710   4.604   1.178   7.147  0.3519  0.4408 -0.2335
  295MOL0     C39711   4.504   1.087   7.069  0.2018 -0.0302  0.1901
  295MOL0     C39712   4.506   1.117   6.925  0.6628 -0.3839 -0.0285
  295MOL0     C39713   4.370   1.096   6.860  0.0886 -0.1881  0.5325
  295MOL0     O39714   4.375   1.099   6.716  0.2248  0.2805  0.0998
  295MOL0     C39715   4.248   1.098   6.656 -0.6198 -0.2841  0.1864
  295MOL0     C39716   4.257   1.042   6.527 -0.2346 -0.3484 -0.0097
  295MOL0     C39717   4.137   0.988   6.472  0.1405 -0.1407  0.0906
  295MOL0     C39718   4.160   0.936   6.332 -1.1516  0.2345  0.2439
  295MOL0     C39719   4.012   0.994   6.536  0.5013 -0.0928  0.0956
  295MOL0     C39720   3.886   0.931   6.493  0.0615  0.1445 -0.1559
  295MOL0     O39721   3.762   0.992   6.525  0.0529  0.3847 -0.0758
  295MOL0     C39722   3.645   0.919   6.507  0.0804 -0.4426 -0.2105
  295MOL0     C39723   3.560   0.919   6.615  0.7001 -0.3546  0.3889
  295MOL0     C39724   3.430   0.871   6.605 -0.2299  0.3986 -0.4010
  295MOL0     C39725   3.381   0.818   6.491 -0.3032  0.5074  0.4146
  295MOL0     O39726   3.257   0.762   6.491  0.4241  0.4826  0.7136
  295MOL0     C39727   3.188   0.748   6.361 -0.3251  0.0062 -0.0032
  295MOL0     C39728   3.045   0.707   6.387  0.4515 -0.4070 -0.1543
  295MOL0     C39729   2.969   0.709   6.257 -0.0914 -0.2515  0.3905
  295MOL0     C39730   2.815   0.691   6.287 -0.0991  0.3319  0.3997
  295MOL0     C39731   2.730   0.680   6.157 -0.1434  0.1199  0.1208
  295MOL0     C39732   2.578   0.685   6.191 -0.0031 -0.2909 -0.8878
  295MOL0     C39733   2.503   0.743   6.070  0.5998 -0.2842  0.1015
  295MOL0     C39734   2.353   0.775   6.085  0.7182 -0.0509 -0.0921
  295MOL0    Cl39735   2.265   0.619   6.101 -0.1476 -0.1983 -0.4197
  295MOL0     C39736   3.470   0.820   6.382  0.1857  0.5328 -0.1625
  295MOL0     C39737   3.599   0.870   6.385  0.5620 -0.3326 -0.0696
  295MOL0     O39738   3.900   0.841   6.413 -0.0269 -0.3683 -0.2295
  295MOL0     C39739   4.004   1.059   6.659 -0.0959 -0.1762 -0.1041
  295MOL0     C39740   4.128   1.098   6.717 -1.1774  0.3638  0.4723
  295MOL0     N39741   4.806   1.230   6.999  0.2282 -0.6129 -0.2808
  295MOL0     N39742   4.925   1.186   6.972  0.1275  0.6313  0.5804
  295MOL0     C39743   6.200   1.243   7.055  0.2735 -0.3759  0.5963
  295MOL0     C39744   6.306   1.290   6.974  0.1596 -0.0241  0.2818
  295MOL0     C39745   6.549   1.526   6.685  1.2075 -0.0750  0.0055
  295MOL0     C39746   6.539   1.457   6.556 -0.4596 -1.3462  0.5028
  295MOL0     C39747   6.636   1.479   6.455  0.5153  0.1098 -0.6644
  295MOL0     C39748   6.734   1.572   6.485  0.4544 -0.1420 -0.3662
  295MOL0     O39749   6.827   1.569   6.390  0.4681 -0.5406  0.2070
  295MOL0     C39750   6.953   1.630   6.414  0.0188 -0.3802 -0.2564
  295MOL0     C39751   7.036   1.613   6.291  0.0511  0.5819  0.0741
  295MOL0     C39752   7.177   1.574   6.327 -0.0910  0.1592 -1.0944
  295MOL0     C39753   7.263   1.539   6.204  0.3174 -0.4461 -0.1563
  295MOL0     C39754   7.397   1.502   6.237  0.3338  0.5762  0.3890
  295MOL0     C39755   7.500   1.446   6.265 -0.1459  0.0429 -0.3670
  295MOL0     C39756   6.738   1.636   6.606  0.0974 -0.4036 -0.2557
  295MOL0     C39757   6.643   1.619   6.703 -0.2046 -0.0293  0.1472
  295MOL0     H39758   6.116   1.447   6.744 -1.1090  2.6842  1.0407
  295MOL0     H39759   5.939   1.356   6.864 -0.5304 -3.0454  1.8323
  295MOL0     H39760   5.812   1.346   7.074 -1.7945 -0.7197  0.0953
  295MOL0     H39761   5.830   1.188   6.981  0.8395 -2.4268  1.0300
  295MOL0     H39762   5.783   1.053   7.148  0.4778 -0.2873  1.8964
  295MOL0     H39763   5.772   1.180   7.273  0.6665  1.4991 -0.3213
  295MOL0     H39764   5.570   1.163   7.254 -0.0062  1.7883  0.7343
  295MOL0     H39765   5.598   1.289   7.125  2.7711  0.6280  0.6279
  295MOL0     H39766   5.572   1.121   6.947 -3.5865 -2.2374 -2.1653
  295MOL0     H39767   5.559   0.991   7.070 -1.8672 -0.5151  2.0770
  295MOL0     H39768   5.378   1.237   7.046 -0.0221  0.2339 -0.2184
  295MOL0     H39769   5.340   1.092   6.948  2.5257  1.2902 -3.3126
  295MOL0     H39770   5.317   0.958   7.151  1.2292 -0.1268  0.7286
  295MOL0     H39771   5.369   1.092   7.249  0.6124  1.8592 -0.8004
  295MOL0     H39772   5.146   1.075   7.287 -2.5724 -2.7129 -1.6440
  295MOL0     H39773   5.150   1.212   7.180 -1.7784 -1.1215  0.8240
  295MOL0     H39774   5.059   0.930   7.124 -0.0185  0.6429  2.5415
  295MOL0     H39775   5.122   1.026   6.991  0.3669  0.3707  2.0154
  295MOL0     H39776   4.846   1.003   7.240 -0.5512 -0.1545  0.3886
  295MOL0     H39777   4.593   1.154   7.253 -0.0992 -0.3322 -0.4466
  295MOL0     H39778   4.568   1.276   7.113  2.0131  0.6254 -1.6222
  295MOL0     H39779   4.409   1.096   7.121  1.2458 -1.5111  2.4975
  295MOL0     H39780   4.525   0.981   7.081  0.9021 -0.0667 -1.0937
  295MOL0     H39781   4.582   1.050   6.885  1.2589  0.7649 -0.8800
  295MOL0     H39782   4.525   1.224   6.911 -0.0977  0.7988  5.5078
  295MOL0     H39783   4.297   1.170   6.894  0.1795 -1.4621  3.7991
  295MOL0     H39784   4.322   1.003   6.892 -1.6113  0.6677  0.5950
  295MOL0     H39785   4.349   1.029   6.470 -1.5201  0.0098 -2.3032
  295MOL0     H39786   4.151   0.827   6.340 -0.8217  0.2869  1.5427
  295MOL0     H39787   4.090   0.979   6.259 -0.9260 -1.8432 -1.3089
  295MOL0     H39788   4.261   0.967   6.301  0.7169 -2.0520  3.5067
  295MOL0     H39789   3.602   0.956   6.709  0.1687  0.5314  0.2915
  295MOL0     H39790   3.361   0.867   6.688 -0.6189 -0.1457 -0.7440
  295MOL0     H39791   3.192   0.844   6.309  3.0634  1.7125  2.9594
  295MOL0     H39792   3.235   0.676   6.293 -0.5347  1.9237 -2.2929
  295MOL0     H39793   3.040   0.604   6.424  2.8279 -0.4417  0.2591
  295MOL0     H39794   2.996   0.772   6.461 -0.9218 -0.8179 -0.6888
  295MOL0     H39795   3.005   0.626   6.196 -1.2672 -1.1192  0.8422
  295MOL0     H39796   2.977   0.796   6.190  0.4401 -0.0956  0.6579
  295MOL0     H39797   2.791   0.608   6.354  2.7415 -1.3860 -0.5468
  295MOL0     H39798   2.780   0.772   6.352 -0.5973 -2.1715  3.4267
  295MOL0     H39799   2.758   0.591   6.100  0.7983  1.4176 -1.5313
  295MOL0     H39800   2.754   0.768   6.096 -3.2286  1.7196  1.0069
  295MOL0     H39801   2.543   0.590   6.233 -2.4810  1.2112  0.7643
  295MOL0     H39802   2.568   0.755   6.275 -2.3076 -1.5231 -0.0413
  295MOL0     H39803   2.512   0.678   5.983 -0.8944  2.0526 -1.9301
  295MOL0     H39804   2.553   0.834   6.038 -1.0261  0.9193  0.8101
  295MOL0     H39805   2.314   0.834   6.001 -1.6955 -1.5930 -0.1517
  295MOL0     H39806   2.340   0.828   6.180  1.7894 -2.8162  1.7209
  295MOL0     H39807   3.436   0.783   6.286  1.4755 -0.0417 -0.4187
  295MOL0     H39808   3.658   0.856   6.295 -0.9367 -4.9698 -0.6140
  295MOL0     H39809   3.908   1.063   6.710 -0.3511  0.5474 -0.6266
  295MOL0     H39810   4.121   1.134   6.820  1.8597 -2.6318  1.9051
  295MOL0     H39811   6.218   1.192   7.148  2.5238 -1.3573 -0.3106
  295MOL0     H39812   6.413   1.278   6.994  0.6529  2.0510 -0.9060
  295MOL0     H39813   6.460   1.385   6.535  0.4179 -2.6569  1.5527
  295MOL0     H39814   6.641   1.430   6.358 -0.9707 -2.4111  0.4382
  295MOL0     H39815   6.946   1.737   6.432  1.7978 -0.4641  1.2717
  295MOL0     H39816   6.992   1.587   6.506 -1.9022 -2.7167 -0.4356
  295MOL0     H39817   7.036   1.705   6.232 -2.4748  1.5006  1.3481
  295MOL0     H39818   6.996   1.539   6.221  1.7385  3.0293 -3.8087
  295MOL0     H39819   7.174   1.483   6.388  1.4029  1.3704  0.8888
  295MOL0     H39820   7.219   1.655   6.387  2.4560 -2.2097  0.5526
  295MOL0     H39821   7.262   1.630   6.143  0.6516 -0.9541 -0.9396
  295MOL0     H39822   7.206   1.467   6.144 -1.0885 -0.6757  1.3632
  295MOL0     H39823   7.587   1.385   6.275 -0.5146 -0.7724 -1.7806
  295MOL0     H39824   6.815   1.710   6.625 -0.9310  0.0720  2.4933
  295MOL0     H39825   6.676   1.670   6.793 -0.1582  2.0358 -0.9781
  296MOL0     O39826   8.482   8.155  10.292 -0.2337  0.4278  0.0722
  296MOL0     C39827   8.485   8.272  10.294  0.9829 -0.8142  0.3478
  296MOL0     O39828   8.369   8.348  10.306  0.1286  0.3794 -0.0413
  296MOL0     C39829   8.250   8.288  10.270 -0.3657 -0.6688 -0.0758
  296MOL0     C39830   8.159   8.255  10.368 -0.6030  0.4122 -0.3150
  296MOL0     C39831   8.034   8.192  10.333 -0.4331 -0.2372  0.0080
  296MOL0     C39832   8.008   8.155  10.200 -0.8899 -0.5261  0.1895
  296MOL0     O39833   7.890   8.114  10.140  0.2446  0.1686  0.1311
  296MOL0     C39834   7.770   8.133  10.223  0.8608 -0.5438 -0.2058
  296MOL0     C39835   7.643   8.099  10.142 -0.2682 -0.6208  0.0146
  296MOL0     C39836   7.524   8.107  10.231 -0.0064 -0.3664 -0.3009
  296MOL0     C39837   7.393   8.071  10.159 -0.8465 -1.4479  0.7095
  296MOL0     C39838   7.277   8.062  10.258 -0.1839  0.0904 -0.2487
  296MOL0     C39839   7.143   8.026  10.198 -0.4157 -0.1760 -1.0235
  296MOL0     C39840   7.041   8.016  10.310 -0.7398  0.6363 -1.0444
  296MOL0     C39841   6.907   7.968  10.262 -0.6572 -0.1313 -0.2284
  296MOL0     N39842   6.797   7.961  10.359  0.3249 -0.2698 -0.0243
  296MOL0     C39843   6.731   7.846  10.393 -0.3867 -0.9613  0.6244
  296MOL0     C39844   6.665   7.864  10.503  0.2088 -0.3588 -0.2598
  296MOL0     C39845   6.575   7.774  10.576 -0.8211  0.4804 -0.3896
  296MOL0     C39846   6.429   7.784  10.542  0.3109 -0.3171  0.3501
  296MOL0     C39847   6.384   7.740  10.402  0.2303 -0.8231  0.2279
  296MOL0     C39848   6.403   7.583  10.381 -0.4230  0.3082  0.2016
  296MOL0     O39849   6.328   7.482  10.458 -0.6259 -0.4044  0.1112
  296MOL0     C39850   6.199   7.455  10.438  0.9458 -0.4307  1.6421
  296MOL0     C39851   6.123   7.524  10.344  1.0186 -0.3101 -0.1280
  296MOL0     C39852   5.988   7.503  10.319  0.5498  0.2362 -0.4766
  296MOL0     C39853   5.916   7.595  10.215 -0.3930  0.2294 -0.3468
  296MOL0     C39854   5.915   7.408  10.398 -0.6444  0.1969  0.7221
  296MOL0     C39855   5.772   7.375  10.396 -1.2372  0.1343  0.5726
  296MOL0     O39856   5.695   7.485  10.374  0.2606  1.2611  0.3910
  296MOL0     C39857   5.572   7.455  10.333  0.0059  0.3330  0.5557
  296MOL0     C39858   5.545   7.426  10.192  0.6144 -0.3581 -0.6441
  296MOL0     C39859   5.417   7.405  10.141 -0.2494 -0.5807  0.5006
  296MOL0     C39860   5.304   7.425  10.223 -0.2240  0.1332  0.8166
  296MOL0     O39861   5.178   7.386  10.174 -0.1705 -0.4431 -0.5513
  296MOL0     C39862   5.070   7.385  10.268  0.0145  0.0455 -0.7525
  296MOL0     C39863   4.924   7.352  10.224  0.1546  0.4000 -0.1010
  296MOL0     C39864   4.844   7.462  10.149 -1.4150  0.1343 -0.0928
  296MOL0     C39865   4.784   7.564  10.243  0.2437  0.1107  0.1034
  296MOL0     C39866   4.675   7.656  10.181 -0.0871  0.0747  0.0726
  296MOL0     C39867   4.706   7.695  10.027 -0.7655  0.3664  0.5390
  296MOL0     C39868   4.821   7.791  10.015  0.2584  0.0063  0.1211
  296MOL0     C39869   4.809   7.920  10.098 -0.2943 -0.4239  0.9702
  296MOL0    Cl39870   4.936   8.030  10.031  0.6505 -0.1798  0.1808
  296MOL0     C39871   5.326   7.459  10.354 -0.1177 -0.1093  1.3606
  296MOL0     C39872   5.458   7.476  10.409  0.0604  0.4171  0.3266
  296MOL0     O39873   5.731   7.264  10.426 -0.0410  0.3985 -0.1190
  296MOL0     C39874   5.993   7.327  10.482 -0.1910 -0.6973 -0.5935
  296MOL0     C39875   6.131   7.355  10.509 -0.1143 -0.2934 -0.7041
  296MOL0     N39876   6.692   7.993  10.544  0.2763 -0.3024  0.2470
  296MOL0     N39877   6.765   8.056  10.454 -0.2368  0.7962  0.0808
  296MOL0     C39878   8.121   8.174  10.104  0.0253 -1.5486  0.2712
  296MOL0     C39879   8.238   8.249  10.136 -0.0637  0.1006 -0.2856
  296MOL0     C39880   8.622   8.344  10.293 -0.1396  0.1223 -0.4107
  296MOL0     C39881   8.729   8.259  10.301 -0.6847 -0.1763 -0.2971
  296MOL0     C39882   8.858   8.305  10.303 -0.3629  0.0351 -0.3606
  296MOL0     C39883   8.876   8.443  10.297 -0.0800 -0.7432  0.0435
  296MOL0     O39884   8.995   8.497  10.342  0.1741 -0.1895 -0.4435
  296MOL0     C39885   9.033   8.633  10.334 -0.3242 -0.3525  1.1242
  296MOL0     C39886   9.173   8.651  10.367  0.4159 -0.4759 -0.7452
  296MOL0     C39887   9.243   8.783  10.351 -0.2636 -0.0346 -0.6990
  296MOL0     C39888   9.165   8.910  10.371 -0.5190 -0.4871  0.3321
  296MOL0     C39889   9.244   9.016  10.321  0.7575 -0.8911 -0.4856
  296MOL0     C39890   9.306   9.115  10.280  0.5447 -0.6340  0.8045
  296MOL0     C39891   8.762   8.532  10.286  0.2118 -0.5743  0.3749
  296MOL0     C39892   8.635   8.478  10.281 -0.4341 -0.0406  0.6997
  296MOL0     H39893   8.191   8.276  10.469 -2.2151  0.3159  0.2331
  296MOL0     H39894   7.960   8.177  10.411 -0.4157  0.9137  0.2695
  296MOL0     H39895   7.767   8.060  10.304  0.9834  0.5989  0.8561
  296MOL0     H39896   7.769   8.237  10.256  1.0482 -0.0608 -1.6642
  296MOL0     H39897   7.637   8.185  10.075 -1.9095 -2.3863 -2.2928
  296MOL0     H39898   7.656   8.008  10.083  0.5623 -1.0952  0.9028
  296MOL0     H39899   7.530   8.032  10.310  3.2354 -0.7355 -0.7892
  296MOL0     H39900   7.522   8.207  10.275  0.5234  0.4201 -1.9817
  296MOL0     H39901   7.376   8.157  10.093 -1.4849 -3.0159 -1.2737
  296MOL0     H39902   7.405   7.984  10.094  1.1846 -1.2644  0.7889
  296MOL0     H39903   7.312   7.984  10.326  2.1308  3.5237  2.8941
  296MOL0     H39904   7.279   8.153  10.319 -0.7404  0.1722 -0.3436
  296MOL0     H39905   7.107   8.107  10.134 -0.7744  0.9811  0.5711
  296MOL0     H39906   7.146   7.929  10.147 -0.8805 -0.7600  0.0194
  296MOL0     H39907   7.083   7.949  10.385  0.0993  1.7217 -0.5164
  296MOL0     H39908   7.030   8.115  10.356 -2.3228  0.2241 -0.4771
  296MOL0     H39909   6.912   7.868  10.217 -1.5111 -0.0791 -0.4391
  296MOL0     H39910   6.874   8.043  10.190 -1.3798  0.2586  0.4961
  296MOL0     H39911   6.749   7.754  10.339  2.3964 -1.4514  2.1760
  296MOL0     H39912   6.613   7.672  10.565  1.9176  1.6318 -2.7090
  296MOL0     H39913   6.593   7.784  10.683 -0.9806  1.9120 -0.4720
  296MOL0     H39914   6.384   7.883  10.551 -0.0682 -0.6907  3.9577
  296MOL0     H39915   6.374   7.730  10.620 -1.3989  0.0349 -0.5530
  296MOL0     H39916   6.446   7.800  10.335 -1.5841  1.6864  0.6273
  296MOL0     H39917   6.280   7.767  10.380  0.6848 -0.2999 -1.3985
  296MOL0     H39918   6.510   7.562  10.390 -0.7227 -1.0250  0.8824
  296MOL0     H39919   6.386   7.560  10.275  1.1003  1.2444 -0.2867
  296MOL0     H39920   6.169   7.590  10.271  0.5599  2.3073  1.8470
  296MOL0     H39921   5.856   7.550  10.135  1.8936  0.1928 -2.1505
  296MOL0     H39922   5.855   7.668  10.268  0.4339 -0.8303  2.2427
  296MOL0     H39923   5.995   7.652  10.165  2.2202 -1.9575  1.0239
  296MOL0     H39924   5.635   7.410  10.132  2.8433 -0.9424  2.6249
  296MOL0     H39925   5.409   7.360  10.042  1.0561  1.5324 -0.6337
  296MOL0     H39926   5.104   7.307  10.338 -1.3229  0.6345  0.6064
  296MOL0     H39927   5.060   7.477  10.326 -1.9139 -0.3951 -0.3438
  296MOL0     H39928   4.925   7.256  10.171 -0.8284 -0.6109  1.6396
  296MOL0     H39929   4.851   7.336  10.303 -1.9877  0.9893 -1.8561
  296MOL0     H39930   4.774   7.401  10.091  1.6251 -2.9904 -0.8004
  296MOL0     H39931   4.915   7.510  10.082 -2.8153  0.5526 -1.3371
  296MOL0     H39932   4.741   7.520  10.333  0.5390 -1.7910 -0.6525
  296MOL0     H39933   4.850   7.642  10.281 -0.2520  1.2671 -1.2861
  296MOL0     H39934   4.654   7.748  10.237 -3.8885 -1.3819  1.4063
  296MOL0     H39935   4.586   7.592  10.176  1.8901 -2.7896 -0.9224
  296MOL0     H39936   4.730   7.608   9.966 -0.3629  0.8249  0.0373
  296MOL0     H39937   4.625   7.741   9.970  1.2107  0.4326 -2.4635
  296MOL0     H39938   4.841   7.820   9.911  1.9124  0.1674  0.4494
  296MOL0     H39939   4.909   7.734  10.046 -0.2407 -0.9769 -0.2407
  296MOL0     H39940   4.818   7.901  10.206 -0.8161  2.0389  1.5022
  296MOL0     H39941   4.709   7.961  10.086  0.4249  0.5746 -2.5843
  296MOL0     H39942   5.239   7.471  10.419 -0.7575  0.7504  0.3731
  296MOL0     H39943   5.467   7.498  10.515  2.0086 -1.8440  0.7019
  296MOL0     H39944   5.953   7.243  10.537 -1.2253  0.9409  1.2439
  296MOL0     H39945   6.189   7.298  10.581  0.8551 -0.4937 -1.6029
  296MOL0     H39946   8.109   8.159   9.997 -1.5086 -0.1180  0.1983
  296MOL0     H39947   8.319   8.260  10.065  2.1805 -0.4879  2.0104
  296MOL0     H39948   8.718   8.152  10.299  3.4216 -0.8110  1.1760
  296MOL0     H39949   8.949   8.246  10.311  1.5916  2.8436 -0.5281
  296MOL0     H39950   9.021   8.670  10.232  0.2796 -2.8437  0.0596
  296MOL0     H39951   8.974   8.700  10.397 -0.8330 -0.4224  0.7210
  296MOL0     H39952   9.223   8.586  10.296  0.0780  0.1847 -1.6153
  296MOL0     H39953   9.199   8.613  10.466  0.4872  1.0080 -0.1706
  296MOL0     H39954   9.291   8.790  10.254 -0.3096 -3.8705 -1.1314
  296MOL0     H39955   9.321   8.782  10.428 -1.1856 -1.0081  0.2669
  296MOL0     H39956   9.146   8.913  10.479  0.7772 -0.3916  0.5778
  296MOL0     H39957   9.069   8.904  10.318  0.1069  0.6852 -0.9882
  296MOL0     H39958   9.337   9.201  10.225 -0.3333  0.5499  2.0832
  296MOL0     H39959   8.776   8.640  10.281 -2.2894 -0.1466  1.0717
  296MOL0     H39960   8.549   8.544  10.280 -0.8219 -0.5426 -0.8437
  297MOL0     O39961   6.368   2.851   4.744 -0.9134 -0.6478  0.7189
  297MOL0     C39962   6.451   2.922   4.807  0.0594 -0.3282  0.0190
  297MOL0     O39963   6.416   3.017   4.890  0.4185  0.2035 -0.1876
  297MOL0     C39964   6.277   3.037   4.916  0.1949  0.5368 -0.2019
  297MOL0     C39965   6.257   3.082   5.049 -0.4456 -0.1568  0.6542
  297MOL0     C39966   6.125   3.105   5.086  0.6793  0.3639 -0.8914
  297MOL0     C39967   6.012   3.089   4.999 -0.6272  0.0067  0.0847
  297MOL0     O39968   5.877   3.105   5.038  0.4664  0.4796  0.3373
  297MOL0     C39969   5.851   3.183   5.153  0.2717 -0.1218 -0.4593
  297MOL0     C39970   5.700   3.167   5.197 -0.4032  0.5778 -0.3006
  297MOL0     C39971   5.668   3.262   5.320  0.9695 -0.1455 -0.2995
  297MOL0     C39972   5.767   3.269   5.438 -0.2200 -0.4325  0.3270
  297MOL0     C39973   5.786   3.133   5.500  0.0240  0.3937  1.4828
  297MOL0     C39974   5.845   3.161   5.642  0.2897  0.3959  1.0159
  297MOL0     C39975   5.908   3.035   5.687 -0.2531 -0.1147  0.6893
  297MOL0     C39976   5.987   3.070   5.807 -0.1323  0.0000 -0.0113
  297MOL0     N39977   5.913   3.141   5.919 -0.5079  0.0948 -0.3713
  297MOL0     C39978   5.851   3.083   6.027 -0.5484  0.1615 -0.5750
  297MOL0     C39979   5.836   3.170   6.121 -0.3318 -0.0810 -0.2613
  297MOL0     C39980   5.763   3.149   6.253 -1.3914 -0.4888  0.2668
  297MOL0     C39981   5.616   3.116   6.243  0.8880 -0.4720  0.3044
  297MOL0     C39982   5.514   3.220   6.192 -0.2206 -0.1527  0.6381
  297MOL0     C39983   5.374   3.159   6.189 -0.2561  0.1231 -0.7252
  297MOL0     O39984   5.302   3.227   6.091  0.7628  0.0345  0.0350
  297MOL0     C39985   5.180   3.174   6.050 -0.3174  0.8599 -1.6399
  297MOL0     C39986   5.096   3.084   6.121 -0.7017  0.1892 -0.4027
  297MOL0     C39987   4.976   3.042   6.078  1.1738  0.0783  0.2173
  297MOL0     C39988   4.885   2.969   6.176  0.1897 -0.0575 -0.2605
  297MOL0     C39989   4.933   3.076   5.947  0.1460 -0.5798 -0.0291
  297MOL0     C39990   4.817   3.017   5.879 -1.4048 -0.4207 -0.0594
  297MOL0     O39991   4.825   2.999   5.743  0.1898 -0.5610 -0.1076
  297MOL0     C39992   4.712   2.955   5.683  0.8089  0.0933  0.1933
  297MOL0     C39993   4.704   2.829   5.620 -0.5344 -0.8016 -0.2125
  297MOL0     C39994   4.589   2.781   5.565 -0.1759  0.4940  0.8869
  297MOL0     C39995   4.471   2.853   5.580 -0.0280  0.6270  0.3512
  297MOL0     O39996   4.352   2.806   5.526 -0.1720 -0.1984  0.0969
  297MOL0     C39997   4.234   2.888   5.519 -0.3985 -0.3584  0.2532
  297MOL0     C39998   4.119   2.804   5.471 -0.2924  0.3247  0.4276
  297MOL0     C39999   3.992   2.894   5.449 -0.1330 -0.0539  0.2628
  297MOL0     C40000   3.864   2.817   5.433 -0.0580 -0.2378  0.0070
  297MOL0     C40001   3.798   2.854   5.299  0.0100  0.2201 -0.6877
  297MOL0     C40002   3.652   2.802   5.282  0.4154 -0.0375 -0.3281
  297MOL0     C40003   3.549   2.836   5.393  0.1445 -0.5033 -0.5355
  297MOL0     C40004   3.407   2.801   5.344  0.9244 -0.8801  0.0627
  297MOL0    Cl40005   3.376   2.893   5.197 -0.2322  0.0338  0.0725
  297MOL0     C40006   4.480   2.976   5.647 -1.2262 -0.4625  0.4096
  297MOL0     C40007   4.592   3.037   5.696  0.3114  0.0393 -0.0402
  297MOL0     O40008   4.718   2.996   5.950 -0.0635 -0.1896 -0.3884
  297MOL0     C40009   5.020   3.157   5.876  0.5790 -0.0415  0.2958
  297MOL0     C40010   5.135   3.216   5.929  0.5003  0.3490 -0.7181
  297MOL0     N40011   5.868   3.295   6.068 -0.6943  0.0349  0.0922
  297MOL0     N40012   5.920   3.274   5.950  0.4249  0.7388  0.7191
  297MOL0     C40013   6.035   3.063   4.871  0.6057 -0.1509 -0.5992
  297MOL0     C40014   6.168   3.037   4.824 -0.3426  0.3505  0.4391
  297MOL0     C40015   6.589   2.875   4.807  0.4979 -0.8522  0.5387
  297MOL0     C40016   6.696   2.950   4.870 -0.2838 -0.2939 -0.0611
  297MOL0     C40017   6.830   2.911   4.863 -0.2632 -0.6849  0.3512
  297MOL0     C40018   6.861   2.802   4.781 -0.0217 -0.3868  0.5491
  297MOL0     O40019   6.995   2.755   4.747 -0.1510 -0.5854 -0.6821
  297MOL0     C40020   7.107   2.825   4.808 -0.0330 -0.3897 -0.4950
  297MOL0     C40021   7.155   2.954   4.746  0.8533 -0.5570  0.1909
  297MOL0     C40022   7.272   2.998   4.836  0.6030  0.2390 -0.0894
  297MOL0     C40023   7.357   3.095   4.757 -0.5955  1.0803 -0.3177
  297MOL0     C40024   7.445   3.170   4.844  0.0886  0.6206  0.2961
  297MOL0     C40025   7.507   3.245   4.916  0.1041 -0.0276 -0.7715
  297MOL0     C40026   6.754   2.721   4.732 -0.5507 -0.0388 -0.7958
  297MOL0     C40027   6.624   2.763   4.730  0.1212 -0.2612 -0.1138
  297MOL0     H40028   6.345   3.082   5.112 -0.7859  0.5469  1.1479
  297MOL0     H40029   6.124   3.132   5.191  1.8881  1.1736 -1.0672
  297MOL0     H40030   5.917   3.156   5.236 -1.0375  1.4271  1.1526
  297MOL0     H40031   5.884   3.284   5.128  0.7994 -0.9898 -3.8017
  297MOL0     H40032   5.626   3.196   5.122  0.2827  3.1688 -0.0716
  297MOL0     H40033   5.686   3.059   5.209  0.0253  0.3247 -1.8890
  297MOL0     H40034   5.645   3.362   5.283 -0.4458 -0.1826  0.3900
  297MOL0     H40035   5.570   3.230   5.358 -0.3279  2.4693 -1.2228
  297MOL0     H40036   5.863   3.306   5.399 -2.3186  1.8911 -3.2625
  297MOL0     H40037   5.724   3.336   5.512 -0.5387 -0.5242  0.2228
  297MOL0     H40038   5.690   3.084   5.519 -0.3279 -0.2463 -1.5278
  297MOL0     H40039   5.849   3.065   5.441 -0.3908 -1.0856  2.6781
  297MOL0     H40040   5.922   3.239   5.640  2.5883 -1.7645  1.1018
  297MOL0     H40041   5.776   3.212   5.710 -1.9185  1.1761 -1.6227
  297MOL0     H40042   5.836   2.954   5.702  0.6528 -1.2704 -0.9007
  297MOL0     H40043   5.981   3.011   5.609  1.9908  1.6788  2.0747
  297MOL0     H40044   6.072   3.131   5.778 -1.4625  2.2372  0.5245
  297MOL0     H40045   6.021   2.977   5.854 -0.4367 -0.6740 -1.0829
  297MOL0     H40046   5.819   2.981   6.046 -0.0055  0.0157 -0.4262
  297MOL0     H40047   5.822   3.067   6.297  1.6822 -0.8212 -3.8155
  297MOL0     H40048   5.787   3.235   6.316 -0.4602 -1.6597  1.5874
  297MOL0     H40049   5.588   3.086   6.345 -0.1723 -0.7880 -0.0664
  297MOL0     H40050   5.608   3.025   6.183 -0.6042 -1.8396  2.4202
  297MOL0     H40051   5.538   3.248   6.090  2.2725  1.0102  1.4719
  297MOL0     H40052   5.510   3.307   6.259  1.0668 -0.8844  1.6976
  297MOL0     H40053   5.328   3.177   6.287 -0.0655  4.6345 -1.2484
  297MOL0     H40054   5.380   3.051   6.173 -1.1033  0.1836 -1.5096
  297MOL0     H40055   5.124   3.068   6.225 -0.1180 -0.0956 -0.6004
  297MOL0     H40056   4.850   2.875   6.131  0.9060  0.7282 -2.6164
  297MOL0     H40057   4.943   2.946   6.266  0.8942  3.3081  0.2569
  297MOL0     H40058   4.793   3.026   6.192 -1.6335 -2.2774 -2.0293
  297MOL0     H40059   4.801   2.780   5.616 -1.1494 -1.9892 -1.2071
  297MOL0     H40060   4.577   2.680   5.526 -0.3628  0.0405  2.0669
  297MOL0     H40061   4.212   2.937   5.615 -2.6327  1.5214 -1.1059
  297MOL0     H40062   4.241   2.977   5.456  0.4379 -0.4714  0.1806
  297MOL0     H40063   4.150   2.747   5.383 -4.3911  0.1561 -1.1362
  297MOL0     H40064   4.107   2.727   5.547 -1.1084  1.2206  1.2274
  297MOL0     H40065   4.019   2.942   5.354  3.6934  2.0518  2.1982
  297MOL0     H40066   3.966   2.963   5.530 -1.8826  0.0544 -0.3318
  297MOL0     H40067   3.886   2.710   5.430 -0.9758 -0.4149 -1.8235
  297MOL0     H40068   3.786   2.832   5.508 -0.1522  0.5845 -0.2465
  297MOL0     H40069   3.865   2.819   5.219 -4.4114 -2.6314 -3.6305
  297MOL0     H40070   3.801   2.962   5.282  0.7885  0.3071 -0.0641
  297MOL0     H40071   3.623   2.825   5.179 -2.6928  2.3407  0.9091
  297MOL0     H40072   3.655   2.693   5.291  0.9394  0.0852  1.2404
  297MOL0     H40073   3.543   2.943   5.418  0.0564 -0.3741 -1.1062
  297MOL0     H40074   3.580   2.788   5.486  4.2786  3.3523  0.4686
  297MOL0     H40075   3.342   2.834   5.426 -0.9352 -0.2721 -1.5982
  297MOL0     H40076   3.395   2.695   5.323  0.3824 -1.2826  2.1942
  297MOL0     H40077   4.388   3.031   5.662 -0.5965  2.2359 -3.7959
  297MOL0     H40078   4.591   3.137   5.737  1.4388  0.4461 -0.9537
  297MOL0     H40079   5.010   3.170   5.768  0.5141 -1.8571  0.0524
  297MOL0     H40080   5.195   3.289   5.876  0.8994  0.4089 -0.1938
  297MOL0     H40081   5.949   3.067   4.805  1.1750 -1.7139 -1.4864
  297MOL0     H40082   6.192   3.005   4.723  0.5811 -2.2966  1.4136
  297MOL0     H40083   6.669   3.033   4.934  0.2638 -1.2714  1.4914
  297MOL0     H40084   6.904   2.978   4.904  4.2372 -2.2589 -4.2266
  297MOL0     H40085   7.094   2.832   4.916 -1.4501 -0.3092 -0.6493
  297MOL0     H40086   7.191   2.756   4.790 -1.4720 -2.2701 -0.3486
  297MOL0     H40087   7.071   3.024   4.734  2.1583  1.1798  0.7601
  297MOL0     H40088   7.201   2.942   4.647  5.1669  0.9649  1.7870
  297MOL0     H40089   7.336   2.920   4.878  2.2253  0.2014 -2.4313
  297MOL0     H40090   7.227   3.042   4.925 -0.0823 -0.4393 -0.1003
  297MOL0     H40091   7.308   3.169   4.693 -0.8165  1.5263  0.3532
  297MOL0     H40092   7.422   3.033   4.695 -0.5866  1.0563 -0.2836
  297MOL0     H40093   7.546   3.313   4.989  0.9079  1.1196 -2.2022
  297MOL0     H40094   6.769   2.635   4.667 -3.2383 -0.6408 -0.7520
  297MOL0     H40095   6.555   2.709   4.667 -2.2596  2.5479 -0.1636
  298MOL0     O40096   7.726   7.741   7.894  0.6225 -0.1345 -0.2184
  298MOL0     C40097   7.773   7.750   8.010  0.1167 -0.1146 -0.8972
  298MOL0     O40098   7.710   7.817   8.113 -0.4170 -0.2966  0.4465
  298MOL0     C40099   7.610   7.893   8.090  0.6873  0.4704 -0.0499
  298MOL0     C40100   7.632   8.003   8.007 -0.4876 -0.2405 -0.0600
  298MOL0     C40101   7.524   8.091   7.979 -0.1998  0.1432 -0.9890
  298MOL0     C40102   7.405   8.076   8.042 -0.2599 -0.6483 -0.6101
  298MOL0     O40103   7.300   8.163   8.031 -0.3780 -0.4367 -0.2255
  298MOL0     C40104   7.275   8.213   7.896  0.4134 -0.6273 -0.5925
  298MOL0     C40105   7.132   8.231   7.876  0.6106  0.3624  0.9603
  298MOL0     C40106   7.044   8.102   7.873 -0.0192  1.3948  0.2183
  298MOL0     C40107   7.034   8.028   8.013 -0.0676  0.0652 -1.3436
  298MOL0     C40108   6.895   7.961   8.025 -0.6392 -0.1147 -0.4233
  298MOL0     C40109   6.875   7.876   8.155  0.5897  0.0573 -0.0803
  298MOL0     C40110   6.753   7.789   8.136 -0.1171 -0.4317 -0.2987
  298MOL0     C40111   6.690   7.732   8.259  0.4539  0.3863 -0.6844
  298MOL0     N40112   6.597   7.620   8.246 -0.2154  0.3419 -0.6627
  298MOL0     C40113   6.500   7.605   8.154 -0.0241  0.4235  0.5457
  298MOL0     C40114   6.449   7.477   8.161 -0.1663 -0.6051 -0.3113
  298MOL0     C40115   6.333   7.402   8.093  0.3014  0.4685 -1.0775
  298MOL0     C40116   6.205   7.469   8.134  1.5911  0.1938 -0.0348
  298MOL0     C40117   6.090   7.364   8.123  0.7814  0.2495 -0.8924
  298MOL0     C40118   5.952   7.407   8.176  0.1459  0.6000 -0.6577
  298MOL0     O40119   5.886   7.505   8.092  0.1575  0.1065  0.6217
  298MOL0     C40120   5.753   7.505   8.104 -0.2459 -0.8589 -0.2948
  298MOL0     C40121   5.697   7.566   8.211  0.7139  0.6093 -0.0391
  298MOL0     C40122   5.554   7.559   8.231 -0.3880  1.3067  0.4356
  298MOL0     C40123   5.505   7.632   8.355 -0.0546  0.0491  0.0766
  298MOL0     C40124   5.475   7.495   8.130  0.1888 -1.2537 -0.2365
  298MOL0     C40125   5.331   7.483   8.155  0.3107 -0.0881  0.2276
  298MOL0     O40126   5.269   7.486   8.035  0.5122 -0.1508  0.4240
  298MOL0     C40127   5.132   7.508   8.046  0.5615 -0.0876 -0.2935
  298MOL0     C40128   5.051   7.391   8.061 -0.2525 -0.7404 -0.0239
  298MOL0     C40129   4.915   7.415   8.095  0.6460 -0.4701 -0.3648
  298MOL0     C40130   4.858   7.544   8.106 -0.1601  0.8419 -0.7134
  298MOL0     O40131   4.727   7.564   8.133 -0.7252  0.2808  0.2626
  298MOL0     C40132   4.705   7.529   8.272  0.6168  0.4362 -0.2472
  298MOL0     C40133   4.594   7.422   8.289  0.2526 -0.0061  0.5632
  298MOL0     C40134   4.458   7.477   8.258  0.3006  0.0412 -0.1549
  298MOL0     C40135   4.373   7.348   8.243 -0.2028  1.2145 -0.5824
  298MOL0     C40136   4.250   7.385   8.153  0.3417 -0.3020  0.4991
  298MOL0     C40137   4.167   7.259   8.141  0.4182 -0.8122 -0.7304
  298MOL0     C40138   4.027   7.299   8.081  0.1310 -0.2735  0.3751
  298MOL0     C40139   3.915   7.280   8.180 -0.0962  1.2526 -0.3994
  298MOL0    Cl40140   3.769   7.341   8.095  0.1147 -0.0956  0.3819
  298MOL0     C40141   4.932   7.650   8.075 -0.1266 -0.5705  0.3308
  298MOL0     C40142   5.071   7.635   8.049  0.4781  0.1224  0.0694
  298MOL0     O40143   5.276   7.459   8.264  0.1927 -0.4052  0.0366
  298MOL0     C40144   5.537   7.439   8.016 -0.1135  1.1988 -0.6883
  298MOL0     C40145   5.679   7.449   8.005 -0.4986 -0.1032 -0.0190
  298MOL0     N40146   6.525   7.423   8.260 -0.0624 -0.8868 -0.1904
  298MOL0     N40147   6.615   7.503   8.303 -0.2303 -0.3360  0.9167
  298MOL0     C40148   7.382   7.975   8.137 -0.8959  0.0139 -0.0095
  298MOL0     C40149   7.492   7.887   8.164 -1.0841 -0.3775  0.7811
  298MOL0     C40150   7.903   7.677   8.040 -0.0006 -0.0618 -0.4372
  298MOL0     C40151   7.991   7.715   8.143 -0.2355 -0.3165  0.6446
  298MOL0     C40152   8.093   7.629   8.188 -0.9380 -0.9604  0.3512
  298MOL0     C40153   8.119   7.515   8.122  0.0513 -0.0879  0.3341
  298MOL0     O40154   8.222   7.430   8.159 -0.1478  0.8188  0.5130
  298MOL0     C40155   8.330   7.402   8.062  0.3621 -0.0948  0.4576
  298MOL0     C40156   8.462   7.435   8.134 -0.0779  0.7131  0.0148
  298MOL0     C40157   8.525   7.320   8.225 -0.0565 -0.1370 -0.3975
  298MOL0     C40158   8.424   7.282   8.334  0.0293  0.8555  0.1166
  298MOL0     C40159   8.476   7.172   8.418  0.7936 -0.7572  0.2794
  298MOL0     C40160   8.519   7.094   8.505 -0.4529  0.6171  0.6918
  298MOL0     C40161   8.038   7.477   8.014  0.4949 -0.4490 -0.0099
  298MOL0     C40162   7.923   7.559   7.974 -0.4103  0.8883 -0.4754
  298MOL0     H40163   7.723   8.015   7.949  0.5840 -0.4860  1.5147
  298MOL0     H40164   7.553   8.168   7.907 -0.3059 -2.1186 -3.6221
  298MOL0     H40165   7.334   8.304   7.884  2.6905 -1.8376  0.7567
  298MOL0     H40166   7.320   8.139   7.830  2.2371 -0.9992  0.9901
  298MOL0     H40167   7.104   8.282   7.968  0.5197  0.3836  0.9197
  298MOL0     H40168   7.122   8.295   7.788  5.9964 -1.5643 -1.5344
  298MOL0     H40169   6.944   8.127   7.836  0.7927  1.8517 -1.7973
  298MOL0     H40170   7.086   8.040   7.794  3.3394  2.7757  0.7113
  298MOL0     H40171   7.114   7.956   8.032 -0.5823 -0.9564 -2.8176
  298MOL0     H40172   7.053   8.100   8.093 -2.7634 -0.6653  0.0726
  298MOL0     H40173   6.826   8.046   8.023 -1.3483 -0.4372  3.2175
  298MOL0     H40174   6.878   7.905   7.933  1.6561  0.4955 -1.2821
  298MOL0     H40175   6.959   7.808   8.172  0.8770  0.5047  0.3089
  298MOL0     H40176   6.867   7.956   8.229 -2.0199  1.0961 -1.3365
  298MOL0     H40177   6.683   7.861   8.093  2.3117  0.9003 -2.3597
  298MOL0     H40178   6.762   7.709   8.062  0.3751  0.2498 -0.9901
  298MOL0     H40179   6.636   7.812   8.310  1.1145 -1.6003  3.5889
  298MOL0     H40180   6.764   7.708   8.337 -3.3434  1.5479  3.7193
  298MOL0     H40181   6.466   7.679   8.082  3.1002  1.2959 -0.2045
  298MOL0     H40182   6.344   7.397   7.985 -0.6589  3.2226 -1.3725
  298MOL0     H40183   6.322   7.300   8.133  0.3592  1.2119  0.9709
  298MOL0     H40184   6.179   7.552   8.067  0.8012 -0.4505 -0.5398
  298MOL0     H40185   6.209   7.512   8.235 -3.7735 -1.0534  1.0166
  298MOL0     H40186   6.122   7.264   8.153 -0.6552  0.1787  0.5772
  298MOL0     H40187   6.072   7.356   8.016 -1.7958  1.5508 -0.6420
  298MOL0     H40188   5.976   7.442   8.277  1.0814  0.3159 -0.7697
  298MOL0     H40189   5.898   7.313   8.189 -0.4600  0.7564 -1.9538
  298MOL0     H40190   5.763   7.601   8.290  1.5842 -3.1507  1.0787
  298MOL0     H40191   5.427   7.704   8.328  0.0995  0.2171  0.0759
  298MOL0     H40192   5.470   7.563   8.433  3.5695  0.4461  2.2851
  298MOL0     H40193   5.592   7.676   8.405  1.6403 -3.3299  0.3721
  298MOL0     H40194   5.103   7.296   8.055  1.4510  0.2388 -2.2014
  298MOL0     H40195   4.848   7.337   8.131  2.0441 -0.3224  2.9594
  298MOL0     H40196   4.793   7.494   8.327  1.5973  2.3041 -0.5640
  298MOL0     H40197   4.681   7.613   8.338 -1.6764  0.3636 -0.8854
  298MOL0     H40198   4.624   7.346   8.216 -0.5989  0.2060 -0.0177
  298MOL0     H40199   4.599   7.376   8.388 -0.3366 -0.1345  0.5383
  298MOL0     H40200   4.451   7.535   8.165  0.3171  0.5682  0.1715
  298MOL0     H40201   4.417   7.545   8.333 -1.0992 -2.5406  1.5903
  298MOL0     H40202   4.419   7.262   8.193  0.6555  1.1632  0.2586
  298MOL0     H40203   4.343   7.308   8.340  1.1800 -0.7403 -0.8984
  298MOL0     H40204   4.274   7.419   8.052 -3.7769  1.9070  0.0343
  298MOL0     H40205   4.190   7.465   8.200  0.9739 -0.4085  1.5117
  298MOL0     H40206   4.226   7.191   8.079  0.5859  0.7243 -2.3212
  298MOL0     H40207   4.149   7.216   8.240  0.4127 -0.6633 -0.6658
  298MOL0     H40208   4.003   7.226   8.003 -1.8016 -0.0188  0.6763
  298MOL0     H40209   4.023   7.402   8.045 -4.2717 -0.8091 -1.2939
  298MOL0     H40210   3.941   7.339   8.269  2.1981  1.3719 -1.1016
  298MOL0     H40211   3.907   7.180   8.225 -0.6434  0.1984 -2.7065
  298MOL0     H40212   4.888   7.748   8.086 -1.2340 -0.8420 -1.3333
  298MOL0     H40213   5.126   7.728   8.044  0.2869  0.1732 -1.7473
  298MOL0     H40214   5.481   7.391   7.936 -1.2210 -2.2220  1.8569
  298MOL0     H40215   5.725   7.394   7.924  1.9050  0.7705  0.6850
  298MOL0     H40216   7.302   7.974   8.209  0.4250  1.0869  1.5663
  298MOL0     H40217   7.481   7.817   8.246  1.3427  0.7899  2.1906
  298MOL0     H40218   7.971   7.809   8.194 -3.0970 -0.1278 -0.6430
  298MOL0     H40219   8.153   7.652   8.276 -2.1930 -0.6101  1.1388
  298MOL0     H40220   8.316   7.303   8.018 -2.0082  1.0578 -1.6465
  298MOL0     H40221   8.319   7.464   7.972  0.7948 -2.2028 -1.1451
  298MOL0     H40222   8.449   7.523   8.197  0.3063  0.6621  0.1651
  298MOL0     H40223   8.538   7.464   8.061  2.3571 -4.8005 -0.1727
  298MOL0     H40224   8.621   7.354   8.266  0.4669 -1.7619 -0.1870
  298MOL0     H40225   8.546   7.240   8.154 -0.7521  0.4818 -1.3150
  298MOL0     H40226   8.333   7.245   8.285 -0.0516  0.3108  0.6605
  298MOL0     H40227   8.387   7.370   8.386 -0.4909  2.5221 -2.8449
  298MOL0     H40228   8.541   7.016   8.575 -1.1799  0.7755  1.1116
  298MOL0     H40229   8.051   7.383   7.961 -2.3155 -1.5579  1.0537
  298MOL0     H40230   7.851   7.511   7.909  0.4792 -2.0957  0.5628
  299MOL0     O40231   2.493   4.251   5.871  0.2086 -0.0692  0.0106
  299MOL0     C40232   2.556   4.181   5.794  0.7167 -0.6057  0.2945
  299MOL0     O40233   2.503   4.099   5.706  0.1436 -0.6927  0.6504
  299MOL0     C40234   2.370   4.078   5.715 -0.3772  0.6467  0.6465
  299MOL0     C40235   2.321   4.019   5.833 -0.3676  0.2338 -0.7088
  299MOL0     C40236   2.184   3.996   5.849 -0.1404  0.4920  0.7425
  299MOL0     C40237   2.094   4.036   5.747 -0.5978  0.1440  0.8138
  299MOL0     O40238   1.953   4.022   5.761 -0.2484  0.0698  0.2474
  299MOL0     C40239   1.895   3.895   5.712  0.1822  0.4242  0.3867
  299MOL0     C40240   1.746   3.880   5.723 -0.6469  0.8219  0.0840
  299MOL0     C40241   1.673   3.991   5.653 -0.4322  0.2714 -0.1404
  299MOL0     C40242   1.520   3.985   5.681 -0.9660 -0.6908 -0.7591
  299MOL0     C40243   1.449   4.113   5.621 -0.3530 -0.7381 -0.5047
  299MOL0     C40244   1.304   4.087   5.595  0.3476 -0.3056  0.5892
  299MOL0     C40245   1.242   4.074   5.740  0.8956 -0.0704  0.3379
  299MOL0     C40246   1.095   4.034   5.729  0.7423 -0.4307 -1.0221
  299MOL0     N40247   1.007   4.143   5.767  0.2983 -0.4621  0.7205
  299MOL0     C40248   0.895   4.142   5.851 -0.1945 -0.3530  0.6225
  299MOL0     C40249   0.843   4.264   5.858 -0.1699  0.6005  0.3759
  299MOL0     C40250   0.723   4.314   5.938 -0.2122 -0.0039 -0.8345
  299MOL0     C40251   0.625   4.401   5.859 -0.3899  0.1744 -0.2841
  299MOL0     C40252   0.487   4.392   5.905  0.5707 -0.3330 -0.4450
  299MOL0     C40253   0.410   4.520   5.867  0.8491  0.0975 -0.2164
  299MOL0     O40254   0.268   4.516   5.905 -0.1886 -0.2610 -0.7549
  299MOL0     C40255   0.198   4.630   5.879  0.4438 -0.4761  0.9271
  299MOL0     C40256   0.197   4.743   5.965  0.4832 -1.2267  0.0377
  299MOL0     C40257   0.115   4.859   5.943  0.0508  0.0303 -0.0592
  299MOL0     C40258   0.118   4.957   6.058  0.0102 -0.8734 -0.2096
  299MOL0     C40259   0.031   4.860   5.836 -0.4288 -0.3463 -0.3042
  299MOL0     C40260  -0.065   4.972   5.808  0.1118 -0.6346 -1.0871
  299MOL0     O40261  -0.168   4.932   5.731 -0.2495  0.0057 -0.2203
  299MOL0     C40262  -0.295   4.995   5.741 -1.0198  0.6779 -0.2579
  299MOL0     C40263  -0.404   4.921   5.796 -0.5429  0.0676  0.4891
  299MOL0     C40264  -0.529   4.972   5.797 -0.4410  0.5653  0.2109
  299MOL0     C40265  -0.561   5.098   5.755 -0.5574  0.3195  0.0902
  299MOL0     O40266  -0.686   5.143   5.754 -0.5020 -0.4624 -0.2895
  299MOL0     C40267  -0.715   5.265   5.703 -0.1736  0.3082  0.3184
  299MOL0     C40268  -0.852   5.302   5.755  0.5182 -0.0433  0.9126
  299MOL0     C40269  -0.953   5.227   5.670 -0.2383 -0.3609  0.1131
  299MOL0     C40270  -1.016   5.318   5.555 -0.1428  0.1818 -0.1526
  299MOL0     C40271  -1.036   5.230   5.431  0.7207 -0.1986 -0.2523
  299MOL0     C40272  -1.096   5.322   5.324 -0.5351  0.4375 -0.0771
  299MOL0     C40273  -1.158   5.236   5.205 -0.4171 -0.1888  0.1384
  299MOL0     C40274  -1.233   5.325   5.107 -0.8027 -0.0266  0.0592
  299MOL0    Cl40275  -1.127   5.428   4.998  0.3638 -0.4984  0.3242
  299MOL0     C40276  -0.457   5.168   5.689  0.1990 -1.1410  0.0709
  299MOL0     C40277  -0.321   5.128   5.700 -0.0054  0.2616 -0.1360
  299MOL0     O40278  -0.062   5.077   5.866  0.0644 -0.1426 -0.4960
  299MOL0     C40279   0.038   4.750   5.745 -0.6889 -0.0669 -0.0034
  299MOL0     C40280   0.119   4.634   5.770  0.6592 -0.8342  0.0388
  299MOL0     N40281   0.922   4.345   5.784  0.0892 -0.2920  0.4940
  299MOL0     N40282   1.023   4.279   5.734  0.0298 -0.7164  0.3803
  299MOL0     C40283   2.150   4.095   5.634 -0.5754  0.7694  0.3661
  299MOL0     C40284   2.283   4.122   5.616 -0.0338  0.2391 -0.3575
  299MOL0     C40285   2.699   4.194   5.780 -0.2690  0.4587  0.6133
  299MOL0     C40286   2.780   4.264   5.877  0.5073 -0.4796 -0.1113
  299MOL0     C40287   2.914   4.265   5.863 -0.1306  0.5617 -0.4620
  299MOL0     C40288   2.989   4.197   5.766  1.3711  0.8218  0.0003
  299MOL0     O40289   3.124   4.173   5.777 -0.1031  0.0492 -0.2266
  299MOL0     C40290   3.209   4.287   5.819  0.5509  0.4526  0.7239
  299MOL0     C40291   3.352   4.259   5.792  0.8067  0.7089  0.0825
  299MOL0     C40292   3.416   4.178   5.911  0.1297 -0.5186  0.1719
  299MOL0     C40293   3.551   4.124   5.877 -0.3467 -0.8667  0.3890
  299MOL0     C40294   3.645   4.228   5.839  0.4796 -0.4345 -1.4496
  299MOL0     C40295   3.732   4.294   5.781  0.9361 -0.4447  0.7106
  299MOL0     C40296   2.915   4.137   5.667 -0.1008 -0.1754 -0.1256
  299MOL0     C40297   2.775   4.139   5.675  0.5397 -0.3820  0.0197
  299MOL0     H40298   2.393   3.992   5.909  0.2616  0.3572 -1.2565
  299MOL0     H40299   2.143   3.948   5.938  1.4432 -0.4127  1.0399
  299MOL0     H40300   1.932   3.875   5.611  4.5080 -4.2395  2.4103
  299MOL0     H40301   1.934   3.816   5.776 -1.7432 -1.7285 -0.9561
  299MOL0     H40302   1.721   3.782   5.682  1.4383 -0.7887  2.3430
  299MOL0     H40303   1.725   3.877   5.831 -1.0252  1.5980  0.0357
  299MOL0     H40304   1.711   4.092   5.674 -0.2735 -0.4789  3.8590
  299MOL0     H40305   1.696   3.967   5.548  4.7037 -2.6686  1.3025
  299MOL0     H40306   1.471   3.893   5.647 -0.6469 -1.4888  0.8322
  299MOL0     H40307   1.517   3.986   5.790  0.9312  0.6575 -0.6636
  299MOL0     H40308   1.459   4.203   5.682 -1.9303  0.2313 -1.6037
  299MOL0     H40309   1.507   4.135   5.531  2.2138  4.4064  1.9883
  299MOL0     H40310   1.258   4.166   5.535  0.3415  0.4101  1.5138
  299MOL0     H40311   1.292   3.998   5.533  1.5660  0.8471 -1.4410
  299MOL0     H40312   1.287   3.985   5.785  1.8784  0.8872  1.3038
  299MOL0     H40313   1.277   4.157   5.802  1.8665 -0.0541 -0.2271
  299MOL0     H40314   1.075   3.952   5.799  1.3431 -0.1626 -0.5286
  299MOL0     H40315   1.053   4.012   5.631 -1.0022  0.6378 -0.5686
  299MOL0     H40316   0.856   4.053   5.901  1.3359 -2.1801 -1.2699
  299MOL0     H40317   0.671   4.220   5.959  0.5789  0.3343  3.8671
  299MOL0     H40318   0.757   4.359   6.032  1.6768  1.2149 -2.0489
  299MOL0     H40319   0.631   4.378   5.752  1.2015  1.8892 -0.6106
  299MOL0     H40320   0.663   4.503   5.868  5.1666 -1.6701  0.9342
  299MOL0     H40321   0.482   4.361   6.009 -1.4307  1.2582 -0.0043
  299MOL0     H40322   0.437   4.315   5.845  0.7645 -0.0315 -1.0039
  299MOL0     H40323   0.425   4.529   5.759  0.0488  0.7363 -0.2872
  299MOL0     H40324   0.452   4.613   5.906 -2.4080  0.7066  2.3882
  299MOL0     H40325   0.260   4.744   6.053  0.3333  0.0714  0.1583
  299MOL0     H40326   0.036   5.029   6.066  0.5843 -0.1171 -0.9310
  299MOL0     H40327   0.124   4.903   6.153 -0.3471 -0.8666 -0.1848
  299MOL0     H40328   0.215   5.009   6.056 -2.1613  3.7967  2.0448
  299MOL0     H40329  -0.384   4.822   5.837 -2.0679 -1.2376 -1.7423
  299MOL0     H40330  -0.606   4.905   5.835 -1.1601  0.8519 -0.7188
  299MOL0     H40331  -0.642   5.332   5.748 -0.2486  0.4035  0.2996
  299MOL0     H40332  -0.708   5.260   5.594 -1.9548  1.6103  0.1010
  299MOL0     H40333  -0.863   5.279   5.861 -1.3286  2.2907  1.3090
  299MOL0     H40334  -0.856   5.411   5.755 -0.2603  0.0957 -3.2980
  299MOL0     H40335  -1.035   5.195   5.735  2.7112  0.7238  4.8986
  299MOL0     H40336  -0.896   5.145   5.625  1.7161  0.9216  0.1069
  299MOL0     H40337  -1.112   5.361   5.585  0.3189 -0.6149  2.8375
  299MOL0     H40338  -0.952   5.402   5.526 -1.4787  0.6975 -1.7187
  299MOL0     H40339  -1.119   5.161   5.446  0.5769  0.4312  2.2986
  299MOL0     H40340  -0.945   5.173   5.410  0.4884 -2.0529  3.0596
  299MOL0     H40341  -1.178   5.382   5.364  0.2719  0.7575  1.1356
  299MOL0     H40342  -1.017   5.385   5.281  1.3212 -2.9018 -1.9483
  299MOL0     H40343  -1.223   5.160   5.250 -1.0031  0.4492  0.3730
  299MOL0     H40344  -1.080   5.179   5.152  2.4878  0.6016  3.1586
  299MOL0     H40345  -1.316   5.376   5.157 -0.0743 -0.2089  1.5202
  299MOL0     H40346  -1.286   5.252   5.045 -0.2895 -0.1028 -0.2940
  299MOL0     H40347  -0.471   5.262   5.637  3.7975 -0.7017 -0.3668
  299MOL0     H40348  -0.248   5.195   5.656  0.7240 -0.8896 -0.7263
  299MOL0     H40349  -0.036   4.744   5.665  0.4720  1.3447 -1.2403
  299MOL0     H40350   0.110   4.555   5.696 -4.2762 -0.6708  0.1279
  299MOL0     H40351   2.080   4.119   5.555  0.4215  0.7247 -0.5485
  299MOL0     H40352   2.324   4.160   5.523 -2.3503 -1.1220 -2.0713
  299MOL0     H40353   2.731   4.314   5.960 -1.0751  2.0937 -2.4310
  299MOL0     H40354   2.963   4.320   5.943  2.3641 -1.3654 -0.5298
  299MOL0     H40355   3.165   4.362   5.753 -1.9826 -1.5399 -0.0333
  299MOL0     H40356   3.197   4.328   5.919  0.1423 -1.2906  1.4191
  299MOL0     H40357   3.399   4.358   5.794  0.6721  0.7843 -0.4541
  299MOL0     H40358   3.374   4.224   5.690  0.4240 -0.9061  0.5234
  299MOL0     H40359   3.351   4.098   5.950  0.6475 -1.3122 -0.5567
  299MOL0     H40360   3.419   4.253   5.991  1.4763 -0.8063  0.4104
  299MOL0     H40361   3.543   4.065   5.785 -0.2083  0.8004 -0.7409
  299MOL0     H40362   3.594   4.076   5.965 -1.0876  0.6927  1.6530
  299MOL0     H40363   3.809   4.331   5.717  2.1730 -2.2087  1.1224
  299MOL0     H40364   2.960   4.082   5.585 -0.0339 -2.5105  1.3543
  299MOL0     H40365   2.717   4.101   5.592  3.3839 -2.9090 -0.9887
  300MOL0     O40366   9.383   4.231   9.369  0.5380 -0.1012 -0.3673
  300MOL0     C40367   9.390   4.329   9.438  0.1134 -0.1851  0.5732
  300MOL0     O40368   9.283   4.406   9.475 -0.4439 -0.3047  1.0294
  300MOL0     C40369   9.157   4.340   9.472 -0.2984 -0.2864 -0.4248
  300MOL0     C40370   9.140   4.219   9.542  0.2898  0.0182  0.4931
  300MOL0     C40371   9.017   4.160   9.560  0.4450 -0.5438  0.4470
  300MOL0     C40372   8.906   4.225   9.488 -0.6216  1.2900 -0.2664
  300MOL0     O40373   8.778   4.160   9.483 -1.0100  0.0665 -0.2245
  300MOL0     C40374   8.768   4.031   9.553  1.0010 -0.4096 -0.1660
  300MOL0     C40375   8.624   3.997   9.555  0.7638  0.1091 -0.4979
  300MOL0     C40376   8.565   3.954   9.424  0.1978 -0.0206 -0.0062
  300MOL0     C40377   8.410   3.975   9.415 -0.2434  1.3089 -0.5714
  300MOL0     C40378   8.367   3.942   9.276  0.7341  0.2231 -0.0998
  300MOL0     C40379   8.210   3.948   9.254  0.2985 -0.2168 -0.0797
  300MOL0     C40380   8.173   3.850   9.146 -0.0885 -0.2132  0.0144
  300MOL0     C40381   8.024   3.832   9.114 -0.4436 -1.0233 -0.6893
  300MOL0     N40382   7.967   3.948   9.047  0.0762  1.2284  0.6705
  300MOL0     C40383   7.847   4.011   9.076  1.0024  0.4670 -0.2854
  300MOL0     C40384   7.833   4.120   8.995 -1.3156 -0.3162  0.0193
  300MOL0     C40385   7.705   4.200   8.967  0.4477  0.8387 -0.2845
  300MOL0     C40386   7.673   4.307   9.069  0.2952  0.1863 -0.1010
  300MOL0     C40387   7.560   4.401   9.025  0.6926  1.0323 -0.1846
  300MOL0     C40388   7.429   4.330   9.003  0.2943 -0.2516  0.8612
  300MOL0     O40389   7.378   4.369   8.872  0.2469 -0.0250  0.4630
  300MOL0     C40390   7.299   4.477   8.881  1.2327  0.5738  0.0986
  300MOL0     C40391   7.350   4.601   8.859 -0.5252  0.0324 -0.4210
  300MOL0     C40392   7.274   4.722   8.876 -0.1126 -0.1014  0.3110
  300MOL0     C40393   7.358   4.848   8.890  0.1725  0.5898 -0.1925
  300MOL0     C40394   7.130   4.720   8.873 -0.0960 -0.3574  0.5139
  300MOL0     C40395   7.043   4.834   8.850  0.0354 -0.0744 -0.2099
  300MOL0     O40396   6.911   4.827   8.896  0.2510 -0.7673 -0.4987
  300MOL0     C40397   6.814   4.923   8.877  1.0852 -0.3549  0.4395
  300MOL0     C40398   6.699   4.932   8.959  0.6098 -0.6776 -1.3855
  300MOL0     C40399   6.600   5.028   8.945 -0.2785  0.0091  0.1759
  300MOL0     C40400   6.622   5.126   8.847 -0.9510 -0.5059  0.2519
  300MOL0     O40401   6.530   5.224   8.838 -0.1060  0.4648  0.3819
  300MOL0     C40402   6.483   5.251   8.704 -0.1241  0.1430 -0.5513
  300MOL0     C40403   6.341   5.301   8.701  0.5664  0.7884  1.3510
  300MOL0     C40404   6.307   5.427   8.788  0.1469  0.2817 -0.8811
  300MOL0     C40405   6.362   5.561   8.734 -0.0192  0.3078 -0.1752
  300MOL0     C40406   6.336   5.689   8.811  0.7020 -0.0564 -0.3619
  300MOL0     C40407   6.213   5.787   8.761  0.1987  0.1386  0.4766
  300MOL0     C40408   6.176   5.889   8.864  0.2940 -0.4474  0.7229
  300MOL0     C40409   6.285   5.965   8.903 -1.5016 -0.5327 -1.1069
  300MOL0    Cl40410   6.228   6.126   8.965  0.2903 -0.4213 -0.4755
  300MOL0     C40411   6.731   5.116   8.752  0.2949  0.9029 -0.6500
  300MOL0     C40412   6.824   5.017   8.775 -1.4582 -0.2233 -0.0854
  300MOL0     O40413   7.097   4.926   8.785  0.5404 -0.1770  0.3276
  300MOL0     C40414   7.075   4.586   8.884 -0.2413  0.4850  0.2866
  300MOL0     C40415   7.161   4.472   8.888  0.1012 -0.9904 -0.5419
  300MOL0     N40416   7.957   4.127   8.926 -0.5835 -0.1454 -0.8893
  300MOL0     N40417   8.033   4.026   8.952  0.4842 -0.4616  0.5352
  300MOL0     C40418   8.915   4.342   9.425 -0.9301 -0.3026  0.1325
  300MOL0     C40419   9.046   4.399   9.423  0.1502 -0.2091  0.6768
  300MOL0     C40420   9.516   4.399   9.439 -0.4772 -0.8981  0.0612
  300MOL0     C40421   9.527   4.537   9.450 -0.2285  0.8265 -0.1520
  300MOL0     C40422   9.655   4.592   9.445  0.2903  0.1557  0.1662
  300MOL0     C40423   9.772   4.520   9.415  1.1727  0.4241 -0.1968
  300MOL0     O40424   9.891   4.574   9.385 -0.4842 -0.4886  0.7501
  300MOL0     C40425   9.905   4.703   9.332 -0.4008 -1.0673 -0.6520
  300MOL0     C40426  10.052   4.753   9.330 -0.2685  0.8885  0.1165
  300MOL0     C40427  10.061   4.906   9.286  0.3621  0.5888  0.1377
  300MOL0     C40428  10.050   5.002   9.408  0.0551  0.3450 -0.0407
  300MOL0     C40429  10.192   5.006   9.456 -0.2701  0.0917  0.2956
  300MOL0     C40430  10.313   4.995   9.483  0.6260  0.1823 -0.2808
  300MOL0     C40431   9.754   4.384   9.398  0.3513 -0.2548 -0.1116
  300MOL0     C40432   9.628   4.320   9.410 -0.1841 -1.0616  0.2924
  300MOL0     H40433   9.237   4.189   9.582  2.8238  4.1692 -1.8274
  300MOL0     H40434   9.018   4.062   9.606  1.7598 -1.2518 -0.9927
  300MOL0     H40435   8.827   3.952   9.507 -0.4615 -1.4235 -0.3525
  300MOL0     H40436   8.809   4.036   9.655  3.2986  0.7486 -1.0719
  300MOL0     H40437   8.618   3.921   9.634  1.2717  0.6021  0.0184
  300MOL0     H40438   8.581   4.092   9.586  0.6757  0.8872 -2.8418
  300MOL0     H40439   8.622   4.004   9.345 -1.6272  1.4053 -0.4991
  300MOL0     H40440   8.569   3.845   9.417  2.1897  0.0912 -1.0655
  300MOL0     H40441   8.354   3.920   9.491  2.2565  3.1527  2.8786
  300MOL0     H40442   8.383   4.080   9.428  0.8288  1.6258 -0.8117
  300MOL0     H40443   8.407   4.017   9.207 -0.9215 -1.3961 -2.9744
  300MOL0     H40444   8.400   3.844   9.241  1.8655 -0.1366  1.8170
  300MOL0     H40445   8.162   3.916   9.347  1.3584  2.4583  1.5051
  300MOL0     H40446   8.172   4.046   9.224 -1.2636 -1.7588 -3.7791
  300MOL0     H40447   8.235   3.870   9.058 -0.8604 -0.4063 -0.5877
  300MOL0     H40448   8.207   3.754   9.184 -0.6373 -1.1089 -1.6498
  300MOL0     H40449   7.976   3.816   9.211 -1.2204  0.8003 -0.7356
  300MOL0     H40450   8.006   3.745   9.051 -1.3724 -1.6470  0.4039
  300MOL0     H40451   7.766   3.965   9.131  1.9424  2.4480  3.0167
  300MOL0     H40452   7.705   4.235   8.864 -3.2429 -0.5072 -0.9305
  300MOL0     H40453   7.621   4.130   8.958  0.1884  1.3976 -2.7303
  300MOL0     H40454   7.767   4.361   9.084 -0.1553  2.3881 -3.9435
  300MOL0     H40455   7.651   4.259   9.165 -2.7595 -0.0415 -0.8108
  300MOL0     H40456   7.588   4.454   8.934  0.1009 -1.6127 -2.0048
  300MOL0     H40457   7.569   4.474   9.106  3.7645 -2.6283  3.1825
  300MOL0     H40458   7.364   4.361   9.086  1.3786  3.1181  0.6252
  300MOL0     H40459   7.452   4.224   8.996  1.0651  0.0141 -1.5450
  300MOL0     H40460   7.456   4.607   8.839 -0.5728 -1.6463 -1.3983
  300MOL0     H40461   7.448   4.812   8.941 -0.4121 -1.4738 -0.5105
  300MOL0     H40462   7.378   4.896   8.794  0.4327  3.9572  1.4037
  300MOL0     H40463   7.297   4.913   8.954  1.4673 -1.7396  3.7588
  300MOL0     H40464   6.703   4.855   9.036  2.8675  4.0461  3.9754
  300MOL0     H40465   6.505   5.024   8.997 -0.2427  0.8750  0.3316
  300MOL0     H40466   6.549   5.326   8.660 -0.0861 -0.3618 -1.3730
  300MOL0     H40467   6.501   5.157   8.650  1.2112 -0.9055  1.5539
  300MOL0     H40468   6.305   5.323   8.599 -0.6229  1.6072  1.9160
  300MOL0     H40469   6.271   5.221   8.728  0.6049  0.3492  0.1979
  300MOL0     H40470   6.359   5.413   8.883 -1.4313 -3.2360 -0.3746
  300MOL0     H40471   6.200   5.442   8.806  0.0148 -1.5777  0.0910
  300MOL0     H40472   6.470   5.546   8.723 -0.1572 -0.7615 -0.1673
  300MOL0     H40473   6.321   5.575   8.633 -0.4953 -0.9934 -0.1815
  300MOL0     H40474   6.427   5.748   8.800 -0.4250  1.6669 -0.7868
  300MOL0     H40475   6.325   5.657   8.915  2.3334 -3.9465 -1.1816
  300MOL0     H40476   6.234   5.831   8.663  0.5550 -1.9999 -0.4721
  300MOL0     H40477   6.125   5.723   8.746 -1.2624  2.2954 -0.7657
  300MOL0     H40478   6.135   5.840   8.952  1.9162 -2.5876  0.3578
  300MOL0     H40479   6.098   5.949   8.816  0.1107 -2.7765 -2.1933
  300MOL0     H40480   6.341   5.992   8.813 -0.2924  0.7615 -0.0136
  300MOL0     H40481   6.357   5.917   8.971  0.5883  3.7687  0.0976
  300MOL0     H40482   6.759   5.192   8.680  2.9690 -0.8348 -1.6195
  300MOL0     H40483   6.914   5.021   8.714 -0.4625  0.4100  1.3793
  300MOL0     H40484   6.969   4.566   8.900  0.0878 -1.4014  0.3359
  300MOL0     H40485   7.108   4.378   8.905 -0.1268 -0.9984 -1.2800
  300MOL0     H40486   8.829   4.376   9.369  0.9489 -0.3212 -2.9666
  300MOL0     H40487   9.052   4.492   9.368  0.5045  1.4993  3.4142
  300MOL0     H40488   9.439   4.595   9.474  0.7894  1.9957  0.9026
  300MOL0     H40489   9.662   4.700   9.445 -0.3448  0.2072 -0.9967
  300MOL0     H40490   9.864   4.704   9.230 -1.5587 -2.8551 -0.2390
  300MOL0     H40491   9.852   4.783   9.385  1.8701  0.9893 -1.2840
  300MOL0     H40492  10.112   4.692   9.262  0.4838 -0.9677  2.3172
  300MOL0     H40493  10.095   4.742   9.430 -0.3082 -1.5771 -0.0641
  300MOL0     H40494   9.970   4.917   9.226 -0.2448 -0.0229  0.9256
  300MOL0     H40495  10.153   4.932   9.232  1.3747  1.3643  2.1235
  300MOL0     H40496   9.979   4.955   9.478  0.6779  1.4769  1.4201
  300MOL0     H40497  10.011   5.095   9.366 -1.1566 -0.4059 -0.6321
  300MOL0     H40498  10.415   4.979   9.513  0.4932 -0.7688 -0.3144
  300MOL0     H40499   9.841   4.322   9.378  2.1934  2.3281 -0.4796
  300MOL0     H40500   9.625   4.216   9.379  0.2818 -0.3594 -2.3737
  301MOL0     O40501   2.635   5.276   4.503 -0.3871  0.5062 -0.0131
  301MOL0     C40502   2.745   5.320   4.537  0.1965 -0.3847  0.0468
  301MOL0     O40503   2.764   5.423   4.630  0.2248 -0.0295  0.0850
  301MOL0     C40504   2.649   5.441   4.705  0.1264  0.4625 -0.7952
  301MOL0     C40505   2.546   5.532   4.669 -0.6064 -0.2118  0.3301
  301MOL0     C40506   2.432   5.557   4.750 -0.6370  0.7204  1.4596
  301MOL0     C40507   2.418   5.478   4.870 -0.1974 -0.4156  0.9859
  301MOL0     O40508   2.318   5.476   4.967 -0.4050 -0.1361  0.0067
  301MOL0     C40509   2.233   5.592   4.951  0.8078 -0.2388 -0.3507
  301MOL0     C40510   2.133   5.609   5.065 -0.1952  0.0065  1.2698
  301MOL0     C40511   2.183   5.697   5.185  0.6388  0.1096 -0.4272
  301MOL0     C40512   2.330   5.654   5.223 -0.2344  0.1346  0.7480
  301MOL0     C40513   2.363   5.515   5.283  0.6491  0.2515 -0.1138
  301MOL0     C40514   2.516   5.500   5.302  0.0552  0.7633  0.1180
  301MOL0     C40515   2.543   5.356   5.351  0.3709  0.3645  0.7228
  301MOL0     C40516   2.693   5.347   5.408  0.5072 -0.5177  0.9603
  301MOL0     N40517   2.732   5.211   5.375  0.1207  0.4089 -0.0895
  301MOL0     C40518   2.746   5.108   5.468 -0.2167 -0.2846 -0.2317
  301MOL0     C40519   2.822   5.011   5.415 -0.1772 -1.0484  0.0312
  301MOL0     C40520   2.881   4.895   5.478 -0.3836 -0.5140 -0.6050
  301MOL0     C40521   3.026   4.909   5.523  0.4043 -0.7344 -0.9868
  301MOL0     C40522   3.078   4.783   5.582 -0.0539  0.4546 -1.1345
  301MOL0     C40523   3.207   4.808   5.657 -0.3040 -0.5665  0.5606
  301MOL0     O40524   3.303   4.862   5.565  0.6730 -1.3988 -0.1991
  301MOL0     C40525   3.432   4.826   5.563 -0.8622 -0.6924 -0.5574
  301MOL0     C40526   3.490   4.750   5.664  0.3166 -0.7862  0.4857
  301MOL0     C40527   3.624   4.713   5.665 -0.1704  0.9954  0.5327
  301MOL0     C40528   3.685   4.647   5.784  0.4774 -0.0265  0.2391
  301MOL0     C40529   3.711   4.754   5.558 -0.7012  0.0034  0.9126
  301MOL0     C40530   3.848   4.694   5.543  0.5801 -0.0201  0.0015
  301MOL0     O40531   3.921   4.760   5.445 -0.3202  0.4164 -0.2653
  301MOL0     C40532   4.044   4.717   5.397  0.8615 -0.7062 -0.4681
  301MOL0     C40533   4.120   4.812   5.331 -0.6452 -0.2845 -0.0078
  301MOL0     C40534   4.239   4.789   5.273  0.3229 -0.6879 -0.2757
  301MOL0     C40535   4.307   4.664   5.283  0.4760  0.1347 -0.1321
  301MOL0     O40536   4.433   4.653   5.223  0.4421  0.0699  0.2482
  301MOL0     C40537   4.514   4.537   5.267  0.3168 -0.0107 -0.3160
  301MOL0     C40538   4.647   4.549   5.199  0.2605  0.3358  0.6778
  301MOL0     C40539   4.724   4.417   5.209  0.3147  0.9832 -0.6486
  301MOL0     C40540   4.865   4.429   5.143  0.2065  0.5431 -0.4346
  301MOL0     C40541   4.931   4.285   5.131  0.4364  0.1145  0.7459
  301MOL0     C40542   5.052   4.297   5.047  0.2004 -0.2448 -1.0000
  301MOL0     C40543   5.142   4.174   5.060 -0.1896 -1.0354  0.3147
  301MOL0     C40544   5.236   4.142   4.942 -0.1563 -0.2087 -0.6605
  301MOL0    Cl40545   5.162   4.159   4.783 -0.3264  0.2754  0.5368
  301MOL0     C40546   4.236   4.565   5.359 -0.5438  0.7197  0.7663
  301MOL0     C40547   4.106   4.593   5.415 -0.2491  0.4430  0.2483
  301MOL0     O40548   3.876   4.595   5.603  0.0204  0.2971 -1.4003
  301MOL0     C40549   3.651   4.822   5.450  0.8356 -0.5732  0.0613
  301MOL0     C40550   3.516   4.868   5.457  0.5913  0.6249 -0.1169
  301MOL0     N40551   2.850   5.054   5.281 -0.5571  0.4664  0.1464
  301MOL0     N40552   2.802   5.173   5.263  0.9642  0.4049  0.6108
  301MOL0     C40553   2.535   5.403   4.909  1.2128  0.0007 -0.6043
  301MOL0     C40554   2.645   5.388   4.832 -0.6245 -0.7416  0.1413
  301MOL0     C40555   2.862   5.273   4.466 -0.1300  0.7556 -0.4221
  301MOL0     C40556   2.855   5.155   4.388  0.3440 -0.3877 -0.6821
  301MOL0     C40557   2.965   5.096   4.331 -0.8821 -0.4425  0.1629
  301MOL0     C40558   3.092   5.151   4.355  0.4335 -0.7013 -0.8776
  301MOL0     O40559   3.218   5.113   4.318 -0.0990  0.1727  0.1152
  301MOL0     C40560   3.228   4.992   4.249 -0.7711  0.3169  0.3725
  301MOL0     C40561   3.178   5.008   4.100 -0.1703 -0.4880  0.2254
  301MOL0     C40562   3.264   5.085   4.009 -0.9383  0.0704  0.1207
  301MOL0     C40563   3.385   4.995   3.966  1.4078  0.5728  0.0817
  301MOL0     C40564   3.453   5.054   3.850 -0.4214 -0.3967 -0.9562
  301MOL0     C40565   3.532   5.088   3.761  0.0096 -0.1690  0.7429
  301MOL0     C40566   3.100   5.276   4.430 -0.2392  0.6150  0.6763
  301MOL0     C40567   2.986   5.326   4.487  0.2626  0.1659  0.0397
  301MOL0     H40568   2.563   5.589   4.578  2.0166  0.4704  1.1328
  301MOL0     H40569   2.354   5.625   4.717 -2.6395 -2.3914 -0.8679
  301MOL0     H40570   2.279   5.691   4.945  1.9967 -0.7057  0.6001
  301MOL0     H40571   2.185   5.578   4.854  0.8652  0.1295 -0.4324
  301MOL0     H40572   2.041   5.661   5.035 -1.2524 -1.0354  2.5692
  301MOL0     H40573   2.109   5.511   5.108  0.1122  0.6883  3.0520
  301MOL0     H40574   2.174   5.802   5.159 -1.3947 -0.2585 -1.4336
  301MOL0     H40575   2.111   5.677   5.265  1.9523 -1.5619  0.4245
  301MOL0     H40576   2.388   5.653   5.130  1.4663  3.0003  1.6450
  301MOL0     H40577   2.381   5.731   5.283  1.5650 -0.9031  0.6236
  301MOL0     H40578   2.305   5.495   5.373 -0.0745  0.9564 -0.4046
  301MOL0     H40579   2.336   5.434   5.214 -0.1637  0.5069 -0.1023
  301MOL0     H40580   2.568   5.513   5.207 -1.2862 -0.0845 -0.7614
  301MOL0     H40581   2.544   5.583   5.367 -0.4230  1.3356 -0.4005
  301MOL0     H40582   2.473   5.323   5.428 -1.9180 -1.8098 -2.0351
  301MOL0     H40583   2.527   5.292   5.264 -1.8652  1.2164  0.4339
  301MOL0     H40584   2.700   5.386   5.510 -1.2555 -0.2773  1.0310
  301MOL0     H40585   2.749   5.412   5.340  0.5471 -1.0936  0.4315
  301MOL0     H40586   2.714   5.115   5.571  1.2151 -1.9536  0.3612
  301MOL0     H40587   2.818   4.874   5.565 -2.3143 -0.7383 -1.9945
  301MOL0     H40588   2.879   4.818   5.399  3.2481 -0.3953 -0.9709
  301MOL0     H40589   3.027   4.988   5.598 -2.3337  1.2808 -2.8878
  301MOL0     H40590   3.084   4.938   5.434  1.2905 -0.4577 -0.3388
  301MOL0     H40591   3.081   4.707   5.504 -2.1821 -3.1366  1.9817
  301MOL0     H40592   3.003   4.742   5.650  2.0874 -1.7332  0.0413
  301MOL0     H40593   3.236   4.714   5.704  1.8243  0.4332  1.3944
  301MOL0     H40594   3.190   4.888   5.730 -0.6914  0.8776 -1.0299
  301MOL0     H40595   3.429   4.715   5.747 -2.0651 -2.0137 -1.6837
  301MOL0     H40596   3.776   4.699   5.812  0.1648 -0.1841  1.5827
  301MOL0     H40597   3.616   4.662   5.868 -0.1457 -2.0660  0.1549
  301MOL0     H40598   3.687   4.537   5.786 -3.9519 -0.2925  0.5248
  301MOL0     H40599   4.084   4.914   5.332 -0.4274 -0.1370 -2.4136
  301MOL0     H40600   4.303   4.864   5.227  1.8034  1.3172  4.3746
  301MOL0     H40601   4.513   4.528   5.376  1.2471  0.4228 -0.2632
  301MOL0     H40602   4.459   4.449   5.232  0.9338 -1.2746  1.7113
  301MOL0     H40603   4.635   4.574   5.093  1.5260  1.6074  0.8137
  301MOL0     H40604   4.695   4.631   5.254  0.0584  0.2729  0.9522
  301MOL0     H40605   4.668   4.335   5.163  4.8904 -2.6882 -0.4841
  301MOL0     H40606   4.735   4.398   5.316 -0.1498  0.8758 -0.6194
  301MOL0     H40607   4.862   4.477   5.044  1.0248  1.5019 -0.0226
  301MOL0     H40608   4.935   4.484   5.207  1.7850  1.7849 -3.0226
  301MOL0     H40609   4.861   4.222   5.075  1.8445  0.2708 -1.3193
  301MOL0     H40610   4.953   4.245   5.230 -1.4547 -1.6293  0.5312
  301MOL0     H40611   5.026   4.307   4.941  2.0656  0.2411 -1.4410
  301MOL0     H40612   5.109   4.385   5.076 -1.9298  2.0077 -3.0587
  301MOL0     H40613   5.089   4.080   5.076  0.9382 -2.1542 -2.0337
  301MOL0     H40614   5.196   4.183   5.155 -0.3897 -3.7285  0.7697
  301MOL0     H40615   5.278   4.042   4.947 -0.7907 -0.5198 -1.3032
  301MOL0     H40616   5.312   4.220   4.950 -0.3854 -0.1338  1.4772
  301MOL0     H40617   4.288   4.470   5.365  2.2942  2.0730 -0.5513
  301MOL0     H40618   4.062   4.509   5.468 -0.8912  0.5209 -0.1460
  301MOL0     H40619   3.712   4.848   5.364  1.7848  0.3141  0.9722
  301MOL0     H40620   3.476   4.913   5.367 -1.8657  0.9572  1.0557
  301MOL0     H40621   2.534   5.351   5.005 -0.8931 -0.1200 -0.6473
  301MOL0     H40622   2.730   5.323   4.853 -1.9400 -2.8462 -0.7230
  301MOL0     H40623   2.760   5.103   4.379 -0.4746  0.9141  0.0548
  301MOL0     H40624   2.950   5.004   4.275 -0.2490 -0.3058 -0.2355
  301MOL0     H40625   3.335   4.969   4.244 -1.2817 -2.3013 -0.2301
  301MOL0     H40626   3.178   4.905   4.294 -0.4586 -1.3100 -2.1783
  301MOL0     H40627   3.082   5.061   4.100 -0.0214 -0.2106  0.8510
  301MOL0     H40628   3.158   4.908   4.060  1.2125 -0.0414 -1.7272
  301MOL0     H40629   3.295   5.176   4.061 -0.1863  0.2289 -0.5806
  301MOL0     H40630   3.207   5.117   3.921 -2.1344 -1.9853  0.0932
  301MOL0     H40631   3.356   4.892   3.939 -0.3802  0.1689  3.1213
  301MOL0     H40632   3.453   4.983   4.051 -2.4281 -1.4095  3.2274
  301MOL0     H40633   3.598   5.125   3.685  0.7730 -3.1370 -0.1855
  301MOL0     H40634   3.197   5.320   4.448 -0.3169  0.8918  0.4295
  301MOL0     H40635   3.003   5.413   4.550  2.3548 -0.5936  0.6051
  302MOL0     O40636   3.517   4.268  10.518 -0.3551  0.4794  0.7511
  302MOL0     C40637   3.583   4.169  10.473 -0.7164 -0.5301 -0.3542
  302MOL0     O40638   3.581   4.044  10.530 -0.7737  0.2130  0.1384
  302MOL0     C40639   3.477   4.020  10.625 -0.6818 -0.0921 -1.5088
  302MOL0     C40640   3.490   4.076  10.750  0.6250  0.0140 -0.5872
  302MOL0     C40641   3.394   4.041  10.849 -0.6519 -0.2691  0.5291
  302MOL0     C40642   3.287   3.952  10.829  0.1858  0.7108 -0.1202
  302MOL0     O40643   3.185   3.906  10.914  0.1428 -0.2112 -0.3178
  302MOL0     C40644   3.122   3.997  11.010  0.0473 -0.3368  0.6975
  302MOL0     C40645   2.978   3.959  11.041  0.0405  0.3824  0.0275
  302MOL0     C40646   2.920   4.036  11.155 -0.1564  0.3331 -0.6395
  302MOL0     C40647   2.792   3.962  11.207 -0.2546 -0.4193  0.9536
  302MOL0     C40648   2.747   4.019  11.345 -0.1538 -0.2772 -0.4247
  302MOL0     C40649   2.630   3.940  11.394 -0.9639 -0.0222 -0.2076
  302MOL0     C40650   2.600   3.965  11.549  1.3883 -0.1660  0.1212
  302MOL0     C40651   2.563   4.109  11.601 -0.8074  0.2167 -0.5721
  302MOL0     N40652   2.436   4.124  11.544 -0.3733  0.1608  0.2322
  302MOL0     C40653   2.406   4.210  11.445 -0.4153 -0.3014  0.1343
  302MOL0     C40654   2.272   4.222  11.457  0.1645  0.3662 -0.8173
  302MOL0     C40655   2.190   4.308  11.361 -1.0594 -0.0838 -1.2872
  302MOL0     C40656   2.091   4.227  11.276  0.1130 -0.2316  0.5082
  302MOL0     C40657   2.005   4.312  11.184  0.9089 -0.3156  0.2671
  302MOL0     C40658   1.891   4.372  11.270 -0.1617  0.1690 -0.4825
  302MOL0     O40659   1.792   4.278  11.311  0.0523  0.2324  0.9626
  302MOL0     C40660   1.668   4.314  11.369  1.1416  0.4534 -0.3338
  302MOL0     C40661   1.632   4.435  11.421 -0.6231  0.0277  1.4426
  302MOL0     C40662   1.523   4.464  11.499 -0.1064  0.3880 -0.4093
  302MOL0     C40663   1.521   4.604  11.555 -0.1173 -0.2034 -0.3108
  302MOL0     C40664   1.419   4.365  11.516  0.3586 -0.6321  0.1884
  302MOL0     C40665   1.298   4.373  11.609 -0.3203  0.4085  0.5079
  302MOL0     O40666   1.202   4.279  11.590 -0.4447  0.1777  0.0483
  302MOL0     C40667   1.098   4.286  11.679  0.0116 -0.4181 -0.1005
  302MOL0     C40668   1.027   4.403  11.711  0.7059  0.2777  0.2472
  302MOL0     C40669   0.911   4.406  11.800 -0.2444  0.2950 -0.4267
  302MOL0     C40670   0.858   4.290  11.848 -0.1732  0.0074 -0.1397
  302MOL0     O40671   0.741   4.286  11.915 -0.2231  0.1353  0.1207
  302MOL0     C40672   0.639   4.384  11.910 -0.4029 -0.1264 -0.0838
  302MOL0     C40673   0.508   4.318  11.943 -0.2184 -0.2893  0.0609
  302MOL0     C40674   0.500   4.255  12.081 -0.1979  0.2708  0.2507
  302MOL0     C40675   0.349   4.210  12.109  1.2419 -0.4566 -0.3299
  302MOL0     C40676   0.260   4.327  12.148 -0.0693 -0.3398 -0.7412
  302MOL0     C40677   0.112   4.292  12.173 -0.2961  0.6825 -0.2084
  302MOL0     C40678   0.039   4.271  12.036 -0.6362 -0.4527  0.6889
  302MOL0     C40679  -0.109   4.235  12.065 -0.0995  0.5525  0.1647
  302MOL0    Cl40680  -0.193   4.405  12.076 -0.0517 -0.0551  0.4204
  302MOL0     C40681   0.924   4.171  11.825 -1.3973  0.2070  0.0245
  302MOL0     C40682   1.048   4.169  11.747 -0.2915 -0.6148 -0.6502
  302MOL0     O40683   1.302   4.454  11.698 -0.1638 -0.0504  0.9929
  302MOL0     C40684   1.443   4.238  11.456 -0.1259  0.2100  0.1728
  302MOL0     C40685   1.570   4.212  11.398 -0.2812  0.2864 -1.0559
  302MOL0     N40686   2.221   4.148  11.555 -0.9376 -0.2991 -0.0382
  302MOL0     N40687   2.322   4.094  11.610 -0.1057  0.5104 -0.0172
  302MOL0     C40688   3.285   3.883  10.708  0.4822 -0.2068 -0.7904
  302MOL0     C40689   3.382   3.920  10.609  0.1594  0.6611  1.3416
  302MOL0     C40690   3.658   4.177  10.349 -0.3918 -0.2779  1.1922
  302MOL0     C40691   3.792   4.134  10.338 -0.1192  0.1045  1.1362
  302MOL0     C40692   3.846   4.097  10.214  0.2492  1.0030  0.0406
  302MOL0     C40693   3.778   4.124  10.093  0.0941  0.7983 -0.3152
  302MOL0     O40694   3.833   4.105   9.969  0.5887  0.1755 -0.0499
  302MOL0     C40695   3.836   3.968   9.935  0.5889  0.5880  0.0723
  302MOL0     C40696   3.770   3.947   9.800  0.1719  0.1135 -0.6953
  302MOL0     C40697   3.617   3.970   9.802 -0.5295 -0.4159 -0.3318
  302MOL0     C40698   3.555   3.957   9.659 -0.3627 -0.0163 -0.5855
  302MOL0     C40699   3.581   3.828   9.602  0.4813 -0.3874  0.9606
  302MOL0     C40700   3.608   3.718   9.557 -0.1941 -0.7526  0.7451
  302MOL0     C40701   3.653   4.178  10.098  0.0058  0.5581  1.1678
  302MOL0     C40702   3.588   4.200  10.225 -0.0973 -0.0441  1.1445
  302MOL0     H40703   3.579   4.137  10.766  0.4145 -0.1399  1.4659
  302MOL0     H40704   3.407   4.095  10.942 -1.4726 -2.0424  1.7423
  302MOL0     H40705   3.172   3.985  11.106 -1.6587  0.9057  1.8029
  302MOL0     H40706   3.118   4.098  10.968 -1.1066 -1.2123 -1.4801
  302MOL0     H40707   2.923   3.974  10.947 -1.9787  1.0251  1.2666
  302MOL0     H40708   2.978   3.850  11.052 -0.4643  0.5115  1.4179
  302MOL0     H40709   2.990   4.032  11.239  0.7128 -2.1431 -1.4090
  302MOL0     H40710   2.908   4.141  11.124  3.1577  0.4070 -2.1794
  302MOL0     H40711   2.708   3.965  11.137 -0.9531  1.4766  1.8181
  302MOL0     H40712   2.815   3.856  11.223 -0.8390 -0.7135 -0.0425
  302MOL0     H40713   2.826   4.023  11.421 -1.1427 -1.0078  0.6797
  302MOL0     H40714   2.707   4.120  11.331  0.4535  0.1931  1.1003
  302MOL0     H40715   2.549   3.962  11.324  0.5057  2.8000 -1.1724
  302MOL0     H40716   2.662   3.836  11.382  2.5517  1.0231 -0.9884
  302MOL0     H40717   2.521   3.896  11.580  1.5377  0.2342  1.4539
  302MOL0     H40718   2.690   3.929  11.600  4.8474  2.4880 -3.4347
  302MOL0     H40719   2.629   4.183  11.555  0.5068 -0.0154  0.8446
  302MOL0     H40720   2.559   4.113  11.710 -0.5151  0.8759 -0.5809
  302MOL0     H40721   2.465   4.265  11.372 -0.1245  2.4074  2.2122
  302MOL0     H40722   2.131   4.374  11.425 -2.8288 -0.2993 -2.6045
  302MOL0     H40723   2.251   4.366  11.291 -1.3957 -0.7197 -2.1355
  302MOL0     H40724   2.031   4.157  11.334 -0.3170  1.3231  2.0064
  302MOL0     H40725   2.153   4.166  11.209 -1.2410  2.1490 -3.2798
  302MOL0     H40726   1.975   4.245  11.103  0.6376  1.6602 -1.3529
  302MOL0     H40727   2.060   4.392  11.133  1.3143  1.0261  2.6399
  302MOL0     H40728   1.846   4.448  11.207 -0.5885 -0.5345 -1.0390
  302MOL0     H40729   1.935   4.423  11.357 -0.3586  0.9987 -0.8629
  302MOL0     H40730   1.709   4.512  11.416 -0.9892  0.3958  1.3804
  302MOL0     H40731   1.422   4.625  11.596  0.3090 -0.8514  1.1342
  302MOL0     H40732   1.589   4.610  11.640 -1.6629  0.5385  0.9108
  302MOL0     H40733   1.554   4.683  11.487 -1.2645  1.3591  0.8822
  302MOL0     H40734   1.064   4.495  11.665 -1.9069  0.1976 -2.3372
  302MOL0     H40735   0.863   4.502  11.817  0.5899  0.3845  1.6622
  302MOL0     H40736   0.660   4.462  11.984  1.6403 -0.3564 -0.3509
  302MOL0     H40737   0.643   4.431  11.812  0.2527  0.1279  0.0560
  302MOL0     H40738   0.427   4.392  11.933  0.5544  0.5264 -0.3190
  302MOL0     H40739   0.499   4.234  11.873  2.6939 -1.7317  1.2659
  302MOL0     H40740   0.532   4.324  12.161  0.0732  1.2854 -0.7010
  302MOL0     H40741   0.578   4.179  12.090  0.2490  0.7374  0.4033
  302MOL0     H40742   0.313   4.150  12.024  1.3572  0.0668 -0.7526
  302MOL0     H40743   0.345   4.146  12.197 -1.9007 -0.4120 -0.3011
  302MOL0     H40744   0.259   4.401  12.068 -5.1353  0.9693  0.1868
  302MOL0     H40745   0.288   4.370  12.245  0.6813 -0.1874 -1.0203
  302MOL0     H40746   0.110   4.203  12.236 -1.9418  0.7176 -0.1817
  302MOL0     H40747   0.075   4.380  12.226  1.1189  0.4497  1.2430
  302MOL0     H40748   0.077   4.177  11.994  2.1206  0.8459  0.0318
  302MOL0     H40749   0.054   4.348  11.960  0.2680 -3.5527 -2.5817
  302MOL0     H40750  -0.119   4.180  12.158  1.0641  0.9209  0.5306
  302MOL0     H40751  -0.144   4.172  11.982 -0.0282 -0.2767  0.7592
  302MOL0     H40752   0.871   4.078  11.847 -2.2081  0.5422 -0.4749
  302MOL0     H40753   1.105   4.077  11.746 -1.4938 -1.5997  3.3987
  302MOL0     H40754   1.372   4.157  11.470 -2.0391  1.6501 -0.6168
  302MOL0     H40755   1.596   4.107  11.387  3.9339  1.0395  0.0986
  302MOL0     H40756   3.207   3.810  10.691 -1.0949  1.2966 -0.2393
  302MOL0     H40757   3.395   3.851  10.526 -0.6852 -0.3348  2.0189
  302MOL0     H40758   3.857   4.109  10.421  1.7799  0.9135 -0.0387
  302MOL0     H40759   3.950   4.064  10.219 -0.7386 -2.1969  2.4832
  302MOL0     H40760   3.939   3.933   9.921  0.0541 -1.3041  0.5662
  302MOL0     H40761   3.788   3.896  10.001 -0.8278 -0.1838 -1.7265
  302MOL0     H40762   3.797   3.845   9.770 -0.6250 -0.6072  0.8849
  302MOL0     H40763   3.808   4.026   9.735 -0.1309  0.9200  0.0783
  302MOL0     H40764   3.598   4.069   9.846  1.8897 -0.6020  1.3544
  302MOL0     H40765   3.570   3.899   9.870 -1.3564 -1.7647 -2.2383
  302MOL0     H40766   3.579   4.046   9.601 -3.0754  2.7516  2.1831
  302MOL0     H40767   3.449   3.956   9.684  0.2165  0.3646  2.1026
  302MOL0     H40768   3.639   3.633   9.500  1.4578  1.5901 -2.1731
  302MOL0     H40769   3.596   4.191  10.006  0.5642 -2.6807  0.2310
  302MOL0     H40770   3.485   4.234  10.230 -0.2569  0.5864 -2.8998
  303MOL0     O40771  11.155   0.192   9.834 -0.3703  0.4254  0.4788
  303MOL0     C40772  11.048   0.152   9.887  1.1288  0.3805 -0.6660
  303MOL0     O40773  11.035   0.045   9.983 -0.5201  0.6149 -0.2886
  303MOL0     C40774  11.147   0.007  10.054 -0.5257 -0.0943  0.9652
  303MOL0     C40775  11.275   0.074  10.058  0.4297  0.2485 -0.3826
  303MOL0     C40776  11.390   0.009  10.111 -0.0924 -0.1020  0.3483
  303MOL0     C40777  11.371  -0.125  10.162  0.0619  1.0100 -0.1120
  303MOL0     O40778  11.459  -0.207  10.218  0.1349 -0.2578 -0.8827
  303MOL0     C40779  11.567  -0.156  10.297  0.6584  0.5407  0.2930
  303MOL0     C40780  11.636  -0.258  10.406 -0.5389 -0.4992  0.1376
  303MOL0     C40781  11.641  -0.395  10.347  0.4241  0.2444  0.2728
  303MOL0     C40782  11.697  -0.407  10.207 -1.3211 -0.0109 -0.2906
  303MOL0     C40783  11.732  -0.548  10.153 -0.3951  0.0194  0.8352
  303MOL0     C40784  11.616  -0.638  10.111  0.4133  0.2683  0.3612
  303MOL0     C40785  11.681  -0.767  10.054  0.7319 -0.2604  0.1147
  303MOL0     C40786  11.608  -0.815   9.925 -0.3535  0.3523  0.9038
  303MOL0     N40787  11.687  -0.902   9.832 -0.3243  0.1317 -0.3810
  303MOL0     C40788  11.825  -0.902   9.807 -0.0415  0.9692 -0.3229
  303MOL0     C40789  11.839  -0.989   9.706 -0.3352 -0.0957  0.6713
  303MOL0     C40790  11.964  -1.026   9.643 -0.3973  0.8741  0.4565
  303MOL0     C40791  11.983  -0.961   9.511  0.2121  0.1159  0.9077
  303MOL0     C40792  12.001  -0.810   9.511  0.8880 -0.4889 -0.1733
  303MOL0     C40793  12.018  -0.737   9.376 -0.1178 -0.1540  0.0176
  303MOL0     O40794  12.101  -0.614   9.387  0.2846  0.2545 -0.0917
  303MOL0     C40795  12.234  -0.623   9.348 -1.3991 -0.3266 -0.7119
  303MOL0     C40796  12.307  -0.520   9.294 -0.3769  0.3857  0.1321
  303MOL0     C40797  12.450  -0.536   9.279 -0.0839 -0.2156 -0.6384
  303MOL0     C40798  12.527  -0.414   9.223  0.4416 -0.0508 -0.2076
  303MOL0     C40799  12.521  -0.653   9.327 -0.0645  0.3240  0.0544
  303MOL0     C40800  12.664  -0.668   9.316  0.2883  0.5989 -0.1731
  303MOL0     O40801  12.743  -0.555   9.325 -0.6014 -0.2060  0.4007
  303MOL0     C40802  12.871  -0.577   9.298 -0.9593 -0.5664  0.0922
  303MOL0     C40803  12.905  -0.507   9.187 -0.9951 -0.0761  0.0265
  303MOL0     C40804  13.031  -0.522   9.137  0.0945  0.3987  1.1059
  303MOL0     C40805  13.136  -0.590   9.200 -0.1791 -1.1504  0.2484
  303MOL0     O40806  13.259  -0.606   9.140 -0.1393 -0.1964 -0.2506
  303MOL0     C40807  13.367  -0.659   9.221  0.5341 -0.1536  0.2465
  303MOL0     C40808  13.496  -0.646   9.144  0.0272 -0.2034  0.3723
  303MOL0     C40809  13.624  -0.632   9.214  0.4602  0.3680 -0.1426
  303MOL0     C40810  13.754  -0.633   9.133 -0.0727  0.0577 -0.3971
  303MOL0     C40811  13.879  -0.660   9.224 -0.1502 -0.0490 -0.4730
  303MOL0     C40812  13.908  -0.562   9.332 -0.1019  0.6271 -1.0479
  303MOL0     C40813  13.933  -0.416   9.289  0.4070  1.2705 -0.2841
  303MOL0     C40814  13.978  -0.333   9.413  0.2428  0.5179  0.3339
  303MOL0    Cl40815  14.141  -0.372   9.449 -0.1237 -0.1336 -0.3932
  303MOL0     C40816  13.095  -0.655   9.313  0.3475  0.0343 -0.5437
  303MOL0     C40817  12.965  -0.649   9.360 -0.4593  0.1045 -0.0369
  303MOL0     O40818  12.709  -0.780   9.297  0.2787 -0.0748 -0.2996
  303MOL0     C40819  12.442  -0.758   9.370  0.2770  0.4568 -0.4583
  303MOL0     C40820  12.308  -0.739   9.388  1.1380 -0.1663 -0.3437
  303MOL0     N40821  11.716  -1.049   9.686 -0.3415 -0.5363  1.2159
  303MOL0     N40822  11.634  -1.013   9.770  0.2277 -0.2430 -0.7795
  303MOL0     C40823  11.248  -0.188  10.146  0.1569  0.0550  0.3984
  303MOL0     C40824  11.139  -0.116  10.107  0.9667  0.7883 -0.1980
  303MOL0     C40825  10.913   0.211   9.860 -0.9918  0.7469  0.2742
  303MOL0     C40826  10.807   0.213   9.956 -0.4854  0.0838  0.5595
  303MOL0     C40827  10.684   0.275   9.922  0.0378 -0.3239 -0.1731
  303MOL0     C40828  10.663   0.333   9.796  0.7720 -0.3656 -0.3807
  303MOL0     O40829  10.543   0.400   9.784 -0.6423  0.1067  0.6488
  303MOL0     C40830  10.536   0.486   9.675 -0.5704  0.1275 -0.8024
  303MOL0     C40831  10.387   0.497   9.665  0.8495 -1.0165 -0.1324
  303MOL0     C40832  10.343   0.592   9.541  0.7251  0.3675  0.2789
  303MOL0     C40833  10.196   0.564   9.498  0.0298 -0.0705  0.2561
  303MOL0     C40834  10.171   0.630   9.366  0.1703 -0.3964 -0.8324
  303MOL0     C40835  10.157   0.704   9.272  1.1539 -0.2271  0.0175
  303MOL0     C40836  10.764   0.332   9.709 -2.0323 -0.1588  0.0831
  303MOL0     C40837  10.896   0.286   9.741 -0.0280  0.1975 -0.5801
  303MOL0     H40838  11.285   0.178  10.029 -1.3074  1.3197  2.4173
  303MOL0     H40839  11.482   0.066  10.110 -0.0281 -0.1990  0.6573
  303MOL0     H40840  11.652  -0.134  10.232  2.4318 -0.3380  2.1828
  303MOL0     H40841  11.549  -0.062  10.349  2.7490  0.0815  2.0234
  303MOL0     H40842  11.740  -0.228  10.423  0.1580 -2.9849  0.7416
  303MOL0     H40843  11.582  -0.242  10.500 -0.0264 -0.7937  0.4888
  303MOL0     H40844  11.700  -0.457  10.414  0.6661 -0.4256 -0.5387
  303MOL0     H40845  11.542  -0.442  10.355  1.6851 -2.1777  3.9760
  303MOL0     H40846  11.631  -0.355  10.138  0.3683  0.5823 -1.5278
  303MOL0     H40847  11.786  -0.344  10.211 -2.7675  2.1160  0.1939
  303MOL0     H40848  11.787  -0.530  10.060 -1.0547 -0.8463  0.2641
  303MOL0     H40849  11.797  -0.603  10.222  2.6292  0.8577 -1.1246
  303MOL0     H40850  11.560  -0.659  10.203  2.0036  0.6943  1.4651
  303MOL0     H40851  11.550  -0.600  10.032 -1.5906 -1.0903  1.2759
  303MOL0     H40852  11.785  -0.748  10.027  1.2601 -0.4884  1.8616
  303MOL0     H40853  11.671  -0.848  10.127 -0.2133 -0.1661  0.1089
  303MOL0     H40854  11.577  -0.723   9.875  3.9873  2.9133  2.3632
  303MOL0     H40855  11.525  -0.882   9.948  0.9589 -1.4682  0.5643
  303MOL0     H40856  11.899  -0.833   9.847  1.0932  0.6087 -1.6993
  303MOL0     H40857  12.043  -1.008   9.716  0.3305  1.1955 -0.3923
  303MOL0     H40858  11.957  -1.135   9.644 -0.1264  0.7183  4.9584
  303MOL0     H40859  11.906  -0.990   9.439  0.5961  0.1638  0.4672
  303MOL0     H40860  12.079  -1.003   9.478 -1.0462 -1.6061 -0.8071
  303MOL0     H40861  12.082  -0.775   9.576 -0.0809 -0.6575  1.1739
  303MOL0     H40862  11.916  -0.763   9.560  0.8531 -0.3339 -0.3837
  303MOL0     H40863  11.922  -0.711   9.329 -0.7567 -2.0328  0.1769
  303MOL0     H40864  12.061  -0.806   9.303 -2.5212 -3.2096  1.2437
  303MOL0     H40865  12.272  -0.418   9.280  2.5811  1.3601 -1.1781
  303MOL0     H40866  12.601  -0.375   9.294  0.5398 -0.2145 -0.2186
  303MOL0     H40867  12.575  -0.443   9.129 -4.2025  0.5140 -3.0774
  303MOL0     H40868  12.460  -0.332   9.197  0.2183  0.5930  2.1868
  303MOL0     H40869  12.834  -0.452   9.125 -1.7328  0.8615  1.6568
  303MOL0     H40870  13.049  -0.483   9.037  2.1026 -0.9753  0.8568
  303MOL0     H40871  13.373  -0.601   9.314  2.8934  2.7876 -1.5464
  303MOL0     H40872  13.345  -0.764   9.241 -0.7681  0.3097  1.3981
  303MOL0     H40873  13.499  -0.736   9.083  0.3773 -1.1533  1.7511
  303MOL0     H40874  13.491  -0.556   9.081 -0.6993  0.1627  0.9370
  303MOL0     H40875  13.622  -0.701   9.299 -0.1781  1.0033  0.3617
  303MOL0     H40876  13.623  -0.534   9.262 -0.1861  1.1453 -1.6793
  303MOL0     H40877  13.763  -0.715   9.061 -0.4792  1.0262 -1.5987
  303MOL0     H40878  13.760  -0.538   9.078 -0.4198 -0.5271 -1.4870
  303MOL0     H40879  13.965  -0.668   9.157  1.4000 -0.3906  1.4248
  303MOL0     H40880  13.869  -0.758   9.272 -5.3169  0.8462  0.8626
  303MOL0     H40881  13.824  -0.553   9.402 -0.1168  1.8471 -1.2037
  303MOL0     H40882  14.002  -0.582   9.385 -0.9655  1.9167  1.1448
  303MOL0     H40883  13.845  -0.371   9.241 -3.0176 -3.6085  0.5949
  303MOL0     H40884  14.008  -0.423   9.210 -0.6106  3.4718 -1.5648
  303MOL0     H40885  13.916  -0.358   9.500 -0.4330 -0.9870 -0.5346
  303MOL0     H40886  13.984  -0.225   9.397 -2.2793  0.9274  1.5564
  303MOL0     H40887  13.163  -0.720   9.367 -0.8877  0.4986  1.6708
  303MOL0     H40888  12.935  -0.699   9.452 -1.2574 -1.1247 -0.9455
  303MOL0     H40889  12.495  -0.843   9.412 -1.9914 -0.3724  0.9514
  303MOL0     H40890  12.247  -0.814   9.437 -0.6758  1.3352 -0.2000
  303MOL0     H40891  11.243  -0.294  10.166  0.1169 -0.9161 -3.8903
  303MOL0     H40892  11.044  -0.170  10.106  1.0900  0.5561 -1.7048
  303MOL0     H40893  10.824   0.165  10.052 -2.6711  0.3791  1.1486
  303MOL0     H40894  10.595   0.275   9.984 -0.4423 -1.6094 -0.8296
  303MOL0     H40895  10.584   0.584   9.687 -3.3185  1.4217  0.5851
  303MOL0     H40896  10.579   0.442   9.585  2.0582 -0.9492  0.8605
  303MOL0     H40897  10.351   0.533   9.762  3.4998  0.1437  0.5244
  303MOL0     H40898  10.346   0.397   9.652  1.3806 -1.3200  0.4301
  303MOL0     H40899  10.410   0.556   9.462  0.1432  0.0244 -0.0695
  303MOL0     H40900  10.351   0.698   9.566  2.6028  0.6265 -1.1750
  303MOL0     H40901  10.130   0.598   9.578 -1.7790 -1.0871 -0.7342
  303MOL0     H40902  10.179   0.458   9.476 -0.6869  0.2623 -0.8707
  303MOL0     H40903  10.130   0.770   9.192  0.6950  1.0631  1.1995
  303MOL0     H40904  10.769   0.377   9.610  3.6216 -0.6061 -0.1901
  303MOL0     H40905  10.982   0.293   9.677  1.5303 -0.4297  1.3348
  304MOL0     O40906  10.837   1.673  10.927  0.1088  0.4829  0.0159
  304MOL0     C40907  10.733   1.728  10.889  0.1590  0.8067 -0.8776
  304MOL0     O40908  10.720   1.827  10.797 -0.2898 -0.6797 -0.3067
  304MOL0     C40909  10.825   1.915  10.780  1.0005  1.5959  0.1282
  304MOL0     C40910  10.821   2.037  10.845  0.4564 -0.6602 -0.1358
  304MOL0     C40911  10.933   2.121  10.841  0.2494 -1.4646  0.7249
  304MOL0     C40912  11.044   2.096  10.760  0.7029  0.2246 -0.5669
  304MOL0     O40913  11.153   2.184  10.770  0.5105  0.1476  0.2567
  304MOL0     C40914  11.262   2.144  10.689  0.9736  0.2893  0.1442
  304MOL0     C40915  11.382   2.239  10.714 -0.2449  0.5671 -0.4843
  304MOL0     C40916  11.352   2.383  10.688  0.1479 -0.1624  0.6842
  304MOL0     C40917  11.482   2.467  10.705 -0.4030 -0.2237  0.3545
  304MOL0     C40918  11.449   2.621  10.711 -0.8696  0.3072 -0.6562
  304MOL0     C40919  11.585   2.700  10.745  0.7255 -0.0191 -0.0725
  304MOL0     C40920  11.571   2.845  10.804  0.4387  0.5126 -0.4385
  304MOL0     C40921  11.594   2.961  10.704  0.3769  0.0185 -0.2132
  304MOL0     N40922  11.488   3.059  10.717  0.6600  0.4292 -0.2685
  304MOL0     C40923  11.475   3.136  10.830 -0.8000 -0.9302 -0.4058
  304MOL0     C40924  11.376   3.220  10.806  0.9717 -0.6303  0.1854
  304MOL0     C40925  11.320   3.332  10.895  0.9814 -0.7955  0.6461
  304MOL0     C40926  11.196   3.305  10.982 -0.4026  0.3630  0.7664
  304MOL0     C40927  11.066   3.328  10.907  0.7037 -0.0708  0.1343
  304MOL0     C40928  10.952   3.309  11.005  0.2110  0.9120 -0.3060
  304MOL0     O40929  10.839   3.242  10.951  0.2978  0.2188  0.4608
  304MOL0     C40930  10.733   3.224  11.039 -0.1127  0.0945 -0.4890
  304MOL0     C40931  10.751   3.249  11.179  1.2257 -0.4134  0.0416
  304MOL0     C40932  10.630   3.245  11.267  0.1156  0.8881 -1.1298
  304MOL0     C40933  10.666   3.265  11.419  0.0674 -0.0285  0.3818
  304MOL0     C40934  10.503   3.212  11.216 -0.3428  0.4430 -0.0502
  304MOL0     C40935  10.374   3.234  11.298 -0.1885 -0.1414  0.3302
  304MOL0     O40936  10.265   3.212  11.229 -0.2477 -0.4856  0.2638
  304MOL0     C40937  10.140   3.253  11.278  0.5751  0.5913 -0.5095
  304MOL0     C40938  10.112   3.369  11.354  0.0792 -1.2731 -0.4400
  304MOL0     C40939   9.980   3.406  11.384  0.4143  0.5369 -0.0063
  304MOL0     C40940   9.867   3.330  11.343 -0.6746  0.1654 -1.1784
  304MOL0     O40941   9.740   3.363  11.377  0.1274  0.9074  0.1965
  304MOL0     C40942   9.663   3.269  11.449 -0.3405 -0.2598 -0.1399
  304MOL0     C40943   9.628   3.341  11.577  0.5247  0.8703 -0.9407
  304MOL0     C40944   9.562   3.253  11.684 -0.1823 -0.2764  0.7023
  304MOL0     C40945   9.507   3.325  11.805 -0.4235  0.5401  0.2604
  304MOL0     C40946   9.607   3.432  11.858  0.8211  0.5122 -0.3007
  304MOL0     C40947   9.724   3.368  11.923 -0.9731 -0.5690  0.1100
  304MOL0     C40948   9.858   3.449  11.915 -0.1991 -0.2960 -0.4154
  304MOL0     C40949   9.856   3.579  11.996 -0.7866 -0.2774 -0.0513
  304MOL0    Cl40950   9.880   3.550  12.172  0.1185 -0.9168 -0.2440
  304MOL0     C40951   9.899   3.212  11.268  0.2509 -1.4249  0.8785
  304MOL0     C40952  10.029   3.177  11.232 -0.8472 -1.1244  0.4479
  304MOL0     O40953  10.373   3.282  11.414  0.3015 -0.7677  0.1608
  304MOL0     C40954  10.493   3.180  11.080 -0.5062 -0.4926  0.7060
  304MOL0     C40955  10.607   3.178  10.991 -1.1410 -0.2415  0.4923
  304MOL0     N40956  11.330   3.192  10.679 -0.4549 -0.5504  0.1119
  304MOL0     N40957  11.389   3.088  10.636 -0.6298 -0.9093 -0.0070
  304MOL0     C40958  11.040   1.974  10.683 -0.1925  0.2574  0.4087
  304MOL0     C40959  10.933   1.882  10.703 -0.2022 -0.0797  0.4470
  304MOL0     C40960  10.605   1.667  10.946 -0.2869  0.5448  0.4906
  304MOL0     C40961  10.617   1.561  11.033 -0.4093  0.3593  0.1988
  304MOL0     C40962  10.503   1.515  11.099  0.1464  0.6273  0.6459
  304MOL0     C40963  10.377   1.570  11.089  0.1541  0.0949  0.4112
  304MOL0     O40964  10.285   1.517  11.167 -0.6524 -0.0013 -0.1719
  304MOL0     C40965  10.158   1.574  11.155 -0.4987  0.1545 -0.2842
  304MOL0     C40966  10.073   1.546  11.279 -0.4634 -0.5366 -0.0398
  304MOL0     C40967  10.015   1.404  11.273  0.4545 -0.1027  0.1382
  304MOL0     C40968   9.940   1.361  11.392  0.8794  0.5840  0.3552
  304MOL0     C40969  10.022   1.353  11.513 -0.3810  0.1276 -0.7932
  304MOL0     C40970  10.097   1.341  11.607  0.1805 -0.1614 -0.5521
  304MOL0     C40971  10.359   1.654  10.984  0.2286  0.5325 -0.6851
  304MOL0     C40972  10.473   1.708  10.915 -0.2148 -0.2929 -0.4009
  304MOL0     H40973  10.743   2.078  10.909  0.3225 -0.0420 -0.6766
  304MOL0     H40974  10.927   2.204  10.912 -1.3648 -0.5564 -0.4172
  304MOL0     H40975  11.302   2.051  10.731  2.6723  2.4618  3.9284
  304MOL0     H40976  11.235   2.131  10.584 -2.1869 -2.4144  1.1172
  304MOL0     H40977  11.411   2.220  10.817  0.1571  0.8433 -0.5432
  304MOL0     H40978  11.463   2.208  10.647  0.4265 -0.6424  0.8529
  304MOL0     H40979  11.322   2.396  10.584  2.1855  0.4416  0.1219
  304MOL0     H40980  11.277   2.411  10.763 -2.2533 -2.9033 -0.5037
  304MOL0     H40981  11.554   2.440  10.782  1.0360  0.5197 -0.6811
  304MOL0     H40982  11.528   2.452  10.607 -0.9329 -4.0888  0.5493
  304MOL0     H40983  11.402   2.654  10.617 -1.7955  1.5906  0.2186
  304MOL0     H40984  11.368   2.628  10.783 -0.7859 -2.1702 -0.2588
  304MOL0     H40985  11.632   2.647  10.828  0.7404  0.6848  0.3797
  304MOL0     H40986  11.648   2.701  10.656  0.6938 -0.9823 -0.1198
  304MOL0     H40987  11.477   2.853  10.860  0.0438 -0.5951 -0.9126
  304MOL0     H40988  11.652   2.865  10.875  2.1704 -0.7510 -1.9590
  304MOL0     H40989  11.585   2.927  10.600  0.3072 -1.0829  0.1384
  304MOL0     H40990  11.696   2.999  10.712  0.1363  0.4063  1.1271
  304MOL0     H40991  11.534   3.140  10.921  2.1902  1.3019 -2.2273
  304MOL0     H40992  11.392   3.378  10.964 -1.6457 -0.3155  3.2477
  304MOL0     H40993  11.299   3.415  10.827  1.8306 -0.7848  0.3835
  304MOL0     H40994  11.199   3.375  11.066  0.9775  0.7880  0.3948
  304MOL0     H40995  11.195   3.202  11.017  0.6164 -0.6306 -1.8875
  304MOL0     H40996  11.065   3.249  10.831  0.6238 -0.4052  0.4814
  304MOL0     H40997  11.062   3.425  10.857  3.3809  1.2644  2.2113
  304MOL0     H40998  10.926   3.396  11.065 -1.8495 -0.9110  1.6542
  304MOL0     H40999  10.992   3.227  11.066  0.7841  0.2693 -1.5043
  304MOL0     H41000  10.846   3.276  11.225  1.3008  1.7567 -1.2527
  304MOL0     H41001  10.612   3.189  11.477  1.1116 -0.8931  0.2548
  304MOL0     H41002  10.774   3.258  11.440  0.0396  2.0962  1.4824
  304MOL0     H41003  10.646   3.366  11.454  0.2131  0.0760  0.1597
  304MOL0     H41004  10.189   3.437  11.390  0.6310 -0.0325 -3.6602
  304MOL0     H41005   9.949   3.482  11.454 -1.4517 -1.0444  0.9930
  304MOL0     H41006   9.578   3.242  11.386 -0.7681 -1.8085  1.0118
  304MOL0     H41007   9.720   3.176  11.460 -1.2856 -1.0161 -1.3846
  304MOL0     H41008   9.719   3.381  11.621  0.0679  0.4101  0.4642
  304MOL0     H41009   9.568   3.428  11.548  1.8583  1.8451 -0.8635
  304MOL0     H41010   9.641   3.186  11.718  1.7545  1.7233  0.3379
  304MOL0     H41011   9.476   3.193  11.653  0.7258 -1.9107  1.2349
  304MOL0     H41012   9.418   3.382  11.776 -0.0423 -0.5447 -3.4868
  304MOL0     H41013   9.481   3.243  11.872 -0.0231 -0.0536 -0.3055
  304MOL0     H41014   9.542   3.484  11.928 -1.1597 -1.1488 -0.7803
  304MOL0     H41015   9.650   3.496  11.780  2.8348 -0.6525 -0.2330
  304MOL0     H41016   9.706   3.341  12.027 -2.2176 -1.9838 -0.4402
  304MOL0     H41017   9.748   3.270  11.881 -0.4872 -1.5661  2.5206
  304MOL0     H41018   9.876   3.471  11.810 -0.3939 -2.0605 -0.8529
  304MOL0     H41019   9.942   3.392  11.956 -1.0615  0.6336  2.9723
  304MOL0     H41020   9.767   3.640  11.977 -1.1322 -0.2377  1.5354
  304MOL0     H41021   9.938   3.642  11.961 -1.6104  1.5274  1.1117
  304MOL0     H41022   9.822   3.147  11.226 -0.7612  0.4881 -0.3705
  304MOL0     H41023  10.048   3.082  11.185 -2.9885 -1.7176  0.6546
  304MOL0     H41024  10.395   3.146  11.048  0.4156  0.1318 -3.3448
  304MOL0     H41025  10.589   3.145  10.889  0.0887  0.7125 -0.0612
  304MOL0     H41026  11.131   1.944  10.633  0.7350  0.6866  1.7797
  304MOL0     H41027  10.943   1.783  10.661  0.0558 -0.0860  0.5183
  304MOL0     H41028  10.714   1.516  11.054 -0.3870 -0.0776 -0.7791
  304MOL0     H41029  10.506   1.428  11.164 -5.3839  0.8422  1.6615
  304MOL0     H41030  10.172   1.683  11.159 -1.7383  0.6058 -4.2856
  304MOL0     H41031  10.100   1.539  11.069 -2.3335  0.6107  0.7264
  304MOL0     H41032   9.986   1.612  11.272  0.2588  0.8066  2.5269
  304MOL0     H41033  10.138   1.565  11.365 -0.1111 -0.7772 -0.2476
  304MOL0     H41034  10.099   1.334  11.272  1.6079  1.2329  0.2895
  304MOL0     H41035   9.966   1.385  11.177  3.1854  0.7537 -1.5413
  304MOL0     H41036   9.897   1.260  11.383  0.9239  0.5835  0.1533
  304MOL0     H41037   9.857   1.431  11.406  0.0507  0.8858 -4.2639
  304MOL0     H41038  10.166   1.320  11.686 -1.1976  1.5447  1.2215
  304MOL0     H41039  10.260   1.697  10.971 -2.3937 -3.9248  1.9437
  304MOL0     H41040  10.460   1.781  10.836  0.0913  0.3875  0.1705
  305MOL0     O41041   5.171  11.336   4.762 -0.3511 -0.5951  0.9317
  305MOL0     C41042   5.190  11.378   4.645  0.0410 -0.2850 -0.2307
  305MOL0     O41043   5.141  11.498   4.597 -0.4279  0.2618  0.6580
  305MOL0     C41044   5.109  11.592   4.693 -0.5205 -0.4565 -1.1274
  305MOL0     C41045   5.189  11.613   4.808 -0.3867  0.7255  0.0850
  305MOL0     C41046   5.145  11.702   4.908  0.3388 -0.0534 -0.0637
  305MOL0     C41047   5.036  11.786   4.888  1.2201 -0.9943  0.2230
  305MOL0     O41048   5.001  11.888   4.974  0.6021  0.5346 -0.0890
  305MOL0     C41049   5.063  11.909   5.103  0.1387  0.1002 -0.1499
  305MOL0     C41050   5.002  12.013   5.188  0.5723  0.2955 -0.8671
  305MOL0     C41051   4.879  11.955   5.265 -0.1155 -0.5975 -0.7789
  305MOL0     C41052   4.826  12.039   5.373 -0.1443 -0.0883 -0.0349
  305MOL0     C41053   4.742  11.958   5.472  0.3012  0.4711 -0.5540
  305MOL0     C41054   4.618  12.030   5.513  0.6571 -1.6671 -0.4019
  305MOL0     C41055   4.544  11.963   5.624 -0.1767  0.7780 -0.1314
  305MOL0     C41056   4.426  11.884   5.575  0.3320 -0.6507 -0.4333
  305MOL0     N41057   4.468  11.756   5.511 -0.2691  0.0892  0.4993
  305MOL0     C41058   4.556  11.669   5.573  0.5457 -0.1116  0.4215
  305MOL0     C41059   4.579  11.572   5.474  0.3808 -0.2684 -0.0932
  305MOL0     C41060   4.639  11.437   5.510  0.3051  0.9765 -0.1071
  305MOL0     C41061   4.772  11.421   5.446  0.4144  0.1027 -0.8313
  305MOL0     C41062   4.850  11.290   5.477  1.2709 -0.4009 -0.0438
  305MOL0     C41063   4.862  11.260   5.630 -0.4218 -0.4513 -0.0076
  305MOL0     O41064   4.937  11.351   5.715 -0.0796  0.7727  0.3928
  305MOL0     C41065   5.069  11.349   5.736 -0.0059  0.5478  0.4530
  305MOL0     C41066   5.122  11.435   5.834 -0.7620  0.0750  0.7555
  305MOL0     C41067   5.258  11.433   5.871 -0.0653  0.2078  0.0988
  305MOL0     C41068   5.325  11.533   5.973  0.0233  0.6454  0.4272
  305MOL0     C41069   5.343  11.345   5.800  0.8684  0.2407 -0.2745
  305MOL0     C41070   5.486  11.336   5.822  0.0484  1.1759 -0.3699
  305MOL0     O41071   5.566  11.410   5.739 -0.0078  0.3357  0.2131
  305MOL0     C41072   5.696  11.408   5.725 -0.7900 -0.5214 -0.1473
  305MOL0     C41073   5.795  11.358   5.814  0.5028 -0.1279  0.7120
  305MOL0     C41074   5.933  11.353   5.789 -0.7311 -0.5385  0.1136
  305MOL0     C41075   5.977  11.403   5.670 -0.2369 -0.5334 -0.3553
  305MOL0     O41076   6.113  11.404   5.652  0.6674 -0.4779  0.7262
  305MOL0     C41077   6.170  11.443   5.527  0.5494 -0.7775 -0.1726
  305MOL0     C41078   6.141  11.334   5.427 -0.0832 -0.8031 -1.1579
  305MOL0     C41079   6.247  11.218   5.433 -0.6419  0.1971 -0.7827
  305MOL0     C41080   6.382  11.273   5.384 -0.2902  0.1827  1.0907
  305MOL0     C41081   6.485  11.166   5.373  0.1315  0.0697  0.0261
  305MOL0     C41082   6.613  11.217   5.321  0.5382 -1.0286 -0.1345
  305MOL0     C41083   6.705  11.109   5.274  0.6191 -0.5414 -0.4236
  305MOL0     C41084   6.651  11.044   5.150  0.3882 -0.3626  0.3777
  305MOL0    Cl41085   6.705  11.132   5.003  0.0179  0.3699 -0.0264
  305MOL0     C41086   5.876  11.465   5.583  0.2795  0.8974  0.8665
  305MOL0     C41087   5.742  11.472   5.610  0.2250  0.7486 -0.2892
  305MOL0     O41088   5.529  11.259   5.908  0.7532  0.7726  0.2262
  305MOL0     C41089   5.284  11.260   5.701 -0.0913 -0.7814 -0.0266
  305MOL0     C41090   5.148  11.257   5.678  0.2693  0.9633  0.8188
  305MOL0     N41091   4.514  11.613   5.355 -0.2246  0.4084  0.4678
  305MOL0     N41092   4.441  11.716   5.384  0.9188  0.7319 -0.7869
  305MOL0     C41093   4.966  11.783   4.762  0.2925  1.1579 -0.9503
  305MOL0     C41094   5.001  11.682   4.669 -0.3933 -0.2564  0.0035
  305MOL0     C41095   5.266  11.291   4.554  0.3053 -0.0407 -0.2364
  305MOL0     C41096   5.322  11.339   4.429  0.2222 -0.0987  0.4573
  305MOL0     C41097   5.382  11.256   4.333  0.6375 -0.2077  0.0963
  305MOL0     C41098   5.385  11.117   4.355 -0.0371  0.8218  1.2037
  305MOL0     O41099   5.445  11.035   4.262  0.2883 -0.7858  0.0126
  305MOL0     C41100   5.543  10.938   4.311 -0.7959 -0.3959  0.1194
  305MOL0     C41101   5.572  10.833   4.200  0.2419  0.1515 -0.1608
  305MOL0     C41102   5.677  10.726   4.248 -0.5744 -0.2252 -0.2304
  305MOL0     C41103   5.810  10.787   4.272  0.0032  0.3165 -0.0664
  305MOL0     C41104   5.922  10.695   4.258  0.4794  0.4754 -0.5704
  305MOL0     C41105   5.999  10.604   4.263  0.0988 -0.2867 -0.4908
  305MOL0     C41106   5.326  11.061   4.467 -0.3054 -0.1873 -0.2889
  305MOL0     C41107   5.270  11.148   4.563  0.3192 -0.0832 -0.3033
  305MOL0     H41108   5.279  11.554   4.818 -0.1941  0.8720 -0.6888
  305MOL0     H41109   5.214  11.718   4.990  2.0101 -1.5172 -1.1290
  305MOL0     H41110   5.074  11.814   5.156 -2.4026  0.6761  1.5840
  305MOL0     H41111   5.167  11.938   5.086  0.3711 -0.8716 -0.4251
  305MOL0     H41112   5.063  12.053   5.270 -2.4601  3.2009  0.1884
  305MOL0     H41113   4.985  12.111   5.143  2.9766  1.7108  1.0118
  305MOL0     H41114   4.803  11.946   5.186  0.3550  0.9279 -1.4492
  305MOL0     H41115   4.909  11.858   5.305  3.2738  1.1432  1.4184
  305MOL0     H41116   4.914  12.079   5.424  0.1012 -1.7844  0.9428
  305MOL0     H41117   4.767  12.116   5.322  0.7105 -0.4872 -1.6850
  305MOL0     H41118   4.719  11.864   5.422  2.2696  0.0550 -0.7708
  305MOL0     H41119   4.814  11.927   5.548 -2.6228 -0.5161  1.9828
  305MOL0     H41120   4.640  12.135   5.537  0.8263 -1.2230 -2.3484
  305MOL0     H41121   4.555  12.046   5.425  1.3282  0.2439 -0.5767
  305MOL0     H41122   4.616  11.901   5.679 -0.8417 -0.6950 -0.8822
  305MOL0     H41123   4.514  12.041   5.695 -1.0811 -0.5834  1.0454
  305MOL0     H41124   4.368  11.940   5.500  2.9020  0.2358 -1.8929
  305MOL0     H41125   4.360  11.853   5.656  0.4067 -0.3853 -0.2690
  305MOL0     H41126   4.594  11.671   5.675 -2.6749  2.3389  1.7530
  305MOL0     H41127   4.638  11.419   5.618 -1.9909  0.2092 -0.2033
  305MOL0     H41128   4.575  11.357   5.473  1.9177  0.8317 -2.8550
  305MOL0     H41129   4.827  11.502   5.494 -0.8021 -1.1976  3.1381
  305MOL0     H41130   4.764  11.442   5.339 -0.5969  2.6437 -0.3193
  305MOL0     H41131   4.950  11.297   5.432  1.4831  2.5920  0.7285
  305MOL0     H41132   4.790  11.210   5.431 -2.1008  2.6148 -1.4080
  305MOL0     H41133   4.902  11.159   5.642  1.1622 -0.7096 -5.1816
  305MOL0     H41134   4.762  11.262   5.674 -0.7236  1.0596 -0.7131
  305MOL0     H41135   5.053  11.505   5.878 -0.0146  0.8019  0.7882
  305MOL0     H41136   5.406  11.482   6.026  0.2162  0.0802 -0.3918
  305MOL0     H41137   5.373  11.620   5.927  3.1049 -1.2632 -0.2232
  305MOL0     H41138   5.250  11.563   6.047 -0.8816  0.5408 -0.4327
  305MOL0     H41139   5.765  11.293   5.896  0.6361 -0.6365  0.3627
  305MOL0     H41140   6.004  11.304   5.854 -0.1951 -0.3257 -0.3071
  305MOL0     H41141   6.128  11.538   5.492  0.4502 -1.3967 -1.8405
  305MOL0     H41142   6.278  11.460   5.530  0.2473  1.5083 -0.4192
  305MOL0     H41143   6.041  11.291   5.432 -0.0575 -1.0304 -2.2872
  305MOL0     H41144   6.143  11.376   5.326 -1.1757  3.3757  0.3532
  305MOL0     H41145   6.221  11.123   5.386 -0.3293  0.1984 -0.9564
  305MOL0     H41146   6.243  11.194   5.540  0.0946 -3.0269 -1.3753
  305MOL0     H41147   6.362  11.325   5.291  0.5449 -1.7091 -0.2101
  305MOL0     H41148   6.430  11.333   5.462  1.0842 -0.4745  0.7825
  305MOL0     H41149   6.449  11.086   5.308  4.3391  0.2995 -3.0227
  305MOL0     H41150   6.502  11.123   5.473  1.4104 -1.0603 -0.6300
  305MOL0     H41151   6.585  11.278   5.235  4.0124 -0.7869 -1.2785
  305MOL0     H41152   6.656  11.279   5.401 -2.2566 -0.0595  0.7077
  305MOL0     H41153   6.712  11.034   5.353 -1.0703  0.5645  0.8458
  305MOL0     H41154   6.805  11.151   5.260  0.3847 -0.3368 -1.5796
  305MOL0     H41155   6.544  11.032   5.134  0.7105 -0.9170 -1.6653
  305MOL0     H41156   6.693  10.943   5.146  0.9426 -0.0938 -1.0691
  305MOL0     H41157   5.919  11.504   5.491 -1.6795 -2.7047 -1.8767
  305MOL0     H41158   5.672  11.502   5.534 -0.7966 -2.2816 -0.6887
  305MOL0     H41159   5.347  11.191   5.645 -0.4189  0.4004 -1.9369
  305MOL0     H41160   5.105  11.193   5.602 -2.5759  4.4999 -0.8463
  305MOL0     H41161   4.898  11.865   4.739 -2.3610 -0.4173  0.7051
  305MOL0     H41162   4.951  11.668   4.574 -0.0613  3.1313 -0.8171
  305MOL0     H41163   5.308  11.444   4.403 -0.4645  0.3850  2.6129
  305MOL0     H41164   5.412  11.308   4.243 -1.0235  1.6040  0.4975
  305MOL0     H41165   5.635  10.985   4.345 -1.9276  0.2377  2.5588
  305MOL0     H41166   5.509  10.883   4.399  1.0438 -0.4132  0.8579
  305MOL0     H41167   5.598  10.888   4.109 -2.5390  0.9516 -0.5461
  305MOL0     H41168   5.481  10.776   4.180 -0.4271  1.4386 -0.9084
  305MOL0     H41169   5.690  10.660   4.161 -0.4205  2.1553 -2.1142
  305MOL0     H41170   5.651  10.655   4.327  1.5329 -0.0213  0.7141
  305MOL0     H41171   5.822  10.829   4.373 -0.6261  0.1987  0.0653
  305MOL0     H41172   5.816  10.859   4.190  2.1714 -1.5193 -1.6293
  305MOL0     H41173   6.068  10.523   4.273 -0.1085 -0.2399  2.1634
  305MOL0     H41174   5.306  10.956   4.488 -0.4515  0.4650  3.5674
  305MOL0     H41175   5.209  11.101   4.639  0.5178  2.0501  1.2559
  306MOL0     O41176   1.323   1.267   1.469  0.1581  0.6184  0.1386
  306MOL0     C41177   1.422   1.218   1.525  0.3689  0.2690 -0.1625
  306MOL0     O41178   1.430   1.100   1.592 -0.0793 -0.3179 -0.4384
  306MOL0     C41179   1.320   1.020   1.598  0.3404  0.7671 -0.0680
  306MOL0     C41180   1.357   0.884   1.560  0.7296 -0.1177 -0.5236
  306MOL0     C41181   1.256   0.783   1.572  0.0733  0.2523  0.0889
  306MOL0     C41182   1.127   0.829   1.589 -0.5291  0.3348  0.2733
  306MOL0     O41183   1.023   0.744   1.586  0.3658 -0.2906 -0.3125
  306MOL0     C41184   0.977   0.706   1.453  0.6701 -0.0578  0.7853
  306MOL0     C41185   0.842   0.628   1.454 -0.0055 -0.4606  0.1612
  306MOL0     C41186   0.725   0.713   1.513 -0.7830  0.7445  0.1153
  306MOL0     C41187   0.589   0.629   1.492 -0.8432 -0.3356 -0.6715
  306MOL0     C41188   0.481   0.676   1.593 -0.5201 -0.2792  0.9387
  306MOL0     C41189   0.352   0.628   1.551  0.0689  0.5187  0.0849
  306MOL0     C41190   0.251   0.696   1.644  0.2947  0.3753  0.2982
  306MOL0     C41191   0.109   0.682   1.589  0.4583  0.0518  0.0915
  306MOL0     N41192   0.017   0.718   1.696  0.1956 -0.2326 -0.3898
  306MOL0     C41193  -0.098   0.652   1.732 -0.1164  0.1219 -0.7463
  306MOL0     C41194  -0.140   0.727   1.829  1.0540  0.3079 -0.4568
  306MOL0     C41195  -0.269   0.714   1.906  0.4424  0.2051  0.1536
  306MOL0     C41196  -0.388   0.726   1.815  0.4878 -0.1304  0.3924
  306MOL0     C41197  -0.409   0.866   1.767  0.7423 -0.0838 -0.2715
  306MOL0     C41198  -0.545   0.879   1.688 -0.6138  0.1525  0.7657
  306MOL0     O41199  -0.658   0.833   1.754  0.1900  0.4729 -0.0553
  306MOL0     C41200  -0.777   0.893   1.709  0.7240 -0.4095 -0.7383
  306MOL0     C41201  -0.811   0.928   1.574  0.1047 -0.1962 -0.0121
  306MOL0     C41202  -0.941   0.965   1.539  0.3410  1.0069  0.0186
  306MOL0     C41203  -0.972   0.982   1.396  0.0438 -0.1697 -0.1443
  306MOL0     C41204  -1.038   0.983   1.636 -0.0737  0.0211 -0.7153
  306MOL0     C41205  -1.172   1.046   1.621  0.1300  0.3715 -0.0434
  306MOL0     O41206  -1.237   1.076   1.731  0.2052  0.4487  0.3125
  306MOL0     C41207  -1.360   1.123   1.721  0.4136  0.5282 -0.4426
  306MOL0     C41208  -1.473   1.039   1.741 -0.0598  0.4918 -0.1155
  306MOL0     C41209  -1.603   1.085   1.736 -0.9797 -0.3348 -1.3486
  306MOL0     C41210  -1.630   1.216   1.693 -0.5347  0.5145 -0.2243
  306MOL0     O41211  -1.757   1.255   1.695  0.7290  0.0792 -0.4238
  306MOL0     C41212  -1.787   1.342   1.580  0.6272 -0.6110 -1.1386
  306MOL0     C41213  -1.938   1.367   1.584  0.6383 -0.1292  0.0060
  306MOL0     C41214  -2.034   1.244   1.567 -0.6622  0.1573  0.8622
  306MOL0     C41215  -2.107   1.200   1.692  0.1435 -0.2225  0.2262
  306MOL0     C41216  -2.235   1.121   1.653  0.6172  0.1562  0.4703
  306MOL0     C41217  -2.297   1.036   1.768  1.0241 -1.0133 -0.7861
  306MOL0     C41218  -2.449   0.997   1.752  0.8278 -0.1848 -0.1940
  306MOL0     C41219  -2.511   0.991   1.885 -0.3532  0.9819  0.8642
  306MOL0    Cl41220  -2.548   1.149   1.945 -0.2117  0.3197 -0.1809
  306MOL0     C41221  -1.517   1.296   1.658 -0.3950  0.8235  0.2692
  306MOL0     C41222  -1.383   1.246   1.670  0.0364  0.5727 -0.0950
  306MOL0     O41223  -1.222   1.061   1.507 -0.5110  0.0373 -0.7110
  306MOL0     C41224  -1.008   0.940   1.770  0.3527  0.0359  0.4629
  306MOL0     C41225  -0.883   0.896   1.805 -1.0786 -0.0208  0.3159
  306MOL0     N41226  -0.051   0.825   1.874  0.3641  0.1471  0.4849
  306MOL0     N41227   0.040   0.823   1.783  0.8421  0.9624  0.0353
  306MOL0     C41228   1.094   0.962   1.600  0.0610 -0.2102 -1.1367
  306MOL0     C41229   1.191   1.058   1.619  0.0857 -0.4286 -0.9468
  306MOL0     C41230   1.539   1.308   1.537 -0.2644  0.4592  1.0210
  306MOL0     C41231   1.532   1.447   1.531  0.3542 -0.4287  1.4628
  306MOL0     C41232   1.638   1.533   1.562 -0.5934 -0.2955  0.7543
  306MOL0     C41233   1.759   1.480   1.602 -0.2926 -0.0355  0.0014
  306MOL0     O41234   1.857   1.557   1.664 -0.5583  0.3309  0.1558
  306MOL0     C41235   1.846   1.698   1.681  0.3448  0.4187  0.3961
  306MOL0     C41236   1.984   1.750   1.686  0.2969  0.3600 -0.0073
  306MOL0     C41237   2.051   1.753   1.549 -0.4096  0.8459 -0.3293
  306MOL0     C41238   2.187   1.817   1.548 -0.7200  1.2789 -0.1735
  306MOL0     C41239   2.260   1.789   1.417  0.2813 -0.1433 -0.3756
  306MOL0     C41240   2.315   1.750   1.313 -0.9884 -0.1515  0.6827
  306MOL0     C41241   1.769   1.350   1.625  0.2361  0.1410 -0.8265
  306MOL0     C41242   1.660   1.263   1.587  0.7966  1.1082 -0.6951
  306MOL0     H41243   1.456   0.841   1.552  0.2946 -0.9792 -1.5255
  306MOL0     H41244   1.275   0.679   1.548 -2.0892 -0.2254  0.2455
  306MOL0     H41245   0.960   0.799   1.398  0.7068 -0.5774 -0.1144
  306MOL0     H41246   1.047   0.643   1.398 -0.4236  0.0497 -0.8080
  306MOL0     H41247   0.821   0.600   1.350  2.0287 -1.4195 -0.0498
  306MOL0     H41248   0.842   0.537   1.515  2.5680  0.5806  1.8975
  306MOL0     H41249   0.736   0.732   1.620  0.9715 -0.6186  0.2253
  306MOL0     H41250   0.713   0.813   1.470  1.5529  2.4432  2.9553
  306MOL0     H41251   0.545   0.649   1.394 -2.6063 -0.8979 -0.0274
  306MOL0     H41252   0.612   0.522   1.490 -0.8928 -0.3950  0.8387
  306MOL0     H41253   0.496   0.652   1.699 -0.9263  0.1869  1.1079
  306MOL0     H41254   0.477   0.783   1.571  0.5848 -0.9787 -3.5442
  306MOL0     H41255   0.332   0.649   1.445  0.1253 -2.7991 -0.7011
  306MOL0     H41256   0.346   0.519   1.559  0.2951  0.5451  0.6588
  306MOL0     H41257   0.257   0.654   1.745  1.0688 -0.3351 -0.0272
  306MOL0     H41258   0.267   0.804   1.633  1.2768 -0.0162 -3.8485
  306MOL0     H41259   0.087   0.577   1.564 -1.3329  0.0888  1.3130
  306MOL0     H41260   0.098   0.742   1.498 -0.6688 -2.2607 -1.4017
  306MOL0     H41261  -0.147   0.573   1.676 -1.0952 -2.4272  3.2706
  306MOL0     H41262  -0.259   0.619   1.957 -1.8377 -0.8237 -1.1641
  306MOL0     H41263  -0.273   0.791   1.984  0.4004  1.3800 -0.9683
  306MOL0     H41264  -0.474   0.685   1.870 -0.7804  2.3298  0.3827
  306MOL0     H41265  -0.378   0.667   1.724  0.4363 -0.6867  0.7428
  306MOL0     H41266  -0.329   0.886   1.696  0.3556 -0.0311 -0.6963
  306MOL0     H41267  -0.406   0.939   1.848 -0.1417  0.7964 -1.0082
  306MOL0     H41268  -0.531   0.831   1.591 -2.7443 -0.1512  0.5452
  306MOL0     H41269  -0.554   0.985   1.664  1.2439  0.3024  0.6205
  306MOL0     H41270  -0.742   0.908   1.493  0.0138 -1.7498  0.2797
  306MOL0     H41271  -0.985   1.088   1.372  2.3716  0.3919  0.8466
  306MOL0     H41272  -0.887   0.943   1.339  0.2525  0.4140 -0.2439
  306MOL0     H41273  -1.059   0.925   1.362 -0.4592  0.0635  0.7469
  306MOL0     H41274  -1.455   0.938   1.776 -0.1930  0.4852 -0.0636
  306MOL0     H41275  -1.687   1.029   1.776 -1.1797  0.8087 -0.0861
  306MOL0     H41276  -1.746   1.441   1.604 -0.2473 -0.5947  0.4231
  306MOL0     H41277  -1.757   1.307   1.481 -0.5616 -0.0142 -1.7322
  306MOL0     H41278  -1.963   1.414   1.679  0.5395  3.6783 -1.7434
  306MOL0     H41279  -1.965   1.433   1.502  3.7933 -0.0526 -1.1295
  306MOL0     H41280  -1.984   1.157   1.524 -4.2176 -0.3217 -2.9645
  306MOL0     H41281  -2.106   1.260   1.486  0.0958 -0.7445 -0.0153
  306MOL0     H41282  -2.034   1.160   1.763 -2.3158 -1.3727  2.2903
  306MOL0     H41283  -2.142   1.289   1.746  0.6417  0.4673 -0.5702
  306MOL0     H41284  -2.213   1.051   1.571 -0.8250 -1.4728  1.4331
  306MOL0     H41285  -2.311   1.190   1.615 -1.7382 -1.9296  1.1494
  306MOL0     H41286  -2.236   0.946   1.785  0.3473 -1.2193  0.7094
  306MOL0     H41287  -2.281   1.087   1.863 -0.8506 -1.4478 -0.2049
  306MOL0     H41288  -2.467   0.909   1.690  0.5792 -1.0061  1.0079
  306MOL0     H41289  -2.497   1.074   1.692 -3.4736  0.7100  3.8053
  306MOL0     H41290  -2.451   0.923   1.947 -0.5156 -1.1705 -1.1678
  306MOL0     H41291  -2.606   0.941   1.867  0.8533 -0.1031 -3.9497
  306MOL0     H41292  -1.535   1.392   1.612 -2.6495 -1.8001 -5.2082
  306MOL0     H41293  -1.300   1.305   1.631 -0.0296 -0.2371 -1.5211
  306MOL0     H41294  -1.072   0.947   1.858  1.2359 -0.8290  1.2043
  306MOL0     H41295  -0.853   0.869   1.906  4.3542  1.7973 -0.4740
  306MOL0     H41296   0.994   1.004   1.593  0.8100  2.0819  0.6170
  306MOL0     H41297   1.166   1.158   1.652  2.5974  0.2303 -0.8337
  306MOL0     H41298   1.434   1.492   1.516  1.6502  3.1128  2.6498
  306MOL0     H41299   1.626   1.640   1.554 -1.3893 -0.2118  2.6030
  306MOL0     H41300   1.797   1.752   1.600  2.2374 -0.4139 -1.3854
  306MOL0     H41301   1.792   1.730   1.771  0.5646 -0.9090  1.0241
  306MOL0     H41302   2.041   1.687   1.754  0.6813  2.2887  1.5446
  306MOL0     H41303   1.998   1.849   1.730  0.3634  1.2774 -1.9444
  306MOL0     H41304   1.982   1.810   1.486 -0.3945  2.8073  1.3512
  306MOL0     H41305   2.057   1.648   1.519 -1.4522 -0.1025  2.4671
  306MOL0     H41306   2.244   1.779   1.633 -1.2861  0.4711 -0.1399
  306MOL0     H41307   2.184   1.926   1.550 -0.1385  1.3362 -1.3600
  306MOL0     H41308   2.365   1.702   1.231 -0.4171  1.7472 -0.1229
  306MOL0     H41309   1.854   1.314   1.682 -0.4546  2.2376  1.7870
  306MOL0     H41310   1.651   1.162   1.625  0.1790  1.5119  0.2831
  307MOL0     O41311   8.561   5.219   4.375 -0.6180  0.0261  0.2311
  307MOL0     C41312   8.625   5.179   4.475 -1.2330  0.5692  0.2298
  307MOL0     O41313   8.574   5.155   4.603  0.0321  0.5197 -0.4193
  307MOL0     C41314   8.437   5.146   4.617 -0.1974 -0.9252  0.6176
  307MOL0     C41315   8.372   5.266   4.646 -0.8500 -0.0280 -1.0201
  307MOL0     C41316   8.236   5.267   4.650 -0.1238 -0.2304 -0.8597
  307MOL0     C41317   8.159   5.148   4.636  0.5065 -0.6835  0.3831
  307MOL0     O41318   8.024   5.163   4.645 -0.3417  0.2662  0.7586
  307MOL0     C41319   7.948   5.039   4.647  0.5688 -0.5127 -0.0819
  307MOL0     C41320   7.811   5.084   4.690  0.1494  0.2912 -0.3280
  307MOL0     C41321   7.721   4.973   4.733  0.0308  0.6394  0.1021
  307MOL0     C41322   7.596   5.018   4.806  0.3072  0.1516 -0.9437
  307MOL0     C41323   7.516   4.901   4.874 -0.5363  0.6762  0.1384
  307MOL0     C41324   7.469   4.795   4.774  0.3578  0.0191  0.2337
  307MOL0     C41325   7.382   4.849   4.659  0.2760 -0.4887  0.2588
  307MOL0     C41326   7.324   4.744   4.564 -0.4003  0.2990  0.1433
  307MOL0     N41327   7.249   4.813   4.458  0.3300  0.4240 -0.4554
  307MOL0     C41328   7.134   4.894   4.462  0.5292 -0.1427 -0.0365
  307MOL0     C41329   7.106   4.919   4.327  0.3197  0.2879 -0.0903
  307MOL0     C41330   6.987   4.983   4.254 -0.0337  0.0564 -0.1767
  307MOL0     C41331   6.940   5.121   4.311  0.5974 -0.1030  0.4506
  307MOL0     C41332   6.820   5.188   4.228  0.5184  0.1367 -0.7881
  307MOL0     C41333   6.773   5.322   4.290  0.6318  0.5839 -0.1455
  307MOL0     O41334   6.679   5.381   4.201  0.3684 -0.1424  0.3938
  307MOL0     C41335   6.540   5.385   4.222 -1.0089  0.4782 -0.5610
  307MOL0     C41336   6.447   5.374   4.112  0.8933 -0.1211  0.4705
  307MOL0     C41337   6.306   5.379   4.126 -0.3864 -1.4641 -0.4216
  307MOL0     C41338   6.225   5.422   3.999  0.3806 -0.6977 -0.2524
  307MOL0     C41339   6.255   5.385   4.256 -0.1078 -0.4578 -0.2685
  307MOL0     C41340   6.103   5.403   4.275  0.2264 -0.7021 -0.1590
  307MOL0     O41341   6.040   5.510   4.214  0.5078  0.3311 -0.1251
  307MOL0     C41342   5.902   5.504   4.208 -1.0415  0.2307  1.2854
  307MOL0     C41343   5.848   5.484   4.084  0.0788 -0.2266 -0.0371
  307MOL0     C41344   5.713   5.480   4.076  0.3342 -0.1977  0.3659
  307MOL0     C41345   5.626   5.482   4.189 -0.2557 -1.0780 -0.0803
  307MOL0     O41346   5.487   5.488   4.173 -0.6323 -0.3927  0.8496
  307MOL0     C41347   5.398   5.441   4.274  0.2228 -0.4104  1.0143
  307MOL0     C41348   5.277   5.390   4.206 -0.1083  0.0546  0.2126
  307MOL0     C41349   5.181   5.490   4.150  0.1495  0.8186 -0.2049
  307MOL0     C41350   5.081   5.425   4.048  0.2438 -0.5074  0.1941
  307MOL0     C41351   4.990   5.544   3.993  0.3995  0.0836 -1.0710
  307MOL0     C41352   4.907   5.506   3.867 -0.0422 -0.7989 -0.0089
  307MOL0     C41353   4.789   5.417   3.903 -1.0130  0.1519  0.0861
  307MOL0     C41354   4.667   5.486   3.954  0.6230 -0.2996  0.0058
  307MOL0    Cl41355   4.548   5.506   3.817 -0.2271  0.1560 -0.0700
  307MOL0     C41356   5.681   5.510   4.313  0.5958 -0.8019 -0.1366
  307MOL0     C41357   5.821   5.523   4.321  0.6722 -1.2422  1.4616
  307MOL0     O41358   6.047   5.316   4.339 -0.2205  0.4778 -0.3613
  307MOL0     C41359   6.343   5.383   4.368  0.4196  0.0115  0.2637
  307MOL0     C41360   6.488   5.385   4.350  0.1901 -0.4237 -0.2053
  307MOL0     N41361   7.215   4.862   4.249  0.0434 -0.2156 -0.0718
  307MOL0     N41362   7.297   4.812   4.335 -0.2524  0.1631  0.5905
  307MOL0     C41363   8.231   5.030   4.602 -0.0253 -0.0486 -0.2014
  307MOL0     C41364   8.367   5.029   4.593  0.0427  0.0393  0.3024
  307MOL0     C41365   8.761   5.164   4.443 -0.9110 -0.1753  0.1552
  307MOL0     C41366   8.822   5.222   4.335  0.7243  0.5444  0.1168
  307MOL0     C41367   8.963   5.222   4.310  0.4811 -0.1137 -0.7436
  307MOL0     C41368   9.038   5.154   4.412  0.1139  0.1244  0.5658
  307MOL0     O41369   9.174   5.126   4.396 -0.4953 -0.1526  0.6034
  307MOL0     C41370   9.251   5.233   4.328 -0.8528  0.2141  0.7240
  307MOL0     C41371   9.388   5.180   4.321  0.2740 -0.4747 -0.3811
  307MOL0     C41372   9.483   5.299   4.286 -0.1396  0.4144 -0.8833
  307MOL0     C41373   9.503   5.307   4.133 -0.2147 -0.8218  0.4401
  307MOL0     C41374   9.571   5.422   4.082  0.3621 -0.1115 -0.4659
  307MOL0     C41375   9.634   5.514   4.030  0.9617 -0.4884  0.5458
  307MOL0     C41376   8.974   5.096   4.527 -0.4246 -0.6373 -0.6897
  307MOL0     C41377   8.840   5.104   4.539  0.0080  0.5960  0.2433
  307MOL0     H41378   8.427   5.355   4.676  0.7168 -0.6723 -1.8937
  307MOL0     H41379   8.184   5.354   4.687  1.8131 -0.3674  2.6996
  307MOL0     H41380   7.950   4.986   4.551  2.0077  0.1530 -0.4431
  307MOL0     H41381   7.993   4.976   4.725 -0.3172 -2.1143 -0.8083
  307MOL0     H41382   7.822   5.147   4.779  1.7520 -0.8009  0.2830
  307MOL0     H41383   7.775   5.147   4.607 -0.2787  1.4341  0.6984
  307MOL0     H41384   7.707   4.895   4.657 -2.6417  0.9501  0.1529
  307MOL0     H41385   7.781   4.932   4.815  0.6155  1.7789  0.2561
  307MOL0     H41386   7.630   5.090   4.881  1.2060 -0.0941 -1.1027
  307MOL0     H41387   7.538   5.072   4.730 -0.7065  1.4227  0.6715
  307MOL0     H41388   7.574   4.849   4.951 -0.8597 -1.3021 -0.8981
  307MOL0     H41389   7.438   4.945   4.938  0.1814 -2.5989  3.6431
  307MOL0     H41390   7.560   4.744   4.741  1.5020 -0.8812  4.2410
  307MOL0     H41391   7.399   4.722   4.816 -2.9477  0.3208 -3.9956
  307MOL0     H41392   7.303   4.906   4.709  0.0055 -0.9399  0.3512
  307MOL0     H41393   7.447   4.912   4.599  2.2528 -2.3694  0.3164
  307MOL0     H41394   7.263   4.669   4.614  1.0558 -1.2620 -0.3196
  307MOL0     H41395   7.402   4.684   4.517 -2.5211 -1.9267 -0.7529
  307MOL0     H41396   7.061   4.911   4.540 -1.0504 -3.5250 -0.6024
  307MOL0     H41397   7.018   4.993   4.150 -3.7498  2.2828 -1.2761
  307MOL0     H41398   6.897   4.920   4.258  0.0209  0.0314  1.0498
  307MOL0     H41399   7.018   5.196   4.290 -0.5714  0.4194 -2.4728
  307MOL0     H41400   6.924   5.124   4.419 -2.3538  0.1936  0.0807
  307MOL0     H41401   6.730   5.128   4.241  1.2471 -0.4437  2.5613
  307MOL0     H41402   6.849   5.208   4.125  2.8366  2.5399  0.2007
  307MOL0     H41403   6.859   5.389   4.307  1.0388 -0.4206  2.2894
  307MOL0     H41404   6.724   5.308   4.387 -0.0037  2.5915 -0.1413
  307MOL0     H41405   6.473   5.392   4.008 -1.3903 -1.2601 -0.3783
  307MOL0     H41406   6.261   5.358   3.918 -0.9803 -0.8672 -0.7539
  307MOL0     H41407   6.116   5.419   4.014  0.4282  1.2645  0.8747
  307MOL0     H41408   6.259   5.517   3.958 -0.5407 -0.8000 -1.2836
  307MOL0     H41409   5.910   5.484   3.995  2.7443 -0.8827  1.6939
  307MOL0     H41410   5.670   5.454   3.980  1.6935 -2.9196  0.3958
  307MOL0     H41411   5.447   5.355   4.320  1.9841 -0.7706 -1.3515
  307MOL0     H41412   5.375   5.514   4.351 -0.1800 -0.1264  0.6322
  307MOL0     H41413   5.305   5.323   4.124 -1.4348 -0.2514 -0.0153
  307MOL0     H41414   5.220   5.324   4.272  0.7780 -1.7838 -0.7619
  307MOL0     H41415   5.233   5.567   4.093  1.2105 -1.1476 -2.0221
  307MOL0     H41416   5.114   5.538   4.222  2.3148  1.9241  1.1732
  307MOL0     H41417   5.135   5.378   3.966 -0.7728 -0.7356 -0.3644
  307MOL0     H41418   5.025   5.347   4.099  0.5195 -1.6417 -1.1971
  307MOL0     H41419   5.059   5.625   3.966  0.8995  0.2055  0.4667
  307MOL0     H41420   4.927   5.587   4.071  0.9922  0.8686 -1.0122
  307MOL0     H41421   4.879   5.600   3.819 -0.3010 -0.2472  1.2013
  307MOL0     H41422   4.975   5.462   3.794 -0.3332 -0.7147 -0.3328
  307MOL0     H41423   4.827   5.350   3.980  0.1104 -0.7046 -1.1617
  307MOL0     H41424   4.764   5.350   3.820  2.1063 -2.0441  0.7521
  307MOL0     H41425   4.690   5.582   4.002  0.9861 -0.3321 -0.0951
  307MOL0     H41426   4.625   5.427   4.035  0.5634 -2.5435 -1.5703
  307MOL0     H41427   5.625   5.523   4.406  3.5320 -2.0683  1.9471
  307MOL0     H41428   5.871   5.540   4.416  1.0552  1.1643  0.8871
  307MOL0     H41429   6.306   5.378   4.470 -0.0805  0.0581  0.0876
  307MOL0     H41430   6.547   5.386   4.441 -4.0664 -0.5795  2.8695
  307MOL0     H41431   8.201   4.927   4.589 -2.2502  0.4422  0.5813
  307MOL0     H41432   8.431   4.945   4.568 -0.1346  0.9386 -3.8991
  307MOL0     H41433   8.756   5.261   4.258 -1.3589 -0.7751  1.1497
  307MOL0     H41434   9.007   5.276   4.227 -1.3002  2.4575 -0.1433
  307MOL0     H41435   9.222   5.257   4.226  0.2052  1.5962  0.7207
  307MOL0     H41436   9.249   5.325   4.386 -2.1889 -0.3044  1.5294
  307MOL0     H41437   9.400   5.095   4.254  1.0982 -0.6865  0.0159
  307MOL0     H41438   9.420   5.146   4.420  0.4858  1.8016  0.4021
  307MOL0     H41439   9.579   5.286   4.337 -0.5153  1.9926  0.3272
  307MOL0     H41440   9.442   5.394   4.322 -2.5378 -0.1644 -1.9481
  307MOL0     H41441   9.405   5.330   4.092 -0.3646  1.2491  1.8263
  307MOL0     H41442   9.541   5.211   4.098 -0.8124 -0.5764 -0.9281
  307MOL0     H41443   9.693   5.594   3.991 -0.6168 -0.9518 -3.2869
  307MOL0     H41444   9.029   5.040   4.602 -1.3298 -0.1357  0.3673
  307MOL0     H41445   8.811   5.060   4.634 -1.3443  0.9339  0.0216
  308MOL0     O41446   1.093   0.779   9.407 -0.2037 -0.0204  0.1408
  308MOL0     C41447   1.121   0.846   9.307  0.2395  0.7005 -1.1808
  308MOL0     O41448   1.027   0.906   9.229  0.0903  0.6056 -0.6915
  308MOL0     C41449   0.905   0.918   9.279  0.0846 -0.3253  0.1232
  308MOL0     C41450   0.806   0.809   9.279 -0.7231  0.3470  0.3431
  308MOL0     C41451   0.673   0.840   9.309 -0.3391 -0.7509 -0.5422
  308MOL0     C41452   0.637   0.970   9.330 -0.0483 -0.1303  0.3050
  308MOL0     O41453   0.502   0.991   9.361 -0.5383 -1.0774  0.5591
  308MOL0     C41454   0.467   1.108   9.442 -0.5026 -0.2683  0.3896
  308MOL0     C41455   0.325   1.135   9.399  0.3443  0.1308 -0.7584
  308MOL0     C41456   0.236   1.017   9.436 -0.2413 -0.6163  0.2644
  308MOL0     C41457   0.102   1.062   9.485 -0.2924  0.0617  0.0326
  308MOL0     C41458   0.028   0.943   9.540  0.5425  0.2195  0.0772
  308MOL0     C41459  -0.101   0.982   9.582 -0.2835 -0.0295  0.0087
  308MOL0     C41460  -0.096   1.064   9.712 -0.8147  0.0076 -0.0015
  308MOL0     C41461  -0.226   1.070   9.788 -0.1424  0.4574 -0.3481
  308MOL0     N41462  -0.344   1.074   9.706 -0.0077 -0.0171  0.0905
  308MOL0     C41463  -0.373   1.159   9.605  0.0541 -0.0683 -0.2983
  308MOL0     C41464  -0.491   1.113   9.554  0.5551  0.1584 -0.7723
  308MOL0     C41465  -0.558   1.171   9.423  0.0757  0.0102  0.2050
  308MOL0     C41466  -0.689   1.234   9.466  0.7282  0.6138  0.1443
  308MOL0     C41467  -0.678   1.372   9.536 -0.0696  0.0129 -0.1927
  308MOL0     C41468  -0.811   1.420   9.587 -0.4290 -0.6367  0.6153
  308MOL0     O41469  -0.907   1.399   9.480 -0.7955  0.5533 -0.5788
  308MOL0     C41470  -1.035   1.439   9.516  0.0929  0.0515 -0.6414
  308MOL0     C41471  -1.092   1.475   9.643  0.3141 -0.4805 -0.4789
  308MOL0     C41472  -1.224   1.517   9.654  0.0217 -0.0587  0.9307
  308MOL0     C41473  -1.269   1.568   9.794  0.4658  0.4942 -0.4209
  308MOL0     C41474  -1.305   1.506   9.536  0.9688  0.1257  0.3999
  308MOL0     C41475  -1.456   1.527   9.553 -0.9554 -0.4409  0.2025
  308MOL0     O41476  -1.522   1.581   9.445 -0.0138 -0.0221  1.0437
  308MOL0     C41477  -1.646   1.647   9.478  0.1934 -0.2442 -0.1112
  308MOL0     C41478  -1.660   1.733   9.581 -0.5097 -0.3067 -0.0499
  308MOL0     C41479  -1.785   1.782   9.627 -0.2065 -0.1676 -0.1791
  308MOL0     C41480  -1.907   1.743   9.549 -0.8614  0.1143 -0.4038
  308MOL0     O41481  -2.023   1.804   9.579  0.4364 -0.0232 -0.5518
  308MOL0     C41482  -2.089   1.880   9.475  0.3752  0.4691  0.4420
  308MOL0     C41483  -2.031   2.017   9.466  0.7444 -0.4402  0.0042
  308MOL0     C41484  -2.058   2.109   9.590  0.1151  0.0835 -0.2411
  308MOL0     C41485  -2.000   2.245   9.600  0.5672  0.6555  0.3035
  308MOL0     C41486  -2.071   2.330   9.700  0.6974 -0.3005 -0.2116
  308MOL0     C41487  -2.000   2.461   9.714 -0.8488  0.5937  0.4601
  308MOL0     C41488  -2.025   2.560   9.602 -0.8920 -1.0974  0.3219
  308MOL0     C41489  -2.180   2.593   9.595 -0.0019  0.4809 -0.2163
  308MOL0    Cl41490  -2.256   2.657   9.754 -0.0861 -0.4319  0.3904
  308MOL0     C41491  -1.893   1.655   9.442  0.8705  0.1640  1.1390
  308MOL0     C41492  -1.767   1.606   9.410  0.3399  0.9574 -0.0391
  308MOL0     O41493  -1.499   1.462   9.648 -0.5457  0.0755  0.0776
  308MOL0     C41494  -1.251   1.467   9.414 -1.0083 -0.1175 -1.0260
  308MOL0     C41495  -1.113   1.434   9.404 -0.2934  0.3261 -0.5601
  308MOL0     N41496  -0.533   1.015   9.639 -0.0455 -0.1144 -0.3017
  308MOL0     N41497  -0.445   0.980   9.722  0.0658 -0.7472  0.6438
  308MOL0     C41498   0.729   1.073   9.324  0.2374 -0.0630  0.3259
  308MOL0     C41499   0.861   1.048   9.302  0.7221  0.5562 -0.4511
  308MOL0     C41500   1.251   0.839   9.248 -0.9513  0.1065  0.0570
  308MOL0     C41501   1.298   0.940   9.161  0.4895 -0.0316  0.5583
  308MOL0     C41502   1.421   0.925   9.095 -0.8486  0.3387 -1.0210
  308MOL0     C41503   1.513   0.824   9.131 -0.5280 -0.3163 -0.0776
  308MOL0     O41504   1.637   0.840   9.072 -0.4395  1.0249 -0.1592
  308MOL0     C41505   1.730   0.729   9.080 -0.3063  0.6044 -0.1785
  308MOL0     C41506   1.827   0.735   9.200 -0.5504  0.0701  0.3668
  308MOL0     C41507   1.913   0.862   9.226 -0.2718 -0.0557 -0.2684
  308MOL0     C41508   2.001   0.849   9.353  0.3424  0.3387  0.0104
  308MOL0     C41509   2.051   0.972   9.395 -0.1698 -0.0336  0.7678
  308MOL0     C41510   2.104   1.076   9.423  0.6286  0.8770  0.0455
  308MOL0     C41511   1.473   0.734   9.226  0.3806  0.5502  0.2149
  308MOL0     C41512   1.347   0.730   9.277 -0.0224  0.8095  0.4474
  308MOL0     H41513   0.831   0.707   9.253 -0.6868  0.7255 -1.2228
  308MOL0     H41514   0.603   0.758   9.320 -2.1273  0.5966 -1.3794
  308MOL0     H41515   0.475   1.083   9.549  2.1048 -0.9544  0.1020
  308MOL0     H41516   0.525   1.197   9.418 -0.2305 -1.1760 -2.7088
  308MOL0     H41517   0.292   1.229   9.444  0.0750  0.0232 -0.7305
  308MOL0     H41518   0.320   1.164   9.293 -1.6353  1.0903 -0.4653
  308MOL0     H41519   0.217   0.966   9.342 -0.0451  1.7126 -1.1037
  308MOL0     H41520   0.285   0.947   9.505 -2.2657 -1.1773  1.2221
  308MOL0     H41521   0.118   1.131   9.569 -2.1567  0.1446  0.3578
  308MOL0     H41522   0.048   1.114   9.405 -0.4310  1.4091  0.9500
  308MOL0     H41523   0.007   0.882   9.451 -2.2365 -0.4815  1.1043
  308MOL0     H41524   0.087   0.888   9.613 -3.0583  0.0304  3.1521
  308MOL0     H41525  -0.157   1.031   9.501 -1.9282 -1.6057  0.1113
  308MOL0     H41526  -0.157   0.898   9.625  0.7881  0.1984  1.9428
  308MOL0     H41527  -0.017   1.023   9.776 -2.6811 -0.2807  2.2416
  308MOL0     H41528  -0.066   1.167   9.693  2.3067 -0.5273  1.4667
  308MOL0     H41529  -0.235   1.142   9.869 -2.7027  0.4916 -0.5926
  308MOL0     H41530  -0.228   0.975   9.842  1.2897  1.5639  1.7800
  308MOL0     H41531  -0.303   1.235   9.573  1.7846 -0.9282  1.2853
  308MOL0     H41532  -0.500   1.257   9.390 -0.3698  0.8636  1.5435
  308MOL0     H41533  -0.566   1.102   9.338 -1.7802  0.2810  0.1058
  308MOL0     H41534  -0.743   1.161   9.528 -0.5518  2.2175  0.9828
  308MOL0     H41535  -0.746   1.249   9.373  1.6248 -2.3821 -1.0127
  308MOL0     H41536  -0.634   1.447   9.471 -0.7331 -0.0627 -0.7425
  308MOL0     H41537  -0.594   1.367   9.605 -1.1517  0.1701  1.1976
  308MOL0     H41538  -0.823   1.526   9.615 -1.2179 -0.4062 -0.5375
  308MOL0     H41539  -0.826   1.365   9.680  1.7315 -1.4491  0.5413
  308MOL0     H41540  -1.026   1.486   9.727 -0.4998  1.7857 -0.0589
  308MOL0     H41541  -1.325   1.498   9.856 -2.1069  0.4276 -2.6196
  308MOL0     H41542  -1.182   1.614   9.840  1.1564  0.5620 -1.7342
  308MOL0     H41543  -1.347   1.643   9.773 -0.3803 -0.7749 -2.0823
  308MOL0     H41544  -1.574   1.750   9.646 -0.5976 -0.2864  0.0609
  308MOL0     H41545  -1.797   1.825   9.726 -0.2502 -2.0455  0.6771
  308MOL0     H41546  -2.081   1.826   9.380  2.1384  0.5602  0.5028
  308MOL0     H41547  -2.192   1.876   9.511  0.1939 -1.5849 -0.1962
  308MOL0     H41548  -1.922   2.019   9.458  0.8091  1.5225  0.9088
  308MOL0     H41549  -2.071   2.071   9.379 -2.1880 -0.8675  0.9709
  308MOL0     H41550  -2.034   2.047   9.677  0.1538  0.8921  0.3291
  308MOL0     H41551  -2.167   2.119   9.601  0.4408  0.6377  3.5167
  308MOL0     H41552  -1.900   2.232   9.641  0.2642  0.9317  1.1425
  308MOL0     H41553  -2.005   2.287   9.499  1.3518 -1.9460 -0.9027
  308MOL0     H41554  -2.047   2.278   9.793  2.3532  0.5175 -0.1502
  308MOL0     H41555  -2.180   2.334   9.696  0.7706  1.1453 -2.1143
  308MOL0     H41556  -2.037   2.500   9.809 -3.2104 -3.6657  1.5866
  308MOL0     H41557  -1.894   2.440   9.732 -1.2367 -1.7107  0.3599
  308MOL0     H41558  -1.979   2.540   9.505 -0.1508  1.8796 -0.0309
  308MOL0     H41559  -1.968   2.652   9.612  1.1124 -1.8534 -2.8316
  308MOL0     H41560  -2.228   2.505   9.553  0.7472 -0.1983  0.3112
  308MOL0     H41561  -2.199   2.672   9.523 -0.7522  0.9607  0.4917
  308MOL0     H41562  -1.982   1.631   9.384  0.7280  0.6870  1.1297
  308MOL0     H41563  -1.766   1.536   9.327  1.7086  0.3620  0.4424
  308MOL0     H41564  -1.318   1.467   9.328 -3.3498  3.4208  0.5859
  308MOL0     H41565  -1.057   1.411   9.314 -0.5751 -1.3386 -0.3476
  308MOL0     H41566   0.702   1.178   9.333 -1.6466 -0.4948  0.0629
  308MOL0     H41567   0.923   1.137   9.298 -0.6549  1.5461 -0.5457
  308MOL0     H41568   1.238   1.022   9.120 -0.1314 -2.2011 -3.3621
  308MOL0     H41569   1.452   1.004   9.028 -0.3653  0.6598 -0.4348
  308MOL0     H41570   1.664   0.642   9.090 -1.3239  1.2460 -1.1254
  308MOL0     H41571   1.783   0.736   8.985 -2.0850 -0.6665 -1.3361
  308MOL0     H41572   1.895   0.650   9.188 -2.3257 -1.3159 -0.3168
  308MOL0     H41573   1.761   0.728   9.287 -1.5559 -2.8552 -0.5057
  308MOL0     H41574   1.835   0.936   9.245  0.1971  0.6212 -0.9157
  308MOL0     H41575   1.972   0.900   9.142  0.7741 -1.1961 -0.0904
  308MOL0     H41576   2.084   0.785   9.321  0.5719  2.0346 -3.2639
  308MOL0     H41577   1.958   0.797   9.439 -1.1406 -0.6911 -1.2835
  308MOL0     H41578   2.149   1.171   9.441  0.7418  1.0731 -1.1606
  308MOL0     H41579   1.541   0.653   9.254 -0.4149 -1.5591 -3.3349
  308MOL0     H41580   1.324   0.658   9.354 -0.1729 -0.3182 -0.6295
  309MOL0     O41581   1.143   1.254   4.842  0.1374 -0.1318 -0.2982
  309MOL0     C41582   1.186   1.186   4.756  0.0991  0.8946 -0.2370
  309MOL0     O41583   1.116   1.145   4.646  0.6978 -0.0042  0.4202
  309MOL0     C41584   1.016   1.236   4.607 -0.1295  0.5188 -0.3570
  309MOL0     C41585   0.886   1.226   4.650 -0.2904 -0.2443  0.6000
  309MOL0     C41586   0.789   1.327   4.606 -0.7575 -0.7407 -0.8208
  309MOL0     C41587   0.825   1.422   4.506  0.7108 -0.6220 -0.3598
  309MOL0     O41588   0.737   1.519   4.459  0.3019  0.5885  0.1047
  309MOL0     C41589   0.616   1.534   4.533 -0.0033  0.0688 -0.9003
  309MOL0     C41590   0.503   1.627   4.466 -0.5095 -0.8987 -0.2191
  309MOL0     C41591   0.453   1.561   4.341 -0.4602 -0.3139  0.4641
  309MOL0     C41592   0.352   1.656   4.280 -0.1463  0.2252 -1.2196
  309MOL0     C41593   0.293   1.600   4.150  0.3718  0.0760  0.2608
  309MOL0     C41594   0.188   1.696   4.101  0.7707  0.2964 -0.6190
  309MOL0     C41595   0.114   1.641   3.980 -0.3367  0.0333  0.5113
  309MOL0     C41596   0.195   1.633   3.851  0.6790  0.5690  0.6809
  309MOL0     N41597   0.110   1.595   3.734  0.0041  0.7236  0.0337
  309MOL0     C41598   0.014   1.501   3.740 -0.0893 -0.0848 -0.4628
  309MOL0     C41599  -0.051   1.506   3.622 -0.8545 -0.3798 -0.5017
  309MOL0     C41600  -0.155   1.403   3.584 -0.3702 -0.5952  0.8186
  309MOL0     C41601  -0.298   1.451   3.578  0.0246 -0.9237 -0.2893
  309MOL0     C41602  -0.400   1.339   3.551  0.3258 -0.2937 -0.5203
  309MOL0     C41603  -0.538   1.406   3.573  0.4058  0.4687 -0.2601
  309MOL0     O41604  -0.633   1.305   3.540 -0.4318  0.3194  0.4703
  309MOL0     C41605  -0.759   1.320   3.600  0.0089 -0.1457  0.1608
  309MOL0     C41606  -0.856   1.239   3.544  0.1434  0.7219 -0.0262
  309MOL0     C41607  -0.989   1.248   3.584 -0.1225  0.0189  0.4890
  309MOL0     C41608  -1.087   1.154   3.522  0.3603  0.3917 -0.3069
  309MOL0     C41609  -1.029   1.346   3.680  0.0488 -1.0443  1.2366
  309MOL0     C41610  -1.174   1.363   3.707  0.0271  0.1611  0.3242
  309MOL0     O41611  -1.265   1.358   3.601 -0.3561  0.3424 -0.8450
  309MOL0     C41612  -1.399   1.316   3.621 -0.5270  0.1497 -0.0783
  309MOL0     C41613  -1.483   1.355   3.520  0.2837  0.9296 -0.8675
  309MOL0     C41614  -1.614   1.301   3.519 -0.3929  0.2221 -0.1039
  309MOL0     C41615  -1.659   1.204   3.612 -0.0385 -0.7772  0.4563
  309MOL0     O41616  -1.779   1.144   3.597 -0.8190  0.6011  0.1376
  309MOL0     C41617  -1.877   1.198   3.687 -1.3118  1.2591  0.1152
  309MOL0     C41618  -1.961   1.295   3.611 -1.1821 -0.2900 -1.0205
  309MOL0     C41619  -2.094   1.324   3.692  0.1597 -0.0520 -0.7021
  309MOL0     C41620  -2.180   1.413   3.601  0.1295 -1.1038 -0.5997
  309MOL0     C41621  -2.295   1.481   3.662 -0.1441 -0.1514 -1.1392
  309MOL0     C41622  -2.274   1.576   3.781  1.0246  0.7898 -0.2885
  309MOL0     C41623  -2.410   1.641   3.818 -0.5489 -0.6539  0.0948
  309MOL0     C41624  -2.390   1.751   3.933  0.4305  0.4356  0.0559
  309MOL0    Cl41625  -2.325   1.679   4.078  0.2237 -0.2351  0.4231
  309MOL0     C41626  -1.562   1.166   3.710  0.8702 -0.0529 -0.2204
  309MOL0     C41627  -1.441   1.225   3.722  0.2677 -0.5923 -0.7599
  309MOL0     O41628  -1.208   1.364   3.822 -0.3756 -0.4466 -0.0793
  309MOL0     C41629  -0.933   1.425   3.741 -0.2512 -0.0836  0.1932
  309MOL0     C41630  -0.798   1.413   3.697  0.1502  1.1517  0.7927
  309MOL0     N41631   0.000   1.614   3.553 -0.5319  0.2238 -0.5249
  309MOL0     N41632   0.088   1.671   3.629  0.0262  0.0377 -0.6532
  309MOL0     C41633   0.953   1.425   4.459 -0.2559  0.8096  0.3273
  309MOL0     C41634   1.044   1.335   4.515 -0.0601  0.7067 -0.6097
  309MOL0     C41635   1.323   1.129   4.774 -0.0144 -0.2817 -1.2251
  309MOL0     C41636   1.398   1.155   4.899  0.8258  0.0718  0.0541
  309MOL0     C41637   1.523   1.096   4.917  0.3911 -0.5993  0.3504
  309MOL0     C41638   1.568   1.000   4.827 -0.2407 -0.4932  0.3539
  309MOL0     O41639   1.696   0.957   4.848  0.4587  0.1835 -0.4495
  309MOL0     C41640   1.764   0.847   4.778 -0.4522 -0.1644  0.5087
  309MOL0     C41641   1.837   0.929   4.673 -0.3780  0.6234  0.4687
  309MOL0     C41642   1.958   0.853   4.621  0.4614 -0.2989  0.3928
  309MOL0     C41643   2.028   0.934   4.508 -0.0426  0.2076 -0.1920
  309MOL0     C41644   1.983   0.908   4.374  0.5022 -0.1186  1.1297
  309MOL0     C41645   1.958   0.897   4.253 -0.4033  0.5741 -1.4894
  309MOL0     C41646   1.504   0.983   4.706 -0.1390  0.6595 -0.7715
  309MOL0     C41647   1.382   1.049   4.677  0.2305 -0.8514  0.2486
  309MOL0     H41648   0.850   1.158   4.726  0.0774 -0.9696  0.1260
  309MOL0     H41649   0.702   1.324   4.670  0.0496 -0.6768  0.3069
  309MOL0     H41650   0.566   1.436   4.537 -0.5670  0.3886  0.0636
  309MOL0     H41651   0.637   1.560   4.637 -0.9775  1.5035 -1.0419
  309MOL0     H41652   0.424   1.645   4.538  1.2224  3.0252  0.9578
  309MOL0     H41653   0.545   1.726   4.446 -2.2184 -0.0362  0.3580
  309MOL0     H41654   0.541   1.551   4.276  2.6616 -1.3749  4.4186
  309MOL0     H41655   0.413   1.463   4.368 -0.9269  0.4655  2.8997
  309MOL0     H41656   0.269   1.673   4.348  0.2918 -0.7612 -0.4170
  309MOL0     H41657   0.397   1.752   4.252 -3.3391  1.3419 -3.0812
  309MOL0     H41658   0.369   1.598   4.072 -0.9688 -1.8279 -1.0911
  309MOL0     H41659   0.234   1.508   4.160 -1.2966  1.2322  1.6051
  309MOL0     H41660   0.120   1.720   4.183 -0.1961 -1.3313 -0.9146
  309MOL0     H41661   0.249   1.785   4.081  2.0404  0.1242  2.0541
  309MOL0     H41662   0.064   1.547   4.005 -1.2815  0.7442  1.4331
  309MOL0     H41663   0.032   1.711   3.959  0.7442  1.0246 -0.6211
  309MOL0     H41664   0.285   1.572   3.862 -0.6290 -1.6821 -0.3277
  309MOL0     H41665   0.248   1.727   3.832 -2.1177  1.6991 -2.3382
  309MOL0     H41666  -0.005   1.422   3.812 -3.8905  1.5605  0.5588
  309MOL0     H41667  -0.125   1.367   3.485 -1.8264  1.3927 -0.4044
  309MOL0     H41668  -0.145   1.325   3.660 -1.5632  0.1373  1.7580
  309MOL0     H41669  -0.305   1.529   3.501 -2.3207  0.2493  0.9886
  309MOL0     H41670  -0.313   1.506   3.672  2.9895 -0.8084  0.1978
  309MOL0     H41671  -0.386   1.255   3.620  0.5907 -1.5803 -2.0917
  309MOL0     H41672  -0.404   1.301   3.449 -0.1260  0.1767 -0.6871
  309MOL0     H41673  -0.567   1.486   3.504  0.4541 -1.0690 -2.1467
  309MOL0     H41674  -0.545   1.432   3.679  2.2503 -0.8926  0.2460
  309MOL0     H41675  -0.825   1.166   3.469 -2.0161 -0.4846  0.1722
  309MOL0     H41676  -1.150   1.116   3.602 -0.3960  2.0367 -0.0934
  309MOL0     H41677  -1.147   1.205   3.446  0.1563  0.5785 -0.0231
  309MOL0     H41678  -1.040   1.072   3.465 -0.1106 -0.3755  0.3927
  309MOL0     H41679  -1.438   1.422   3.448  2.0913 -2.3449 -3.0401
  309MOL0     H41680  -1.680   1.322   3.436 -0.0371 -5.3605 -2.2299
  309MOL0     H41681  -1.930   1.105   3.708  1.3196 -0.6884 -1.3800
  309MOL0     H41682  -1.851   1.240   3.785 -3.5228  0.9498  0.9039
  309MOL0     H41683  -1.909   1.389   3.594 -2.3467  0.4172 -0.7351
  309MOL0     H41684  -1.977   1.244   3.515  2.1060 -1.8274 -0.8930
  309MOL0     H41685  -2.066   1.374   3.786  3.7300 -3.2862  0.2547
  309MOL0     H41686  -2.145   1.234   3.727 -2.6777  1.0908 -1.6411
  309MOL0     H41687  -2.110   1.490   3.566  0.6958 -2.5724 -2.9090
  309MOL0     H41688  -2.208   1.352   3.515  1.1751 -0.9818 -1.0404
  309MOL0     H41689  -2.355   1.394   3.692  3.0867 -2.1236  0.1288
  309MOL0     H41690  -2.352   1.533   3.584 -0.4602 -1.6975 -1.9820
  309MOL0     H41691  -2.242   1.510   3.862  2.5981  0.4508 -1.1590
  309MOL0     H41692  -2.193   1.645   3.755  0.5353  1.5276  0.1029
  309MOL0     H41693  -2.483   1.572   3.860 -0.2147  0.6225  3.0029
  309MOL0     H41694  -2.452   1.699   3.735  0.0106  1.0176  0.9251
  309MOL0     H41695  -2.479   1.813   3.945 -1.4057 -1.7887 -1.1704
  309MOL0     H41696  -2.314   1.815   3.888  0.8574 -0.2838 -0.2662
  309MOL0     H41697  -1.598   1.086   3.774 -1.9056 -0.2408 -1.8201
  309MOL0     H41698  -1.374   1.193   3.801  0.6775  2.1586  0.1284
  309MOL0     H41699  -0.979   1.494   3.811 -1.3135 -0.7860  0.2109
  309MOL0     H41700  -0.720   1.467   3.751  0.7239 -1.0921  2.4096
  309MOL0     H41701   0.980   1.493   4.379  2.2629  1.3710  1.5772
  309MOL0     H41702   1.148   1.342   4.483 -0.4675  0.5035 -2.0658
  309MOL0     H41703   1.344   1.204   4.979 -0.4111 -0.8563 -0.1802
  309MOL0     H41704   1.584   1.123   5.003 -0.2901  1.9539  0.1129
  309MOL0     H41705   1.837   0.796   4.841  1.7896  1.5843 -0.5429
  309MOL0     H41706   1.700   0.765   4.741 -0.1491 -0.4501  0.6112
  309MOL0     H41707   1.863   1.019   4.729  1.7198 -0.1735  0.9006
  309MOL0     H41708   1.754   0.950   4.605 -1.3869 -0.0678  1.4639
  309MOL0     H41709   1.923   0.754   4.589  2.2464 -1.0991  0.8482
  309MOL0     H41710   2.028   0.835   4.703  0.6573 -1.9002 -0.0888
  309MOL0     H41711   2.136   0.917   4.504  0.1732  1.0069  1.2565
  309MOL0     H41712   2.022   1.043   4.519 -0.0278  0.2720 -0.7880
  309MOL0     H41713   1.961   0.879   4.148  2.0302 -2.7084 -1.0168
  309MOL0     H41714   1.546   0.918   4.629  1.2416 -2.7790  2.5739
  309MOL0     H41715   1.332   1.024   4.584  1.7569  0.7603 -1.0648
  310MOL0     O41716   9.610   0.444   5.306  0.3901  0.1834 -0.1925
  310MOL0     C41717   9.660   0.407   5.198  1.2808 -0.7006 -0.8711
  310MOL0     O41718   9.591   0.396   5.088 -0.0104 -0.3267  0.8587
  310MOL0     C41719   9.461   0.406   5.102 -0.1331  0.6065  0.8237
  310MOL0     C41720   9.393   0.288   5.134  0.2572 -0.5716  0.4494
  310MOL0     C41721   9.259   0.296   5.160  0.1495 -0.2584 -0.5563
  310MOL0     C41722   9.185   0.415   5.157  0.5775 -0.7563 -0.1803
  310MOL0     O41723   9.054   0.417   5.185  0.3185  0.4605  0.3865
  310MOL0     C41724   8.966   0.467   5.078 -0.4543  0.5417 -0.2875
  310MOL0     C41725   8.823   0.410   5.073 -0.2532  0.0061  0.1371
  310MOL0     C41726   8.708   0.470   5.174  0.3147 -0.0259  0.3544
  310MOL0     C41727   8.607   0.361   5.214  0.2677  0.1881  0.0292
  310MOL0     C41728   8.453   0.387   5.224 -0.3082 -0.4131 -0.5704
  310MOL0     C41729   8.370   0.253   5.247  0.0433 -0.2965  0.4359
  310MOL0     C41730   8.223   0.274   5.209 -0.9666 -0.5676 -0.6914
  310MOL0     C41731   8.144   0.343   5.321  0.5037 -0.1801 -0.7566
  310MOL0     N41732   8.125   0.265   5.450  0.1754  0.5793 -0.6567
  310MOL0     C41733   8.209   0.276   5.561  0.1193 -0.2849  0.2702
  310MOL0     C41734   8.142   0.213   5.653 -0.3499 -0.3538 -0.6713
  310MOL0     C41735   8.159   0.210   5.799  0.3820  0.9949  0.4077
  310MOL0     C41736   8.211   0.079   5.860 -0.4425  0.1125 -0.0062
  310MOL0     C41737   8.354   0.051   5.806 -0.4686  0.6674 -0.3914
  310MOL0     C41738   8.420  -0.086   5.845  0.4593  0.6044  0.9098
  310MOL0     O41739   8.427  -0.105   5.982 -0.9900  0.0617  0.5636
  310MOL0     C41740   8.535  -0.173   6.034  0.6973  0.1301 -0.4775
  310MOL0     C41741   8.599  -0.139   6.154 -1.2099  0.6398  0.2402
  310MOL0     C41742   8.724  -0.192   6.190  0.3113  1.0752 -0.4177
  310MOL0     C41743   8.783  -0.135   6.320  0.1545  0.4547  1.0045
  310MOL0     C41744   8.784  -0.302   6.109 -0.3810  0.6208  0.0713
  310MOL0     C41745   8.917  -0.367   6.122  0.3253  0.2451 -0.1559
  310MOL0     O41746   8.930  -0.481   6.048  0.0421  0.3704  0.1217
  310MOL0     C41747   9.040  -0.555   6.085 -0.8972 -0.2340 -0.4544
  310MOL0     C41748   9.111  -0.611   5.983 -0.2657  0.5197  1.0015
  310MOL0     C41749   9.212  -0.704   6.002 -0.6435 -0.5649 -0.6204
  310MOL0     C41750   9.234  -0.758   6.131  0.3101  0.2287 -0.0059
  310MOL0     O41751   9.333  -0.840   6.160 -0.7530 -0.2534 -0.3756
  310MOL0     C41752   9.307  -0.972   6.201 -0.4066  0.7538  0.0716
  310MOL0     C41753   9.305  -1.075   6.082  0.2159 -0.2421  0.3345
  310MOL0     C41754   9.192  -1.073   5.969 -0.0881  0.4743 -0.1384
  310MOL0     C41755   9.046  -1.047   6.024 -0.4661 -0.3467  0.5495
  310MOL0     C41756   8.941  -1.037   5.909 -0.0510  0.7189 -0.7330
  310MOL0     C41757   8.799  -0.984   5.947 -0.3674  0.0012  0.5220
  310MOL0     C41758   8.713  -0.959   5.820  0.0979  0.2714 -0.4449
  310MOL0     C41759   8.574  -0.902   5.863  0.1208 -0.4430  0.7370
  310MOL0    Cl41760   8.440  -0.919   5.745  0.4354 -0.1463  0.1526
  310MOL0     C41761   9.159  -0.706   6.239 -1.0741 -0.5722 -0.3605
  310MOL0     C41762   9.072  -0.600   6.216  0.3975  0.4649  0.4785
  310MOL0     O41763   8.988  -0.333   6.222 -0.5023  1.0869  0.3639
  310MOL0     C41764   8.705  -0.350   6.000  0.1341 -0.5635 -0.4459
  310MOL0     C41765   8.585  -0.293   5.970  0.2679 -0.8005  1.3982
  310MOL0     N41766   8.028   0.162   5.601  1.2353  0.0559  0.3237
  310MOL0     N41767   8.011   0.184   5.476 -0.0447 -0.1545  0.0131
  310MOL0     C41768   9.256   0.532   5.128  0.3079  0.3232 -0.0986
  310MOL0     C41769   9.393   0.527   5.102  0.7291  1.1491  0.0225
  310MOL0     C41770   9.798   0.369   5.197 -0.1801  0.5973  0.9603
  310MOL0     C41771   9.891   0.396   5.296  0.1525  0.0502 -0.0140
  310MOL0     C41772  10.015   0.344   5.297  0.6364 -0.0464 -0.2315
  310MOL0     C41773  10.053   0.259   5.196 -0.5026 -0.5623  0.3197
  310MOL0     O41774  10.185   0.234   5.179  0.3559 -0.7914 -0.1191
  310MOL0     C41775  10.242   0.144   5.279 -0.8276 -0.5085 -0.4910
  310MOL0     C41776  10.395   0.141   5.271 -0.1406 -0.0503 -0.4365
  310MOL0     C41777  10.448   0.059   5.392  0.2239 -0.1764  0.9576
  310MOL0     C41778  10.601   0.055   5.391  0.3826  0.0366 -0.0850
  310MOL0     C41779  10.664   0.179   5.433 -0.4674  0.0460  0.0484
  310MOL0     C41780  10.739   0.264   5.481 -0.1014  0.3510  0.0952
  310MOL0     C41781   9.965   0.227   5.100  0.1378  0.0153 -0.2679
  310MOL0     C41782   9.837   0.275   5.103 -1.0426 -0.4608  0.7524
  310MOL0     H41783   9.456   0.201   5.120  1.8380  0.4765  0.7157
  310MOL0     H41784   9.203   0.206   5.185 -1.5489  1.4319  2.3939
  310MOL0     H41785   8.953   0.574   5.099 -3.0887 -0.0702  1.7786
  310MOL0     H41786   9.012   0.455   4.980 -2.2923  3.4602 -1.6462
  310MOL0     H41787   8.797   0.426   4.968 -0.0374  2.4785  0.3827
  310MOL0     H41788   8.827   0.303   5.092 -1.8922 -0.2967 -1.0118
  310MOL0     H41789   8.754   0.523   5.258  3.6410 -3.7349  1.2060
  310MOL0     H41790   8.656   0.544   5.113  0.1215 -0.8942 -0.5613
  310MOL0     H41791   8.621   0.278   5.145  1.2174  1.9057 -1.9437
  310MOL0     H41792   8.632   0.337   5.318 -0.2955  4.3213  1.3272
  310MOL0     H41793   8.433   0.460   5.303  0.9636 -1.7931  1.1183
  310MOL0     H41794   8.429   0.430   5.126 -0.8276 -0.0484 -0.2874
  310MOL0     H41795   8.412   0.172   5.187  1.6073  1.1945 -0.5824
  310MOL0     H41796   8.391   0.218   5.349  1.1668 -2.8380 -0.5904
  310MOL0     H41797   8.208   0.328   5.115 -0.1047 -0.6417 -0.8816
  310MOL0     H41798   8.174   0.176   5.210 -0.0478 -1.0389  0.0303
  310MOL0     H41799   8.044   0.377   5.292 -0.2996  1.3578  3.1872
  310MOL0     H41800   8.193   0.439   5.343  0.5423 -0.3893  0.1192
  310MOL0     H41801   8.295   0.341   5.573 -1.8957  2.9366 -1.3789
  310MOL0     H41802   8.237   0.277   5.839  0.7036 -0.3254  2.0944
  310MOL0     H41803   8.066   0.241   5.847 -0.2156 -1.0802  0.6763
  310MOL0     H41804   8.146  -0.002   5.826  1.6138 -1.6639  0.0586
  310MOL0     H41805   8.211   0.092   5.968  4.1453  0.2478  0.1891
  310MOL0     H41806   8.417   0.132   5.843 -1.1208  1.0237 -0.0514
  310MOL0     H41807   8.360   0.058   5.697 -5.1498 -1.8143 -1.0273
  310MOL0     H41808   8.518  -0.079   5.797 -0.5532 -1.5772 -1.7891
  310MOL0     H41809   8.363  -0.165   5.794 -0.1594  1.3979  0.3370
  310MOL0     H41810   8.552  -0.060   6.211 -0.6265  0.8554  0.4288
  310MOL0     H41811   8.810  -0.224   6.377 -0.3818 -0.6836 -0.4439
  310MOL0     H41812   8.874  -0.077   6.302 -1.0947  1.8561 -1.3185
  310MOL0     H41813   8.710  -0.079   6.379  1.5009  3.5253 -0.0752
  310MOL0     H41814   9.106  -0.581   5.879  1.4089 -0.6891  0.5445
  310MOL0     H41815   9.272  -0.732   5.916 -0.7319 -2.0818 -0.2186
  310MOL0     H41816   9.395  -1.001   6.259  0.7843  1.8886 -1.0852
  310MOL0     H41817   9.214  -0.978   6.258 -0.9914 -1.1078 -1.0055
  310MOL0     H41818   9.396  -1.063   6.022  0.2302  1.2014  0.6212
  310MOL0     H41819   9.300  -1.176   6.124  1.0749 -1.3835 -2.1278
  310MOL0     H41820   9.199  -1.175   5.931  0.6557 -1.1243  3.7885
  310MOL0     H41821   9.203  -1.007   5.883 -2.8856  2.5450  0.9597
  310MOL0     H41822   9.014  -1.110   6.107 -2.0932 -0.8778 -0.4396
  310MOL0     H41823   9.052  -0.948   6.070 -0.5029  0.6322 -1.4533
  310MOL0     H41824   8.935  -1.135   5.860 -1.6994  0.2210  0.3957
  310MOL0     H41825   8.973  -0.975   5.825  1.1643 -2.3841 -2.7640
  310MOL0     H41826   8.749  -1.064   6.003 -0.0313  0.3550  1.3337
  310MOL0     H41827   8.801  -0.891   6.003 -1.9809  0.5636 -0.2800
  310MOL0     H41828   8.709  -1.060   5.780 -0.7984 -1.3660  3.3380
  310MOL0     H41829   8.765  -0.881   5.764 -0.2738  2.2536  1.7958
  310MOL0     H41830   8.581  -0.793   5.870 -0.2059 -0.3749  0.0514
  310MOL0     H41831   8.547  -0.940   5.962 -1.3754  0.0537  0.5350
  310MOL0     H41832   9.173  -0.747   6.338  1.6492 -0.5528 -0.6441
  310MOL0     H41833   9.018  -0.564   6.303 -2.2219 -2.6635  0.3804
  310MOL0     H41834   8.733  -0.436   5.940 -1.2592 -0.8434 -0.7316
  310MOL0     H41835   8.532  -0.346   5.892  0.2020 -1.2359  1.7380
  310MOL0     H41836   9.209   0.630   5.141 -2.0423 -0.7292 -0.2212
  310MOL0     H41837   9.453   0.617   5.094  1.6031  0.6245  0.5238
  310MOL0     H41838   9.849   0.444   5.384 -2.7624  0.3612 -1.4706
  310MOL0     H41839  10.091   0.380   5.366  1.3955  1.6895 -1.8568
  310MOL0     H41840  10.208   0.168   5.380 -0.8467  2.4843 -1.1047
  310MOL0     H41841  10.216   0.040   5.261  1.1303 -1.1559  0.1246
  310MOL0     H41842  10.441   0.240   5.274  1.7869 -0.8585 -1.3722
  310MOL0     H41843  10.443   0.102   5.181  1.8434 -1.2589  1.0537
  310MOL0     H41844  10.420  -0.045   5.371 -1.6918  0.0290  2.2400
  310MOL0     H41845  10.400   0.088   5.486  0.0993  3.0752  0.0010
  310MOL0     H41846  10.634   0.026   5.291  0.3285  1.5249 -0.5640
  310MOL0     H41847  10.636  -0.023   5.458  0.5966 -0.5325 -0.8489
  310MOL0     H41848  10.809   0.342   5.503  1.9770 -0.8336 -1.8651
  310MOL0     H41849  10.000   0.172   5.013  1.3750 -1.6935  1.2393
  310MOL0     H41850   9.770   0.238   5.027 -0.1795 -1.4646  0.4609
  311MOL0     O41851   9.471   3.042  10.222  0.4406  0.4520 -0.1062
  311MOL0     C41852   9.506   2.997  10.111  0.4021 -0.1943  0.1160
  311MOL0     O41853   9.434   2.915  10.026 -0.3768  0.4206 -0.0151
  311MOL0     C41854   9.316   2.847  10.076 -0.3100  0.1042 -0.7508
  311MOL0     C41855   9.208   2.908  10.151  0.0178  0.4658  0.2796
  311MOL0     C41856   9.091   2.833  10.193 -0.1786 -0.1443 -0.5034
  311MOL0     C41857   9.085   2.698  10.152 -0.0965 -0.6604 -0.4069
  311MOL0     O41858   8.973   2.631  10.184  0.2361 -0.2581 -0.7227
  311MOL0     C41859   8.910   2.559  10.080  0.7479  0.1801 -0.3571
  311MOL0     C41860   8.788   2.475  10.143 -0.0280  0.9087 -0.3699
  311MOL0     C41861   8.836   2.374  10.247  0.0816  0.0744 -0.3855
  311MOL0     C41862   8.720   2.272  10.290 -0.4064 -0.0902  0.3336
  311MOL0     C41863   8.778   2.146  10.360 -0.4244 -0.4361 -0.3785
  311MOL0     C41864   8.836   2.040  10.270  0.1133 -0.2438  0.6043
  311MOL0     C41865   8.877   1.912  10.340 -0.0555  0.5831  0.7692
  311MOL0     C41866   8.921   1.798  10.257 -0.3488  0.6501  0.8270
  311MOL0     N41867   8.810   1.723  10.193  1.0371  0.5224 -0.4852
  311MOL0     C41868   8.717   1.773  10.100 -0.5385  0.9028  0.4408
  311MOL0     C41869   8.604   1.701  10.112  0.8178  0.4895 -0.1660
  311MOL0     C41870   8.489   1.747  10.032  0.7289  0.6729  1.1143
  311MOL0     C41871   8.515   1.792   9.878  0.2701  0.7680  0.1700
  311MOL0     C41872   8.380   1.809   9.798  0.1631 -0.4189 -0.1022
  311MOL0     C41873   8.389   1.757   9.658 -0.3560 -0.2770  0.6302
  311MOL0     O41874   8.381   1.609   9.653 -0.0930 -0.4716 -0.2913
  311MOL0     C41875   8.272   1.558   9.590 -0.0050 -0.0028 -0.3890
  311MOL0     C41876   8.269   1.536   9.450  0.4289 -0.0396  0.6015
  311MOL0     C41877   8.153   1.491   9.386 -0.1752 -0.4194 -0.1631
  311MOL0     C41878   8.137   1.507   9.232  0.1346 -0.0923 -0.5432
  311MOL0     C41879   8.043   1.454   9.471 -0.9224  0.7875 -1.1103
  311MOL0     C41880   7.910   1.419   9.419  0.3422 -0.0007 -0.2527
  311MOL0     O41881   7.804   1.459   9.478  0.6403 -0.6029 -0.0160
  311MOL0     C41882   7.688   1.464   9.401 -1.3868 -0.1342  0.0480
  311MOL0     C41883   7.566   1.453   9.466  0.7920  1.1010  0.5546
  311MOL0     C41884   7.440   1.452   9.396  0.3788 -0.0164 -0.0798
  311MOL0     C41885   7.442   1.451   9.254 -0.6835  0.5196 -0.5485
  311MOL0     O41886   7.323   1.463   9.195  0.4957 -0.1754 -0.4948
  311MOL0     C41887   7.297   1.394   9.070 -0.3444  0.3763  0.8107
  311MOL0     C41888   7.169   1.442   8.995  0.2510  0.6891 -0.6864
  311MOL0     C41889   7.194   1.563   8.893  0.6165  0.0725  0.4126
  311MOL0     C41890   7.221   1.702   8.954  0.2569 -0.5967  0.2424
  311MOL0     C41891   7.106   1.749   9.052 -0.7448 -0.1726  0.1930
  311MOL0     C41892   6.985   1.793   8.974  0.3497 -1.2680  0.3009
  311MOL0     C41893   6.960   1.945   8.977  0.1810  0.0101  0.0916
  311MOL0     C41894   6.819   1.973   8.917 -0.3409  1.2995 -0.0461
  311MOL0    Cl41895   6.762   2.128   8.917 -0.2496 -0.5488 -0.0965
  311MOL0     C41896   7.561   1.476   9.189 -0.5506 -0.1469  0.1961
  311MOL0     C41897   7.682   1.482   9.258 -0.2676  0.4748  0.8076
  311MOL0     O41898   7.905   1.335   9.331 -0.6432  0.5495  0.0583
  311MOL0     C41899   8.054   1.467   9.615  0.8705  0.0741 -0.0271
  311MOL0     C41900   8.166   1.525   9.674  0.1431  1.0713  0.1141
  311MOL0     N41901   8.624   1.607  10.209 -0.5921  0.7055  0.6090
  311MOL0     N41902   8.745   1.612  10.249 -0.2328  0.6668  0.3087
  311MOL0     C41903   9.192   2.639  10.078  0.0226  0.0293  0.8120
  311MOL0     C41904   9.305   2.712  10.040  0.9078  0.1570 -0.3991
  311MOL0     C41905   9.626   3.063  10.064 -0.2350 -0.4944  0.5930
  311MOL0     C41906   9.705   2.996   9.974 -0.1371  0.8234 -0.4971
  311MOL0     C41907   9.830   3.047   9.931 -0.0248 -0.2338 -0.4543
  311MOL0     C41908   9.871   3.178   9.976 -0.1091 -0.2701 -0.0141
  311MOL0     O41909  10.000   3.218   9.937 -0.0520  0.1999 -0.1295
  311MOL0     C41910  10.064   3.330  10.015  0.4210  0.7453 -0.6032
  311MOL0     C41911  10.164   3.399   9.922 -0.2044  0.1108 -0.2284
  311MOL0     C41912  10.269   3.480  10.007 -1.1428  0.2396 -0.5434
  311MOL0     C41913  10.376   3.552   9.914  0.3475  0.0890 -0.5969
  311MOL0     C41914  10.311   3.657   9.845 -0.0830 -0.3489  0.5322
  311MOL0     C41915  10.256   3.751   9.790  0.1899 -0.7580  0.1245
  311MOL0     C41916   9.778   3.254  10.049 -0.1814  0.1462  0.4176
  311MOL0     C41917   9.652   3.203  10.092 -0.9693  0.0737 -0.0431
  311MOL0     H41918   9.225   3.012  10.176 -0.6114  0.2521  1.6685
  311MOL0     H41919   9.008   2.876  10.249 -0.9775 -0.1653 -1.6402
  311MOL0     H41920   8.874   2.627  10.003  0.8164  1.2518  0.5202
  311MOL0     H41921   8.973   2.484  10.032  1.1990  0.7685 -0.7014
  311MOL0     H41922   8.702   2.532  10.180 -1.2911 -0.2680 -1.3727
  311MOL0     H41923   8.752   2.422  10.054  1.2958  1.9253 -1.5664
  311MOL0     H41924   8.919   2.319  10.200 -0.7130  0.6154 -2.5365
  311MOL0     H41925   8.855   2.429  10.340 -1.8800 -0.8432  0.6212
  311MOL0     H41926   8.654   2.332  10.354 -0.1685  0.3597  0.1649
  311MOL0     H41927   8.668   2.249  10.196  2.1867  0.7962 -1.4384
  311MOL0     H41928   8.851   2.162  10.440 -2.9161 -1.1570  2.1902
  311MOL0     H41929   8.693   2.107  10.416 -0.7708  0.3072 -0.3784
  311MOL0     H41930   8.768   2.005  10.192 -1.8387 -1.0059  2.5170
  311MOL0     H41931   8.929   2.083  10.233 -2.0754  3.2284 -1.4196
  311MOL0     H41932   8.960   1.944  10.404 -0.8256 -1.8076  3.1491
  311MOL0     H41933   8.789   1.881  10.398  0.2640 -0.9154  0.4832
  311MOL0     H41934   8.976   1.724  10.317 -1.5817 -0.6501  0.3985
  311MOL0     H41935   8.997   1.826  10.183  1.0194 -3.5057  0.3741
  311MOL0     H41936   8.727   1.853  10.028  1.4115  0.1811 -0.1449
  311MOL0     H41937   8.424   1.660  10.033  1.1572  0.3481  2.1208
  311MOL0     H41938   8.430   1.829  10.076  0.7749  0.2944  1.9047
  311MOL0     H41939   8.574   1.713   9.830  0.1177  0.3729  0.6195
  311MOL0     H41940   8.576   1.882   9.868 -0.7727  1.3370 -1.4644
  311MOL0     H41941   8.369   1.917   9.786 -2.7235 -0.5960  0.4015
  311MOL0     H41942   8.289   1.768   9.842 -1.6226  0.6820 -2.5698
  311MOL0     H41943   8.484   1.787   9.612 -1.7566 -0.5029 -2.7393
  311MOL0     H41944   8.315   1.810   9.598 -2.3281 -1.6764  1.7049
  311MOL0     H41945   8.355   1.573   9.394  1.4785 -1.3436  1.2860
  311MOL0     H41946   8.233   1.526   9.183  0.2896  2.6313  0.6124
  311MOL0     H41947   8.103   1.411   9.192 -1.1505  0.9910 -2.1678
  311MOL0     H41948   8.067   1.584   9.198 -2.5792 -1.8852  0.5984
  311MOL0     H41949   7.554   1.430   9.572 -1.5564  1.3455  0.3877
  311MOL0     H41950   7.353   1.450   9.461 -1.1717 -1.7783 -2.0702
  311MOL0     H41951   7.387   1.412   9.009 -0.2378 -0.4095  0.7266
  311MOL0     H41952   7.289   1.286   9.080 -3.7310  0.4353 -0.1336
  311MOL0     H41953   7.129   1.362   8.932 -2.0990  1.4793 -0.3165
  311MOL0     H41954   7.087   1.460   9.065  1.2163 -1.4028  1.0896
  311MOL0     H41955   7.101   1.564   8.836  0.1130  0.0932  1.2232
  311MOL0     H41956   7.264   1.535   8.814 -1.7474  1.5764 -2.3968
  311MOL0     H41957   7.309   1.706   9.019 -0.3607  0.2268  1.0536
  311MOL0     H41958   7.246   1.770   8.872  4.2489 -2.7427 -0.6080
  311MOL0     H41959   7.147   1.839   9.099  1.3762  0.2677 -2.2739
  311MOL0     H41960   7.091   1.690   9.143 -3.2937  0.6802  0.3954
  311MOL0     H41961   7.004   1.769   8.869  1.4904  0.7657 -0.0163
  311MOL0     H41962   6.900   1.733   9.008 -1.9646 -0.5231 -3.6241
  311MOL0     H41963   7.041   1.990   8.917  1.7968 -5.0882 -2.1329
  311MOL0     H41964   6.967   1.981   9.080  0.6423  2.5947 -0.7772
  311MOL0     H41965   6.751   1.910   8.975 -0.1389  1.2575  0.1488
  311MOL0     H41966   6.817   1.925   8.818  1.5320  0.6410  0.1882
  311MOL0     H41967   7.566   1.491   9.081 -1.8796 -0.3330  0.0904
  311MOL0     H41968   7.770   1.486   9.195 -0.5402 -2.3341  0.1597
  311MOL0     H41969   7.965   1.449   9.675  2.5001  2.1183  3.2893
  311MOL0     H41970   8.181   1.537   9.781 -1.0611  0.3058  0.3816
  311MOL0     H41971   9.196   2.530  10.074 -1.8198 -0.2304  3.3922
  311MOL0     H41972   9.379   2.655   9.984  0.4227 -2.3435  1.3404
  311MOL0     H41973   9.682   2.895   9.942  2.2513 -0.5901  1.8532
  311MOL0     H41974   9.902   2.984   9.878 -0.8022 -1.5461  0.0198
  311MOL0     H41975   9.986   3.398  10.051 -2.1696 -2.9551  1.3896
  311MOL0     H41976  10.109   3.288  10.105 -0.4378 -0.6657 -0.8083
  311MOL0     H41977  10.104   3.464   9.857 -0.1013  0.3275 -0.1066
  311MOL0     H41978  10.211   3.320   9.862 -1.4747  0.1733 -1.3742
  311MOL0     H41979  10.326   3.424  10.082  1.2456  1.9445 -0.9394
  311MOL0     H41980  10.225   3.559  10.069  0.1074  2.4678 -2.3468
  311MOL0     H41981  10.418   3.484   9.840  2.3483  1.5158 -0.8525
  311MOL0     H41982  10.462   3.586   9.972 -0.1094 -0.5428  0.4885
  311MOL0     H41983  10.205   3.841   9.763  1.8422  0.0627 -0.4043
  311MOL0     H41984   9.794   3.356  10.085  0.9594 -0.5509  2.0163
  311MOL0     H41985   9.585   3.269  10.146 -0.5553  0.0561  0.4904
  312MOL0     O41986  11.048   1.015   0.306  0.0780  0.1427 -0.3781
  312MOL0     C41987  11.128   0.956   0.375  1.7484 -0.2183 -0.1581
  312MOL0     O41988  11.117   0.825   0.404 -0.1031 -0.4349  0.2333
  312MOL0     C41989  11.000   0.746   0.387  0.4055  0.6017  0.9177
  312MOL0     C41990  10.888   0.761   0.302  0.0400 -0.9277  0.5480
  312MOL0     C41991  10.780   0.668   0.290 -0.6520  0.0404 -0.0518
  312MOL0     C41992  10.775   0.562   0.379 -0.6622  0.6362  0.0429
  312MOL0     O41993  10.683   0.463   0.389  0.3559 -0.3079  0.4597
  312MOL0     C41994  10.595   0.455   0.281  0.5760  1.5408 -0.0268
  312MOL0     C41995  10.515   0.318   0.308 -0.0071  0.0634 -0.6993
  312MOL0     C41996  10.376   0.340   0.244 -1.2254 -0.2245  0.5270
  312MOL0     C41997  10.272   0.225   0.266  0.2465  0.7413 -0.0924
  312MOL0     C41998  10.145   0.228   0.180 -0.9064  0.1991 -0.4016
  312MOL0     C41999  10.180   0.212   0.024 -0.1852  0.6956  0.4711
  312MOL0     C42000  10.057   0.244  -0.061 -1.0158  0.5700  0.1762
  312MOL0     C42001  10.031   0.157  -0.188  0.1015 -0.0580  1.6523
  312MOL0     N42002   9.930   0.225  -0.274 -0.3823 -0.0483  0.5304
  312MOL0     C42003   9.792   0.228  -0.261 -0.9098 -0.9427 -0.5252
  312MOL0     C42004   9.761   0.332  -0.339  0.7007  0.0481  0.0241
  312MOL0     C42005   9.617   0.383  -0.354 -0.0863  0.4031  0.3615
  312MOL0     C42006   9.615   0.523  -0.431  0.7272 -0.3082 -0.5190
  312MOL0     C42007   9.471   0.591  -0.448  0.0015 -0.4822  0.0646
  312MOL0     C42008   9.385   0.592  -0.315  0.5096 -0.3057  0.0034
  312MOL0     O42009   9.302   0.486  -0.287  0.3133 -0.3258  0.4745
  312MOL0     C42010   9.203   0.453  -0.377 -1.7737  0.3868  1.5431
  312MOL0     C42011   9.228   0.346  -0.467 -1.3340 -0.2530  0.6192
  312MOL0     C42012   9.129   0.318  -0.569 -1.1321 -0.1365  0.3468
  312MOL0     C42013   9.162   0.208  -0.668  0.1264 -0.4544 -0.0336
  312MOL0     C42014   9.002   0.389  -0.573 -1.0974  0.3793  0.0727
  312MOL0     C42015   8.882   0.347  -0.656  0.3310 -0.0173 -0.6458
  312MOL0     O42016   8.763   0.416  -0.621 -0.4348 -0.5441  0.8364
  312MOL0     C42017   8.652   0.403  -0.698  0.6535 -0.2954 -0.8520
  312MOL0     C42018   8.564   0.296  -0.680  0.2320 -0.1585 -0.1836
  312MOL0     C42019   8.448   0.291  -0.750  0.1496  0.4430  0.5585
  312MOL0     C42020   8.412   0.387  -0.854 -0.2379 -0.8921 -0.0364
  312MOL0     O42021   8.293   0.395  -0.920  0.1584 -0.3910  0.5380
  312MOL0     C42022   8.214   0.276  -0.932  0.0004 -0.6829 -0.1115
  312MOL0     C42023   8.118   0.320  -1.048  0.7498 -0.6257  0.2264
  312MOL0     C42024   8.187   0.388  -1.170  0.5893  0.6519 -0.6990
  312MOL0     C42025   8.280   0.291  -1.237  0.1449  0.2207  0.9122
  312MOL0     C42026   8.300   0.322  -1.387 -0.7787  0.6728  0.1974
  312MOL0     C42027   8.424   0.256  -1.447  0.2761  0.2916 -0.5712
  312MOL0     C42028   8.421   0.107  -1.435  0.7976 -0.0833 -0.0317
  312MOL0     C42029   8.564   0.051  -1.484  0.3480  0.0447 -0.0913
  312MOL0    Cl42030   8.568  -0.127  -1.464 -0.0753  0.4741 -0.7630
  312MOL0     C42031   8.504   0.480  -0.878  0.7827  0.2481  0.6427
  312MOL0     C42032   8.627   0.489  -0.808 -0.2258  0.8292  0.3523
  312MOL0     O42033   8.900   0.270  -0.750  0.3790 -0.0634 -0.0887
  312MOL0     C42034   8.984   0.488  -0.476 -0.1326 -0.0349 -0.9875
  312MOL0     C42035   9.083   0.519  -0.389  0.3772 -0.3837  0.2099
  312MOL0     N42036   9.871   0.386  -0.399  0.1512  0.5826  0.1819
  312MOL0     N42037   9.974   0.321  -0.364 -0.5558  0.3645 -0.4561
  312MOL0     C42038  10.885   0.554   0.472  0.6475 -0.0814  0.0681
  312MOL0     C42039  10.993   0.642   0.475  1.1028  0.2595 -0.2506
  312MOL0     C42040  11.246   1.027   0.414 -0.0827 -0.0068 -0.0343
  312MOL0     C42041  11.345   0.959   0.487  0.3121 -0.0689 -0.3026
  312MOL0     C42042  11.454   1.022   0.537  0.0812 -0.2399  0.2919
  312MOL0     C42043  11.457   1.162   0.523 -0.1160 -0.0232  0.4425
  312MOL0     O42044  11.564   1.235   0.577  0.9225 -0.0293 -0.1744
  312MOL0     C42045  11.687   1.185   0.531 -0.5617 -0.3450 -0.0741
  312MOL0     C42046  11.703   1.210   0.380  0.1508 -1.4736 -0.1563
  312MOL0     C42047  11.741   1.362   0.337 -1.0284  0.0383 -0.0278
  312MOL0     C42048  11.736   1.377   0.186 -0.1520  0.0817  0.0059
  312MOL0     C42049  11.863   1.376   0.110  0.4123 -0.1258  0.5035
  312MOL0     C42050  11.965   1.375   0.052 -0.1791 -0.4381  0.2558
  312MOL0     C42051  11.356   1.235   0.455 -0.9957 -0.6326 -0.0019
  312MOL0     C42052  11.261   1.169   0.393  0.5407  0.5041 -0.5746
  312MOL0     H42053  10.893   0.842   0.230 -2.2312  0.4408  1.7881
  312MOL0     H42054  10.693   0.693   0.231 -1.5405  0.0001  1.1967
  312MOL0     H42055  10.533   0.545   0.269 -0.1812  0.7059 -3.2733
  312MOL0     H42056  10.658   0.440   0.194  1.6006 -0.3821  0.9961
  312MOL0     H42057  10.571   0.234   0.266  2.1372  1.5887 -1.0455
  312MOL0     H42058  10.504   0.296   0.415  0.7853 -0.9027 -0.8083
  312MOL0     H42059  10.342   0.438   0.280 -1.2246  0.9770 -2.4875
  312MOL0     H42060  10.384   0.357   0.137 -0.1898  0.4776  0.6993
  312MOL0     H42061  10.312   0.124   0.253 -0.6302  0.4681 -0.7766
  312MOL0     H42062  10.243   0.233   0.371  3.2767  2.6810  0.7296
  312MOL0     H42063  10.083   0.143   0.209 -1.7782  0.9052 -0.1518
  312MOL0     H42064  10.085   0.316   0.204  0.5082  0.8184  1.0967
  312MOL0     H42065  10.263   0.275  -0.010 -0.5972  1.5349  0.9766
  312MOL0     H42066  10.211   0.108   0.022 -1.3120  0.3453  0.2886
  312MOL0     H42067   9.961   0.250  -0.009 -1.4546  2.1202 -0.7384
  312MOL0     H42068  10.077   0.346  -0.095 -1.0403  0.4436 -0.2181
  312MOL0     H42069  10.005   0.051  -0.182 -3.9701  0.6221 -0.4803
  312MOL0     H42070  10.126   0.156  -0.243 -1.1683 -1.3048 -0.6973
  312MOL0     H42071   9.724   0.181  -0.191 -0.2597  0.7983  1.3938
  312MOL0     H42072   9.562   0.308  -0.412 -0.2594  0.7728  0.0359
  312MOL0     H42073   9.568   0.404  -0.259  0.2802 -1.4425  0.9855
  312MOL0     H42074   9.652   0.523  -0.534 -0.6558  2.3239 -1.1247
  312MOL0     H42075   9.673   0.597  -0.375 -0.6951  0.5766 -0.1332
  312MOL0     H42076   9.416   0.553  -0.535 -0.8829  1.9729 -0.5467
  312MOL0     H42077   9.482   0.698  -0.470  1.8694 -0.2602  1.8093
  312MOL0     H42078   9.327   0.684  -0.326 -0.9612 -1.4570 -3.4782
  312MOL0     H42079   9.461   0.600  -0.237  1.4274  0.0928 -0.9126
  312MOL0     H42080   9.329   0.306  -0.467 -1.4470 -0.5726  2.0335
  312MOL0     H42081   9.247   0.156  -0.623  1.0813  0.9385 -0.1429
  312MOL0     H42082   9.074   0.144  -0.672  1.0999 -1.7986 -0.7280
  312MOL0     H42083   9.188   0.224  -0.773  2.0804 -4.5987 -0.3867
  312MOL0     H42084   8.601   0.229  -0.603  0.8969  0.6149  0.1802
  312MOL0     H42085   8.374   0.214  -0.729 -0.1844  0.7844  0.6347
  312MOL0     H42086   8.264   0.189  -0.975  1.8660  0.3518 -0.1509
  312MOL0     H42087   8.154   0.257  -0.843  1.2505  0.4201  1.0161
  312MOL0     H42088   8.058   0.234  -1.080 -1.3285  0.5330  0.8107
  312MOL0     H42089   8.051   0.394  -1.004  1.4210  0.9566 -1.3120
  312MOL0     H42090   8.244   0.479  -1.147  0.5769  0.1474  1.6319
  312MOL0     H42091   8.101   0.399  -1.237 -0.1254  0.3264  0.1393
  312MOL0     H42092   8.373   0.285  -1.179 -1.4533  3.1138  4.1350
  312MOL0     H42093   8.236   0.191  -1.238 -0.0945  0.2888 -1.6609
  312MOL0     H42094   8.320   0.429  -1.398 -1.0874  0.5178 -2.8015
  312MOL0     H42095   8.210   0.312  -1.449  1.0646  1.6853 -2.8820
  312MOL0     H42096   8.432   0.276  -1.554  0.3931  0.7656 -0.4761
  312MOL0     H42097   8.505   0.306  -1.393  0.9073 -2.1060  0.8346
  312MOL0     H42098   8.349   0.062  -1.504  1.2765  2.3749 -2.3224
  312MOL0     H42099   8.395   0.084  -1.331  0.6731 -0.2439 -0.0990
  312MOL0     H42100   8.641   0.100  -1.423 -0.8093  1.4616  0.2976
  312MOL0     H42101   8.577   0.068  -1.591  1.4715  0.1195  0.0436
  312MOL0     H42102   8.491   0.561  -0.948  2.6592 -0.0077 -0.0814
  312MOL0     H42103   8.696   0.570  -0.829 -2.1061  2.3761 -0.0775
  312MOL0     H42104   8.887   0.537  -0.478 -0.7832 -1.0501  1.6687
  312MOL0     H42105   9.069   0.602  -0.320  1.8674  1.4486 -1.5758
  312MOL0     H42106  10.891   0.470   0.541 -0.5538 -0.6320 -0.4627
  312MOL0     H42107  11.072   0.646   0.550  0.2206  1.7555  0.6540
  312MOL0     H42108  11.358   0.853   0.506 -1.6623 -1.0855 -3.8143
  312MOL0     H42109  11.522   0.971   0.604  0.9270  0.0462 -0.3407
  312MOL0     H42110  11.765   1.240   0.584 -1.7947  1.9110 -0.4716
  312MOL0     H42111  11.702   1.079   0.555 -2.5196 -0.5770  0.3072
  312MOL0     H42112  11.607   1.197   0.331 -1.4198  0.0875  2.2832
  312MOL0     H42113  11.770   1.137   0.334 -1.7647 -0.4326 -5.2289
  312MOL0     H42114  11.839   1.397   0.373 -0.5332 -0.6986 -0.6133
  312MOL0     H42115  11.669   1.432   0.380  1.5040  2.8344  0.0669
  312MOL0     H42116  11.685   1.472   0.168 -0.0721  0.6085  2.3464
  312MOL0     H42117  11.678   1.294   0.143 -0.2558  0.1269  0.0603
  312MOL0     H42118  12.060   1.382   0.003  0.4210  0.0005  1.4198
  312MOL0     H42119  11.378   1.341   0.448 -0.8799 -0.4582  2.1868
  312MOL0     H42120  11.186   1.222   0.334  0.5395 -0.8854 -1.8906
  313MOL0     O42121   7.076   4.372   6.108  0.5109  0.2771 -0.4846
  313MOL0     C42122   7.178   4.434   6.096 -1.1466  0.0786 -0.0341
  313MOL0     O42123   7.191   4.566   6.106 -0.0246 -0.6523  0.9318
  313MOL0     C42124   7.110   4.641   6.185  0.2219 -0.1983 -1.0084
  313MOL0     C42125   7.108   4.776   6.152  0.0023  0.6802  0.0468
  313MOL0     C42126   7.026   4.857   6.224  0.4531 -0.3420  0.1929
  313MOL0     C42127   6.950   4.812   6.333  0.2974 -1.0865  0.4827
  313MOL0     O42128   6.866   4.891   6.413 -0.9355  0.7583 -1.0482
  313MOL0     C42129   6.879   5.037   6.402 -0.4879  0.4822 -0.2553
  313MOL0     C42130   6.791   5.102   6.297  0.7910 -0.7624  0.8534
  313MOL0     C42131   6.648   5.110   6.344 -0.2955  0.8383  0.0386
  313MOL0     C42132   6.575   5.204   6.255  0.1673 -0.6821 -0.3717
  313MOL0     C42133   6.430   5.211   6.298 -0.7986  0.0151 -0.5750
  313MOL0     C42134   6.369   5.324   6.224 -0.4769  0.3600  0.5649
  313MOL0     C42135   6.215   5.310   6.231 -1.2294 -0.5807 -0.7170
  313MOL0     C42136   6.149   5.427   6.151  0.3007 -0.7050 -0.2400
  313MOL0     N42137   6.140   5.550   6.225 -0.1909 -0.0166 -0.2943
  313MOL0     C42138   6.036   5.597   6.307  0.2316 -0.3001  0.3127
  313MOL0     C42139   6.068   5.720   6.341  0.2310  0.3344  0.4101
  313MOL0     C42140   5.979   5.810   6.419 -0.2031 -0.5773  0.1322
  313MOL0     C42141   5.957   5.778   6.564 -0.2247  1.1058  0.0838
  313MOL0     C42142   5.864   5.875   6.634 -0.2363 -0.0672  0.7252
  313MOL0     C42143   5.729   5.902   6.568  0.4331 -0.5256 -0.2808
  313MOL0     O42144   5.634   5.949   6.667  0.1888  0.2443 -0.0384
  313MOL0     C42145   5.507   5.945   6.638  0.2275  0.6858  0.3943
  313MOL0     C42146   5.427   6.003   6.742 -0.0181  0.7430  0.2308
  313MOL0     C42147   5.291   5.998   6.738  0.8548 -0.0708  0.3077
  313MOL0     C42148   5.222   6.052   6.864  0.2329  0.1165 -0.3947
  313MOL0     C42149   5.219   5.951   6.628  1.0135  0.2956 -0.2245
  313MOL0     C42150   5.073   5.977   6.597  0.3426 -1.1790 -0.1009
  313MOL0     O42151   5.003   6.066   6.680 -0.6407  0.2525  0.4350
  313MOL0     C42152   4.866   6.091   6.681  0.0032  0.7290  0.3532
  313MOL0     C42153   4.765   6.015   6.605  0.1350 -0.3490 -0.2473
  313MOL0     C42154   4.627   6.037   6.632  0.0030 -0.0182 -0.1661
  313MOL0     C42155   4.586   6.131   6.727 -0.1511  0.7165  0.0225
  313MOL0     O42156   4.455   6.151   6.755  0.4926 -0.0353  0.2730
  313MOL0     C42157   4.374   6.029   6.754  0.3939 -0.8880  0.0292
  313MOL0     C42158   4.240   6.062   6.810 -0.9692  0.1062  0.7634
  313MOL0     C42159   4.157   5.937   6.809  0.2869  1.0307 -0.1581
  313MOL0     C42160   4.177   5.850   6.939 -0.3452 -0.5265  0.3664
  313MOL0     C42161   4.133   5.711   6.926  0.1928  0.4173 -0.5176
  313MOL0     C42162   3.979   5.700   6.911  0.2903  0.3709 -0.5293
  313MOL0     C42163   3.892   5.748   7.021 -0.4786 -0.0679 -0.8031
  313MOL0     C42164   3.740   5.728   6.992 -0.1154  0.3156 -0.4071
  313MOL0    Cl42165   3.684   5.567   7.057 -0.5109 -0.1671 -0.4029
  313MOL0     C42166   4.685   6.201   6.799  0.2149 -0.0083  0.3850
  313MOL0     C42167   4.819   6.189   6.774 -0.0579  1.4927  0.3298
  313MOL0     O42168   5.023   5.919   6.499 -0.1603 -0.0657 -0.9352
  313MOL0     C42169   5.302   5.907   6.515 -0.5067  1.0687 -0.1866
  313MOL0     C42170   5.443   5.896   6.525 -0.4368 -1.1317  0.2791
  313MOL0     N42171   6.190   5.753   6.285  0.2432  0.4583  0.2651
  313MOL0     N42172   6.237   5.649   6.231  0.2073  0.2818  0.4156
  313MOL0     C42173   6.952   4.679   6.365 -0.3898  0.3043 -0.3289
  313MOL0     C42174   7.027   4.593   6.291 -0.5837  0.3452  0.0414
  313MOL0     C42175   7.302   4.364   6.064  0.1787  0.8636 -0.0742
  313MOL0     C42176   7.415   4.447   6.022  0.2807  0.9683 -0.0283
  313MOL0     C42177   7.537   4.379   6.000  0.8433  0.1189  0.9244
  313MOL0     C42178   7.553   4.241   6.016  0.0864 -0.1050  0.7996
  313MOL0     O42179   7.677   4.183   5.991  0.0204  0.6405 -0.4177
  313MOL0     C42180   7.737   4.140   6.111 -0.3551 -0.0041 -0.7496
  313MOL0     C42181   7.783   4.261   6.201  0.3778  0.1630 -0.4908
  313MOL0     C42182   7.899   4.337   6.143  0.7004 -0.4168  0.5939
  313MOL0     C42183   7.963   4.430   6.245  0.0288  0.2156 -0.1638
  313MOL0     C42184   8.027   4.351   6.344 -0.4446 -0.6551 -1.1920
  313MOL0     C42185   8.074   4.305   6.449 -0.3502 -1.0107 -0.5852
  313MOL0     C42186   7.441   4.162   6.051  0.4746 -0.2471 -0.2759
  313MOL0     C42187   7.318   4.225   6.076 -0.0676  0.9414 -0.2570
  313MOL0     H42188   7.180   4.805   6.077 -0.9593  0.4147 -1.0103
  313MOL0     H42189   7.017   4.960   6.192 -1.1952  0.3031  2.4294
  313MOL0     H42190   6.840   5.067   6.500  2.3287  0.4184  0.9813
  313MOL0     H42191   6.983   5.072   6.404 -0.1384 -0.3896 -1.8341
  313MOL0     H42192   6.830   5.203   6.284  0.2457 -0.7156 -0.6949
  313MOL0     H42193   6.794   5.057   6.197  2.4767  1.4549 -0.1924
  313MOL0     H42194   6.594   5.015   6.347 -0.5627  1.0068  0.7837
  313MOL0     H42195   6.639   5.141   6.448 -3.0455 -2.0620  0.8121
  313MOL0     H42196   6.623   5.301   6.269  0.5962 -1.2760  2.9128
  313MOL0     H42197   6.576   5.175   6.149  1.5820 -0.3987 -0.4514
  313MOL0     H42198   6.386   5.121   6.254 -0.6999 -0.9610  1.2477
  313MOL0     H42199   6.410   5.208   6.405 -0.7997  2.5075 -0.4519
  313MOL0     H42200   6.401   5.419   6.267  1.8273 -0.8406  1.7176
  313MOL0     H42201   6.391   5.316   6.117 -0.0938  0.7536  0.6117
  313MOL0     H42202   6.201   5.211   6.186  3.8209 -0.9457 -2.0126
  313MOL0     H42203   6.190   5.315   6.337  1.9089  1.4467  0.0395
  313MOL0     H42204   6.047   5.394   6.128 -0.3587  0.0824  1.4031
  313MOL0     H42205   6.194   5.442   6.053  0.1928 -1.8032 -0.4734
  313MOL0     H42206   5.944   5.545   6.330  1.4442 -1.7981  2.0642
  313MOL0     H42207   6.028   5.907   6.408 -0.6157 -0.2866  0.7946
  313MOL0     H42208   5.883   5.817   6.366 -1.0482  0.1735  1.7018
  313MOL0     H42209   6.057   5.771   6.607  1.4412 -0.5698 -3.6205
  313MOL0     H42210   5.913   5.678   6.575 -0.2284  1.2178  1.2296
  313MOL0     H42211   5.918   5.970   6.646  0.2564  0.1619 -2.4319
  313MOL0     H42212   5.856   5.832   6.734  0.4064 -1.8342  0.0592
  313MOL0     H42213   5.697   5.808   6.521 -0.7066  0.1527 -0.8976
  313MOL0     H42214   5.734   5.974   6.486 -0.6278  1.0176  0.9613
  313MOL0     H42215   5.483   6.050   6.822  0.3673 -0.6415  0.8161
  313MOL0     H42216   5.127   6.001   6.880  0.3936 -0.1144 -0.1600
  313MOL0     H42217   5.283   6.035   6.954 -0.6932  1.9509  0.6319
  313MOL0     H42218   5.199   6.157   6.848 -0.1562 -0.1802 -1.8615
  313MOL0     H42219   4.792   5.933   6.539  1.2004  2.0146 -2.9110
  313MOL0     H42220   4.564   5.966   6.579 -0.4920 -0.9372  1.5850
  313MOL0     H42221   4.361   6.019   6.645  1.6696  0.9889 -0.3484
  313MOL0     H42222   4.419   5.948   6.810 -1.0415 -0.7013  1.5256
  313MOL0     H42223   4.255   6.096   6.913 -1.5635  1.2812  0.4784
  313MOL0     H42224   4.195   6.145   6.755 -0.9737  0.6858  1.6346
  313MOL0     H42225   4.173   5.883   6.715  0.0763 -0.4522  0.6313
  313MOL0     H42226   4.049   5.953   6.806  0.0230 -0.7343 -2.3096
  313MOL0     H42227   4.277   5.865   6.979 -1.0412  0.6172  1.7455
  313MOL0     H42228   4.115   5.904   7.011  0.3212 -3.1606  3.1198
  313MOL0     H42229   4.164   5.647   7.009 -1.8630 -2.2062 -1.6114
  313MOL0     H42230   4.177   5.672   6.834 -4.2044  0.7157 -3.0284
  313MOL0     H42231   3.952   5.752   6.819 -1.8679 -0.9062 -0.6724
  313MOL0     H42232   3.943   5.598   6.897 -1.2272  0.8407 -0.2658
  313MOL0     H42233   3.908   5.855   7.036 -0.8099  0.5076 -3.9674
  313MOL0     H42234   3.927   5.681   7.100  0.3651 -0.8018 -1.7702
  313MOL0     H42235   3.714   5.737   6.886 -0.4077  2.1835 -0.2049
  313MOL0     H42236   3.690   5.809   7.046  1.1228 -0.0416  1.3692
  313MOL0     H42237   4.653   6.273   6.874 -1.0945  0.4582 -0.5899
  313MOL0     H42238   4.895   6.240   6.833  3.1627  0.2539 -2.4470
  313MOL0     H42239   5.245   5.870   6.431 -1.4820 -0.0077  0.9098
  313MOL0     H42240   5.492   5.854   6.438 -0.1141  2.1420 -1.2848
  313MOL0     H42241   6.886   4.639   6.442  3.0045 -1.9323  1.7043
  313MOL0     H42242   7.022   4.485   6.305 -2.3014  0.2205 -1.2430
  313MOL0     H42243   7.418   4.555   6.019 -0.1585  0.9909  0.2433
  313MOL0     H42244   7.621   4.432   5.957 -2.3136  2.9003 -2.5453
  313MOL0     H42245   7.681   4.070   6.175  1.1841  0.2821  1.0012
  313MOL0     H42246   7.820   4.077   6.079 -0.1587  1.4883 -3.4031
  313MOL0     H42247   7.805   4.216   6.298 -0.2470  2.9906  1.0596
  313MOL0     H42248   7.695   4.324   6.214 -1.9487 -2.7672 -1.0709
  313MOL0     H42249   7.874   4.392   6.052  2.3039  1.9520  1.4809
  313MOL0     H42250   7.983   4.270   6.117  0.1674 -2.0142  2.7414
  313MOL0     H42251   7.883   4.485   6.296  0.1437  1.5452 -1.3604
  313MOL0     H42252   8.029   4.503   6.199 -0.1816 -0.9856 -2.5244
  313MOL0     H42253   8.124   4.274   6.538  2.1075 -0.9529 -1.8811
  313MOL0     H42254   7.441   4.055   6.071 -2.7514 -0.3155 -0.1797
  313MOL0     H42255   7.231   4.168   6.108 -0.0562  1.5860  0.9668
  314MOL0     O42256   3.896   8.695   6.715  0.3103 -0.3199 -0.5867
  314MOL0     C42257   3.829   8.692   6.820  0.4301  0.8347 -0.0957
  314MOL0     O42258   3.692   8.661   6.825 -0.1410 -0.1439 -0.6441
  314MOL0     C42259   3.626   8.606   6.715  0.0934 -0.1781  0.6170
  314MOL0     C42260   3.678   8.491   6.643  0.6495 -0.5210  0.0520
  314MOL0     C42261   3.615   8.447   6.531 -1.3343  0.6238  0.4068
  314MOL0     C42262   3.510   8.518   6.481 -0.2490  0.0451  0.0558
  314MOL0     O42263   3.461   8.453   6.375 -0.3509 -0.4583  0.0392
  314MOL0     C42264   3.368   8.516   6.289  0.6067 -0.8634  0.9302
  314MOL0     C42265   3.277   8.414   6.235 -0.3779 -0.1074  0.2687
  314MOL0     C42266   3.208   8.474   6.111  0.5659 -0.4420 -0.4537
  314MOL0     C42267   3.097   8.377   6.062 -0.2292 -0.4466 -0.0588
  314MOL0     C42268   2.998   8.448   5.960 -0.1230 -1.0016  0.3401
  314MOL0     C42269   3.023   8.423   5.809 -0.9898 -0.3186  0.3964
  314MOL0     C42270   2.920   8.487   5.719 -0.0229  1.1161 -0.0891
  314MOL0     C42271   2.919   8.640   5.712  0.3072  0.8320 -0.1423
  314MOL0     N42272   2.813   8.702   5.641  0.0012 -0.0050  0.3822
  314MOL0     C42273   2.816   8.828   5.580  0.6039  0.1249  0.4525
  314MOL0     C42274   2.702   8.835   5.508 -0.6922 -0.1799  0.4571
  314MOL0     C42275   2.656   8.962   5.434  0.6209 -0.0221  0.0368
  314MOL0     C42276   2.561   9.055   5.514 -0.3734 -0.5537  0.3623
  314MOL0     C42277   2.519   9.175   5.423  0.0768  0.4307  0.3956
  314MOL0     C42278   2.403   9.250   5.482 -0.5821  0.0896  0.3387
  314MOL0     O42279   2.299   9.173   5.543 -0.0529 -0.2195  0.9608
  314MOL0     C42280   2.183   9.233   5.569 -0.0346  0.1396 -0.4398
  314MOL0     C42281   2.161   9.372   5.587  0.9002 -0.1031  0.6245
  314MOL0     C42282   2.044   9.427   5.617 -0.1419  0.3212  0.4281
  314MOL0     C42283   2.050   9.575   5.656 -0.7407  0.1531  0.1457
  314MOL0     C42284   1.925   9.342   5.607 -0.2395 -0.0647  0.1091
  314MOL0     C42285   1.794   9.390   5.635  0.4199 -0.4912 -0.2360
  314MOL0     O42286   1.708   9.308   5.697  0.4265  0.1318 -0.1235
  314MOL0     C42287   1.573   9.315   5.678  0.5939 -0.9349  0.7152
  314MOL0     C42288   1.491   9.332   5.786 -0.0582  0.5165 -0.1949
  314MOL0     C42289   1.352   9.344   5.774  0.8248  0.9277 -0.0315
  314MOL0     C42290   1.290   9.331   5.646 -0.1616  0.6163 -0.7857
  314MOL0     O42291   1.157   9.357   5.635 -0.0635 -0.7074 -0.0926
  314MOL0     C42292   1.094   9.236   5.662  0.4013  0.4535 -0.4752
  314MOL0     C42293   0.964   9.263   5.728  0.5932  0.3732  0.0797
  314MOL0     C42294   0.861   9.349   5.651 -0.4558 -0.1951  0.2719
  314MOL0     C42295   0.774   9.266   5.553  0.6323 -0.2358  0.6927
  314MOL0     C42296   0.695   9.370   5.465 -0.3459  0.4564 -0.4797
  314MOL0     C42297   0.592   9.326   5.364 -1.1122  0.4773 -0.3784
  314MOL0     C42298   0.502   9.428   5.292 -0.6410 -0.3563 -0.7285
  314MOL0     C42299   0.388   9.362   5.229 -0.5369  0.1831 -0.1686
  314MOL0    Cl42300   0.442   9.239   5.115  0.0830  0.0591  0.3970
  314MOL0     C42301   1.375   9.300   5.539 -0.5373 -0.9201  0.5693
  314MOL0     C42302   1.511   9.297   5.555  0.0714  0.4354 -0.7794
  314MOL0     O42303   1.760   9.502   5.601  0.2835 -0.2802 -0.6661
  314MOL0     C42304   1.947   9.204   5.601  0.3830 -0.2801 -0.0749
  314MOL0     C42305   2.072   9.150   5.584 -0.4183  0.3169  0.4740
  314MOL0     N42306   2.624   8.721   5.542 -0.7184  0.1806 -0.2946
  314MOL0     N42307   2.690   8.633   5.618  0.3784  0.4715  0.3853
  314MOL0     C42308   3.465   8.637   6.544 -0.2729  0.1381  0.0674
  314MOL0     C42309   3.521   8.682   6.668 -0.5584 -0.6211  0.5625
  314MOL0     C42310   3.896   8.739   6.942 -0.1850  0.3807  0.6376
  314MOL0     C42311   3.857   8.698   7.064  0.5162 -0.2070  0.0669
  314MOL0     C42312   3.929   8.715   7.185  0.4878 -0.4833  1.5785
  314MOL0     C42313   4.042   8.785   7.178 -0.0841 -0.8487 -0.3676
  314MOL0     O42314   4.106   8.800   7.298  0.6681 -0.3362  0.0781
  314MOL0     C42315   4.241   8.858   7.289  0.7450 -0.0430 -0.5902
  314MOL0     C42316   4.294   8.870   7.428  0.1356  0.0656 -0.0683
  314MOL0     C42317   4.396   8.985   7.428  0.4751 -0.0330 -0.0513
  314MOL0     C42318   4.424   9.041   7.567 -0.0804  0.3489  0.8889
  314MOL0     C42319   4.544   9.126   7.578  0.9162  0.6693  0.5277
  314MOL0     C42320   4.649   9.184   7.600 -0.4515  0.8546  0.0063
  314MOL0     C42321   4.090   8.832   7.044 -0.3137  0.5618 -0.0097
  314MOL0     C42322   4.012   8.805   6.932 -1.5648 -0.4088 -0.6291
  314MOL0     H42323   3.763   8.437   6.684  0.9018  0.8989  1.5016
  314MOL0     H42324   3.654   8.364   6.473 -0.0604  0.5571  1.3248
  314MOL0     H42325   3.308   8.591   6.340  2.5852  1.0592  0.5819
  314MOL0     H42326   3.421   8.573   6.213  0.4555  1.7597  2.6694
  314MOL0     H42327   3.327   8.321   6.206  0.7347  0.5826 -0.0749
  314MOL0     H42328   3.204   8.392   6.314  0.3410 -0.4797  0.8442
  314MOL0     H42329   3.180   8.577   6.134  1.6090 -0.4369  0.8959
  314MOL0     H42330   3.280   8.485   6.030  0.9131  2.6248  0.1614
  314MOL0     H42331   3.128   8.282   6.018 -1.4386 -0.7064 -0.3990
  314MOL0     H42332   3.034   8.345   6.146 -0.5323 -2.8187 -1.0987
  314MOL0     H42333   2.896   8.416   5.984 -1.6601  2.7470 -0.4574
  314MOL0     H42334   3.006   8.555   5.983 -3.5132 -1.0271  2.2053
  314MOL0     H42335   3.124   8.444   5.773 -2.0279 -0.4892 -2.9397
  314MOL0     H42336   3.019   8.316   5.787 -2.1207  0.0102 -1.1830
  314MOL0     H42337   2.938   8.456   5.616 -1.9576  1.8960 -0.7186
  314MOL0     H42338   2.825   8.437   5.743 -0.3238  1.6669 -0.1142
  314MOL0     H42339   3.014   8.669   5.666 -0.4122  0.4485 -1.9578
  314MOL0     H42340   2.908   8.681   5.813 -2.5017 -0.0624  0.0162
  314MOL0     H42341   2.882   8.914   5.584  0.3211  0.3504  0.2792
  314MOL0     H42342   2.735   9.025   5.394 -0.3968 -0.6180 -3.1793
  314MOL0     H42343   2.609   8.915   5.347  1.1678 -0.6712  0.0884
  314MOL0     H42344   2.609   9.084   5.608  0.4069  0.7695 -0.4165
  314MOL0     H42345   2.478   8.998   5.556 -0.7366  0.3683  0.9278
  314MOL0     H42346   2.493   9.145   5.322 -1.6148 -0.6776  1.1247
  314MOL0     H42347   2.609   9.231   5.397  2.6227 -2.4359  2.2508
  314MOL0     H42348   2.369   9.319   5.404  1.8222 -0.8718 -1.6813
  314MOL0     H42349   2.435   9.310   5.568  1.6632  1.6730 -1.4559
  314MOL0     H42350   2.247   9.438   5.585  0.8973 -0.0307  1.7945
  314MOL0     H42351   1.985   9.632   5.589 -0.3131  2.8458  1.8953
  314MOL0     H42352   2.028   9.581   5.763 -1.9783 -0.6301 -0.0407
  314MOL0     H42353   2.147   9.619   5.632  0.1255 -1.3541  0.7377
  314MOL0     H42354   1.535   9.359   5.881 -1.3821  0.6118  0.4206
  314MOL0     H42355   1.309   9.351   5.874  0.7024 -3.7801  0.4676
  314MOL0     H42356   1.068   9.193   5.565 -1.0980  1.3188 -0.4861
  314MOL0     H42357   1.146   9.165   5.727  0.3428  0.9098  0.0747
  314MOL0     H42358   0.919   9.165   5.747 -0.7003  0.0317 -3.8047
  314MOL0     H42359   0.985   9.316   5.821 -2.2226 -0.5779  1.3842
  314MOL0     H42360   0.910   9.426   5.592 -0.5373  0.1619  0.6639
  314MOL0     H42361   0.795   9.397   5.724  1.2676 -0.2066  1.9155
  314MOL0     H42362   0.831   9.196   5.492  0.0746  2.5040 -3.3218
  314MOL0     H42363   0.695   9.212   5.607 -2.0098  0.9596 -1.7272
  314MOL0     H42364   0.765   9.439   5.417 -3.5540  4.7221  0.4357
  314MOL0     H42365   0.647   9.445   5.528 -0.3247  2.0113 -2.2175
  314MOL0     H42366   0.640   9.271   5.283 -0.4744 -0.9122  0.8943
  314MOL0     H42367   0.523   9.260   5.419 -0.7244  0.2693 -0.1401
  314MOL0     H42368   0.562   9.488   5.223 -0.9208  1.0691  0.2207
  314MOL0     H42369   0.473   9.505   5.365  4.2216  1.3352 -0.2380
  314MOL0     H42370   0.328   9.429   5.167 -2.0279  0.1657  1.1907
  314MOL0     H42371   0.328   9.320   5.310  2.1191 -2.0820  0.7881
  314MOL0     H42372   1.335   9.289   5.439 -1.8224  0.4356  0.8977
  314MOL0     H42373   1.558   9.256   5.466 -1.0340 -0.8498 -0.7959
  314MOL0     H42374   1.858   9.143   5.614 -1.2936  2.3537  1.7293
  314MOL0     H42375   2.100   9.045   5.585  2.5491  0.9243 -1.8881
  314MOL0     H42376   3.382   8.698   6.511  0.5811  0.5316 -1.4182
  314MOL0     H42377   3.469   8.757   6.726 -3.8198 -0.7401 -1.9191
  314MOL0     H42378   3.756   8.660   7.070 -0.3087  2.0258  1.5541
  314MOL0     H42379   3.892   8.676   7.280 -0.8879  0.3376  1.4098
  314MOL0     H42380   4.309   8.790   7.238  2.1310 -1.8652  3.2788
  314MOL0     H42381   4.235   8.956   7.241 -0.1020  0.7954  1.0974
  314MOL0     H42382   4.337   8.775   7.459  1.3254  0.2098 -1.1771
  314MOL0     H42383   4.216   8.901   7.498 -2.7101 -2.4097 -1.9266
  314MOL0     H42384   4.363   9.070   7.367  2.8028  1.0577  0.0815
  314MOL0     H42385   4.493   8.951   7.390  0.1835 -1.3333  0.3288
  314MOL0     H42386   4.429   8.959   7.640  1.4378 -0.3733  0.0282
  314MOL0     H42387   4.341   9.111   7.582 -0.6907 -0.2488  0.3473
  314MOL0     H42388   4.742   9.232   7.621 -0.7403  1.4745 -0.1085
  314MOL0     H42389   4.188   8.877   7.038 -0.2385  0.5495  0.9899
  314MOL0     H42390   4.054   8.837   6.837  0.6577 -0.0260  0.4482
  315MOL0     O42391   9.348   0.143   6.628 -0.1695  0.6056  0.3483
  315MOL0     C42392   9.462   0.133   6.683  0.1598  0.2815 -0.0666
  315MOL0     O42393   9.513   0.227   6.766  0.0201 -0.0254 -0.1357
  315MOL0     C42394   9.424   0.326   6.814  0.1240 -0.8959  0.5340
  315MOL0     C42395   9.365   0.410   6.727  0.2485 -1.2919 -0.7345
  315MOL0     C42396   9.272   0.504   6.770  0.7700  0.1227 -0.2206
  315MOL0     C42397   9.234   0.508   6.909  0.0517  0.5710  0.3722
  315MOL0     O42398   9.140   0.600   6.964 -0.1429 -0.0676 -0.4430
  315MOL0     C42399   9.131   0.735   6.917 -0.4679 -0.5820  0.4061
  315MOL0     C42400   9.017   0.755   6.824 -0.0851 -0.1575 -0.4069
  315MOL0     C42401   8.878   0.753   6.905  0.0180 -0.0835 -0.4116
  315MOL0     C42402   8.771   0.750   6.800  0.6206 -0.6497 -0.6082
  315MOL0     C42403   8.626   0.779   6.867 -0.8487 -0.9141  0.4846
  315MOL0     C42404   8.577   0.672   6.959 -0.1654  0.3985 -0.4368
  315MOL0     C42405   8.421   0.667   6.955  0.0395  0.3221  0.0902
  315MOL0     C42406   8.366   0.549   7.038 -0.4600  0.2007 -0.8737
  315MOL0     N42407   8.215   0.533   7.063 -0.5127  0.1605  0.4487
  315MOL0     C42408   8.119   0.632   7.040 -0.4156  0.6455 -0.1469
  315MOL0     C42409   8.003   0.561   7.033  0.0359  0.4619  0.6642
  315MOL0     C42410   7.861   0.613   7.053 -0.4603  0.0274  0.8668
  315MOL0     C42411   7.829   0.710   6.947 -0.2287  0.1054  1.2419
  315MOL0     C42412   7.675   0.720   6.907 -0.4503 -0.8492  1.1078
  315MOL0     C42413   7.575   0.725   7.016  0.2546 -0.0136 -1.0776
  315MOL0     O42414   7.446   0.771   6.978  1.2353  0.4195  0.0198
  315MOL0     C42415   7.348   0.797   7.072 -0.2137 -0.5419  0.7459
  315MOL0     C42416   7.254   0.885   7.030 -0.0534  0.3105 -0.9058
  315MOL0     C42417   7.138   0.908   7.111  0.2640  0.5345 -0.2582
  315MOL0     C42418   7.040   1.004   7.054 -0.2151  0.6292 -0.2485
  315MOL0     C42419   7.116   0.823   7.225 -0.1018  0.9833 -0.2532
  315MOL0     C42420   6.985   0.826   7.300  0.1845  1.1021  0.2195
  315MOL0     O42421   6.875   0.889   7.249  0.2627  0.3990  0.0585
  315MOL0     C42422   6.748   0.897   7.299 -0.6095 -0.6238  1.7391
  315MOL0     C42423   6.674   0.974   7.204  1.0007  0.6470  0.2748
  315MOL0     C42424   6.540   1.010   7.223 -0.4405 -0.5790 -0.8795
  315MOL0     C42425   6.485   0.977   7.344  0.1555  0.7324 -0.1286
  315MOL0     O42426   6.361   1.023   7.378 -0.1714 -0.1078  0.0596
  315MOL0     C42427   6.253   0.930   7.363  0.2211 -0.1804  0.2863
  315MOL0     C42428   6.121   1.002   7.388 -0.1674 -0.5809 -0.2291
  315MOL0     C42429   6.026   0.927   7.476  0.1398  0.0391 -0.8783
  315MOL0     C42430   5.919   1.013   7.542  0.5174 -0.4931  0.2205
  315MOL0     C42431   5.813   0.919   7.607 -0.9104  0.9360 -0.1679
  315MOL0     C42432   5.691   0.988   7.668  0.4951 -0.6072  0.4270
  315MOL0     C42433   5.576   0.881   7.679 -1.1612  0.9585 -0.0193
  315MOL0     C42434   5.441   0.950   7.675  0.7694 -0.3128 -0.8899
  315MOL0    Cl42435   5.322   0.826   7.700  0.0892  0.3621  0.3308
  315MOL0     C42436   6.549   0.894   7.429 -0.7070 -0.7575 -0.5140
  315MOL0     C42437   6.685   0.850   7.413 -0.7943 -0.7884 -0.3615
  315MOL0     O42438   6.983   0.753   7.396 -0.1093  0.2799 -0.1560
  315MOL0     C42439   7.222   0.747   7.270  0.2008 -0.7828 -0.2285
  315MOL0     C42440   7.338   0.731   7.191  1.0226  0.8320  0.1265
  315MOL0     N42441   8.029   0.427   7.044 -0.0113 -0.7469  0.0929
  315MOL0     N42442   8.154   0.410   7.062 -0.3886 -0.3140 -0.5462
  315MOL0     C42443   9.297   0.422   6.990 -0.1959 -0.8027 -0.2367
  315MOL0     C42444   9.394   0.333   6.947  0.8100  0.0897 -0.2338
  315MOL0     C42445   9.545   0.015   6.656 -0.5182 -0.5181 -0.0306
  315MOL0     C42446   9.497  -0.093   6.574 -0.5885 -0.5528 -0.3439
  315MOL0     C42447   9.580  -0.201   6.562 -0.1668  0.3979  0.7248
  315MOL0     C42448   9.706  -0.206   6.621  0.4755 -0.6766 -0.0225
  315MOL0     O42449   9.800  -0.302   6.614 -0.4767 -0.4292  0.2028
  315MOL0     C42450   9.771  -0.435   6.568  0.0392 -0.7605 -0.2632
  315MOL0     C42451   9.725  -0.519   6.683  1.1502  0.6172 -0.3788
  315MOL0     C42452   9.831  -0.546   6.790  0.0055 -0.4984 -0.5158
  315MOL0     C42453   9.761  -0.593   6.909  0.2247 -0.3002  0.8675
  315MOL0     C42454   9.852  -0.619   7.018 -0.9906  0.6297  1.2052
  315MOL0     C42455   9.917  -0.643   7.117  0.3640 -0.5706 -0.4668
  315MOL0     C42456   9.748  -0.092   6.698  0.7887  0.8868 -0.0701
  315MOL0     C42457   9.669   0.016   6.717 -1.2229  0.6195 -0.2087
  315MOL0     H42458   9.393   0.408   6.622  2.1098 -0.9250 -0.2831
  315MOL0     H42459   9.231   0.572   6.696  0.9277 -1.2165 -1.5668
  315MOL0     H42460   9.122   0.806   7.000  3.4354  0.8778 -0.1823
  315MOL0     H42461   9.223   0.765   6.865  0.2589 -2.3182  0.5922
  315MOL0     H42462   9.029   0.850   6.771  0.4566  0.3650  0.6292
  315MOL0     H42463   9.016   0.667   6.759 -2.7116 -1.1975  0.9145
  315MOL0     H42464   8.864   0.671   6.976 -2.0915 -0.2307 -0.9366
  315MOL0     H42465   8.873   0.844   6.965 -0.7036 -0.2243 -0.2488
  315MOL0     H42466   8.784   0.834   6.732 -1.0622  0.0658 -0.1188
  315MOL0     H42467   8.780   0.654   6.749 -1.6020 -1.0820 -0.3248
  315MOL0     H42468   8.617   0.881   6.908 -2.9225 -1.0916  0.5588
  315MOL0     H42469   8.562   0.777   6.779 -0.4712 -1.9901  0.2214
  315MOL0     H42470   8.609   0.574   6.920 -1.0467  0.2597 -0.8346
  315MOL0     H42471   8.614   0.683   7.061  0.4148 -4.7644  0.1780
  315MOL0     H42472   8.387   0.763   6.993 -0.4082  0.5855 -0.9386
  315MOL0     H42473   8.388   0.668   6.851 -1.4386  0.3523  0.5364
  315MOL0     H42474   8.399   0.576   7.139 -3.5792  1.0461  0.0509
  315MOL0     H42475   8.407   0.452   7.006  0.9768 -0.6034  2.8968
  315MOL0     H42476   8.149   0.735   7.054  1.5781  0.9442 -4.7440
  315MOL0     H42477   7.794   0.526   7.050 -0.1943 -0.1644  0.3029
  315MOL0     H42478   7.861   0.663   7.151  1.4553 -3.3894  2.8493
  315MOL0     H42479   7.887   0.679   6.860  1.5794 -0.9706  2.7372
  315MOL0     H42480   7.869   0.808   6.979 -3.0155  1.2761  1.3926
  315MOL0     H42481   7.643   0.641   6.838 -0.6446  0.9295 -0.9399
  315MOL0     H42482   7.663   0.803   6.836 -0.0671 -2.1460 -0.5273
  315MOL0     H42483   7.606   0.801   7.088 -0.3475 -2.0330  1.4826
  315MOL0     H42484   7.568   0.624   7.058  0.6983 -0.0247 -1.0363
  315MOL0     H42485   7.260   0.934   6.934  0.6547 -0.1764 -1.1196
  315MOL0     H42486   6.993   1.069   7.128 -0.6259 -0.1084  0.1491
  315MOL0     H42487   7.093   1.069   6.983  1.8157 -1.3801 -0.6871
  315MOL0     H42488   6.962   0.946   7.004  0.7857  2.1004 -3.8404
  315MOL0     H42489   6.717   0.988   7.106  0.7467 -1.8789 -0.2691
  315MOL0     H42490   6.485   1.060   7.144 -0.4537 -0.3640 -0.7346
  315MOL0     H42491   6.255   0.897   7.259 -1.6814 -0.1774  0.2039
  315MOL0     H42492   6.249   0.837   7.421  0.7678 -0.9594 -0.8839
  315MOL0     H42493   6.134   1.101   7.433  0.7962 -1.2488  1.0301
  315MOL0     H42494   6.087   1.023   7.286 -0.2664 -0.1060 -0.1005
  315MOL0     H42495   6.080   0.875   7.555 -1.7814 -3.0651 -1.4508
  315MOL0     H42496   5.983   0.853   7.408 -0.0506 -0.2375 -0.4587
  315MOL0     H42497   5.960   1.080   7.618 -1.6617 -0.0154  1.0483
  315MOL0     H42498   5.858   1.072   7.472 -2.8260 -2.4316  1.2699
  315MOL0     H42499   5.865   0.855   7.679 -0.3344  2.4170  0.7866
  315MOL0     H42500   5.789   0.843   7.531 -0.9411  2.3190 -1.6001
  315MOL0     H42501   5.726   1.036   7.760  3.5821  0.0005 -0.9363
  315MOL0     H42502   5.658   1.072   7.607  1.7261  1.0486  1.9389
  315MOL0     H42503   5.574   0.821   7.770 -1.7028  0.5894 -0.2699
  315MOL0     H42504   5.578   0.812   7.595 -1.7408 -0.8883  1.4313
  315MOL0     H42505   5.429   1.001   7.579  1.3769  1.7957  0.0943
  315MOL0     H42506   5.436   1.019   7.760  0.6115 -1.7248  0.2775
  315MOL0     H42507   6.489   0.854   7.510 -0.6602  0.6681  0.2713
  315MOL0     H42508   6.738   0.797   7.491 -0.7773 -3.1177 -1.8585
  315MOL0     H42509   7.209   0.684   7.358  1.2203  0.5834  0.9354
  315MOL0     H42510   7.408   0.655   7.224  0.2188  0.4665  1.0532
  315MOL0     H42511   9.265   0.425   7.093  2.4007  0.2583  0.6133
  315MOL0     H42512   9.444   0.272   7.021  0.4139  2.6446  2.3054
  315MOL0     H42513   9.394  -0.088   6.541 -0.8156 -1.1925  0.2278
  315MOL0     H42514   9.537  -0.282   6.504  1.0573  0.2360  0.0216
  315MOL0     H42515   9.698  -0.440   6.487 -0.0986 -4.0414 -0.0646
  315MOL0     H42516   9.863  -0.479   6.528 -0.7211 -2.5544 -0.1470
  315MOL0     H42517   9.698  -0.614   6.636 -4.2005  1.2570  0.7866
  315MOL0     H42518   9.631  -0.475   6.715  0.3039 -1.4719  0.1365
  315MOL0     H42519   9.876  -0.448   6.810 -1.9260  0.0308  1.5913
  315MOL0     H42520   9.900  -0.617   6.742  0.0866 -0.8478  0.1147
  315MOL0     H42521   9.699  -0.681   6.886  1.7455 -1.3528  0.6441
  315MOL0     H42522   9.690  -0.517   6.945 -0.0891  1.1306 -2.4263
  315MOL0     H42523   9.986  -0.660   7.198  0.2831  0.7476 -0.0955
  315MOL0     H42524   9.848  -0.090   6.739  0.7232 -2.1254  0.4450
  315MOL0     H42525   9.710   0.094   6.780  2.3811 -1.1038 -0.1472
  316MOL0     O42526   4.453  10.472   2.676 -0.1153 -0.3781  0.2504
  316MOL0     C42527   4.561  10.408   2.695  0.8041 -0.4421 -0.2993
  316MOL0     O42528   4.657  10.438   2.799  1.0646  0.1952 -0.4978
  316MOL0     C42529   4.640  10.554   2.868 -0.6625 -0.0441  0.4396
  316MOL0     C42530   4.661  10.551   3.011 -1.0105  0.7049  0.2889
  316MOL0     C42531   4.637  10.660   3.091  0.1238  0.2730 -0.4409
  316MOL0     C42532   4.603  10.786   3.026 -0.3463 -0.7107  0.5831
  316MOL0     O42533   4.585  10.893   3.105 -0.0928  0.3118  0.0006
  316MOL0     C42534   4.578  11.023   3.054 -0.7658 -0.1692 -1.0508
  316MOL0     C42535   4.522  11.109   3.165 -0.5391  0.8652  0.2714
  316MOL0     C42536   4.372  11.082   3.214  0.0199  0.3516 -0.4540
  316MOL0     C42537   4.256  11.158   3.143 -0.5699 -0.2621 -0.2961
  316MOL0     C42538   4.118  11.152   3.197  0.5712 -0.0437  0.1955
  316MOL0     C42539   4.098  11.225   3.334 -0.1556 -0.8657 -0.1770
  316MOL0     C42540   3.975  11.197   3.418 -0.6085  0.9493  0.3255
  316MOL0     C42541   3.875  11.305   3.442 -0.1945  0.0670  0.0449
  316MOL0     N42542   3.766  11.263   3.528  0.2575 -0.2425 -0.2225
  316MOL0     C42543   3.669  11.177   3.492 -0.1147 -0.1699  0.0514
  316MOL0     C42544   3.580  11.184   3.596  0.4768 -0.1944  0.0298
  316MOL0     C42545   3.461  11.098   3.620  1.0213  0.4289 -0.1687
  316MOL0     C42546   3.478  11.012   3.748 -0.4579  0.4774  0.5742
  316MOL0     C42547   3.348  10.949   3.790 -0.2785  0.4091 -0.7794
  316MOL0     C42548   3.342  10.891   3.926 -0.3524  0.5731  0.3464
  316MOL0     O42549   3.276  10.971   4.026 -0.0826  0.4156 -0.1800
  316MOL0     C42550   3.242  10.917   4.152 -0.2721  0.3964  0.9334
  316MOL0     C42551   3.144  10.976   4.219 -1.0202  1.0333  0.5528
  316MOL0     C42552   3.081  10.924   4.332 -0.2041  0.7250  0.9010
  316MOL0     C42553   2.965  11.008   4.393  0.0649 -0.3662  0.6687
  316MOL0     C42554   3.121  10.796   4.379  0.3870 -0.9244 -0.1466
  316MOL0     C42555   3.051  10.734   4.495  0.4859 -0.5411  0.0558
  316MOL0     O42556   2.957  10.800   4.567 -0.4903 -0.1809 -0.3538
  316MOL0     C42557   2.848  10.728   4.601  0.6157  0.4095 -0.2068
  316MOL0     C42558   2.804  10.601   4.545 -0.0545  0.1675 -0.9695
  316MOL0     C42559   2.680  10.551   4.590  0.0066  0.0684  0.6565
  316MOL0     C42560   2.593  10.622   4.673  0.6486  0.8536  0.6420
  316MOL0     O42561   2.474  10.575   4.730  0.0687  0.1795 -0.2187
  316MOL0     C42562   2.386  10.503   4.648 -0.8761  0.1977 -0.4045
  316MOL0     C42563   2.294  10.420   4.734  0.1272 -0.3236 -0.8373
  316MOL0     C42564   2.206  10.515   4.817  0.3400 -0.3259 -0.8814
  316MOL0     C42565   2.107  10.440   4.902  0.1856  0.4904 -0.0488
  316MOL0     C42566   1.996  10.528   4.949  0.1938 -0.1473 -0.4644
  316MOL0     C42567   1.873  10.441   4.991 -0.3921 -0.1479  0.3331
  316MOL0     C42568   1.785  10.541   5.065 -0.9382 -0.2590 -0.1054
  316MOL0     C42569   1.657  10.479   5.111 -0.5898  0.9244 -0.4109
  316MOL0    Cl42570   1.699  10.337   5.217 -0.5533 -0.0547 -0.1400
  316MOL0     C42571   2.639  10.742   4.710 -0.0293 -0.3722  0.3946
  316MOL0     C42572   2.757  10.792   4.677  0.0367 -0.2917 -0.0957
  316MOL0     O42573   3.090  10.617   4.510 -0.1022  0.0185  0.6848
  316MOL0     C42574   3.230  10.740   4.313  0.3260  0.0501 -0.5045
  316MOL0     C42575   3.294  10.803   4.204 -0.3721  0.6749 -0.4749
  316MOL0     N42576   3.641  11.261   3.697  0.2951 -0.4108  0.2284
  316MOL0     N42577   3.747  11.315   3.657  0.2979 -0.5189 -0.1435
  316MOL0     C42578   4.595  10.796   2.885 -0.5981  0.4082 -0.3518
  316MOL0     C42579   4.622  10.681   2.805 -0.4641  0.1641 -0.1624
  316MOL0     C42580   4.590  10.285   2.615  0.3382 -0.8431 -0.4788
  316MOL0     C42581   4.706  10.216   2.624 -1.3109 -0.5090 -0.2284
  316MOL0     C42582   4.732  10.098   2.560  0.0376  0.0387 -0.1935
  316MOL0     C42583   4.633  10.040   2.484 -0.2881  0.0385  0.5004
  316MOL0     O42584   4.679   9.922   2.427  0.4542  0.9692 -0.0362
  316MOL0     C42585   4.597   9.827   2.349  0.2214 -0.7093  0.4848
  316MOL0     C42586   4.554   9.719   2.443  0.5577 -0.4054 -0.6855
  316MOL0     C42587   4.416   9.644   2.403 -0.2197  0.6064 -0.0963
  316MOL0     C42588   4.420   9.547   2.280  0.0884 -1.0191  0.3478
  316MOL0     C42589   4.482   9.418   2.305  0.5269 -0.0636  0.1171
  316MOL0     C42590   4.504   9.297   2.305  0.3464 -0.2172 -0.4859
  316MOL0     C42591   4.505  10.102   2.475 -0.4300  0.1041  1.4888
  316MOL0     C42592   4.490  10.229   2.527  0.2190 -0.0062 -0.2843
  316MOL0     H42593   4.678  10.453   3.055 -0.2301  1.2172  1.1676
  316MOL0     H42594   4.666  10.648   3.195 -0.9989  3.7626  0.4233
  316MOL0     H42595   4.677  11.061   3.030  0.4868 -0.7075  2.5337
  316MOL0     H42596   4.516  11.032   2.965 -0.6620  0.7395 -1.0375
  316MOL0     H42597   4.581  11.095   3.256 -0.6798  0.6630  0.3319
  316MOL0     H42598   4.520  11.215   3.140 -0.5725  0.2085 -2.9936
  316MOL0     H42599   4.346  10.977   3.204  0.2931  0.3452 -1.1380
  316MOL0     H42600   4.377  11.111   3.320  0.1328 -3.1470  0.6018
  316MOL0     H42601   4.288  11.262   3.135 -0.1235 -0.2751  1.0433
  316MOL0     H42602   4.247  11.116   3.042  0.1757 -0.2457 -0.3733
  316MOL0     H42603   4.045  11.191   3.125 -1.1065  0.9713  2.3479
  316MOL0     H42604   4.099  11.046   3.219  1.4965 -0.6349 -1.5910
  316MOL0     H42605   4.185  11.216   3.400  1.5337  2.9818 -1.5636
  316MOL0     H42606   4.083  11.331   3.312  2.9286 -0.5486 -1.2238
  316MOL0     H42607   3.922  11.111   3.377  2.1016  0.2077 -1.9326
  316MOL0     H42608   4.021  11.158   3.509  1.2590  0.3902 -0.8120
  316MOL0     H42609   3.837  11.339   3.345 -0.2757  0.8150  0.3333
  316MOL0     H42610   3.927  11.389   3.489 -2.5801  1.6422  0.0219
  316MOL0     H42611   3.674  11.124   3.398  0.0976 -0.9541  0.5024
  316MOL0     H42612   3.373  11.163   3.623  0.1085 -0.7795 -0.1707
  316MOL0     H42613   3.454  11.036   3.530  1.1241  1.4098 -0.8684
  316MOL0     H42614   3.506  11.082   3.828 -1.1542  0.5743  0.7348
  316MOL0     H42615   3.555  10.938   3.721  0.8586  3.3831 -5.2118
  316MOL0     H42616   3.332  10.878   3.708  1.2355 -1.4369  0.4407
  316MOL0     H42617   3.265  11.019   3.780 -1.2653 -0.7757 -1.0946
  316MOL0     H42618   3.441  10.862   3.961  0.4766  2.8663  0.0780
  316MOL0     H42619   3.264  10.814   3.922 -2.3555  2.3825  1.7257
  316MOL0     H42620   3.120  11.076   4.186 -1.6293  0.8013  0.2972
  316MOL0     H42621   2.951  11.107   4.348  4.1653  0.4058  0.7107
  316MOL0     H42622   2.871  10.955   4.373 -0.1092  0.6157 -1.4644
  316MOL0     H42623   2.989  11.037   4.496  0.8677  2.2204 -0.1516
  316MOL0     H42624   2.873  10.536   4.493 -0.2285 -1.2065  0.4397
  316MOL0     H42625   2.661  10.447   4.565 -1.0714  0.3310  0.3673
  316MOL0     H42626   2.338  10.573   4.580 -1.7616 -1.2517 -1.3263
  316MOL0     H42627   2.422  10.414   4.597 -1.8029  0.0803 -0.8683
  316MOL0     H42628   2.229  10.356   4.674  1.1164 -1.0495 -1.1640
  316MOL0     H42629   2.353  10.365   4.808 -0.5571 -0.5307 -0.4359
  316MOL0     H42630   2.146  10.584   4.756  1.2265  3.2242  1.8690
  316MOL0     H42631   2.259  10.594   4.872 -4.3894  3.3590 -0.9554
  316MOL0     H42632   2.060  10.363   4.841 -1.3057 -0.0454  1.6781
  316MOL0     H42633   2.153  10.383   4.983  1.1555 -0.0944 -0.9780
  316MOL0     H42634   1.947  10.587   4.871  0.7556 -0.3962 -1.0144
  316MOL0     H42635   2.027  10.585   5.037  2.7247  2.1230 -2.6424
  316MOL0     H42636   1.837  10.395   4.899  1.6606  1.9824 -1.6653
  316MOL0     H42637   1.906  10.360   5.057 -0.8499  0.1355  0.9129
  316MOL0     H42638   1.761  10.622   4.996 -0.7040 -0.1025 -0.0056
  316MOL0     H42639   1.833  10.580   5.156 -0.5173  0.9062 -0.8107
  316MOL0     H42640   1.582  10.453   5.035 -1.3490 -2.0717  1.2105
  316MOL0     H42641   1.612  10.557   5.174  1.1425  0.9952  0.7915
  316MOL0     H42642   2.574  10.805   4.771 -0.2949 -1.5997  1.4344
  316MOL0     H42643   2.784  10.891   4.714 -3.4734  0.3612  1.0807
  316MOL0     H42644   3.280  10.657   4.362  1.5793  2.2785  2.3206
  316MOL0     H42645   3.389  10.761   4.173  2.5302  3.5868  3.3462
  316MOL0     H42646   4.567  10.889   2.837 -2.5120 -0.4533 -1.0407
  316MOL0     H42647   4.614  10.692   2.697 -2.3677 -1.8825 -0.3087
  316MOL0     H42648   4.777  10.262   2.692 -0.8213  2.5338 -2.5516
  316MOL0     H42649   4.832  10.056   2.563  0.6344  1.4229  0.9015
  316MOL0     H42650   4.504   9.863   2.304 -0.2306 -2.9228 -0.5251
  316MOL0     H42651   4.664   9.783   2.274 -0.2916 -1.6674  0.5841
  316MOL0     H42652   4.548   9.761   2.543 -2.6919 -3.8009  0.7605
  316MOL0     H42653   4.628   9.639   2.445 -0.0049 -0.9164  0.4044
  316MOL0     H42654   4.367   9.735   2.369 -1.6222 -0.1309 -0.0863
  316MOL0     H42655   4.356   9.602   2.484  1.3187 -0.7411  0.3990
  316MOL0     H42656   4.489   9.588   2.205 -0.9017 -0.6903 -0.3948
  316MOL0     H42657   4.322   9.523   2.240 -0.9298 -2.6388  3.5047
  316MOL0     H42658   4.535   9.195   2.311  2.0860  0.3109  0.2163
  316MOL0     H42659   4.427  10.058   2.414 -0.4510 -0.1825  1.7179
  316MOL0     H42660   4.404  10.290   2.503  0.0635  0.8638  2.2428
  317MOL0     O42661   9.959   9.964   9.068 -0.5253 -0.9221 -0.2195
  317MOL0     C42662  10.025   9.876   9.122  0.6270 -0.4098 -0.2339
  317MOL0     O42663   9.972   9.748   9.146 -0.2456 -0.0148 -0.2227
  317MOL0     C42664   9.834   9.725   9.133  0.2383 -0.4341 -0.1851
  317MOL0     C42665   9.794   9.596   9.096 -0.2038  0.4788 -0.2267
  317MOL0     C42666   9.664   9.549   9.118  0.3397  0.7726 -0.8558
  317MOL0     C42667   9.562   9.635   9.163  0.5869  0.2714  0.6369
  317MOL0     O42668   9.426   9.595   9.176 -0.0811  0.3590  0.2030
  317MOL0     C42669   9.387   9.479   9.098 -0.1203  0.4417 -0.0420
  317MOL0     C42670   9.234   9.451   9.114 -0.2045 -0.3782  0.2095
  317MOL0     C42671   9.152   9.570   9.062 -0.6109 -0.2446 -0.7613
  317MOL0     C42672   9.007   9.547   9.102  0.2507 -0.3219 -0.0508
  317MOL0     C42673   8.903   9.653   9.052 -0.2222  1.0192 -0.9098
  317MOL0     C42674   8.760   9.640   9.118  0.6970 -0.1896  0.2162
  317MOL0     C42675   8.674   9.770   9.073  0.3561  0.4448  0.2675
  317MOL0     C42676   8.554   9.774   9.162  0.3131  0.1979  0.1269
  317MOL0     N42677   8.453   9.882   9.116  0.9413 -0.5788  0.2119
  317MOL0     C42678   8.490  10.010   9.063 -0.0704 -0.0948 -0.3718
  317MOL0     C42679   8.376  10.066   9.009  0.1293 -0.2044 -1.1229
  317MOL0     C42680   8.362  10.194   8.921 -0.2676  0.2349  0.1212
  317MOL0     C42681   8.214  10.235   8.914 -0.9568 -0.3002  0.1624
  317MOL0     C42682   8.158  10.300   9.044 -0.5032  0.5965 -0.3022
  317MOL0     C42683   8.017  10.350   9.024  0.5562 -0.4099  0.5245
  317MOL0     O42684   7.917  10.248   8.990 -0.6827 -0.0232 -0.6486
  317MOL0     C42685   7.791  10.290   8.976 -0.3003 -0.2372  0.7061
  317MOL0     C42686   7.751  10.423   8.972  0.0376  0.1637  0.8405
  317MOL0     C42687   7.617  10.466   8.970 -0.4157 -0.4581  0.2063
  317MOL0     C42688   7.580  10.609   8.995 -0.3206 -0.2520  0.0400
  317MOL0     C42689   7.509  10.371   8.962 -0.7412 -0.0712  0.0265
  317MOL0     C42690   7.369  10.401   8.928  1.6693  0.7274 -0.5770
  317MOL0     O42691   7.300  10.288   8.884  0.0410 -0.1000  0.1948
  317MOL0     C42692   7.172  10.317   8.847  0.8015 -0.5402 -0.2677
  317MOL0     C42693   7.130  10.367   8.721  0.4896 -0.0284 -0.2930
  317MOL0     C42694   6.996  10.390   8.700 -0.1870  0.4138 -0.9822
  317MOL0     C42695   6.896  10.361   8.788 -0.5451  0.6051  0.3482
  317MOL0     O42696   6.761  10.388   8.761  0.0002 -0.4100  0.2823
  317MOL0     C42697   6.705  10.496   8.837 -0.5779 -0.3291 -0.2603
  317MOL0     C42698   6.745  10.636   8.783 -0.1970 -0.3907  0.7581
  317MOL0     C42699   6.729  10.750   8.887 -0.2953  0.2066  0.6208
  317MOL0     C42700   6.589  10.752   8.938  0.1515  0.2512 -0.2404
  317MOL0     C42701   6.580  10.879   9.032  0.5705  0.9260 -0.3098
  317MOL0     C42702   6.443  10.892   9.107 -0.0077 -0.2142 -0.4088
  317MOL0     C42703   6.323  10.914   9.014 -0.3830 -0.7746 -0.5231
  317MOL0     C42704   6.190  10.953   9.093 -0.3348  0.9007  0.1023
  317MOL0    Cl42705   6.146  10.821   9.203 -0.0858  0.4577 -0.6467
  317MOL0     C42706   6.931  10.297   8.908  0.3875 -0.3359 -0.0347
  317MOL0     C42707   7.067  10.278   8.938 -0.3806 -0.9997  0.1459
  317MOL0     O42708   7.318  10.515   8.933 -0.2181  0.1596 -0.0430
  317MOL0     C42709   7.558  10.232   8.964  0.8067 -1.0103 -0.1840
  317MOL0     C42710   7.691  10.190   8.980  0.2152  0.1587 -0.1753
  317MOL0     N42711   8.278   9.973   9.027 -0.3961 -0.5348 -0.9020
  317MOL0     N42712   8.324   9.864   9.089 -0.2064 -0.1938  0.5663
  317MOL0     C42713   9.597   9.766   9.192 -0.2224  0.7684  0.0427
  317MOL0     C42714   9.728   9.808   9.187  0.2668  0.1332 -0.5744
  317MOL0     C42715  10.170   9.892   9.154  0.2321 -0.4452  1.0121
  317MOL0     C42716  10.255   9.783   9.178  1.0444  0.5937  0.1930
  317MOL0     C42717  10.387   9.806   9.211  0.6967  0.3505 -0.3027
  317MOL0     C42718  10.432   9.933   9.223 -0.5558 -0.0516 -0.1932
  317MOL0     O42719  10.570   9.945   9.245 -1.1548 -0.8554  0.0498
  317MOL0     C42720  10.639  10.080   9.248  0.1700  0.7793 -0.0946
  317MOL0     C42721  10.760  10.081   9.343 -0.3921  0.3602  0.8514
  317MOL0     C42722  10.860   9.988   9.278 -0.3589  0.2615 -0.3950
  317MOL0     C42723  10.997   9.978   9.369  0.2155 -0.3539  0.7942
  317MOL0     C42724  11.065   9.863   9.329 -0.2682  0.2106 -0.0500
  317MOL0     C42725  11.131   9.769   9.317  0.2278 -0.3515  1.0352
  317MOL0     C42726  10.339  10.036   9.215  0.1950 -0.5296  0.2522
  317MOL0     C42727  10.213  10.016   9.172  0.0363  0.3373 -0.1314
  317MOL0     H42728   9.870   9.524   9.066 -0.1199  0.4518  0.0407
  317MOL0     H42729   9.639   9.446   9.098  3.9956 -0.8664  1.8352
  317MOL0     H42730   9.408   9.491   8.992  3.9194 -0.8626  0.4559
  317MOL0     H42731   9.435   9.389   9.136 -2.8711 -0.7724  0.8420
  317MOL0     H42732   9.191   9.360   9.071 -0.2176 -0.8119  1.1179
  317MOL0     H42733   9.215   9.435   9.221  1.7856  0.4320  0.7176
  317MOL0     H42734   9.186   9.664   9.109 -2.5551 -0.4897  1.3208
  317MOL0     H42735   9.159   9.573   8.953 -1.3928 -2.3983 -0.9100
  317MOL0     H42736   8.982   9.452   9.053  2.4655 -0.4360 -1.0723
  317MOL0     H42737   8.986   9.527   9.207 -4.5935 -4.1910 -1.3739
  317MOL0     H42738   8.943   9.753   9.073 -0.7455  0.8468  1.2175
  317MOL0     H42739   8.888   9.639   8.945 -3.1409 -0.0661 -0.4434
  317MOL0     H42740   8.708   9.548   9.088 -1.8165  0.8734  1.0357
  317MOL0     H42741   8.773   9.654   9.226 -3.5452 -0.4716  0.9479
  317MOL0     H42742   8.727   9.866   9.072 -2.6746  2.2484 -0.7569
  317MOL0     H42743   8.635   9.755   8.972 -0.6772  1.8228  0.4365
  317MOL0     H42744   8.586   9.813   9.260 -0.0539  0.3919  0.1727
  317MOL0     H42745   8.512   9.675   9.179 -0.1704  0.5248  0.9321
  317MOL0     H42746   8.586  10.060   9.056  1.1057 -2.3513 -1.4624
  317MOL0     H42747   8.420  10.273   8.969 -0.0663  0.9734 -1.2908
  317MOL0     H42748   8.403  10.179   8.820  1.3251  0.7607  0.6500
  317MOL0     H42749   8.156  10.149   8.879 -2.2463  1.4177 -2.2193
  317MOL0     H42750   8.205  10.312   8.837 -1.9669 -0.2257  0.3440
  317MOL0     H42751   8.213  10.383   9.090 -2.2204  1.5624  0.1132
  317MOL0     H42752   8.170  10.221   9.118 -0.2174  0.5123 -0.4352
  317MOL0     H42753   8.018  10.417   8.938 -1.9099 -1.5182 -0.4678
  317MOL0     H42754   7.999  10.395   9.122 -1.0472  0.6342 -0.2167
  317MOL0     H42755   7.822  10.505   8.986 -1.5053  2.1910 -2.1542
  317MOL0     H42756   7.667  10.661   9.036 -0.6191 -0.9212  1.5886
  317MOL0     H42757   7.543  10.657   8.904  2.7611  3.2492  0.3735
  317MOL0     H42758   7.506  10.603   9.075 -2.5417 -2.5312 -2.0130
  317MOL0     H42759   7.201  10.395   8.644 -0.5844  1.6368 -0.7292
  317MOL0     H42760   6.961  10.434   8.607 -1.8727 -0.4485 -0.7953
  317MOL0     H42761   6.596  10.498   8.840 -0.6063  2.0712 -0.4546
  317MOL0     H42762   6.741  10.487   8.940 -1.9719 -0.3207  0.2428
  317MOL0     H42763   6.851  10.639   8.755 -0.1433  1.2595  1.0729
  317MOL0     H42764   6.692  10.660   8.691  1.4471  1.8598  0.3104
  317MOL0     H42765   6.741  10.844   8.831  0.7348 -2.3165 -3.9263
  317MOL0     H42766   6.804  10.742   8.966  1.0184 -1.0105 -0.6801
  317MOL0     H42767   6.520  10.765   8.854  0.2464 -2.8447 -0.9057
  317MOL0     H42768   6.558  10.661   8.991 -2.2153  1.2752  0.2692
  317MOL0     H42769   6.595  10.969   8.972 -0.5261 -0.7761 -3.3906
  317MOL0     H42770   6.657  10.876   9.110  0.1137  3.4162  0.3378
  317MOL0     H42771   6.426  10.797   9.159 -1.4948  0.1374 -0.2009
  317MOL0     H42772   6.453  10.969   9.184 -2.5187  0.6539 -0.8778
  317MOL0     H42773   6.295  10.827   8.954  0.3900  0.8228 -3.4051
  317MOL0     H42774   6.350  10.986   8.936  6.3525  1.5815  3.1692
  317MOL0     H42775   6.106  10.979   9.027  0.1512 -0.9709 -1.3403
  317MOL0     H42776   6.214  11.039   9.156 -1.0060  0.3033  1.1991
  317MOL0     H42777   6.853  10.261   8.974 -2.7047 -0.0293 -3.2415
  317MOL0     H42778   7.114  10.244   9.029  1.2096 -0.6530 -0.5061
  317MOL0     H42779   7.485  10.152   8.956  0.0818 -0.3945  0.1076
  317MOL0     H42780   7.725  10.087   8.990  3.0841  0.9115 -1.2875
  317MOL0     H42781   9.527   9.837   9.234 -0.1783 -1.6458  4.7824
  317MOL0     H42782   9.752   9.902   9.237 -1.3975 -1.7700  4.4536
  317MOL0     H42783  10.233   9.677   9.173 -1.4193  1.0351 -4.7587
  317MOL0     H42784  10.457   9.726   9.237 -0.6830 -1.6697 -2.3993
  317MOL0     H42785  10.655  10.108   9.143 -0.4882 -0.6895 -0.6280
  317MOL0     H42786  10.560  10.147   9.284 -1.7159 -2.0756  1.5122
  317MOL0     H42787  10.736  10.045   9.444  0.3854  1.0508  1.2900
  317MOL0     H42788  10.799  10.182   9.355  1.3442  0.1440 -2.1045
  317MOL0     H42789  10.897  10.027   9.183 -0.5036 -0.3628 -0.7105
  317MOL0     H42790  10.819   9.887   9.271  0.2191 -0.0415  0.4025
  317MOL0     H42791  10.980   9.974   9.477  3.0742 -0.4830  1.3146
  317MOL0     H42792  11.061  10.066   9.354  2.2992 -2.0668 -0.8566
  317MOL0     H42793  11.175   9.673   9.296  2.0035  0.8885 -1.4372
  317MOL0     H42794  10.365  10.138   9.244 -0.8109  0.0715 -0.8797
  317MOL0     H42795  10.146  10.102   9.167  0.4498  0.6010 -1.5814
  318MOL0     O42796  10.691   8.708   5.156 -0.1433 -0.0007  0.0006
  318MOL0     C42797  10.624   8.609   5.202  0.5698 -0.0207 -0.3934
  318MOL0     O42798  10.679   8.495   5.258  0.6775 -0.5931  0.9145
  318MOL0     C42799  10.814   8.488   5.251  0.6417  0.0398 -0.0721
  318MOL0     C42800  10.883   8.523   5.362  0.0569 -0.6621  0.8314
  318MOL0     C42801  11.026   8.499   5.369  0.2879 -0.3709 -1.1744
  318MOL0     C42802  11.089   8.451   5.249 -0.0185 -0.1335  1.2267
  318MOL0     O42803  11.234   8.440   5.242  0.9684  0.2644 -0.2918
  318MOL0     C42804  11.304   8.427   5.369 -0.2086 -0.6243 -0.0899
  318MOL0     C42805  11.456   8.397   5.347 -0.7816 -0.5401 -0.0609
  318MOL0     C42806  11.516   8.272   5.282  0.8463 -0.3166 -0.5058
  318MOL0     C42807  11.666   8.274   5.312  0.0471  0.9215 -0.4385
  318MOL0     C42808  11.748   8.190   5.205 -0.2893 -1.1238  0.4180
  318MOL0     C42809  11.896   8.210   5.244 -0.4906  0.5789 -0.9956
  318MOL0     C42810  11.924   8.086   5.335 -1.0485 -0.6274  0.6589
  318MOL0     C42811  12.066   8.082   5.383  0.1898 -0.1841  0.0899
  318MOL0     N42812  12.094   7.943   5.431  0.4946  0.9532  0.1491
  318MOL0     C42813  12.220   7.911   5.457 -0.1712 -0.1269 -0.5386
  318MOL0     C42814  12.213   7.780   5.499 -0.0743  0.1467  0.0783
  318MOL0     C42815  12.336   7.702   5.525  0.2559  0.7254  0.4936
  318MOL0     C42816  12.366   7.678   5.679 -0.5929  0.4163  0.5188
  318MOL0     C42817  12.263   7.580   5.747 -0.0289 -0.3330  0.5916
  318MOL0     C42818  12.259   7.441   5.689 -0.2594 -0.5223  0.5974
  318MOL0     O42819  12.152   7.356   5.744  0.2544 -0.2643  0.5472
  318MOL0     C42820  12.024   7.361   5.699  0.2845  0.4101 -0.2305
  318MOL0     C42821  11.933   7.257   5.733  0.1590 -0.2360  1.1150
  318MOL0     C42822  11.797   7.261   5.700  0.8387  1.0584 -0.0692
  318MOL0     C42823  11.718   7.162   5.782  0.6328 -0.2116 -0.1173
  318MOL0     C42824  11.744   7.363   5.617 -0.0316  0.2887 -0.0505
  318MOL0     C42825  11.596   7.383   5.589 -0.1043  0.5131 -0.5620
  318MOL0     O42826  11.577   7.497   5.512  0.7135 -0.0726 -0.3709
  318MOL0     C42827  11.445   7.529   5.496 -0.5099 -0.7654  0.0136
  318MOL0     C42828  11.376   7.476   5.388 -0.1856  0.0590  0.1511
  318MOL0     C42829  11.238   7.498   5.377 -0.2910 -1.2330 -0.4805
  318MOL0     C42830  11.167   7.569   5.473  0.4868  0.2447  0.0839
  318MOL0     O42831  11.028   7.584   5.443  0.3366  0.0827  0.3036
  318MOL0     C42832  10.956   7.667   5.529  0.4413  0.4140  0.3535
  318MOL0     C42833  10.810   7.630   5.509 -0.2651  0.1696  0.8587
  318MOL0     C42834  10.778   7.504   5.575  0.4354 -0.3316 -0.6173
  318MOL0     C42835  10.642   7.457   5.531  0.6218 -0.5838  1.0945
  318MOL0     C42836  10.595   7.341   5.626  0.5153 -0.4334 -0.4121
  318MOL0     C42837  10.452   7.300   5.592 -0.1994  0.1043  0.2088
  318MOL0     C42838  10.382   7.212   5.707  0.2268  0.4924 -1.1396
  318MOL0     C42839  10.251   7.142   5.651  0.0253 -0.8263 -0.7942
  318MOL0    Cl42840  10.121   7.268   5.632 -0.0607  0.1040  0.0973
  318MOL0     C42841  11.228   7.624   5.586 -0.4630  0.0957  1.0117
  318MOL0     C42842  11.367   7.607   5.589  0.5717 -0.2905 -0.9476
  318MOL0     O42843  11.511   7.316   5.654  0.0965 -0.1105  0.9923
  318MOL0     C42844  11.834   7.464   5.582  0.3296 -0.1729  0.5691
  318MOL0     C42845  11.971   7.454   5.620  0.1127  0.4090 -0.3195
  318MOL0     N42846  12.079   7.740   5.497 -0.2761 -0.1283  0.3906
  318MOL0     N42847  12.010   7.830   5.441 -0.5796  0.3406  0.6823
  318MOL0     C42848  11.007   8.411   5.143 -0.0818 -0.5416  0.2481
  318MOL0     C42849  10.871   8.424   5.138  0.2117  0.3007 -0.7200
  318MOL0     C42850  10.476   8.618   5.197  0.2459  0.4424 -1.0163
  318MOL0     C42851  10.409   8.673   5.086  0.2365  0.0415  0.1403
  318MOL0     C42852  10.269   8.669   5.077  0.1441  0.7342  0.8179
  318MOL0     C42853  10.195   8.608   5.178 -0.6167  1.1324 -1.0013
  318MOL0     O42854  10.059   8.584   5.160 -0.2501 -0.2855 -0.3573
  318MOL0     C42855   9.992   8.484   5.236 -0.5930 -0.2129 -0.1921
  318MOL0     C42856   9.847   8.473   5.180 -0.2057  0.8475  0.4921
  318MOL0     C42857   9.761   8.363   5.249  0.4848  0.3398  0.1801
  318MOL0     C42858   9.679   8.432   5.358 -0.0193  0.5873  0.1328
  318MOL0     C42859   9.561   8.486   5.310  0.7547 -0.2779 -0.2220
  318MOL0     C42860   9.452   8.539   5.280 -0.1430  0.2094  0.4027
  318MOL0     C42861  10.256   8.553   5.295  0.6257  0.2783 -0.4047
  318MOL0     C42862  10.399   8.558   5.294  0.3074 -0.1758 -0.2068
  318MOL0     H42863  10.844   8.580   5.446 -1.5526 -0.9121  0.2909
  318MOL0     H42864  11.078   8.529   5.459 -1.5491 -0.1131 -0.1413
  318MOL0     H42865  11.303   8.522   5.424 -1.3709 -1.2238  0.9563
  318MOL0     H42866  11.278   8.346   5.437  0.5852  0.1924  1.2303
  318MOL0     H42867  11.492   8.487   5.297 -0.0679 -0.2897  0.8773
  318MOL0     H42868  11.486   8.397   5.453 -3.4821 -2.2031  0.8374
  318MOL0     H42869  11.477   8.176   5.316  0.3088 -0.9789 -2.8723
  318MOL0     H42870  11.497   8.269   5.175 -1.2993  1.2922 -0.2425
  318MOL0     H42871  11.698   8.379   5.310  2.2806  0.3189  0.6851
  318MOL0     H42872  11.696   8.238   5.411 -1.0666  1.4116  0.0966
  318MOL0     H42873  11.711   8.087   5.212 -1.6927 -0.5780  1.3950
  318MOL0     H42874  11.737   8.231   5.104 -0.3782 -1.5833  0.2385
  318MOL0     H42875  11.958   8.205   5.154 -0.0069 -1.5683 -0.5919
  318MOL0     H42876  11.916   8.309   5.286 -0.7574 -0.1291  0.8648
  318MOL0     H42877  11.853   8.066   5.416  0.3851 -2.2863  1.5529
  318MOL0     H42878  11.921   8.006   5.261 -3.7621 -1.7056  1.8114
  318MOL0     H42879  12.084   8.168   5.449 -4.7791  1.2742 -0.0225
  318MOL0     H42880  12.130   8.094   5.295  1.2774 -2.7787  0.4495
  318MOL0     H42881  12.314   7.965   5.443  0.3075 -0.8858 -0.3093
  318MOL0     H42882  12.315   7.620   5.455 -2.8265  3.3370 -1.9847
  318MOL0     H42883  12.421   7.763   5.492  1.1233 -1.1177 -0.8415
  318MOL0     H42884  12.359   7.770   5.739 -1.7785  2.7244 -2.8540
  318MOL0     H42885  12.466   7.637   5.693 -0.4912  0.7495  0.7864
  318MOL0     H42886  12.164   7.624   5.733  1.0267  1.1900 -3.9066
  318MOL0     H42887  12.295   7.590   5.851 -0.6642  2.8790  0.5649
  318MOL0     H42888  12.358   7.396   5.702  2.0729  4.1344  0.9633
  318MOL0     H42889  12.251   7.440   5.580  0.1174 -1.1498  0.5717
  318MOL0     H42890  11.959   7.170   5.791  1.2289 -0.7038 -0.0190
  318MOL0     H42891  11.780   7.071   5.790  1.1783  0.1100 -0.6098
  318MOL0     H42892  11.699   7.196   5.884  0.4617  0.0689 -0.2431
  318MOL0     H42893  11.620   7.137   5.740  0.7756  1.2991 -1.3981
  318MOL0     H42894  11.443   7.430   5.315  0.4616  1.0714  0.0807
  318MOL0     H42895  11.186   7.462   5.290  0.0876 -2.1206 -0.3557
  318MOL0     H42896  10.975   7.646   5.635  1.8465 -0.1546  0.0179
  318MOL0     H42897  10.965   7.772   5.497 -0.7793  0.2478 -0.6181
  318MOL0     H42898  10.749   7.707   5.558 -1.3641 -1.7567  2.7314
  318MOL0     H42899  10.796   7.631   5.401 -0.0663 -0.0288  0.8308
  318MOL0     H42900  10.765   7.533   5.680 -1.6497  0.7654 -1.1185
  318MOL0     H42901  10.855   7.427   5.569  0.3928 -0.5064  0.7870
  318MOL0     H42902  10.572   7.540   5.517 -0.5550 -1.8334 -0.8644
  318MOL0     H42903  10.645   7.409   5.433 -0.9412 -1.8015  1.6038
  318MOL0     H42904  10.581   7.366   5.732  0.2074 -1.1369 -0.2771
  318MOL0     H42905  10.658   7.253   5.618 -1.5740 -2.2187  1.2909
  318MOL0     H42906  10.374   7.376   5.580  0.8034  1.2385  0.6647
  318MOL0     H42907  10.445   7.236   5.504 -0.7812  1.3079 -0.6524
  318MOL0     H42908  10.351   7.274   5.792 -0.6650  0.9171 -1.7552
  318MOL0     H42909  10.447   7.129   5.737 -1.2991  0.7513  4.0551
  318MOL0     H42910  10.211   7.064   5.716 -1.7776  1.2463  0.7133
  318MOL0     H42911  10.277   7.090   5.558  1.8312 -1.9773  0.2924
  318MOL0     H42912  11.187   7.680   5.670 -0.1280  1.3086  0.3925
  318MOL0     H42913  11.430   7.655   5.664  1.1616  0.6994 -2.0329
  318MOL0     H42914  11.803   7.547   5.519  1.9256  1.7556  2.1473
  318MOL0     H42915  12.044   7.525   5.581  0.4943 -0.6923 -1.7043
  318MOL0     H42916  11.048   8.366   5.053  0.3477  0.1848  0.0775
  318MOL0     H42917  10.814   8.381   5.056 -0.5903 -1.8739  0.8431
  318MOL0     H42918  10.471   8.706   5.004 -0.0598  0.4838  0.0895
  318MOL0     H42919  10.229   8.704   4.983  0.1680  1.9707  1.2566
  318MOL0     H42920  10.044   8.389   5.224  0.0011 -0.2578  2.2181
  318MOL0     H42921   9.994   8.504   5.344 -0.5059 -0.3813 -0.1633
  318MOL0     H42922   9.848   8.450   5.074  0.0457  0.5691  0.5534
  318MOL0     H42923   9.802   8.573   5.183  2.1386  2.1751 -2.8055
  318MOL0     H42924   9.817   8.283   5.300  1.9483  1.8846  1.1055
  318MOL0     H42925   9.695   8.321   5.173  1.2370  1.6385 -1.2417
  318MOL0     H42926   9.743   8.501   5.412  0.8609 -1.6567  2.1724
  318MOL0     H42927   9.644   8.352   5.424 -0.1173 -0.3729 -1.0416
  318MOL0     H42928   9.366   8.593   5.246  2.3418  2.1508 -3.4243
  318MOL0     H42929  10.200   8.517   5.381  2.1276 -0.1610  0.4190
  318MOL0     H42930  10.457   8.523   5.378 -0.1943  0.5100  0.4409
  319MOL0     O42931   7.667   8.539  10.618  0.2771 -0.0852  0.0077
  319MOL0     C42932   7.724   8.574  10.720  0.1966  0.4167 -0.3768
  319MOL0     O42933   7.668   8.612  10.836  0.2470  0.4380 -0.5710
  319MOL0     C42934   7.543   8.575  10.882 -0.2769  0.5040 -0.5636
  319MOL0     C42935   7.500   8.646  10.997  0.0319 -0.2055  0.7787
  319MOL0     C42936   7.368   8.619  11.049 -0.2701 -0.7825  0.3190
  319MOL0     C42937   7.288   8.523  10.987  0.9872 -0.0949  0.3845
  319MOL0     O42938   7.168   8.481  11.034  0.5971 -0.2191 -0.3282
  319MOL0     C42939   7.120   8.517  11.168 -0.2644 -0.8206 -0.1877
  319MOL0     C42940   6.978   8.463  11.184  1.3482  0.4740 -1.0616
  319MOL0     C42941   6.940   8.320  11.225 -1.0348  0.2066 -0.1059
  319MOL0     C42942   6.997   8.275  11.360  0.1289 -0.4931 -0.0098
  319MOL0     C42943   6.914   8.165  11.432 -0.4833 -0.1928 -0.5064
  319MOL0     C42944   6.879   8.039  11.346  0.4301  0.1228 -0.4258
  319MOL0     C42945   6.845   7.925  11.453 -0.1149  0.1295 -0.0706
  319MOL0     C42946   6.792   7.797  11.398 -0.2804  0.4516  0.1918
  319MOL0     N42947   6.756   7.699  11.504 -0.2897  0.6297 -0.0633
  319MOL0     C42948   6.852   7.618  11.565  0.2077 -0.3018  0.4784
  319MOL0     C42949   6.797   7.577  11.679  0.0599  0.1407 -0.0385
  319MOL0     C42950   6.856   7.485  11.790  0.2113 -0.5898 -0.5619
  319MOL0     C42951   7.010   7.497  11.797 -0.3293  0.4189  1.1352
  319MOL0     C42952   7.065   7.597  11.899 -0.8046 -0.4221 -0.3581
  319MOL0     C42953   7.037   7.742  11.869  0.2072  0.5058  0.7187
  319MOL0     O42954   7.101   7.787  11.746  0.2088 -0.1611  0.3608
  319MOL0     C42955   7.119   7.929  11.732  0.5127  0.8637  0.5419
  319MOL0     C42956   7.058   8.036  11.798 -0.1722  0.2780  0.0451
  319MOL0     C42957   7.093   8.169  11.771 -0.1744  0.0382 -0.5398
  319MOL0     C42958   7.023   8.279  11.846 -0.4553 -1.0090 -0.2302
  319MOL0     C42959   7.198   8.196  11.680 -0.1449 -0.7652 -0.3745
  319MOL0     C42960   7.254   8.335  11.652  0.1956 -0.4548  0.2610
  319MOL0     O42961   7.366   8.344  11.575  0.4223 -0.1957  0.0820
  319MOL0     C42962   7.427   8.469  11.565  0.0900 -0.1788  0.4871
  319MOL0     C42963   7.375   8.572  11.482  0.3915 -0.1988  0.5013
  319MOL0     C42964   7.432   8.697  11.464 -0.1055 -0.0316  0.3623
  319MOL0     C42965   7.560   8.720  11.529  0.5077 -0.0421  0.3263
  319MOL0     O42966   7.607   8.844  11.503 -0.4994 -0.4178  0.6359
  319MOL0     C42967   7.725   8.845  11.419 -0.4094  0.5691  0.2199
  319MOL0     C42968   7.711   8.918  11.285  0.1628  0.6858 -0.2458
  319MOL0     C42969   7.848   8.960  11.228  0.4012 -0.4662 -0.0592
  319MOL0     C42970   7.936   8.855  11.160  0.1712 -0.0033 -0.0808
  319MOL0     C42971   8.081   8.877  11.158 -0.2344 -0.0159 -0.2637
  319MOL0     C42972   8.154   8.835  11.287 -0.1073  0.2565  0.5289
  319MOL0     C42973   8.306   8.854  11.283 -0.5930 -1.0749  0.1024
  319MOL0     C42974   8.378   8.793  11.157  0.0904 -0.3764  0.4206
  319MOL0    Cl42975   8.371   8.624  11.171 -0.1050 -0.2541  0.1136
  319MOL0     C42976   7.617   8.628  11.618 -0.4322  0.0995  0.2392
  319MOL0     C42977   7.553   8.503  11.632 -0.0453 -0.3764 -0.1058
  319MOL0     O42978   7.206   8.434  11.706  0.3305  0.0573  0.2357
  319MOL0     C42979   7.250   8.093  11.604 -0.5362  0.4709 -0.4906
  319MOL0     C42980   7.211   7.965  11.626  0.0055  0.3317  0.4675
  319MOL0     N42981   6.664   7.620  11.680 -0.3412  0.8281 -0.2426
  319MOL0     N42982   6.638   7.689  11.575 -0.8607  0.8460  1.5285
  319MOL0     C42983   7.336   8.454  10.873  0.4521 -0.8811  0.0842
  319MOL0     C42984   7.464   8.477  10.827 -0.1380  0.8754  0.1074
  319MOL0     C42985   7.873   8.561  10.727 -0.6877 -1.2955 -0.0545
  319MOL0     C42986   7.947   8.611  10.835 -0.1418  1.3117 -0.4056
  319MOL0     C42987   8.089   8.625  10.836 -0.8245  0.5192 -0.0056
  319MOL0     C42988   8.169   8.583  10.732  0.5124  0.1122 -0.7404
  319MOL0     O42989   8.305   8.593  10.745  0.9627 -0.2991 -0.7182
  319MOL0     C42990   8.383   8.543  10.642  0.6089 -0.3337 -0.8205
  319MOL0     C42991   8.535   8.541  10.660 -0.0904  0.5801  0.1509
  319MOL0     C42992   8.592   8.681  10.683  0.3471  0.0814  1.1105
  319MOL0     C42993   8.738   8.679  10.719 -0.5623 -0.3715  0.3035
  319MOL0     C42994   8.800   8.815  10.713  1.3648 -0.0720 -0.2650
  319MOL0     C42995   8.849   8.922  10.683 -0.4589  0.0420 -0.6088
  319MOL0     C42996   8.098   8.525  10.623 -0.1297  0.4813  0.5332
  319MOL0     C42997   7.955   8.505  10.622 -0.5547 -1.3771 -0.9409
  319MOL0     H42998   7.558   8.724  11.046 -1.0841  0.8990  0.3972
  319MOL0     H42999   7.332   8.682  11.130  0.2433  1.2154 -0.9290
  319MOL0     H43000   7.191   8.470  11.237 -0.3864  0.0460  0.5375
  319MOL0     H43001   7.131   8.624  11.184  1.6773 -1.0337  0.1502
  319MOL0     H43002   6.936   8.534  11.257 -0.4932  0.0948 -1.6863
  319MOL0     H43003   6.938   8.483  11.084  2.8315 -0.3832 -1.8417
  319MOL0     H43004   6.834   8.299  11.211 -1.0553 -1.6624  2.2489
  319MOL0     H43005   6.987   8.254  11.151 -1.5916  1.3228 -1.4850
  319MOL0     H43006   7.099   8.238  11.351 -0.7457 -3.3392  0.6688
  319MOL0     H43007   6.995   8.366  11.422 -1.0977 -0.6168  0.1463
  319MOL0     H43008   6.976   8.148  11.520  1.9788  4.5533 -0.9585
  319MOL0     H43009   6.816   8.200  11.465  1.0725  4.1294  0.1909
  319MOL0     H43010   6.791   8.063  11.287  1.7444 -1.7551 -3.3485
  319MOL0     H43011   6.966   8.005  11.289  0.4836  0.8217 -0.7737
  319MOL0     H43012   6.940   7.905  11.505 -0.4659  0.9009  0.8887
  319MOL0     H43013   6.772   7.961  11.525 -2.0865  1.6925 -2.6845
  319MOL0     H43014   6.866   7.759  11.326 -1.3601 -2.2767  0.3747
  319MOL0     H43015   6.706   7.813  11.332  0.0638  1.8840  0.0771
  319MOL0     H43016   6.956   7.609  11.535 -0.1970  2.2444 -2.2624
  319MOL0     H43017   6.830   7.508  11.894 -2.2983  2.7722 -1.7604
  319MOL0     H43018   6.831   7.380  11.774  0.1039 -0.5073 -0.9259
  319MOL0     H43019   7.050   7.511  11.696  0.0500 -1.6910  0.9465
  319MOL0     H43020   7.041   7.396  11.829  1.5505  1.1341  1.7138
  319MOL0     H43021   7.175   7.597  11.900 -0.8033  0.1102  0.3185
  319MOL0     H43022   7.031   7.574  12.000  2.6947 -2.4721  0.5491
  319MOL0     H43023   7.076   7.800  11.953  0.1651  1.8365 -0.1456
  319MOL0     H43024   6.928   7.748  11.857 -0.0411 -4.2756 -1.7578
  319MOL0     H43025   6.973   8.016  11.863 -0.6678  1.5318 -0.1977
  319MOL0     H43026   6.977   8.350  11.777  2.4399  0.8964 -0.3832
  319MOL0     H43027   6.953   8.238  11.919 -0.7078  2.8917  1.9990
  319MOL0     H43028   7.106   8.330  11.896  0.3133 -0.7680 -1.6963
  319MOL0     H43029   7.279   8.554  11.436 -1.2717  0.9945  3.2876
  319MOL0     H43030   7.388   8.767  11.393 -2.3561 -0.5932  1.1467
  319MOL0     H43031   7.800   8.896  11.479  1.6160  0.2422 -1.9007
  319MOL0     H43032   7.756   8.742  11.400 -4.1952 -0.4586 -1.3441
  319MOL0     H43033   7.647   8.852  11.226 -0.9951  0.5571  1.1012
  319MOL0     H43034   7.649   9.007  11.303 -1.1642  0.0381 -1.3965
  319MOL0     H43035   7.903   9.003  11.311 -1.2779 -2.6929  2.3612
  319MOL0     H43036   7.826   9.032  11.148 -0.2814  1.4330  1.7592
  319MOL0     H43037   7.919   8.761  11.212 -0.9408 -0.8696 -1.9115
  319MOL0     H43038   7.899   8.837  11.059  1.1003 -0.1200 -0.4045
  319MOL0     H43039   8.102   8.983  11.141  0.9488 -0.8327 -5.5898
  319MOL0     H43040   8.123   8.832  11.068 -0.4357  1.1278 -0.9608
  319MOL0     H43041   8.099   8.883  11.369  0.0059  0.1040  0.6926
  319MOL0     H43042   8.133   8.731  11.314 -1.1314  0.1784 -0.4750
  319MOL0     H43043   8.343   8.803  11.372  3.4843  0.4455 -0.4716
  319MOL0     H43044   8.338   8.958  11.292  1.1293 -1.6030  0.4615
  319MOL0     H43045   8.484   8.820  11.168  0.0826 -1.0861  3.0482
  319MOL0     H43046   8.342   8.833  11.062 -0.8350 -3.2116 -0.5160
  319MOL0     H43047   7.710   8.647  11.669 -1.8502 -0.4303  3.2114
  319MOL0     H43048   7.584   8.423  11.698 -2.1214 -0.3628  0.9644
  319MOL0     H43049   7.333   8.111  11.537 -0.8242  0.7137 -0.7856
  319MOL0     H43050   7.243   7.884  11.561 -2.4351 -1.0146  0.8106
  319MOL0     H43051   7.285   8.380  10.812 -0.4814  2.1088 -3.0650
  319MOL0     H43052   7.490   8.429  10.733  2.1344  0.7106  0.7564
  319MOL0     H43053   7.894   8.647  10.923  1.0233  1.3088  0.3160
  319MOL0     H43054   8.130   8.682  10.918 -0.0284 -0.0691  0.0113
  319MOL0     H43055   8.367   8.436  10.625  1.1905 -0.1244 -2.9793
  319MOL0     H43056   8.359   8.602  10.553 -0.4358  0.1457 -0.2366
  319MOL0     H43057   8.573   8.488  10.573 -0.7245  2.6714 -1.4692
  319MOL0     H43058   8.576   8.469  10.733  1.8862 -1.0166 -2.3511
  319MOL0     H43059   8.543   8.720  10.772 -0.8304 -0.9797  0.9604
  319MOL0     H43060   8.570   8.735  10.590 -3.1794 -2.2171  0.3923
  319MOL0     H43061   8.785   8.616  10.643 -0.6764  0.3436 -0.3691
  319MOL0     H43062   8.753   8.637  10.819  1.1372 -2.2215 -0.6383
  319MOL0     H43063   8.884   9.015  10.642 -2.2386  0.5760 -0.9987
  319MOL0     H43064   8.155   8.499  10.535 -1.4531  2.8576 -1.1512
  319MOL0     H43065   7.915   8.457  10.533  2.1047  0.6012 -3.3904
  320MOL0     O43066   0.948  10.987   8.845 -0.0062 -0.5543 -0.9967
  320MOL0     C43067   0.966  10.874   8.891 -0.8781 -0.6030  0.6365
  320MOL0     O43068   0.862  10.791   8.918 -0.3013 -0.3146 -0.4411
  320MOL0     C43069   0.730  10.833   8.924 -0.2063 -0.2878 -0.1233
  320MOL0     C43070   0.661  10.893   8.819 -0.3391  0.8684  1.2822
  320MOL0     C43071   0.527  10.922   8.835  0.3274 -0.2163  0.3917
  320MOL0     C43072   0.461  10.902   8.966 -0.0180  0.8213  0.4077
  320MOL0     O43073   0.327  10.926   9.001 -0.2484 -0.3825  0.1724
  320MOL0     C43074   0.235  10.959   8.897 -1.0281 -0.1104 -0.4307
  320MOL0     C43075   0.100  10.921   8.945 -0.2937 -0.3117  0.2438
  320MOL0     C43076  -0.002  11.006   8.876 -1.1409 -0.4599  0.4023
  320MOL0     C43077  -0.137  10.996   8.947  0.3173  0.3267  0.2449
  320MOL0     C43078  -0.252  11.059   8.870 -0.1081 -0.4213  0.6231
  320MOL0     C43079  -0.387  11.021   8.937 -0.1138  0.6809  0.0185
  320MOL0     C43080  -0.510  11.087   8.878 -0.1959  1.1099 -0.5105
  320MOL0     C43081  -0.525  11.227   8.927  0.1865 -0.5698  0.0857
  320MOL0     N43082  -0.646  11.290   8.861 -0.2301 -0.0306 -0.7631
  320MOL0     C43083  -0.640  11.409   8.796 -0.0997 -0.6408 -0.8739
  320MOL0     C43084  -0.763  11.414   8.741 -0.2138  0.3178 -0.0175
  320MOL0     C43085  -0.806  11.518   8.645 -0.7209  0.1263  0.3374
  320MOL0     C43086  -0.876  11.636   8.709 -0.3472 -0.4080 -0.3811
  320MOL0     C43087  -1.022  11.613   8.747 -0.1582  0.7670 -0.1246
  320MOL0     C43088  -1.110  11.559   8.628 -1.1097 -0.3317 -0.2127
  320MOL0     O43089  -1.074  11.625   8.504 -0.3785 -0.1277 -0.0180
  320MOL0     C43090  -1.152  11.739   8.475 -0.1631  0.7814  1.2108
  320MOL0     C43091  -1.272  11.729   8.417 -0.2998  0.1067  0.7181
  320MOL0     C43092  -1.336  11.843   8.372  0.3515 -0.3175 -1.0085
  320MOL0     C43093  -1.457  11.817   8.296 -0.3060 -0.3738  0.5008
  320MOL0     C43094  -1.285  11.975   8.406 -0.3083 -0.4857  0.0500
  320MOL0     C43095  -1.361  12.097   8.385 -0.0997  0.0847  0.7443
  320MOL0     O43096  -1.291  12.225   8.408 -0.1846  0.9694 -0.1568
  320MOL0     C43097  -1.369  12.323   8.416  0.1727  0.6026 -0.6504
  320MOL0     C43098  -1.362  12.399   8.530 -0.0659  1.2647  0.0793
  320MOL0     C43099  -1.424  12.527   8.540  0.4896 -0.9195 -0.2303
  320MOL0     C43100  -1.481  12.582   8.427 -0.2690  0.8669  1.0305
  320MOL0     O43101  -1.556  12.695   8.417  0.3926 -0.1685 -0.3896
  320MOL0     C43102  -1.640  12.729   8.521 -0.5149  0.0439  0.6163
  320MOL0     C43103  -1.740  12.829   8.459  1.3189  0.0814 -0.4569
  320MOL0     C43104  -1.839  12.874   8.560  0.2449 -0.3855  0.0892
  320MOL0     C43105  -1.897  13.022   8.546  0.6835  0.9124  0.8685
  320MOL0     C43106  -2.000  13.056   8.657 -0.7269 -0.9487  0.5739
  320MOL0     C43107  -2.149  13.024   8.610  0.3446 -0.4737 -0.1803
  320MOL0     C43108  -2.186  12.878   8.610 -0.3448  0.1212 -0.6404
  320MOL0     C43109  -2.334  12.856   8.581 -0.0267  1.0781 -0.7427
  320MOL0    Cl43110  -2.443  12.930   8.707  0.4659  0.0589  0.2402
  320MOL0     C43111  -1.470  12.511   8.301  0.0091  0.0790 -0.5481
  320MOL0     C43112  -1.415  12.383   8.297  0.3169 -0.3028  0.7536
  320MOL0     O43113  -1.481  12.089   8.355  0.7730  0.4123 -0.1541
  320MOL0     C43114  -1.156  11.981   8.464 -0.2709 -0.0753  0.3663
  320MOL0     C43115  -1.092  11.859   8.487 -0.8120 -0.5942 -0.3474
  320MOL0     N43116  -0.844  11.307   8.774  0.2518 -0.5419  0.1259
  320MOL0     N43117  -0.772  11.233   8.850 -0.6573 -0.7467 -0.6632
  320MOL0     C43118   0.537  10.841   9.066  0.7012  0.0893  0.2787
  320MOL0     C43119   0.668  10.806   9.051  0.2331 -1.1178 -0.5219
  320MOL0     C43120   1.105  10.818   8.890  1.1074 -0.5394 -0.3596
  320MOL0     C43121   1.133  10.700   8.966 -0.2736 -0.1735  0.0539
  320MOL0     C43122   1.262  10.647   8.963  0.3459 -1.1322 -0.6462
  320MOL0     C43123   1.364  10.696   8.883  0.3500  0.3572 -0.0959
  320MOL0     O43124   1.486  10.634   8.884  0.7030 -1.1619  0.1101
  320MOL0     C43125   1.596  10.711   8.816  0.1727  0.3943 -0.5077
  320MOL0     C43126   1.728  10.638   8.841 -0.4116 -0.1991  0.1075
  320MOL0     C43127   1.843  10.727   8.792 -0.3816  0.4541  0.1321
  320MOL0     C43128   1.934  10.651   8.685 -1.1135 -0.3460  0.7369
  320MOL0     C43129   1.859  10.589   8.570  0.6798 -0.1068 -0.6706
  320MOL0     C43130   1.782  10.546   8.484 -0.2938  0.0664 -0.8254
  320MOL0     C43131   1.335  10.817   8.814 -0.3181 -0.4388  0.5880
  320MOL0     C43132   1.213  10.875   8.815 -0.9172 -0.5758 -0.8642
  320MOL0     H43133   0.718  10.901   8.727  1.4524  0.5922  2.3384
  320MOL0     H43134   0.474  10.968   8.752 -1.0459  2.1714  2.4597
  320MOL0     H43135   0.239  11.065   8.872  1.5435 -0.1703 -0.5725
  320MOL0     H43136   0.256  10.910   8.801  0.9492  1.0808 -0.6624
  320MOL0     H43137   0.088  10.817   8.912  1.7667 -0.2854 -0.7251
  320MOL0     H43138   0.085  10.941   9.052 -4.9895  6.1860 -1.0310
  320MOL0     H43139   0.032  11.110   8.876 -0.3944 -0.6960 -0.8384
  320MOL0     H43140  -0.018  10.980   8.771 -1.8758  0.8135  0.1690
  320MOL0     H43141  -0.162  10.890   8.961  0.2509  0.1191 -1.2363
  320MOL0     H43142  -0.132  11.047   9.044 -3.0577  1.0607  0.1327
  320MOL0     H43143  -0.248  11.168   8.878  0.6756 -0.2622 -1.2382
  320MOL0     H43144  -0.248  11.044   8.761  2.3695  0.2180  0.5785
  320MOL0     H43145  -0.391  10.913   8.917 -0.9840  0.4744  1.2182
  320MOL0     H43146  -0.390  11.040   9.045 -2.7005  3.5208 -0.4314
  320MOL0     H43147  -0.496  11.083   8.770 -2.2129 -0.3521 -0.7961
  320MOL0     H43148  -0.597  11.032   8.916  0.5332 -1.1943 -1.9473
  320MOL0     H43149  -0.432  11.284   8.921 -0.9683  1.2255 -3.0366
  320MOL0     H43150  -0.567  11.224   9.028 -0.7629  0.6711 -0.2534
  320MOL0     H43151  -0.558  11.477   8.778 -0.9817  0.2893 -1.4854
  320MOL0     H43152  -0.705  11.534   8.607  0.0281 -3.3462  0.4949
  320MOL0     H43153  -0.856  11.472   8.558  2.5153 -0.8474 -1.1684
  320MOL0     H43154  -0.867  11.715   8.634 -2.3279  2.4349  2.1248
  320MOL0     H43155  -0.811  11.654   8.795 -0.7518 -2.2089  0.3554
  320MOL0     H43156  -1.067  11.697   8.801 -1.9809 -1.0907  1.4357
  320MOL0     H43157  -1.014  11.539   8.828  1.1932  0.8952 -0.1145
  320MOL0     H43158  -1.214  11.574   8.657 -0.8250  0.5670  0.3888
  320MOL0     H43159  -1.087  11.452   8.620 -0.5610 -0.4330  2.1090
  320MOL0     H43160  -1.311  11.630   8.398 -1.6498  0.8293 -0.4859
  320MOL0     H43161  -1.454  11.887   8.211  1.4201 -0.3322  0.5482
  320MOL0     H43162  -1.467  11.716   8.256 -3.2729  0.5293 -1.3506
  320MOL0     H43163  -1.541  11.840   8.362 -1.2661  2.7333 -1.5898
  320MOL0     H43164  -1.311  12.362   8.618 -0.7649  0.0737  0.0035
  320MOL0     H43165  -1.417  12.581   8.634  2.7622 -0.8991 -0.3762
  320MOL0     H43166  -1.695  12.640   8.554 -0.2357 -0.5826 -0.5639
  320MOL0     H43167  -1.575  12.782   8.591  1.1632  0.0731 -0.8951
  320MOL0     H43168  -1.685  12.915   8.419  1.4820 -0.7817 -2.1584
  320MOL0     H43169  -1.794  12.777   8.380  0.4250  1.1924 -0.6027
  320MOL0     H43170  -1.790  12.881   8.657  2.6702  1.7524 -1.1853
  320MOL0     H43171  -1.924  12.805   8.568 -0.8787  0.7978 -1.0003
  320MOL0     H43172  -1.807  13.083   8.536  1.8818 -1.0880 -1.9684
  320MOL0     H43173  -1.951  13.030   8.451 -1.7157 -0.2007  2.0333
  320MOL0     H43174  -1.979  13.160   8.687 -0.1385 -1.3444  1.5946
  320MOL0     H43175  -1.976  12.995   8.744  3.1803 -0.6808 -0.1180
  320MOL0     H43176  -2.213  13.080   8.679  1.1953  1.9755 -1.2723
  320MOL0     H43177  -2.171  13.067   8.512 -1.1301 -0.0388  0.3138
  320MOL0     H43178  -2.154  12.841   8.708 -0.6886 -0.5738 -0.7867
  320MOL0     H43179  -2.127  12.825   8.534  1.8493  2.7709 -0.9232
  320MOL0     H43180  -2.353  12.748   8.575  0.7278  0.9522 -0.9787
  320MOL0     H43181  -2.361  12.896   8.483 -1.5293  1.8054 -0.0738
  320MOL0     H43182  -1.530  12.554   8.221 -3.2895 -0.9329  1.1919
  320MOL0     H43183  -1.398  12.325   8.206  0.2854 -0.9285  1.1347
  320MOL0     H43184  -1.107  12.075   8.484  1.6225 -0.7715 -0.7103
  320MOL0     H43185  -0.991  11.864   8.524 -1.2154  0.8948  0.6482
  320MOL0     H43186   0.494  10.810   9.160  1.3965 -2.1519 -0.0940
  320MOL0     H43187   0.713  10.759   9.138 -2.1337 -1.6192  0.5242
  320MOL0     H43188   1.055  10.637   9.008  1.7261 -3.1569 -0.4076
  320MOL0     H43189   1.277  10.556   9.020 -0.7886 -0.6739  0.4281
  320MOL0     H43190   1.568  10.715   8.710 -1.5507  2.5784 -0.0369
  320MOL0     H43191   1.603  10.813   8.854 -0.0937  0.2470 -0.0537
  320MOL0     H43192   1.740  10.535   8.806 -0.1865 -1.0365  2.4748
  320MOL0     H43193   1.736  10.638   8.950 -0.5734  2.1100  0.1780
  320MOL0     H43194   1.908  10.754   8.876 -0.3188  1.3967 -0.2132
  320MOL0     H43195   1.799  10.808   8.733 -2.2926 -1.1762 -0.8038
  320MOL0     H43196   2.002  10.574   8.722  0.5719  0.4800 -0.4928
  320MOL0     H43197   1.996  10.727   8.637 -1.5329  0.7992  1.9569
  320MOL0     H43198   1.722  10.522   8.399  0.8289  0.1780 -1.6828
  320MOL0     H43199   1.405  10.877   8.758 -0.9919 -0.0430  0.1502
  320MOL0     H43200   1.196  10.975   8.776 -0.0308  0.1967  0.6422
  321MOL0     O43201   8.790  10.219  11.122 -0.2073  0.0257  0.3431
  321MOL0     C43202   8.850  10.113  11.115 -0.3784  0.6644  0.6698
  321MOL0     O43203   8.792   9.995  11.076 -0.2692  0.3860  0.1093
  321MOL0     C43204   8.656   9.982  11.083 -0.6110  0.9018 -0.0733
  321MOL0     C43205   8.587  10.041  10.986 -0.5089 -0.3652 -0.5976
  321MOL0     C43206   8.449  10.037  10.982  0.4781  0.9076  0.1517
  321MOL0     C43207   8.380   9.944  11.070  0.0402  0.4631 -0.4602
  321MOL0     O43208   8.247   9.916  11.064 -0.2716  0.1167  0.2837
  321MOL0     C43209   8.152  10.003  11.017  0.8509  0.0121 -0.0469
  321MOL0     C43210   8.015   9.952  11.073 -0.4727 -0.1468  0.4101
  321MOL0     C43211   7.899  10.025  11.016  0.0313 -0.5354 -0.5516
  321MOL0     C43212   7.762   9.997  11.094 -0.2679  0.7047  0.7093
  321MOL0     C43213   7.669  10.112  11.065 -0.3725  0.7046  0.0178
  321MOL0     C43214   7.588  10.092  10.931 -0.4212  0.0193  0.3259
  321MOL0     C43215   7.461  10.182  10.934  0.4371  0.4998 -0.1602
  321MOL0     C43216   7.483  10.325  10.985  0.4865 -0.5020  0.2556
  321MOL0     N43217   7.379  10.401  10.923 -0.0778  0.1233  1.4503
  321MOL0     C43218   7.244  10.386  10.949 -0.3086  0.0310  0.0817
  321MOL0     C43219   7.189  10.498  10.907 -1.5453  0.0803  0.2949
  321MOL0     C43220   7.040  10.540  10.925 -0.5096 -0.3421  0.2737
  321MOL0     C43221   6.946  10.437  10.867 -0.9403  1.1813  0.5311
  321MOL0     C43222   6.951  10.411  10.716  0.5160  0.2858 -0.6609
  321MOL0     C43223   6.928  10.535  10.632  0.0068  0.7614  0.0226
  321MOL0     O43224   6.873  10.511  10.493  0.1742  0.0986  0.0066
  321MOL0     C43225   6.737  10.498  10.477 -1.0661  0.6222  0.1816
  321MOL0     C43226   6.694  10.507  10.346 -0.5077  0.2610 -0.3554
  321MOL0     C43227   6.560  10.486  10.307 -1.1923 -0.0238  0.0713
  321MOL0     C43228   6.525  10.504  10.166 -0.2081 -0.6397  0.2450
  321MOL0     C43229   6.463  10.461  10.407  0.5434 -0.6376 -0.0475
  321MOL0     C43230   6.319  10.434  10.379  0.3162  0.0538  1.5881
  321MOL0     O43231   6.251  10.424  10.492 -0.5803  0.2323 -0.4751
  321MOL0     C43232   6.110  10.429  10.502  0.2147  0.4010  0.0958
  321MOL0     C43233   6.049  10.381  10.618 -0.4091 -0.5106  0.3099
  321MOL0     C43234   5.909  10.400  10.640 -0.8698  0.8213  0.3864
  321MOL0     C43235   5.827  10.463  10.541 -0.1334  0.3877  0.4434
  321MOL0     O43236   5.698  10.469  10.567  0.5037  0.1798 -0.8254
  321MOL0     C43237   5.632  10.595  10.553  0.0661 -0.0784 -0.6255
  321MOL0     C43238   5.503  10.589  10.639 -0.6645  0.3738  0.9728
  321MOL0     C43239   5.419  10.718  10.640 -0.5025 -0.4041  0.0875
  321MOL0     C43240   5.297  10.704  10.734 -0.2477 -0.3955 -0.0412
  321MOL0     C43241   5.326  10.744  10.881 -0.1815 -0.5045 -0.0178
  321MOL0     C43242   5.207  10.752  10.976  0.5474 -0.2003 -0.1818
  321MOL0     C43243   5.131  10.885  10.955  0.0266  0.5233  1.3003
  321MOL0     C43244   5.205  11.002  11.016 -0.0959  0.1181 -0.0322
  321MOL0    Cl43245   5.148  11.155  10.951 -0.1071 -0.1458 -0.4252
  321MOL0     C43246   5.896  10.522  10.431  0.5410 -0.4420  0.0308
  321MOL0     C43247   6.035  10.504  10.411  0.3254 -0.5434  0.2179
  321MOL0     O43248   6.269  10.418  10.266 -0.2616  0.3731  0.0815
  321MOL0     C43249   6.514  10.459  10.543 -0.1214 -0.0387  0.3888
  321MOL0     C43250   6.649  10.471  10.572 -0.3203  0.2748  0.1790
  321MOL0     N43251   7.283  10.588  10.852  0.3868 -0.2600 -0.3748
  321MOL0     N43252   7.398  10.526  10.865  1.1978  0.4212  0.4161
  321MOL0     C43253   8.457   9.861  11.157  0.5188 -0.0698 -0.1278
  321MOL0     C43254   8.597   9.887  11.165  0.1059  0.5627  0.2274
  321MOL0     C43255   8.996  10.127  11.125  0.0044 -0.6861  0.1217
  321MOL0     C43256   9.079  10.022  11.110 -0.3080  0.1282  0.3290
  321MOL0     C43257   9.211  10.019  11.157 -0.4233 -0.1933  0.2515
  321MOL0     C43258   9.273  10.128  11.207 -0.3293 -0.5132 -0.4681
  321MOL0     O43259   9.411  10.131  11.235  0.2199 -0.2891  0.2409
  321MOL0     C43260   9.470  10.240  11.298  0.2365 -0.1084  0.9225
  321MOL0     C43261   9.620  10.199  11.317  0.1189  0.4592  0.6641
  321MOL0     C43262   9.629  10.090  11.434 -0.0440  0.0343 -0.5001
  321MOL0     C43263   9.769  10.080  11.479 -0.7774 -0.4447 -0.4152
  321MOL0     C43264   9.850   9.997  11.387 -0.2928  0.2953 -0.2435
  321MOL0     C43265   9.910   9.928  11.309 -0.2019 -0.2296 -0.3426
  321MOL0     C43266   9.190  10.239  11.215  0.5411 -0.4640  0.0423
  321MOL0     C43267   9.053  10.246  11.174  0.0299 -0.4792 -0.1372
  321MOL0     H43268   8.631  10.102  10.908 -0.7324 -1.7045 -1.7947
  321MOL0     H43269   8.390  10.095  10.912  0.8475  2.1993  0.8734
  321MOL0     H43270   8.174  10.105  11.049  1.9826 -0.5407  1.0295
  321MOL0     H43271   8.160   9.986  10.909  0.4277 -4.0532  0.3927
  321MOL0     H43272   8.001   9.844  11.064  1.1184 -0.4313  1.1319
  321MOL0     H43273   8.020   9.977  11.180  0.6204  0.0487  0.3223
  321MOL0     H43274   7.927  10.128  11.038  0.0931 -0.6355 -0.1664
  321MOL0     H43275   7.894  10.007  10.908  2.5641 -0.3433 -0.7579
  321MOL0     H43276   7.720   9.896  11.089 -3.1230  1.6637  2.6015
  321MOL0     H43277   7.780  10.004  11.202 -0.6439 -1.8308  0.9963
  321MOL0     H43278   7.598  10.121  11.147 -1.3332 -2.0738 -0.4173
  321MOL0     H43279   7.732  10.201  11.062  0.0616  0.4837  1.8250
  321MOL0     H43280   7.648  10.104  10.840  1.7016 -0.8532  1.5537
  321MOL0     H43281   7.560   9.987  10.936  1.0857 -0.4952 -1.2197
  321MOL0     H43282   7.429  10.189  10.829  0.4149  0.0975 -0.1787
  321MOL0     H43283   7.390  10.135  11.003  1.2201 -3.9305 -2.0626
  321MOL0     H43284   7.583  10.357  10.956  1.5344 -2.0590  2.0081
  321MOL0     H43285   7.473  10.347  11.091  1.6217 -0.1353  0.2952
  321MOL0     H43286   7.177  10.324  11.008  0.9243  0.5285  2.0746
  321MOL0     H43287   7.023  10.555  11.032  2.0795 -1.9607  1.0100
  321MOL0     H43288   7.025  10.635  10.872  2.5257 -0.9148 -1.8416
  321MOL0     H43289   6.843  10.453  10.900 -0.9694 -0.9393  1.6131
  321MOL0     H43290   6.980  10.339  10.902  0.2166  1.1787 -0.5580
  321MOL0     H43291   6.872  10.338  10.696 -1.4621  1.5306  2.0065
  321MOL0     H43292   7.040  10.357  10.682 -1.1328 -0.3220 -4.5719
  321MOL0     H43293   7.028  10.579  10.627 -0.7765  2.9244  1.7460
  321MOL0     H43294   6.868  10.613  10.680 -0.0439  1.9279 -1.8378
  321MOL0     H43295   6.776  10.522  10.276 -0.9878 -2.2898 -1.5895
  321MOL0     H43296   6.433  10.561  10.152  1.1560  1.0469 -3.1205
  321MOL0     H43297   6.597  10.571  10.117 -1.3706  0.4573 -0.0188
  321MOL0     H43298   6.530  10.414  10.104  1.9687  0.0153 -0.6451
  321MOL0     H43299   6.102  10.327  10.695  1.1593  3.6082  2.4129
  321MOL0     H43300   5.856  10.371  10.730  0.5359  0.6586  1.1989
  321MOL0     H43301   5.687  10.678  10.597 -0.6227  0.1572 -0.1942
  321MOL0     H43302   5.612  10.613  10.447  1.0445  0.4588 -0.7258
  321MOL0     H43303   5.455  10.500  10.597  4.0838 -0.6835 -3.2514
  321MOL0     H43304   5.522  10.562  10.743 -1.5148 -0.7845  0.8512
  321MOL0     H43305   5.378  10.738  10.540 -2.4994  1.6571  1.2250
  321MOL0     H43306   5.482  10.804  10.667  0.1707 -2.2312  5.5753
  321MOL0     H43307   5.225  10.776  10.695  2.0739  2.4088  0.5792
  321MOL0     H43308   5.269  10.598  10.731  0.8865 -0.6825 -1.3025
  321MOL0     H43309   5.373  10.842  10.886 -0.8024 -0.1551 -0.8846
  321MOL0     H43310   5.399  10.668  10.913  0.2127 -0.7272 -1.3605
  321MOL0     H43311   5.147  10.664  10.950  1.5626 -0.2394 -2.6567
  321MOL0     H43312   5.243  10.739  11.079 -0.0279  0.1533  0.0683
  321MOL0     H43313   5.030  10.868  10.992  0.8019 -3.2534  2.1479
  321MOL0     H43314   5.122  10.914  10.850 -3.3756  1.4801  1.7688
  321MOL0     H43315   5.310  11.006  10.984 -0.0069  0.0306  0.2496
  321MOL0     H43316   5.202  11.008  11.125  0.4129 -0.3614  0.0112
  321MOL0     H43317   5.842  10.589  10.365  0.8599  1.5230  1.6743
  321MOL0     H43318   6.082  10.552  10.326  0.3177 -1.5754 -0.3892
  321MOL0     H43319   6.443  10.479  10.622 -0.0681  0.1804  0.3827
  321MOL0     H43320   6.678  10.463  10.676  0.3956 -0.0584 -0.0473
  321MOL0     H43321   8.398   9.788  11.212 -2.2212  0.8905 -1.5842
  321MOL0     H43322   8.663   9.831  11.231 -0.2865  0.4007  0.4848
  321MOL0     H43323   9.037   9.934  11.063 -1.7077  0.9645 -0.0505
  321MOL0     H43324   9.267   9.926  11.158 -2.4920 -1.5089  1.5677
  321MOL0     H43325   9.468  10.317  11.221  1.7299 -1.3693 -0.4567
  321MOL0     H43326   9.427  10.271  11.394  1.7070 -0.0472  1.5854
  321MOL0     H43327   9.672  10.290  11.347 -0.1336  1.1487 -0.8654
  321MOL0     H43328   9.668  10.170  11.223 -0.7531 -0.1954  0.4025
  321MOL0     H43329   9.580   9.993  11.416 -0.0923  0.2231 -1.4649
  321MOL0     H43330   9.569  10.120  11.520 -1.3924 -0.6453 -1.1619
  321MOL0     H43331   9.770  10.038  11.580 -0.4446  0.2847 -0.1052
  321MOL0     H43332   9.817  10.178  11.477  0.2802 -0.8829  1.3176
  321MOL0     H43333   9.947   9.871  11.226 -0.3825  0.3764 -0.8485
  321MOL0     H43334   9.225  10.330  11.262  0.8206 -1.1145  1.1232
  321MOL0     H43335   8.990  10.334  11.177 -1.4417 -1.4075 -1.8475
  322MOL0     O43336   2.925  10.994   6.099  0.0494  0.4533  0.1437
  322MOL0     C43337   2.984  10.885   6.121 -0.4457  0.5549 -0.5788
  322MOL0     O43338   3.112  10.863   6.101 -0.3065  0.9394  0.0473
  322MOL0     C43339   3.197  10.958   6.045  0.6190  0.5617  0.3740
  322MOL0     C43340   3.302  11.007   6.111  0.8779  0.6230 -0.0047
  322MOL0     C43341   3.386  11.113   6.065  0.5412 -0.1655  0.0090
  322MOL0     C43342   3.358  11.173   5.950  0.6121  0.2929  0.8174
  322MOL0     O43343   3.426  11.271   5.880  0.5258  0.3357  0.0726
  322MOL0     C43344   3.572  11.258   5.865  0.4498  0.4507  0.5941
  322MOL0     C43345   3.602  11.343   5.744 -0.5924  0.3378 -0.2151
  322MOL0     C43346   3.524  11.302   5.618  0.5462 -0.1850 -0.5349
  322MOL0     C43347   3.428  11.411   5.564 -0.6893  0.3818  0.1135
  322MOL0     C43348   3.501  11.526   5.494 -0.4721  0.1009 -0.2087
  322MOL0     C43349   3.404  11.633   5.430  0.6281  0.4232 -0.5104
  322MOL0     C43350   3.470  11.716   5.322  0.6508  0.7095 -0.7447
  322MOL0     C43351   3.369  11.809   5.244  0.0609  0.4677  0.1272
  322MOL0     N43352   3.265  11.867   5.327 -0.1988 -0.6174 -0.7657
  322MOL0     C43353   3.141  11.822   5.338 -0.0160 -0.5676  0.1471
  322MOL0     C43354   3.077  11.896   5.434  0.4258 -0.7102  0.1727
  322MOL0     C43355   2.939  11.880   5.478 -0.0909  0.0641  0.0145
  322MOL0     C43356   2.836  11.943   5.375 -0.0105  1.3407 -0.0865
  322MOL0     C43357   2.867  11.904   5.226  0.0476 -0.4203 -0.6795
  322MOL0     C43358   2.747  11.918   5.134  0.0505  0.3635 -0.0878
  322MOL0     O43359   2.682  12.044   5.136 -0.9145 -0.6451 -0.5500
  322MOL0     C43360   2.545  12.044   5.138  0.0105 -0.0916 -0.3575
  322MOL0     C43361   2.484  12.126   5.227  0.0526  0.0168  0.3422
  322MOL0     C43362   2.346  12.134   5.237  0.8293  0.8628  0.5025
  322MOL0     C43363   2.277  12.226   5.331 -0.2233  0.1124  0.2697
  322MOL0     C43364   2.270  12.056   5.137  0.7472 -0.3075  0.8625
  322MOL0     C43365   2.118  12.067   5.124  0.0008 -0.5740  0.3520
  322MOL0     O43366   2.046  12.096   5.235 -0.1353  0.0125 -0.4129
  322MOL0     C43367   1.915  12.082   5.226  0.1756 -0.7869 -0.1302
  322MOL0     C43368   1.851  11.966   5.279 -0.2176  0.0389 -0.6113
  322MOL0     C43369   1.715  11.956   5.285  0.4055  0.2612  0.0222
  322MOL0     C43370   1.632  12.060   5.234  0.1886 -0.1557 -0.0430
  322MOL0     O43371   1.494  12.038   5.240 -0.2259 -0.0441  0.2794
  322MOL0     C43372   1.412  12.143   5.206  0.7061 -0.4077 -0.3740
  322MOL0     C43373   1.273  12.088   5.195  0.3711 -0.0993 -0.3261
  322MOL0     C43374   1.222  12.027   5.327  0.9976  1.2424 -0.7538
  322MOL0     C43375   1.077  11.980   5.295  0.3216  0.4249 -0.3901
  322MOL0     C43376   1.005  11.913   5.421  0.0463 -0.4691  0.4091
  322MOL0     C43377   1.040  11.970   5.559 -0.4148 -0.2708  1.1890
  322MOL0     C43378   0.967  11.900   5.671  0.3935  0.1187 -0.1272
  322MOL0     C43379   1.044  11.771   5.716 -0.1135  0.2871  0.5274
  322MOL0    Cl43380   0.909  11.686   5.804 -0.0692 -0.2901  0.0664
  322MOL0     C43381   1.691  12.177   5.177 -0.3778 -0.0115  0.0064
  322MOL0     C43382   1.832  12.186   5.174 -0.9543  0.5144 -0.2518
  322MOL0     O43383   2.071  12.054   5.010 -0.2467  0.3667 -0.4847
  322MOL0     C43384   2.330  11.981   5.040  0.2166  0.7445 -0.5759
  322MOL0     C43385   2.467  11.966   5.047 -0.4719 -0.5956 -0.0029
  322MOL0     N43386   3.173  11.997   5.465  0.0246 -0.5828  0.2929
  322MOL0     N43387   3.281  11.978   5.393 -0.6182 -0.6672  0.3912
  322MOL0     C43388   3.239  11.130   5.880 -0.9527 -0.0242 -0.6308
  322MOL0     C43389   3.162  11.023   5.926  0.0210 -0.7193  0.8746
  322MOL0     C43390   2.916  10.776   6.202 -0.6990  0.6343 -0.1732
  322MOL0     C43391   2.776  10.770   6.220 -0.4596 -0.2066  0.4099
  322MOL0     C43392   2.713  10.671   6.291 -0.7702  0.0779 -0.1600
  322MOL0     C43393   2.792  10.574   6.350 -0.7850  0.3571 -0.1167
  322MOL0     O43394   2.731  10.485   6.423  0.2979  0.1296  0.1558
  322MOL0     C43395   2.795  10.380   6.497  0.1192 -0.1119  0.2555
  322MOL0     C43396   2.704  10.300   6.579  0.2201 -0.3966  0.1430
  322MOL0     C43397   2.791  10.206   6.661  0.4174 -0.0802 -0.1733
  322MOL0     C43398   2.881  10.110   6.585 -0.7125  0.2653  0.7368
  322MOL0     C43399   3.024  10.160   6.591 -0.2422 -0.0473  0.2960
  322MOL0     C43400   3.142  10.205   6.576  0.4495 -0.0746 -0.6572
  322MOL0     C43401   2.931  10.559   6.325 -0.1697  0.0453 -0.0527
  322MOL0     C43402   2.993  10.665   6.249 -0.3716 -0.3286 -0.2818
  322MOL0     H43403   3.318  10.946   6.200 -0.5849 -1.1529 -0.9028
  322MOL0     H43404   3.467  11.154   6.125 -0.8901  2.7550  0.0987
  322MOL0     H43405   3.610  11.305   5.956 -0.7556  1.7334  0.4676
  322MOL0     H43406   3.602  11.155   5.848 -0.7210  0.1903  0.0300
  322MOL0     H43407   3.584  11.449   5.765 -0.8189  0.0551  1.0756
  322MOL0     H43408   3.704  11.318   5.713 -0.0695  1.6515  0.3903
  322MOL0     H43409   3.595  11.267   5.543 -0.2202  0.9616 -1.8398
  322MOL0     H43410   3.453  11.222   5.643 -0.1369  0.8772  1.2095
  322MOL0     H43411   3.370  11.362   5.485 -1.1698  0.3540  0.4820
  322MOL0     H43412   3.359  11.432   5.646 -1.4219  1.4190 -0.7493
  322MOL0     H43413   3.562  11.572   5.574 -0.9623  0.1610  0.1332
  322MOL0     H43414   3.570  11.487   5.419  3.5870  0.6456  2.8573
  322MOL0     H43415   3.324  11.578   5.380 -2.9414  3.0108  1.8418
  322MOL0     H43416   3.361  11.688   5.514  1.7167 -4.7437  4.0499
  322MOL0     H43417   3.538  11.788   5.370 -0.1662  0.3857  0.9816
  322MOL0     H43418   3.515  11.649   5.248 -0.2979  0.5897 -1.2220
  322MOL0     H43419   3.314  11.739   5.180 -2.2511  1.3777  0.9943
  322MOL0     H43420   3.423  11.892   5.198  1.0322 -1.1075 -1.6900
  322MOL0     H43421   3.106  11.723   5.310  1.5177 -1.3052  0.7183
  322MOL0     H43422   2.910  11.779   5.507 -1.2296  0.1692 -0.6937
  322MOL0     H43423   2.927  11.936   5.572 -0.0554 -0.0933  0.1138
  322MOL0     H43424   2.843  12.052   5.387  5.4725  1.2747  0.0352
  322MOL0     H43425   2.738  11.904   5.405  1.2206  0.2329  2.9960
  322MOL0     H43426   2.896  11.799   5.222 -2.0722 -1.2434  2.4106
  322MOL0     H43427   2.954  11.961   5.191  2.7528 -3.6201  0.4050
  322MOL0     H43428   2.673  11.841   5.158 -2.0782  2.4350  0.3781
  322MOL0     H43429   2.784  11.889   5.036  1.8587 -1.7664  1.1397
  322MOL0     H43430   2.545  12.186   5.295 -2.3680  2.5206  0.4717
  322MOL0     H43431   2.192  12.282   5.291  0.4806  0.5140 -0.7031
  322MOL0     H43432   2.253  12.179   5.427 -0.4762 -0.1087  0.1011
  322MOL0     H43433   2.341  12.309   5.363 -2.4015  2.5982 -1.3288
  322MOL0     H43434   1.918  11.890   5.319 -0.4733  0.4656  0.6917
  322MOL0     H43435   1.667  11.878   5.343  1.7683 -0.4110  0.2959
  322MOL0     H43436   1.400  12.211   5.291 -3.6219 -3.7443  2.1334
  322MOL0     H43437   1.438  12.193   5.112 -0.6307 -0.7906 -0.9824
  322MOL0     H43438   1.204  12.166   5.161 -2.7679 -2.7004 -0.5023
  322MOL0     H43439   1.273  12.009   5.119 -0.4055  0.0832 -0.5262
  322MOL0     H43440   1.230  12.096   5.411 -1.2829 -1.9208  2.3728
  322MOL0     H43441   1.279  11.943   5.369 -1.0180 -0.5583 -1.4246
  322MOL0     H43442   1.020  12.059   5.245 -4.1865 -0.9413  2.0979
  322MOL0     H43443   1.100  11.904   5.220  1.8303  1.8521 -1.4812
  322MOL0     H43444   1.039  11.809   5.416  4.1668  0.7102 -0.0673
  322MOL0     H43445   0.898  11.922   5.401 -0.6193 -3.5676  1.9658
  322MOL0     H43446   1.147  11.956   5.576 -0.4557 -0.6598  1.1324
  322MOL0     H43447   1.009  12.075   5.561 -0.7228 -0.3201  0.0011
  322MOL0     H43448   0.865  11.870   5.644  0.6820  0.6170 -1.9072
  322MOL0     H43449   0.954  11.973   5.751  0.8509  0.0334  0.0273
  322MOL0     H43450   1.132  11.784   5.780 -0.0697 -0.7729  0.7055
  322MOL0     H43451   1.078  11.694   5.646 -4.1657 -0.3347 -0.9865
  322MOL0     H43452   1.642  12.263   5.132 -1.6991 -1.0841 -0.6885
  322MOL0     H43453   1.862  12.280   5.130  0.0255  1.0637  1.4874
  322MOL0     H43454   2.271  11.941   4.959 -1.2125  0.0038  0.7733
  322MOL0     H43455   2.520  11.918   4.965  0.0453  1.0631 -0.6731
  322MOL0     H43456   3.220  11.167   5.780  0.4810  0.9693 -0.5692
  322MOL0     H43457   3.073  10.986   5.876  1.6506 -1.5686 -1.5385
  322MOL0     H43458   2.716  10.850   6.176 -2.2378 -2.5038 -1.5833
  322MOL0     H43459   2.605  10.660   6.301 -0.4992 -0.5454  3.0043
  322MOL0     H43460   2.850  10.318   6.426 -2.2666 -3.1590  0.8931
  322MOL0     H43461   2.866  10.428   6.565 -0.2142 -2.1605  2.1560
  322MOL0     H43462   2.650  10.231   6.514  1.5803 -0.4347 -1.0114
  322MOL0     H43463   2.640  10.362   6.642  0.0082 -1.6355  1.1779
  322MOL0     H43464   2.726  10.135   6.714  0.5382  0.5580  0.8530
  322MOL0     H43465   2.855  10.257   6.733  0.7997 -1.4789  0.5184
  322MOL0     H43466   2.842  10.099   6.484  0.1690 -0.4444  0.4573
  322MOL0     H43467   2.876  10.009   6.627 -4.0895 -0.6804 -1.5079
  322MOL0     H43468   3.239  10.246   6.559 -0.9193  3.6019 -0.5173
  322MOL0     H43469   2.993  10.475   6.356  0.6607  0.5367 -0.3320
  322MOL0     H43470   3.090  10.645   6.206 -1.0032  0.1572 -1.9989
  323MOL0     O43471   3.746   1.007   3.015 -0.6400 -0.8555 -0.0562
  323MOL0     C43472   3.663   0.945   2.950 -0.2683 -0.6215 -0.5351
  323MOL0     O43473   3.607   0.825   2.979 -0.4159 -0.1179 -0.6651
  323MOL0     C43474   3.657   0.743   3.077 -0.4118 -0.2964  0.2568
  323MOL0     C43475   3.789   0.742   3.128 -0.2904  0.1517  0.6948
  323MOL0     C43476   3.823   0.649   3.221  0.6424 -0.5265  0.6182
  323MOL0     C43477   3.733   0.549   3.264 -0.2015 -0.0881 -0.0129
  323MOL0     O43478   3.770   0.478   3.382  0.1227 -0.3213 -0.1085
  323MOL0     C43479   3.691   0.370   3.427  0.0343  0.5636 -0.7903
  323MOL0     C43480   3.748   0.271   3.531  0.4829 -0.1003  1.3010
  323MOL0     C43481   3.788   0.347   3.659  0.4091  0.1256 -0.6035
  323MOL0     C43482   3.821   0.262   3.777  0.5030 -0.7484 -0.4264
  323MOL0     C43483   3.839   0.367   3.897  0.8255  1.2058  0.2152
  323MOL0     C43484   3.731   0.340   4.005 -0.2009  0.2342  0.4320
  323MOL0     C43485   3.735   0.440   4.121 -0.6822  0.5745  0.3168
  323MOL0     C43486   3.661   0.570   4.075  0.4807  0.2588 -0.0674
  323MOL0     N43487   3.526   0.543   4.043 -0.2821  0.7208 -0.1963
  323MOL0     C43488   3.433   0.557   4.144 -0.3244  0.2948  0.4827
  323MOL0     C43489   3.314   0.533   4.087 -0.6566 -0.3008  0.4238
  323MOL0     C43490   3.183   0.541   4.147  0.4073 -0.0702  0.1268
  323MOL0     C43491   3.109   0.408   4.173 -1.2436 -0.8429  0.0085
  323MOL0     C43492   3.002   0.432   4.269  1.1699 -0.3906 -0.6420
  323MOL0     C43493   2.922   0.301   4.295 -0.6280 -0.3001 -0.7078
  323MOL0     O43494   2.817   0.337   4.381 -0.6909  0.4188 -0.1583
  323MOL0     C43495   2.683   0.328   4.346  0.3221  0.4069  0.4257
  323MOL0     C43496   2.626   0.311   4.218 -0.3101 -0.0001 -0.0206
  323MOL0     C43497   2.489   0.324   4.187 -0.4335  0.1552  0.1507
  323MOL0     C43498   2.449   0.320   4.050 -0.1699 -0.2606  0.6637
  323MOL0     C43499   2.398   0.354   4.287 -0.5235  0.2228 -0.2333
  323MOL0     C43500   2.257   0.359   4.267  0.4078 -0.6335 -0.9095
  323MOL0     O43501   2.190   0.408   4.374 -0.3342 -0.5468  0.3075
  323MOL0     C43502   2.055   0.417   4.361  1.3853  0.3004 -1.0604
  323MOL0     C43503   1.997   0.535   4.396  0.0689 -0.2064  1.4600
  323MOL0     C43504   1.859   0.553   4.390  0.2402 -0.1776  0.5854
  323MOL0     C43505   1.773   0.452   4.360  0.3371  0.0806 -0.7907
  323MOL0     O43506   1.640   0.464   4.349 -0.3074  0.4320  0.5047
  323MOL0     C43507   1.575   0.559   4.433  0.5402  0.3749 -0.1076
  323MOL0     C43508   1.425   0.578   4.391 -0.0643  0.3618  1.1054
  323MOL0     C43509   1.414   0.618   4.238 -0.2995  0.6970 -0.5875
  323MOL0     C43510   1.266   0.658   4.218 -0.7684 -0.7245  0.4119
  323MOL0     C43511   1.169   0.540   4.250  0.1651 -0.9126  0.9591
  323MOL0     C43512   1.017   0.565   4.219 -0.2917  0.1223  0.3561
  323MOL0     C43513   0.955   0.695   4.257  0.6574  0.7505 -0.2677
  323MOL0     C43514   0.803   0.692   4.230  0.2085 -0.0342  0.0365
  323MOL0    Cl43515   0.769   0.658   4.055 -0.2479  0.1388 -0.1903
  323MOL0     C43516   1.829   0.328   4.318  0.4133  0.1038 -0.7978
  323MOL0     C43517   1.970   0.314   4.322  0.1300 -0.2498  0.6490
  323MOL0     O43518   2.202   0.334   4.157  0.7045 -0.6654 -0.3188
  323MOL0     C43519   2.446   0.354   4.420 -0.5531 -0.0099 -0.2964
  323MOL0     C43520   2.588   0.338   4.446  0.8454 -0.5483 -1.0157
  323MOL0     N43521   3.341   0.502   3.954 -1.0509 -0.0318 -0.4008
  323MOL0     N43522   3.469   0.517   3.921  0.4650  0.1376 -0.2840
  323MOL0     C43523   3.604   0.551   3.218  0.7094  0.0087  0.8334
  323MOL0     C43524   3.565   0.650   3.123 -0.4002  0.0202 -0.5333
  323MOL0     C43525   3.606   1.013   2.832 -0.1041 -0.0440  0.2693
  323MOL0     C43526   3.616   1.148   2.805 -0.9373  0.2919  0.2625
  323MOL0     C43527   3.538   1.212   2.710 -0.8351 -1.2765 -0.3870
  323MOL0     C43528   3.442   1.145   2.630  0.2786  0.2393  0.0448
  323MOL0     O43529   3.359   1.216   2.537 -0.4128 -0.3504  0.6583
  323MOL0     C43530   3.222   1.159   2.521 -0.2220  0.2276 -0.3203
  323MOL0     C43531   3.186   1.170   2.371  0.1536 -0.5549  0.9302
  323MOL0     C43532   3.037   1.150   2.339  0.7477  0.1982  0.6078
  323MOL0     C43533   2.956   1.277   2.365  0.8046  0.6811 -0.6040
  323MOL0     C43534   2.815   1.254   2.347  0.9591  0.0537  0.1186
  323MOL0     C43535   2.694   1.259   2.322 -0.5842  0.5225  0.4954
  323MOL0     C43536   3.438   1.013   2.661 -0.2162 -0.0822  0.3821
  323MOL0     C43537   3.510   0.945   2.757  0.2255  0.2579 -0.1207
  323MOL0     H43538   3.862   0.814   3.094 -2.1816  1.1380 -1.5873
  323MOL0     H43539   3.908   0.659   3.287 -0.0926  3.6036  1.2485
  323MOL0     H43540   3.601   0.412   3.474 -0.4385  0.8959 -1.9443
  323MOL0     H43541   3.663   0.321   3.333  3.4789  3.3607 -3.5995
  323MOL0     H43542   3.678   0.189   3.550 -0.2512  0.8914  3.1514
  323MOL0     H43543   3.836   0.235   3.476 -0.1104 -0.8088  0.8038
  323MOL0     H43544   3.882   0.399   3.639  0.7114  0.3688  1.2766
  323MOL0     H43545   3.715   0.424   3.684  3.2405  2.7871  0.0842
  323MOL0     H43546   3.737   0.194   3.796 -0.4921  0.7465  0.7624
  323MOL0     H43547   3.910   0.198   3.768  1.7349  1.1519 -2.9315
  323MOL0     H43548   3.934   0.342   3.946  0.2379 -0.9941  0.3515
  323MOL0     H43549   3.843   0.469   3.857 -4.9483  1.0559 -1.6356
  323MOL0     H43550   3.629   0.336   3.966 -0.2809 -1.4194  0.7181
  323MOL0     H43551   3.742   0.236   4.037 -2.0083  0.2938  1.4240
  323MOL0     H43552   3.690   0.401   4.213  3.6188  1.4725  3.0851
  323MOL0     H43553   3.843   0.456   4.133 -0.2217 -2.0000  0.2176
  323MOL0     H43554   3.704   0.615   3.984 -1.6237 -0.3244 -1.4113
  323MOL0     H43555   3.667   0.653   4.146 -1.1811  1.9184 -1.7286
  323MOL0     H43556   3.441   0.601   4.243  1.8476  0.3508  0.3259
  323MOL0     H43557   3.187   0.601   4.238  0.2786 -0.2487  0.2508
  323MOL0     H43558   3.115   0.588   4.075 -0.7918 -0.6580  0.8534
  323MOL0     H43559   3.181   0.338   4.215  0.8142  1.3612  0.4077
  323MOL0     H43560   3.081   0.372   4.073 -0.2862  1.5175 -1.1914
  323MOL0     H43561   2.932   0.508   4.231  0.0389  0.6324  3.0558
  323MOL0     H43562   3.035   0.482   4.360  1.3207 -1.8656  0.1393
  323MOL0     H43563   2.979   0.218   4.338 -1.9754  0.3506  2.6233
  323MOL0     H43564   2.884   0.265   4.199 -4.6314  1.8838 -0.1573
  323MOL0     H43565   2.703   0.286   4.145 -0.6162 -1.2674  0.0586
  323MOL0     H43566   2.415   0.416   4.009 -0.8106 -1.5059 -1.9383
  323MOL0     H43567   2.521   0.290   3.974 -0.5717 -1.8881  0.9031
  323MOL0     H43568   2.379   0.237   4.046  0.0892 -0.4298 -1.7251
  323MOL0     H43569   2.053   0.622   4.430  1.5099 -0.8769  0.8474
  323MOL0     H43570   1.825   0.654   4.410  0.5645 -0.1577  1.0656
  323MOL0     H43571   1.563   0.520   4.534 -3.6791 -3.3568 -1.7465
  323MOL0     H43572   1.625   0.656   4.446  0.5913  0.5588 -1.5495
  323MOL0     H43573   1.391   0.479   4.424  2.7598  0.6068  5.6304
  323MOL0     H43574   1.368   0.652   4.448  0.3337  1.4807  0.1035
  323MOL0     H43575   1.440   0.535   4.171 -2.3726  1.5921 -2.6226
  323MOL0     H43576   1.485   0.697   4.215  2.2971 -1.0244  0.9382
  323MOL0     H43577   1.239   0.746   4.277 -2.1823 -0.3713 -0.7232
  323MOL0     H43578   1.266   0.687   4.113 -1.6183 -0.4900  0.4739
  323MOL0     H43579   1.169   0.536   4.359  0.0449  2.9051  1.2258
  323MOL0     H43580   1.203   0.447   4.204 -0.8287 -2.4045  3.0737
  323MOL0     H43581   1.003   0.558   4.111  2.2258 -0.9432  0.0287
  323MOL0     H43582   0.957   0.487   4.267 -2.1221  2.3205  1.8670
  323MOL0     H43583   1.002   0.776   4.201  0.8582  1.4208  0.8310
  323MOL0     H43584   0.962   0.707   4.366 -1.7855 -1.5985  0.2468
  323MOL0     H43585   0.765   0.792   4.254  0.5434  1.5707 -4.9971
  323MOL0     H43586   0.769   0.614   4.298 -1.2447 -0.9832 -1.7101
  323MOL0     H43587   1.758   0.246   4.311 -2.2392  2.2391 -0.6030
  323MOL0     H43588   2.028   0.223   4.307 -0.5794 -0.6878  0.4836
  323MOL0     H43589   2.370   0.361   4.498  0.6143 -0.0508  0.8864
  323MOL0     H43590   2.618   0.352   4.550 -2.3417 -1.8863  0.2368
  323MOL0     H43591   3.524   0.482   3.243 -1.5820  0.8825 -3.2408
  323MOL0     H43592   3.462   0.665   3.089 -1.2317  0.2699  1.9037
  323MOL0     H43593   3.679   1.213   2.865 -0.6215  2.2994 -2.0892
  323MOL0     H43594   3.549   1.319   2.691  0.0494 -1.4054 -0.6540
  323MOL0     H43595   3.217   1.056   2.556  0.8318  0.0360 -0.6946
  323MOL0     H43596   3.155   1.216   2.587  1.0915  0.3664  0.9586
  323MOL0     H43597   3.258   1.102   2.325  0.8413 -0.1633  1.4157
  323MOL0     H43598   3.212   1.269   2.334  2.1630 -1.5193 -0.4144
  323MOL0     H43599   3.012   1.063   2.400  1.9476 -1.4390 -1.1054
  323MOL0     H43600   3.021   1.133   2.232  0.3115 -0.6670  0.8082
  323MOL0     H43601   2.986   1.354   2.292 -0.5974 -0.1849 -2.1758
  323MOL0     H43602   2.976   1.317   2.464  0.9293 -2.4026  0.7339
  323MOL0     H43603   2.594   1.251   2.287 -0.2271 -0.2558 -0.3746
  323MOL0     H43604   3.371   0.947   2.606  0.5051 -1.0415  0.6184
  323MOL0     H43605   3.487   0.839   2.763  0.9809 -0.0130 -1.5562
  324MOL0     O43606  10.221   5.493   8.460  0.1277  0.2655  0.2430
  324MOL0     C43607  10.200   5.552   8.564  0.1292  0.3111  0.5710
  324MOL0     O43608  10.094   5.524   8.642 -0.2538  0.0940 -0.4380
  324MOL0     C43609   9.965   5.538   8.596  0.1058 -0.1696  0.3734
  324MOL0     C43610   9.922   5.554   8.468  0.0912 -0.2817 -0.5176
  324MOL0     C43611   9.793   5.598   8.438 -0.2020 -0.4888 -0.3334
  324MOL0     C43612   9.700   5.612   8.546  0.2158 -0.2077  0.1813
  324MOL0     O43613   9.576   5.662   8.507 -0.2209  0.0782  0.2627
  324MOL0     C43614   9.486   5.715   8.600  0.6866 -0.0189  0.3011
  324MOL0     C43615   9.344   5.731   8.545  0.2799 -0.0395  1.1597
  324MOL0     C43616   9.235   5.786   8.634 -0.2961  0.0524  1.1460
  324MOL0     C43617   9.092   5.794   8.556  0.3393  0.0288  0.4450
  324MOL0     C43618   8.981   5.873   8.635  0.2172  0.0290 -0.4617
  324MOL0     C43619   8.849   5.889   8.557 -0.3501 -0.2323  0.0924
  324MOL0     C43620   8.751   5.973   8.632  0.0338 -0.3182  0.6747
  324MOL0     C43621   8.609   5.942   8.573 -0.1975  0.4984  0.0836
  324MOL0     N43622   8.505   6.016   8.644 -0.0408  0.0077  0.3852
  324MOL0     C43623   8.482   6.019   8.778  0.4219 -0.1706  0.4868
  324MOL0     C43624   8.399   6.130   8.796  0.4402 -0.1088 -0.8308
  324MOL0     C43625   8.343   6.182   8.925 -0.2878  0.1702 -1.0063
  324MOL0     C43626   8.187   6.157   8.934 -0.3206  0.6857 -0.5755
  324MOL0     C43627   8.122   6.233   8.822  0.3394  0.5012  0.3142
  324MOL0     C43628   7.972   6.241   8.833 -0.3618 -0.6222 -0.8443
  324MOL0     O43629   7.916   6.351   8.759 -0.8600  0.0331 -0.6687
  324MOL0     C43630   7.869   6.318   8.633  0.0981 -0.2732 -0.1299
  324MOL0     C43631   7.890   6.200   8.561 -0.8612 -0.5294  1.1607
  324MOL0     C43632   7.820   6.168   8.443  0.8536  0.5248 -0.8250
  324MOL0     C43633   7.861   6.037   8.371  0.6708 -0.9449  0.0155
  324MOL0     C43634   7.732   6.269   8.388 -1.0460  0.5247  1.1339
  324MOL0     C43635   7.680   6.249   8.247  0.7345  0.6264  0.1234
  324MOL0     O43636   7.651   6.361   8.176  0.6073 -0.0120 -0.3860
  324MOL0     C43637   7.536   6.363   8.103  0.0607  0.0534  0.1297
  324MOL0     C43638   7.416   6.383   8.164 -0.4526  0.2674 -0.3108
  324MOL0     C43639   7.301   6.383   8.091  1.5555  0.0317  0.2141
  324MOL0     C43640   7.302   6.353   7.953  0.4374  1.1241 -0.7043
  324MOL0     O43641   7.186   6.368   7.877 -0.1477 -0.4044 -0.3737
  324MOL0     C43642   7.079   6.290   7.921 -0.0246 -0.4075 -0.0698
  324MOL0     C43643   6.967   6.292   7.828 -0.4456 -0.0179 -0.1089
  324MOL0     C43644   7.000   6.215   7.696  0.1646  0.1227  0.6867
  324MOL0     C43645   6.879   6.228   7.595  0.1394 -0.4100  0.8246
  324MOL0     C43646   6.909   6.164   7.459  0.6133  0.1926  0.2188
  324MOL0     C43647   6.812   6.205   7.337 -0.1567  0.4440  0.6384
  324MOL0     C43648   6.669   6.167   7.364  0.6428  0.2897 -0.2162
  324MOL0     C43649   6.583   6.201   7.240 -0.2964 -0.3033 -0.6565
  324MOL0    Cl43650   6.451   6.088   7.206  0.4109 -0.1926 -0.3995
  324MOL0     C43651   7.426   6.340   7.894 -0.2632 -0.0975  0.0148
  324MOL0     C43652   7.540   6.350   7.967  0.1582  0.4250 -0.3546
  324MOL0     O43653   7.640   6.135   8.218 -0.0739 -0.0827  0.4022
  324MOL0     C43654   7.712   6.394   8.454 -0.1742 -0.7387 -0.9154
  324MOL0     C43655   7.782   6.416   8.572 -0.3475  0.6119  0.2582
  324MOL0     N43656   8.376   6.189   8.673  0.2949 -0.8722  0.6593
  324MOL0     N43657   8.439   6.120   8.581 -0.4360  0.1101  0.1437
  324MOL0     C43658   9.741   5.589   8.675  0.6016  1.0404 -0.3772
  324MOL0     C43659   9.871   5.547   8.702  0.5152  0.0734 -0.7224
  324MOL0     C43660  10.314   5.627   8.617 -0.1106 -0.2579  0.1326
  324MOL0     C43661  10.313   5.674   8.746  0.0547  1.0313 -0.1866
  324MOL0     C43662  10.432   5.733   8.806 -0.7518  1.0656 -0.0127
  324MOL0     C43663  10.551   5.744   8.729 -0.4551  0.7640 -0.2640
  324MOL0     O43664  10.654   5.807   8.783 -0.0223 -0.2648  0.5902
  324MOL0     C43665  10.762   5.861   8.703 -0.3338  0.1679 -0.3819
  324MOL0     C43666  10.803   6.002   8.756 -0.1018  0.3090 -0.8521
  324MOL0     C43667  10.945   6.047   8.721 -0.3799  0.1590  0.0880
  324MOL0     C43668  10.998   6.160   8.811 -0.0709 -0.4909 -0.3340
  324MOL0     C43669  11.132   6.185   8.763  1.2149  0.2239  0.7908
  324MOL0     C43670  11.239   6.219   8.736 -0.0872 -0.4260 -0.4282
  324MOL0     C43671  10.545   5.700   8.596  0.7966 -0.1860 -0.0310
  324MOL0     C43672  10.433   5.641   8.537  0.4319 -0.3426 -0.1231
  324MOL0     H43673   9.989   5.551   8.382 -0.2458  0.3276 -0.8124
  324MOL0     H43674   9.770   5.609   8.333 -2.8049 -2.0596  0.0091
  324MOL0     H43675   9.467   5.644   8.681 -2.0700  0.0163 -0.2210
  324MOL0     H43676   9.526   5.806   8.645  2.2717 -2.2759  3.9500
  324MOL0     H43677   9.335   5.794   8.456  0.0838 -3.5056 -1.4867
  324MOL0     H43678   9.300   5.635   8.514 -0.4771  0.6128  0.1672
  324MOL0     H43679   9.232   5.725   8.724 -3.3604 -2.0867 -0.2337
  324MOL0     H43680   9.273   5.879   8.677  1.8994 -1.4042  2.5598
  324MOL0     H43681   9.099   5.831   8.454 -0.2466 -0.7601  0.1116
  324MOL0     H43682   9.060   5.691   8.540  2.2543 -0.9473  2.2798
  324MOL0     H43683   8.957   5.827   8.732 -1.5334 -1.6152 -1.6102
  324MOL0     H43684   9.018   5.973   8.662 -1.7415  0.5878  0.3214
  324MOL0     H43685   8.861   5.938   8.460 -3.5599  1.3006  0.3323
  324MOL0     H43686   8.803   5.792   8.531  0.2127 -0.7268  0.9133
  324MOL0     H43687   8.743   5.941   8.737 -0.4333  0.2262  0.8126
  324MOL0     H43688   8.788   6.076   8.627  4.0597 -1.6130  0.2826
  324MOL0     H43689   8.593   5.835   8.590 -3.4478  1.1481  1.8993
  324MOL0     H43690   8.601   5.969   8.467 -5.1956 -1.6494 -0.3668
  324MOL0     H43691   8.529   5.949   8.846 -0.2838  0.7412  1.9828
  324MOL0     H43692   8.395   6.144   9.014  0.2302  1.5012 -0.7213
  324MOL0     H43693   8.355   6.291   8.928 -0.4913  0.1858  0.7176
  324MOL0     H43694   8.151   6.186   9.034 -1.3509 -2.8470  0.2467
  324MOL0     H43695   8.159   6.051   8.930 -0.9898  0.8869 -1.3697
  324MOL0     H43696   8.150   6.198   8.723 -0.8707 -0.8318  0.4176
  324MOL0     H43697   8.166   6.334   8.829  1.1898  0.2634 -1.2377
  324MOL0     H43698   7.965   6.265   8.939 -1.2013 -2.2248 -0.5165
  324MOL0     H43699   7.929   6.146   8.800  0.3260 -0.1670 -3.2927
  324MOL0     H43700   7.965   6.127   8.591  0.0384  0.4295  1.3290
  324MOL0     H43701   7.770   5.980   8.352  1.0645 -1.9097  0.9030
  324MOL0     H43702   7.910   6.074   8.281  0.0143 -0.2926 -0.0817
  324MOL0     H43703   7.928   5.974   8.430  2.3422  0.5461 -0.2260
  324MOL0     H43704   7.413   6.405   8.271  0.0911  2.0594 -0.6239
  324MOL0     H43705   7.201   6.374   8.131  0.8194 -2.7216 -1.9387
  324MOL0     H43706   7.105   6.185   7.940 -3.7868 -1.3216  0.8408
  324MOL0     H43707   7.034   6.321   8.016  1.1713  0.5218  0.2179
  324MOL0     H43708   6.883   6.244   7.878 -1.7235  0.7624 -1.4288
  324MOL0     H43709   6.939   6.395   7.803 -2.2340 -0.9540 -2.2215
  324MOL0     H43710   7.014   6.108   7.711 -1.5717 -0.1751  0.3648
  324MOL0     H43711   7.093   6.248   7.649 -1.4310  0.2906 -2.6547
  324MOL0     H43712   6.789   6.184   7.640 -0.8217  0.7562  0.0848
  324MOL0     H43713   6.853   6.333   7.580  0.6402 -0.6237 -2.2924
  324MOL0     H43714   6.906   6.055   7.471  3.4874  0.1051  1.0011
  324MOL0     H43715   7.009   6.198   7.433  0.6028 -0.1579 -0.2862
  324MOL0     H43716   6.817   6.312   7.317  1.0633  0.1675 -0.7587
  324MOL0     H43717   6.843   6.155   7.244 -0.4373  1.4509 -0.0185
  324MOL0     H43718   6.629   6.233   7.442 -0.4941  0.3617 -0.8468
  324MOL0     H43719   6.661   6.059   7.384 -3.9328  0.6319  0.8605
  324MOL0     H43720   6.650   6.189   7.155 -0.5129  0.9196 -1.0164
  324MOL0     H43721   6.546   6.304   7.241  1.7945  0.4896  0.6368
  324MOL0     H43722   7.435   6.327   7.787  1.3740  0.1105  0.0946
  324MOL0     H43723   7.633   6.328   7.917  1.0399 -0.1729  1.4711
  324MOL0     H43724   7.652   6.474   8.411  0.2565  0.9656  1.4714
  324MOL0     H43725   7.757   6.503   8.633 -1.6526  0.7438 -0.4256
  324MOL0     H43726   9.672   5.590   8.759  1.0005 -3.0861  0.2171
  324MOL0     H43727   9.901   5.527   8.804 -0.7634 -2.9395 -0.8083
  324MOL0     H43728  10.219   5.647   8.793  0.2675 -1.6030 -1.1500
  324MOL0     H43729  10.445   5.769   8.908  0.4512 -2.3820  1.1920
  324MOL0     H43730  10.848   5.795   8.697 -0.2435  0.3293 -0.9315
  324MOL0     H43731  10.716   5.879   8.605  1.7602  1.5049 -1.1838
  324MOL0     H43732  10.790   6.002   8.864 -2.1735 -1.2814 -1.0367
  324MOL0     H43733  10.731   6.073   8.715 -3.7440 -0.9286  2.7828
  324MOL0     H43734  10.949   6.076   8.616 -3.9404 -0.1590 -0.2660
  324MOL0     H43735  11.018   5.966   8.730  1.0109  1.3859  0.1609
  324MOL0     H43736  11.001   6.119   8.913 -3.2705  3.3987  1.6094
  324MOL0     H43737  10.946   6.256   8.809  2.0163  0.6740 -1.4686
  324MOL0     H43738  11.344   6.236   8.723  1.1720 -3.8154  3.0856
  324MOL0     H43739  10.634   5.711   8.534  0.5702 -0.1243 -0.3441
  324MOL0     H43740  10.424   5.600   8.437 -1.9599  0.2544 -0.2139
  325MOL0     O43741   0.423  11.352  10.014  0.4272  0.1328  0.6346
  325MOL0     C43742   0.372  11.280   9.923 -0.0348  0.2771 -1.1795
  325MOL0     O43743   0.267  11.328   9.832 -0.3262 -0.1844 -0.3495
  325MOL0     C43744   0.249  11.469   9.826  0.0095  0.0806 -0.5920
  325MOL0     C43745   0.118  11.510   9.782  0.0916 -0.2297 -0.1688
  325MOL0     C43746   0.096  11.645   9.746  0.6667  0.8674 -0.5633
  325MOL0     C43747   0.199  11.736   9.737 -0.0238 -1.0462  0.2952
  325MOL0     O43748   0.189  11.863   9.686  0.5968  1.0997 -0.0686
  325MOL0     C43749   0.070  11.897   9.606  0.6473  0.0741 -0.1405
  325MOL0     C43750  -0.024  11.986   9.684 -0.1600 -0.2214 -0.1914
  325MOL0     C43751  -0.139  11.922   9.772 -0.4390 -1.0424 -0.8298
  325MOL0     C43752  -0.229  12.014   9.853 -0.0346 -0.5614 -0.2077
  325MOL0     C43753  -0.326  11.939   9.940 -0.5921  0.2116  1.3526
  325MOL0     C43754  -0.412  12.050  10.005 -1.1659  0.8513  0.4690
  325MOL0     C43755  -0.525  11.994  10.073  0.3228 -0.0622  0.7789
  325MOL0     C43756  -0.631  12.092  10.105 -0.4681  0.4377  0.1917
  325MOL0     N43757  -0.718  12.120   9.992 -0.4127  1.0342 -1.0680
  325MOL0     C43758  -0.709  12.233   9.918 -1.3121 -0.2737  1.3533
  325MOL0     C43759  -0.810  12.215   9.825  0.6112 -0.2264 -0.6336
  325MOL0     C43760  -0.851  12.300   9.708 -0.2509 -0.0951 -0.7390
  325MOL0     C43761  -0.996  12.338   9.699 -0.5303 -0.1891 -0.6159
  325MOL0     C43762  -1.020  12.483   9.755 -0.3088 -1.0617 -0.7196
  325MOL0     C43763  -1.164  12.511   9.779 -0.1872 -0.3731  0.7564
  325MOL0     O43764  -1.225  12.416   9.871 -0.2452 -0.1880  0.7168
  325MOL0     C43765  -1.357  12.441   9.903  0.4855 -0.1813 -0.0892
  325MOL0     C43766  -1.424  12.352   9.988  0.4780  0.5520  0.4645
  325MOL0     C43767  -1.548  12.372  10.033  0.7215 -0.7890  0.0870
  325MOL0     C43768  -1.605  12.283  10.138  0.0492 -0.1329 -0.0157
  325MOL0     C43769  -1.634  12.472   9.975  1.0332 -0.0208 -0.1373
  325MOL0     C43770  -1.785  12.479   9.980  0.0770 -0.1824 -0.4743
  325MOL0     O43771  -1.840  12.599   9.942 -0.4000  0.6208 -0.4926
  325MOL0     C43772  -1.972  12.602   9.917  0.1583 -0.1605 -0.1725
  325MOL0     C43773  -2.061  12.674   9.991  0.1854  0.4805  0.2253
  325MOL0     C43774  -2.191  12.692   9.946 -0.6525  1.3539 -0.7648
  325MOL0     C43775  -2.236  12.629   9.829  0.0085 -0.1672 -0.0018
  325MOL0     O43776  -2.360  12.634   9.775 -0.1533 -0.2611  0.3500
  325MOL0     C43777  -2.446  12.754   9.773  0.7474 -0.4193 -0.0790
  325MOL0     C43778  -2.592  12.728   9.741  0.2223  0.1290  0.3572
  325MOL0     C43779  -2.606  12.659   9.608  0.1256  0.2901  0.3896
  325MOL0     C43780  -2.739  12.581   9.610 -0.8700  0.6170  0.3513
  325MOL0     C43781  -2.799  12.587   9.469  0.3397  0.1029 -0.5939
  325MOL0     C43782  -2.923  12.494   9.448  0.3461  0.1403 -0.0979
  325MOL0     C43783  -2.965  12.515   9.304  0.8502  0.3867  0.2164
  325MOL0     C43784  -3.083  12.422   9.265  0.0163 -0.5845 -0.7547
  325MOL0    Cl43785  -3.146  12.497   9.112  0.0768  0.5568  0.6032
  325MOL0     C43786  -2.153  12.546   9.767 -0.1834  0.2895  0.4988
  325MOL0     C43787  -2.018  12.530   9.799 -0.6980 -0.3265  0.3494
  325MOL0     O43788  -1.849  12.371  10.005  0.1769  0.1602  0.2918
  325MOL0     C43789  -1.566  12.563   9.891  0.4573  0.6356  0.7075
  325MOL0     C43790  -1.436  12.544   9.850 -0.0763  0.3762 -0.8269
  325MOL0     N43791  -0.885  12.111   9.867  0.6142  0.7245  0.9902
  325MOL0     N43792  -0.824  12.045   9.959  0.4407  0.6739 -0.5416
  325MOL0     C43793   0.328  11.698   9.779 -0.3689  0.2436  0.8969
  325MOL0     C43794   0.349  11.567   9.808 -0.2477  0.0241  0.1995
  325MOL0     C43795   0.433  11.150   9.908  0.7627 -0.1114  0.1239
  325MOL0     C43796   0.356  11.061   9.839  0.2854  0.1446  0.2911
  325MOL0     C43797   0.420  10.938   9.810  0.2431 -0.8439 -0.1973
  325MOL0     C43798   0.554  10.912   9.843 -0.3394  0.3674  0.5945
  325MOL0     O43799   0.604  10.784   9.810  0.1865  0.4607  0.6550
  325MOL0     C43800   0.745  10.758   9.818  0.2557 -0.5242 -0.3008
  325MOL0     C43801   0.826  10.855   9.728 -0.2099  0.3277 -0.6897
  325MOL0     C43802   0.974  10.828   9.744  0.0114  0.0650  0.6519
  325MOL0     C43803   1.040  10.947   9.669  0.1461 -0.1103 -0.1904
  325MOL0     C43804   1.177  10.911   9.635  0.0111  0.0015  0.2768
  325MOL0     C43805   1.290  10.881   9.612  0.3563  0.7885  0.6261
  325MOL0     C43806   0.625  10.999   9.927  0.4870 -0.5474  0.4967
  325MOL0     C43807   0.559  11.126   9.952 -0.7008  0.2559  0.5868
  325MOL0     H43808   0.025  11.453   9.784  1.1394 -2.0068 -0.2972
  325MOL0     H43809  -0.010  11.662   9.736  0.6945  1.4420  0.0189
  325MOL0     H43810   0.116  11.966   9.535  1.3975  0.6369  0.8616
  325MOL0     H43811   0.020  11.819   9.548  2.9863 -0.1109 -2.0381
  325MOL0     H43812   0.030  12.065   9.737  2.0818  0.5889 -3.3952
  325MOL0     H43813  -0.074  12.049   9.610 -1.6594 -0.8954  0.2045
  325MOL0     H43814  -0.204  11.864   9.706 -2.0010  0.5924 -0.7721
  325MOL0     H43815  -0.085  11.855   9.839  4.1800  1.8759 -1.1936
  325MOL0     H43816  -0.160  12.061   9.924  0.6566 -0.2995 -1.0437
  325MOL0     H43817  -0.278  12.093   9.796 -2.8268 -0.1700  2.4331
  325MOL0     H43818  -0.381  11.869   9.877  4.7888  0.0907 -4.1734
  325MOL0     H43819  -0.271  11.876  10.011 -2.5558  0.1388  2.8857
  325MOL0     H43820  -0.348  12.104  10.076  1.7457 -1.0778 -0.5158
  325MOL0     H43821  -0.456  12.112   9.926 -2.0859  1.1054  1.1621
  325MOL0     H43822  -0.567  11.920  10.004 -2.9327  2.9037 -0.7094
  325MOL0     H43823  -0.482  11.954  10.165  0.9628 -0.6455  0.2413
  325MOL0     H43824  -0.584  12.183  10.144 -1.2379  0.5553  0.8740
  325MOL0     H43825  -0.695  12.057  10.187 -0.2781 -1.6951 -0.5226
  325MOL0     H43826  -0.642  12.318   9.918 -0.7999 -0.6660  0.9443
  325MOL0     H43827  -0.788  12.389   9.720  1.9655 -1.6929  0.1073
  325MOL0     H43828  -0.818  12.253   9.615  3.0404 -0.6244  0.5636
  325MOL0     H43829  -1.062  12.267   9.750 -2.3351  2.3021  0.7799
  325MOL0     H43830  -1.034  12.329   9.597 -0.5381 -0.8118 -0.5582
  325MOL0     H43831  -0.994  12.547   9.670 -3.2629  0.8195 -0.3312
  325MOL0     H43832  -0.955  12.502   9.841 -0.3315  1.9260 -1.2671
  325MOL0     H43833  -1.219  12.504   9.685 -0.3729 -2.6468  0.9673
  325MOL0     H43834  -1.165  12.615   9.812  1.7589  0.0385 -0.3409
  325MOL0     H43835  -1.377  12.266  10.035 -1.0970 -0.0167  1.0923
  325MOL0     H43836  -1.526  12.265  10.211  0.0964  3.5399  1.0430
  325MOL0     H43837  -1.688  12.334  10.189  1.0221  0.3674  1.1179
  325MOL0     H43838  -1.634  12.185  10.099  0.4408  0.6308 -2.3399
  325MOL0     H43839  -2.021  12.719  10.082  1.0537 -0.6350  0.4254
  325MOL0     H43840  -2.255  12.752  10.010  0.1254  0.1738  1.2031
  325MOL0     H43841  -2.452  12.805   9.869 -1.2065  0.9919 -0.8905
  325MOL0     H43842  -2.404  12.826   9.701 -0.2811  0.1829 -0.0915
  325MOL0     H43843  -2.625  12.659   9.819  3.5676 -2.6188 -0.4286
  325MOL0     H43844  -2.654  12.818   9.740  0.6759  0.5539 -3.2245
  325MOL0     H43845  -2.522  12.590   9.597 -0.1491  0.0835 -0.4551
  325MOL0     H43846  -2.603  12.723   9.519  1.2109 -1.7569 -1.1246
  325MOL0     H43847  -2.715  12.477   9.632  2.1950  0.7236 -1.9424
  325MOL0     H43848  -2.801  12.617   9.693  3.7257  2.2274  3.4548
  325MOL0     H43849  -2.725  12.545   9.402  4.0529 -0.3625  3.3820
  325MOL0     H43850  -2.835  12.689   9.447 -0.4020 -0.2038 -0.8361
  325MOL0     H43851  -2.900  12.387   9.450 -0.3825 -0.0174  0.4060
  325MOL0     H43852  -3.003  12.506   9.521  0.1411  1.8066 -0.5578
  325MOL0     H43853  -2.885  12.481   9.238  0.7526 -1.0486  0.8044
  325MOL0     H43854  -2.991  12.620   9.289  1.1839  0.6548  1.4333
  325MOL0     H43855  -3.154  12.427   9.349 -0.3055 -2.1744 -0.9157
  325MOL0     H43856  -3.048  12.319   9.256 -2.1730 -1.5760  1.0562
  325MOL0     H43857  -2.197  12.497   9.680 -0.1464  0.6720  0.2581
  325MOL0     H43858  -1.954  12.483   9.726  1.1957 -0.2844  1.9218
  325MOL0     H43859  -1.614  12.643   9.836  0.8903  0.0381 -0.6020
  325MOL0     H43860  -1.385  12.631   9.809  1.0064  1.0489  1.7686
  325MOL0     H43861   0.407  11.772   9.768 -1.6903  1.6207  0.1399
  325MOL0     H43862   0.454  11.545   9.823 -0.0443  1.2517  0.7227
  325MOL0     H43863   0.252  11.077   9.811 -1.1786 -3.2334  3.0975
  325MOL0     H43864   0.369  10.865   9.748  0.3509 -0.5144 -0.6831
  325MOL0     H43865   0.775  10.773   9.922  1.4269 -1.5226 -0.4765
  325MOL0     H43866   0.763  10.654   9.793  2.8814 -0.0623 -0.5906
  325MOL0     H43867   0.805  10.959   9.756 -2.0301  0.0535 -0.9043
  325MOL0     H43868   0.784  10.837   9.629  0.4650  0.6706 -1.0470
  325MOL0     H43869   1.004  10.734   9.698 -1.2019 -1.6705  3.1703
  325MOL0     H43870   0.996  10.819   9.851 -1.4556  1.0439  1.0656
  325MOL0     H43871   1.032  11.035   9.734  0.9606 -0.5594  0.5567
  325MOL0     H43872   0.985  10.964   9.577 -0.3071 -1.6324 -0.2204
  325MOL0     H43873   1.386  10.861   9.570 -2.0694  1.2327 -6.3395
  325MOL0     H43874   0.725  10.984   9.967  0.7923  0.6772  0.2455
  325MOL0     H43875   0.614  11.203  10.006  2.1720 -0.2568 -1.3462
  326MOL0     O43876   2.846   0.270   1.480  0.8260 -0.8341 -0.0261
  326MOL0     C43877   2.944   0.348   1.485 -0.3573  0.0012  0.2577
  326MOL0     O43878   2.951   0.469   1.431 -0.0844  0.2440 -0.5234
  326MOL0     C43879   2.849   0.519   1.361  0.1493  0.1791 -0.7393
  326MOL0     C43880   2.836   0.655   1.366  0.3459  0.7046  1.2056
  326MOL0     C43881   2.722   0.716   1.299 -0.4019 -0.6305  0.6023
  326MOL0     C43882   2.635   0.642   1.217 -0.1810 -0.8714  0.1509
  326MOL0     O43883   2.520   0.701   1.159  0.4533  0.7708  0.0955
  326MOL0     C43884   2.496   0.838   1.197 -0.0474 -0.3598  0.3331
  326MOL0     C43885   2.356   0.861   1.140  0.4467  0.2073 -0.6457
  326MOL0     C43886   2.299   1.000   1.171 -0.2999 -0.0124 -0.3516
  326MOL0     C43887   2.182   1.026   1.077  0.7180 -0.6586 -1.0103
  326MOL0     C43888   2.080   1.146   1.099  0.4182  0.6719 -0.0143
  326MOL0     C43889   2.133   1.282   1.134 -0.4285  0.8836 -0.6129
  326MOL0     C43890   2.007   1.390   1.170 -0.3135 -0.3417  0.5447
  326MOL0     C43891   1.963   1.466   1.047  0.3765 -0.2581  0.1720
  326MOL0     N43892   1.932   1.391   0.920  0.3277 -0.6152 -1.2249
  326MOL0     C43893   1.807   1.340   0.894  0.2181 -0.4976 -0.3192
  326MOL0     C43894   1.808   1.314   0.765 -0.0648  0.6211 -0.4832
  326MOL0     C43895   1.706   1.255   0.676  0.5984  1.2266 -0.0342
  326MOL0     C43896   1.579   1.339   0.669 -0.6875 -0.2073 -0.1877
  326MOL0     C43897   1.472   1.256   0.603  0.5579 -1.0355 -0.0248
  326MOL0     C43898   1.352   1.345   0.563  0.0372 -1.0481  0.6506
  326MOL0     O43899   1.272   1.275   0.462  0.1649 -0.2333 -0.2145
  326MOL0     C43900   1.141   1.260   0.498 -0.2225 -0.2880  0.0960
  326MOL0     C43901   1.045   1.291   0.405  0.5763 -0.6424  0.4031
  326MOL0     C43902   0.900   1.252   0.418 -0.3373 -0.3060  0.9224
  326MOL0     C43903   0.811   1.298   0.313  0.1725 -0.1067 -0.4844
  326MOL0     C43904   0.866   1.194   0.539 -0.2530  0.2821  0.4088
  326MOL0     C43905   0.729   1.161   0.574  0.0089 -1.0208  0.6557
  326MOL0     O43906   0.714   1.038   0.626 -1.0307  0.3896 -0.1035
  326MOL0     C43907   0.591   1.003   0.685 -0.6649 -0.5270 -0.5217
  326MOL0     C43908   0.530   1.079   0.788 -0.0174  0.0633  0.3163
  326MOL0     C43909   0.418   1.026   0.857 -0.2314 -0.5944 -0.3383
  326MOL0     C43910   0.346   0.915   0.814 -0.1117  0.2840  0.6655
  326MOL0     O43911   0.231   0.880   0.883  0.2314 -0.1253  0.3942
  326MOL0     C43912   0.153   0.778   0.825  0.4817 -0.2027  0.1346
  326MOL0     C43913   0.045   0.732   0.923  1.0681  0.4525  0.9858
  326MOL0     C43914  -0.056   0.847   0.967 -0.0692 -0.0686  0.2009
  326MOL0     C43915  -0.140   0.903   0.855 -0.0341  0.9224 -0.0944
  326MOL0     C43916  -0.241   1.007   0.898  0.5408 -0.5611  0.0874
  326MOL0     C43917  -0.306   1.079   0.777 -0.0142 -0.1677 -0.8444
  326MOL0     C43918  -0.398   0.983   0.702 -0.3725 -1.0858 -0.4021
  326MOL0     C43919  -0.486   1.062   0.601  0.5611 -0.5905  0.4343
  326MOL0    Cl43920  -0.601   1.181   0.668 -0.2399 -0.2196 -0.2561
  326MOL0     C43921   0.409   0.837   0.717 -0.3903  0.1150 -0.4160
  326MOL0     C43922   0.533   0.878   0.656  0.0115 -0.3020  0.7196
  326MOL0     O43923   0.642   1.245   0.558 -0.0936  0.1179 -0.1099
  326MOL0     C43924   0.971   1.169   0.630  0.4549  0.5306 -0.1992
  326MOL0     C43925   1.101   1.208   0.617  0.2518  0.0603  0.1000
  326MOL0     N43926   1.940   1.327   0.723 -0.4266  0.3376  0.1832
  326MOL0     N43927   2.008   1.389   0.814  0.1792  0.5949 -0.4239
  326MOL0     C43928   2.683   0.515   1.192  1.0107 -0.0171  0.0596
  326MOL0     C43929   2.778   0.451   1.265 -0.6270 -0.8554 -0.0370
  326MOL0     C43930   3.066   0.306   1.565 -0.5537 -0.5476 -0.1732
  326MOL0     C43931   3.157   0.409   1.610 -0.0573  0.0521  0.2754
  326MOL0     C43932   3.273   0.375   1.679  0.5164  0.2834 -0.3525
  326MOL0     C43933   3.291   0.245   1.725  0.6046  0.6717  0.0184
  326MOL0     O43934   3.394   0.199   1.806 -0.0287  0.3486 -0.1508
  326MOL0     C43935   3.519   0.226   1.740 -1.0163  0.0980 -0.2633
  326MOL0     C43936   3.632   0.153   1.822  0.2586  0.3286 -0.8059
  326MOL0     C43937   3.660   0.203   1.962  0.0696 -0.3905 -0.0821
  326MOL0     C43938   3.790   0.136   2.023  0.3413  0.0677 -0.4913
  326MOL0     C43939   3.777  -0.011   2.018  0.8875  0.5618  0.7500
  326MOL0     C43940   3.763  -0.132   2.041 -0.1872 -0.4506 -0.9523
  326MOL0     C43941   3.197   0.142   1.684  0.2343  0.5991  0.4390
  326MOL0     C43942   3.093   0.173   1.594 -0.1054  0.1462  0.3081
  326MOL0     H43943   2.900   0.699   1.442 -0.5840 -0.1666  2.5525
  326MOL0     H43944   2.708   0.823   1.309 -1.7727 -0.6927 -0.4596
  326MOL0     H43945   2.498   0.847   1.306 -2.4713  2.4051  0.2420
  326MOL0     H43946   2.552   0.910   1.137  1.0790 -0.5243  1.1429
  326MOL0     H43947   2.364   0.854   1.031 -2.2412 -1.7375 -0.8338
  326MOL0     H43948   2.284   0.785   1.171  1.2974 -1.1483 -1.8773
  326MOL0     H43949   2.273   1.015   1.276  4.2120  0.4823  0.9101
  326MOL0     H43950   2.374   1.073   1.140  0.4712 -0.5126  0.3037
  326MOL0     H43951   2.210   1.060   0.977  3.8350  3.8612  1.0548
  326MOL0     H43952   2.132   0.928   1.071  0.4513 -0.7226  1.2771
  326MOL0     H43953   2.018   1.148   1.009  0.6329 -1.9687 -0.3240
  326MOL0     H43954   2.012   1.112   1.178 -0.2445 -2.0039 -1.6091
  326MOL0     H43955   2.202   1.277   1.218 -2.8318 -2.3387  1.3957
  326MOL0     H43956   2.192   1.330   1.054 -0.8937  0.4340 -1.2398
  326MOL0     H43957   1.920   1.330   1.198 -1.9728  2.0160  0.7413
  326MOL0     H43958   2.035   1.466   1.244  2.5843 -0.0917 -0.6555
  326MOL0     H43959   2.046   1.530   1.015 -1.4933  0.4941 -3.8862
  326MOL0     H43960   1.883   1.536   1.073  1.3040  0.0509  2.3571
  326MOL0     H43961   1.727   1.339   0.967  1.1122 -0.0648  0.7066
  326MOL0     H43962   1.745   1.242   0.575  0.1854  0.3165 -0.0861
  326MOL0     H43963   1.689   1.154   0.716  0.0486 -0.5190 -4.1492
  326MOL0     H43964   1.594   1.430   0.611  1.0616 -0.1001  0.3693
  326MOL0     H43965   1.540   1.359   0.770 -1.0312  1.4489 -0.6136
  326MOL0     H43966   1.441   1.174   0.668 -1.4039 -1.4287 -1.3742
  326MOL0     H43967   1.508   1.208   0.510 -2.2623 -0.8169 -1.3305
  326MOL0     H43968   1.392   1.440   0.524  0.0855 -0.6621  1.6078
  326MOL0     H43969   1.296   1.375   0.652 -4.0187 -1.8174 -1.4073
  326MOL0     H43970   1.060   1.348   0.314 -1.6312  1.0682  1.0097
  326MOL0     H43971   0.871   1.297   0.222  4.6109  4.3162  1.8702
  326MOL0     H43972   0.717   1.245   0.297 -0.9796  1.1918  1.4552
  326MOL0     H43973   0.783   1.400   0.343 -0.1541 -0.8629  1.9830
  326MOL0     H43974   0.570   1.175   0.817  1.9462 -0.2905 -1.0364
  326MOL0     H43975   0.370   1.087   0.934  1.3455  1.2505 -0.7364
  326MOL0     H43976   0.109   0.811   0.730  2.1528  0.4114 -0.4520
  326MOL0     H43977   0.214   0.689   0.803 -0.8780 -1.2208  0.3022
  326MOL0     H43978  -0.010   0.655   0.869  2.7574 -0.0842 -0.0789
  326MOL0     H43979   0.093   0.689   1.012 -0.0472 -0.3026  1.2282
  326MOL0     H43980   0.012   0.922   1.008  1.1949 -0.9527 -0.1837
  326MOL0     H43981  -0.128   0.811   1.041 -0.4227  1.9466  0.8718
  326MOL0     H43982  -0.069   0.951   0.787  2.2934 -0.3340  1.3005
  326MOL0     H43983  -0.189   0.811   0.822 -2.6811  1.3335  2.2360
  326MOL0     H43984  -0.178   1.072   0.960 -0.3407 -2.1377  2.8210
  326MOL0     H43985  -0.311   0.973   0.974 -0.4078  5.9364  2.7791
  326MOL0     H43986  -0.382   1.146   0.819  0.2272  0.6303 -1.6514
  326MOL0     H43987  -0.235   1.134   0.716  0.5266  0.1423  0.0478
  326MOL0     H43988  -0.463   0.941   0.780  1.5746  1.3831  2.8002
  326MOL0     H43989  -0.336   0.907   0.653  1.9761 -0.6400  1.6793
  326MOL0     H43990  -0.540   0.988   0.540  0.3999  1.0571 -1.5441
  326MOL0     H43991  -0.416   1.127   0.547  3.3772 -1.0686  3.2300
  326MOL0     H43992   0.380   0.737   0.687  0.3418  0.0438 -0.9356
  326MOL0     H43993   0.579   0.818   0.578  3.2713  0.7668  1.6417
  326MOL0     H43994   0.952   1.121   0.725 -3.0173 -0.9480 -1.4617
  326MOL0     H43995   1.180   1.183   0.687  0.2962  1.2532  0.4926
  326MOL0     H43996   2.622   0.460   1.122 -1.3309 -1.9825  3.3512
  326MOL0     H43997   2.807   0.347   1.259  0.6163 -0.5147 -0.3148
  326MOL0     H43998   3.146   0.517   1.598 -0.0921 -0.1143 -1.4285
  326MOL0     H43999   3.335   0.459   1.711 -0.2618  1.4011 -1.6502
  326MOL0     H44000   3.527   0.180   1.641  3.6406 -0.1789  0.0063
  326MOL0     H44001   3.545   0.333   1.741 -1.8884  0.3606 -1.9506
  326MOL0     H44002   3.721   0.168   1.760  1.3076  1.5449  0.9023
  326MOL0     H44003   3.620   0.044   1.825 -2.1557  0.5346 -0.7850
  326MOL0     H44004   3.584   0.176   2.036 -0.5776  0.6296 -0.3533
  326MOL0     H44005   3.681   0.310   1.956 -2.0820 -0.0270 -2.2272
  326MOL0     H44006   3.808   0.162   2.128 -3.1722 -0.3076  0.3188
  326MOL0     H44007   3.873   0.179   1.966  1.3765 -1.3005 -0.0555
  326MOL0     H44008   3.762  -0.232   2.079 -0.5230 -0.8080 -1.8878
  326MOL0     H44009   3.216   0.041   1.719  0.0725  0.9955  1.6828
  326MOL0     H44010   3.036   0.095   1.544 -1.9355  1.5109  0.1678
  327MOL0     O44011   5.741   3.390  10.997  0.4902  0.6194  0.2062
  327MOL0     C44012   5.805   3.494  10.992 -0.2051  0.8742 -0.3946
  327MOL0     O44013   5.774   3.615  11.042 -0.1481 -0.6440 -0.8147
  327MOL0     C44014   5.656   3.638  11.114 -0.1900 -0.3563 -0.2368
  327MOL0     C44015   5.534   3.587  11.079  0.1690 -0.5200 -0.1531
  327MOL0     C44016   5.418   3.616  11.156  0.5619 -0.8321 -0.0254
  327MOL0     C44017   5.420   3.713  11.258 -0.1200 -0.0476 -0.1284
  327MOL0     O44018   5.305   3.765  11.324  0.1224  0.4485  0.3857
  327MOL0     C44019   5.166   3.714  11.303 -0.4078  0.2209 -0.3520
  327MOL0     C44020   5.111   3.793  11.188  0.3004 -0.1951 -0.1875
  327MOL0     C44021   5.118   3.943  11.208  0.5510 -0.7995  0.1072
  327MOL0     C44022   5.053   4.009  11.082 -0.3031  0.8383  0.1301
  327MOL0     C44023   4.983   4.139  11.122 -0.3678 -0.2099 -0.2310
  327MOL0     C44024   4.920   4.208  10.992 -0.0481  0.7881  0.0435
  327MOL0     C44025   4.816   4.313  11.034 -0.1180  0.1125  0.1474
  327MOL0     C44026   4.706   4.336  10.918  0.4252 -0.2663  0.1482
  327MOL0     N44027   4.615   4.219  10.907  0.3323 -0.3439 -0.3394
  327MOL0     C44028   4.504   4.217  10.982  0.0122  0.9777 -0.1666
  327MOL0     C44029   4.449   4.097  10.946 -0.5156 -0.0841 -0.1476
  327MOL0     C44030   4.327   4.031  10.992  0.5314 -0.0533  0.6789
  327MOL0     C44031   4.213   4.138  11.014  0.2981  0.5161 -0.2363
  327MOL0     C44032   4.088   4.086  11.091  0.0932 -0.5795 -0.2080
  327MOL0     C44033   3.966   4.177  11.074 -0.9984  0.3768 -0.1461
  327MOL0     O44034   3.853   4.107  11.130  0.0349 -0.0525  0.0218
  327MOL0     C44035   3.732   4.172  11.135 -0.2980  0.1732 -0.0463
  327MOL0     C44036   3.697   4.279  11.052  0.1580  0.1758  0.4014
  327MOL0     C44037   3.574   4.338  11.056  0.5511 -0.5170  0.3754
  327MOL0     C44038   3.542   4.457  10.967 -0.1867  0.0174  0.2853
  327MOL0     C44039   3.468   4.286  11.133 -0.9018  0.0430 -0.1035
  327MOL0     C44040   3.352   4.357  11.177  0.5285  0.7639  0.2026
  327MOL0     O44041   3.236   4.289  11.187 -0.0099 -0.8554  0.3079
  327MOL0     C44042   3.120   4.354  11.208 -0.6330 -0.2484  0.7777
  327MOL0     C44043   3.047   4.301  11.311  0.3358  0.3804 -0.2894
  327MOL0     C44044   2.910   4.337  11.325  0.4711  0.1239  0.1244
  327MOL0     C44045   2.851   4.428  11.236  0.0341  0.4883  0.2538
  327MOL0     O44046   2.720   4.452  11.233  0.6492  0.1373 -0.4482
  327MOL0     C44047   2.670   4.579  11.198  0.4723 -0.5216  0.0964
  327MOL0     C44048   2.520   4.597  11.225 -0.4490  0.1758  1.1621
  327MOL0     C44049   2.474   4.596  11.371  0.1307  0.4899  0.6496
  327MOL0     C44050   2.344   4.678  11.393 -0.0512  0.2035 -0.2553
  327MOL0     C44051   2.308   4.687  11.546  0.7707 -1.1570  0.3612
  327MOL0     C44052   2.179   4.773  11.571  0.1255  0.1146 -0.0313
  327MOL0     C44053   2.049   4.717  11.513  0.0704  0.6794  0.6346
  327MOL0     C44054   1.929   4.808  11.549  0.1544 -0.1713  0.8101
  327MOL0    Cl44055   1.953   4.957  11.458  0.1051 -1.0247  0.2549
  327MOL0     C44056   2.930   4.490  11.137  0.1107  0.5605 -0.0842
  327MOL0     C44057   3.065   4.458  11.133 -0.6552  0.3529  0.4937
  327MOL0     O44058   3.373   4.469  11.222  0.3189 -0.1552  1.1880
  327MOL0     C44059   3.495   4.174  11.214  0.6084  0.2525 -0.1217
  327MOL0     C44060   3.625   4.115  11.210  0.3144  0.9119 -0.1695
  327MOL0     N44061   4.523   4.043  10.848  0.0408 -0.5872  0.3179
  327MOL0     N44062   4.626   4.118  10.820 -0.2848 -0.1818 -0.7935
  327MOL0     C44063   5.540   3.780  11.280 -0.2199 -0.8050 -0.1376
  327MOL0     C44064   5.661   3.738  11.213 -0.3159 -0.0447 -0.4368
  327MOL0     C44065   5.942   3.480  10.930 -0.1623  0.5372  0.1288
  327MOL0     C44066   6.024   3.590  10.900  0.8947  0.4731 -0.2967
  327MOL0     C44067   6.150   3.574  10.838  0.2302 -0.0049 -0.2562
  327MOL0     C44068   6.187   3.450  10.797  0.2393 -0.3350 -0.2831
  327MOL0     O44069   6.290   3.418  10.716  0.5764  0.7276  0.5737
  327MOL0     C44070   6.394   3.504  10.693 -0.2486  0.0541 -0.2338
  327MOL0     C44071   6.480   3.532  10.818 -0.4093 -0.5403  0.2687
  327MOL0     C44072   6.587   3.423  10.847 -0.7486 -0.2967 -0.1821
  327MOL0     C44073   6.668   3.396  10.723  0.0370  0.2759 -0.2004
  327MOL0     C44074   6.799   3.347  10.748 -0.0814 -0.1828 -0.7748
  327MOL0     C44075   6.908   3.300  10.772  0.1816  0.1038  0.1521
  327MOL0     C44076   6.111   3.341  10.843 -0.1323 -1.1928 -0.0167
  327MOL0     C44077   5.990   3.351  10.902  0.3124 -0.3842 -0.4952
  327MOL0     H44078   5.523   3.509  11.004 -0.0980 -0.0001 -0.6576
  327MOL0     H44079   5.324   3.566  11.139 -0.7530  1.7461 -0.7848
  327MOL0     H44080   5.153   3.609  11.278 -0.0741 -0.1972  1.1364
  327MOL0     H44081   5.114   3.735  11.398  1.3738 -1.0420  0.9684
  327MOL0     H44082   5.165   3.776  11.094  0.4666  1.0276 -0.3259
  327MOL0     H44083   5.010   3.754  11.173  0.4810 -0.0728 -1.9372
  327MOL0     H44084   5.063   3.972  11.298 -0.1986  0.8483 -0.8289
  327MOL0     H44085   5.222   3.973  11.220  0.9840 -1.9959 -0.5517
  327MOL0     H44086   5.129   4.039  11.010  0.0483 -1.4479 -0.5446
  327MOL0     H44087   4.997   3.939  11.019  0.0213  0.8077 -0.1267
  327MOL0     H44088   4.898   4.121  11.190  0.3598  1.0097  1.0527
  327MOL0     H44089   5.054   4.202  11.177 -3.4089  1.1151  2.5590
  327MOL0     H44090   5.000   4.251  10.931  0.4819  0.1715  0.2989
  327MOL0     H44091   4.872   4.134  10.927  2.1426  0.1592 -0.9316
  327MOL0     H44092   4.771   4.284  11.129  1.7266 -0.2617  0.9494
  327MOL0     H44093   4.874   4.400  11.066  0.5180 -0.7666  1.4667
  327MOL0     H44094   4.756   4.356  10.823 -1.4379  1.9133 -0.4489
  327MOL0     H44095   4.646   4.424  10.939 -0.6808 -1.2797  1.4645
  327MOL0     H44096   4.464   4.283  11.058 -2.1004 -0.3309 -0.0786
  327MOL0     H44097   4.294   3.957  10.918  0.1667  2.7602 -2.2109
  327MOL0     H44098   4.355   3.995  11.091 -1.3696  4.0230  2.9603
  327MOL0     H44099   4.171   4.178  10.921 -0.0383 -0.7940 -0.6747
  327MOL0     H44100   4.245   4.222  11.076 -0.6882 -0.9398  2.4029
  327MOL0     H44101   4.110   4.093  11.198  2.4416  1.3644 -0.7351
  327MOL0     H44102   4.050   3.988  11.060 -2.3473  0.6175 -1.3098
  327MOL0     H44103   3.958   4.197  10.967  0.2252 -0.3659 -0.3970
  327MOL0     H44104   4.000   4.272  11.117  1.0898 -1.0235  1.5199
  327MOL0     H44105   3.768   4.329  10.987  0.2816  1.1174  1.2472
  327MOL0     H44106   3.539   4.546  11.031  2.1495 -0.2553  0.8863
  327MOL0     H44107   3.611   4.488  10.887 -0.5864  1.5753  0.5019
  327MOL0     H44108   3.446   4.436  10.919 -0.1217 -1.4610  0.7695
  327MOL0     H44109   3.094   4.222  11.368  2.1646 -0.1139 -2.3618
  327MOL0     H44110   2.848   4.292  11.402  3.0227 -0.5973  1.8833
  327MOL0     H44111   2.732   4.648  11.255  0.5722 -1.3975  1.0897
  327MOL0     H44112   2.680   4.592  11.090  3.6725  2.0950  0.5470
  327MOL0     H44113   2.500   4.698  11.188  0.5129 -0.1851 -0.4533
  327MOL0     H44114   2.464   4.521  11.170 -0.5756  2.4969 -2.2356
  327MOL0     H44115   2.552   4.643  11.431  2.7841 -1.3980 -1.0659
  327MOL0     H44116   2.466   4.492  11.404  1.4792  0.4808  1.0184
  327MOL0     H44117   2.351   4.781  11.355  1.3494  0.8923  1.7053
  327MOL0     H44118   2.281   4.615  11.330 -0.4464  1.7254 -1.4591
  327MOL0     H44119   2.394   4.741  11.585  1.1668 -1.0059 -0.6843
  327MOL0     H44120   2.301   4.587  11.589 -0.4740 -1.0365  0.4871
  327MOL0     H44121   2.161   4.775  11.679  0.5361  3.3765  0.0559
  327MOL0     H44122   2.196   4.876  11.540 -3.0899  1.0172  0.9102
  327MOL0     H44123   2.040   4.617  11.556  2.7602  0.4325  0.8310
  327MOL0     H44124   2.054   4.709  11.404  2.9329  0.8911  0.6602
  327MOL0     H44125   1.919   4.816  11.657 -0.6946  2.2918  0.5953
  327MOL0     H44126   1.836   4.769  11.507  1.8761 -1.0352 -2.6604
  327MOL0     H44127   2.884   4.548  11.057  0.3648 -0.2519 -0.8379
  327MOL0     H44128   3.116   4.502  11.048 -2.2840  0.1199 -0.6453
  327MOL0     H44129   3.416   4.131  11.275 -1.2341  2.0546 -1.1096
  327MOL0     H44130   3.626   4.035  11.283 -2.9351 -0.9228 -1.9394
  327MOL0     H44131   5.554   3.859  11.354  1.0747  1.8837 -3.0088
  327MOL0     H44132   5.762   3.764  11.243 -0.8859  0.0208  1.5394
  327MOL0     H44133   5.988   3.686  10.934 -2.8052 -1.7140  2.6861
  327MOL0     H44134   6.219   3.654  10.815  1.9286 -1.7319 -1.5680
  327MOL0     H44135   6.452   3.467  10.608 -0.5617 -1.3572  0.1365
  327MOL0     H44136   6.368   3.607  10.666 -0.1462  0.6312  1.7578
  327MOL0     H44137   6.409   3.554  10.898 -1.0490 -1.9115  0.1072
  327MOL0     H44138   6.536   3.624  10.800  1.9790 -1.2852  3.2561
  327MOL0     H44139   6.540   3.331  10.884  2.2228 -1.3866  1.1165
  327MOL0     H44140   6.653   3.455  10.928  2.1632 -2.4396 -1.5588
  327MOL0     H44141   6.688   3.482  10.658 -2.8841 -0.6505 -2.5612
  327MOL0     H44142   6.629   3.316  10.658  0.0234  0.8708 -0.9447
  327MOL0     H44143   7.003   3.252  10.764  0.2731  0.5611 -1.9531
  327MOL0     H44144   6.144   3.238  10.833  0.3644 -1.5621  3.9220
  327MOL0     H44145   5.932   3.261  10.921  0.1379 -0.5255 -1.6628
  328MOL0     O44146   4.866   2.961   7.149 -0.9540  0.3977 -0.9001
  328MOL0     C44147   4.937   3.018   7.062 -0.3963 -0.1511 -0.1935
  328MOL0     O44148   4.888   3.082   6.951  1.1676 -0.0972 -0.4732
  328MOL0     C44149   4.751   3.078   6.948  0.3864 -0.0268  0.2544
  328MOL0     C44150   4.696   2.965   6.905  0.4394 -0.0815  0.3760
  328MOL0     C44151   4.557   2.947   6.893 -0.8168  0.2716 -0.3786
  328MOL0     C44152   4.474   3.051   6.926 -0.3142 -0.1705 -0.0095
  328MOL0     O44153   4.336   3.045   6.943 -0.5842 -0.4357 -0.2785
  328MOL0     C44154   4.290   2.907   6.961 -0.6252 -0.0822  1.4065
  328MOL0     C44155   4.151   2.909   7.032  0.5704 -0.1703  1.2930
  328MOL0     C44156   4.164   2.948   7.177 -0.8354  0.3785 -0.8771
  328MOL0     C44157   4.034   2.950   7.254 -0.4422  0.4790  0.6185
  328MOL0     C44158   3.961   2.812   7.224 -0.2724  0.1325 -0.7983
  328MOL0     C44159   3.882   2.785   7.346 -0.2621  0.4606 -0.1259
  328MOL0     C44160   3.782   2.671   7.300  0.5376 -0.1872 -0.1521
  328MOL0     C44161   3.714   2.606   7.415  0.6214 -0.2868 -0.4529
  328MOL0     N44162   3.638   2.713   7.486 -0.0484 -0.6158 -0.1898
  328MOL0     C44163   3.516   2.768   7.459 -0.5171 -0.6334 -0.0673
  328MOL0     C44164   3.486   2.840   7.571  0.8554 -0.5403  0.0757
  328MOL0     C44165   3.361   2.923   7.599  0.1039 -0.7367  0.3524
  328MOL0     C44166   3.239   2.847   7.652 -0.0143 -0.1968  0.2875
  328MOL0     C44167   3.125   2.945   7.680  0.5403  0.5002  0.3130
  328MOL0     C44168   3.093   3.059   7.581  0.4925  0.6718 -0.7563
  328MOL0     O44169   3.058   3.000   7.450  0.5563 -0.2181 -0.9937
  328MOL0     C44170   2.927   3.000   7.420  0.6097  0.6809  0.2149
  328MOL0     C44171   2.856   3.098   7.347 -0.0305 -0.8001 -0.1401
  328MOL0     C44172   2.716   3.096   7.320 -0.2467  0.3823  0.1315
  328MOL0     C44173   2.635   3.199   7.242  0.3946  0.1388  0.5244
  328MOL0     C44174   2.649   2.978   7.360 -0.0574  0.0532  0.4502
  328MOL0     C44175   2.513   2.947   7.310 -1.1341  0.2697 -0.3545
  328MOL0     O44176   2.402   3.032   7.314 -0.5795 -0.0241  0.2782
  328MOL0     C44177   2.287   2.978   7.253  0.0891  0.7529  0.5472
  328MOL0     C44178   2.204   2.880   7.325 -0.7002 -0.1335  0.5328
  328MOL0     C44179   2.082   2.832   7.269 -0.7910  0.2847  0.3940
  328MOL0     C44180   2.045   2.885   7.148  0.1202 -0.6212  0.1036
  328MOL0     O44181   1.940   2.822   7.095 -0.1284 -0.4995  0.6711
  328MOL0     C44182   1.842   2.881   7.012  0.8618 -0.6315  0.6920
  328MOL0     C44183   1.746   2.983   7.089  0.0177 -1.2318 -0.2275
  328MOL0     C44184   1.626   2.909   7.170  0.3838 -0.4385 -0.1691
  328MOL0     C44185   1.670   2.798   7.265  0.6409  0.2879 -0.7521
  328MOL0     C44186   1.534   2.750   7.342  0.0500  0.8153  1.3223
  328MOL0     C44187   1.559   2.645   7.451 -0.1992  1.0869 -0.0480
  328MOL0     C44188   1.424   2.580   7.495  0.7337  0.3473 -0.1851
  328MOL0     C44189   1.439   2.467   7.591  0.1614  0.5948 -0.2820
  328MOL0    Cl44190   1.299   2.353   7.595  0.4854  0.0664  0.3141
  328MOL0     C44191   2.116   2.986   7.086 -0.2400  1.0914 -0.2127
  328MOL0     C44192   2.231   3.035   7.136  0.5482 -0.1001 -0.1496
  328MOL0     O44193   2.516   2.835   7.251  0.3382 -0.1653  0.0729
  328MOL0     C44194   2.725   2.876   7.416 -0.1726  0.7623 -1.1770
  328MOL0     C44195   2.852   2.889   7.459 -0.8936  0.0977  0.3071
  328MOL0     N44196   3.584   2.821   7.663 -0.4754 -0.1226  0.1379
  328MOL0     N44197   3.672   2.744   7.615 -0.5226  0.2416  0.8286
  328MOL0     C44198   4.535   3.172   6.954  1.2584 -0.0390 -0.7117
  328MOL0     C44199   4.672   3.187   6.976  0.2912 -0.4421  0.8712
  328MOL0     C44200   5.087   3.016   7.080 -0.1769  0.4857  0.2007
  328MOL0     C44201   5.150   2.933   7.177  0.3381  0.2653  0.2543
  328MOL0     C44202   5.289   2.921   7.174 -0.2687  0.2239 -0.0606
  328MOL0     C44203   5.376   2.993   7.081  0.1051 -1.0394 -0.6952
  328MOL0     O44204   5.518   2.992   7.085 -0.7438 -0.3954  0.1390
  328MOL0     C44205   5.561   2.864   7.137 -0.8228 -1.3469  0.6546
  328MOL0     C44206   5.711   2.873   7.111  0.3093  0.4097 -0.4104
  328MOL0     C44207   5.766   2.737   7.151  0.7322 -0.9996 -0.0011
  328MOL0     C44208   5.723   2.627   7.060  0.1556 -0.0061  0.3669
  328MOL0     C44209   5.820   2.514   7.059 -0.1396  0.0983 -0.4127
  328MOL0     C44210   5.887   2.413   7.055 -0.1286 -0.0125 -0.3296
  328MOL0     C44211   5.309   3.080   6.997 -0.6726  0.6905  0.4969
  328MOL0     C44212   5.167   3.087   6.988 -0.0021 -0.4651  0.0182
  328MOL0     H44213   4.761   2.892   6.857 -3.1299 -3.3396  0.0129
  328MOL0     H44214   4.533   2.851   6.847 -1.5030  0.0463  0.4256
  328MOL0     H44215   4.270   2.865   6.863 -0.1502 -2.5020  2.2686
  328MOL0     H44216   4.354   2.839   7.018  1.4156  1.1419  0.6977
  328MOL0     H44217   4.090   2.982   6.978  0.4401 -0.3355  1.2141
  328MOL0     H44218   4.095   2.819   7.007 -1.2729  1.2815 -0.1033
  328MOL0     H44219   4.232   2.878   7.227 -1.9493  1.7341  2.8283
  328MOL0     H44220   4.202   3.050   7.190 -0.9002  0.0764  2.5615
  328MOL0     H44221   4.056   2.962   7.361 -0.5855 -0.6677  0.7878
  328MOL0     H44222   3.976   3.038   7.226 -0.5338  1.0395  2.4201
  328MOL0     H44223   3.896   2.836   7.139 -2.6436  0.9165  1.1225
  328MOL0     H44224   4.038   2.738   7.202 -2.2474 -2.2891  0.0158
  328MOL0     H44225   3.933   2.752   7.437  0.5900 -1.0238 -1.0934
  328MOL0     H44226   3.828   2.871   7.387 -2.8550 -1.9518  1.9538
  328MOL0     H44227   3.702   2.716   7.240  1.4360 -0.1640 -1.3549
  328MOL0     H44228   3.828   2.594   7.238 -0.3619  0.0396 -1.1381
  328MOL0     H44229   3.792   2.558   7.475 -1.3931 -1.3188  1.5258
  328MOL0     H44230   3.637   2.535   7.382 -0.7393  0.3320  1.1988
  328MOL0     H44231   3.456   2.757   7.370 -1.4710  1.2041  0.2993
  328MOL0     H44232   3.399   2.986   7.680  0.4121 -2.5710  1.6936
  328MOL0     H44233   3.340   2.983   7.510  1.8632 -0.4125  0.1285
  328MOL0     H44234   3.272   2.796   7.743 -0.1785  0.1413  0.5344
  328MOL0     H44235   3.204   2.772   7.580 -2.5078  1.1745 -0.0338
  328MOL0     H44236   3.138   3.001   7.773 -0.0915  2.2626 -0.6029
  328MOL0     H44237   3.035   2.883   7.688 -1.2335  2.6119 -1.8266
  328MOL0     H44238   3.184   3.119   7.567  0.5191  0.4513 -1.5833
  328MOL0     H44239   3.018   3.131   7.614 -0.2122 -0.5337  0.3232
  328MOL0     H44240   2.904   3.183   7.300 -0.6019 -0.4607 -0.1186
  328MOL0     H44241   2.689   3.287   7.204  3.1872 -0.5579  2.5868
  328MOL0     H44242   2.611   3.145   7.150 -1.0969 -0.4693  1.2302
  328MOL0     H44243   2.549   3.245   7.291  1.6123  5.0113 -1.2695
  328MOL0     H44244   2.252   2.852   7.418  2.8128  0.2822 -1.0070
  328MOL0     H44245   2.039   2.745   7.318  0.9018 -0.2352  1.0381
  328MOL0     H44246   1.892   2.927   6.927  2.0343 -2.3239  0.4135
  328MOL0     H44247   1.777   2.802   6.974 -0.2850 -0.3464  1.9407
  328MOL0     H44248   1.805   3.051   7.152 -1.2587  1.6149 -1.9013
  328MOL0     H44249   1.691   3.049   7.021  0.2133  0.2994  1.0389
  328MOL0     H44250   1.549   2.876   7.100 -1.9908  2.3541  0.8857
  328MOL0     H44251   1.570   2.990   7.218  1.3309  0.4640 -0.5472
  328MOL0     H44252   1.703   2.709   7.211 -0.2778 -1.7462  1.8274
  328MOL0     H44253   1.748   2.828   7.335 -0.6899  2.6174 -0.1662
  328MOL0     H44254   1.475   2.708   7.259  0.0670  0.1030  1.6642
  328MOL0     H44255   1.483   2.839   7.379 -0.9929  0.9713 -0.3457
  328MOL0     H44256   1.620   2.559   7.422  0.7346  0.8507  2.4041
  328MOL0     H44257   1.609   2.694   7.535  0.6670  3.1989 -1.6804
  328MOL0     H44258   1.362   2.554   7.408  0.9286 -0.6185 -0.0426
  328MOL0     H44259   1.359   2.653   7.544  1.2751  1.7231 -1.4244
  328MOL0     H44260   1.464   2.508   7.689 -0.7528  1.2321 -0.3033
  328MOL0     H44261   1.525   2.408   7.558 -0.5374 -0.7834  0.2895
  328MOL0     H44262   2.087   3.010   6.985 -0.6868 -0.6130 -0.5111
  328MOL0     H44263   2.286   3.118   7.093 -2.5683  1.8369 -0.6758
  328MOL0     H44264   2.668   2.791   7.449 -2.7208  2.7588 -0.1313
  328MOL0     H44265   2.892   2.806   7.517  2.4335  0.5138 -1.1398
  328MOL0     H44266   4.459   3.247   6.974 -1.0680 -1.6943 -2.7049
  328MOL0     H44267   4.717   3.274   7.021 -0.4114  1.0363 -1.1377
  328MOL0     H44268   5.098   2.871   7.249  2.2837  0.0564  1.5720
  328MOL0     H44269   5.342   2.859   7.245 -0.0421  0.8068  0.2836
  328MOL0     H44270   5.548   2.862   7.246 -3.3160  2.0739  0.5698
  328MOL0     H44271   5.512   2.782   7.084 -0.9620  0.2132 -1.7816
  328MOL0     H44272   5.751   2.954   7.172 -5.4918  0.2170  4.5217
  328MOL0     H44273   5.742   2.891   7.008  3.1625  1.6290  0.5658
  328MOL0     H44274   5.743   2.714   7.255  0.3669  0.0237  0.1458
  328MOL0     H44275   5.875   2.743   7.139  0.5142  2.8228 -1.3694
  328MOL0     H44276   5.704   2.670   6.962  0.7424 -2.0850 -0.7100
  328MOL0     H44277   5.628   2.585   7.095  1.4291 -0.4157  3.7631
  328MOL0     H44278   5.951   2.328   7.065  2.5003  1.5240 -2.6150
  328MOL0     H44279   5.360   3.130   6.914 -2.9011  2.8715  0.2920
  328MOL0     H44280   5.117   3.135   6.905 -0.3823 -2.1817 -0.7763
  329MOL0     O44281   8.271   1.686   7.751  1.0887 -0.1687 -0.5656
  329MOL0     C44282   8.263   1.664   7.630 -0.7347 -0.8682  0.4090
  329MOL0     O44283   8.157   1.630   7.555 -0.7250  0.1679  0.1672
  329MOL0     C44284   8.033   1.622   7.618  1.3080 -0.8702  0.1413
  329MOL0     C44285   7.943   1.513   7.604  0.8308 -0.3651 -1.1155
  329MOL0     C44286   7.815   1.513   7.657  0.4215 -0.3406  0.0439
  329MOL0     C44287   7.780   1.636   7.720 -0.1031  0.5423  0.2590
  329MOL0     O44288   7.653   1.657   7.773 -0.0294  0.4567 -0.1223
  329MOL0     C44289   7.576   1.542   7.815 -0.1258  0.5434 -0.3401
  329MOL0     C44290   7.482   1.576   7.927 -0.6695  0.5579  0.2377
  329MOL0     C44291   7.390   1.693   7.905  0.2265  0.0270 -0.5864
  329MOL0     C44292   7.327   1.743   8.036  0.2007 -0.8488 -0.1388
  329MOL0     C44293   7.236   1.865   8.005 -0.1609  0.0220 -0.0081
  329MOL0     C44294   7.181   1.929   8.129 -1.0646  0.1027 -0.6620
  329MOL0     C44295   7.080   2.028   8.097 -0.0507 -0.2010  1.1709
  329MOL0     C44296   7.056   2.135   8.203 -0.1401  0.0332  0.1476
  329MOL0     N44297   6.962   2.235   8.147 -0.0916  0.4118  0.6471
  329MOL0     C44298   6.985   2.375   8.139 -0.1185  0.3570  0.1538
  329MOL0     C44299   6.859   2.417   8.103 -1.0971  0.1616  0.9610
  329MOL0     C44300   6.828   2.557   8.085  0.0701 -0.2613 -0.3605
  329MOL0     C44301   6.880   2.612   7.954  0.0074 -0.3997 -0.3991
  329MOL0     C44302   6.782   2.613   7.842  0.4625 -0.3283 -0.1849
  329MOL0     C44303   6.724   2.470   7.820 -0.8285  0.2291 -0.0352
  329MOL0     O44304   6.632   2.482   7.714  0.1193  0.2915  0.6881
  329MOL0     C44305   6.672   2.477   7.582 -0.5309  0.5310  0.5690
  329MOL0     C44306   6.781   2.413   7.520  0.0057 -0.4508  0.5448
  329MOL0     C44307   6.799   2.417   7.380 -0.2848 -0.5222 -0.0596
  329MOL0     C44308   6.902   2.319   7.334  0.1798 -0.2767  0.1278
  329MOL0     C44309   6.719   2.505   7.299  0.0548  0.3536  0.0120
  329MOL0     C44310   6.747   2.529   7.158  0.3982 -0.7943  0.9045
  329MOL0     O44311   6.646   2.601   7.106 -0.9860 -0.1402  0.5326
  329MOL0     C44312   6.670   2.655   6.977  0.2667  0.7160 -0.6755
  329MOL0     C44313   6.679   2.795   6.961  0.4686  1.0608 -0.3127
  329MOL0     C44314   6.694   2.839   6.824  0.6600  0.6448 -0.7665
  329MOL0     C44315   6.709   2.744   6.718  0.4089 -0.3253  0.1978
  329MOL0     O44316   6.719   2.793   6.587  0.8739  0.5149  0.5193
  329MOL0     C44317   6.793   2.710   6.501 -0.4163  0.2398  0.8003
  329MOL0     C44318   6.876   2.796   6.395 -0.7431 -0.4795  0.1483
  329MOL0     C44319   6.793   2.869   6.285  0.0836  0.5410  0.5209
  329MOL0     C44320   6.714   2.772   6.194  0.5481  0.0395 -1.0496
  329MOL0     C44321   6.611   2.851   6.115  1.0651  0.0163 -0.1311
  329MOL0     C44322   6.494   2.762   6.072  0.2808  0.6275 -0.3416
  329MOL0     C44323   6.437   2.800   5.937 -0.0714  0.1412 -1.0130
  329MOL0     C44324   6.336   2.698   5.881  0.4056  0.4503  0.9228
  329MOL0    Cl44325   6.184   2.731   5.961 -0.2456  0.1333  0.0875
  329MOL0     C44326   6.702   2.609   6.746  0.0260 -0.1819 -0.1957
  329MOL0     C44327   6.680   2.567   6.876  0.1919 -0.2974  0.0012
  329MOL0     O44328   6.846   2.480   7.093  0.3211 -0.6350 -0.2569
  329MOL0     C44329   6.610   2.577   7.359  0.2703 -0.3704 -0.2768
  329MOL0     C44330   6.585   2.546   7.498 -0.8359  0.0815  0.3309
  329MOL0     N44331   6.772   2.315   8.077  0.3607 -0.4847  0.2780
  329MOL0     N44332   6.834   2.213   8.116  0.4084 -0.1235  0.1673
  329MOL0     C44333   7.865   1.745   7.721  0.7402 -0.5505 -0.0536
  329MOL0     C44334   7.993   1.737   7.683  0.3945 -0.0502  0.0241
  329MOL0     C44335   8.399   1.665   7.561  0.5770 -0.1738 -0.4159
  329MOL0     C44336   8.405   1.645   7.414  0.5825 -0.0472 -1.2769
  329MOL0     C44337   8.527   1.638   7.350  0.5319  0.5553 -0.1116
  329MOL0     C44338   8.644   1.648   7.429 -1.2162 -0.0027  1.1377
  329MOL0     O44339   8.761   1.650   7.359 -0.2148  0.2911  0.1255
  329MOL0     C44340   8.882   1.599   7.415 -0.1357  0.0180  0.8410
  329MOL0     C44341   8.980   1.574   7.298 -0.1441 -0.2102 -1.0786
  329MOL0     C44342   9.052   1.717   7.265  0.3187 -0.5848 -0.6372
  329MOL0     C44343   9.136   1.712   7.136 -0.9642  0.4412 -0.1954
  329MOL0     C44344   9.226   1.598   7.146  0.1549 -0.3456 -0.1496
  329MOL0     C44345   9.316   1.518   7.158 -0.5923 -0.1788  0.0695
  329MOL0     C44346   8.641   1.655   7.568  0.4871  0.7325 -0.1739
  329MOL0     C44347   8.519   1.674   7.643 -0.0347 -0.5246  0.9553
  329MOL0     H44348   7.981   1.423   7.557 -1.5959 -2.1224  0.1143
  329MOL0     H44349   7.750   1.427   7.651  0.9743 -0.7919  0.4333
  329MOL0     H44350   7.527   1.493   7.730  0.5851 -1.6008  0.4259
  329MOL0     H44351   7.650   1.468   7.846 -0.9408 -0.3750 -0.5353
  329MOL0     H44352   7.405   1.500   7.942  0.3079 -1.0823 -2.2411
  329MOL0     H44353   7.541   1.589   8.018 -2.2185  0.9611  1.2242
  329MOL0     H44354   7.448   1.768   7.850 -2.5310  1.8409 -1.1986
  329MOL0     H44355   7.310   1.665   7.836 -0.3265 -0.4026  0.2096
  329MOL0     H44356   7.256   1.670   8.078 -0.7678 -0.2732 -0.7320
  329MOL0     H44357   7.401   1.762   8.114 -0.2526 -1.3647  0.4321
  329MOL0     H44358   7.292   1.936   7.943 -1.9387 -0.4480 -2.3412
  329MOL0     H44359   7.160   1.826   7.936 -2.0193  0.0158  1.9546
  329MOL0     H44360   7.147   1.854   8.200  0.7299  1.1223  1.4168
  329MOL0     H44361   7.258   1.985   8.184 -1.6926 -0.9288  1.3826
  329MOL0     H44362   7.127   2.072   8.009  1.0030  0.0449  1.8465
  329MOL0     H44363   6.989   1.970   8.077  0.5868 -0.6502 -0.5417
  329MOL0     H44364   7.154   2.180   8.220 -1.0983  1.6872  1.6466
  329MOL0     H44365   7.025   2.081   8.293  2.5219  0.0998  1.1959
  329MOL0     H44366   7.082   2.424   8.146 -0.4205  0.8225  1.5441
  329MOL0     H44367   6.719   2.562   8.077  0.0024 -1.9585 -0.8712
  329MOL0     H44368   6.870   2.626   8.158 -1.4567  2.1408 -1.6021
  329MOL0     H44369   6.974   2.563   7.927 -0.7136 -0.9688 -2.0109
  329MOL0     H44370   6.900   2.719   7.961 -0.2598 -0.3124 -0.9268
  329MOL0     H44371   6.837   2.653   7.757  1.8422 -0.9319  0.3899
  329MOL0     H44372   6.688   2.669   7.852  1.2145  0.9724 -0.1992
  329MOL0     H44373   6.669   2.434   7.908 -0.5740  1.7266  0.7720
  329MOL0     H44374   6.806   2.406   7.786  1.8172  3.2076  0.3115
  329MOL0     H44375   6.850   2.345   7.568  3.1476 -0.0993 -3.0377
  329MOL0     H44376   6.953   2.255   7.408  3.1201  1.9027  0.1773
  329MOL0     H44377   6.855   2.265   7.252  0.4450  1.2150 -1.0435
  329MOL0     H44378   6.981   2.374   7.283  0.8004 -1.8003 -0.6188
  329MOL0     H44379   6.662   2.861   7.046  1.6500  1.6474 -0.5184
  329MOL0     H44380   6.697   2.942   6.792 -3.2937  1.2216  0.1144
  329MOL0     H44381   6.872   2.652   6.548 -1.9324 -1.5661  1.2437
  329MOL0     H44382   6.724   2.647   6.444  1.3650  0.0297 -1.2239
  329MOL0     H44383   6.919   2.885   6.442 -0.1297  0.3128 -1.7891
  329MOL0     H44384   6.946   2.742   6.330 -1.6315  2.7718 -4.0417
  329MOL0     H44385   6.860   2.920   6.215  0.8400 -0.6967  0.3099
  329MOL0     H44386   6.727   2.948   6.322  0.9212  0.5823  2.0366
  329MOL0     H44387   6.775   2.710   6.127  0.5213  0.3978 -1.4166
  329MOL0     H44388   6.660   2.708   6.263  2.3627  0.9485  1.3431
  329MOL0     H44389   6.663   2.885   6.025 -2.5617  0.2534 -2.3441
  329MOL0     H44390   6.579   2.943   6.165  0.0865 -0.3844 -0.0040
  329MOL0     H44391   6.539   2.663   6.057  2.3325  1.6477 -1.2983
  329MOL0     H44392   6.423   2.764   6.155  0.5997 -1.7313  0.0511
  329MOL0     H44393   6.524   2.800   5.871  2.8580 -0.4593  2.5198
  329MOL0     H44394   6.393   2.898   5.957 -1.2692 -0.5692  0.0541
  329MOL0     H44395   6.352   2.593   5.905 -1.3847  0.1117  0.7809
  329MOL0     H44396   6.332   2.709   5.772 -3.0930  2.0836  1.0863
  329MOL0     H44397   6.701   2.540   6.662 -2.1998  1.3787 -1.5619
  329MOL0     H44398   6.650   2.464   6.897 -0.4609  0.2644  2.0928
  329MOL0     H44399   6.541   2.649   7.318  3.2030  3.5073  0.9135
  329MOL0     H44400   6.511   2.606   7.549  0.2884  1.2903  0.6129
  329MOL0     H44401   7.823   1.831   7.773 -1.2371 -2.3612  1.5517
  329MOL0     H44402   8.066   1.813   7.709  1.4456 -1.2928  0.8667
  329MOL0     H44403   8.314   1.641   7.356 -0.0279 -0.4151 -0.3200
  329MOL0     H44404   8.533   1.615   7.244 -0.0867 -0.1008 -0.0140
  329MOL0     H44405   8.923   1.672   7.486  0.3817  0.9583 -0.3767
  329MOL0     H44406   8.856   1.506   7.466 -0.6917 -0.0720  0.4043
  329MOL0     H44407   8.932   1.533   7.209  1.9793 -0.8151 -2.0180
  329MOL0     H44408   9.047   1.493   7.328  0.2358  0.3406 -0.4183
  329MOL0     H44409   9.125   1.729   7.346  2.2817 -2.8711 -1.9325
  329MOL0     H44410   8.976   1.796   7.263  1.0398  0.2193  1.2253
  329MOL0     H44411   9.193   1.806   7.132 -0.0677 -0.1181 -1.1672
  329MOL0     H44412   9.077   1.708   7.044 -0.6280 -2.2666 -0.3643
  329MOL0     H44413   9.401   1.456   7.176  0.1322  1.5398  3.4349
  329MOL0     H44414   8.729   1.647   7.631  0.3210 -2.8582 -0.1898
  329MOL0     H44415   8.527   1.681   7.751  2.8778  0.4254  0.7585
  330MOL0     O44416   3.193   2.715   1.117 -0.0738 -0.1648 -0.1577
  330MOL0     C44417   3.166   2.666   1.006 -1.3563  0.7414  0.2372
  330MOL0     O44418   3.066   2.577   0.978  0.0888 -0.5075 -0.2372
  330MOL0     C44419   2.995   2.529   1.084 -0.1596  0.0103  0.0828
  330MOL0     C44420   3.007   2.390   1.119 -0.3444 -0.3922 -0.0242
  330MOL0     C44421   2.939   2.348   1.232  0.5736 -0.2084 -0.5747
  330MOL0     C44422   2.862   2.424   1.314  0.0706  0.0499  0.2561
  330MOL0     O44423   2.797   2.365   1.413 -0.0310 -0.5624  0.5304
  330MOL0     C44424   2.766   2.425   1.530 -0.2778 -0.7159 -0.4561
  330MOL0     C44425   2.620   2.474   1.530 -1.8161  1.0895  0.5638
  330MOL0     C44426   2.548   2.440   1.671 -0.2510 -0.8143  0.7549
  330MOL0     C44427   2.394   2.426   1.640  0.4013  0.5436 -0.0607
  330MOL0     C44428   2.303   2.379   1.763  0.1264 -0.5676  0.5037
  330MOL0     C44429   2.165   2.331   1.714 -0.6786  0.3722  0.6763
  330MOL0     C44430   2.086   2.299   1.845  0.9525 -0.0979 -1.3839
  330MOL0     C44431   2.001   2.182   1.832  0.4805  0.2843  0.8920
  330MOL0     N44432   1.951   2.134   1.967 -0.0635 -0.2732  0.3995
  330MOL0     C44433   1.869   2.212   2.041  0.4182  0.1092 -0.4022
  330MOL0     C44434   1.852   2.133   2.154  1.0300  0.0665  0.8816
  330MOL0     C44435   1.776   2.167   2.275 -0.5211 -0.3509  0.6019
  330MOL0     C44436   1.628   2.180   2.269 -0.2686 -0.5253 -0.6283
  330MOL0     C44437   1.580   2.038   2.243 -0.2839  0.1848 -1.0053
  330MOL0     C44438   1.438   2.037   2.222  1.0230  0.4694 -0.2401
  330MOL0     O44439   1.413   2.070   2.080  0.7221  0.1352 -0.2175
  330MOL0     C44440   1.288   2.102   2.052  0.2276 -0.3110 -0.0731
  330MOL0     C44441   1.234   2.065   1.935  0.3187 -0.5714 -0.2043
  330MOL0     C44442   1.104   2.105   1.893 -0.5110 -0.3497 -0.2611
  330MOL0     C44443   1.053   2.030   1.770  0.5587 -0.2517 -0.5038
  330MOL0     C44444   1.031   2.199   1.976  0.4930 -0.6987 -0.4743
  330MOL0     C44445   0.889   2.253   1.945 -0.6792  0.3929 -0.3816
  330MOL0     O44446   0.816   2.305   2.047 -0.1566  0.1029  0.4463
  330MOL0     C44447   0.692   2.354   2.026  0.4271 -0.0287  0.5469
  330MOL0     C44448   0.602   2.293   1.938 -0.8958 -0.0961 -0.4574
  330MOL0     C44449   0.476   2.351   1.925 -0.5578  0.3790 -0.3154
  330MOL0     C44450   0.425   2.448   2.016  0.2931 -0.2594 -0.3901
  330MOL0     O44451   0.301   2.500   2.021  0.3693 -0.6627  0.0311
  330MOL0     C44452   0.214   2.458   1.917  0.0488  0.1737  0.6660
  330MOL0     C44453   0.080   2.539   1.926  0.4999  0.4187  0.0572
  330MOL0     C44454  -0.018   2.454   2.005 -0.3458 -0.3420 -0.6367
  330MOL0     C44455  -0.154   2.504   1.970  0.0753 -0.7033 -1.5113
  330MOL0     C44456  -0.273   2.405   1.990 -0.4774 -0.2138 -0.9883
  330MOL0     C44457  -0.292   2.372   2.138 -0.0495  0.4187 -0.0002
  330MOL0     C44458  -0.403   2.264   2.156 -0.0373  0.4040 -0.1763
  330MOL0     C44459  -0.527   2.289   2.074 -0.0007 -0.0361  0.5569
  330MOL0    Cl44460  -0.540   2.183   1.934  0.2948  0.0191 -0.3628
  330MOL0     C44461   0.510   2.497   2.115  0.4133  0.3962  0.4881
  330MOL0     C44462   0.641   2.449   2.118  1.1021  0.1069  0.1550
  330MOL0     O44463   0.848   2.236   1.827 -1.2821  0.3068  0.1620
  330MOL0     C44464   1.101   2.247   2.093 -0.4571  0.4505  0.0670
  330MOL0     C44465   1.227   2.202   2.130 -0.3464 -0.0010 -0.5783
  330MOL0     N44466   1.923   2.014   2.134  0.3002 -0.0818 -0.5710
  330MOL0     N44467   1.992   2.021   2.028  0.4390  0.2316 -0.1478
  330MOL0     C44468   2.852   2.559   1.288  0.8554 -0.9340 -0.8520
  330MOL0     C44469   2.923   2.609   1.173  0.0343 -0.1625  0.6545
  330MOL0     C44470   3.244   2.717   0.880  0.5021  0.9475  0.3650
  330MOL0     C44471   3.344   2.806   0.888 -0.4146  0.2470 -0.1433
  330MOL0     C44472   3.426   2.837   0.778  0.1778  0.1425  0.7790
  330MOL0     C44473   3.403   2.772   0.655 -0.4284 -0.6791 -0.1191
  330MOL0     O44474   3.485   2.800   0.553 -0.0669 -0.5850 -0.4081
  330MOL0     C44475   3.531   2.701   0.460 -0.2499 -0.2902  0.3607
  330MOL0     C44476   3.675   2.732   0.416 -0.4627 -0.3685 -0.2176
  330MOL0     C44477   3.746   2.612   0.350 -0.1492 -0.1122 -0.5953
  330MOL0     C44478   3.873   2.566   0.434 -0.6967  0.8779  0.3593
  330MOL0     C44479   3.840   2.521   0.569 -0.5625 -0.3033 -0.0853
  330MOL0     C44480   3.808   2.479   0.679  0.3216  0.0193  0.0311
  330MOL0     C44481   3.296   2.689   0.646 -0.3018 -0.8123  0.1603
  330MOL0     C44482   3.212   2.666   0.757 -0.0117  0.9130 -0.5973
  330MOL0     H44483   3.060   2.313   1.064  1.9813 -0.6103  2.3383
  330MOL0     H44484   2.951   2.246   1.267  0.8479 -0.5623 -1.6751
  330MOL0     H44485   2.778   2.352   1.611  2.2076 -2.3811 -2.1656
  330MOL0     H44486   2.840   2.497   1.567 -0.9071 -1.6310  2.9686
  330MOL0     H44487   2.614   2.578   1.497 -1.1253  0.9382 -0.0780
  330MOL0     H44488   2.559   2.423   1.455 -1.2858 -0.1465  0.9580
  330MOL0     H44489   2.589   2.344   1.706  1.9074 -0.2542 -0.0410
  330MOL0     H44490   2.583   2.517   1.740  0.7713 -1.0668  0.5461
  330MOL0     H44491   2.355   2.521   1.602 -2.9115 -0.3143  0.9005
  330MOL0     H44492   2.389   2.349   1.562  1.8881  2.0001 -1.6933
  330MOL0     H44493   2.369   2.318   1.826  2.2018  2.1522  1.1355
  330MOL0     H44494   2.288   2.461   1.834 -1.1531 -2.1905  2.2168
  330MOL0     H44495   2.116   2.410   1.656  1.3301  2.1331  1.2730
  330MOL0     H44496   2.178   2.232   1.668 -1.6824  0.4096  0.2865
  330MOL0     H44497   2.149   2.276   1.932 -1.3673 -2.4037 -0.1673
  330MOL0     H44498   2.025   2.386   1.869  0.2026 -0.8570 -0.4674
  330MOL0     H44499   2.049   2.098   1.780 -1.4980 -0.1462 -0.3584
  330MOL0     H44500   1.916   2.207   1.769  1.0025  0.4100  0.2239
  330MOL0     H44501   1.833   2.312   2.018 -2.1694 -0.2200  1.7350
  330MOL0     H44502   1.797   2.084   2.344  0.0117 -1.5702 -0.9608
  330MOL0     H44503   1.824   2.255   2.318  2.0033 -1.8843  1.1805
  330MOL0     H44504   1.604   2.251   2.190 -0.5260 -0.6124 -0.6276
  330MOL0     H44505   1.593   2.229   2.360 -3.1275 -1.4729 -1.1342
  330MOL0     H44506   1.608   1.980   2.332 -1.1774  0.5434 -0.4739
  330MOL0     H44507   1.633   2.008   2.152  0.4240 -0.2089 -0.4759
  330MOL0     H44508   1.389   2.117   2.278  0.9210  2.2336 -2.6749
  330MOL0     H44509   1.389   1.943   2.247 -1.0858  2.0891  2.0965
  330MOL0     H44510   1.295   2.004   1.869  3.0089  3.4041 -1.8445
  330MOL0     H44511   1.107   1.936   1.763 -0.5443 -0.8218 -1.6532
  330MOL0     H44512   0.946   2.006   1.778 -0.1167  1.9049 -2.0471
  330MOL0     H44513   1.059   2.089   1.678 -2.7270  1.2687  0.0903
  330MOL0     H44514   0.624   2.209   1.874 -0.4735  0.6292 -1.2847
  330MOL0     H44515   0.417   2.305   1.847 -0.2980  2.0104 -1.5201
  330MOL0     H44516   0.264   2.493   1.827 -0.8318 -0.1848  0.0226
  330MOL0     H44517   0.201   2.350   1.910 -0.1008  0.2161  0.2700
  330MOL0     H44518   0.085   2.641   1.966 -1.0858 -0.2485  2.0804
  330MOL0     H44519   0.045   2.561   1.824 -0.4370  0.5564  0.4011
  330MOL0     H44520  -0.002   2.454   2.113  1.6535 -2.7181 -0.8608
  330MOL0     H44521  -0.005   2.351   1.972  1.4286  0.3436 -2.2582
  330MOL0     H44522  -0.175   2.594   2.029 -1.5846 -1.9776 -0.0087
  330MOL0     H44523  -0.150   2.537   1.866  2.6841  1.6805 -0.7897
  330MOL0     H44524  -0.256   2.314   1.931  0.3940  1.6139 -3.7574
  330MOL0     H44525  -0.363   2.457   1.956 -1.7826 -1.6654  0.0695
  330MOL0     H44526  -0.197   2.330   2.173 -0.7804 -0.3387  1.1701
  330MOL0     H44527  -0.311   2.458   2.203 -1.7762  0.1848 -0.1485
  330MOL0     H44528  -0.424   2.253   2.262 -1.3193 -1.9930 -0.6066
  330MOL0     H44529  -0.369   2.165   2.122 -1.0713  1.0228 -3.4285
  330MOL0     H44530  -0.534   2.393   2.041 -0.3867 -0.4797 -0.8103
  330MOL0     H44531  -0.618   2.272   2.132 -0.9525 -0.8188 -1.1071
  330MOL0     H44532   0.466   2.558   2.192 -1.4085  1.5237 -1.3449
  330MOL0     H44533   0.708   2.483   2.197  0.2631 -0.8857  1.3396
  330MOL0     H44534   1.052   2.319   2.157  2.2046 -0.6348  3.6912
  330MOL0     H44535   1.257   2.249   2.224 -0.4540 -2.2533  0.6568
  330MOL0     H44536   2.806   2.633   1.353  0.5590 -0.0089 -2.0876
  330MOL0     H44537   2.904   2.715   1.158 -1.7867 -0.6028 -0.6206
  330MOL0     H44538   3.361   2.854   0.983  0.0213 -0.4468  0.1360
  330MOL0     H44539   3.504   2.910   0.795  1.3583 -1.6452  3.9887
  330MOL0     H44540   3.531   2.604   0.511 -2.6159 -0.1840  0.6884
  330MOL0     H44541   3.452   2.709   0.384 -0.7801 -0.4585  0.8855
  330MOL0     H44542   3.739   2.752   0.503 -0.1495  0.3673 -0.6156
  330MOL0     H44543   3.673   2.825   0.359  0.5688  0.8677  1.6530
  330MOL0     H44544   3.774   2.647   0.251 -1.8356  0.7294 -0.8041
  330MOL0     H44545   3.685   2.521   0.340 -1.4596  0.8295 -1.3777
  330MOL0     H44546   3.944   2.648   0.421  1.0803 -0.8118 -1.1917
  330MOL0     H44547   3.920   2.477   0.392 -0.8350  0.1249  1.7339
  330MOL0     H44548   3.765   2.440   0.769  1.4946  0.4535  0.8023
  330MOL0     H44549   3.283   2.649   0.546 -2.3557  1.4801 -0.5756
  330MOL0     H44550   3.128   2.597   0.744  0.2695  0.2884  0.7675
  331MOL0     O44551   1.676   1.629   3.547  0.5193 -0.2907 -0.2050
  331MOL0     C44552   1.732   1.729   3.514 -0.1187 -1.3496  0.0699
  331MOL0     O44553   1.699   1.798   3.405  0.2530  0.1977 -0.5410
  331MOL0     C44554   1.596   1.762   3.320  0.3897  0.0613 -0.2219
  331MOL0     C44555   1.614   1.692   3.203  0.4314  0.3597 -0.3610
  331MOL0     C44556   1.507   1.686   3.114  0.1055  0.5665 -0.4949
  331MOL0     C44557   1.377   1.727   3.158  0.4161 -0.0053  0.2728
  331MOL0     O44558   1.280   1.704   3.068 -0.1971 -0.5022 -0.1162
  331MOL0     C44559   1.154   1.772   3.080 -0.6677  0.1212 -0.4795
  331MOL0     C44560   1.080   1.721   2.962 -0.1066 -0.0855 -1.5549
  331MOL0     C44561   0.977   1.822   2.923  0.3604 -1.0713  0.4299
  331MOL0     C44562   0.887   1.779   2.801 -0.1836  0.5951 -0.4429
  331MOL0     C44563   0.968   1.761   2.673  0.5956 -0.1096  0.1254
  331MOL0     C44564   0.867   1.739   2.556 -0.5501  0.1866  0.1202
  331MOL0     C44565   0.935   1.745   2.416  0.4928 -0.7556  0.4795
  331MOL0     C44566   1.040   1.635   2.401 -0.1120 -0.0954  0.0330
  331MOL0     N44567   0.975   1.505   2.379  0.8715 -0.0424  0.6962
  331MOL0     C44568   0.930   1.470   2.254 -0.0118 -0.0903  0.2731
  331MOL0     C44569   0.832   1.384   2.282  0.0235 -0.4611  1.2907
  331MOL0     C44570   0.746   1.318   2.177 -0.4897 -0.0635  0.2793
  331MOL0     C44571   0.831   1.240   2.080  0.3001  0.4832 -0.9409
  331MOL0     C44572   0.912   1.122   2.135  0.3835 -0.1540 -0.2880
  331MOL0     C44573   1.058   1.135   2.107  0.7013  0.7996 -0.2254
  331MOL0     O44574   1.068   1.151   1.960  0.1028 -0.6784  0.1629
  331MOL0     C44575   1.158   1.253   1.932 -0.3953  0.4987 -0.1231
  331MOL0     C44576   1.296   1.230   1.929 -0.4052  0.0464  0.5997
  331MOL0     C44577   1.397   1.326   1.917 -1.0496 -0.2714  0.0627
  331MOL0     C44578   1.543   1.275   1.944  0.2532 -0.3357  0.3486
  331MOL0     C44579   1.354   1.465   1.891  0.2850  0.6949 -0.7762
  331MOL0     C44580   1.456   1.572   1.878 -0.6293 -0.3581 -0.4646
  331MOL0     O44581   1.393   1.696   1.841 -0.9018  0.0082 -0.4329
  331MOL0     C44582   1.481   1.801   1.800 -0.2842 -0.1561  1.5285
  331MOL0     C44583   1.476   1.841   1.664  0.1396 -0.5360  0.2077
  331MOL0     C44584   1.556   1.945   1.603  0.2857  0.7008 -0.0831
  331MOL0     C44585   1.656   1.998   1.685  0.6010  0.1003 -0.5884
  331MOL0     O44586   1.746   2.089   1.635 -0.5971  0.6513 -0.0487
  331MOL0     C44587   1.732   2.145   1.508  0.6990  0.5514  0.1966
  331MOL0     C44588   1.844   2.241   1.469 -0.1563  0.2188  0.1784
  331MOL0     C44589   1.971   2.158   1.447 -0.7323 -1.2996  0.1993
  331MOL0     C44590   2.089   2.240   1.377 -0.9286 -1.3929  0.3262
  331MOL0     C44591   2.197   2.149   1.321 -0.5811  0.4903 -0.9636
  331MOL0     C44592   2.307   2.235   1.271 -0.6822  0.4572  0.5269
  331MOL0     C44593   2.443   2.159   1.257 -0.1195  0.3026 -0.0136
  331MOL0     C44594   2.527   2.205   1.139 -0.2158 -0.1594  0.5541
  331MOL0    Cl44595   2.555   2.386   1.124  0.0219  0.3035  0.3365
  331MOL0     C44596   1.660   1.965   1.821 -0.3308  0.2655 -0.1427
  331MOL0     C44597   1.570   1.870   1.875  0.7873  0.1722 -0.1146
  331MOL0     O44598   1.575   1.554   1.890 -0.1131 -0.7395 -0.0250
  331MOL0     C44599   1.216   1.490   1.905  0.1665  0.8063  0.8861
  331MOL0     C44600   1.122   1.387   1.920 -0.3565 -0.4469 -1.1199
  331MOL0     N44601   0.831   1.367   2.413  1.0297 -0.2974 -0.5095
  331MOL0     N44602   0.921   1.432   2.477 -0.1751  0.0078 -0.5972
  331MOL0     C44603   1.359   1.778   3.279  0.2053 -0.0612  0.2830
  331MOL0     C44604   1.469   1.807   3.356 -0.0724  0.2027  0.1964
  331MOL0     C44605   1.839   1.793   3.598  0.5448  0.1340  0.1897
  331MOL0     C44606   1.856   1.753   3.728 -1.1136 -0.1673 -0.0933
  331MOL0     C44607   1.956   1.810   3.807 -1.4576 -0.7166 -0.3374
  331MOL0     C44608   2.035   1.921   3.759  0.6604 -0.8727  0.7206
  331MOL0     O44609   2.131   1.990   3.817 -0.8814 -0.2039 -0.0647
  331MOL0     C44610   2.182   1.929   3.934  0.0032 -0.3993 -0.5975
  331MOL0     C44611   2.318   1.993   3.975  0.1215 -0.1790  0.7886
  331MOL0     C44612   2.310   2.145   4.000 -0.0267 -0.2767  0.0373
  331MOL0     C44613   2.449   2.203   4.023 -1.2265 -0.4271 -0.1580
  331MOL0     C44614   2.515   2.138   4.135 -1.1066 -0.9217  0.7495
  331MOL0     C44615   2.549   2.099   4.241  0.5802  0.9067 -0.2647
  331MOL0     C44616   2.002   1.968   3.630  0.6365 -0.8884 -0.3711
  331MOL0     C44617   1.913   1.898   3.546  0.2498 -0.1750 -0.1029
  331MOL0     H44618   1.716   1.661   3.185  0.5025  1.3136 -1.8281
  331MOL0     H44619   1.530   1.631   3.023  1.1267 -0.6406  0.4489
  331MOL0     H44620   1.104   1.744   3.173 -1.3167  1.3729 -0.4252
  331MOL0     H44621   1.161   1.881   3.067 -1.6203  0.2469 -0.0769
  331MOL0     H44622   1.155   1.717   2.881  2.2411  2.6305  0.2921
  331MOL0     H44623   1.040   1.623   2.990 -1.1933  0.7827  0.0207
  331MOL0     H44624   0.915   1.843   3.011  1.7259 -1.4596  1.5185
  331MOL0     H44625   1.024   1.915   2.888  1.4189 -1.4870  0.7191
  331MOL0     H44626   0.839   1.688   2.839 -1.5747  1.1671 -0.7713
  331MOL0     H44627   0.810   1.854   2.785 -0.9121  0.9540  3.7266
  331MOL0     H44628   1.014   1.859   2.655 -0.9260  0.4614 -0.8035
  331MOL0     H44629   1.048   1.687   2.678 -1.9726 -3.3134 -2.4078
  331MOL0     H44630   0.819   1.643   2.579  1.6382 -0.6669  1.4488
  331MOL0     H44631   0.786   1.812   2.560 -0.7673  0.1099 -2.0648
  331MOL0     H44632   0.863   1.730   2.335  0.0806  0.9464  0.4779
  331MOL0     H44633   0.972   1.847   2.399 -1.5321 -0.0165  0.1953
  331MOL0     H44634   1.100   1.630   2.493 -3.8846 -0.8122  2.6628
  331MOL0     H44635   1.103   1.654   2.313  0.3514  0.6470  0.5109
  331MOL0     H44636   0.964   1.517   2.162 -1.3592  1.9955  0.7918
  331MOL0     H44637   0.661   1.263   2.218  0.5666 -1.7461  0.3039
  331MOL0     H44638   0.703   1.400   2.119  0.6299 -0.4978 -1.2284
  331MOL0     H44639   0.896   1.308   2.024 -0.3436  0.5438 -1.6289
  331MOL0     H44640   0.751   1.200   2.018 -0.9517  2.9931 -1.0945
  331MOL0     H44641   0.862   1.034   2.091 -0.4301  0.7883 -1.2972
  331MOL0     H44642   0.894   1.120   2.243  0.0053  1.2510 -0.3054
  331MOL0     H44643   1.119   1.046   2.123  0.5615 -0.4355 -5.0764
  331MOL0     H44644   1.093   1.213   2.174  0.6569  0.5144  0.1351
  331MOL0     H44645   1.334   1.130   1.949 -0.7831  0.1205  1.7870
  331MOL0     H44646   1.609   1.302   1.861 -0.1122 -0.6025 -0.0363
  331MOL0     H44647   1.578   1.310   2.041  0.0908 -0.2362  0.3702
  331MOL0     H44648   1.542   1.166   1.954 -2.9678 -0.6498 -1.7971
  331MOL0     H44649   1.406   1.778   1.610  1.5316 -2.3811  0.4562
  331MOL0     H44650   1.551   1.968   1.497  2.2913 -2.8779 -1.0944
  331MOL0     H44651   1.730   2.061   1.438 -0.2842  0.9914 -0.3193
  331MOL0     H44652   1.634   2.193   1.500  0.4150 -0.2245 -1.4062
  331MOL0     H44653   1.807   2.288   1.378 -1.1288 -0.3316  0.2747
  331MOL0     H44654   1.861   2.310   1.552  1.9872 -1.0040  0.8290
  331MOL0     H44655   1.950   2.071   1.384  0.5826 -0.1330 -1.9681
  331MOL0     H44656   2.014   2.130   1.544  2.8698  1.1192 -0.5310
  331MOL0     H44657   2.049   2.297   1.293 -1.3786 -2.4051 -0.1762
  331MOL0     H44658   2.118   2.311   1.454 -1.7365  1.7201 -2.0274
  331MOL0     H44659   2.158   2.087   1.240 -1.0937 -1.5882  0.7768
  331MOL0     H44660   2.237   2.086   1.402  0.0251  0.9400 -0.9090
  331MOL0     H44661   2.283   2.276   1.173 -0.3137 -0.7740 -0.0939
  331MOL0     H44662   2.320   2.319   1.340 -2.3135  0.5939  0.7096
  331MOL0     H44663   2.425   2.051   1.264  1.5274 -0.3533 -3.5504
  331MOL0     H44664   2.498   2.179   1.349 -2.2390  0.0589  1.3696
  331MOL0     H44665   2.473   2.163   1.054  0.5288  3.0318 -1.6638
  331MOL0     H44666   2.622   2.152   1.146 -1.0385 -1.5801  1.4271
  331MOL0     H44667   1.746   2.006   1.874  1.3100 -0.8963 -1.7959
  331MOL0     H44668   1.583   1.839   1.978 -0.3718 -3.5873 -0.9305
  331MOL0     H44669   1.183   1.593   1.910  0.3178  0.8330  1.4317
  331MOL0     H44670   1.017   1.411   1.936  0.5007  0.9651  5.0968
  331MOL0     H44671   1.263   1.821   3.307 -0.8352  0.0144 -2.9795
  331MOL0     H44672   1.453   1.862   3.448 -1.1877  1.6212 -0.7935
  331MOL0     H44673   1.799   1.671   3.770 -1.6771 -0.3356 -1.1486
  331MOL0     H44674   1.985   1.757   3.898 -0.0740 -0.2704 -0.4891
  331MOL0     H44675   2.108   1.937   4.014 -1.7998 -1.8812 -2.0292
  331MOL0     H44676   2.183   1.820   3.925 -2.6561 -0.6302  0.8402
  331MOL0     H44677   2.391   1.979   3.895  0.6845  0.8056  1.1189
  331MOL0     H44678   2.369   1.933   4.051  3.0291  0.1874 -0.7716
  331MOL0     H44679   2.254   2.177   4.088 -0.3267  0.4798 -0.4100
  331MOL0     H44680   2.246   2.194   3.926  0.5669  4.4929  2.2854
  331MOL0     H44681   2.435   2.309   4.042 -0.6811 -0.3928  0.0761
  331MOL0     H44682   2.524   2.193   3.944  1.8527 -1.8345  2.7083
  331MOL0     H44683   2.565   2.069   4.343 -2.1338  1.1863  0.3133
  331MOL0     H44684   2.057   2.049   3.584  2.7109 -1.4946  0.9027
  331MOL0     H44685   1.911   1.934   3.444  1.9629 -0.4619 -0.2706
  332MOL0     O44686   3.841  10.970   9.183 -0.1193  0.1802  0.4340
  332MOL0     C44687   3.935  10.915   9.131 -0.6843  0.2113  0.1575
  332MOL0     O44688   3.966  10.784   9.154 -0.0001 -0.3388  0.6692
  332MOL0     C44689   3.868  10.700   9.202  0.6435 -1.0709 -0.4783
  332MOL0     C44690   3.901  10.617   9.305  0.0194  0.1516  0.6650
  332MOL0     C44691   3.817  10.515   9.345 -0.0045  0.4481 -0.0019
  332MOL0     C44692   3.682  10.509   9.304 -1.1757  0.1961  0.2708
  332MOL0     O44693   3.584  10.420   9.343 -0.7490 -0.6787 -0.8072
  332MOL0     C44694   3.625  10.308   9.432  0.2594  0.1231 -0.5674
  332MOL0     C44695   3.510  10.210   9.433  0.1429 -0.2301 -0.2990
  332MOL0     C44696   3.400  10.282   9.515  0.0056 -0.0577  0.1406
  332MOL0     C44697   3.283  10.182   9.534  0.6377 -0.0494  0.9312
  332MOL0     C44698   3.161  10.242   9.598 -0.6985 -0.1343 -0.4489
  332MOL0     C44699   3.052  10.146   9.614  0.7814 -0.1933  0.2268
  332MOL0     C44700   2.925  10.188   9.697  0.8631  0.3443  0.3820
  332MOL0     C44701   2.860  10.065   9.768  0.2557  0.4851  0.3404
  332MOL0     N44702   2.752  10.103   9.864 -0.1944  0.0435 -0.2458
  332MOL0     C44703   2.768  10.140   9.997  0.3258 -0.1958  1.2558
  332MOL0     C44704   2.647  10.166  10.047  0.0871  0.1762 -0.0650
  332MOL0     C44705   2.614  10.178  10.196  0.0059 -0.5884  0.0663
  332MOL0     C44706   2.481  10.100  10.228 -0.0618 -0.1209 -0.9891
  332MOL0     C44707   2.468  10.107  10.385  0.2126  0.9411 -0.5032
  332MOL0     C44708   2.352  10.035  10.450 -0.1360  0.8244  0.1003
  332MOL0     O44709   2.230  10.109  10.441  0.2217 -0.5123 -0.7377
  332MOL0     C44710   2.107  10.049  10.469 -0.0422  0.5695 -0.4351
  332MOL0     C44711   2.093   9.927  10.539 -0.5941  0.6090 -0.4551
  332MOL0     C44712   1.965   9.865  10.570  0.4136  0.0888  0.8306
  332MOL0     C44713   1.962   9.727  10.639 -0.1496  0.6253 -0.7980
  332MOL0     C44714   1.848   9.927  10.517 -0.4274  0.0611  0.1623
  332MOL0     C44715   1.713   9.870  10.535 -0.7933  0.3683 -0.1667
  332MOL0     O44716   1.626   9.900  10.436 -0.0459  0.0768  0.1201
  332MOL0     C44717   1.492   9.860  10.467 -0.9467  0.2730  1.5109
  332MOL0     C44718   1.436   9.740  10.409 -0.5296  0.0488  0.2088
  332MOL0     C44719   1.308   9.696  10.440  0.0326 -0.6146  0.1692
  332MOL0     C44720   1.234   9.769  10.522 -0.4601 -0.4300  0.1632
  332MOL0     O44721   1.115   9.715  10.551  0.2600  0.2801  0.1459
  332MOL0     C44722   1.010   9.796  10.614 -0.5211 -0.1424  0.5299
  332MOL0     C44723   0.885   9.704  10.629 -0.2789 -0.9378  0.0163
  332MOL0     C44724   0.766   9.787  10.688  0.3756  0.1814 -0.2994
  332MOL0     C44725   0.646   9.690  10.684 -0.3105  0.5077  0.2639
  332MOL0     C44726   0.509   9.753  10.700 -0.1716  0.2423  0.3953
  332MOL0     C44727   0.470   9.872  10.613 -1.3620 -0.2643 -0.5058
  332MOL0     C44728   0.333   9.929  10.630  0.3022  0.0156  0.2999
  332MOL0     C44729   0.290  10.025  10.516 -0.7153  0.0701  0.3429
  332MOL0    Cl44730   0.386  10.168  10.496 -0.1023 -0.5933  0.3891
  332MOL0     C44731   1.282   9.892  10.579  0.6184 -0.9112  0.2742
  332MOL0     C44732   1.411   9.935  10.544 -0.0166  0.0552  0.1303
  332MOL0     O44733   1.700   9.801  10.629 -0.1595  0.5097 -0.9202
  332MOL0     C44734   1.866  10.046  10.441  0.0096  0.2632  1.0748
  332MOL0     C44735   1.987  10.105  10.427  0.8110 -0.3417  1.3883
  332MOL0     N44736   2.553  10.143   9.946 -0.0519  0.3364  0.1637
  332MOL0     N44737   2.616  10.107   9.838 -0.3442 -0.0152 -0.2388
  332MOL0     C44738   3.643  10.609   9.213 -0.0397 -0.0246 -0.7068
  332MOL0     C44739   3.727  10.704   9.160 -0.1847  0.5758 -0.0987
  332MOL0     C44740   4.023  10.996   9.043  0.1069 -0.1569 -0.7275
  332MOL0     C44741   3.978  11.111   8.980  1.4042  0.2515 -0.2851
  332MOL0     C44742   4.060  11.193   8.903  1.0539  0.5107 -0.5436
  332MOL0     C44743   4.191  11.165   8.871  0.0255  0.0455 -0.6750
  332MOL0     O44744   4.260  11.271   8.821  0.3961 -0.2899  0.4859
  332MOL0     C44745   4.312  11.264   8.687  0.3126  0.2261  0.3124
  332MOL0     C44746   4.301  11.396   8.612  0.3435 -0.3124 -0.0877
  332MOL0     C44747   4.361  11.397   8.470 -0.2914  0.1786  0.7354
  332MOL0     C44748   4.319  11.271   8.389  0.1620  0.1101 -0.4886
  332MOL0     C44749   4.179  11.256   8.351  0.6360  0.1772 -0.2087
  332MOL0     C44750   4.059  11.247   8.326  0.1941  0.6744 -0.1678
  332MOL0     C44751   4.234  11.038   8.906  0.0492 -0.6729  0.0934
  332MOL0     C44752   4.155  10.958   8.992  0.8190  0.5567 -0.7564
  332MOL0     H44753   4.002  10.624   9.345  0.8865 -0.8000 -1.2248
  332MOL0     H44754   3.843  10.444   9.423  0.6538  2.3558  1.6034
  332MOL0     H44755   3.705  10.254   9.381 -0.9839 -1.9730 -0.4450
  332MOL0     H44756   3.666  10.341   9.528  1.6931 -0.0900 -1.0898
  332MOL0     H44757   3.493  10.194   9.327  1.0821 -1.4918 -0.2797
  332MOL0     H44758   3.540  10.115   9.479 -0.5406 -0.8085 -1.0428
  332MOL0     H44759   3.432  10.313   9.615  1.4961 -0.9868 -0.0227
  332MOL0     H44760   3.358  10.367   9.460 -0.1922 -0.2195  0.0351
  332MOL0     H44761   3.262  10.148   9.432  0.9410  2.8798 -0.1937
  332MOL0     H44762   3.321  10.098   9.593  3.1821  0.5080  0.2107
  332MOL0     H44763   3.187  10.278   9.698  0.5185  1.5286 -1.3240
  332MOL0     H44764   3.122  10.323   9.536  0.3226  1.9961  1.5669
  332MOL0     H44765   3.016  10.122   9.514  4.5146 -1.8717 -0.8824
  332MOL0     H44766   3.086  10.049   9.651 -0.3373 -0.6944 -0.0174
  332MOL0     H44767   2.958  10.260   9.772 -0.5649  1.9536 -0.4678
  332MOL0     H44768   2.853  10.229   9.625 -1.3916 -1.3175  1.5687
  332MOL0     H44769   2.928  10.010   9.835 -0.0589 -2.4960 -1.5940
  332MOL0     H44770   2.835   9.991   9.691  0.6741 -2.3691  2.7327
  332MOL0     H44771   2.854  10.138  10.064  1.1388 -0.7798  0.2130
  332MOL0     H44772   2.705  10.142  10.246  0.9800  1.4503 -0.1574
  332MOL0     H44773   2.606  10.286  10.207 -1.0729 -0.2697 -2.9776
  332MOL0     H44774   2.480   9.994  10.203  0.2945 -0.5490  0.6851
  332MOL0     H44775   2.391  10.150  10.189  0.1568  1.2500  0.1854
  332MOL0     H44776   2.465  10.209  10.425 -1.3952  1.1083 -0.9898
  332MOL0     H44777   2.561  10.063  10.424 -0.5723 -1.1785 -0.9290
  332MOL0     H44778   2.383  10.023  10.554 -0.0857 -1.9275 -0.1604
  332MOL0     H44779   2.334   9.939  10.400 -0.3946  2.0091 -2.2290
  332MOL0     H44780   2.174   9.861  10.570 -0.7067 -0.7823 -2.9016
  332MOL0     H44781   2.064   9.690  10.647  0.0391  1.6195  4.1250
  332MOL0     H44782   1.921   9.725  10.740 -0.8182 -1.5607 -1.0482
  332MOL0     H44783   1.908   9.657  10.574 -1.7498  1.1951 -0.1440
  332MOL0     H44784   1.501   9.674  10.352  1.9610  1.8740  0.7264
  332MOL0     H44785   1.274   9.603  10.395  0.5034  0.5714 -2.8656
  332MOL0     H44786   1.033   9.829  10.716  0.0216  2.8444 -0.4674
  332MOL0     H44787   0.991   9.884  10.552 -0.4138 -0.9987 -0.7537
  332MOL0     H44788   0.858   9.650  10.538 -3.2783 -1.4817  1.1149
  332MOL0     H44789   0.915   9.627  10.702 -0.1761  1.3609  2.5772
  332MOL0     H44790   0.747   9.880  10.634  2.2166  0.4410 -0.5464
  332MOL0     H44791   0.779   9.802  10.796 -0.4388  0.4059 -0.2241
  332MOL0     H44792   0.648   9.637  10.588 -4.3496 -3.3931  1.9726
  332MOL0     H44793   0.660   9.616  10.763 -2.0392 -0.3641 -0.2052
  332MOL0     H44794   0.486   9.780  10.804  0.0742  0.5104  0.3802
  332MOL0     H44795   0.435   9.674  10.685  0.4455 -0.2639 -0.0467
  332MOL0     H44796   0.528   9.959  10.643  0.0544 -1.3401 -0.0427
  332MOL0     H44797   0.506   9.851  10.512 -0.3478  2.0110 -0.6786
  332MOL0     H44798   0.316   9.975  10.727  2.5622  0.5584  0.5029
  332MOL0     H44799   0.258   9.849  10.635  0.1378  0.0673 -1.0232
  332MOL0     H44800   0.189  10.062  10.535 -1.4334 -2.3484  1.6858
  332MOL0     H44801   0.294   9.967  10.424 -3.1344 -1.5998  1.1822
  332MOL0     H44802   1.219   9.931  10.658  0.2072 -4.0841  1.6632
  332MOL0     H44803   1.444  10.019  10.604  0.9868  0.2443 -0.6709
  332MOL0     H44804   1.774  10.076  10.392 -0.5337 -1.9579  0.6500
  332MOL0     H44805   2.006  10.195  10.370 -0.0217 -0.3859  1.0385
  332MOL0     H44806   3.543  10.600   9.171 -1.3949  2.4967  1.6588
  332MOL0     H44807   3.689  10.769   9.081 -1.3434 -0.8825 -0.7905
  332MOL0     H44808   3.878  11.146   9.003  1.8755  1.5526 -0.1865
  332MOL0     H44809   4.013  11.284   8.868 -0.7217  0.1130  0.6790
  332MOL0     H44810   4.417  11.234   8.691  0.2742  0.0902  0.2821
  332MOL0     H44811   4.250  11.197   8.629  0.9400 -0.9749  0.9858
  332MOL0     H44812   4.349  11.469   8.678  1.0303 -0.3864 -0.5058
  332MOL0     H44813   4.195  11.418   8.594  0.3601  0.2954  0.5140
  332MOL0     H44814   4.469  11.392   8.488 -0.3774 -4.3980  1.3127
  332MOL0     H44815   4.332  11.491   8.421  0.7704  1.4487  2.4435
  332MOL0     H44816   4.355  11.179   8.435 -1.1560  1.4452  3.6959
  332MOL0     H44817   4.373  11.273   8.294  2.5750 -2.3768  0.7026
  332MOL0     H44818   3.953  11.244   8.310  0.2677  2.5475 -1.3859
  332MOL0     H44819   4.331  11.003   8.873 -1.2056 -2.2566 -2.1226
  332MOL0     H44820   4.199  10.864   9.026  0.7274  0.0469 -2.0020
  333MOL0     O44821   2.666   9.513   9.545  0.6367  0.3238  1.0664
  333MOL0     C44822   2.548   9.480   9.567 -0.0592 -0.1745 -0.2597
  333MOL0     O44823   2.488   9.367   9.526  0.2012  0.1306  0.0692
  333MOL0     C44824   2.539   9.288   9.422  0.6693  0.3119 -0.7071
  333MOL0     C44825   2.535   9.153   9.447  0.3374 -0.0426  0.0231
  333MOL0     C44826   2.589   9.069   9.354 -0.4095 -0.3289  0.8349
  333MOL0     C44827   2.638   9.115   9.224 -0.3721  0.7799 -0.4989
  333MOL0     O44828   2.682   9.024   9.135 -0.5655  0.8380 -0.1251
  333MOL0     C44829   2.663   9.038   8.995 -0.8519  0.0180  0.3303
  333MOL0     C44830   2.725   8.928   8.912  0.2706  0.0384  0.3690
  333MOL0     C44831   2.881   8.900   8.948 -0.1586 -0.3470  0.7389
  333MOL0     C44832   2.958   8.810   8.860 -0.6901 -0.6121 -0.0309
  333MOL0     C44833   3.096   8.774   8.929 -0.9275 -0.5276  0.2105
  333MOL0     C44834   3.189   8.716   8.825  0.2135  0.3608 -1.5732
  333MOL0     C44835   3.337   8.751   8.843  0.0095 -0.3449 -0.5439
  333MOL0     C44836   3.415   8.663   8.741 -0.3033 -0.1415 -0.2638
  333MOL0     N44837   3.550   8.640   8.792 -0.5839  0.3939  0.2990
  333MOL0     C44838   3.668   8.643   8.719  0.4091 -0.2461  0.6200
  333MOL0     C44839   3.765   8.601   8.807  0.3640 -0.5075 -0.1105
  333MOL0     C44840   3.914   8.602   8.777  0.2787 -0.3893  0.0723
  333MOL0     C44841   3.999   8.576   8.904  0.1066  0.3623 -0.2020
  333MOL0     C44842   4.133   8.631   8.883 -0.7295 -0.0292 -0.2627
  333MOL0     C44843   4.232   8.539   8.800  0.1730 -0.4120  0.0363
  333MOL0     O44844   4.352   8.611   8.790  0.1905 -0.3831 -0.2933
  333MOL0     C44845   4.463   8.553   8.794  0.2642 -0.2866 -0.3211
  333MOL0     C44846   4.567   8.620   8.850  0.4549 -0.0621  0.4477
  333MOL0     C44847   4.688   8.566   8.868 -0.2682  0.1927  0.3549
  333MOL0     C44848   4.787   8.653   8.938  0.3973 -0.0895 -1.0865
  333MOL0     C44849   4.719   8.433   8.823 -0.2732 -0.4165 -0.5240
  333MOL0     C44850   4.845   8.352   8.848 -0.3656 -0.5024  0.3258
  333MOL0     O44851   4.880   8.247   8.759  0.1129  0.9480 -0.0547
  333MOL0     C44852   5.000   8.185   8.770 -0.1809 -0.3702  0.8997
  333MOL0     C44853   5.011   8.052   8.803  0.0754 -0.3497  0.7002
  333MOL0     C44854   5.137   7.998   8.821  0.3258 -0.3597 -0.3678
  333MOL0     C44855   5.252   8.078   8.814  0.3953  0.4484 -0.2143
  333MOL0     O44856   5.368   8.018   8.842  0.0130  0.4662 -0.0106
  333MOL0     C44857   5.498   8.055   8.787  1.3874  0.2405  0.2874
  333MOL0     C44858   5.599   7.944   8.806 -0.5806  0.2792 -0.2269
  333MOL0     C44859   5.563   7.810   8.732  0.6922  0.9401 -0.0303
  333MOL0     C44860   5.677   7.706   8.738  0.7848  0.8933  1.1342
  333MOL0     C44861   5.818   7.761   8.701  0.6941 -0.4133  0.2342
  333MOL0     C44862   5.827   7.836   8.565 -0.0161 -0.2175  0.1575
  333MOL0     C44863   5.968   7.871   8.522 -0.5601 -0.6109  0.0862
  333MOL0     C44864   6.039   7.768   8.436  0.5848 -0.2448 -1.0332
  333MOL0    Cl44865   6.191   7.821   8.362  0.1543 -0.1848 -0.0423
  333MOL0     C44866   5.241   8.209   8.771  0.5206 -0.9290  0.5529
  333MOL0     C44867   5.109   8.264   8.761 -1.0280 -0.4291 -0.2235
  333MOL0     O44868   4.913   8.379   8.952 -0.1675  0.0128  0.2363
  333MOL0     C44869   4.611   8.360   8.768 -0.4152  0.5312  0.2542
  333MOL0     C44870   4.486   8.425   8.749  0.7764  0.6648  0.2861
  333MOL0     N44871   3.707   8.596   8.934  0.9397 -0.2031  0.6132
  333MOL0     N44872   3.583   8.602   8.919  0.3934 -0.8709 -0.2577
  333MOL0     C44873   2.627   9.247   9.188  0.4402  0.1458 -0.4047
  333MOL0     C44874   2.586   9.328   9.296  0.1485  0.0937 -0.0049
  333MOL0     C44875   2.473   9.587   9.646 -0.8970  0.6326 -0.1338
  333MOL0     C44876   2.522   9.712   9.676  0.0608  0.2321  0.3572
  333MOL0     C44877   2.444   9.804   9.751 -0.8348  0.2292 -0.2950
  333MOL0     C44878   2.320   9.779   9.800  0.7340  0.0896  0.4882
  333MOL0     O44879   2.225   9.859   9.848  0.7322 -0.0204  0.1204
  333MOL0     C44880   2.260   9.998   9.868 -0.5661 -0.7646  0.6231
  333MOL0     C44881   2.139  10.079   9.902  0.7791 -0.1914 -0.0067
  333MOL0     C44882   2.087  10.023  10.038  0.8252 -0.4966  0.5265
  333MOL0     C44883   1.950  10.086  10.079  0.7205  0.4024  0.6051
  333MOL0     C44884   1.846  10.080   9.968 -1.0079  0.3690  0.6291
  333MOL0     C44885   1.768  10.080   9.874 -0.0540  0.6947  1.4386
  333MOL0     C44886   2.277   9.647   9.787  0.6363  0.4849  0.6604
  333MOL0     C44887   2.349   9.548   9.709 -0.7148  0.5113 -0.0120
  333MOL0     H44888   2.493   9.127   9.543 -0.9221  0.5150 -0.3483
  333MOL0     H44889   2.591   8.963   9.379  1.6884 -0.3922  0.6050
  333MOL0     H44890   2.557   9.044   8.968 -0.8069  1.5164  0.4219
  333MOL0     H44891   2.705   9.135   8.969 -2.7935  0.9579  0.4486
  333MOL0     H44892   2.670   8.835   8.931 -0.3093  0.2973 -0.0268
  333MOL0     H44893   2.708   8.956   8.808  1.9717  2.0373  0.5610
  333MOL0     H44894   2.929   8.998   8.949 -3.8344  1.6606  1.9303
  333MOL0     H44895   2.878   8.862   9.051  1.6050  1.6482  1.5919
  333MOL0     H44896   2.912   8.720   8.819  1.0184 -0.5215 -2.4031
  333MOL0     H44897   2.984   8.874   8.775  2.6209 -0.6360  0.8249
  333MOL0     H44898   3.150   8.859   8.972  0.0109 -1.0225  0.0228
  333MOL0     H44899   3.083   8.701   9.009 -1.1749  0.0533  0.7141
  333MOL0     H44900   3.176   8.607   8.816  2.1623  0.1112 -1.8112
  333MOL0     H44901   3.163   8.763   8.730  1.3346  0.4586 -1.8495
  333MOL0     H44902   3.352   8.859   8.831 -2.7485  0.1089 -0.5967
  333MOL0     H44903   3.377   8.731   8.943  0.7315  0.3127 -0.6878
  333MOL0     H44904   3.429   8.715   8.646 -0.0573 -1.8693 -1.2151
  333MOL0     H44905   3.365   8.569   8.716  2.4173 -1.4019 -1.3431
  333MOL0     H44906   3.669   8.671   8.614 -2.6746 -2.8543 -0.2870
  333MOL0     H44907   3.941   8.531   8.699  3.1792 -2.2031  2.4797
  333MOL0     H44908   3.940   8.703   8.746  1.3153 -1.2245 -1.9211
  333MOL0     H44909   4.007   8.470   8.932  2.7443  1.1788  2.6259
  333MOL0     H44910   3.963   8.635   8.988  5.0485  0.6742  2.0280
  333MOL0     H44911   4.179   8.653   8.979  1.6058 -0.7015 -1.1768
  333MOL0     H44912   4.129   8.728   8.832 -1.8254  1.0713  1.7683
  333MOL0     H44913   4.182   8.527   8.704 -2.2213  0.0302  1.1482
  333MOL0     H44914   4.245   8.437   8.836 -0.4455 -1.0158 -1.3678
  333MOL0     H44915   4.539   8.720   8.882 -0.3163  0.6188 -2.0744
  333MOL0     H44916   4.776   8.760   8.917  2.9395  0.1257 -1.5698
  333MOL0     H44917   4.781   8.633   9.046  3.0356  1.6106 -0.5385
  333MOL0     H44918   4.886   8.624   8.902  0.0223 -1.3346 -1.1515
  333MOL0     H44919   4.920   7.996   8.823  0.4786 -0.3617  2.7600
  333MOL0     H44920   5.150   7.895   8.853  1.9913 -0.9549 -2.6852
  333MOL0     H44921   5.488   8.074   8.679 -0.6608  0.0447  0.4075
  333MOL0     H44922   5.536   8.148   8.830  3.4833  1.6390 -3.9633
  333MOL0     H44923   5.693   7.983   8.764 -0.0152  2.1595  2.5281
  333MOL0     H44924   5.614   7.924   8.912 -0.6698  2.6074  0.2755
  333MOL0     H44925   5.548   7.825   8.625  1.0779 -2.1110 -0.6097
  333MOL0     H44926   5.472   7.764   8.769 -0.2806 -0.6058 -3.9169
  333MOL0     H44927   5.672   7.661   8.838  0.9147 -0.9005  0.3819
  333MOL0     H44928   5.671   7.615   8.678  1.3853  2.7755 -1.9897
  333MOL0     H44929   5.887   7.676   8.703  2.0965  0.6686 -0.9978
  333MOL0     H44930   5.857   7.822   8.783  0.4221 -0.0834  0.1196
  333MOL0     H44931   5.776   7.772   8.493  0.7054 -1.1083  0.4154
  333MOL0     H44932   5.783   7.936   8.568 -0.8389 -0.5620 -0.1609
  333MOL0     H44933   6.036   7.883   8.607  0.3228  0.1840 -0.7016
  333MOL0     H44934   5.977   7.963   8.464  0.8552 -1.3368 -0.9220
  333MOL0     H44935   5.970   7.756   8.352 -1.3941 -0.4853  0.5398
  333MOL0     H44936   6.054   7.670   8.483  0.6008  0.1646 -0.1627
  333MOL0     H44937   5.322   8.281   8.771  0.0450 -0.3708 -0.3540
  333MOL0     H44938   5.105   8.373   8.765  2.5718 -0.1765  3.6341
  333MOL0     H44939   4.629   8.254   8.751  1.5815  0.8384  0.2566
  333MOL0     H44940   4.402   8.375   8.704  0.7360  0.2089  0.8600
  333MOL0     H44941   2.658   9.283   9.090  4.4462 -2.4198 -0.2976
  333MOL0     H44942   2.583   9.433   9.268 -1.5892  0.1307  0.2142
  333MOL0     H44943   2.616   9.751   9.639  1.4535 -1.0725  2.2660
  333MOL0     H44944   2.473   9.908   9.761  0.0480 -0.0973  0.6821
  333MOL0     H44945   2.341  10.011   9.940 -1.6286 -0.6687  1.8199
  333MOL0     H44946   2.297  10.040   9.774  1.4036 -0.3385  1.5333
  333MOL0     H44947   2.064  10.074   9.822  3.9153  0.2751 -3.2060
  333MOL0     H44948   2.162  10.186   9.910  3.8236 -0.8767  1.3633
  333MOL0     H44949   2.162  10.042  10.115 -0.4076 -1.3412  1.9972
  333MOL0     H44950   2.071   9.915  10.033 -0.4777 -0.2598 -2.1257
  333MOL0     H44951   1.968  10.190  10.111  2.7897  1.3430 -3.0898
  333MOL0     H44952   1.916  10.031  10.167  1.3338 -1.0797 -0.0592
  333MOL0     H44953   1.704  10.097   9.790 -0.8229 -0.2253  1.8109
  333MOL0     H44954   2.186   9.617   9.837  1.0774 -2.3406 -0.0601
  333MOL0     H44955   2.299   9.453   9.692  2.0042 -1.2041  0.8864
  334MOL0     O44956   5.362   3.786   7.633 -0.3919  0.2657 -0.7992
  334MOL0     C44957   5.393   3.669   7.641  0.0738  0.3859 -0.7466
  334MOL0     O44958   5.306   3.561   7.651 -0.3370 -0.2849  0.1463
  334MOL0     C44959   5.166   3.579   7.625 -0.4578 -0.4835  0.5208
  334MOL0     C44960   5.058   3.520   7.698 -0.1688  0.7311 -0.0060
  334MOL0     C44961   4.931   3.537   7.661 -0.0021 -0.6091 -0.5658
  334MOL0     C44962   4.897   3.598   7.537  0.2091 -0.4758 -0.4786
  334MOL0     O44963   4.761   3.597   7.505 -0.3181  1.2004 -0.2179
  334MOL0     C44964   4.725   3.618   7.374  0.0592  0.3421  0.5789
  334MOL0     C44965   4.575   3.589   7.366 -0.1495  0.2549  1.2524
  334MOL0     C44966   4.516   3.633   7.231  0.1448 -0.5712 -0.5532
  334MOL0     C44967   4.357   3.634   7.232  0.1199  0.6978  0.7640
  334MOL0     C44968   4.304   3.492   7.219 -0.2584 -0.2984  0.3131
  334MOL0     C44969   4.175   3.482   7.146 -0.0132  0.0320 -0.8661
  334MOL0     C44970   4.119   3.339   7.156 -0.1018  0.0227 -0.3356
  334MOL0     C44971   4.003   3.318   7.060 -0.7171  1.5934  0.2024
  334MOL0     N44972   3.888   3.404   7.088  0.0792 -0.2211  0.6398
  334MOL0     C44973   3.841   3.508   7.007  0.5466 -0.1425  0.9602
  334MOL0     C44974   3.742   3.553   7.078 -0.4813 -0.0400 -0.8835
  334MOL0     C44975   3.650   3.663   7.039 -0.3359  0.4954 -0.3894
  334MOL0     C44976   3.513   3.616   6.990  0.2190  0.1865  0.0697
  334MOL0     C44977   3.529   3.524   6.868  0.1926 -0.1697 -0.7678
  334MOL0     C44978   3.385   3.506   6.799  0.0744 -0.5903 -0.0157
  334MOL0     O44979   3.290   3.455   6.899 -0.1919 -0.6805  0.3630
  334MOL0     C44980   3.181   3.389   6.856  0.8122  0.1521  0.1962
  334MOL0     C44981   3.130   3.383   6.729 -0.0929 -0.1398  0.4813
  334MOL0     C44982   3.023   3.304   6.701 -0.1758 -0.9423 -0.4289
  334MOL0     C44983   2.990   3.312   6.555  0.1866 -0.6654  0.1018
  334MOL0     C44984   2.955   3.227   6.799  0.7138  0.9791  0.7550
  334MOL0     C44985   2.833   3.153   6.773  0.8525  0.4418 -0.3247
  334MOL0     O44986   2.762   3.116   6.890 -0.1354  0.8805 -0.5110
  334MOL0     C44987   2.653   3.035   6.870 -0.6328  0.1572 -0.4701
  334MOL0     C44988   2.657   2.903   6.919  0.2910 -0.6515  0.5714
  334MOL0     C44989   2.534   2.836   6.913 -0.1430 -0.2143  0.3345
  334MOL0     C44990   2.414   2.887   6.853  0.2787 -0.1395 -0.4653
  334MOL0     O44991   2.298   2.815   6.845  0.0761 -0.0830  0.2052
  334MOL0     C44992   2.277   2.686   6.904 -0.6337 -0.1427 -0.1141
  334MOL0     C44993   2.132   2.638   6.878  0.1180  0.4417  0.1604
  334MOL0     C44994   2.081   2.629   6.733 -0.8048  0.2545 -0.8863
  334MOL0     C44995   1.951   2.557   6.702  0.2858 -0.1133  0.5944
  334MOL0     C44996   1.910   2.554   6.559  0.1346  0.0499 -0.5109
  334MOL0     C44997   1.762   2.509   6.552 -0.0816  0.3022  0.2896
  334MOL0     C44998   1.709   2.508   6.407  0.1545  0.3950 -0.1887
  334MOL0     C44999   1.747   2.376   6.335 -0.8056 -0.8408 -1.5707
  334MOL0    Cl45000   1.643   2.393   6.193  0.4078  0.7481 -0.0058
  334MOL0     C45001   2.423   3.008   6.798 -0.0941 -0.6493 -0.4031
  334MOL0     C45002   2.537   3.090   6.812  0.7979 -0.3597  1.0352
  334MOL0     O45003   2.791   3.140   6.658 -0.8776 -0.2234 -0.2682
  334MOL0     C45004   3.009   3.230   6.931  0.7817  0.3155  0.1939
  334MOL0     C45005   3.115   3.303   6.958 -0.6522  0.0443 -0.1520
  334MOL0     N45006   3.723   3.480   7.193  0.5007  0.2774  0.4274
  334MOL0     N45007   3.815   3.392   7.198  0.1217 -0.0312 -0.7779
  334MOL0     C45008   4.998   3.669   7.467 -1.0824  0.1770 -0.3727
  334MOL0     C45009   5.126   3.659   7.519  0.3949 -1.0405 -1.1394
  334MOL0     C45010   5.542   3.643   7.642 -0.8594 -0.2170 -0.9656
  334MOL0     C45011   5.637   3.746   7.656  0.1677 -0.2749  0.6886
  334MOL0     C45012   5.778   3.709   7.653  0.2726 -0.2224  0.2691
  334MOL0     C45013   5.832   3.580   7.625  0.8579  0.0912  0.0743
  334MOL0     O45014   5.962   3.550   7.620 -0.6471 -1.0612  0.2644
  334MOL0     C45015   6.049   3.637   7.691 -0.0092 -0.1326  1.0350
  334MOL0     C45016   6.180   3.554   7.712  1.6668  0.3100 -0.5315
  334MOL0     C45017   6.144   3.418   7.783  0.1092  0.8326 -0.3163
  334MOL0     C45018   6.217   3.400   7.919  0.3645 -0.3971  0.0238
  334MOL0     C45019   6.353   3.361   7.889 -0.0809 -0.7581  0.2752
  334MOL0     C45020   6.471   3.352   7.858 -0.3620 -0.0728 -0.1006
  334MOL0     C45021   5.731   3.490   7.593 -0.4064  1.0290  0.1234
  334MOL0     C45022   5.596   3.515   7.608  0.6100 -0.1255  1.4700
  334MOL0     H45023   5.080   3.454   7.782 -2.6673 -0.8838 -0.5132
  334MOL0     H45024   4.849   3.496   7.719 -1.8745  3.4483  0.0183
  334MOL0     H45025   4.746   3.716   7.330 -3.1725  0.2808 -1.4306
  334MOL0     H45026   4.780   3.548   7.311  1.1145  0.9914  0.7365
  334MOL0     H45027   4.555   3.482   7.379  1.1394 -0.2010 -0.1494
  334MOL0     H45028   4.517   3.648   7.437 -1.2085  0.6355  0.1133
  334MOL0     H45029   4.542   3.732   7.192  0.8068 -0.1069  0.9773
  334MOL0     H45030   4.545   3.566   7.150 -3.3423 -1.1915 -1.4301
  334MOL0     H45031   4.310   3.679   7.320 -3.0110  1.7939 -1.2968
  334MOL0     H45032   4.313   3.689   7.148  0.4276  0.4323  0.4217
  334MOL0     H45033   4.374   3.427   7.166 -0.1306  1.0357 -1.2566
  334MOL0     H45034   4.289   3.456   7.321  1.7655  2.6409  1.7736
  334MOL0     H45035   4.098   3.539   7.198 -0.3660  0.3551 -1.7316
  334MOL0     H45036   4.198   3.526   7.048 -1.4167  3.2466  0.1102
  334MOL0     H45037   4.200   3.268   7.135 -0.9093 -1.0537  0.0748
  334MOL0     H45038   4.097   3.307   7.259  3.1087 -2.4701 -0.2692
  334MOL0     H45039   3.968   3.216   7.075  1.7231 -0.2651 -4.5809
  334MOL0     H45040   4.045   3.320   6.959 -1.9356 -2.9028 -0.6170
  334MOL0     H45041   3.880   3.538   6.910  2.4825 -2.6840  0.8609
  334MOL0     H45042   3.638   3.714   7.135 -2.2442 -3.7054  1.8843
  334MOL0     H45043   3.707   3.724   6.968 -1.8295  2.1729 -0.2217
  334MOL0     H45044   3.447   3.698   6.961 -0.5176  0.3054  1.9501
  334MOL0     H45045   3.457   3.558   7.064  2.5869 -1.8676  0.3679
  334MOL0     H45046   3.572   3.427   6.898  0.8723  0.6764  1.1397
  334MOL0     H45047   3.599   3.565   6.795  1.4726 -1.8238 -0.5336
  334MOL0     H45048   3.402   3.435   6.717  1.4520  0.1569 -0.4280
  334MOL0     H45049   3.344   3.600   6.761 -0.2537 -0.6233  0.2595
  334MOL0     H45050   3.196   3.428   6.655 -0.3989  0.0319  0.3108
  334MOL0     H45051   2.889   3.345   6.529  0.7172 -0.7855 -2.2700
  334MOL0     H45052   3.064   3.380   6.513 -0.6460  0.7873  0.8871
  334MOL0     H45053   3.009   3.212   6.514  1.8840 -0.6660  0.8328
  334MOL0     H45054   2.751   2.871   6.963  1.1275  1.9153  0.8809
  334MOL0     H45055   2.543   2.745   6.970  3.2324  0.3833  0.9325
  334MOL0     H45056   2.352   2.616   6.866 -0.1485  0.3022  0.0037
  334MOL0     H45057   2.306   2.708   7.008  1.6158  4.2848 -1.4353
  334MOL0     H45058   2.130   2.541   6.928 -0.7001  0.5455  0.3444
  334MOL0     H45059   2.071   2.711   6.932 -0.9274 -1.7813  2.1350
  334MOL0     H45060   2.167   2.587   6.680 -0.0076  2.5529 -1.5272
  334MOL0     H45061   2.069   2.731   6.695 -0.1802  0.4205 -0.6408
  334MOL0     H45062   1.963   2.455   6.742 -0.0521 -0.3063  0.2087
  334MOL0     H45063   1.873   2.608   6.759 -0.3268  0.3384 -0.6221
  334MOL0     H45064   1.983   2.493   6.505 -3.0317 -0.3471 -4.9067
  334MOL0     H45065   1.921   2.658   6.525  3.0344 -0.2263 -0.6760
  334MOL0     H45066   1.748   2.406   6.588 -1.1029 -0.0605 -1.0477
  334MOL0     H45067   1.695   2.582   6.598 -0.0237  1.1257 -0.9190
  334MOL0     H45068   1.727   2.598   6.347 -0.8799 -0.0947 -1.2827
  334MOL0     H45069   1.601   2.504   6.425  0.1142  0.2211 -0.4616
  334MOL0     H45070   1.719   2.299   6.408 -1.4109  0.7887 -0.0047
  334MOL0     H45071   1.853   2.371   6.310 -0.3729 -0.1030  0.0064
  334MOL0     H45072   2.337   3.068   6.769 -1.4826 -1.3921  1.8589
  334MOL0     H45073   2.524   3.196   6.793  3.4842  0.0380  1.1109
  334MOL0     H45074   2.955   3.196   7.019  1.6986  1.1681  1.1136
  334MOL0     H45075   3.149   3.281   7.059  0.3503 -1.3966 -0.7784
  334MOL0     H45076   4.986   3.731   7.379 -0.3736  0.3001 -0.3897
  334MOL0     H45077   5.201   3.699   7.453  0.4865 -1.1778 -1.1198
  334MOL0     H45078   5.610   3.850   7.672 -1.1989 -0.6193  0.7353
  334MOL0     H45079   5.848   3.790   7.668 -0.5227  0.3658  0.9288
  334MOL0     H45080   6.066   3.730   7.636  0.2775  1.2049  3.2586
  334MOL0     H45081   6.003   3.660   7.787 -2.3815  0.6593 -0.1918
  334MOL0     H45082   6.253   3.609   7.773  1.8537  0.7356 -1.1377
  334MOL0     H45083   6.216   3.526   7.613 -3.0818 -2.9114 -1.7113
  334MOL0     H45084   6.160   3.324   7.728 -2.0787 -1.3240  2.3934
  334MOL0     H45085   6.040   3.419   7.818 -0.6788 -0.8987 -2.3581
  334MOL0     H45086   6.170   3.315   7.969 -0.8941 -0.4973 -1.2775
  334MOL0     H45087   6.199   3.485   7.985 -0.8327 -2.0899  2.0075
  334MOL0     H45088   6.575   3.366   7.834 -0.6310  2.5205 -0.1010
  334MOL0     H45089   5.766   3.391   7.567  4.0791  2.3911  0.1745
  334MOL0     H45090   5.529   3.434   7.581  0.6244 -0.7628  3.2052
  335MOL0     O45091   6.585   6.266   0.447  0.1356 -0.4203 -0.5376
  335MOL0     C45092   6.681   6.196   0.490 -0.5840 -0.3748 -0.2001
  335MOL0     O45093   6.663   6.076   0.550 -0.5355 -0.2723  0.1551
  335MOL0     C45094   6.529   6.049   0.587 -0.6930 -0.1404  0.2257
  335MOL0     C45095   6.495   6.057   0.722 -0.5637  0.0653 -0.4887
  335MOL0     C45096   6.366   6.051   0.767  0.0914  0.1786 -0.6211
  335MOL0     C45097   6.264   6.041   0.672  0.4547 -1.2898 -0.7692
  335MOL0     O45098   6.129   6.054   0.701  0.6674 -0.9535  0.5058
  335MOL0     C45099   6.084   6.032   0.834 -0.1607 -0.0063 -0.3636
  335MOL0     C45100   5.936   6.031   0.838  0.0820  0.7002  0.5000
  335MOL0     C45101   5.875   6.001   0.978 -0.0658  0.0348  0.0290
  335MOL0     C45102   5.722   6.016   0.985 -0.2045  0.9988  0.1912
  335MOL0     C45103   5.696   5.970   1.130  0.8749 -0.0653 -0.1603
  335MOL0     C45104   5.555   5.907   1.144  0.2096  0.6155  0.0682
  335MOL0     C45105   5.447   6.025   1.162 -1.2241  0.0903  0.5396
  335MOL0     C45106   5.305   5.977   1.171  1.0029  0.4733 -0.2148
  335MOL0     N45107   5.292   5.867   1.263 -0.8647  0.3745 -0.5587
  335MOL0     C45108   5.247   5.744   1.226 -0.2231  0.7318  0.8619
  335MOL0     C45109   5.236   5.678   1.343 -0.3004  0.1542  0.0180
  335MOL0     C45110   5.210   5.531   1.358 -0.9482 -0.1350  0.2023
  335MOL0     C45111   5.069   5.488   1.403  0.5963 -0.3549 -0.2516
  335MOL0     C45112   5.022   5.568   1.525  1.3892 -0.0621  0.1518
  335MOL0     C45113   4.884   5.532   1.564  0.4606  0.3430  0.0154
  335MOL0     O45114   4.783   5.622   1.507 -0.7350 -0.1156 -0.1907
  335MOL0     C45115   4.659   5.581   1.501  0.1020  0.2485  0.9444
  335MOL0     C45116   4.577   5.677   1.438  0.3832 -0.2045 -0.5681
  335MOL0     C45117   4.432   5.666   1.422 -1.0194  0.8180 -0.6825
  335MOL0     C45118   4.352   5.779   1.370  0.0560 -0.1675  0.1600
  335MOL0     C45119   4.371   5.544   1.471  0.3136 -0.0388 -0.1444
  335MOL0     C45120   4.223   5.517   1.452 -1.0362  0.4561 -0.5974
  335MOL0     O45121   4.191   5.391   1.413 -0.7143 -0.1741  0.1233
  335MOL0     C45122   4.059   5.370   1.379  0.5350  0.4792 -0.3966
  335MOL0     C45123   3.942   5.428   1.437 -0.5453 -0.7754  0.8469
  335MOL0     C45124   3.811   5.379   1.412 -0.4152 -0.7674 -1.1519
  335MOL0     C45125   3.798   5.264   1.336  0.2542  0.5335  0.1989
  335MOL0     O45126   3.674   5.219   1.317  0.2844  0.1492 -0.3290
  335MOL0     C45127   3.585   5.306   1.247 -0.4680  0.1079  0.3139
  335MOL0     C45128   3.451   5.244   1.243  0.7742  0.6675  0.6062
  335MOL0     C45129   3.366   5.291   1.356  0.0360 -0.1005 -0.6937
  335MOL0     C45130   3.237   5.195   1.383 -0.3368  0.6855 -0.3236
  335MOL0     C45131   3.119   5.217   1.279 -0.1505  0.9857  0.7638
  335MOL0     C45132   2.996   5.129   1.329  0.2882  0.0863 -0.0555
  335MOL0     C45133   2.889   5.112   1.220 -0.5275 -0.8799  0.5664
  335MOL0     C45134   2.771   5.018   1.249 -0.2106  0.9927 -0.7525
  335MOL0    Cl45135   2.844   4.857   1.282  0.1039  0.2460  0.7565
  335MOL0     C45136   3.905   5.209   1.267 -0.3523  0.4331  0.5939
  335MOL0     C45137   4.031   5.266   1.290  0.0432 -0.5219 -0.3233
  335MOL0     O45138   4.142   5.601   1.469 -1.0028 -0.4810  0.0097
  335MOL0     C45139   4.454   5.452   1.528  0.3861 -0.0281  0.0578
  335MOL0     C45140   4.594   5.467   1.542 -0.0214 -0.1993 -0.0452
  335MOL0     N45141   5.284   5.765   1.446  0.6688  0.4652 -0.4114
  335MOL0     N45142   5.297   5.875   1.398 -0.0523 -0.5444  0.8038
  335MOL0     C45143   6.291   6.027   0.534  0.1428  0.2625 -0.6522
  335MOL0     C45144   6.424   6.027   0.495  0.6788 -0.3098 -0.1870
  335MOL0     C45145   6.821   6.238   0.468 -0.0757  0.2281 -0.2104
  335MOL0     C45146   6.845   6.336   0.375  0.0848 -0.4779 -0.4727
  335MOL0     C45147   6.979   6.383   0.366 -0.4002 -0.0431 -0.4728
  335MOL0     C45148   7.082   6.323   0.440 -0.3259 -0.7718 -0.1390
  335MOL0     O45149   7.214   6.370   0.434 -0.0143  0.2670  0.3381
  335MOL0     C45150   7.315   6.339   0.540  0.0829 -0.9412 -0.0646
  335MOL0     C45151   7.413   6.242   0.483 -0.7258  0.2277  0.1422
  335MOL0     C45152   7.497   6.170   0.588  0.1850  0.3247  0.1422
  335MOL0     C45153   7.578   6.259   0.687 -0.6084 -0.2408 -0.5555
  335MOL0     C45154   7.696   6.184   0.743  0.2225 -0.5148  0.5105
  335MOL0     C45155   7.795   6.137   0.787 -0.1323 -0.0153 -0.5737
  335MOL0     C45156   7.056   6.216   0.523 -0.9438 -0.4848 -0.4941
  335MOL0     C45157   6.926   6.179   0.546 -0.4800  0.9510  0.9193
  335MOL0     H45158   6.575   6.068   0.794 -1.5300  0.6088  0.5566
  335MOL0     H45159   6.354   6.051   0.875 -0.6916 -1.8639 -0.6530
  335MOL0     H45160   6.132   5.940   0.869 -0.1000 -0.4815 -1.6504
  335MOL0     H45161   6.129   6.106   0.901  1.3991 -0.8906 -0.3867
  335MOL0     H45162   5.901   6.123   0.790 -0.2733 -1.2819 -3.4486
  335MOL0     H45163   5.906   5.948   0.774  0.4332 -0.2375  1.5157
  335MOL0     H45164   5.902   5.897   1.000 -1.8462 -0.0647  2.1173
  335MOL0     H45165   5.939   6.049   1.053  0.0877  3.2932 -2.0006
  335MOL0     H45166   5.688   6.115   0.953 -0.5057 -0.1153 -3.4176
  335MOL0     H45167   5.673   5.947   0.915 -1.9676  1.4784  0.8897
  335MOL0     H45168   5.764   5.891   1.163 -1.4249 -1.5374  1.3222
  335MOL0     H45169   5.704   6.061   1.190  1.8276 -0.5146  0.4119
  335MOL0     H45170   5.520   5.842   1.063  0.7774  0.7562 -0.2972
  335MOL0     H45171   5.551   5.848   1.235 -0.2730 -1.3231 -1.1446
  335MOL0     H45172   5.488   6.074   1.250  0.5762 -1.4893  0.6599
  335MOL0     H45173   5.456   6.097   1.080  0.3647 -0.4199  0.2299
  335MOL0     H45174   5.258   5.952   1.076  1.6576 -0.0607 -0.4056
  335MOL0     H45175   5.255   6.063   1.217  1.0102 -0.1132  0.9132
  335MOL0     H45176   5.240   5.699   1.127  3.2853 -0.7545  1.1345
  335MOL0     H45177   5.240   5.477   1.268 -1.9226  3.7287 -2.6937
  335MOL0     H45178   5.284   5.484   1.423  0.4818  2.1823  0.3712
  335MOL0     H45179   5.066   5.379   1.410  1.6482 -0.4175 -0.6771
  335MOL0     H45180   5.008   5.508   1.315 -1.8254  2.6349  1.8906
  335MOL0     H45181   5.030   5.677   1.514  1.2567 -0.1148 -0.5061
  335MOL0     H45182   5.082   5.547   1.614 -2.4856 -1.5167  2.6687
  335MOL0     H45183   4.859   5.516   1.669  0.2668  2.3172  0.3114
  335MOL0     H45184   4.861   5.431   1.529  1.8747  0.0526 -0.1104
  335MOL0     H45185   4.625   5.765   1.396 -2.8163  1.7293 -0.4219
  335MOL0     H45186   4.282   5.804   1.450  0.8544 -0.2663  0.9086
  335MOL0     H45187   4.411   5.868   1.347 -2.5891  2.0596  1.4477
  335MOL0     H45188   4.300   5.752   1.277 -0.6679  1.2758  0.1287
  335MOL0     H45189   3.930   5.513   1.502 -2.3630 -1.7134  1.8145
  335MOL0     H45190   3.719   5.416   1.457  0.4365 -0.6567  0.5443
  335MOL0     H45191   3.584   5.406   1.291 -1.2275 -0.2906  1.2364
  335MOL0     H45192   3.617   5.307   1.143  2.3093 -0.3682  1.0799
  335MOL0     H45193   3.403   5.287   1.154  2.0797  2.2137  0.6065
  335MOL0     H45194   3.455   5.136   1.227  1.9512  0.8181 -0.2228
  335MOL0     H45195   3.326   5.389   1.327  0.7728  0.1801 -0.7783
  335MOL0     H45196   3.425   5.286   1.448 -0.3832 -1.8797 -0.4856
  335MOL0     H45197   3.273   5.092   1.381 -2.2877 -0.0409  0.2780
  335MOL0     H45198   3.191   5.220   1.479 -3.9819 -0.0147 -1.7480
  335MOL0     H45199   3.146   5.183   1.178 -3.0674 -1.8871  0.7877
  335MOL0     H45200   3.085   5.321   1.270 -3.2108 -0.0497 -0.9583
  335MOL0     H45201   3.026   5.026   1.351 -5.3048 -1.6025  1.2578
  335MOL0     H45202   2.952   5.177   1.417 -1.0833 -1.2708  0.0346
  335MOL0     H45203   2.927   5.066   1.128 -2.8580 -1.6913 -0.0393
  335MOL0     H45204   2.858   5.211   1.187 -0.9184 -1.1679  0.0529
  335MOL0     H45205   2.705   5.016   1.162 -0.3684 -1.4677 -0.6363
  335MOL0     H45206   2.706   5.041   1.333  0.9984 -0.3672  0.6160
  335MOL0     H45207   3.880   5.129   1.197 -0.7168 -0.5098  1.7686
  335MOL0     H45208   4.113   5.229   1.230  0.2465  1.7059 -1.5617
  335MOL0     H45209   4.406   5.363   1.567 -1.2640  0.5501 -0.5543
  335MOL0     H45210   4.652   5.395   1.599  1.3007  0.8225 -0.0346
  335MOL0     H45211   6.203   6.011   0.473 -1.0974  3.2168  0.2076
  335MOL0     H45212   6.451   6.015   0.390  0.9999  0.9830 -0.2662
  335MOL0     H45213   6.768   6.379   0.311  0.0162 -2.5125 -1.8674
  335MOL0     H45214   6.999   6.470   0.304  0.4662 -0.2603 -0.5183
  335MOL0     H45215   7.375   6.429   0.555 -0.4536 -0.9154  2.4739
  335MOL0     H45216   7.271   6.301   0.633 -1.1808  1.5107  0.4216
  335MOL0     H45217   7.479   6.296   0.415 -1.0974  0.6615  0.1270
  335MOL0     H45218   7.358   6.165   0.428  2.5055 -1.6847 -0.6893
  335MOL0     H45219   7.555   6.092   0.539 -0.6933  0.1229 -0.5908
  335MOL0     H45220   7.421   6.113   0.642 -1.7012  1.1448 -1.5231
  335MOL0     H45221   7.515   6.290   0.771  2.9113  0.6652  1.9936
  335MOL0     H45222   7.602   6.351   0.633 -2.5692  1.1872  0.8738
  335MOL0     H45223   7.895   6.106   0.812  0.9911  0.4974 -3.9424
  335MOL0     H45224   7.138   6.158   0.566 -0.0536  1.4639  0.5704
  335MOL0     H45225   6.919   6.089   0.606 -1.9801 -0.0432 -0.6629
  336MOL0     O45226   6.362   1.168   1.298  0.7340 -0.0563 -0.0959
  336MOL0     C45227   6.328   1.050   1.333  0.5758 -0.4738 -0.5156
  336MOL0     O45228   6.390   0.939   1.302  0.0670  0.2076 -0.1731
  336MOL0     C45229   6.503   0.956   1.235  0.0777 -0.5833  0.0373
  336MOL0     C45230   6.622   0.959   1.305  0.0101 -0.5352  0.2682
  336MOL0     C45231   6.739   0.971   1.229  0.4622  0.3493  0.2841
  336MOL0     C45232   6.736   0.980   1.091 -0.3203 -0.9395 -0.1456
  336MOL0     O45233   6.856   0.981   1.024  0.0362  0.1849  0.2538
  336MOL0     C45234   6.880   0.874   0.924  0.6833  0.1113  0.5779
  336MOL0     C45235   7.027   0.868   0.890 -0.2732  0.0693  0.2915
  336MOL0     C45236   7.049   0.760   0.777  0.3789 -0.1799  0.0751
  336MOL0     C45237   7.186   0.708   0.770  0.1518 -0.0025  0.5046
  336MOL0     C45238   7.221   0.622   0.659  0.2213  0.1536 -0.0017
  336MOL0     C45239   7.174   0.465   0.676 -0.1836  0.0611 -0.2186
  336MOL0     C45240   7.221   0.385   0.557 -0.2334 -0.5382 -0.6138
  336MOL0     C45241   7.152   0.250   0.547 -0.1108 -0.7460 -0.8660
  336MOL0     N45242   7.182   0.184   0.426  0.0679 -0.1644 -0.1985
  336MOL0     C45243   7.303   0.113   0.404  0.0353 -0.3277 -0.1257
  336MOL0     C45244   7.300   0.073   0.279  0.7204 -0.7435 -0.0675
  336MOL0     C45245   7.385  -0.026   0.201 -0.6092 -0.1031 -0.1883
  336MOL0     C45246   7.303  -0.121   0.121 -0.4743  0.1818  0.4149
  336MOL0     C45247   7.193  -0.204   0.183 -0.4492  0.5106 -0.2282
  336MOL0     C45248   7.134  -0.321   0.093 -0.4373 -1.4287 -0.4456
  336MOL0     O45249   7.029  -0.371   0.158  0.0319  0.0248 -0.1217
  336MOL0     C45250   6.939  -0.458   0.095 -0.4319 -0.4164  0.0052
  336MOL0     C45251   6.832  -0.507   0.165  0.4902  0.9951  0.0598
  336MOL0     C45252   6.729  -0.575   0.105  0.1340 -0.4097  0.2547
  336MOL0     C45253   6.611  -0.618   0.187 -0.6406  0.4515  0.5481
  336MOL0     C45254   6.742  -0.613  -0.035 -0.8244 -0.0040  0.1426
  336MOL0     C45255   6.642  -0.681  -0.119  0.2786  0.4575 -0.4364
  336MOL0     O45256   6.670  -0.713  -0.249  0.1793  0.7100  0.8719
  336MOL0     C45257   6.620  -0.831  -0.302 -0.8443 -0.8623  0.2515
  336MOL0     C45258   6.690  -0.940  -0.263 -1.0481 -0.6070 -0.4828
  336MOL0     C45259   6.659  -1.067  -0.306 -0.3096  0.4501 -0.0041
  336MOL0     C45260   6.543  -1.080  -0.387  0.0128 -0.3195 -0.0403
  336MOL0     O45261   6.518  -1.209  -0.419  0.8100  0.3381  0.0517
  336MOL0     C45262   6.487  -1.222  -0.563  0.8583  0.3355 -0.4189
  336MOL0     C45263   6.510  -1.368  -0.622  0.5148 -0.3642  0.1470
  336MOL0     C45264   6.436  -1.366  -0.757  0.4452  0.4279  0.5826
  336MOL0     C45265   6.286  -1.403  -0.748  0.2022  0.2876 -0.7319
  336MOL0     C45266   6.222  -1.354  -0.884  0.0599  0.6477 -0.6702
  336MOL0     C45267   6.087  -1.412  -0.902  0.7386  0.0727  0.2018
  336MOL0     C45268   6.027  -1.354  -1.027  0.3618 -0.6317  0.3657
  336MOL0     C45269   5.896  -1.432  -1.073  0.3431 -0.4418  0.6197
  336MOL0    Cl45270   5.941  -1.565  -1.190 -0.2263  0.1549 -0.1259
  336MOL0     C45271   6.457  -0.969  -0.406 -0.1531  0.0342  0.3457
  336MOL0     C45272   6.497  -0.839  -0.367  0.4477 -0.2640  0.4849
  336MOL0     O45273   6.547  -0.734  -0.056 -0.0150 -0.2884  0.4419
  336MOL0     C45274   6.862  -0.580  -0.100 -0.0400  0.3923  0.5698
  336MOL0     C45275   6.954  -0.492  -0.041  0.4644 -0.0924 -0.2139
  336MOL0     N45276   7.194   0.140   0.227  0.4609  0.5316 -0.3344
  336MOL0     N45277   7.114   0.191   0.316 -0.5542 -0.2332  0.7096
  336MOL0     C45278   6.614   0.978   1.018  0.4860  1.1239  0.2106
  336MOL0     C45279   6.500   0.964   1.093  0.1899  0.9988 -0.7493
  336MOL0     C45280   6.200   1.036   1.414 -0.8360  0.4779  0.0065
  336MOL0     C45281   6.134   1.155   1.455 -0.1539  0.6543  0.1432
  336MOL0     C45282   6.025   1.150   1.542  0.2873 -0.3329  0.9305
  336MOL0     C45283   5.972   1.030   1.572 -0.4582 -0.3532  0.0932
  336MOL0     O45284   5.856   1.022   1.638 -0.7002 -0.3522 -0.4848
  336MOL0     C45285   5.871   0.996   1.778  0.0693 -1.6481  0.1908
  336MOL0     C45286   5.797   0.868   1.815 -1.1094  0.1559 -1.3699
  336MOL0     C45287   5.656   0.858   1.770  0.0225  0.2325 -0.3108
  336MOL0     C45288   5.576   0.940   1.859 -0.7028  0.2442  0.6125
  336MOL0     C45289   5.556   0.892   1.993  0.2223 -0.4687 -0.5056
  336MOL0     C45290   5.522   0.847   2.104 -0.7498  0.2581  0.8361
  336MOL0     C45291   6.027   0.910   1.527 -0.7135 -0.4300 -0.1868
  336MOL0     C45292   6.149   0.908   1.449 -0.3335  0.0426 -0.5619
  336MOL0     H45293   6.630   0.960   1.413  0.9064 -0.7738  0.2120
  336MOL0     H45294   6.834   0.976   1.279  1.5695 -2.1516 -1.3456
  336MOL0     H45295   6.846   0.772   0.944  0.3826 -0.7039 -3.3258
  336MOL0     H45296   6.833   0.912   0.833  2.3475  0.5578 -0.1154
  336MOL0     H45297   7.073   0.964   0.863  0.4698 -0.3317  0.1187
  336MOL0     H45298   7.073   0.839   0.985 -0.3052 -3.0106 -0.5276
  336MOL0     H45299   6.976   0.682   0.803 -0.6339  1.3155  2.0441
  336MOL0     H45300   7.018   0.795   0.678  2.0432  0.2751 -0.3061
  336MOL0     H45301   7.249   0.796   0.761  1.1324 -0.7345  0.0498
  336MOL0     H45302   7.209   0.657   0.864 -1.0423 -0.5602  0.5172
  336MOL0     H45303   7.186   0.671   0.568  0.5955 -0.0071 -0.2349
  336MOL0     H45304   7.330   0.632   0.660  0.2016  0.8289 -1.6592
  336MOL0     H45305   7.223   0.421   0.764 -1.4509  0.8964  0.9422
  336MOL0     H45306   7.068   0.455   0.701  0.5578 -0.8510  3.1354
  336MOL0     H45307   7.198   0.438   0.464 -1.2516  0.4525  0.1659
  336MOL0     H45308   7.327   0.361   0.569 -0.3574 -1.5393 -1.4182
  336MOL0     H45309   7.043   0.257   0.551 -0.3439 -3.2955 -1.2516
  336MOL0     H45310   7.160   0.180   0.630 -4.8138 -1.7211 -0.9586
  336MOL0     H45311   7.382   0.093   0.476  1.7439 -1.3063 -2.1610
  336MOL0     H45312   7.446   0.036   0.134 -4.0699  1.4870 -2.1102
  336MOL0     H45313   7.444  -0.090   0.267 -2.1222  0.6728  2.0429
  336MOL0     H45314   7.370  -0.201   0.090 -0.6116  0.5725 -0.9434
  336MOL0     H45315   7.262  -0.069   0.035  0.0093 -2.0256 -1.2446
  336MOL0     H45316   7.113  -0.135   0.212 -0.8559 -0.2378  0.4550
  336MOL0     H45317   7.226  -0.255   0.274  1.1576  3.4064  0.9797
  336MOL0     H45318   7.220  -0.388   0.080  2.8651  2.0771  1.1050
  336MOL0     H45319   7.103  -0.261   0.006  0.8496  1.1888  0.7803
  336MOL0     H45320   6.827  -0.478   0.270 -0.7130  0.5841  0.1248
  336MOL0     H45321   6.601  -0.727   0.189  0.7822  0.2952  2.9013
  336MOL0     H45322   6.624  -0.595   0.293  0.1414  3.4703 -0.1174
  336MOL0     H45323   6.518  -0.580   0.144 -0.7792 -0.1203  0.3222
  336MOL0     H45324   6.772  -0.919  -0.195 -0.5571 -1.8737 -0.6624
  336MOL0     H45325   6.706  -1.156  -0.267 -0.7418  0.1523 -0.1504
  336MOL0     H45326   6.381  -1.204  -0.580  0.6075 -1.2453 -0.6063
  336MOL0     H45327   6.552  -1.152  -0.617  0.2801  1.4375  0.2729
  336MOL0     H45328   6.619  -1.374  -0.628  0.7003  1.5616  1.0063
  336MOL0     H45329   6.476  -1.453  -0.562  1.4989 -0.7896  0.1229
  336MOL0     H45330   6.470  -1.454  -0.813 -3.3503 -0.7624 -0.2042
  336MOL0     H45331   6.460  -1.275  -0.813  1.5846 -0.5597 -0.5942
  336MOL0     H45332   6.263  -1.508  -0.724 -0.9977  0.7264  0.1637
  336MOL0     H45333   6.226  -1.349  -0.674 -0.1757 -2.5918  1.2576
  336MOL0     H45334   6.279  -1.397  -0.967 -1.5140 -2.2150 -0.3922
  336MOL0     H45335   6.219  -1.244  -0.881 -0.3778  0.6462 -0.8989
  336MOL0     H45336   6.089  -1.521  -0.893  2.3898  0.1978  2.1381
  336MOL0     H45337   6.024  -1.371  -0.822  0.8998  0.0258  0.3523
  336MOL0     H45338   6.099  -1.338  -1.109 -2.6889  1.8680 -2.1306
  336MOL0     H45339   6.010  -1.246  -1.017  1.8168 -0.0366 -2.3177
  336MOL0     H45340   5.840  -1.364  -1.138  0.7459 -2.4725 -2.0235
  336MOL0     H45341   5.838  -1.466  -0.986  2.6433 -1.8003  1.7203
  336MOL0     H45342   6.365  -0.975  -0.463  0.2255  0.4942 -0.3254
  336MOL0     H45343   6.436  -0.749  -0.368  0.1139 -0.4872 -0.3826
  336MOL0     H45344   6.888  -0.625  -0.196 -0.3935  1.1193  0.1216
  336MOL0     H45345   7.043  -0.473  -0.100  1.2503 -2.1677  0.1998
  336MOL0     H45346   6.615   0.993   0.911 -0.2908 -4.6191 -0.9368
  336MOL0     H45347   6.403   0.972   1.045  0.6084  1.5647 -1.5292
  336MOL0     H45348   6.185   1.249   1.441 -0.1756  0.6793  0.2322
  336MOL0     H45349   5.976   1.239   1.582  0.5204  0.6546 -0.8447
  336MOL0     H45350   5.973   1.010   1.814 -0.1597 -0.4365  0.4027
  336MOL0     H45351   5.822   1.082   1.825  1.8263  0.2648 -1.3329
  336MOL0     H45352   5.809   0.856   1.923 -2.4822 -0.7157 -1.2923
  336MOL0     H45353   5.861   0.787   1.778 -0.9016  1.1979 -3.3969
  336MOL0     H45354   5.623   0.754   1.776 -0.7271  0.5567  1.7350
  336MOL0     H45355   5.645   0.894   1.667  0.6417  0.9702 -0.1291
  336MOL0     H45356   5.478   0.951   1.811  1.2074  0.9431 -3.6297
  336MOL0     H45357   5.613   1.043   1.864 -1.2154  0.3588  2.6387
  336MOL0     H45358   5.487   0.787   2.186 -1.4059  0.0698  0.4239
  336MOL0     H45359   5.967   0.820   1.541 -1.1567 -0.2558 -0.8874
  336MOL0     H45360   6.169   0.818   1.392 -0.3412 -0.0875 -0.3593
  337MOL0     O45361   6.550  10.466   0.885  0.5584  0.3189  0.3467
  337MOL0     C45362   6.497  10.538   0.964 -0.7483 -0.9432  0.7476
  337MOL0     O45363   6.366  10.557   0.990  0.5486  0.0037  0.1373
  337MOL0     C45364   6.274  10.473   0.923  0.2987  1.0345 -0.1914
  337MOL0     C45365   6.241  10.349   0.973  0.7020 -0.5937 -0.7910
  337MOL0     C45366   6.141  10.271   0.901  0.1509 -0.1339  0.5989
  337MOL0     C45367   6.083  10.325   0.783  0.1141  0.4028 -0.2065
  337MOL0     O45368   6.002  10.242   0.712  0.0351  0.1790  0.1114
  337MOL0     C45369   5.865  10.246   0.777 -0.1721  0.6207 -0.3772
  337MOL0     C45370   5.757  10.250   0.667  0.0181 -0.2720 -0.1199
  337MOL0     C45371   5.755  10.366   0.565  0.3509 -0.3113 -0.2249
  337MOL0     C45372   5.623  10.429   0.516 -0.6334 -0.0002  0.1430
  337MOL0     C45373   5.550  10.322   0.436  0.3567  0.5154  0.1879
  337MOL0     C45374   5.400  10.364   0.402 -0.1537 -0.0809  0.3472
  337MOL0     C45375   5.302  10.354   0.511 -0.9768  0.2285 -0.0047
  337MOL0     C45376   5.163  10.394   0.458 -0.2354 -0.3185  0.5605
  337MOL0     N45377   5.057  10.368   0.554  0.0788  0.1721 -0.0631
  337MOL0     C45378   4.980  10.257   0.560 -0.3195  0.5402 -0.1729
  337MOL0     C45379   4.876  10.302   0.635 -0.1207  0.6070 -0.4096
  337MOL0     C45380   4.781  10.213   0.703 -0.0486  1.7812 -0.0994
  337MOL0     C45381   4.720  10.098   0.614 -1.2862 -0.0028 -0.4286
  337MOL0     C45382   4.596  10.043   0.674  0.6844 -0.1667 -0.5805
  337MOL0     C45383   4.530   9.945   0.581  0.2954 -0.3104  0.2488
  337MOL0     O45384   4.398   9.918   0.633 -1.0276 -0.0778  0.1999
  337MOL0     C45385   4.377   9.847   0.749  0.0593  0.7758  0.4323
  337MOL0     C45386   4.472   9.767   0.809 -0.2742 -0.1547 -0.3853
  337MOL0     C45387   4.457   9.696   0.930  0.7923  0.7862 -0.0420
  337MOL0     C45388   4.567   9.613   0.991  0.0898  0.7462  0.1850
  337MOL0     C45389   4.324   9.697   0.983  0.0393  0.3558 -0.1535
  337MOL0     C45390   4.278   9.621   1.108  0.3444  0.9517 -0.0199
  337MOL0     O45391   4.216   9.696   1.201  0.0930 -0.0504 -0.1309
  337MOL0     C45392   4.173   9.629   1.312  0.7687 -0.4133 -0.1019
  337MOL0     C45393   4.226   9.663   1.441 -0.8016 -0.3647  0.7882
  337MOL0     C45394   4.182   9.596   1.558  0.1124  0.4520 -0.4587
  337MOL0     C45395   4.075   9.510   1.551  0.6097 -0.3901 -0.6698
  337MOL0     O45396   4.022   9.462   1.669  0.2429 -0.8056 -0.2124
  337MOL0     C45397   3.877   9.449   1.675  0.6736  0.3627  0.7866
  337MOL0     C45398   3.824   9.463   1.818  1.2610  0.5794 -0.0458
  337MOL0     C45399   3.673   9.415   1.812 -0.2093 -0.7574  0.0542
  337MOL0     C45400   3.611   9.391   1.952 -0.8538 -0.3863  0.4225
  337MOL0     C45401   3.462   9.377   1.970  1.3231 -0.2246  0.8819
  337MOL0     C45402   3.392   9.281   1.879  0.3959 -0.5244  0.9807
  337MOL0     C45403   3.253   9.249   1.924 -0.9587  0.2398  0.1758
  337MOL0     C45404   3.201   9.155   1.807 -0.9243  1.0480  0.3306
  337MOL0    Cl45405   3.048   9.105   1.872 -0.4612  0.6259  0.4309
  337MOL0     C45406   4.010   9.489   1.431 -0.0960 -0.0472 -0.2839
  337MOL0     C45407   4.057   9.557   1.315  0.3550  0.9408  0.0014
  337MOL0     O45408   4.300   9.505   1.118  0.6058  0.0505  0.4428
  337MOL0     C45409   4.221   9.752   0.905 -0.9036 -0.3975 -0.3590
  337MOL0     C45410   4.251   9.827   0.795  0.2698  0.2262 -0.1240
  337MOL0     N45411   4.892  10.433   0.679 -1.1164  0.3452 -0.3190
  337MOL0     N45412   5.003  10.475   0.628 -1.3796  0.1953 -0.7228
  337MOL0     C45413   6.115  10.447   0.742  0.0322 -0.7094  0.3688
  337MOL0     C45414   6.210  10.521   0.808 -0.0454  1.0443  0.7746
  337MOL0     C45415   6.593  10.624   1.041 -0.7575  0.7865  0.7054
  337MOL0     C45416   6.546  10.692   1.156  0.5600 -1.1292  1.0556
  337MOL0     C45417   6.638  10.777   1.220  0.1795  0.7207  0.2251
  337MOL0     C45418   6.776  10.785   1.183  0.7014 -0.0951  0.6375
  337MOL0     O45419   6.847  10.875   1.252  0.1368 -0.3144  0.4715
  337MOL0     C45420   6.988  10.857   1.253 -0.4721 -0.6199  0.0181
  337MOL0     C45421   7.050  10.966   1.340 -1.1356 -0.2835 -0.0506
  337MOL0     C45422   7.205  10.949   1.343  0.5750  0.4545 -0.0746
  337MOL0     C45423   7.274  10.817   1.392 -1.0125  0.1098  0.3644
  337MOL0     C45424   7.238  10.779   1.528  0.0316 -1.1757  0.7868
  337MOL0     C45425   7.198  10.754   1.639 -1.0938 -0.0265  0.3694
  337MOL0     C45426   6.824  10.705   1.080  0.7367  0.0844 -0.5258
  337MOL0     C45427   6.730  10.628   1.002  0.5697 -0.9978 -0.3656
  337MOL0     H45428   6.289  10.306   1.061 -1.4603 -0.5732  0.4850
  337MOL0     H45429   6.109  10.171   0.926 -1.3458 -0.3840 -2.0080
  337MOL0     H45430   5.839  10.150   0.823 -0.2293  0.8941  0.1666
  337MOL0     H45431   5.849  10.327   0.848 -2.0974  0.0807 -0.1505
  337MOL0     H45432   5.759  10.157   0.609  1.0217 -0.3291 -0.0112
  337MOL0     H45433   5.666  10.245   0.727  0.1375  1.6085  0.2778
  337MOL0     H45434   5.805  10.455   0.606 -0.4443  0.7515 -1.4746
  337MOL0     H45435   5.801  10.324   0.475  0.0535  0.7879 -0.9081
  337MOL0     H45436   5.561  10.455   0.602 -1.4259  2.1981 -1.0228
  337MOL0     H45437   5.652  10.519   0.461  1.7169  0.5215  2.0780
  337MOL0     H45438   5.608  10.301   0.346 -2.9446  0.0233 -2.0421
  337MOL0     H45439   5.530  10.225   0.483 -1.0382 -2.0660 -4.9943
  337MOL0     H45440   5.411  10.471   0.382 -0.5248  0.4211  2.5716
  337MOL0     H45441   5.369  10.313   0.311  0.9550  0.0519 -0.1170
  337MOL0     H45442   5.288  10.249   0.540 -2.2155  0.2034 -0.6640
  337MOL0     H45443   5.327  10.412   0.601  0.4017  1.3840 -1.0865
  337MOL0     H45444   5.136  10.341   0.366  2.7011 -0.3562 -0.4127
  337MOL0     H45445   5.161  10.501   0.434 -0.1720  0.2948  3.0029
  337MOL0     H45446   4.988  10.157   0.519 -0.9754  1.2327 -2.1054
  337MOL0     H45447   4.835  10.174   0.789  1.6296 -1.4758 -2.3925
  337MOL0     H45448   4.700  10.272   0.746 -2.6244 -0.3851 -1.6363
  337MOL0     H45449   4.792  10.018   0.593  1.9894  2.3422  0.8400
  337MOL0     H45450   4.700  10.147   0.518 -1.6910 -1.6729 -1.2205
  337MOL0     H45451   4.523  10.124   0.677 -0.0443 -0.8212  2.3193
  337MOL0     H45452   4.614   9.997   0.772 -2.7607 -0.2911  0.1080
  337MOL0     H45453   4.590   9.854   0.573 -0.1557 -0.4186 -3.3687
  337MOL0     H45454   4.518   9.978   0.477 -2.1549  0.1511  0.6098
  337MOL0     H45455   4.570   9.762   0.761 -1.5191 -2.1325 -3.0442
  337MOL0     H45456   4.564   9.629   1.099 -4.1294 -2.2240  0.7461
  337MOL0     H45457   4.532   9.510   0.977  0.4927  0.8054 -1.5239
  337MOL0     H45458   4.659   9.604   0.932 -2.6159 -2.2399 -4.1610
  337MOL0     H45459   4.314   9.726   1.449 -0.0041 -1.2918 -0.3147
  337MOL0     H45460   4.233   9.618   1.651 -0.5406 -2.3416  0.6696
  337MOL0     H45461   3.832   9.533   1.622  4.7408  2.3648  0.1456
  337MOL0     H45462   3.850   9.349   1.637  1.4246  0.0721  1.0064
  337MOL0     H45463   3.877   9.399   1.889 -0.2643  2.2610  2.7913
  337MOL0     H45464   3.825   9.566   1.856  1.7980  0.6271 -0.1876
  337MOL0     H45465   3.677   9.323   1.752  1.5178 -1.0580  0.5834
  337MOL0     H45466   3.606   9.490   1.769  1.8494  0.0557 -1.9502
  337MOL0     H45467   3.662   9.313   2.010  1.7761  2.1787  1.7992
  337MOL0     H45468   3.624   9.489   1.999  1.7059  0.3292 -1.5481
  337MOL0     H45469   3.407   9.472   1.966  2.2225  0.3098  0.9039
  337MOL0     H45470   3.455   9.338   2.071 -2.5686  2.4955  1.9258
  337MOL0     H45471   3.390   9.317   1.776 -2.0901 -0.0584  1.1441
  337MOL0     H45472   3.456   9.192   1.869  2.6550  1.2350 -1.9479
  337MOL0     H45473   3.191   9.335   1.948 -3.6185 -1.4630 -0.2451
  337MOL0     H45474   3.269   9.186   2.012  1.8068  2.4237  1.3856
  337MOL0     H45475   3.258   9.062   1.799 -0.9671  1.0202  0.3440
  337MOL0     H45476   3.196   9.197   1.707  0.9931  2.5823  0.8167
  337MOL0     H45477   3.919   9.431   1.433 -2.0077  2.6477  3.3111
  337MOL0     H45478   4.013   9.548   1.216  0.1095 -0.0180  0.1865
  337MOL0     H45479   4.118   9.739   0.935 -1.0920  1.0731 -0.2769
  337MOL0     H45480   4.175   9.876   0.735 -0.3329 -1.0258 -0.4027
  337MOL0     H45481   6.056  10.484   0.660  2.1530  1.4856 -0.2817
  337MOL0     H45482   6.250  10.615   0.773  0.8443  0.0244 -1.0726
  337MOL0     H45483   6.441  10.681   1.179  0.7817 -1.3801  1.9731
  337MOL0     H45484   6.599  10.838   1.301  2.3601  1.2247  0.9625
  337MOL0     H45485   7.003  10.762   1.305  0.0612 -1.8410 -2.2356
  337MOL0     H45486   7.034  10.860   1.154  0.0228  1.1628  0.2731
  337MOL0     H45487   7.017  10.966   1.444 -0.8431 -0.9913  0.0460
  337MOL0     H45488   7.019  11.063   1.300  0.0027  1.0184  2.0534
  337MOL0     H45489   7.240  11.032   1.405  0.6243  1.1847 -1.0610
  337MOL0     H45490   7.240  10.964   1.240 -0.0210 -1.4836 -0.6040
  337MOL0     H45491   7.384  10.821   1.398 -1.0398 -0.1162  1.1204
  337MOL0     H45492   7.246  10.733   1.328 -2.5579  1.8686 -1.4204
  337MOL0     H45493   7.148  10.747   1.733  0.9561  1.7373  1.6897
  337MOL0     H45494   6.925  10.709   1.040  0.8674 -0.5060 -0.2522
  337MOL0     H45495   6.761  10.572   0.915  0.2100 -2.6227  0.5240
  338MOL0     O45496   8.580   3.631   9.261 -0.9252 -0.2780 -0.4087
  338MOL0     C45497   8.664   3.634   9.172 -0.0609  0.2755  0.3027
  338MOL0     O45498   8.653   3.581   9.048  0.0894  0.0752 -0.2430
  338MOL0     C45499   8.534   3.517   9.034  0.5267  0.4039  0.7529
  338MOL0     C45500   8.499   3.387   9.079  0.5651 -0.2703 -0.0166
  338MOL0     C45501   8.371   3.332   9.062  0.4542  0.5136 -0.1117
  338MOL0     C45502   8.274   3.406   8.991 -0.0441 -0.8685  0.2703
  338MOL0     O45503   8.148   3.356   8.958 -0.2570  0.1591 -0.2585
  338MOL0     C45504   8.072   3.253   9.035  0.0370 -0.0249 -1.1382
  338MOL0     C45505   8.055   3.308   9.182 -0.1397  0.5387  0.3087
  338MOL0     C45506   7.957   3.422   9.193  0.9420  0.5351 -0.3199
  338MOL0     C45507   7.923   3.438   9.340  1.1653  0.7243 -0.1691
  338MOL0     C45508   7.830   3.562   9.349 -0.4154 -0.0352  0.6796
  338MOL0     C45509   7.690   3.542   9.289 -0.6720  0.0991 -0.0217
  338MOL0     C45510   7.618   3.676   9.305  0.6027 -0.2880 -0.5567
  338MOL0     C45511   7.477   3.651   9.249  0.2229 -0.7575  0.1967
  338MOL0     N45512   7.420   3.784   9.200  0.2354  0.5199  0.2814
  338MOL0     C45513   7.332   3.863   9.264 -0.0480  0.1292 -0.0085
  338MOL0     C45514   7.297   3.964   9.184  0.1421  0.4017  0.9232
  338MOL0     C45515   7.204   4.074   9.205  0.1781 -0.0669 -0.3692
  338MOL0     C45516   7.106   4.040   9.316  0.3617  0.3496 -0.4888
  338MOL0     C45517   7.013   3.930   9.264 -0.4887 -0.8467 -0.0679
  338MOL0     C45518   6.929   3.888   9.387  0.6991 -0.6935  0.1133
  338MOL0     O45519   6.839   3.995   9.416  0.0878 -0.1191  0.0666
  338MOL0     C45520   6.741   3.988   9.513 -0.1842 -0.2364  0.2617
  338MOL0     C45521   6.708   3.875   9.594 -0.5995 -1.0102  0.5092
  338MOL0     C45522   6.592   3.855   9.678  0.2028 -0.6508 -0.0428
  338MOL0     C45523   6.577   3.730   9.747 -0.2303 -0.4553 -0.4105
  338MOL0     C45524   6.492   3.961   9.671 -0.4340 -0.8806  0.3349
  338MOL0     C45525   6.359   3.968   9.742  0.2612  0.1865 -0.3584
  338MOL0     O45526   6.278   4.081   9.713 -0.0929 -0.1350  0.2707
  338MOL0     C45527   6.149   4.111   9.763  0.6209  0.8458  1.0159
  338MOL0     C45528   6.064   4.008   9.796  0.1700  0.5282 -0.5413
  338MOL0     C45529   5.934   4.035   9.836 -1.0740 -0.7297 -0.1477
  338MOL0     C45530   5.888   4.171   9.850 -0.4084 -0.5381  0.1564
  338MOL0     O45531   5.763   4.207   9.881 -1.0434 -0.0756 -0.4507
  338MOL0     C45532   5.754   4.260  10.017  0.2412  0.1471 -0.3788
  338MOL0     C45533   5.610   4.268  10.069 -0.8569 -0.2913 -0.7493
  338MOL0     C45534   5.533   4.368   9.981  0.8455 -0.9673  0.6613
  338MOL0     C45535   5.380   4.342  10.020 -1.0704 -0.1598 -0.1035
  338MOL0     C45536   5.295   4.353   9.890  0.7331  0.5545 -0.7286
  338MOL0     C45537   5.142   4.373   9.908 -0.0458  0.0313 -0.3639
  338MOL0     C45538   5.081   4.331   9.770 -0.0086  0.2797  0.5313
  338MOL0     C45539   4.937   4.354   9.766  0.3236 -0.3118  0.9171
  338MOL0    Cl45540   4.894   4.533   9.793 -0.2640  0.1958  0.0803
  338MOL0     C45541   5.988   4.279   9.829  0.1739  1.4248  0.5957
  338MOL0     C45542   6.104   4.242   9.774 -0.2405 -0.6122 -0.6032
  338MOL0     O45543   6.336   3.881   9.827  0.3176 -0.3522  0.2627
  338MOL0     C45544   6.523   4.086   9.590 -0.2110  0.7999  0.5159
  338MOL0     C45545   6.645   4.093   9.517 -0.7432 -0.3899 -0.2732
  338MOL0     N45546   7.372   3.947   9.070 -0.4468 -0.0582  0.0654
  338MOL0     N45547   7.442   3.844   9.078 -0.2805  0.9299  0.0773
  338MOL0     C45548   8.310   3.533   8.942 -0.3995 -0.0918  0.7822
  338MOL0     C45549   8.435   3.588   8.964  0.2942  0.1333  0.3243
  338MOL0     C45550   8.795   3.687   9.206  0.5258  0.8158 -0.2415
  338MOL0     C45551   8.832   3.722   9.337 -0.4147 -0.3202  0.0138
  338MOL0     C45552   8.963   3.762   9.362 -0.1311 -0.8537 -0.8689
  338MOL0     C45553   9.060   3.778   9.262  0.0696  1.0392  0.6244
  338MOL0     O45554   9.184   3.829   9.278  0.6446  0.8950  0.3346
  338MOL0     C45555   9.229   3.885   9.402  0.1039 -0.2824 -0.6540
  338MOL0     C45556   9.382   3.906   9.400  0.8378  1.2295 -0.4282
  338MOL0     C45557   9.439   3.907   9.538  1.1263 -1.1470 -0.0971
  338MOL0     C45558   9.584   3.927   9.543 -0.2157  0.0897  0.3245
  338MOL0     C45559   9.612   3.912   9.685 -0.4873 -0.2507 -0.0448
  338MOL0     C45560   9.649   3.893   9.802  0.7676 -0.4615 -0.2276
  338MOL0     C45561   9.025   3.739   9.136 -0.0498 -0.2147 -0.1502
  338MOL0     C45562   8.892   3.684   9.110 -0.6210 -0.4689 -0.3342
  338MOL0     H45563   8.573   3.336   9.140  0.3751  0.5981  0.9768
  338MOL0     H45564   8.346   3.233   9.099  0.5169  0.7871  0.6779
  338MOL0     H45565   7.970   3.230   9.003 -0.1559  0.2520 -0.7393
  338MOL0     H45566   8.129   3.162   9.015  0.0952  0.3403 -2.7542
  338MOL0     H45567   8.017   3.231   9.251 -1.1503  0.5397 -0.2199
  338MOL0     H45568   8.153   3.349   9.209  0.7882  0.1652 -2.2497
  338MOL0     H45569   8.003   3.515   9.159  0.6889  1.1056  0.8497
  338MOL0     H45570   7.871   3.401   9.128  0.5711  0.7619  0.0902
  338MOL0     H45571   7.873   3.345   9.370  0.9391  0.3764 -1.5447
  338MOL0     H45572   8.009   3.457   9.403  1.8468 -0.1167 -0.8141
  338MOL0     H45573   7.823   3.601   9.451  0.8881  1.9888  0.0450
  338MOL0     H45574   7.880   3.648   9.304 -3.6642  1.2774 -0.7606
  338MOL0     H45575   7.685   3.512   9.184  2.4161  1.4543 -0.6593
  338MOL0     H45576   7.641   3.465   9.350  2.6053 -0.3472  2.2884
  338MOL0     H45577   7.614   3.701   9.412  0.9784  1.3913 -0.9153
  338MOL0     H45578   7.680   3.750   9.253 -0.6291 -0.2854 -2.0981
  338MOL0     H45579   7.427   3.613   9.339 -0.7183  2.7418  1.3434
  338MOL0     H45580   7.467   3.580   9.166 -2.1573 -0.3634  0.0670
  338MOL0     H45581   7.309   3.849   9.369  0.1839  1.5992  0.2582
  338MOL0     H45582   7.260   4.160   9.243 -2.4977  0.8994  1.6993
  338MOL0     H45583   7.143   4.101   9.118  1.0425 -0.6904 -1.1916
  338MOL0     H45584   7.046   4.129   9.339 -2.7235 -1.1123 -2.2071
  338MOL0     H45585   7.158   4.014   9.409  2.1206  3.2581 -0.5457
  338MOL0     H45586   7.063   3.838   9.232 -3.3498 -3.1984  1.6625
  338MOL0     H45587   6.954   3.970   9.180  0.6261  2.7644  0.6821
  338MOL0     H45588   6.996   3.868   9.471  0.8287  1.2813  0.5302
  338MOL0     H45589   6.874   3.796   9.366 -1.3405  0.0171  1.8813
  338MOL0     H45590   6.771   3.787   9.588  1.9259  0.7640 -3.8121
  338MOL0     H45591   6.552   3.648   9.679 -1.1300  0.6245 -1.4318
  338MOL0     H45592   6.675   3.708   9.789  0.3903  2.7703  0.0208
  338MOL0     H45593   6.514   3.741   9.835 -0.6677  2.3349 -0.9713
  338MOL0     H45594   6.088   3.904   9.779 -0.7706  0.1538  0.3278
  338MOL0     H45595   5.866   3.951   9.845  0.5296 -1.8800  3.6987
  338MOL0     H45596   5.822   4.206  10.084 -3.4604  0.2518  3.9626
  338MOL0     H45597   5.782   4.365  10.013  0.7289 -0.0165 -1.8313
  338MOL0     H45598   5.564   4.170  10.075  2.2136 -1.8115  0.3757
  338MOL0     H45599   5.615   4.313  10.169 -1.7441  1.6749 -1.5411
  338MOL0     H45600   5.555   4.353   9.875  0.3872 -0.4912  0.4959
  338MOL0     H45601   5.561   4.473   9.994 -2.1145  0.2490 -1.6495
  338MOL0     H45602   5.370   4.250  10.079  0.1609  0.1135  0.5647
  338MOL0     H45603   5.353   4.432  10.075 -0.8732  0.2711 -0.7003
  338MOL0     H45604   5.311   4.264   9.828  1.3219  1.2724 -1.6408
  338MOL0     H45605   5.325   4.440   9.831  0.3793  1.5157  0.4719
  338MOL0     H45606   5.098   4.303   9.980  2.1845  0.5626  1.6565
  338MOL0     H45607   5.110   4.468   9.951 -0.1743 -0.0245 -0.3370
  338MOL0     H45608   5.108   4.229   9.742  1.9348  0.3428  1.9775
  338MOL0     H45609   5.119   4.394   9.689  0.5158 -0.3552  0.2815
  338MOL0     H45610   4.884   4.286   9.833 -0.2165 -3.0905 -2.1031
  338MOL0     H45611   4.894   4.326   9.669  0.3902  0.2137  0.7309
  338MOL0     H45612   5.953   4.381   9.838 -1.6415  0.6661  3.7842
  338MOL0     H45613   6.180   4.318   9.758 -1.8290  1.5175  1.3969
  338MOL0     H45614   6.446   4.162   9.579  0.8727  1.7986 -0.4348
  338MOL0     H45615   6.662   4.176   9.449  3.4366 -0.5259  0.3571
  338MOL0     H45616   8.232   3.573   8.878  1.7442  1.4899 -1.0436
  338MOL0     H45617   8.475   3.678   8.919 -1.8911  2.0997  2.0640
  338MOL0     H45618   8.766   3.709   9.422  2.2540  0.5152  2.3655
  338MOL0     H45619   8.987   3.782   9.466  0.0179 -0.9585 -0.8824
  338MOL0     H45620   9.180   3.981   9.420 -1.0534 -1.1516  1.1008
  338MOL0     H45621   9.201   3.810   9.476 -0.2641  1.3027  0.8962
  338MOL0     H45622   9.393   4.004   9.351  0.2246  0.7703 -1.5376
  338MOL0     H45623   9.416   3.824   9.336  0.7219  0.4628  0.4809
  338MOL0     H45624   9.409   3.808   9.572 -1.5665 -1.3754 -2.7125
  338MOL0     H45625   9.392   3.984   9.601  3.3520 -0.6460  1.0763
  338MOL0     H45626   9.591   4.027   9.499 -1.4390 -0.7713 -2.0337
  338MOL0     H45627   9.643   3.855   9.485  1.2891 -0.0863  2.0155
  338MOL0     H45628   9.688   3.884   9.901  1.0728 -1.7849 -0.4495
  338MOL0     H45629   9.098   3.742   9.056  0.2779 -0.6443  0.1292
  338MOL0     H45630   8.866   3.655   9.009  1.3555  2.1546 -1.7277
  339MOL0     O45631   5.742   8.630   6.526  0.0749 -0.5048 -0.3228
  339MOL0     C45632   5.716   8.522   6.569  0.8141  0.3651  0.1599
  339MOL0     O45633   5.787   8.453   6.662  0.1025  0.1933  0.6350
  339MOL0     C45634   5.902   8.499   6.718 -0.2191 -0.3501 -0.4786
  339MOL0     C45635   5.890   8.606   6.806  0.0209 -0.0516  0.4913
  339MOL0     C45636   5.998   8.655   6.876  0.9888 -0.7722  0.5185
  339MOL0     C45637   6.127   8.601   6.847  0.3394  0.0378 -1.1421
  339MOL0     O45638   6.249   8.640   6.906  0.6650 -0.4151  0.1602
  339MOL0     C45639   6.271   8.779   6.925 -0.4205  0.1059 -0.7411
  339MOL0     C45640   6.304   8.805   7.073 -1.0840 -0.1076  0.7754
  339MOL0     C45641   6.403   8.697   7.124  0.1818 -0.1359  0.1677
  339MOL0     C45642   6.438   8.726   7.272 -0.4468 -0.8105  0.6802
  339MOL0     C45643   6.508   8.601   7.348  0.5124 -0.0054 -0.0082
  339MOL0     C45644   6.425   8.526   7.462 -0.5858 -0.1840  0.3420
  339MOL0     C45645   6.407   8.617   7.583 -0.7312  0.2942 -0.1045
  339MOL0     C45646   6.372   8.533   7.705  0.2331 -0.1801  0.0610
  339MOL0     N45647   6.236   8.491   7.686  0.6310 -0.7217 -0.2821
  339MOL0     C45648   6.195   8.364   7.701  0.3007 -0.4524 -0.4890
  339MOL0     C45649   6.056   8.370   7.714 -0.0288 -0.5887  0.2866
  339MOL0     C45650   5.966   8.248   7.743  0.6492 -0.5784  0.7743
  339MOL0     C45651   5.816   8.273   7.704 -0.8443  0.6468  0.3945
  339MOL0     C45652   5.722   8.307   7.815  0.6730 -0.3237 -0.3771
  339MOL0     C45653   5.573   8.288   7.776  0.4297 -0.3859  0.2320
  339MOL0     O45654   5.484   8.318   7.889 -0.0998 -0.4054  0.2505
  339MOL0     C45655   5.351   8.322   7.852  0.1930 -0.1562  0.0623
  339MOL0     C45656   5.259   8.399   7.921  0.0489  1.0041  0.5124
  339MOL0     C45657   5.126   8.394   7.884  0.7422  0.3593 -0.2609
  339MOL0     C45658   5.036   8.494   7.968  0.7093  1.7288  0.0609
  339MOL0     C45659   5.080   8.306   7.773 -0.3350  0.7897 -0.6903
  339MOL0     C45660   4.935   8.293   7.737 -0.4365 -0.7181 -0.4194
  339MOL0     O45661   4.916   8.227   7.618 -0.0342  0.1070  0.8192
  339MOL0     C45662   4.790   8.207   7.574  0.1064 -0.9971  0.3915
  339MOL0     C45663   4.690   8.151   7.656  0.8549 -0.8029  0.8574
  339MOL0     C45664   4.568   8.118   7.598  0.3794 -0.1685 -0.5675
  339MOL0     C45665   4.537   8.137   7.466  0.4885 -0.9880 -0.0875
  339MOL0     O45666   4.417   8.090   7.436  0.3716 -0.1848  0.4806
  339MOL0     C45667   4.380   8.125   7.307 -0.0447 -0.1546  0.4165
  339MOL0     C45668   4.249   8.046   7.271 -0.0448 -0.4676 -0.4758
  339MOL0     C45669   4.249   7.898   7.319  0.0879  0.6936 -0.0360
  339MOL0     C45670   4.107   7.847   7.285 -0.2245  0.2455  0.0486
  339MOL0     C45671   4.100   7.695   7.275  0.7620  0.8447  0.2578
  339MOL0     C45672   3.966   7.623   7.246 -0.4383  0.4123 -0.1609
  339MOL0     C45673   4.001   7.476   7.223  0.3860 -0.3766  0.1234
  339MOL0     C45674   3.880   7.404   7.170 -0.6784  0.3383 -0.5240
  339MOL0    Cl45675   3.903   7.229   7.185 -0.0279 -0.1800 -0.3303
  339MOL0     C45676   4.641   8.184   7.382  0.0743  0.4278 -0.1250
  339MOL0     C45677   4.756   8.222   7.439  0.2292 -0.1262 -0.0852
  339MOL0     O45678   4.845   8.343   7.807 -0.5132  0.4158  0.7646
  339MOL0     C45679   5.178   8.241   7.708 -0.4211 -0.2873  0.0397
  339MOL0     C45680   5.310   8.239   7.746 -0.5010  0.5886  0.4053
  339MOL0     N45681   6.024   8.503   7.716  0.3768  0.5122 -0.6037
  339MOL0     N45682   6.129   8.573   7.685  0.7448  0.1866  0.6143
  339MOL0     C45683   6.137   8.497   6.762  0.0960 -0.3429 -0.6889
  339MOL0     C45684   6.029   8.446   6.696  0.5053  0.3783  0.0629
  339MOL0     C45685   5.580   8.463   6.543  0.2068 -0.7219 -0.6164
  339MOL0     C45686   5.540   8.330   6.591  0.4644 -1.4322 -0.0349
  339MOL0     C45687   5.414   8.286   6.567  0.8475 -0.0723  0.3767
  339MOL0     C45688   5.322   8.362   6.490 -0.2330  1.0625  0.0223
  339MOL0     O45689   5.196   8.318   6.453  0.5329  0.1106 -0.0007
  339MOL0     C45690   5.110   8.242   6.528  0.4046 -0.1032  0.3972
  339MOL0     C45691   5.026   8.331   6.628  0.0977  0.1932 -0.3546
  339MOL0     C45692   4.915   8.416   6.558  0.4022 -0.4812  0.2810
  339MOL0     C45693   4.823   8.491   6.661  0.6523 -0.1161 -0.7904
  339MOL0     C45694   4.684   8.432   6.664 -0.3581  1.2678  0.1145
  339MOL0     C45695   4.568   8.382   6.658  0.2538 -0.8790 -0.1175
  339MOL0     C45696   5.353   8.482   6.445 -0.2882 -0.5865 -0.8884
  339MOL0     C45697   5.479   8.535   6.474  0.5901 -0.2473 -0.0703
  339MOL0     H45698   5.800   8.657   6.840  0.6988  1.9119 -0.4679
  339MOL0     H45699   5.975   8.729   6.953 -2.0919  0.4935 -1.3944
  339MOL0     H45700   6.357   8.800   6.861  0.6141  0.2837  0.6552
  339MOL0     H45701   6.182   8.837   6.899 -0.2979  0.5540 -0.1926
  339MOL0     H45702   6.354   8.902   7.079 -0.1737 -0.5806  1.3090
  339MOL0     H45703   6.215   8.801   7.137 -2.3287  1.1371 -0.8030
  339MOL0     H45704   6.369   8.593   7.118  2.0623 -1.0698  3.2009
  339MOL0     H45705   6.493   8.707   7.062  1.3625  1.0172  1.9480
  339MOL0     H45706   6.506   8.812   7.264  3.4075 -3.4704  1.8311
  339MOL0     H45707   6.352   8.765   7.327  1.9442  1.7500  2.9716
  339MOL0     H45708   6.534   8.526   7.273 -2.6645  1.7507 -3.1719
  339MOL0     H45709   6.599   8.644   7.389  0.7006  0.5701 -1.0150
  339MOL0     H45710   6.331   8.498   7.412  1.7235 -2.8663 -2.9292
  339MOL0     H45711   6.464   8.428   7.490 -3.1989 -0.9261  1.7297
  339MOL0     H45712   6.502   8.666   7.605  0.7881 -2.8668  0.9524
  339MOL0     H45713   6.330   8.690   7.554 -1.2325 -0.9577 -2.0706
  339MOL0     H45714   6.373   8.596   7.795  3.5028 -0.5930  0.4519
  339MOL0     H45715   6.445   8.453   7.720  1.6545  0.7946 -1.3366
  339MOL0     H45716   6.259   8.280   7.723  2.9668  1.3046 -1.1340
  339MOL0     H45717   6.015   8.160   7.700  2.5620  0.5567  0.5290
  339MOL0     H45718   5.975   8.221   7.849  3.5472 -1.1447  0.4739
  339MOL0     H45719   5.790   8.174   7.666 -0.4386  0.5914  0.2581
  339MOL0     H45720   5.812   8.349   7.625 -0.7329 -0.3696 -0.6130
  339MOL0     H45721   5.752   8.408   7.844 -1.7735  1.0298 -2.1727
  339MOL0     H45722   5.733   8.236   7.898  1.8037 -1.2133 -1.2604
  339MOL0     H45723   5.565   8.188   7.733 -0.1077  1.4969 -4.7750
  339MOL0     H45724   5.571   8.359   7.693 -0.7722 -2.5335 -1.6865
  339MOL0     H45725   5.310   8.465   7.991  1.7678  0.1605  0.1182
  339MOL0     H45726   5.095   8.551   8.040  3.8553 -1.1050 -0.0230
  339MOL0     H45727   4.962   8.550   7.910 -1.7276  1.8172  3.0432
  339MOL0     H45728   4.970   8.428   8.025  1.9682  0.6417  0.3101
  339MOL0     H45729   4.706   8.138   7.763  1.4209 -0.4941  0.8174
  339MOL0     H45730   4.490   8.079   7.664  0.3751  2.8097  1.3863
  339MOL0     H45731   4.375   8.234   7.301  1.6774 -0.0550  0.3332
  339MOL0     H45732   4.458   8.086   7.243  0.3722 -2.2198  2.0594
  339MOL0     H45733   4.169   8.106   7.317  1.1284  1.1472 -0.4544
  339MOL0     H45734   4.229   8.051   7.163  2.3356 -1.4046 -1.0059
  339MOL0     H45735   4.255   7.900   7.428  1.2098 -2.1565  0.0333
  339MOL0     H45736   4.333   7.850   7.268 -0.2698  0.7711 -0.7076
  339MOL0     H45737   4.036   7.895   7.353 -0.1055  1.6232 -0.7477
  339MOL0     H45738   4.081   7.884   7.185  1.8097  1.1161 -0.2117
  339MOL0     H45739   4.141   7.650   7.366  0.7395  0.3827  0.0415
  339MOL0     H45740   4.157   7.666   7.186 -1.8420  3.4476 -2.5020
  339MOL0     H45741   3.902   7.630   7.335  0.0873  2.1882  0.1263
  339MOL0     H45742   3.913   7.677   7.167  0.0548  2.7969  1.0308
  339MOL0     H45743   4.034   7.436   7.319  2.6543 -0.4391 -0.6130
  339MOL0     H45744   4.077   7.461   7.146  0.2689 -1.8478  0.2620
  339MOL0     H45745   3.869   7.442   7.068 -1.5539  2.0915  0.1746
  339MOL0     H45746   3.791   7.431   7.228 -0.0769  0.7192  0.2392
  339MOL0     H45747   4.636   8.199   7.275 -3.2456  1.5264  0.0743
  339MOL0     H45748   4.827   8.266   7.369 -0.0901  1.1896  0.3891
  339MOL0     H45749   5.141   8.173   7.631  4.9212  0.1295 -3.4145
  339MOL0     H45750   5.372   8.182   7.677 -0.5512  0.5132  0.4210
  339MOL0     H45751   6.234   8.451   6.746 -0.0493 -0.4867 -1.1494
  339MOL0     H45752   6.033   8.356   6.636  0.9734  1.0783 -0.9798
  339MOL0     H45753   5.616   8.259   6.623  2.6954  0.3167 -1.1143
  339MOL0     H45754   5.388   8.182   6.586 -1.7559  0.1831 -1.3267
  339MOL0     H45755   5.050   8.174   6.466  2.5880 -2.7513  1.0159
  339MOL0     H45756   5.168   8.172   6.589 -0.0283 -1.7569 -0.9960
  339MOL0     H45757   5.092   8.386   6.696 -3.7692  1.9617  2.3112
  339MOL0     H45758   4.980   8.255   6.692  0.1763  1.3141  1.0622
  339MOL0     H45759   4.868   8.353   6.482  0.3920  2.2065 -2.0951
  339MOL0     H45760   4.967   8.489   6.496 -1.6949 -0.8922 -2.1368
  339MOL0     H45761   4.826   8.598   6.643 -1.5336  0.0859 -0.3150
  339MOL0     H45762   4.877   8.483   6.756  0.5963  2.7113 -0.4433
  339MOL0     H45763   4.470   8.343   6.635  0.3734 -1.1143 -0.2274
  339MOL0     H45764   5.292   8.538   6.375 -0.3594 -0.2579 -0.5663
  339MOL0     H45765   5.512   8.630   6.431  0.6195 -0.2159  0.0224
  340MOL0     O45766   6.425   3.423   3.487  0.4618 -0.5345 -0.7004
  340MOL0     C45767   6.373   3.346   3.573  0.4745 -0.1319 -0.7774
  340MOL0     O45768   6.241   3.310   3.589 -0.9139  0.4085  0.3151
  340MOL0     C45769   6.140   3.396   3.546  0.4127  0.6459 -0.1951
  340MOL0     C45770   6.019   3.332   3.517 -0.1546  0.0151  0.2888
  340MOL0     C45771   5.914   3.409   3.464 -0.5120  0.5569  0.4406
  340MOL0     C45772   5.918   3.543   3.442  0.1619  0.7096  0.3009
  340MOL0     O45773   5.825   3.615   3.379 -0.0018  0.2868 -0.7667
  340MOL0     C45774   5.725   3.545   3.301 -0.8106  0.0466  0.1878
  340MOL0     C45775   5.640   3.651   3.237 -0.1896  1.3419  0.4940
  340MOL0     C45776   5.536   3.699   3.325  0.0784 -0.0769 -0.3091
  340MOL0     C45777   5.583   3.805   3.435  1.1230  0.2444  0.1894
  340MOL0     C45778   5.447   3.855   3.505  0.0231 -0.7374 -0.0240
  340MOL0     C45779   5.361   3.739   3.574 -0.1700 -0.3869 -0.2809
  340MOL0     C45780   5.302   3.769   3.713 -0.9755 -0.4603  0.6808
  340MOL0     C45781   5.233   3.904   3.701 -0.8352  0.0783 -0.2043
  340MOL0     N45782   5.137   3.920   3.589  0.4982 -0.6621  0.3360
  340MOL0     C45783   5.030   3.836   3.576 -0.1016  0.9606  0.5449
  340MOL0     C45784   4.952   3.891   3.484 -0.6200  0.4031  0.1783
  340MOL0     C45785   4.830   3.820   3.420  0.5548 -0.2833 -0.4575
  340MOL0     C45786   4.696   3.905   3.431 -0.4075 -0.6823 -0.0030
  340MOL0     C45787   4.653   3.956   3.575 -0.0297 -0.7522 -0.0975
  340MOL0     C45788   4.502   3.993   3.575 -0.7243  0.0810 -0.0111
  340MOL0     O45789   4.448   3.997   3.713 -0.2967  0.4917 -0.2711
  340MOL0     C45790   4.314   4.029   3.727  0.0213  0.7885 -1.0388
  340MOL0     C45791   4.269   4.006   3.861 -0.3066 -0.0732 -0.5431
  340MOL0     C45792   4.133   4.006   3.888  0.5300  0.2576  0.0177
  340MOL0     C45793   4.096   3.956   4.024  0.8600  0.2994  0.4490
  340MOL0     C45794   4.038   4.043   3.784  0.0423  0.1087 -0.0544
  340MOL0     C45795   3.890   4.046   3.800 -0.6299 -0.2247 -0.7576
  340MOL0     O45796   3.840   4.037   3.926  0.4729  0.1244 -0.3930
  340MOL0     C45797   3.712   3.990   3.951 -0.5265 -0.0632  0.8642
  340MOL0     C45798   3.700   3.905   4.065 -0.6544  0.3453  0.1273
  340MOL0     C45799   3.576   3.872   4.108 -0.7800  0.0023 -1.1770
  340MOL0     C45800   3.468   3.898   4.029  0.3863 -0.5353  0.3069
  340MOL0     O45801   3.346   3.851   4.081 -0.1622 -0.6815  0.8227
  340MOL0     C45802   3.224   3.941   4.051  0.1753  0.3524  0.4200
  340MOL0     C45803   3.093   3.898   4.112  0.5061 -0.0043 -0.6568
  340MOL0     C45804   3.093   3.830   4.256 -0.4768  0.2523 -0.7397
  340MOL0     C45805   2.949   3.797   4.290 -0.9454 -0.4139 -0.0559
  340MOL0     C45806   2.940   3.737   4.434  0.6508  0.0389  0.1007
  340MOL0     C45807   2.791   3.713   4.466 -0.1779 -0.0273  0.1291
  340MOL0     C45808   2.693   3.830   4.469 -0.4332 -0.7672  1.0296
  340MOL0     C45809   2.565   3.798   4.547  0.1564 -0.1250 -1.2421
  340MOL0    Cl45810   2.450   3.932   4.542  0.0513 -0.1685 -0.1745
  340MOL0     C45811   3.478   3.982   3.915 -0.3633  0.3823  0.2726
  340MOL0     C45812   3.602   4.028   3.878  0.4392  0.4969 -0.2768
  340MOL0     O45813   3.823   4.060   3.702  0.4221 -0.1255  0.2945
  340MOL0     C45814   4.094   4.076   3.655  0.5465  0.1126 -0.9366
  340MOL0     C45815   4.228   4.055   3.626 -0.4343 -0.7188 -0.4236
  340MOL0     N45816   5.021   3.998   3.424  0.3173 -0.0911 -0.2375
  340MOL0     N45817   5.125   4.026   3.498 -0.3967  0.6838  0.5005
  340MOL0     C45818   6.042   3.608   3.475 -0.7585 -1.1061 -0.0160
  340MOL0     C45819   6.159   3.537   3.531 -0.1581 -0.2794  0.1934
  340MOL0     C45820   6.479   3.274   3.662 -0.6809  0.2395  0.7938
  340MOL0     C45821   6.604   3.329   3.685  0.6747  0.0638 -0.0726
  340MOL0     C45822   6.702   3.258   3.755 -0.5782 -0.1855 -0.5458
  340MOL0     C45823   6.679   3.129   3.804 -0.5020  0.5301 -0.2175
  340MOL0     O45824   6.784   3.069   3.869  0.2449  1.1822 -0.7078
  340MOL0     C45825   6.795   3.090   4.011 -0.1031 -0.4829  0.7022
  340MOL0     C45826   6.888   3.203   4.035  0.5496  0.6186 -0.0089
  340MOL0     C45827   7.032   3.171   3.994  0.3921  0.3054  0.3263
  340MOL0     C45828   7.108   3.306   3.997  0.1339 -0.7151 -1.2023
  340MOL0     C45829   7.092   3.382   3.880  0.6385 -0.1311  1.7117
  340MOL0     C45830   7.077   3.429   3.767  0.1373 -0.4054  0.9962
  340MOL0     C45831   6.552   3.071   3.785 -0.0032 -0.5713  0.6375
  340MOL0     C45832   6.461   3.143   3.707  0.2654  0.7263 -0.3515
  340MOL0     H45833   6.000   3.225   3.520 -0.2194  0.0070 -0.3393
  340MOL0     H45834   5.829   3.346   3.440  0.9013 -0.5064 -2.1866
  340MOL0     H45835   5.786   3.488   3.231  3.3601 -1.0602  4.2074
  340MOL0     H45836   5.670   3.469   3.358  1.1038 -0.8430  0.9646
  340MOL0     H45837   5.683   3.743   3.196 -1.6264  0.1687 -4.2574
  340MOL0     H45838   5.601   3.602   3.148  0.7527 -0.6551  1.1182
  340MOL0     H45839   5.468   3.757   3.261 -0.0352 -0.0376 -0.1531
  340MOL0     H45840   5.481   3.612   3.363 -1.3015  1.0871  0.4390
  340MOL0     H45841   5.653   3.754   3.501  0.6968 -0.1256  0.3618
  340MOL0     H45842   5.636   3.887   3.386  0.7768  1.6884  2.1317
  340MOL0     H45843   5.490   3.927   3.575  0.8462 -1.3130  0.0825
  340MOL0     H45844   5.389   3.905   3.427 -0.8898 -1.5091  0.1473
  340MOL0     H45845   5.280   3.711   3.506 -0.1055 -1.0663 -0.0814
  340MOL0     H45846   5.424   3.651   3.585  0.4414  0.1566  0.6923
  340MOL0     H45847   5.222   3.698   3.734 -3.2936  0.9561 -2.5901
  340MOL0     H45848   5.385   3.774   3.785 -0.4518 -0.5715  0.0883
  340MOL0     H45849   5.311   3.980   3.692  1.9468 -2.7270 -1.8629
  340MOL0     H45850   5.181   3.933   3.793 -0.3144  0.7196 -0.0969
  340MOL0     H45851   5.014   3.741   3.625  1.1216  0.3189 -0.2437
  340MOL0     H45852   4.851   3.817   3.313 -1.4560 -0.5808 -0.8823
  340MOL0     H45853   4.817   3.716   3.452  3.2773 -1.2502 -2.1194
  340MOL0     H45854   4.612   3.864   3.373  0.4394 -1.4264 -0.7229
  340MOL0     H45855   4.722   3.992   3.371  0.6890 -0.5717  0.6055
  340MOL0     H45856   4.721   4.035   3.609 -1.7158  1.6862 -2.1191
  340MOL0     H45857   4.657   3.869   3.642  3.0898 -1.0560 -0.5194
  340MOL0     H45858   4.459   3.910   3.518 -1.2608 -1.0495  1.9443
  340MOL0     H45859   4.487   4.092   3.530  0.4485 -0.6995 -2.2963
  340MOL0     H45860   4.340   3.990   3.942 -2.0663 -3.5697  0.4924
  340MOL0     H45861   4.176   3.951   4.098  1.0173 -0.0070  0.2617
  340MOL0     H45862   4.018   4.015   4.074  0.1756 -0.3972  0.2273
  340MOL0     H45863   4.055   3.856   4.007 -0.4192  0.7945  0.4913
  340MOL0     H45864   3.790   3.889   4.124  0.9340  3.4824 -1.1982
  340MOL0     H45865   3.562   3.827   4.205 -3.3258  1.6018 -0.6914
  340MOL0     H45866   3.251   4.035   4.102  0.8524  1.0282 -1.1202
  340MOL0     H45867   3.210   3.964   3.945 -0.3979  0.5737  0.5411
  340MOL0     H45868   3.028   3.985   4.122  1.2577  1.0841 -4.1386
  340MOL0     H45869   3.045   3.817   4.057 -0.1293 -0.1675  0.1185
  340MOL0     H45870   3.133   3.893   4.336  1.3069  1.7405 -2.6880
  340MOL0     H45871   3.143   3.733   4.250 -2.6378 -0.9212 -0.6926
  340MOL0     H45872   2.895   3.892   4.291  1.0868  1.1261 -4.6902
  340MOL0     H45873   2.911   3.723   4.218  1.5675 -3.7592  1.7779
  340MOL0     H45874   2.991   3.790   4.515  0.5922 -0.5719  0.5474
  340MOL0     H45875   2.992   3.641   4.438 -0.3589 -0.5196  0.2693
  340MOL0     H45876   2.756   3.643   4.389  0.6876  1.5605 -1.7969
  340MOL0     H45877   2.797   3.674   4.568  3.8952  1.7431  0.7623
  340MOL0     H45878   2.670   3.849   4.364 -0.2103  5.5452  1.7545
  340MOL0     H45879   2.726   3.926   4.508 -0.3607  0.4403 -1.7539
  340MOL0     H45880   2.591   3.783   4.653  1.3984 -1.7944 -1.7526
  340MOL0     H45881   2.526   3.703   4.510  1.3132 -1.2807  0.3498
  340MOL0     H45882   3.392   4.010   3.855  0.8552 -0.1818 -1.8371
  340MOL0     H45883   3.605   4.107   3.803  1.1558 -0.6594 -1.5134
  340MOL0     H45884   4.018   4.091   3.579 -3.7049 -1.0255  2.6300
  340MOL0     H45885   4.263   4.072   3.525 -2.7107  2.0173 -0.8852
  340MOL0     H45886   6.054   3.713   3.449 -1.1237 -1.1290 -0.2722
  340MOL0     H45887   6.256   3.584   3.543 -0.5826  0.8092 -0.4104
  340MOL0     H45888   6.644   3.424   3.650  1.6960 -0.3302  0.0049
  340MOL0     H45889   6.801   3.300   3.770 -0.4226 -0.6011 -0.3706
  340MOL0     H45890   6.695   3.117   4.047 -0.4764  1.1652 -1.3913
  340MOL0     H45891   6.825   2.996   4.058  0.4380 -1.2627 -1.1368
  340MOL0     H45892   6.878   3.228   4.141 -3.0933  2.6172 -0.6748
  340MOL0     H45893   6.855   3.288   3.976 -2.0623  1.3171  2.2389
  340MOL0     H45894   7.021   3.121   3.897 -4.6175  1.7290 -0.1058
  340MOL0     H45895   7.069   3.112   4.078  0.2369  1.5252  1.2730
  340MOL0     H45896   7.214   3.285   4.010  0.5864 -0.5429 -3.9095
  340MOL0     H45897   7.067   3.360   4.082  2.5804 -0.0608 -0.3545
  340MOL0     H45898   7.061   3.467   3.668 -2.8934  0.7869  1.8286
  340MOL0     H45899   6.512   2.979   3.825 -0.6646  0.0850  1.5167
  340MOL0     H45900   6.359   3.105   3.703 -0.5731  2.1815  3.2825
  341MOL0     O45901   5.764   6.754   1.273 -0.4175  0.7124 -0.0810
  341MOL0     C45902   5.809   6.702   1.371 -1.2527  0.0337 -1.0960
  341MOL0     O45903   5.741   6.682   1.483 -0.4801  0.8443 -0.5247
  341MOL0     C45904   5.602   6.685   1.478  0.7943  0.3241  0.0882
  341MOL0     C45905   5.539   6.708   1.602 -0.4438 -0.1651 -0.4044
  341MOL0     C45906   5.402   6.729   1.627 -0.2046 -0.4506 -0.3899
  341MOL0     C45907   5.325   6.728   1.514  0.4905 -0.8176  0.7232
  341MOL0     O45908   5.194   6.759   1.547  0.9371  0.5366  0.3499
  341MOL0     C45909   5.085   6.686   1.485 -0.6737 -0.5635 -1.1058
  341MOL0     C45910   4.987   6.764   1.405  0.6138  0.1068  0.0131
  341MOL0     C45911   5.032   6.783   1.252  0.3918 -0.1534  0.1629
  341MOL0     C45912   4.948   6.886   1.172 -0.2402 -0.3163  0.3255
  341MOL0     C45913   5.019   6.939   1.045 -0.6033 -0.1018 -0.4110
  341MOL0     C45914   5.087   6.837   0.956  0.0500  0.6128 -0.8678
  341MOL0     C45915   5.107   6.866   0.809 -0.1046  0.4576  0.9659
  341MOL0     C45916   5.141   6.743   0.725 -0.2941  1.0499 -0.1242
  341MOL0     N45917   5.036   6.639   0.709  0.3325 -0.1804 -0.0006
  341MOL0     C45918   4.909   6.670   0.670  0.6359 -0.1228  0.9269
  341MOL0     C45919   4.845   6.552   0.648  0.9280 -0.0099 -0.5367
  341MOL0     C45920   4.698   6.522   0.599 -0.2203 -0.1073 -0.4906
  341MOL0     C45921   4.605   6.626   0.648  0.9243 -0.3327  0.2764
  341MOL0     C45922   4.571   6.591   0.795 -0.1395 -0.5564 -0.0551
  341MOL0     C45923   4.481   6.477   0.810 -0.1777 -0.0142 -0.6981
  341MOL0     O45924   4.405   6.486   0.930  1.4714 -0.0869  0.2124
  341MOL0     C45925   4.287   6.414   0.936  0.1678 -0.8260 -0.0495
  341MOL0     C45926   4.239   6.307   0.856 -0.3555  0.4716 -0.9094
  341MOL0     C45927   4.122   6.240   0.876  0.5537  0.1147 -0.0269
  341MOL0     C45928   4.095   6.122   0.786  0.5747 -0.6129 -0.2316
  341MOL0     C45929   4.044   6.274   0.991 -0.9432 -0.4187 -1.0460
  341MOL0     C45930   3.907   6.229   1.033  0.2622  0.8065  0.3463
  341MOL0     O45931   3.839   6.158   0.938 -0.2318 -0.1712  0.7605
  341MOL0     C45932   3.717   6.110   0.966 -0.5343  0.1994 -0.0337
  341MOL0     C45933   3.699   5.977   0.973 -0.6075  0.0897  0.4985
  341MOL0     C45934   3.576   5.925   0.999  0.4661 -0.3340 -0.1854
  341MOL0     C45935   3.465   6.003   1.024  0.9683  0.1778  0.6729
  341MOL0     O45936   3.348   5.928   1.027  0.2271 -0.2835  0.8475
  341MOL0     C45937   3.229   5.998   1.063 -0.7381 -0.9289  0.0762
  341MOL0     C45938   3.114   5.903   1.032  0.6104  0.1774  0.0421
  341MOL0     C45939   3.081   5.912   0.881 -0.5817  0.1039 -0.9251
  341MOL0     C45940   2.965   5.813   0.844 -0.8582 -0.9006  0.1727
  341MOL0     C45941   2.940   5.806   0.690  0.2758  0.5049 -0.3829
  341MOL0     C45942   2.854   5.687   0.647  0.1195  1.0560  0.0483
  341MOL0     C45943   2.793   5.716   0.504 -0.0121 -0.3118 -0.0735
  341MOL0     C45944   2.913   5.725   0.402 -0.3255 -0.0689 -0.0749
  341MOL0    Cl45945   2.847   5.765   0.245 -0.0776  0.5978  0.0649
  341MOL0     C45946   3.477   6.139   1.005 -0.1324 -0.4147  0.0386
  341MOL0     C45947   3.613   6.194   0.984  0.4532  0.0260 -0.9372
  341MOL0     O45948   3.860   6.253   1.146 -0.0793 -1.1015  0.9595
  341MOL0     C45949   4.090   6.380   1.063  0.0648  0.1741 -0.9344
  341MOL0     C45950   4.208   6.448   1.041 -1.2705  0.1203 -0.1236
  341MOL0     N45951   4.936   6.448   0.684  0.9650 -1.1459  0.4886
  341MOL0     N45952   5.054   6.500   0.702 -0.1303 -0.2513 -0.7221
  341MOL0     C45953   5.376   6.703   1.385 -0.3715  0.3847  1.0629
  341MOL0     C45954   5.514   6.689   1.365 -0.9533  0.0779  0.2431
  341MOL0     C45955   5.952   6.680   1.365  0.3572  1.2026  0.3575
  341MOL0     C45956   6.035   6.737   1.264  1.2912  0.3652 -0.0737
  341MOL0     C45957   6.175   6.712   1.263  0.3940 -0.7740 -0.8381
  341MOL0     C45958   6.241   6.630   1.361  0.4229  0.3968  0.3361
  341MOL0     O45959   6.377   6.604   1.347 -0.3011 -0.6677  0.0613
  341MOL0     C45960   6.431   6.602   1.481 -0.1714  0.2698 -0.4768
  341MOL0     C45961   6.582   6.555   1.465  0.1990  0.8442  0.1249
  341MOL0     C45962   6.602   6.421   1.388  0.5854  0.4455 -0.6991
  341MOL0     C45963   6.533   6.299   1.454 -0.0698  0.5787 -0.8880
  341MOL0     C45964   6.614   6.177   1.417  0.5785 -0.5235  0.3836
  341MOL0     C45965   6.666   6.072   1.370 -0.6835  0.7280 -0.9824
  341MOL0     C45966   6.150   6.568   1.453  0.2691  0.5561  0.3654
  341MOL0     C45967   6.012   6.592   1.460  0.0064 -0.3948 -0.5230
  341MOL0     H45968   5.599   6.725   1.691 -4.0688  1.6188  1.9687
  341MOL0     H45969   5.368   6.771   1.721  0.9014  1.5673 -0.8326
  341MOL0     H45970   5.124   6.614   1.412  1.1051  0.4990 -1.2837
  341MOL0     H45971   5.039   6.623   1.561  2.3616 -1.3491  0.2218
  341MOL0     H45972   4.890   6.713   1.407  1.6667 -1.9855  2.5922
  341MOL0     H45973   4.983   6.861   1.455  0.5279 -0.0981  0.4023
  341MOL0     H45974   5.132   6.827   1.245 -0.0259  0.5423 -2.3117
  341MOL0     H45975   5.044   6.690   1.195  4.4957 -0.2432  0.8791
  341MOL0     H45976   4.844   6.856   1.156 -0.2423  0.3308 -1.0772
  341MOL0     H45977   4.943   6.968   1.244  2.3224 -0.3879  0.6579
  341MOL0     H45978   4.947   6.998   0.988 -0.9459 -1.7120 -1.7173
  341MOL0     H45979   5.104   7.004   1.069 -0.3804  0.2491 -2.0713
  341MOL0     H45980   5.188   6.816   0.995 -0.1326 -0.6259 -1.0281
  341MOL0     H45981   5.036   6.742   0.971  3.1960 -0.9466  1.0701
  341MOL0     H45982   5.027   6.923   0.762 -0.1377  0.6006  1.1982
  341MOL0     H45983   5.189   6.938   0.806 -0.7173  1.1757  1.0850
  341MOL0     H45984   5.230   6.694   0.766  0.3035 -0.2341 -2.7658
  341MOL0     H45985   5.164   6.779   0.625  2.1606  4.7405  1.5657
  341MOL0     H45986   4.866   6.769   0.658  1.3255  0.2669  1.5386
  341MOL0     H45987   4.711   6.527   0.490  0.7834 -3.5240 -0.6326
  341MOL0     H45988   4.667   6.418   0.600  0.8257 -0.5034 -2.4692
  341MOL0     H45989   4.513   6.624   0.589  0.4542 -3.0985  0.9771
  341MOL0     H45990   4.654   6.723   0.635 -1.1152  0.6494 -0.4679
  341MOL0     H45991   4.533   6.685   0.837  0.9095  1.5464 -3.4056
  341MOL0     H45992   4.669   6.579   0.842  0.7627  2.5680 -0.9285
  341MOL0     H45993   4.544   6.387   0.812  1.4647  1.0605 -1.7993
  341MOL0     H45994   4.421   6.469   0.718 -0.2717 -2.7225 -0.4971
  341MOL0     H45995   4.302   6.260   0.781 -1.4328 -3.8115  0.5874
  341MOL0     H45996   4.190   6.089   0.742  0.8931  0.6703 -0.5753
  341MOL0     H45997   4.061   6.039   0.848 -0.8783  0.1803  0.0828
  341MOL0     H45998   4.009   6.144   0.722 -0.5060  2.5213  2.0414
  341MOL0     H45999   3.783   5.909   0.975 -0.1361  0.6175 -0.6755
  341MOL0     H46000   3.559   5.818   1.012  0.8576 -0.2975  0.6781
  341MOL0     H46001   3.221   6.013   1.172 -4.1260 -3.4020  0.3438
  341MOL0     H46002   3.210   6.097   1.022 -0.6515  0.5304  3.2429
  341MOL0     H46003   3.147   5.805   1.067  3.0447 -0.4246 -3.4353
  341MOL0     H46004   3.025   5.932   1.089 -0.0399 -0.7371 -0.4898
  341MOL0     H46005   3.162   5.879   0.815  1.1553  2.5798 -0.1724
  341MOL0     H46006   3.054   6.015   0.857  1.5079  0.5769 -1.4643
  341MOL0     H46007   2.984   5.712   0.881 -1.7917 -2.0496 -2.2374
  341MOL0     H46008   2.875   5.854   0.890  0.6573  1.2615  1.3527
  341MOL0     H46009   3.033   5.803   0.632  2.0050 -1.2605  2.2617
  341MOL0     H46010   2.883   5.897   0.669 -0.2015  1.4512  4.1682
  341MOL0     H46011   2.926   5.605   0.653  1.1774  1.9484 -0.1790
  341MOL0     H46012   2.770   5.668   0.715  0.4461 -1.7987 -0.2559
  341MOL0     H46013   2.738   5.811   0.504  0.0676 -0.2654 -0.2092
  341MOL0     H46014   2.726   5.637   0.470 -0.8286  0.2882  0.1192
  341MOL0     H46015   2.970   5.633   0.390 -0.7210 -0.2205 -0.8966
  341MOL0     H46016   2.978   5.806   0.434  1.7441 -1.5352 -0.4001
  341MOL0     H46017   3.402   6.214   1.028  1.8828  1.1272  2.1325
  341MOL0     H46018   3.650   6.296   0.994  4.1038 -1.4004  3.5455
  341MOL0     H46019   4.037   6.410   1.152  0.2949 -2.5997  0.2379
  341MOL0     H46020   4.227   6.527   1.114  1.7399  0.5017 -1.2150
  341MOL0     H46021   5.319   6.693   1.293  0.1578  0.6528  0.6989
  341MOL0     H46022   5.555   6.655   1.270  3.3525  0.4878  1.7445
  341MOL0     H46023   5.993   6.806   1.192 -0.6261  0.1324  0.7712
  341MOL0     H46024   6.238   6.772   1.198  2.1138  1.3309  2.4792
  341MOL0     H46025   6.436   6.698   1.534  0.9458  0.1231 -0.2835
  341MOL0     H46026   6.388   6.532   1.553 -1.3736  1.3123 -0.1391
  341MOL0     H46027   6.621   6.543   1.566  0.4378 -3.9938 -0.3356
  341MOL0     H46028   6.645   6.622   1.406  0.8912  0.1177  0.0343
  341MOL0     H46029   6.707   6.398   1.364  0.3442 -2.1898  0.4974
  341MOL0     H46030   6.554   6.440   1.291 -0.2540  1.8352 -0.0477
  341MOL0     H46031   6.426   6.285   1.436 -0.9484  0.6305  3.3157
  341MOL0     H46032   6.543   6.304   1.563  0.8312 -3.1081 -0.6550
  341MOL0     H46033   6.705   5.982   1.326 -0.4397  1.0542 -1.4464
  341MOL0     H46034   6.182   6.488   1.519 -1.1209  0.0125  0.4286
  341MOL0     H46035   5.959   6.548   1.543  1.2571 -2.6336 -0.8446
  342MOL0     O46036  10.410   3.023   3.686  1.4385  0.5370 -0.1444
  342MOL0     C46037  10.329   2.954   3.625  0.7236 -0.7496  0.0810
  342MOL0     O46038  10.360   2.866   3.527  0.4101 -0.0506 -0.4146
  342MOL0     C46039  10.494   2.849   3.495  0.8177 -0.8661  0.2129
  342MOL0     C46040  10.549   2.721   3.498 -0.0045 -0.4004  1.0177
  342MOL0     C46041  10.686   2.694   3.467 -0.0429 -0.2489 -0.4509
  342MOL0     C46042  10.772   2.799   3.442  0.0018 -0.1717  0.8004
  342MOL0     O46043  10.906   2.774   3.433  0.0620 -0.9398 -0.1907
  342MOL0     C46044  10.997   2.857   3.364 -0.9854  0.2779  0.2426
  342MOL0     C46045  11.056   2.969   3.461 -0.4306  0.1629  0.5652
  342MOL0     C46046  11.128   3.076   3.388 -1.1109 -0.3651 -0.0184
  342MOL0     C46047  11.058   3.176   3.295  0.0772  1.2481 -0.5829
  342MOL0     C46048  11.147   3.287   3.229 -0.2856  0.3410 -0.8969
  342MOL0     C46049  11.068   3.400   3.164 -0.2007  0.1476  0.3844
  342MOL0     C46050  11.138   3.473   3.050 -0.4621 -0.6799 -0.2202
  342MOL0     C46051  11.291   3.499   3.059 -0.9939  0.0941  0.2505
  342MOL0     N46052  11.348   3.511   2.928 -0.0947  0.8413  0.4523
  342MOL0     C46053  11.330   3.618   2.843  0.5652 -0.2743  0.4653
  342MOL0     C46054  11.391   3.580   2.732  0.1338  0.2789 -0.1185
  342MOL0     C46055  11.397   3.657   2.607 -0.9003 -1.0809  0.4924
  342MOL0     C46056  11.447   3.798   2.629 -0.2209  0.4689 -0.7952
  342MOL0     C46057  11.472   3.873   2.497  0.2023 -0.6392  0.4194
  342MOL0     C46058  11.339   3.872   2.404  0.4854 -0.0716 -0.2939
  342MOL0     O46059  11.230   3.928   2.478 -0.6329  0.1769  0.1289
  342MOL0     C46060  11.112   3.941   2.412  0.9356  0.7956  0.2979
  342MOL0     C46061  11.065   3.844   2.324 -0.4669 -0.7715  0.7571
  342MOL0     C46062  10.957   3.878   2.246  0.0548 -0.4920 -1.0378
  342MOL0     C46063  10.914   3.768   2.159  0.2559  1.2129 -0.1738
  342MOL0     C46064  10.870   3.992   2.286 -0.2662 -0.1894  0.4525
  342MOL0     C46065  10.729   4.015   2.233  0.4904  0.4777  0.0395
  342MOL0     O46066  10.659   4.116   2.284  0.1169 -0.1247 -0.3963
  342MOL0     C46067  10.527   4.137   2.245 -0.1020 -0.2971  1.6402
  342MOL0     C46068  10.480   4.145   2.109 -0.1483 -0.3864  1.0069
  342MOL0     C46069  10.346   4.160   2.072 -0.3015 -0.2904  0.6093
  342MOL0     C46070  10.257   4.189   2.172 -0.3045  0.1179  0.3229
  342MOL0     O46071  10.130   4.228   2.164  0.0795  0.0844  0.3861
  342MOL0     C46072  10.070   4.265   2.037 -0.5138  0.0710  0.0268
  342MOL0     C46073   9.921   4.275   2.054 -0.1602 -0.5579 -0.0058
  342MOL0     C46074   9.857   4.313   1.921 -0.2182 -0.6614 -0.5294
  342MOL0     C46075   9.715   4.275   1.924  0.7043 -0.2908 -0.5785
  342MOL0     C46076   9.642   4.307   1.798 -0.3052 -0.0490  0.5177
  342MOL0     C46077   9.525   4.207   1.771 -0.2419  0.4482  0.3094
  342MOL0     C46078   9.558   4.062   1.732 -0.2198 -0.2395  0.4542
  342MOL0     C46079   9.619   4.043   1.596  0.5661  0.1656  0.1344
  342MOL0    Cl46080   9.507   4.089   1.468 -0.0248 -0.3449 -0.5035
  342MOL0     C46081  10.304   4.188   2.307 -0.3131  0.4249 -0.4120
  342MOL0     C46082  10.435   4.154   2.347 -0.2853 -0.2285  0.5381
  342MOL0     O46083  10.688   3.935   2.148 -0.7361  0.1963 -0.4355
  342MOL0     C46084  10.908   4.068   2.396  0.2106  0.8456 -0.4552
  342MOL0     C46085  11.035   4.048   2.452 -0.4250 -0.9663  0.1909
  342MOL0     N46086  11.442   3.453   2.753  0.0280  0.3268 -0.1131
  342MOL0     N46087  11.417   3.410   2.869 -0.8914  0.4856  0.2186
  342MOL0     C46088  10.725   2.928   3.461 -0.1123  1.1355  1.0022
  342MOL0     C46089  10.593   2.952   3.478 -1.1894  0.6063  0.7060
  342MOL0     C46090  10.193   2.981   3.660 -0.5038  0.5692  0.1056
  342MOL0     C46091  10.096   2.880   3.652  0.4115 -0.0484  0.0484
  342MOL0     C46092   9.972   2.897   3.715 -0.7465 -0.0068  0.0312
  342MOL0     C46093   9.929   3.004   3.783  0.3218 -0.1121  0.1437
  342MOL0     O46094   9.803   3.010   3.845 -0.1610 -0.6073  0.3754
  342MOL0     C46095   9.726   3.137   3.846 -0.9605  0.1609 -1.0178
  342MOL0     C46096   9.596   3.105   3.778  0.6012 -0.0214 -0.1510
  342MOL0     C46097   9.607   3.058   3.637 -0.6473 -0.8059  0.6311
  342MOL0     C46098   9.471   3.011   3.570  0.5312 -0.4462  0.2749
  342MOL0     C46099   9.388   2.916   3.650  1.4012 -0.3333  0.9486
  342MOL0     C46100   9.318   2.834   3.716 -0.4895 -0.1566 -0.1151
  342MOL0     C46101  10.024   3.106   3.790  0.0158 -0.5819 -0.1281
  342MOL0     C46102  10.150   3.093   3.735 -1.0845 -0.2434 -0.5442
  342MOL0     H46103  10.476   2.643   3.520 -1.8075  1.0636  0.5010
  342MOL0     H46104  10.719   2.591   3.476 -0.2192 -0.2067  0.9863
  342MOL0     H46105  11.080   2.795   3.327 -2.0953 -1.1683  0.0799
  342MOL0     H46106  10.946   2.902   3.278 -2.0187  1.2998  1.3498
  342MOL0     H46107  10.967   3.012   3.508 -1.1760 -0.9840  0.2502
  342MOL0     H46108  11.118   2.916   3.534 -3.5480 -3.5596  0.8747
  342MOL0     H46109  11.189   3.126   3.463  0.8734  0.1073 -1.8329
  342MOL0     H46110  11.201   3.028   3.322  0.2665  1.9120 -0.2368
  342MOL0     H46111  11.006   3.131   3.210 -2.1829  3.5280 -0.5350
  342MOL0     H46112  10.974   3.218   3.352  1.5436  2.1438  1.0068
  342MOL0     H46113  11.215   3.331   3.303 -1.7818  1.4957 -0.1568
  342MOL0     H46114  11.194   3.230   3.148 -1.2647 -1.1921 -0.4325
  342MOL0     H46115  10.978   3.357   3.119  1.0418  0.3169 -2.5012
  342MOL0     H46116  11.036   3.473   3.238  1.0898  0.2677  0.8392
  342MOL0     H46117  11.138   3.425   2.952  1.8887 -0.7785 -0.2424
  342MOL0     H46118  11.086   3.569   3.043 -0.4019 -0.4163  2.1743
  342MOL0     H46119  11.355   3.424   3.107  1.5110  1.6352 -0.4654
  342MOL0     H46120  11.311   3.593   3.111  1.0395 -1.6440  2.8880
  342MOL0     H46121  11.274   3.709   2.862  3.4562  1.8325 -0.4483
  342MOL0     H46122  11.456   3.607   2.530 -0.2627 -1.0654  0.9640
  342MOL0     H46123  11.292   3.656   2.576 -0.6675 -2.6375 -0.3302
  342MOL0     H46124  11.544   3.784   2.678 -0.7465 -1.4967 -0.2094
  342MOL0     H46125  11.378   3.846   2.700  2.1855  1.6982  0.8619
  342MOL0     H46126  11.550   3.833   2.432 -0.8717  2.3958 -3.1385
  342MOL0     H46127  11.488   3.979   2.521 -0.9125  0.0031 -1.4212
  342MOL0     H46128  11.320   3.773   2.363  0.5565  0.3500 -1.3657
  342MOL0     H46129  11.357   3.925   2.310  2.9244  1.0951  0.7274
  342MOL0     H46130  11.115   3.750   2.303  0.6704  0.5593 -3.2475
  342MOL0     H46131  10.811   3.736   2.180  0.1747  2.4253  1.3806
  342MOL0     H46132  10.924   3.800   2.055  0.7229  0.0690 -0.4996
  342MOL0     H46133  10.975   3.679   2.174  1.7982  2.4888  1.5271
  342MOL0     H46134  10.546   4.147   2.022 -2.9181 -1.7208 -1.2896
  342MOL0     H46135  10.306   4.169   1.971  1.0264  0.9696  0.1714
  342MOL0     H46136  10.113   4.360   2.007  0.5691 -1.5300 -4.3243
  342MOL0     H46137  10.097   4.190   1.962  0.2493  3.5187 -3.4780
  342MOL0     H46138   9.884   4.178   2.089  1.2447 -1.5175 -1.0756
  342MOL0     H46139   9.899   4.348   2.132 -0.6193 -1.6975  0.9715
  342MOL0     H46140   9.901   4.252   1.843 -0.9709 -0.7057 -0.9302
  342MOL0     H46141   9.872   4.421   1.911  1.6770 -0.6096  1.9591
  342MOL0     H46142   9.703   4.170   1.951  1.7016 -0.2477  0.0485
  342MOL0     H46143   9.673   4.327   2.011 -2.7344 -2.0890 -0.9836
  342MOL0     H46144   9.710   4.315   1.713  0.5833 -3.3092  0.7939
  342MOL0     H46145   9.603   4.408   1.815 -2.0936 -1.3038  5.6972
  342MOL0     H46146   9.463   4.195   1.860  1.3919 -0.9607  1.3185
  342MOL0     H46147   9.450   4.250   1.702 -1.9152  0.0366  1.7988
  342MOL0     H46148   9.462   4.011   1.738 -0.5817  0.0449 -2.0304
  342MOL0     H46149   9.624   4.008   1.801 -2.0867 -2.1439  0.8450
  342MOL0     H46150   9.644   3.938   1.580 -2.4476 -0.6307  0.0186
  342MOL0     H46151   9.712   4.099   1.597  0.4736  0.3195  0.4444
  342MOL0     H46152  10.234   4.209   2.387 -3.4827  1.2838 -3.1980
  342MOL0     H46153  10.453   4.142   2.453  1.8608  1.6853  0.4648
  342MOL0     H46154  10.851   4.147   2.443  0.8852  2.3011 -1.9843
  342MOL0     H46155  11.060   4.108   2.538  0.7911  3.3988 -2.8899
  342MOL0     H46156  10.788   3.015   3.447  1.2956  0.0974  0.6711
  342MOL0     H46157  10.567   3.057   3.489  2.4330  1.7614 -0.5832
  342MOL0     H46158  10.121   2.791   3.595 -2.0030 -0.7077 -0.0985
  342MOL0     H46159   9.908   2.809   3.716  0.9228 -1.2943  1.7242
  342MOL0     H46160   9.719   3.172   3.949 -1.0003 -4.3034  0.7205
  342MOL0     H46161   9.777   3.215   3.788 -0.9292 -0.6525 -2.1147
  342MOL0     H46162   9.530   3.192   3.790 -1.0472 -0.6844 -3.3664
  342MOL0     H46163   9.548   3.028   3.840  2.4741  0.5208  2.1549
  342MOL0     H46164   9.676   2.974   3.627  0.2784 -0.2326  1.9320
  342MOL0     H46165   9.653   3.137   3.578  0.6576 -0.2484  2.3086
  342MOL0     H46166   9.482   2.971   3.468  0.0103 -2.0861  0.8268
  342MOL0     H46167   9.419   3.106   3.556  0.8629 -0.5223 -1.8961
  342MOL0     H46168   9.263   2.763   3.774  1.7281 -0.1536  2.1650
  342MOL0     H46169   9.995   3.196   3.844 -0.8428 -0.4516 -0.7929
  342MOL0     H46170  10.212   3.182   3.745 -1.3750  0.4338 -3.6798
  343MOL0     O46171   6.383   1.642   0.887 -0.4706 -0.4204 -0.6180
  343MOL0     C46172   6.404   1.547   0.959  0.6696 -0.7669 -0.5479
  343MOL0     O46173   6.303   1.504   1.043 -0.0258  0.7142  0.3165
  343MOL0     C46174   6.177   1.550   1.041  0.3338 -0.2164  1.0721
  343MOL0     C46175   6.088   1.563   0.927 -1.1964  0.4158 -0.6711
  343MOL0     C46176   5.957   1.602   0.951  0.3631 -0.1429  0.3205
  343MOL0     C46177   5.900   1.610   1.079  0.1714  0.9953  0.8184
  343MOL0     O46178   5.770   1.646   1.088 -0.0828 -0.7797 -0.2113
  343MOL0     C46179   5.716   1.701   1.216  0.1081 -0.0167 -0.0201
  343MOL0     C46180   5.585   1.773   1.203  0.0216 -0.1763 -0.0240
  343MOL0     C46181   5.467   1.680   1.179 -0.4170 -0.5370  0.3460
  343MOL0     C46182   5.430   1.688   1.029  0.5216  0.5805 -0.7371
  343MOL0     C46183   5.330   1.583   0.997  0.8570  0.9764  0.1075
  343MOL0     C46184   5.399   1.442   0.981  0.4885 -0.4023  0.3917
  343MOL0     C46185   5.500   1.446   0.860  0.0926 -0.2266 -0.5238
  343MOL0     C46186   5.477   1.312   0.787  0.0998  0.3722 -0.0894
  343MOL0     N46187   5.583   1.288   0.689 -0.4297  0.2018 -0.1160
  343MOL0     C46188   5.674   1.382   0.639 -0.1986 -0.2911 -1.0412
  343MOL0     C46189   5.753   1.303   0.565  0.2691  0.1326  0.2398
  343MOL0     C46190   5.869   1.348   0.485 -0.2339  0.5415  0.0986
  343MOL0     C46191   5.857   1.493   0.434 -0.1243 -0.2592  0.4152
  343MOL0     C46192   5.744   1.492   0.329  0.2170 -0.0536  0.0004
  343MOL0     C46193   5.676   1.624   0.305 -0.5512  0.4908  0.4311
  343MOL0     O46194   5.574   1.601   0.208  0.0871  0.4320 -0.5987
  343MOL0     C46195   5.485   1.705   0.204  1.1019  1.0047 -0.8235
  343MOL0     C46196   5.503   1.839   0.202 -0.4093  0.4931  0.1388
  343MOL0     C46197   5.406   1.939   0.201  0.9195  0.4972  0.1034
  343MOL0     C46198   5.458   2.076   0.188 -0.3558 -0.5178 -0.2484
  343MOL0     C46199   5.269   1.893   0.203  0.0589 -0.1240  1.0631
  343MOL0     C46200   5.153   1.979   0.215  0.2814 -0.3532 -0.6102
  343MOL0     O46201   5.142   2.099   0.147 -0.2363  0.9043  0.7267
  343MOL0     C46202   5.073   2.202   0.196 -0.1138  0.1272 -0.0918
  343MOL0     C46203   5.019   2.281   0.094 -0.7474 -0.9232  0.0837
  343MOL0     C46204   4.932   2.384   0.130  1.2113  0.1616 -0.1441
  343MOL0     C46205   4.877   2.405   0.254  0.0450  0.5209  0.7953
  343MOL0     O46206   4.787   2.503   0.272 -0.3269 -0.0151 -1.1440
  343MOL0     C46207   4.700   2.494   0.385  0.2327  0.1611  0.3068
  343MOL0     C46208   4.587   2.596   0.364 -0.2850 -0.5272  0.1653
  343MOL0     C46209   4.516   2.596   0.230 -0.4432 -0.2080 -0.0156
  343MOL0     C46210   4.580   2.702   0.141  0.6914  0.2966 -0.4270
  343MOL0     C46211   4.556   2.691  -0.012  0.7382 -0.3119 -0.1515
  343MOL0     C46212   4.643   2.582  -0.086 -0.1717 -0.5700 -0.7013
  343MOL0     C46213   4.591   2.546  -0.221 -0.5565 -0.2089 -0.3791
  343MOL0     C46214   4.605   2.670  -0.315 -0.6527 -0.5951 -0.2975
  343MOL0    Cl46215   4.518   2.650  -0.466  0.3067 -0.2786  0.2606
  343MOL0     C46216   4.936   2.327   0.355  0.2731  0.0485  0.7610
  343MOL0     C46217   5.042   2.235   0.331  0.0205  0.8261 -0.8450
  343MOL0     O46218   5.070   1.935   0.302  0.8362  0.0538  0.2541
  343MOL0     C46219   5.251   1.758   0.221  0.0653 -0.2302  0.3505
  343MOL0     C46220   5.354   1.662   0.210  0.2137 -0.8809  0.0309
  343MOL0     N46221   5.724   1.167   0.580  0.6022 -0.6019  0.0513
  343MOL0     N46222   5.611   1.158   0.650  0.3404  0.2197  0.3064
  343MOL0     C46223   5.978   1.575   1.181 -0.1344  0.6732  0.7828
  343MOL0     C46224   6.109   1.553   1.166  0.1074  0.3179 -0.0629
  343MOL0     C46225   6.542   1.487   0.983 -0.3442  0.3654 -0.4865
  343MOL0     C46226   6.582   1.423   1.105  0.2203  0.0108 -0.4085
  343MOL0     C46227   6.701   1.359   1.110 -0.0335 -0.5706 -0.4192
  343MOL0     C46228   6.797   1.369   1.013 -1.1073  0.5279 -0.6200
  343MOL0     O46229   6.922   1.303   1.001 -0.4863 -0.2597 -0.4098
  343MOL0     C46230   6.987   1.261   1.126 -0.1572 -0.2670 -0.2650
  343MOL0     C46231   7.122   1.179   1.108  0.9423  0.8751  0.2306
  343MOL0     C46232   7.213   1.223   0.995  0.6042  0.6614  0.1497
  343MOL0     C46233   7.358   1.175   1.021 -0.8475 -0.0860  0.0687
  343MOL0     C46234   7.378   1.031   1.039  0.0696 -0.3228  0.4392
  343MOL0     C46235   7.387   0.916   1.079 -0.8004 -0.6264  0.4891
  343MOL0     C46236   6.761   1.436   0.896  0.4320  0.4420  0.4186
  343MOL0     C46237   6.637   1.495   0.878 -0.2080 -0.7059 -0.5752
  343MOL0     H46238   6.129   1.563   0.826 -4.0159  2.7356 -1.9924
  343MOL0     H46239   5.891   1.611   0.865  2.0661 -1.3055 -1.1793
  343MOL0     H46240   5.710   1.625   1.294  1.0613 -0.0642  0.0194
  343MOL0     H46241   5.792   1.767   1.259  0.3146 -0.1065 -0.2520
  343MOL0     H46242   5.570   1.820   1.300  3.1239 -1.7586  1.3677
  343MOL0     H46243   5.587   1.847   1.122  1.1508  2.9384  2.6360
  343MOL0     H46244   5.499   1.578   1.204  5.1547  0.9625  0.5066
  343MOL0     H46245   5.383   1.705   1.245 -0.0087 -2.1498  1.5465
  343MOL0     H46246   5.391   1.789   1.011  0.0296  0.3760 -0.8364
  343MOL0     H46247   5.526   1.670   0.980  1.7767  0.2306  1.6865
  343MOL0     H46248   5.254   1.583   1.075  0.1656  2.6690 -0.5220
  343MOL0     H46249   5.278   1.600   0.902  0.9802 -3.2944 -0.9681
  343MOL0     H46250   5.449   1.419   1.075  0.1830  0.4509  0.7823
  343MOL0     H46251   5.329   1.361   0.961 -0.0799  0.0899  0.3535
  343MOL0     H46252   5.483   1.533   0.797 -1.5275 -1.7966 -2.3894
  343MOL0     H46253   5.601   1.448   0.902 -0.8195  0.2463  1.8377
  343MOL0     H46254   5.384   1.314   0.731  1.4924  0.5240 -2.5155
  343MOL0     H46255   5.473   1.239   0.869  0.8580 -0.1312 -0.4910
  343MOL0     H46256   5.682   1.488   0.661  3.2587 -0.6958  0.2762
  343MOL0     H46257   5.959   1.330   0.545 -0.0097 -1.4383 -0.7756
  343MOL0     H46258   5.881   1.276   0.403 -0.5700 -1.0319  1.3940
  343MOL0     H46259   5.948   1.518   0.380 -1.2308 -0.6500 -1.7168
  343MOL0     H46260   5.838   1.566   0.514 -1.5623 -0.3194  0.1697
  343MOL0     H46261   5.658   1.431   0.359 -2.0517  2.0159 -1.8157
  343MOL0     H46262   5.786   1.450   0.237 -1.4734 -1.9982  0.0349
  343MOL0     H46263   5.754   1.690   0.264 -0.5598  1.6577  2.1843
  343MOL0     H46264   5.625   1.650   0.398 -1.4026 -2.9554  1.0387
  343MOL0     H46265   5.602   1.883   0.194 -0.0345 -0.6050 -1.7947
  343MOL0     H46266   5.538   2.099   0.259  1.6673  1.0614 -2.8705
  343MOL0     H46267   5.494   2.096   0.087  1.5173  3.5524  1.0149
  343MOL0     H46268   5.376   2.141   0.221  1.2806 -0.2919  4.0097
  343MOL0     H46269   5.048   2.267  -0.010 -1.8670 -1.6399 -0.1565
  343MOL0     H46270   4.905   2.447   0.046 -1.4113 -0.3714  0.2164
  343MOL0     H46271   4.647   2.398   0.393  0.8064 -0.1657  0.2251
  343MOL0     H46272   4.760   2.500   0.477  0.2909 -2.6478  0.5301
  343MOL0     H46273   4.517   2.582   0.447 -1.5761  1.6186 -0.4884
  343MOL0     H46274   4.633   2.692   0.385 -1.1120 -0.2432  0.7341
  343MOL0     H46275   4.408   2.610   0.238 -0.2524  1.7359 -0.3910
  343MOL0     H46276   4.534   2.504   0.174  1.9518 -0.4588  1.0468
  343MOL0     H46277   4.549   2.801   0.175  0.4500 -0.5098  1.8370
  343MOL0     H46278   4.690   2.703   0.142  0.6910  0.0696  0.4289
  343MOL0     H46279   4.581   2.791  -0.049  1.9993 -0.8038 -0.6764
  343MOL0     H46280   4.450   2.678  -0.032 -0.0901  4.3215 -0.0067
  343MOL0     H46281   4.745   2.617  -0.105 -0.0946 -0.2559  0.2450
  343MOL0     H46282   4.642   2.495  -0.020  2.4794  0.7897  1.3249
  343MOL0     H46283   4.488   2.508  -0.212 -0.5096  0.1093  2.3123
  343MOL0     H46284   4.651   2.460  -0.249 -1.9738 -1.1751 -0.5513
  343MOL0     H46285   4.708   2.676  -0.349 -0.0597 -1.1186  1.3218
  343MOL0     H46286   4.592   2.768  -0.268 -0.4444 -1.6398  2.1387
  343MOL0     H46287   4.904   2.337   0.458  1.5965  3.4691  0.9705
  343MOL0     H46288   5.077   2.174   0.413 -0.6786 -0.8850 -1.7627
  343MOL0     H46289   5.150   1.718   0.219  0.5020 -1.3689 -0.2749
  343MOL0     H46290   5.331   1.557   0.200  1.4617 -1.1160 -0.4270
  343MOL0     H46291   5.933   1.573   1.280 -0.2297 -0.7759  0.7307
  343MOL0     H46292   6.168   1.541   1.257  3.2348  1.4172 -1.7761
  343MOL0     H46293   6.508   1.405   1.183  1.5415 -0.5306  0.7578
  343MOL0     H46294   6.721   1.307   1.203  1.3800 -0.5224 -0.6622
  343MOL0     H46295   7.009   1.352   1.182  0.3428 -0.7531  0.3473
  343MOL0     H46296   6.922   1.205   1.195  0.1221 -0.5261 -0.2079
  343MOL0     H46297   7.102   1.073   1.094  2.7669  0.0845  2.8027
  343MOL0     H46298   7.185   1.170   1.196  0.3614 -2.4206  0.4040
  343MOL0     H46299   7.216   1.332   0.993 -1.4269  0.7952  1.7380
  343MOL0     H46300   7.176   1.178   0.902 -0.3681 -0.0791  0.8747
  343MOL0     H46301   7.408   1.223   1.105 -0.8287  0.6278 -0.3438
  343MOL0     H46302   7.421   1.198   0.934  0.2636  1.6541  1.2787
  343MOL0     H46303   7.394   0.815   1.113 -0.3564 -2.1953 -3.6067
  343MOL0     H46304   6.844   1.447   0.827  0.8765 -0.1984  0.8306
  343MOL0     H46305   6.617   1.548   0.786  2.2082 -0.9435 -1.2882
  344MOL0     O46306   7.264  10.027   0.848 -0.5910  0.6947  0.6433
  344MOL0     C46307   7.280  10.148   0.848 -0.3912  1.1237 -0.1149
  344MOL0     O46308   7.200  10.240   0.803 -0.3805 -0.0452 -0.3579
  344MOL0     C46309   7.072  10.196   0.779  0.1233 -0.2722  0.5124
  344MOL0     C46310   7.039  10.122   0.668  0.0235  0.7845  0.0773
  344MOL0     C46311   6.903  10.077   0.661  0.2868  0.1263  0.0451
  344MOL0     C46312   6.796  10.117   0.750  0.9212 -0.6286  0.6001
  344MOL0     O46313   6.669  10.071   0.722 -0.2131  0.1290  0.0507
  344MOL0     C46314   6.562  10.132   0.794  0.3623  0.3097  0.9070
  344MOL0     C46315   6.427  10.057   0.771 -0.9649 -0.0198 -0.0436
  344MOL0     C46316   6.370  10.091   0.638  0.8881  0.0645  1.1326
  344MOL0     C46317   6.242  10.019   0.625 -1.2262 -0.4061  0.4951
  344MOL0     C46318   6.166  10.065   0.493  0.3742 -0.6642 -0.0481
  344MOL0     C46319   6.031   9.987   0.494  0.0889  0.1422 -0.1525
  344MOL0     C46320   5.937  10.048   0.387 -0.1821 -0.2052  0.1348
  344MOL0     C46321   5.816   9.950   0.368 -0.5205 -0.4897  0.0322
  344MOL0     N46322   5.742   9.981   0.243 -1.1261 -1.2860 -0.7051
  344MOL0     C46323   5.796   9.970   0.118 -0.0255  0.3642 -0.3140
  344MOL0     C46324   5.692   9.995   0.038  1.1498 -0.2070 -0.0329
  344MOL0     C46325   5.693   9.968  -0.117  0.2637  1.0432  0.3445
  344MOL0     C46326   5.621   9.830  -0.126 -0.0930 -0.0846 -0.2014
  344MOL0     C46327   5.590   9.788  -0.271 -0.3441  0.0033 -0.1123
  344MOL0     C46328   5.467   9.850  -0.333  0.2146 -0.7613  0.8278
  344MOL0     O46329   5.359   9.820  -0.249 -0.0525  0.7549 -0.5513
  344MOL0     C46330   5.233   9.854  -0.292 -0.5221  0.4216  0.8458
  344MOL0     C46331   5.151   9.912  -0.203 -0.3467  0.6716 -0.1653
  344MOL0     C46332   5.018   9.949  -0.244 -0.3756 -0.0553 -1.0940
  344MOL0     C46333   4.927   9.998  -0.133  0.2578  0.8580  0.1918
  344MOL0     C46334   4.967   9.927  -0.376 -0.3229  0.7544 -0.5800
  344MOL0     C46335   4.833   9.965  -0.436 -0.4312 -0.6677  0.3870
  344MOL0     O46336   4.836   9.987  -0.577  0.9444 -0.7353  0.8175
  344MOL0     C46337   4.734   9.943  -0.655 -0.7514  1.0792 -0.3452
  344MOL0     C46338   4.599   9.953  -0.620 -0.4251 -0.2140  0.2718
  344MOL0     C46339   4.501   9.906  -0.709 -0.4804 -0.2167  0.0319
  344MOL0     C46340   4.538   9.849  -0.837  0.5530  0.2986 -0.3768
  344MOL0     O46341   4.426   9.799  -0.913 -0.0360  0.1091 -0.1485
  344MOL0     C46342   4.463   9.698  -1.017 -0.0068 -1.1416  0.0597
  344MOL0     C46343   4.348   9.613  -1.066 -0.2207  0.1823 -0.3489
  344MOL0     C46344   4.237   9.693  -1.141 -0.1932  0.7040  0.0250
  344MOL0     C46345   4.117   9.603  -1.170 -0.0590  0.5108 -0.6949
  344MOL0     C46346   4.019   9.609  -1.057 -0.0977 -0.4457  0.3818
  344MOL0     C46347   3.912   9.502  -1.078 -0.5984  0.2843 -0.5722
  344MOL0     C46348   3.827   9.526  -1.208 -1.0977  0.2227 -0.6732
  344MOL0     C46349   3.693   9.442  -1.196  1.0400  0.2897  0.3903
  344MOL0    Cl46350   3.580   9.521  -1.086  0.3771  0.3349 -0.3907
  344MOL0     C46351   4.669   9.851  -0.870 -1.1827  0.1053  0.1102
  344MOL0     C46352   4.769   9.891  -0.786  0.1428 -0.1667 -0.5754
  344MOL0     O46353   4.731   9.946  -0.368 -0.4213  0.1306 -0.2671
  344MOL0     C46354   5.060   9.870  -0.468 -0.4733 -0.0222  0.8937
  344MOL0     C46355   5.182   9.837  -0.427 -0.0720  0.0293 -0.0792
  344MOL0     N46356   5.584  10.026   0.116  0.5461 -0.7250 -0.1862
  344MOL0     N46357   5.611  10.011   0.240 -0.4174 -0.1937  0.1425
  344MOL0     C46358   6.832  10.206   0.851 -0.2997  0.6599  0.8253
  344MOL0     C46359   6.967  10.242   0.866  0.2541 -0.3524 -0.4494
  344MOL0     C46360   7.418  10.185   0.892  0.2380 -0.2826  0.3207
  344MOL0     C46361   7.449  10.322   0.941 -0.5512 -0.2247  0.9002
  344MOL0     C46362   7.574  10.369   0.960 -0.0566 -0.2642 -0.2393
  344MOL0     C46363   7.684  10.287   0.929  0.8038 -0.1068 -0.4277
  344MOL0     O46364   7.801  10.351   0.958 -0.1279 -0.3918 -0.4876
  344MOL0     C46365   7.933  10.294   0.929  1.0405  1.0705  0.2429
  344MOL0     C46366   8.043  10.398   0.903 -0.2393  0.4496 -0.4252
  344MOL0     C46367   8.179  10.320   0.889  1.2623  0.5319  1.4686
  344MOL0     C46368   8.240  10.282   1.022  0.5344  0.0268 -0.5107
  344MOL0     C46369   8.374  10.221   1.001  0.5168  0.3374  0.4465
  344MOL0     C46370   8.484  10.170   0.969  0.1908  0.0726 -0.3639
  344MOL0     C46371   7.661  10.158   0.880  0.5587 -0.0561  0.3097
  344MOL0     C46372   7.533  10.110   0.863  0.3612 -0.3756  0.0871
  344MOL0     H46373   7.116  10.089   0.599 -0.3843 -0.1698  0.0559
  344MOL0     H46374   6.867  10.016   0.579  3.6228 -1.1383 -0.6385
  344MOL0     H46375   6.577  10.118   0.902 -0.6192  0.8806  1.1343
  344MOL0     H46376   6.562  10.238   0.768 -1.6508  0.1103 -0.1507
  344MOL0     H46377   6.447   9.950   0.785 -1.2108 -0.0664 -0.0356
  344MOL0     H46378   6.352  10.082   0.847  0.1922  2.1650  0.4379
  344MOL0     H46379   6.344  10.197   0.634 -1.0245 -0.4135 -1.0607
  344MOL0     H46380   6.439  10.067   0.556  1.0295  1.2454  0.8814
  344MOL0     H46381   6.253   9.911   0.625 -0.7727 -0.3854 -1.3072
  344MOL0     H46382   6.174  10.043   0.708  0.2994  3.0059  0.9539
  344MOL0     H46383   6.152  10.174   0.485  3.4616 -0.0295  1.6453
  344MOL0     H46384   6.222  10.038   0.403  0.7313 -1.3867  0.3863
  344MOL0     H46385   6.049   9.880   0.482  0.4909  0.1235  0.5720
  344MOL0     H46386   5.979   9.993   0.590  2.0531 -2.8126  1.2426
  344MOL0     H46387   5.902  10.147   0.416  0.1986 -0.3380  1.1156
  344MOL0     H46388   5.991  10.042   0.292  2.9813 -1.6441  1.8439
  344MOL0     H46389   5.755   9.957   0.459  1.4281  1.7505  1.2760
  344MOL0     H46390   5.855   9.847   0.369  1.6930  0.2975 -0.8520
  344MOL0     H46391   5.901   9.953   0.097  0.4956  2.2973  0.4567
  344MOL0     H46392   5.635  10.042  -0.172 -0.8197  1.4439  1.9301
  344MOL0     H46393   5.792   9.963  -0.162 -0.4032  2.0982 -1.3068
  344MOL0     H46394   5.534   9.828  -0.060  0.5242 -1.5733  0.6200
  344MOL0     H46395   5.692   9.755  -0.088 -0.0422  0.5506  0.9788
  344MOL0     H46396   5.567   9.681  -0.268  1.7245 -0.4690  1.6449
  344MOL0     H46397   5.682   9.808  -0.328  1.0793 -2.3505  1.1774
  344MOL0     H46398   5.456   9.808  -0.433  2.1466 -0.8910  0.6233
  344MOL0     H46399   5.477   9.959  -0.338 -2.2315 -0.5092  0.2190
  344MOL0     H46400   5.180   9.908  -0.098 -3.4424  3.0496  0.9374
  344MOL0     H46401   4.844  10.053  -0.179  0.9073  1.0383 -0.8168
  344MOL0     H46402   4.886   9.923  -0.066  2.4982  0.2799  0.9887
  344MOL0     H46403   4.987  10.065  -0.070 -0.2235  3.7300 -2.1420
  344MOL0     H46404   4.563  10.006  -0.532 -0.0176  0.9349 -0.2323
  344MOL0     H46405   4.397   9.923  -0.682 -1.2628 -3.4758 -0.4320
  344MOL0     H46406   4.516   9.753  -1.094  1.7358  0.5692  2.3266
  344MOL0     H46407   4.538   9.631  -0.972  1.1036  0.4119  0.5979
  344MOL0     H46408   4.385   9.539  -1.138  0.1615  0.1684 -0.1346
  344MOL0     H46409   4.307   9.551  -0.986 -1.4061  0.7469 -0.4973
  344MOL0     H46410   4.285   9.720  -1.235  0.5828  0.2818  0.2880
  344MOL0     H46411   4.195   9.777  -1.086 -2.1551 -0.2764  0.0937
  344MOL0     H46412   4.068   9.641  -1.261  0.7794  2.5499 -0.3644
  344MOL0     H46413   4.146   9.498  -1.180 -0.1575  0.3121  0.9587
  344MOL0     H46414   3.970   9.706  -1.049 -0.8575 -0.9101  1.8601
  344MOL0     H46415   4.075   9.586  -0.965  2.1761 -1.9376 -1.2530
  344MOL0     H46416   3.963   9.405  -1.081 -1.1760 -0.0554  0.0976
  344MOL0     H46417   3.848   9.491  -0.990 -1.8799  1.0523 -1.3784
  344MOL0     H46418   3.888   9.489  -1.291 -1.3063 -0.7243 -0.4168
  344MOL0     H46419   3.795   9.631  -1.211 -1.4799  0.2079  1.6326
  344MOL0     H46420   3.733   9.350  -1.153  1.7793  1.6473  2.7415
  344MOL0     H46421   3.647   9.431  -1.295 -2.2372  0.5688  1.7710
  344MOL0     H46422   4.700   9.798  -0.960  1.9984 -0.0268  1.1719
  344MOL0     H46423   4.875   9.889  -0.811  0.5047 -1.2596  0.9145
  344MOL0     H46424   5.021   9.856  -0.569 -1.5091  1.6006  1.0292
  344MOL0     H46425   5.252   9.793  -0.498 -0.5897  1.5349 -1.5790
  344MOL0     H46426   6.770  10.239   0.933  0.3739  1.2555  1.1136
  344MOL0     H46427   7.002  10.298   0.952  2.3165  1.4567 -2.3344
  344MOL0     H46428   7.366  10.389   0.966  0.0871  0.1858  2.0220
  344MOL0     H46429   7.596  10.472   0.986 -0.5348 -0.1881 -0.1322
  344MOL0     H46430   7.944  10.240   1.024 -0.9298  1.9314  1.0077
  344MOL0     H46431   7.927  10.226   0.844 -0.4962  2.1541 -0.5528
  344MOL0     H46432   8.051  10.473   0.983  1.2704  0.2016 -0.3150
  344MOL0     H46433   8.016  10.450   0.811  2.4444 -0.0036 -1.5607
  344MOL0     H46434   8.249  10.376   0.825  0.7799  0.1875  0.6135
  344MOL0     H46435   8.159  10.224   0.840 -0.1535  1.2945  0.4838
  344MOL0     H46436   8.176  10.212   1.077 -0.8047  2.7774  1.7173
  344MOL0     H46437   8.245  10.374   1.080 -0.6333 -0.4860  0.4576
  344MOL0     H46438   8.573  10.129   0.925 -1.2009 -2.4980 -0.9800
  344MOL0     H46439   7.742  10.086   0.873  0.4529 -0.5348  3.0584
  344MOL0     H46440   7.523  10.006   0.835  1.8526 -0.3403 -0.6605
  345MOL0     O46441   5.840   3.961  10.192  0.2588 -0.2004 -0.0478
  345MOL0     C46442   5.807   3.844  10.205 -0.9114 -0.3122  0.0627
  345MOL0     O46443   5.701   3.798  10.275 -0.0917 -0.0350  0.0773
  345MOL0     C46444   5.606   3.893  10.315  0.3960  0.2052  0.0678
  345MOL0     C46445   5.629   4.020  10.368  0.2708  0.0329  0.1460
  345MOL0     C46446   5.522   4.107  10.407  0.0527 -0.3918  0.3776
  345MOL0     C46447   5.392   4.060  10.387  0.2337 -0.3196  1.1686
  345MOL0     O46448   5.291   4.134  10.435  0.2007  0.1950 -0.1695
  345MOL0     C46449   5.282   4.272  10.414 -0.6539  0.3397 -0.0095
  345MOL0     C46450   5.144   4.326  10.443 -0.0561  0.1112 -0.1277
  345MOL0     C46451   5.117   4.473  10.434 -0.1093 -0.6249  0.1048
  345MOL0     C46452   5.195   4.547  10.318 -0.4973 -0.5244  0.3026
  345MOL0     C46453   5.171   4.691  10.314  0.0523 -0.0205  0.0741
  345MOL0     C46454   5.210   4.748  10.184  0.2377 -0.1349 -0.2297
  345MOL0     C46455   5.357   4.771  10.156 -0.3272 -0.0319 -0.1531
  345MOL0     C46456   5.368   4.882  10.051  0.4895  0.4138  0.1756
  345MOL0     N46457   5.516   4.900  10.027  0.7145  0.0525  0.5636
  345MOL0     C46458   5.606   4.961  10.107 -0.3927 -0.9413 -0.3824
  345MOL0     C46459   5.732   4.944  10.048 -0.4455 -0.1855 -0.4210
  345MOL0     C46460   5.860   4.997  10.111 -0.1828  0.6636 -0.1791
  345MOL0     C46461   5.973   4.937  10.041  0.8708 -0.8263 -1.1224
  345MOL0     C46462   6.100   5.024  10.083 -0.4335  0.1493 -0.4008
  345MOL0     C46463   6.197   4.988   9.983  0.2046 -0.9136  0.5653
  345MOL0     O46464   6.314   5.074   9.995 -0.4740  0.2404  0.0269
  345MOL0     C46465   6.437   5.029   9.959  0.9544  0.5181 -0.2328
  345MOL0     C46466   6.542   5.108  10.001  0.6404 -0.2902 -0.8132
  345MOL0     C46467   6.677   5.087   9.972 -0.6912 -0.1283  1.3109
  345MOL0     C46468   6.771   5.195  10.021  0.8726  0.7955 -0.1356
  345MOL0     C46469   6.705   4.972   9.891 -0.3238  0.3025 -0.0163
  345MOL0     C46470   6.851   4.938   9.866  0.9360 -0.1280  0.6817
  345MOL0     O46471   6.945   5.025   9.900 -0.2590  0.1932  0.2497
  345MOL0     C46472   7.059   5.040   9.829  0.1680 -0.2193 -0.0264
  345MOL0     C46473   7.165   5.110   9.887  0.2925 -0.9159  0.4622
  345MOL0     C46474   7.290   5.130   9.826 -1.0547  0.2443  0.2148
  345MOL0     C46475   7.315   5.075   9.703 -0.1319 -0.6839  0.0679
  345MOL0     O46476   7.434   5.072   9.634  0.3110 -0.0792 -0.1852
  345MOL0     C46477   7.517   5.196   9.654  1.4272 -0.0467  0.2827
  345MOL0     C46478   7.619   5.195   9.769  0.2421  1.1230 -0.1061
  345MOL0     C46479   7.653   5.332   9.831 -0.3922 -0.3550 -0.5838
  345MOL0     C46480   7.769   5.335   9.929  0.1078 -0.4190 -0.4154
  345MOL0     C46481   7.796   5.477   9.971  0.1805 -0.6967  0.7750
  345MOL0     C46482   7.876   5.566   9.865 -0.3864 -0.5504 -0.2716
  345MOL0     C46483   7.909   5.716   9.900  0.0738  0.6639  0.3952
  345MOL0     C46484   7.993   5.784   9.795 -0.3935 -0.1933 -0.3668
  345MOL0    Cl46485   7.916   5.807   9.630 -0.2170  0.2131  0.2433
  345MOL0     C46486   7.211   5.005   9.635  0.8297  0.0259  0.1105
  345MOL0     C46487   7.080   5.003   9.696 -1.4155  0.6186  0.9068
  345MOL0     O46488   6.876   4.829   9.804 -0.2253  0.2437  0.2392
  345MOL0     C46489   6.598   4.890   9.846 -0.4877 -0.3915 -0.4781
  345MOL0     C46490   6.465   4.922   9.880  0.6448 -0.4015 -0.1272
  345MOL0     N46491   5.715   4.859   9.938 -0.2281  0.1155 -0.0380
  345MOL0     N46492   5.591   4.838   9.928  0.7032  0.1624 -1.1618
  345MOL0     C46493   5.368   3.933  10.324 -0.0994  0.0141 -0.0869
  345MOL0     C46494   5.479   3.848  10.284  0.7541  0.8383 -0.6913
  345MOL0     C46495   5.875   3.746  10.125  0.5531  0.4577 -1.1739
  345MOL0     C46496   5.987   3.780  10.043 -0.5062 -0.0574 -0.6532
  345MOL0     C46497   6.048   3.676   9.975 -0.0571  0.0995  0.7397
  345MOL0     C46498   6.003   3.544   9.979  0.1616  0.4083  0.1384
  345MOL0     O46499   6.053   3.436   9.905 -0.2880 -0.7213 -0.1895
  345MOL0     C46500   6.181   3.449   9.848 -0.1222  0.2189 -0.5285
  345MOL0     C46501   6.235   3.325   9.785  0.0253  0.7942 -0.2403
  345MOL0     C46502   6.382   3.339   9.754 -0.2444 -0.5397 -1.2639
  345MOL0     C46503   6.453   3.209   9.746 -0.1063  0.0986  0.4605
  345MOL0     C46504   6.397   3.113   9.652 -0.5337  0.4896  0.2342
  345MOL0     C46505   6.371   3.034   9.571  0.5798  0.0306 -0.2008
  345MOL0     C46506   5.882   3.517  10.041  0.2305  0.2452  0.6990
  345MOL0     C46507   5.826   3.610  10.117  0.8421 -0.2849  0.2298
  345MOL0     H46508   5.733   4.042  10.390  0.6603  0.9018 -2.2659
  345MOL0     H46509   5.533   4.206  10.452 -1.7085 -0.5460  1.2430
  345MOL0     H46510   5.353   4.329  10.475  0.8058 -1.4072  0.0107
  345MOL0     H46511   5.299   4.287  10.307  0.0518 -0.8918 -0.0837
  345MOL0     H46512   5.073   4.277  10.376  0.4655  0.3429 -0.8705
  345MOL0     H46513   5.111   4.300  10.544  2.0469 -1.9095  0.1304
  345MOL0     H46514   5.012   4.496  10.414  0.6632  4.5764  0.5613
  345MOL0     H46515   5.142   4.520  10.529  1.1832  4.3213 -2.3273
  345MOL0     H46516   5.301   4.523  10.329 -0.5319 -2.1342 -2.0561
  345MOL0     H46517   5.162   4.496  10.226 -1.4279 -2.5870  1.6983
  345MOL0     H46518   5.063   4.701  10.327 -0.1055 -2.0031  0.5113
  345MOL0     H46519   5.224   4.746  10.393  0.2713  0.1211 -0.1681
  345MOL0     H46520   5.174   4.697  10.095 -1.9636  3.4193 -1.5977
  345MOL0     H46521   5.175   4.852  10.181  2.9751  0.8785 -0.5371
  345MOL0     H46522   5.390   4.823  10.247  0.6990 -0.5910 -0.1938
  345MOL0     H46523   5.411   4.678  10.136 -0.2086 -0.4557  1.9330
  345MOL0     H46524   5.323   4.978  10.080  0.1181  0.5866 -0.9380
  345MOL0     H46525   5.326   4.841   9.959  0.3821 -0.0658  0.4377
  345MOL0     H46526   5.591   5.010  10.203 -1.8806 -1.7548 -0.1828
  345MOL0     H46527   5.860   5.105  10.092 -2.5259  0.8288  0.4254
  345MOL0     H46528   5.860   4.968  10.216 -1.6986  0.4604 -0.2113
  345MOL0     H46529   5.974   4.935   9.932  1.4142  1.5751 -1.2228
  345MOL0     H46530   5.987   4.834  10.077 -2.1295 -0.7252  0.6338
  345MOL0     H46531   6.137   4.977  10.175 -0.0500 -0.7685 -1.0104
  345MOL0     H46532   6.086   5.131  10.099 -0.9478 -0.0516  0.6028
  345MOL0     H46533   6.152   5.011   9.886  0.1121  0.0958  0.8402
  345MOL0     H46534   6.225   4.885  10.004  3.0409  0.0742  2.0777
  345MOL0     H46535   6.521   5.197  10.058  2.7114 -0.7775  0.8524
  345MOL0     H46536   6.845   5.146  10.085  0.4104 -2.1763 -1.6932
  345MOL0     H46537   6.813   5.238   9.930 -2.9641  3.7703 -0.7515
  345MOL0     H46538   6.725   5.276  10.078  2.2983 -0.2368  2.7239
  345MOL0     H46539   7.141   5.138   9.989  0.9862 -1.7931  0.8831
  345MOL0     H46540   7.362   5.172   9.895  0.7950 -1.5297 -0.5194
  345MOL0     H46541   7.566   5.208   9.557 -0.6747 -2.1062 -1.1424
  345MOL0     H46542   7.456   5.285   9.671 -1.0669 -1.5582 -0.2829
  345MOL0     H46543   7.573   5.137   9.850  0.1106 -1.5016 -1.9409
  345MOL0     H46544   7.712   5.145   9.743 -0.2321  1.1145 -1.9124
  345MOL0     H46545   7.565   5.377   9.877  0.4178  1.3896 -0.6788
  345MOL0     H46546   7.672   5.392   9.742  1.3316 -0.0663 -0.0545
  345MOL0     H46547   7.742   5.279  10.019 -0.6224  2.6345  1.3708
  345MOL0     H46548   7.859   5.288   9.887 -0.0638 -1.7256  0.6240
  345MOL0     H46549   7.865   5.477  10.056  2.2151  1.6906 -0.7338
  345MOL0     H46550   7.701   5.524   9.998 -1.4299 -0.8910 -3.7351
  345MOL0     H46551   7.971   5.516   9.845 -1.8153 -4.8313  2.4208
  345MOL0     H46552   7.813   5.563   9.776 -0.9049  2.5227 -0.1507
  345MOL0     H46553   7.958   5.705   9.997  0.5844  0.9075  0.1667
  345MOL0     H46554   7.813   5.767   9.911 -0.6860 -0.6809  0.2321
  345MOL0     H46555   8.074   5.711   9.796 -1.7482 -1.7934  1.9258
  345MOL0     H46556   8.034   5.881   9.825 -1.7235  0.5706 -0.9333
  345MOL0     H46557   7.233   4.955   9.542 -0.7630 -1.5016  0.5127
  345MOL0     H46558   7.011   4.951   9.630  0.0141 -1.4047  0.8987
  345MOL0     H46559   6.625   4.808   9.779  3.6705  1.0071 -0.8179
  345MOL0     H46560   6.381   4.874   9.831 -0.5913  2.4530 -1.0163
  345MOL0     H46561   5.268   3.894  10.305  0.9201 -1.2355 -3.7769
  345MOL0     H46562   5.477   3.743  10.254  2.8829  0.6406 -0.3281
  345MOL0     H46563   6.024   3.882  10.034  0.1395 -0.3487 -1.4249
  345MOL0     H46564   6.127   3.707   9.906 -0.5395 -2.0273 -0.8760
  345MOL0     H46565   6.181   3.525   9.769 -3.6593 -0.5694 -1.4954
  345MOL0     H46566   6.231   3.476   9.941 -1.7351 -0.1440  0.4807
  345MOL0     H46567   6.191   3.306   9.687  0.6932 -2.3748 -0.0094
  345MOL0     H46568   6.226   3.245   9.858 -0.6273  1.3126  0.2593
  345MOL0     H46569   6.435   3.412   9.816  1.5817 -0.5455 -2.7437
  345MOL0     H46570   6.391   3.392   9.659  0.5902  0.8682 -0.4280
  345MOL0     H46571   6.460   3.153   9.839  2.9565 -0.9709 -0.3107
  345MOL0     H46572   6.560   3.214   9.723 -0.0883 -4.4849 -1.5598
  345MOL0     H46573   6.358   2.951   9.505 -3.5281  1.1173 -1.0590
  345MOL0     H46574   5.852   3.413  10.036 -1.6847  0.6341  2.6534
  345MOL0     H46575   5.741   3.578  10.176  0.6901 -0.3164 -0.0059
  346MOL0     O46576   7.250   7.473   6.135 -0.0137 -0.6681  0.0341
  346MOL0     C46577   7.298   7.525   6.238 -0.2153  0.6386 -0.0057
  346MOL0     O46578   7.243   7.547   6.356  0.2146 -0.1799  0.1744
  346MOL0     C46579   7.107   7.540   6.373  0.3671 -1.1903 -0.0145
  346MOL0     C46580   7.054   7.572   6.501 -0.7952 -0.0740  0.3973
  346MOL0     C46581   6.926   7.558   6.544  0.2495  0.2675  0.5573
  346MOL0     C46582   6.834   7.504   6.454 -0.7607  0.1925 -1.0748
  346MOL0     O46583   6.697   7.479   6.482  0.2359  0.1588  0.1249
  346MOL0     C46584   6.662   7.430   6.609 -0.4870 -0.7414 -0.5687
  346MOL0     C46585   6.654   7.272   6.598  0.0166  0.5964 -0.1092
  346MOL0     C46586   6.641   7.193   6.719  0.4793 -0.1547 -0.7823
  346MOL0     C46587   6.514   7.104   6.722 -1.3831 -0.1019  1.1361
  346MOL0     C46588   6.392   7.195   6.776 -0.5829  0.0240  0.4986
  346MOL0     C46589   6.381   7.193   6.934  0.4952  0.0869  0.0005
  346MOL0     C46590   6.285   7.291   6.999 -0.4155  0.3721 -0.6969
  346MOL0     C46591   6.300   7.444   6.961  0.4153 -0.3218 -0.3447
  346MOL0     N46592   6.205   7.524   7.038  1.0701  0.6561  0.4077
  346MOL0     C46593   6.067   7.539   6.999 -0.6963 -0.0353  0.8035
  346MOL0     C46594   6.021   7.616   7.104  0.2988 -0.4373  0.7045
  346MOL0     C46595   5.869   7.650   7.104  0.2824  0.4462  0.5094
  346MOL0     C46596   5.778   7.536   7.154 -0.0793  0.4243  0.8890
  346MOL0     C46597   5.628   7.575   7.142 -0.0118  0.2912  0.0765
  346MOL0     C46598   5.542   7.497   7.229  0.3286  0.2768 -0.1468
  346MOL0     O46599   5.416   7.569   7.209 -0.1071 -0.7854 -0.0282
  346MOL0     C46600   5.314   7.533   7.293  0.5627  0.1631  0.0488
  346MOL0     C46601   5.327   7.441   7.406  0.2774  0.7168  0.7178
  346MOL0     C46602   5.221   7.414   7.491  0.2458 -0.6129  0.6901
  346MOL0     C46603   5.246   7.310   7.601  0.1916 -0.1672  0.1190
  346MOL0     C46604   5.097   7.470   7.472 -0.3875 -1.3035 -0.3039
  346MOL0     C46605   4.972   7.427   7.534 -0.2453 -0.4586  0.5505
  346MOL0     O46606   4.977   7.343   7.648  0.7067  0.1590 -0.5984
  346MOL0     C46607   4.856   7.285   7.687 -0.4894 -0.0696  0.7477
  346MOL0     C46608   4.790   7.344   7.793  0.7084  0.3399  0.1187
  346MOL0     C46609   4.674   7.285   7.844 -0.1999  0.3803  0.6711
  346MOL0     C46610   4.626   7.163   7.786 -0.3915  0.7269 -0.1900
  346MOL0     O46611   4.519   7.098   7.844 -0.0543 -0.1140 -0.5253
  346MOL0     C46612   4.464   6.976   7.797 -0.3153  0.2777 -0.7360
  346MOL0     C46613   4.321   6.951   7.854  0.2171  0.3267 -0.7905
  346MOL0     C46614   4.273   6.799   7.843  0.2415 -0.2069  0.3087
  346MOL0     C46615   4.128   6.780   7.805 -0.4207  0.2112  0.6207
  346MOL0     C46616   4.099   6.632   7.754  0.4283 -0.2227  0.1454
  346MOL0     C46617   3.954   6.610   7.706 -0.3286 -0.1856  0.1400
  346MOL0     C46618   3.935   6.462   7.672 -0.4729 -0.6509 -0.9332
  346MOL0     C46619   3.802   6.433   7.603 -0.3177 -0.0011  1.1121
  346MOL0    Cl46620   3.805   6.523   7.445  0.0515  0.9159  0.0875
  346MOL0     C46621   4.687   7.120   7.660  0.0686  0.4289  0.5299
  346MOL0     C46622   4.809   7.171   7.624 -0.0494 -0.4778  0.4187
  346MOL0     O46623   4.865   7.459   7.481 -0.0451 -0.3556  0.5007
  346MOL0     C46624   5.087   7.563   7.374 -0.4551 -0.0863  0.9236
  346MOL0     C46625   5.185   7.587   7.276  0.8305  0.6553 -0.5060
  346MOL0     N46626   6.125   7.648   7.197  0.3792 -0.8870  0.5633
  346MOL0     N46627   6.230   7.596   7.151  0.0203  0.3930 -0.6449
  346MOL0     C46628   6.876   7.470   6.322  0.2256 -0.5735 -0.7431
  346MOL0     C46629   7.010   7.479   6.286 -0.1761 -0.0667 -0.4611
  346MOL0     C46630   7.448   7.557   6.236 -0.2592  0.5767 -0.3807
  346MOL0     C46631   7.515   7.571   6.121 -0.3170 -0.5782  0.1610
  346MOL0     C46632   7.647   7.615   6.129 -0.9222 -0.3021  0.2791
  346MOL0     C46633   7.725   7.625   6.248  0.3346  0.0480  1.1119
  346MOL0     O46634   7.863   7.647   6.248  0.5379 -0.4802  0.2317
  346MOL0     C46635   7.940   7.661   6.127 -0.6518  1.0782 -0.7927
  346MOL0     C46636   8.074   7.593   6.145 -0.6248 -1.0653 -0.3706
  346MOL0     C46637   8.176   7.691   6.194  0.2893 -0.2141  0.3102
  346MOL0     C46638   8.316   7.622   6.236  0.8783  0.6652  1.0253
  346MOL0     C46639   8.401   7.694   6.336  0.6808  0.5566 -0.3121
  346MOL0     C46640   8.464   7.747   6.424  0.1801 -0.4355 -0.1006
  346MOL0     C46641   7.658   7.600   6.369  1.5056 -0.0480 -0.4192
  346MOL0     C46642   7.519   7.576   6.359 -0.4848  0.0102 -0.8608
  346MOL0     H46643   7.114   7.624   6.575 -1.5230  4.2580 -1.7464
  346MOL0     H46644   6.903   7.587   6.646  0.2370  1.3471  0.2592
  346MOL0     H46645   6.732   7.458   6.688 -0.3797 -1.2392 -0.4806
  346MOL0     H46646   6.566   7.468   6.644  0.5497  1.3160  0.2026
  346MOL0     H46647   6.579   7.238   6.526  2.3540 -3.5698 -0.8652
  346MOL0     H46648   6.741   7.239   6.540  0.5815 -1.4240  1.7612
  346MOL0     H46649   6.724   7.123   6.729 -0.5749 -1.1672  1.5353
  346MOL0     H46650   6.631   7.264   6.801 -0.9630  0.3521 -1.3647
  346MOL0     H46651   6.492   7.053   6.628  2.4099 -1.0607  0.6367
  346MOL0     H46652   6.535   7.010   6.773 -0.9203 -3.1155 -3.9892
  346MOL0     H46653   6.407   7.296   6.738  1.5278  0.9022  3.3109
  346MOL0     H46654   6.297   7.155   6.738  0.7561 -0.3249 -2.8746
  346MOL0     H46655   6.358   7.093   6.973 -3.5789  1.6477  2.1815
  346MOL0     H46656   6.477   7.233   6.967  0.1437  1.0924 -0.1896
  346MOL0     H46657   6.182   7.256   6.984 -0.3240  0.0184 -0.5050
  346MOL0     H46658   6.298   7.279   7.107 -1.1546  0.7878 -0.5566
  346MOL0     H46659   6.274   7.471   6.858 -2.0968  1.1099  0.5538
  346MOL0     H46660   6.404   7.473   6.976  0.0560 -0.4508  3.5121
  346MOL0     H46661   6.010   7.502   6.914  0.4164  2.4415 -1.1646
  346MOL0     H46662   5.840   7.734   7.168 -0.3275  2.5690 -2.3812
  346MOL0     H46663   5.832   7.690   7.009  1.1070  3.0076  1.2047
  346MOL0     H46664   5.792   7.513   7.260 -2.9868  2.3736  1.8227
  346MOL0     H46665   5.793   7.451   7.086 -0.7683 -0.3029  1.6219
  346MOL0     H46666   5.601   7.568   7.036  1.9163 -0.3034 -0.4000
  346MOL0     H46667   5.608   7.675   7.182 -2.3670  0.6867 -1.8446
  346MOL0     H46668   5.571   7.510   7.334  1.3966 -1.6978 -0.1414
  346MOL0     H46669   5.536   7.388   7.216  3.1160 -0.2601  2.0297
  346MOL0     H46670   5.420   7.384   7.409  1.5302  2.5983 -0.4482
  346MOL0     H46671   5.350   7.276   7.603 -0.0303 -0.9007 -0.2771
  346MOL0     H46672   5.240   7.341   7.706  1.2864  2.0330 -0.4250
  346MOL0     H46673   5.187   7.219   7.585 -1.2843  0.9236 -0.8493
  346MOL0     H46674   4.833   7.434   7.836  2.4462 -0.0858 -0.6490
  346MOL0     H46675   4.625   7.332   7.928  0.8465  1.4319  0.7296
  346MOL0     H46676   4.450   6.990   7.689 -1.3269 -0.4022 -0.7069
  346MOL0     H46677   4.521   6.884   7.813 -0.5666  0.3852  0.9267
  346MOL0     H46678   4.313   6.975   7.961  0.3860  0.4842 -0.8135
  346MOL0     H46679   4.248   7.018   7.806 -2.1408 -2.0529 -0.7443
  346MOL0     H46680   4.274   6.747   7.938 -0.5394  0.3144  0.6126
  346MOL0     H46681   4.336   6.748   7.769  2.1263 -0.6449  2.1356
  346MOL0     H46682   4.071   6.808   7.894  0.4079 -1.7883  1.8583
  346MOL0     H46683   4.112   6.851   7.724 -1.6637 -0.6185  0.0995
  346MOL0     H46684   4.121   6.567   7.839 -0.0247  1.3500  1.5283
  346MOL0     H46685   4.163   6.606   7.670  0.8078 -0.7452  0.5862
  346MOL0     H46686   3.886   6.651   7.782 -1.4579 -0.9061 -0.4691
  346MOL0     H46687   3.929   6.666   7.616 -3.2804 -1.2939  0.1455
  346MOL0     H46688   3.927   6.406   7.766 -2.3038 -0.5160 -0.9767
  346MOL0     H46689   4.010   6.422   7.603 -0.9221 -2.0381 -0.6592
  346MOL0     H46690   3.715   6.465   7.662 -1.6393 -2.9078  0.9190
  346MOL0     H46691   3.774   6.331   7.573 -0.6833 -0.1425  1.8923
  346MOL0     H46692   4.632   7.034   7.623 -0.4416 -0.2230  2.6896
  346MOL0     H46693   4.854   7.136   7.532 -1.1108  1.7619 -1.0454
  346MOL0     H46694   4.990   7.610   7.356 -0.3604 -0.6290 -1.3700
  346MOL0     H46695   5.160   7.649   7.190 -1.3787  0.8737  0.2210
  346MOL0     H46696   6.800   7.429   6.255 -0.4756 -2.8344  1.2705
  346MOL0     H46697   7.034   7.437   6.189  1.3605 -2.2991  0.8014
  346MOL0     H46698   7.470   7.569   6.022  2.3980  1.6607 -1.2547
  346MOL0     H46699   7.694   7.629   6.032 -0.4801 -1.0300  0.3807
  346MOL0     H46700   7.886   7.624   6.039  2.1216 -1.6094 -1.5281
  346MOL0     H46701   7.969   7.765   6.111 -0.0492  1.3307  1.5589
  346MOL0     H46702   8.105   7.544   6.052 -0.8490 -1.7872 -0.0688
  346MOL0     H46703   8.065   7.515   6.221 -3.6393 -0.1809  0.3036
  346MOL0     H46704   8.130   7.746   6.277 -1.6770 -2.7204  1.0018
  346MOL0     H46705   8.193   7.759   6.110 -3.7400  0.1313 -0.4497
  346MOL0     H46706   8.376   7.605   6.146  0.4378  0.2737  0.7978
  346MOL0     H46707   8.305   7.518   6.269 -0.9574  0.3869 -0.2727
  346MOL0     H46708   8.543   7.772   6.493  1.2210 -5.1326  0.7603
  346MOL0     H46709   7.714   7.601   6.462  2.6711  0.6333 -1.1105
  346MOL0     H46710   7.460   7.568   6.450 -1.3469  0.1440 -1.3917
  347MOL0     O46711   1.244   8.012   1.411  0.7767  0.2908  0.1956
  347MOL0     C46712   1.317   7.968   1.322  0.3645 -0.1819 -0.0102
  347MOL0     O46713   1.283   7.867   1.231 -0.0202 -0.3710 -0.4140
  347MOL0     C46714   1.175   7.793   1.277  0.9713  0.7581  1.0217
  347MOL0     C46715   1.163   7.741   1.408  0.0102  0.0859  0.3240
  347MOL0     C46716   1.055   7.678   1.460  0.0065 -0.1362  0.3630
  347MOL0     C46717   0.943   7.659   1.379 -0.1185  0.4175 -0.9473
  347MOL0     O46718   0.847   7.578   1.432  0.8754 -0.2066  0.0167
  347MOL0     C46719   0.709   7.630   1.432  0.2782 -0.3948 -0.9315
  347MOL0     C46720   0.622   7.565   1.543  0.3622 -1.7109  0.2660
  347MOL0     C46721   0.628   7.642   1.680  0.4840  0.2099 -0.6720
  347MOL0     C46722   0.712   7.559   1.778  0.0287  0.8307 -0.0260
  347MOL0     C46723   0.719   7.641   1.916 -0.7935 -0.3024  0.1659
  347MOL0     C46724   0.789   7.777   1.914  0.2586  0.3971 -1.0779
  347MOL0     C46725   0.943   7.754   1.900 -0.4842 -0.3702  0.1493
  347MOL0     C46726   1.018   7.889   1.910 -0.3160 -0.0085  0.3411
  347MOL0     N46727   1.162   7.878   1.873 -0.1854 -0.5354  0.5077
  347MOL0     C46728   1.218   7.892   1.742 -0.0417 -0.3711 -0.0037
  347MOL0     C46729   1.350   7.872   1.766  0.0097 -0.2981 -0.1684
  347MOL0     C46730   1.462   7.889   1.665 -0.0040 -0.4562  0.2424
  347MOL0     C46731   1.565   7.996   1.697  0.6769 -0.0061 -0.2826
  347MOL0     C46732   1.702   7.979   1.620  0.4682  0.1292 -0.9692
  347MOL0     C46733   1.796   7.875   1.678  0.4867  0.2988 -0.3814
  347MOL0     O46734   1.916   7.912   1.600 -0.1494 -0.0653 -0.6547
  347MOL0     C46735   2.020   7.983   1.664  0.2554 -0.3725  0.5797
  347MOL0     C46736   2.150   7.976   1.612 -0.4594 -0.9067  0.1896
  347MOL0     C46737   2.258   8.041   1.674  0.2409 -1.0745 -0.5953
  347MOL0     C46738   2.392   8.033   1.600 -0.1639 -0.1298  1.2611
  347MOL0     C46739   2.239   8.123   1.786 -0.3691 -0.5542  0.3231
  347MOL0     C46740   2.338   8.206   1.862  0.1847 -0.0293  1.0384
  347MOL0     O46741   2.473   8.174   1.846 -0.7272  0.1768 -0.3253
  347MOL0     C46742   2.560   8.257   1.896  0.4881 -0.5116  0.8424
  347MOL0     C46743   2.634   8.345   1.812  0.1193  0.3662 -0.2575
  347MOL0     C46744   2.744   8.417   1.862  0.3682  0.0860  0.3737
  347MOL0     C46745   2.771   8.424   1.998 -0.3002  0.2970 -0.5082
  347MOL0     O46746   2.875   8.513   2.036  0.4798  0.1978 -0.2112
  347MOL0     C46747   2.916   8.516   2.168  0.4981  0.5185 -0.3539
  347MOL0     C46748   3.036   8.604   2.191 -0.4885  0.9675 -0.2493
  347MOL0     C46749   3.023   8.746   2.137  0.5469 -1.4350 -1.1225
  347MOL0     C46750   3.134   8.838   2.188 -0.4872  0.0281  0.1598
  347MOL0     C46751   3.277   8.813   2.132 -1.0541 -0.2939 -0.9962
  347MOL0     C46752   3.383   8.907   2.199  0.5541 -0.1862 -0.7623
  347MOL0     C46753   3.503   8.910   2.110  0.1113 -0.5019  0.1090
  347MOL0     C46754   3.605   9.013   2.152 -0.7705  0.0243  0.0227
  347MOL0    Cl46755   3.638   8.990   2.329  0.1001  0.1674 -0.0572
  347MOL0     C46756   2.690   8.343   2.085  0.6213 -0.4748  0.0316
  347MOL0     C46757   2.595   8.259   2.028 -0.8356  0.5000  0.1427
  347MOL0     O46758   2.287   8.306   1.929 -0.4992  0.9988  1.0047
  347MOL0     C46759   2.102   8.134   1.831 -0.0117  0.0413  0.1987
  347MOL0     C46760   1.999   8.075   1.767  0.9197  0.9370 -0.1469
  347MOL0     N46761   1.371   7.837   1.900  0.1465 -0.0195 -0.8901
  347MOL0     N46762   1.252   7.831   1.963  0.5514 -0.1466  0.6923
  347MOL0     C46763   0.937   7.709   1.242 -0.6534  0.3189 -0.6093
  347MOL0     C46764   1.055   7.766   1.192 -0.2228  0.3347  1.0651
  347MOL0     C46765   1.449   8.026   1.294 -0.4909 -0.2802  0.1408
  347MOL0     C46766   1.490   8.134   1.369 -0.4074 -0.4905  0.0868
  347MOL0     C46767   1.615   8.191   1.356 -0.4012 -0.5712 -0.2277
  347MOL0     C46768   1.720   8.124   1.296  0.2726 -0.6635 -0.3462
  347MOL0     O46769   1.852   8.149   1.290 -0.6291 -0.7255  0.8328
  347MOL0     C46770   1.895   8.259   1.374 -0.6963 -0.6049 -0.6431
  347MOL0     C46771   2.045   8.264   1.420  0.0035 -0.0933  0.4050
  347MOL0     C46772   2.110   8.345   1.308  0.3357 -0.7353  0.3511
  347MOL0     C46773   2.252   8.375   1.350 -0.6455 -0.2499  0.4919
  347MOL0     C46774   2.333   8.454   1.253 -0.3389  0.2302 -0.8630
  347MOL0     C46775   2.395   8.521   1.169 -0.6398  0.6853 -0.5582
  347MOL0     C46776   1.676   8.019   1.207 -0.2813  0.0652  0.2806
  347MOL0     C46777   1.545   7.974   1.205 -0.7812  0.2731  0.2036
  347MOL0     H46778   1.253   7.756   1.466  0.2375  0.0846 -0.0235
  347MOL0     H46779   1.059   7.631   1.558  2.1401 -0.0140  0.3652
  347MOL0     H46780   0.717   7.738   1.448  0.8616 -0.5327 -0.2448
  347MOL0     H46781   0.668   7.608   1.333 -1.0237  1.0707 -0.7516
  347MOL0     H46782   0.519   7.580   1.507 -0.0071  0.5460  1.9938
  347MOL0     H46783   0.649   7.460   1.557 -0.0421 -1.6491  1.7049
  347MOL0     H46784   0.656   7.747   1.663 -2.2908  1.3697  1.1762
  347MOL0     H46785   0.529   7.646   1.724  0.5889  2.1364 -0.5287
  347MOL0     H46786   0.665   7.465   1.806 -1.7138  1.8744  0.7697
  347MOL0     H46787   0.813   7.545   1.739  0.0498 -2.3015  0.9461
  347MOL0     H46788   0.619   7.652   1.960 -0.8077  0.2905 -0.0060
  347MOL0     H46789   0.786   7.580   1.978  3.6323  1.8533 -2.0222
  347MOL0     H46790   0.743   7.844   1.841 -0.6930  0.5235 -0.3751
  347MOL0     H46791   0.783   7.822   2.013  1.8319 -0.0020 -0.7687
  347MOL0     H46792   0.983   7.681   1.971  0.4670 -3.7932 -3.5286
  347MOL0     H46793   0.973   7.717   1.801 -2.1767 -0.6210 -0.2949
  347MOL0     H46794   1.005   7.915   2.016 -2.0576  1.5119 -0.1804
  347MOL0     H46795   0.963   7.968   1.856 -1.7684 -2.0733 -1.3578
  347MOL0     H46796   1.185   7.914   1.641  3.5913  1.5305 -0.9459
  347MOL0     H46797   1.510   7.791   1.660 -1.8597 -1.3665 -0.3383
  347MOL0     H46798   1.405   7.927   1.580 -2.4403  2.8716  3.0421
  347MOL0     H46799   1.579   7.999   1.805 -0.9086  1.8307 -0.0654
  347MOL0     H46800   1.529   8.097   1.673 -2.4391 -1.0260 -0.3080
  347MOL0     H46801   1.759   8.071   1.639  1.4396 -0.7085  0.3314
  347MOL0     H46802   1.679   7.939   1.521 -0.4371 -0.8535 -0.3708
  347MOL0     H46803   1.756   7.775   1.661  1.0905 -0.2391  1.2201
  347MOL0     H46804   1.809   7.888   1.786  0.1764 -0.6771 -0.2159
  347MOL0     H46805   2.165   7.908   1.529  0.6444  0.2537 -0.5967
  347MOL0     H46806   2.464   7.977   1.662 -2.3609 -1.7068  2.5484
  347MOL0     H46807   2.371   7.974   1.510 -0.4993  2.1861 -0.2397
  347MOL0     H46808   2.428   8.131   1.570  2.7659 -1.8143 -1.3834
  347MOL0     H46809   2.601   8.339   1.709  0.3745 -5.4727 -0.3105
  347MOL0     H46810   2.803   8.483   1.800  2.6205 -1.5296  0.6832
  347MOL0     H46811   2.837   8.549   2.236 -1.7605 -1.8516 -1.6694
  347MOL0     H46812   2.939   8.411   2.188  0.3050  0.9465  2.6713
  347MOL0     H46813   3.062   8.610   2.297 -3.6312  3.0080  0.5703
  347MOL0     H46814   3.117   8.548   2.144 -1.8522 -2.0547  0.7538
  347MOL0     H46815   2.929   8.789   2.174  1.4523  1.0519 -1.5215
  347MOL0     H46816   3.042   8.731   2.030  1.2569 -2.5423 -0.8528
  347MOL0     H46817   3.105   8.932   2.140  0.0667 -0.8358 -1.9882
  347MOL0     H46818   3.133   8.851   2.297  0.7494 -0.5491  0.2472
  347MOL0     H46819   3.281   8.837   2.026  1.5010  1.4359 -0.5980
  347MOL0     H46820   3.316   8.712   2.148  0.7053  0.8807  4.3823
  347MOL0     H46821   3.345   9.009   2.211  2.8535  0.4635  2.4717
  347MOL0     H46822   3.403   8.872   2.301 -0.4959  0.7493 -0.2041
  347MOL0     H46823   3.474   8.937   2.008  1.5070 -0.0098 -0.1734
  347MOL0     H46824   3.558   8.816   2.100 -1.2012 -1.2470 -0.3068
  347MOL0     H46825   3.576   9.116   2.129 -0.0332  0.4999  1.1106
  347MOL0     H46826   3.700   9.000   2.099 -0.1256  0.0732  1.1251
  347MOL0     H46827   2.712   8.342   2.192 -0.3617 -0.4018  0.2413
  347MOL0     H46828   2.535   8.192   2.088 -1.3231 -0.4348 -1.3300
  347MOL0     H46829   2.074   8.191   1.919 -3.7509 -2.8459  1.1117
  347MOL0     H46830   1.902   8.090   1.815  0.6462 -0.2050 -0.3169
  347MOL0     H46831   0.846   7.710   1.183  0.7261  2.0760 -2.8842
  347MOL0     H46832   1.045   7.798   1.089  2.6188 -3.1180 -0.4947
  347MOL0     H46833   1.425   8.184   1.440 -1.0230 -0.2594 -0.6311
  347MOL0     H46834   1.634   8.284   1.409 -0.5435 -0.2752 -0.6981
  347MOL0     H46835   1.858   8.354   1.334  1.0560  1.1796  1.7056
  347MOL0     H46836   1.837   8.243   1.465 -0.4308 -2.4465 -0.7527
  347MOL0     H46837   2.084   8.162   1.424  0.0745 -0.1797 -1.4108
  347MOL0     H46838   2.057   8.321   1.512 -4.3682 -0.1213  1.2073
  347MOL0     H46839   2.052   8.436   1.289  1.3152 -0.7177 -3.6034
  347MOL0     H46840   2.120   8.292   1.212  3.3626  1.5414 -0.7900
  347MOL0     H46841   2.297   8.280   1.379 -0.4078 -0.5466 -0.7800
  347MOL0     H46842   2.244   8.436   1.441 -1.3648 -1.9430  1.6240
  347MOL0     H46843   2.459   8.560   1.092  4.1466 -1.1420  2.0724
  347MOL0     H46844   1.750   7.977   1.140 -0.9259  1.9624 -1.7619
  347MOL0     H46845   1.526   7.883   1.150  3.0533 -1.9942  2.1317
  348MOL0     O46846   6.576   0.895   6.048  0.1400 -0.3708  0.1195
  348MOL0     C46847   6.606   0.786   6.101 -0.2681 -0.6485 -0.3355
  348MOL0     O46848   6.516   0.704   6.172  0.7484 -0.4479  0.1482
  348MOL0     C46849   6.389   0.752   6.190 -0.5976 -0.2233  0.1504
  348MOL0     C46850   6.279   0.674   6.151 -0.3583  0.5253 -0.3341
  348MOL0     C46851   6.151   0.713   6.181 -0.4463  0.9280  0.2698
  348MOL0     C46852   6.131   0.842   6.230 -0.7102 -0.2171 -0.3207
  348MOL0     O46853   6.008   0.893   6.249 -0.4036 -1.4844 -0.5352
  348MOL0     C46854   5.949   0.928   6.128 -1.5538  0.1096 -0.8001
  348MOL0     C46855   5.796   0.965   6.141  0.0365  1.1189 -0.8564
  348MOL0     C46856   5.776   1.107   6.179  0.6548  0.9816  0.0708
  348MOL0     C46857   5.629   1.142   6.200  0.4960  0.1900 -0.7846
  348MOL0     C46858   5.556   1.058   6.309 -0.5551 -0.6174  1.3334
  348MOL0     C46859   5.421   1.118   6.353  0.2222  0.2839 -0.2665
  348MOL0     C46860   5.320   1.114   6.238 -0.1622 -0.5487 -0.1527
  348MOL0     C46861   5.194   1.198   6.265  0.1637 -0.1388 -0.8569
  348MOL0     N46862   5.088   1.151   6.184  0.8645  0.1742  1.1394
  348MOL0     C46863   5.019   1.032   6.199  0.4078  0.1296  0.0321
  348MOL0     C46864   4.924   1.028   6.102  0.0195  0.1707  0.3508
  348MOL0     C46865   4.851   0.901   6.069  0.3304 -0.4372  0.5270
  348MOL0     C46866   4.721   0.909   6.145  0.0293 -0.1709  0.5612
  348MOL0     C46867   4.618   0.800   6.110 -0.2989 -0.7725 -0.5806
  348MOL0     C46868   4.489   0.824   6.182  0.2490  0.2010 -0.7014
  348MOL0     O46869   4.416   0.931   6.125  0.4535 -0.2748  0.7788
  348MOL0     C46870   4.322   0.891   6.029  0.2088 -0.1129 -0.2308
  348MOL0     C46871   4.310   0.760   5.976  0.2072 -0.0154  0.6320
  348MOL0     C46872   4.183   0.718   5.921  0.0156  0.1452 -0.1216
  348MOL0     C46873   4.165   0.576   5.873 -0.0112 -0.0847  0.0356
  348MOL0     C46874   4.084   0.816   5.888  0.8624 -0.5572  0.5615
  348MOL0     C46875   3.944   0.794   5.843 -0.5430  0.7822  0.2273
  348MOL0     O46876   3.870   0.897   5.801 -0.1914 -0.8123  0.0869
  348MOL0     C46877   3.734   0.888   5.801 -0.1848  0.6511  0.3202
  348MOL0     C46878   3.659   0.822   5.894 -0.6226  0.6768 -0.8661
  348MOL0     C46879   3.517   0.823   5.886 -0.0865 -0.0854  0.4735
  348MOL0     C46880   3.450   0.895   5.790  0.1168  0.4784 -0.1193
  348MOL0     O46881   3.309   0.921   5.797 -0.1533  0.1794  0.1738
  348MOL0     C46882   3.248   0.903   5.666  0.5442 -0.0665 -0.4873
  348MOL0     C46883   3.118   0.819   5.686  0.4869  0.1644 -0.2211
  348MOL0     C46884   3.021   0.877   5.793 -0.1108 -0.1670  0.1982
  348MOL0     C46885   2.874   0.825   5.769  0.1651 -0.4040 -0.6191
  348MOL0     C46886   2.795   0.917   5.675 -0.4209 -0.1626 -0.4092
  348MOL0     C46887   2.654   0.861   5.622 -0.0042 -1.0330 -0.4833
  348MOL0     C46888   2.566   0.814   5.737  0.3110 -0.8798  0.5377
  348MOL0     C46889   2.434   0.769   5.681  0.0521  0.0722 -0.1694
  348MOL0    Cl46890   2.457   0.610   5.601  0.5973 -0.3011  0.1262
  348MOL0     C46891   3.531   0.973   5.699 -0.4480  0.6757  0.3790
  348MOL0     C46892   3.666   0.965   5.705 -0.0325 -0.2589  0.5761
  348MOL0     O46893   3.901   0.671   5.840 -0.0556 -0.0435 -0.0849
  348MOL0     C46894   4.110   0.951   5.925  0.4022  0.0406 -0.0058
  348MOL0     C46895   4.224   0.986   6.001 -0.7397 -0.5190  0.5043
  348MOL0     N46896   4.919   1.144   6.033  0.6590 -0.0809 -0.7506
  348MOL0     N46897   5.015   1.212   6.082 -0.1977 -0.2189 -0.9916
  348MOL0     C46898   6.243   0.914   6.266 -0.1259  0.4629  1.1337
  348MOL0     C46899   6.373   0.874   6.252 -0.0597 -0.0840  0.1039
  348MOL0     C46900   6.748   0.751   6.116 -0.4636 -0.3139 -0.8402
  348MOL0     C46901   6.785   0.647   6.194 -0.4831 -0.8130  0.2066
  348MOL0     C46902   6.920   0.609   6.202 -0.9514  0.5099 -0.4515
  348MOL0     C46903   7.021   0.677   6.127 -0.0032  0.8529 -0.2229
  348MOL0     O46904   7.152   0.633   6.143  0.3824 -0.1367 -0.2395
  348MOL0     C46905   7.256   0.698   6.071  1.5018  0.1242  0.2776
  348MOL0     C46906   7.387   0.650   6.094 -0.2924  0.6750  0.2731
  348MOL0     C46907   7.494   0.753   6.065  0.2122 -0.6068  0.5340
  348MOL0     C46908   7.632   0.692   6.046  0.7696 -0.3700 -0.4236
  348MOL0     C46909   7.680   0.609   6.161  0.5071 -0.0934  0.7142
  348MOL0     C46910   7.706   0.542   6.258 -0.3700  0.3473 -0.0416
  348MOL0     C46911   6.981   0.790   6.044 -0.0471  0.2146 -0.8721
  348MOL0     C46912   6.845   0.824   6.040  0.2373 -0.8101 -0.5386
  348MOL0     H46913   6.316   0.580   6.111 -0.3502  0.0076  0.8491
  348MOL0     H46914   6.074   0.639   6.160  2.1632 -2.1315  0.7574
  348MOL0     H46915   5.997   1.013   6.079 -0.2873  0.1531  0.4562
  348MOL0     H46916   5.963   0.835   6.072  2.8657 -1.2496  2.0365
  348MOL0     H46917   5.742   0.964   6.046  0.5442  2.8413 -1.1917
  348MOL0     H46918   5.740   0.909   6.217 -1.4530  1.2693 -1.8085
  348MOL0     H46919   5.821   1.115   6.278 -1.2272 -0.6121  1.1209
  348MOL0     H46920   5.813   1.164   6.093  0.9212  1.5721  0.5716
  348MOL0     H46921   5.630   1.241   6.246 -2.1580  0.0428 -0.2661
  348MOL0     H46922   5.575   1.156   6.105  3.0054  2.8517 -1.9745
  348MOL0     H46923   5.537   0.959   6.268 -1.3704  0.1977 -0.3508
  348MOL0     H46924   5.617   1.041   6.399  0.4623 -1.6114  0.4822
  348MOL0     H46925   5.380   1.048   6.425  2.6043 -0.1969  0.7246
  348MOL0     H46926   5.430   1.220   6.392 -1.7954  0.8343 -1.1349
  348MOL0     H46927   5.369   1.148   6.147 -0.5176 -0.1258 -0.1900
  348MOL0     H46928   5.303   1.008   6.216  0.7394 -0.1353 -3.3317
  348MOL0     H46929   5.214   1.302   6.239  0.7694  0.7556  2.6931
  348MOL0     H46930   5.163   1.192   6.370 -0.5475  2.3535 -0.8670
  348MOL0     H46931   5.048   0.952   6.266  3.4857  1.7891  0.9264
  348MOL0     H46932   4.848   0.905   5.960  5.8592  4.6246  0.0212
  348MOL0     H46933   4.900   0.805   6.086  0.5109 -0.9288 -2.2538
  348MOL0     H46934   4.675   1.008   6.140 -0.7313 -0.5811 -1.1417
  348MOL0     H46935   4.739   0.892   6.252  0.5847  0.7661  0.6284
  348MOL0     H46936   4.656   0.701   6.137  0.7895 -0.0523  0.6096
  348MOL0     H46937   4.594   0.807   6.004 -1.6438  2.0534 -0.2042
  348MOL0     H46938   4.521   0.860   6.279  1.4845 -1.6761 -0.3517
  348MOL0     H46939   4.427   0.734   6.196  0.4692  0.4453  2.5805
  348MOL0     H46940   4.393   0.692   5.990  0.1243 -0.3745 -0.5174
  348MOL0     H46941   4.249   0.507   5.891 -0.6612 -1.3142 -1.4826
  348MOL0     H46942   4.085   0.527   5.929  0.2280 -0.6983 -0.1539
  348MOL0     H46943   4.138   0.571   5.767  0.3229 -1.3940 -0.0124
  348MOL0     H46944   3.713   0.777   5.977 -1.3030 -1.3080 -1.4461
  348MOL0     H46945   3.454   0.776   5.961  0.0145 -0.9792  0.0091
  348MOL0     H46946   3.223   0.999   5.620 -2.2985 -0.5930 -0.2324
  348MOL0     H46947   3.314   0.852   5.595  1.7466  0.3005  0.3410
  348MOL0     H46948   3.064   0.809   5.591 -0.2494 -4.7740  0.4707
  348MOL0     H46949   3.147   0.718   5.715 -0.3865  0.6136  2.4664
  348MOL0     H46950   3.026   0.985   5.803  1.1847 -0.2669  0.9271
  348MOL0     H46951   3.043   0.840   5.894  3.9566  2.1630  0.3661
  348MOL0     H46952   2.873   0.727   5.722  2.3723 -2.2730  2.7649
  348MOL0     H46953   2.818   0.819   5.863  0.8999 -0.7459 -0.2019
  348MOL0     H46954   2.849   0.935   5.582 -1.5273 -1.2529 -1.2933
  348MOL0     H46955   2.773   1.014   5.722  1.0153 -0.0012 -0.0190
  348MOL0     H46956   2.598   0.943   5.575 -3.5316 -2.2757  1.1768
  348MOL0     H46957   2.671   0.782   5.548  0.7056 -0.7314 -0.6546
  348MOL0     H46958   2.530   0.894   5.803 -1.1540 -1.3962  0.3956
  348MOL0     H46959   2.616   0.738   5.799  1.5238 -1.2881 -0.8870
  348MOL0     H46960   2.393   0.847   5.616  2.4327  0.4145 -1.3653
  348MOL0     H46961   2.369   0.753   5.768  1.8175 -0.5204  1.0922
  348MOL0     H46962   3.477   1.048   5.642 -0.0154  0.7992  0.1229
  348MOL0     H46963   3.732   1.019   5.638 -1.6199 -0.4408 -1.2188
  348MOL0     H46964   4.022   1.013   5.929  1.1406  1.0529  1.7516
  348MOL0     H46965   4.236   1.090   6.029  5.3287 -0.5250 -0.5415
  348MOL0     H46966   6.225   1.018   6.292  0.6004  0.8970 -0.0315
  348MOL0     H46967   6.458   0.935   6.280 -1.6121  1.4022  1.7538
  348MOL0     H46968   6.709   0.595   6.251 -0.4437 -3.4698 -1.9511
  348MOL0     H46969   6.960   0.528   6.263 -2.2454 -0.1675 -0.4839
  348MOL0     H46970   7.234   0.695   5.964  2.5041  1.2664  0.0172
  348MOL0     H46971   7.247   0.804   6.098  0.0336  0.8862 -2.6918
  348MOL0     H46972   7.414   0.560   6.039  0.7409  1.4971 -0.6313
  348MOL0     H46973   7.386   0.628   6.201 -2.1680 -1.5779 -0.1293
  348MOL0     H46974   7.492   0.829   6.143 -0.6172  1.0605 -1.0425
  348MOL0     H46975   7.477   0.804   5.970 -2.1167 -1.5229  0.3925
  348MOL0     H46976   7.703   0.774   6.032 -0.2957  0.8419  0.9127
  348MOL0     H46977   7.617   0.638   5.952 -0.2354  0.0474 -0.5167
  348MOL0     H46978   7.735   0.480   6.340 -1.8923 -0.6324 -0.2081
  348MOL0     H46979   7.054   0.852   5.992  0.1385  0.1619 -0.6758
  348MOL0     H46980   6.821   0.912   5.982  2.6641  1.7605  1.9863
  349MOL0     O46981   1.805   1.754   5.789  0.0510  0.7579 -0.0016
  349MOL0     C46982   1.885   1.656   5.789  0.0744 -0.3313  0.6352
  349MOL0     O46983   1.848   1.523   5.757 -0.3315 -0.1342  0.8148
  349MOL0     C46984   1.726   1.496   5.708  0.0238 -1.1610  0.3221
  349MOL0     C46985   1.668   1.383   5.769  0.3308 -0.5853 -0.0074
  349MOL0     C46986   1.535   1.356   5.733  0.2206  0.9003 -0.2533
  349MOL0     C46987   1.468   1.427   5.635 -0.8228 -0.0192 -1.0202
  349MOL0     O46988   1.333   1.400   5.622  0.4774  0.1287  0.2511
  349MOL0     C46989   1.252   1.512   5.583 -0.3047  0.6242  0.4043
  349MOL0     C46990   1.107   1.484   5.646 -0.0064 -0.7082 -0.3041
  349MOL0     C46991   1.015   1.571   5.563 -0.0014 -0.0346  0.0825
  349MOL0     C46992   0.916   1.492   5.479 -0.4840 -0.0300  0.4641
  349MOL0     C46993   0.789   1.576   5.460 -0.6555  0.4541  0.6699
  349MOL0     C46994   0.681   1.511   5.373 -0.0916 -0.4946  0.0404
  349MOL0     C46995   0.552   1.587   5.356 -0.4814  0.1804 -0.4966
  349MOL0     C46996   0.568   1.744   5.321 -0.7849 -0.1570 -0.2468
  349MOL0     N46997   0.436   1.806   5.319  0.5706 -0.3084  0.4399
  349MOL0     C46998   0.390   1.885   5.419 -0.8069 -0.4639 -0.1371
  349MOL0     C46999   0.257   1.901   5.397 -0.1976 -0.5700  0.4214
  349MOL0     C47000   0.169   2.001   5.469  0.0060 -0.0363 -0.7517
  349MOL0     C47001   0.233   2.142   5.470 -0.6143 -0.0345 -0.1405
  349MOL0     C47002   0.262   2.199   5.332  0.9499 -0.0726  0.5731
  349MOL0     C47003   0.144   2.228   5.245 -0.0456 -0.1794  0.0068
  349MOL0     O47004   0.045   2.303   5.319 -0.9199  0.4364  0.9543
  349MOL0     C47005  -0.060   2.356   5.251 -1.0203  0.4302  0.5662
  349MOL0     C47006  -0.129   2.454   5.323  1.1890 -0.7740  1.1537
  349MOL0     C47007  -0.242   2.523   5.267  0.0923  0.2698 -0.5306
  349MOL0     C47008  -0.316   2.615   5.351 -0.0716  0.0616 -0.2894
  349MOL0     C47009  -0.279   2.492   5.131  0.9208  0.1147 -0.3919
  349MOL0     C47010  -0.411   2.538   5.076 -0.2567 -0.2047  0.2886
  349MOL0     O47011  -0.441   2.664   5.089  0.1257 -0.3011  0.1378
  349MOL0     C47012  -0.570   2.703   5.075  0.1835  0.1922  0.2584
  349MOL0     C47013  -0.607   2.795   4.983  0.6682 -0.5041  0.3684
  349MOL0     C47014  -0.732   2.848   4.973 -0.0832 -1.0829  0.2890
  349MOL0     C47015  -0.829   2.825   5.071  0.2991  0.5180 -0.0583
  349MOL0     O47016  -0.947   2.889   5.059  0.1081  0.1984 -0.5862
  349MOL0     C47017  -1.058   2.805   5.051  0.0707 -0.4443 -0.7685
  349MOL0     C47018  -1.175   2.871   5.002  0.5324 -0.1963 -0.8468
  349MOL0     C47019  -1.223   2.985   5.095  0.3421  0.7051 -0.5679
  349MOL0     C47020  -1.359   3.028   5.045 -1.3085 -0.6090 -0.0018
  349MOL0     C47021  -1.424   3.136   5.133 -0.2212  0.5176  0.2924
  349MOL0     C47022  -1.568   3.165   5.094 -1.3587  0.4080 -0.0521
  349MOL0     C47023  -1.624   3.235   5.225  0.6784 -0.0392 -0.1240
  349MOL0     C47024  -1.779   3.257   5.199 -0.4455 -0.2861  0.0645
  349MOL0    Cl47025  -1.858   3.101   5.191 -0.1792 -0.3405 -0.4479
  349MOL0     C47026  -0.796   2.729   5.169  0.1022 -0.0402  0.3454
  349MOL0     C47027  -0.673   2.663   5.163  0.1663 -0.7380 -0.0432
  349MOL0     O47028  -0.478   2.453   5.018 -0.2764  0.1119  0.9305
  349MOL0     C47029  -0.212   2.384   5.072  0.3400 -0.1416  0.3069
  349MOL0     C47030  -0.101   2.324   5.116 -0.3260 -0.0371 -0.4777
  349MOL0     N47031   0.226   1.850   5.269  0.0932 -0.3345  0.8134
  349MOL0     N47032   0.327   1.789   5.229 -0.0134 -0.3189 -0.3386
  349MOL0     C47033   1.533   1.540   5.571  0.5256 -0.6533  0.1245
  349MOL0     C47034   1.661   1.578   5.616  0.3884  0.2838  0.9055
  349MOL0     C47035   2.029   1.681   5.821 -1.5335  0.5903 -0.5157
  349MOL0     C47036   2.067   1.810   5.855  0.2186  0.5895  0.1281
  349MOL0     C47037   2.200   1.829   5.898  0.2330 -0.1724 -0.6269
  349MOL0     C47038   2.302   1.731   5.909  0.5379 -0.0752 -0.4132
  349MOL0     O47039   2.435   1.762   5.945 -0.2928  0.8102 -0.1893
  349MOL0     C47040   2.531   1.655   5.965  0.1576  0.6736  0.3608
  349MOL0     C47041   2.655   1.722   6.013 -0.8243 -0.2516  0.1255
  349MOL0     C47042   2.749   1.621   6.079 -0.0293  0.5937  0.4968
  349MOL0     C47043   2.865   1.687   6.156  0.3972  0.5427 -0.5499
  349MOL0     C47044   2.951   1.757   6.060  0.0595  0.4668  0.8183
  349MOL0     C47045   3.033   1.814   5.990  0.4983  0.5633 -0.5966
  349MOL0     C47046   2.251   1.596   5.890 -0.1880  0.0760 -1.2570
  349MOL0     C47047   2.117   1.574   5.846 -0.3038 -0.0636  0.1182
  349MOL0     H47048   1.719   1.341   5.855 -3.5185 -1.3569  2.1603
  349MOL0     H47049   1.498   1.273   5.794  2.0594 -0.8549 -1.3789
  349MOL0     H47050   1.292   1.602   5.630  2.1855 -1.2606  2.0830
  349MOL0     H47051   1.254   1.528   5.474  1.6056  1.0384  0.4770
  349MOL0     H47052   1.078   1.380   5.630  2.0393 -1.2710 -0.6671
  349MOL0     H47053   1.103   1.492   5.755  0.6238 -0.2264 -0.3032
  349MOL0     H47054   0.958   1.639   5.627  2.2064  2.5608 -0.5035
  349MOL0     H47055   1.082   1.634   5.502 -0.3916  0.0751 -0.2355
  349MOL0     H47056   0.964   1.487   5.380 -1.6442 -1.9101 -0.0586
  349MOL0     H47057   0.896   1.390   5.512  1.0490 -0.3672  0.4290
  349MOL0     H47058   0.745   1.591   5.559 -0.1488  2.0253  0.6933
  349MOL0     H47059   0.821   1.673   5.418 -0.2780 -0.3763 -1.0680
  349MOL0     H47060   0.727   1.491   5.275  3.4804  0.2224  1.3920
  349MOL0     H47061   0.665   1.409   5.408  0.9058 -0.6599  0.0598
  349MOL0     H47062   0.495   1.533   5.280  2.0869 -0.5378 -2.0415
  349MOL0     H47063   0.490   1.597   5.445  0.1223 -1.3057  0.1253
  349MOL0     H47064   0.617   1.757   5.224  0.4555  2.9444  0.6911
  349MOL0     H47065   0.635   1.793   5.392 -0.3053  1.2323 -1.6113
  349MOL0     H47066   0.441   1.920   5.508  0.8239 -2.3536 -0.2769
  349MOL0     H47067   0.069   1.993   5.426  0.9353 -2.9591 -2.6923
  349MOL0     H47068   0.152   1.972   5.573 -0.2190  0.7861 -0.5524
  349MOL0     H47069   0.328   2.131   5.524 -1.1444 -1.4497  0.5498
  349MOL0     H47070   0.161   2.205   5.523 -0.0933 -0.0262  0.5685
  349MOL0     H47071   0.343   2.148   5.278  1.9281  1.9938 -0.0083
  349MOL0     H47072   0.304   2.298   5.353 -2.1413  2.3247 -3.2267
  349MOL0     H47073   0.100   2.141   5.196 -0.5688  1.8864 -3.6173
  349MOL0     H47074   0.185   2.288   5.163  0.3051  0.0851  0.3708
  349MOL0     H47075  -0.092   2.474   5.423 -1.8602  1.1818  2.0095
  349MOL0     H47076  -0.270   2.714   5.343  2.7093 -1.1107  0.3465
  349MOL0     H47077  -0.426   2.618   5.344 -0.3088 -0.8524  2.1102
  349MOL0     H47078  -0.297   2.579   5.452 -0.5817 -0.0655 -0.2360
  349MOL0     H47079  -0.544   2.817   4.898 -3.1124 -2.5152 -3.3399
  349MOL0     H47080  -0.761   2.909   4.889 -1.9864 -2.0909  0.1669
  349MOL0     H47081  -1.023   2.742   4.968  2.5064  3.0562 -2.6387
  349MOL0     H47082  -1.074   2.753   5.146  0.9016 -0.5223 -0.6577
  349MOL0     H47083  -1.145   2.903   4.901  1.3785  0.0704 -0.5187
  349MOL0     H47084  -1.258   2.800   4.991 -0.5421  1.2558 -2.9804
  349MOL0     H47085  -1.155   3.071   5.093  3.9864 -1.8031  2.2672
  349MOL0     H47086  -1.231   2.951   5.198 -6.2541  0.0720 -0.8674
  349MOL0     H47087  -1.337   3.069   4.946  1.5722  0.3447  0.9480
  349MOL0     H47088  -1.434   2.949   5.035 -3.2432  1.1448  0.0218
  349MOL0     H47089  -1.361   3.225   5.132 -0.9711  1.1040  2.1739
  349MOL0     H47090  -1.427   3.080   5.227 -0.4821  1.4010  0.8180
  349MOL0     H47091  -1.558   3.229   5.006 -1.1782 -1.8442 -1.7462
  349MOL0     H47092  -1.616   3.072   5.064  0.0126 -0.4300  0.2880
  349MOL0     H47093  -1.574   3.332   5.234  0.3444  0.2380 -1.1237
  349MOL0     H47094  -1.601   3.176   5.314  0.6258 -1.0710 -0.7861
  349MOL0     H47095  -1.801   3.313   5.108 -0.6695 -0.0887  0.2387
  349MOL0     H47096  -1.823   3.306   5.286  3.5280 -0.3814  2.3906
  349MOL0     H47097  -0.876   2.688   5.231 -0.7214 -3.2626 -2.5127
  349MOL0     H47098  -0.657   2.583   5.234  1.5493 -0.7300 -0.3181
  349MOL0     H47099  -0.247   2.355   4.973  0.0155  0.2152  0.3134
  349MOL0     H47100  -0.057   2.249   5.051 -0.9252 -0.2807 -0.6092
  349MOL0     H47101   1.475   1.600   5.503  0.4341  0.6947  1.3471
  349MOL0     H47102   1.710   1.667   5.579  0.1758 -0.3375 -0.9927
  349MOL0     H47103   1.990   1.885   5.841 -0.4319 -0.1041 -0.0564
  349MOL0     H47104   2.233   1.929   5.923 -1.6522  0.4000 -0.2726
  349MOL0     H47105   2.491   1.579   6.032  0.2705  1.3773  1.2526
  349MOL0     H47106   2.561   1.600   5.876  1.4295  1.8109  0.0502
  349MOL0     H47107   2.625   1.804   6.079 -0.5363 -0.5749  0.6616
  349MOL0     H47108   2.715   1.768   5.933 -0.8036  0.0936  0.3367
  349MOL0     H47109   2.797   1.561   6.002  2.2850  4.8064 -1.7471
  349MOL0     H47110   2.688   1.563   6.149  0.4932  0.1392  0.5863
  349MOL0     H47111   2.921   1.605   6.202 -1.3063  0.8175  2.2925
  349MOL0     H47112   2.833   1.758   6.233  0.0245  1.5564 -1.6064
  349MOL0     H47113   3.107   1.873   5.939  0.7677  0.2419 -0.5778
  349MOL0     H47114   2.318   1.513   5.912 -2.3929 -1.0331  2.0578
  349MOL0     H47115   2.086   1.472   5.827  2.8221 -1.5207  1.9755
  350MOL0     O47116   5.217   8.509   3.682  0.0166 -0.6671  0.2861
  350MOL0     C47117   5.213   8.395   3.725 -0.3333 -0.4527 -0.9488
  350MOL0     O47118   5.105   8.323   3.759 -0.0299 -0.2996  0.2434
  350MOL0     C47119   4.992   8.388   3.747  0.1386 -0.1477  0.2804
  350MOL0     C47120   4.920   8.418   3.859 -0.0090 -0.5897 -0.4437
  350MOL0     C47121   4.791   8.478   3.853 -0.4436  0.5818 -0.8793
  350MOL0     C47122   4.732   8.504   3.735  0.0170  0.1765 -0.3264
  350MOL0     O47123   4.610   8.563   3.729  0.5437 -0.5024 -1.1315
  350MOL0     C47124   4.501   8.500   3.798  0.2863 -0.2650  0.6366
  350MOL0     C47125   4.375   8.560   3.748  0.1578 -0.5063  0.7291
  350MOL0     C47126   4.248   8.467   3.777 -0.2235  0.5451 -0.1752
  350MOL0     C47127   4.137   8.513   3.681 -0.5055  0.3778  0.1266
  350MOL0     C47128   4.017   8.419   3.716 -0.5245  1.1931  1.2059
  350MOL0     C47129   3.889   8.486   3.652 -0.7644  1.1039 -0.4760
  350MOL0     C47130   3.769   8.387   3.663 -0.2261 -0.2928 -0.2827
  350MOL0     C47131   3.650   8.428   3.587 -0.7398 -0.5202  0.7742
  350MOL0     N47132   3.539   8.344   3.632  0.1989 -0.3227  0.4513
  350MOL0     C47133   3.458   8.369   3.742 -0.2326 -0.1245  0.5283
  350MOL0     C47134   3.363   8.268   3.729  0.3112 -0.0181  0.5921
  350MOL0     C47135   3.245   8.235   3.819 -0.2212 -0.2039  1.0062
  350MOL0     C47136   3.119   8.310   3.774  0.4508  0.7928 -0.4314
  350MOL0     C47137   3.094   8.277   3.624 -0.0462  0.1758 -0.4673
  350MOL0     C47138   2.951   8.332   3.582  0.4157 -0.4315  0.0048
  350MOL0     O47139   2.969   8.464   3.540  0.0719 -0.7159  0.6737
  350MOL0     C47140   2.858   8.542   3.509 -0.7076  0.4893 -1.1983
  350MOL0     C47141   2.883   8.663   3.463 -0.0954  0.1481  0.0560
  350MOL0     C47142   2.786   8.749   3.413 -0.5477  0.2405  0.1048
  350MOL0     C47143   2.813   8.892   3.370 -0.0314 -0.8244 -1.8724
  350MOL0     C47144   2.651   8.692   3.401 -0.0948 -0.5588  0.2678
  350MOL0     C47145   2.531   8.764   3.341 -0.6761 -0.6250 -0.2406
  350MOL0     O47146   2.415   8.704   3.361 -0.1550  0.8586  0.1967
  350MOL0     C47147   2.289   8.767   3.337  0.4534  0.0277  0.0614
  350MOL0     C47148   2.266   8.873   3.241 -0.1014 -0.3548 -1.1503
  350MOL0     C47149   2.136   8.929   3.228 -0.2711 -0.2298  0.0999
  350MOL0     C47150   2.030   8.870   3.300 -0.4026  0.5538 -0.0955
  350MOL0     O47151   1.912   8.941   3.282  0.0812  0.0209  0.5665
  350MOL0     C47152   1.800   8.903   3.352 -0.2592  0.6781  0.3349
  350MOL0     C47153   1.710   8.811   3.277 -0.3924 -0.3706  0.1102
  350MOL0     C47154   1.575   8.788   3.343  0.1302 -0.1796  0.7704
  350MOL0     C47155   1.468   8.757   3.233  0.0106  0.2603 -0.4930
  350MOL0     C47156   1.329   8.762   3.298  0.2992 -0.7216  0.4260
  350MOL0     C47157   1.226   8.765   3.186  0.4830 -0.1313 -0.1206
  350MOL0     C47158   1.087   8.819   3.237  0.2982  0.3613 -0.2929
  350MOL0     C47159   0.976   8.835   3.130  0.5516  0.5730 -0.1192
  350MOL0    Cl47160   1.033   8.798   2.970 -0.0607  0.1323  0.5169
  350MOL0     C47161   2.049   8.752   3.384  1.3872 -0.5155 -0.3115
  350MOL0     C47162   2.176   8.710   3.404 -0.1394 -0.4706 -0.1500
  350MOL0     O47163   2.546   8.873   3.284 -0.6318 -0.0522 -0.5418
  350MOL0     C47164   2.626   8.565   3.457  0.1321  0.4077  0.1122
  350MOL0     C47165   2.725   8.488   3.509  0.4868  0.0165  0.2443
  350MOL0     N47166   3.412   8.178   3.629  0.4830 -0.6726  0.0957
  350MOL0     N47167   3.513   8.228   3.564 -0.5734 -0.0539 -0.3211
  350MOL0     C47168   4.798   8.470   3.618 -0.5700 -0.3799  0.2758
  350MOL0     C47169   4.923   8.412   3.625  0.3368  0.2847 -0.2063
  350MOL0     C47170   5.338   8.326   3.725  0.2198  0.4347 -0.2166
  350MOL0     C47171   5.457   8.386   3.688  0.0975 -1.1147  0.2994
  350MOL0     C47172   5.576   8.322   3.698  0.0271  0.2487 -0.2148
  350MOL0     C47173   5.584   8.196   3.751 -0.0507 -0.0449  0.4194
  350MOL0     O47174   5.710   8.147   3.772 -0.5147 -0.3226 -0.3004
  350MOL0     C47175   5.729   8.010   3.804 -0.3654  0.4576 -0.6532
  350MOL0     C47176   5.704   7.918   3.688  0.4611 -0.5766  0.3592
  350MOL0     C47177   5.776   7.784   3.710  1.0022 -0.2493 -0.1009
  350MOL0     C47178   5.798   7.688   3.584 -0.0057  0.4068 -0.3886
  350MOL0     C47179   5.699   7.581   3.569  0.1148  0.2941 -0.1336
  350MOL0     C47180   5.624   7.485   3.561  0.5572  0.3237 -0.0963
  350MOL0     C47181   5.466   8.128   3.788  0.4422  0.0630 -0.3714
  350MOL0     C47182   5.343   8.196   3.774  0.6467 -0.7208  0.2999
  350MOL0     H47183   4.962   8.393   3.956 -1.7066  1.7605  1.0061
  350MOL0     H47184   4.736   8.508   3.942 -2.7705  0.7122 -2.2826
  350MOL0     H47185   4.510   8.395   3.772 -2.0873 -0.7104  1.3669
  350MOL0     H47186   4.498   8.525   3.905 -0.6172  4.3648 -0.2378
  350MOL0     H47187   4.362   8.654   3.804  0.4215 -1.1628  1.9159
  350MOL0     H47188   4.381   8.578   3.640 -0.1899  4.0211  1.2635
  350MOL0     H47189   4.269   8.362   3.752 -2.3049  0.0027  0.1619
  350MOL0     H47190   4.214   8.475   3.880 -1.2414 -1.8087 -0.2698
  350MOL0     H47191   4.117   8.621   3.688 -0.5709  0.6388 -2.8833
  350MOL0     H47192   4.177   8.489   3.582 -0.6165 -3.6353  0.8975
  350MOL0     H47193   4.037   8.322   3.669  0.2285  0.4747  2.9336
  350MOL0     H47194   4.012   8.401   3.823  2.5885 -1.8576  1.0163
  350MOL0     H47195   3.869   8.581   3.702 -2.6113  0.5834 -0.1457
  350MOL0     H47196   3.911   8.493   3.545  0.0169 -1.2902 -0.5269
  350MOL0     H47197   3.795   8.287   3.628 -1.1646 -0.2541 -1.1469
  350MOL0     H47198   3.741   8.361   3.765 -1.0806 -2.3738 -0.9998
  350MOL0     H47199   3.665   8.418   3.479 -0.7339 -0.0167  0.7247
  350MOL0     H47200   3.620   8.528   3.620  0.0305  0.0931 -0.3257
  350MOL0     H47201   3.455   8.445   3.819 -0.1721  0.6591 -0.2274
  350MOL0     H47202   3.237   8.126   3.827 -0.4772 -0.3218 -0.6016
  350MOL0     H47203   3.279   8.264   3.919 -0.3544  2.0359  0.4564
  350MOL0     H47204   3.147   8.416   3.777 -0.4363  1.1223 -2.2512
  350MOL0     H47205   3.038   8.275   3.837  0.4618 -1.9383 -1.7906
  350MOL0     H47206   3.089   8.169   3.613 -0.8745 -0.1188  2.1374
  350MOL0     H47207   3.164   8.317   3.551 -2.6790  2.5753 -1.9025
  350MOL0     H47208   2.880   8.331   3.665 -2.6308  2.6585 -2.2903
  350MOL0     H47209   2.915   8.263   3.506  0.9548 -2.9483  1.9111
  350MOL0     H47210   2.986   8.697   3.465  0.1778 -0.6409 -0.0478
  350MOL0     H47211   2.833   8.899   3.263 -0.1729 -2.2444 -2.0179
  350MOL0     H47212   2.728   8.952   3.403 -0.6045 -2.2732 -0.5936
  350MOL0     H47213   2.892   8.931   3.435 -2.2246  0.1578  0.3706
  350MOL0     H47214   2.340   8.931   3.186  1.1611 -0.6943  0.1241
  350MOL0     H47215   2.121   9.006   3.152  1.9034 -0.2015 -0.3628
  350MOL0     H47216   1.820   8.859   3.450 -0.4558 -0.1863 -0.0006
  350MOL0     H47217   1.750   8.997   3.375  1.3120  1.0625  2.3370
  350MOL0     H47218   1.699   8.851   3.176 -0.2199  0.4668  0.4164
  350MOL0     H47219   1.764   8.716   3.276 -0.8201 -0.6205  0.4781
  350MOL0     H47220   1.537   8.870   3.404 -1.5622 -1.1364  1.0544
  350MOL0     H47221   1.588   8.707   3.415  0.1802 -1.5258 -0.6810
  350MOL0     H47222   1.487   8.836   3.160  1.5033  0.5339  0.1434
  350MOL0     H47223   1.477   8.661   3.182 -2.8478 -1.5361  2.0685
  350MOL0     H47224   1.324   8.854   3.356  2.7330 -0.1167 -0.2182
  350MOL0     H47225   1.317   8.673   3.361 -0.3457 -1.4624 -0.7040
  350MOL0     H47226   1.249   8.819   3.094  3.3555 -2.6974 -1.0834
  350MOL0     H47227   1.217   8.661   3.154 -1.8866 -0.7376  2.1749
  350MOL0     H47228   1.097   8.920   3.278 -3.4545  0.4262  0.9189
  350MOL0     H47229   1.046   8.755   3.316  3.4467 -0.1932  1.0197
  350MOL0     H47230   0.954   8.942   3.132  1.7688  0.8294  0.6355
  350MOL0     H47231   0.888   8.773   3.150  0.2476  1.0347 -0.0388
  350MOL0     H47232   1.971   8.711   3.447  1.5263  0.4756  0.5212
  350MOL0     H47233   2.187   8.632   3.479  1.9676 -1.7259 -1.6496
  350MOL0     H47234   2.528   8.520   3.463  0.9894 -1.4115  1.8957
  350MOL0     H47235   2.716   8.386   3.545  2.6709 -1.1007 -2.0293
  350MOL0     H47236   4.749   8.496   3.525  0.0770 -3.3241 -0.9809
  350MOL0     H47237   4.981   8.390   3.536 -1.8624  0.5317 -1.7843
  350MOL0     H47238   5.445   8.492   3.666  0.4839 -0.6573  2.0995
  350MOL0     H47239   5.672   8.371   3.685  0.9994 -1.5006 -0.0557
  350MOL0     H47240   5.826   8.002   3.854 -1.3821  0.6838  1.4713
  350MOL0     H47241   5.667   7.985   3.890  0.8884  1.4692  0.5929
  350MOL0     H47242   5.760   7.972   3.610 -0.3860  1.5454  1.1367
  350MOL0     H47243   5.597   7.917   3.665  1.1632 -1.5674 -3.5129
  350MOL0     H47244   5.711   7.741   3.787  1.4723  0.8493  0.9353
  350MOL0     H47245   5.876   7.796   3.752  0.7789 -0.5802  0.5336
  350MOL0     H47246   5.900   7.647   3.590 -1.0997 -2.8763 -1.9018
  350MOL0     H47247   5.790   7.753   3.496 -2.6116  1.2784  0.4226
  350MOL0     H47248   5.558   7.401   3.553  2.2377 -1.5313  3.2486
  350MOL0     H47249   5.454   8.035   3.842  1.5060 -0.8488 -1.6213
  350MOL0     H47250   5.257   8.139   3.809  1.3401 -1.1333  1.3938
  351MOL0     O47251  11.204   1.149  10.087 -0.0325 -0.1383 -0.3052
  351MOL0     C47252  11.170   1.237  10.174  0.8260  0.8245 -0.0170
  351MOL0     O47253  11.236   1.348  10.212 -0.4285  0.7919 -0.1076
  351MOL0     C47254  11.378   1.352  10.200  0.8923  0.6316 -0.4247
  351MOL0     C47255  11.458   1.238  10.190 -0.4907  0.1844 -0.2111
  351MOL0     C47256  11.597   1.260  10.175  0.1099  0.5480 -0.2227
  351MOL0     C47257  11.657   1.389  10.171 -0.6040 -0.4801 -0.5182
  351MOL0     O47258  11.792   1.401  10.174 -0.9226  0.0883  0.5898
  351MOL0     C47259  11.858   1.517  10.225 -0.6496  0.2529 -0.6384
  351MOL0     C47260  11.991   1.459  10.300  0.1801 -0.4159 -0.2366
  351MOL0     C47261  12.057   1.552  10.402 -0.3129 -0.2169  0.1455
  351MOL0     C47262  12.190   1.493  10.453  0.3348 -0.1138  0.1458
  351MOL0     C47263  12.297   1.476  10.345  0.3902 -0.0321  0.2086
  351MOL0     C47264  12.370   1.610  10.292 -0.0449  0.0583  0.4840
  351MOL0     C47265  12.490   1.572  10.208 -0.4888  0.0744  0.8728
  351MOL0     C47266  12.456   1.474  10.090 -0.3188  0.2539  0.1480
  351MOL0     N47267  12.537   1.475   9.973 -0.5043 -1.2658 -0.9123
  351MOL0     C47268  12.655   1.537   9.944  0.2605  0.7636  0.0810
  351MOL0     C47269  12.692   1.483   9.832 -0.3651 -0.4006 -0.1800
  351MOL0     C47270  12.828   1.523   9.767 -0.2958 -0.1256  0.4675
  351MOL0     C47271  12.821   1.664   9.705  0.1496 -1.0284 -0.2079
  351MOL0     C47272  12.701   1.691   9.614 -0.2362 -1.0215  0.3429
  351MOL0     C47273  12.705   1.621   9.477  0.1893  0.3682 -1.2184
  351MOL0     O47274  12.602   1.673   9.388  0.0119 -0.1653 -0.5168
  351MOL0     C47275  12.465   1.653   9.409  0.5458 -0.0196  0.4680
  351MOL0     C47276  12.380   1.742   9.350  0.7341  0.6723  1.1350
  351MOL0     C47277  12.236   1.726   9.354  0.0553  0.2110  0.3528
  351MOL0     C47278  12.148   1.819   9.271 -0.9932 -0.3105 -0.9204
  351MOL0     C47279  12.185   1.604   9.408 -0.0161  1.0534 -0.0765
  351MOL0     C47280  12.042   1.578   9.412 -0.1751  0.7952  0.0130
  351MOL0     O47281  11.954   1.674   9.459  0.0572  0.1545 -0.1495
  351MOL0     C47282  11.818   1.677   9.447 -0.2050 -0.4591  0.8708
  351MOL0     C47283  11.733   1.611   9.358  0.4999 -0.6992  0.7553
  351MOL0     C47284  11.599   1.633   9.354 -0.5675 -1.2218  0.1341
  351MOL0     C47285  11.535   1.731   9.431  0.1071 -0.3638 -0.2016
  351MOL0     O47286  11.396   1.747   9.432  0.3668 -0.4308  0.3499
  351MOL0     C47287  11.361   1.881   9.414  0.2271  0.3225  0.0615
  351MOL0     C47288  11.229   1.911   9.490 -0.1226  0.5515  0.2902
  351MOL0     C47289  11.200   2.066   9.514  0.3610  0.2877  0.6345
  351MOL0     C47290  11.183   2.146   9.377 -0.5235 -0.4185 -0.3527
  351MOL0     C47291  11.041   2.148   9.321  0.1280 -0.9220  0.6470
  351MOL0     C47292  10.950   2.265   9.381 -0.9426  1.0014  0.1651
  351MOL0     C47293  10.978   2.401   9.315 -0.0939 -0.2006  0.0710
  351MOL0     C47294  10.991   2.502   9.430  0.6226  0.1331 -0.4107
  351MOL0    Cl47295  11.131   2.458   9.528  0.1356  0.4071 -0.0867
  351MOL0     C47296  11.618   1.793   9.525 -0.8499 -0.1491 -0.3402
  351MOL0     C47297  11.759   1.767   9.532  0.5144 -0.0099  0.3655
  351MOL0     O47298  12.005   1.472   9.363  0.8339  0.5314 -0.0103
  351MOL0     C47299  12.276   1.523   9.475  0.1370  0.2355  0.6178
  351MOL0     C47300  12.415   1.539   9.477  0.0449  0.0133 -0.4075
  351MOL0     N47301  12.594   1.396   9.783  0.6571 -0.5428 -0.6020
  351MOL0     N47302  12.500   1.393   9.868  0.5266  0.5842 -0.8084
  351MOL0     C47303  11.573   1.501  10.181  0.9929  0.1103 -0.6216
  351MOL0     C47304  11.433   1.476  10.204 -1.1788  0.3431  0.3426
  351MOL0     C47305  11.046   1.222  10.239  0.5736  0.5852  0.3440
  351MOL0     C47306  10.975   1.338  10.298 -0.7311  0.3199 -0.3733
  351MOL0     C47307  10.855   1.325  10.359 -0.2045  0.3258 -0.4656
  351MOL0     C47308  10.796   1.203  10.370  0.3741  0.5233 -0.1799
  351MOL0     O47309  10.662   1.210  10.416 -0.0385  0.2185  0.2114
  351MOL0     C47310  10.581   1.088  10.407 -0.0292 -0.4201 -0.2012
  351MOL0     C47311  10.435   1.141  10.409  0.0248 -0.0732  1.5895
  351MOL0     C47312  10.328   1.031  10.448  0.4687 -1.0594  0.0695
  351MOL0     C47313  10.340   0.900  10.368  0.6807 -0.2156  0.7870
  351MOL0     C47314  10.327   0.912  10.221 -0.5716  0.0347 -0.0857
  351MOL0     C47315  10.328   0.918  10.098 -0.1852  0.7846 -0.6103
  351MOL0     C47316  10.860   1.085  10.310  0.0333 -0.1640 -0.4743
  351MOL0     C47317  10.985   1.096  10.252 -0.4693  0.3944 -0.5495
  351MOL0     H47318  11.427   1.134  10.189  0.9939 -0.2938  0.2928
  351MOL0     H47319  11.671   1.181  10.164  0.6805  0.6273  2.4403
  351MOL0     H47320  11.888   1.586  10.146  1.3667 -1.1786 -1.1836
  351MOL0     H47321  11.798   1.583  10.289 -1.5799 -0.5936 -0.6155
  351MOL0     H47322  11.953   1.372  10.354  0.3926 -1.9855 -2.4712
  351MOL0     H47323  12.053   1.432  10.214 -0.4009  2.3227 -1.6471
  351MOL0     H47324  12.060   1.648  10.349 -2.6504  0.9881  2.0077
  351MOL0     H47325  11.988   1.550  10.487 -0.6406 -1.1959 -0.1335
  351MOL0     H47326  12.233   1.558  10.530  3.0790  0.7039 -1.9483
  351MOL0     H47327  12.164   1.397  10.497 -2.1816 -0.6954 -2.3398
  351MOL0     H47328  12.364   1.403  10.390 -0.1980  0.8766  2.6993
  351MOL0     H47329  12.256   1.423  10.258 -2.5775 -1.6448  2.4203
  351MOL0     H47330  12.307   1.683  10.240  0.2670  0.0833  0.1369
  351MOL0     H47331  12.414   1.655  10.381 -0.3378 -0.7183  1.0320
  351MOL0     H47332  12.508   1.670  10.163 -3.9520 -0.3872 -1.9559
  351MOL0     H47333  12.583   1.538  10.253 -0.3417 -0.4903  0.1555
  351MOL0     H47334  12.351   1.496  10.066 -0.3558  0.7292  0.6956
  351MOL0     H47335  12.471   1.372  10.127  0.3479 -0.9796 -3.2087
  351MOL0     H47336  12.706   1.606  10.011  0.2317  0.0798  0.8228
  351MOL0     H47337  12.916   1.511   9.830  0.4427 -0.3630 -0.5930
  351MOL0     H47338  12.846   1.457   9.681  0.6283 -1.7394  1.8344
  351MOL0     H47339  12.910   1.713   9.666 -0.7989  0.3951 -0.6473
  351MOL0     H47340  12.821   1.728   9.794 -0.6063  0.5479 -1.3022
  351MOL0     H47341  12.703   1.797   9.589  0.2532 -1.6551 -2.7596
  351MOL0     H47342  12.600   1.684   9.657 -0.8009 -0.2794 -0.7898
  351MOL0     H47343  12.680   1.517   9.497  0.6550  0.3206 -0.8588
  351MOL0     H47344  12.805   1.631   9.434 -0.0409  1.4114 -1.5313
  351MOL0     H47345  12.415   1.822   9.284 -0.7887 -0.5260 -1.2802
  351MOL0     H47346  12.055   1.847   9.322 -0.0510 -1.0476  1.3253
  351MOL0     H47347  12.207   1.907   9.246 -0.1133 -1.0814 -1.6088
  351MOL0     H47348  12.130   1.781   9.170  0.1539  0.7454 -1.5540
  351MOL0     H47349  11.777   1.552   9.278  3.5797  0.5027  1.4331
  351MOL0     H47350  11.547   1.572   9.281 -0.6690  0.0601 -0.9155
  351MOL0     H47351  11.442   1.945   9.452 -1.0252  0.0155  3.6687
  351MOL0     H47352  11.349   1.909   9.309 -0.3074  0.1380  0.0722
  351MOL0     H47353  11.143   1.881   9.430 -1.6147  0.6878  2.2704
  351MOL0     H47354  11.234   1.866   9.589 -0.6159  0.6297  0.3498
  351MOL0     H47355  11.279   2.121   9.567  2.9118 -0.3969 -2.1735
  351MOL0     H47356  11.104   2.077   9.564 -0.3294 -4.3010  0.8172
  351MOL0     H47357  11.221   2.248   9.387 -0.0067 -0.6583  0.2039
  351MOL0     H47358  11.251   2.108   9.301  0.0181 -0.7273  0.2755
  351MOL0     H47359  11.006   2.046   9.336  0.6978 -1.3191 -0.5944
  351MOL0     H47360  11.044   2.153   9.212  0.0874  0.3909  0.6931
  351MOL0     H47361  10.843   2.246   9.381 -0.3695 -3.3276  0.9245
  351MOL0     H47362  10.966   2.262   9.490  0.3721  0.4215 -0.0181
  351MOL0     H47363  10.891   2.416   9.250 -0.6456 -2.0804  0.3157
  351MOL0     H47364  11.071   2.407   9.258  1.3415  1.3304  2.4016
  351MOL0     H47365  10.894   2.514   9.481  0.1070  1.9472 -1.7154
  351MOL0     H47366  11.005   2.605   9.396 -1.1744  0.0706 -1.4484
  351MOL0     H47367  11.578   1.865   9.595 -1.6255 -1.3066  0.4343
  351MOL0     H47368  11.808   1.831   9.605 -2.7367  1.5068  1.4203
  351MOL0     H47369  12.246   1.427   9.515  3.3890 -1.6119 -0.9928
  351MOL0     H47370  12.479   1.474   9.535 -3.1113 -2.7194  0.3743
  351MOL0     H47371  11.604   1.605  10.181 -2.2004  1.1774  0.8474
  351MOL0     H47372  11.362   1.556  10.221 -2.3762 -0.6059 -0.0041
  351MOL0     H47373  11.019   1.437  10.295  1.4293 -0.4147  2.3921
  351MOL0     H47374  10.807   1.419  10.388 -1.4958 -0.2075 -0.7795
  351MOL0     H47375  10.606   1.030  10.317  0.9472 -1.8156  0.9281
  351MOL0     H47376  10.596   1.023  10.494  0.4917 -2.4181 -1.6981
  351MOL0     H47377  10.413   1.171  10.307 -0.3236 -1.5005  1.2223
  351MOL0     H47378  10.439   1.225  10.478  0.4970  2.0997 -0.9413
  351MOL0     H47379  10.226   1.069  10.433  0.7145 -0.3426  0.2149
  351MOL0     H47380  10.336   1.012  10.555 -1.8425 -0.4338  0.4057
  351MOL0     H47381  10.269   0.826  10.404 -0.3167 -0.0880 -0.8038
  351MOL0     H47382  10.439   0.857  10.386  0.9754 -1.3157 -2.6673
  351MOL0     H47383  10.351   0.946   9.998 -0.0532 -1.5110 -1.2885
  351MOL0     H47384  10.814   0.987  10.322  1.1335 -0.7600 -0.9536
  351MOL0     H47385  11.032   1.004  10.219 -1.2537 -0.3449  0.3448
  352MOL0     O47386   5.286   5.976   5.376 -0.4263 -0.3582  0.4193
  352MOL0     C47387   5.329   5.871   5.418  0.0718  0.7210  0.1194
  352MOL0     O47388   5.262   5.768   5.480  0.3166 -0.0229  0.0308
  352MOL0     C47389   5.121   5.769   5.486 -0.5163 -0.8108 -0.9036
  352MOL0     C47390   5.072   5.710   5.592 -0.1754 -0.0512 -0.0806
  352MOL0     C47391   4.937   5.703   5.626  0.5293  0.1858  0.2443
  352MOL0     C47392   4.843   5.745   5.528  0.7415 -0.5634 -0.4406
  352MOL0     O47393   4.708   5.756   5.566 -0.3530  0.3548  0.2847
  352MOL0     C47394   4.619   5.820   5.464 -0.1422 -0.9638  0.3217
  352MOL0     C47395   4.485   5.841   5.522  1.2329 -0.0305 -0.2146
  352MOL0     C47396   4.412   5.708   5.558 -0.3308 -0.6090 -0.2704
  352MOL0     C47397   4.272   5.728   5.622 -0.3643 -0.5585  0.1443
  352MOL0     C47398   4.195   5.599   5.659  0.5294  0.1756  0.1390
  352MOL0     C47399   4.054   5.644   5.701 -0.0144 -0.0832 -0.0421
  352MOL0     C47400   3.972   5.520   5.725  0.4691 -0.3941 -0.6561
  352MOL0     C47401   3.839   5.542   5.798  0.2794 -1.1107 -0.0264
  352MOL0     N47402   3.718   5.557   5.711 -0.3936  0.3587 -0.5461
  352MOL0     C47403   3.599   5.541   5.760  1.0164  0.8392  0.3665
  352MOL0     C47404   3.506   5.543   5.654 -0.0555 -0.3330 -0.7225
  352MOL0     C47405   3.360   5.516   5.667 -0.5197  0.9007  0.0792
  352MOL0     C47406   3.278   5.572   5.555  0.4854 -0.5449  0.8071
  352MOL0     C47407   3.125   5.551   5.557 -0.3617  0.3015 -0.3647
  352MOL0     C47408   3.041   5.633   5.446  0.4578  0.1224  0.7151
  352MOL0     O47409   2.904   5.598   5.443 -0.0595  0.3590 -0.0855
  352MOL0     C47410   2.823   5.693   5.384  0.7486  0.2503 -0.3412
  352MOL0     C47411   2.805   5.684   5.244 -0.1105  0.2910 -0.3254
  352MOL0     C47412   2.722   5.779   5.181  0.0515  0.2159 -1.3157
  352MOL0     C47413   2.707   5.763   5.027  0.6763  0.6104  0.3848
  352MOL0     C47414   2.646   5.865   5.266  0.0752  0.5547  0.2290
  352MOL0     C47415   2.552   5.964   5.210  0.2528 -0.3450 -0.3848
  352MOL0     O47416   2.487   6.049   5.301 -0.5872  0.2939  0.6233
  352MOL0     C47417   2.385   6.118   5.239  0.0558  0.0968 -0.0209
  352MOL0     C47418   2.409   6.248   5.196  0.0463  0.3907  0.0522
  352MOL0     C47419   2.297   6.318   5.138 -0.3925  0.1963 -0.1824
  352MOL0     C47420   2.166   6.261   5.127 -0.1699  0.2477 -1.1502
  352MOL0     O47421   2.057   6.313   5.054  0.0915  0.2792 -0.5403
  352MOL0     C47422   2.052   6.452   5.014  0.2860 -0.1873  0.8241
  352MOL0     C47423   1.926   6.475   4.922  0.0426  0.4345 -0.7432
  352MOL0     C47424   1.797   6.505   5.007 -0.6402  0.2861  0.0234
  352MOL0     C47425   1.684   6.548   4.925  0.0961 -0.6877 -0.1726
  352MOL0     C47426   1.554   6.553   5.006  0.0891 -0.5507 -0.2704
  352MOL0     C47427   1.424   6.569   4.925 -0.2948 -0.2372  0.0756
  352MOL0     C47428   1.294   6.578   5.015  0.3480 -0.1881 -0.2291
  352MOL0     C47429   1.171   6.536   4.932 -0.2340 -0.1984  0.1032
  352MOL0    Cl47430   1.119   6.683   4.829  0.2834 -0.0958 -0.2385
  352MOL0     C47431   2.147   6.137   5.189 -0.3329  0.2076  0.2482
  352MOL0     C47432   2.249   6.064   5.242 -0.5021  0.7984  0.7083
  352MOL0     O47433   2.512   5.947   5.096  0.0947 -0.0609  0.1527
  352MOL0     C47434   2.650   5.859   5.407 -0.2770  0.6096  0.7590
  352MOL0     C47435   2.741   5.771   5.463  0.3342 -0.3397  1.7425
  352MOL0     N47436   3.587   5.554   5.548 -0.7747  0.1723 -0.4087
  352MOL0     N47437   3.709   5.572   5.577  0.3391 -0.9819  0.3841
  352MOL0     C47438   4.890   5.795   5.408 -1.2967 -1.1604 -0.1521
  352MOL0     C47439   5.032   5.808   5.386  1.0490  0.1922  0.1317
  352MOL0     C47440   5.470   5.856   5.430 -0.5129 -0.0022  0.6197
  352MOL0     C47441   5.529   5.763   5.522 -0.4065  1.0249 -0.1427
  352MOL0     C47442   5.664   5.742   5.532 -0.2082  0.1134  0.1554
  352MOL0     C47443   5.745   5.814   5.440 -0.0057  0.4486  0.2823
  352MOL0     O47444   5.879   5.789   5.456 -0.0557 -0.7193  0.3192
  352MOL0     C47445   5.974   5.843   5.363  0.6008 -0.7437  0.7810
  352MOL0     C47446   6.108   5.803   5.404 -0.2575  0.1064 -1.0324
  352MOL0     C47447   6.115   5.654   5.418 -0.7471 -0.1077 -0.2064
  352MOL0     C47448   6.260   5.609   5.432 -0.6265 -0.1810 -0.3539
  352MOL0     C47449   6.348   5.625   5.307 -0.2042  0.1693 -0.2247
  352MOL0     C47450   6.416   5.650   5.210 -0.1694 -0.0376 -0.1065
  352MOL0     C47451   5.694   5.916   5.356 -0.6262  0.0801  0.5345
  352MOL0     C47452   5.559   5.937   5.356 -0.1296 -0.9271 -0.5167
  352MOL0     H47453   5.134   5.671   5.672  1.2585  0.1296 -1.0757
  352MOL0     H47454   4.899   5.648   5.711  0.7673  2.1759  1.6964
  352MOL0     H47455   4.655   5.920   5.440 -1.0903 -0.3185  1.5228
  352MOL0     H47456   4.613   5.755   5.376  0.7880 -0.6228 -0.0103
  352MOL0     H47457   4.489   5.905   5.610  0.7337  0.1200 -0.2963
  352MOL0     H47458   4.414   5.887   5.451  0.3858  0.0949  0.6898
  352MOL0     H47459   4.402   5.636   5.475  0.0911 -3.2814  1.8481
  352MOL0     H47460   4.479   5.659   5.628  0.8211  1.7009  0.3216
  352MOL0     H47461   4.289   5.791   5.711  3.1403 -2.0220  0.6834
  352MOL0     H47462   4.210   5.780   5.548  1.1728  3.8452  1.5721
  352MOL0     H47463   4.195   5.539   5.568  4.5109 -1.4937  1.0363
  352MOL0     H47464   4.246   5.539   5.736 -0.9881 -1.1380  0.1769
  352MOL0     H47465   4.070   5.692   5.797 -1.1426  0.0222  0.1110
  352MOL0     H47466   4.000   5.713   5.635  2.0300  1.3757 -0.2704
  352MOL0     H47467   3.956   5.469   5.629  0.0636 -1.0635 -0.2426
  352MOL0     H47468   4.023   5.445   5.786 -0.5307 -0.8417 -0.3398
  352MOL0     H47469   3.851   5.628   5.865 -0.7087  0.8350 -2.2100
  352MOL0     H47470   3.818   5.447   5.848  1.0020 -0.0587  2.4663
  352MOL0     H47471   3.581   5.499   5.858 -1.8672 -1.9961 -1.1686
  352MOL0     H47472   3.337   5.410   5.651 -0.5333  0.7372  1.1311
  352MOL0     H47473   3.332   5.555   5.765  1.1778  0.6770  0.6934
  352MOL0     H47474   3.314   5.541   5.457  0.9537  0.7243  0.5527
  352MOL0     H47475   3.293   5.680   5.565  1.2614 -0.6717  1.0822
  352MOL0     H47476   3.074   5.589   5.646 -3.0399  0.9685 -2.0681
  352MOL0     H47477   3.113   5.442   5.559  3.9184 -0.3401  1.8205
  352MOL0     H47478   3.085   5.617   5.348 -1.8156 -1.6698 -0.1138
  352MOL0     H47479   3.045   5.739   5.473 -0.2577 -0.2825  2.6055
  352MOL0     H47480   2.865   5.626   5.174 -0.2610  0.8037 -0.8822
  352MOL0     H47481   2.623   5.697   5.005  1.8342 -1.0655  0.8051
  352MOL0     H47482   2.697   5.854   4.966 -1.8442 -0.0880 -0.3720
  352MOL0     H47483   2.788   5.702   4.985 -0.7674 -1.3908  0.3622
  352MOL0     H47484   2.504   6.295   5.218  1.5579 -2.5788  0.4541
  352MOL0     H47485   2.317   6.412   5.088  1.0223  0.3357  0.5879
  352MOL0     H47486   2.045   6.522   5.098 -2.8359  1.3495 -0.5452
  352MOL0     H47487   2.148   6.475   4.968  1.9732  0.8314  4.4485
  352MOL0     H47488   1.945   6.559   4.855 -0.6098  0.8047 -0.4698
  352MOL0     H47489   1.907   6.391   4.855  0.9950  0.6759 -1.3333
  352MOL0     H47490   1.818   6.580   5.083  1.5748  0.7111 -0.9481
  352MOL0     H47491   1.780   6.415   5.067 -2.5253  0.0820 -0.7312
  352MOL0     H47492   1.713   6.647   4.889 -0.7700 -0.4266 -0.1952
  352MOL0     H47493   1.664   6.488   4.836 -1.5179 -0.1260 -0.2285
  352MOL0     H47494   1.562   6.638   5.075  2.7035 -0.8264 -0.1496
  352MOL0     H47495   1.544   6.461   5.063 -3.8019 -0.4455 -0.4823
  352MOL0     H47496   1.430   6.663   4.870  2.1550 -1.0275 -1.1505
  352MOL0     H47497   1.408   6.494   4.848 -0.8645  0.5146 -0.5584
  352MOL0     H47498   1.286   6.674   5.067  3.2749 -0.8601  1.7425
  352MOL0     H47499   1.313   6.511   5.099 -1.5169  0.7562  0.9982
  352MOL0     H47500   1.088   6.511   4.999  0.0819 -0.9752  0.2204
  352MOL0     H47501   1.195   6.446   4.875  2.6446  0.6506 -0.2090
  352MOL0     H47502   2.053   6.083   5.180  0.2595 -0.9086  0.4964
  352MOL0     H47503   2.229   5.967   5.287  3.6603 -0.5070  0.1542
  352MOL0     H47504   2.588   5.911   5.480  1.1009  2.4028  0.7250
  352MOL0     H47505   2.742   5.777   5.572 -0.9251  3.8710  1.6824
  352MOL0     H47506   4.829   5.838   5.329  0.4376  0.8005 -0.5278
  352MOL0     H47507   5.062   5.846   5.288  2.2178 -1.9855 -0.4151
  352MOL0     H47508   5.473   5.694   5.585 -1.4823 -1.2277 -3.2930
  352MOL0     H47509   5.701   5.665   5.599 -2.2893 -0.4242  0.7605
  352MOL0     H47510   5.959   5.795   5.266 -2.8896 -0.2982  0.9880
  352MOL0     H47511   5.982   5.952   5.361  2.6313 -0.8620 -0.3010
  352MOL0     H47512   6.128   5.848   5.502  2.2792 -0.3407 -1.2900
  352MOL0     H47513   6.183   5.844   5.336  1.2686  0.7857  0.9731
  352MOL0     H47514   6.069   5.599   5.335 -0.3055 -0.4282 -0.2460
  352MOL0     H47515   6.067   5.626   5.512  0.6286 -1.6743  0.0739
  352MOL0     H47516   6.274   5.505   5.462  0.7739 -0.1976 -1.0223
  352MOL0     H47517   6.313   5.651   5.518 -1.8363 -0.1443  0.4077
  352MOL0     H47518   6.470   5.648   5.118 -0.7662  0.8647 -0.4930
  352MOL0     H47519   5.767   5.971   5.297  0.3094  0.3964  1.9555
  352MOL0     H47520   5.525   6.019   5.293 -0.9040 -2.0964 -1.6557
  353MOL0     O47521   8.191   3.988   1.078 -0.5007  0.4191 -0.7140
  353MOL0     C47522   8.299   3.961   1.131 -0.2216  0.3516  0.0063
  353MOL0     O47523   8.401   3.893   1.067 -0.0892 -0.6065 -0.2291
  353MOL0     C47524   8.410   3.877   0.934  0.1513  0.1834 -0.4510
  353MOL0     C47525   8.301   3.874   0.848 -0.3570  0.3174  0.6230
  353MOL0     C47526   8.329   3.856   0.707 -0.8107 -0.0220 -0.3664
  353MOL0     C47527   8.460   3.845   0.658 -0.3813  0.5602  0.4099
  353MOL0     O47528   8.466   3.819   0.526  0.2201  0.6402 -0.1812
  353MOL0     C47529   8.583   3.820   0.454 -0.9394  0.3821  0.1946
  353MOL0     C47530   8.549   3.763   0.313  0.2336 -0.5684  0.2899
  353MOL0     C47531   8.440   3.841   0.247 -0.0108  0.5194  0.3736
  353MOL0     C47532   8.411   3.771   0.109  0.0141 -0.0050 -0.1145
  353MOL0     C47533   8.293   3.833   0.034  0.6731  0.8235  0.2983
  353MOL0     C47534   8.150   3.780   0.069 -0.2243  0.4188  0.0015
  353MOL0     C47535   8.045   3.831  -0.031  0.8252  0.5708  0.1449
  353MOL0     C47536   7.922   3.744  -0.038 -0.0302 -0.0182 -0.3286
  353MOL0     N47537   7.823   3.801  -0.129 -0.0593  0.0271  0.4270
  353MOL0     C47538   7.698   3.847  -0.090  0.2820  0.4717  0.0391
  353MOL0     C47539   7.644   3.895  -0.205  0.0432 -0.2784 -0.0797
  353MOL0     C47540   7.509   3.952  -0.221  0.6130 -0.0287 -0.0121
  353MOL0     C47541   7.525   4.104  -0.209  0.3456  1.0265  0.3085
  353MOL0     C47542   7.396   4.179  -0.243 -0.0849 -0.7261 -0.0753
  353MOL0     C47543   7.280   4.159  -0.152 -0.2209  0.8372 -0.2014
  353MOL0     O47544   7.185   4.058  -0.201 -0.5264  0.2687  0.4625
  353MOL0     C47545   7.057   4.073  -0.169  0.3642 -0.4589 -0.7019
  353MOL0     C47546   6.962   4.091  -0.269 -0.0966  0.8744 -0.5765
  353MOL0     C47547   6.829   4.125  -0.251  0.8176 -1.0397  0.5096
  353MOL0     C47548   6.740   4.155  -0.372  0.6533 -0.4067 -0.1095
  353MOL0     C47549   6.775   4.136  -0.113 -0.8770 -0.4598 -0.5661
  353MOL0     C47550   6.645   4.191  -0.085  0.6270  0.2931  0.5104
  353MOL0     O47551   6.565   4.104  -0.032  0.0715  0.0363 -0.2398
  353MOL0     C47552   6.431   4.132   0.010 -0.5157 -0.4456 -0.1373
  353MOL0     C47553   6.332   4.172  -0.081  1.2398 -1.8129 -0.3545
  353MOL0     C47554   6.208   4.226  -0.042  0.0961  0.1324  0.2740
  353MOL0     C47555   6.172   4.217   0.100 -0.0074  0.0495  0.8032
  353MOL0     O47556   6.037   4.241   0.131  1.0784  0.5743 -0.1172
  353MOL0     C47557   6.014   4.322   0.249  0.2104 -0.2388  0.5904
  353MOL0     C47558   5.878   4.386   0.254  0.2093  0.6188  0.6041
  353MOL0     C47559   5.775   4.281   0.291 -0.0829 -0.2663  0.0931
  353MOL0     C47560   5.634   4.336   0.322 -0.3952  0.6394 -0.5891
  353MOL0     C47561   5.546   4.215   0.326 -0.3871  0.2005 -0.8148
  353MOL0     C47562   5.399   4.250   0.326 -0.1267  0.1457  1.3659
  353MOL0     C47563   5.305   4.133   0.326  0.6132  0.5006 -1.3604
  353MOL0     C47564   5.151   4.170   0.322  0.6080 -0.2767  0.1951
  353MOL0    Cl47565   5.070   4.004   0.304 -0.0173  0.1362 -0.0811
  353MOL0     C47566   6.271   4.168   0.187  0.3489 -0.1941 -0.0219
  353MOL0     C47567   6.392   4.114   0.138 -0.7872  1.0461  0.0419
  353MOL0     O47568   6.612   4.306  -0.124 -0.4469 -0.9674  0.3631
  353MOL0     C47569   6.872   4.116  -0.014  0.1143 -0.0541 -0.4955
  353MOL0     C47570   7.013   4.084  -0.041  1.3144 -0.2135  0.5418
  353MOL0     N47571   7.742   3.883  -0.304 -0.3758 -0.4691  0.0420
  353MOL0     N47572   7.852   3.831  -0.261 -0.5674 -0.4058  0.0692
  353MOL0     C47573   8.564   3.862   0.745 -0.3815  0.1992  0.0648
  353MOL0     C47574   8.546   3.870   0.880  0.6443  0.3064 -0.0484
  353MOL0     C47575   8.312   4.005   1.272  0.0269  0.1734 -0.0133
  353MOL0     C47576   8.426   3.988   1.343  0.0124  0.4341  0.1311
  353MOL0     C47577   8.446   4.030   1.474 -0.3613 -0.6766  0.3198
  353MOL0     C47578   8.351   4.110   1.535  0.4665 -0.4575 -0.5406
  353MOL0     O47579   8.362   4.178   1.664 -0.3159  0.0292  0.2000
  353MOL0     C47580   8.491   4.171   1.727  0.2937 -0.7093 -0.2952
  353MOL0     C47581   8.598   4.253   1.648 -0.0146 -1.3001  0.6556
  353MOL0     C47582   8.575   4.411   1.626  0.2921  0.3874  0.1587
  353MOL0     C47583   8.693   4.499   1.583 -0.2559 -0.5599  0.3750
  353MOL0     C47584   8.729   4.461   1.441  0.0080  0.0469 -1.3768
  353MOL0     C47585   8.755   4.433   1.322 -0.4950  0.1079 -0.3610
  353MOL0     C47586   8.240   4.135   1.466  0.2163 -0.1642  0.4503
  353MOL0     C47587   8.214   4.081   1.339 -0.4055  0.3108  0.8406
  353MOL0     H47588   8.199   3.873   0.886 -0.1675 -1.2522  1.1672
  353MOL0     H47589   8.245   3.859   0.638  0.8016  2.4629 -2.4251
  353MOL0     H47590   8.621   3.922   0.447  0.7512 -0.3221 -2.0160
  353MOL0     H47591   8.661   3.761   0.503 -3.0153 -1.7422  1.1807
  353MOL0     H47592   8.634   3.784   0.248 -0.6123 -0.7309 -0.8962
  353MOL0     H47593   8.527   3.656   0.322  2.2314 -1.0858 -0.5085
  353MOL0     H47594   8.348   3.834   0.305 -0.6443 -4.8676 -0.7433
  353MOL0     H47595   8.477   3.944   0.237  0.9721 -0.0290 -3.6524
  353MOL0     H47596   8.502   3.783   0.050  0.4932  1.8074  0.9171
  353MOL0     H47597   8.397   3.664   0.128  0.5775 -0.4625 -2.0553
  353MOL0     H47598   8.289   3.940   0.054 -3.6413  0.4865  2.2606
  353MOL0     H47599   8.302   3.815  -0.074 -0.7905  0.8670  0.1457
  353MOL0     H47600   8.145   3.671   0.067  1.2227  0.3255  0.6109
  353MOL0     H47601   8.132   3.807   0.173  0.1983 -1.1945  0.5177
  353MOL0     H47602   8.006   3.932  -0.013 -0.2592  0.4717 -1.4339
  353MOL0     H47603   8.085   3.834  -0.132 -2.3281  1.7832 -1.2179
  353MOL0     H47604   7.883   3.723   0.063 -1.8063 -2.1311 -1.3613
  353MOL0     H47605   7.950   3.648  -0.083 -2.2794 -1.5384  1.2502
  353MOL0     H47606   7.644   3.846   0.004  2.3187  1.4215  1.2866
  353MOL0     H47607   7.477   3.927  -0.322  3.9543 -1.4352 -0.8703
  353MOL0     H47608   7.437   3.920  -0.146 -0.3347  2.5862  0.2903
  353MOL0     H47609   7.602   4.139  -0.278  2.6963  0.0165  2.2622
  353MOL0     H47610   7.562   4.121  -0.107  2.2750  0.4817 -0.2517
  353MOL0     H47611   7.353   4.148  -0.338  1.7980 -1.4983 -0.7325
  353MOL0     H47612   7.424   4.283  -0.261  0.9838 -0.4271  2.7512
  353MOL0     H47613   7.238   4.259  -0.140 -0.5736  0.8149 -1.1280
  353MOL0     H47614   7.320   4.134  -0.054  2.0045 -4.1276 -2.0077
  353MOL0     H47615   7.002   4.085  -0.369  0.1386  2.5451 -0.6136
  353MOL0     H47616   6.797   4.138  -0.464 -2.0026  2.4262 -2.5059
  353MOL0     H47617   6.661   4.081  -0.380 -1.8777  2.0474  0.3974
  353MOL0     H47618   6.693   4.253  -0.384 -0.8649 -1.0580  0.3682
  353MOL0     H47619   6.362   4.177  -0.185 -1.3700 -0.4577 -1.1254
  353MOL0     H47620   6.147   4.279  -0.114 -0.7994  1.3443  1.8563
  353MOL0     H47621   6.030   4.267   0.343 -1.9639 -3.6737 -0.8521
  353MOL0     H47622   6.082   4.406   0.232 -1.0921  0.6130 -0.5289
  353MOL0     H47623   5.877   4.467   0.327 -1.0025  0.8341  0.3592
  353MOL0     H47624   5.852   4.432   0.159  0.8979  1.1924  0.6796
  353MOL0     H47625   5.803   4.228   0.382 -1.6027 -1.3696 -0.0323
  353MOL0     H47626   5.764   4.204   0.214 -1.3560  0.0333 -0.0473
  353MOL0     H47627   5.625   4.384   0.420  3.7153 -2.9107  1.9066
  353MOL0     H47628   5.607   4.407   0.243 -2.9226 -2.5984 -2.8935
  353MOL0     H47629   5.574   4.159   0.415 -1.0926  2.8588  1.2018
  353MOL0     H47630   5.567   4.148   0.242  2.8402  0.5288 -0.4017
  353MOL0     H47631   5.392   4.297   0.425 -0.7617 -1.0611  1.9163
  353MOL0     H47632   5.375   4.329   0.254 -1.8714 -0.7335  0.9519
  353MOL0     H47633   5.317   4.071   0.415 -3.0731 -0.8467 -1.6337
  353MOL0     H47634   5.329   4.066   0.243  0.7968 -0.9974 -0.1357
  353MOL0     H47635   5.135   4.234   0.235 -0.9424 -1.0829 -0.1552
  353MOL0     H47636   5.132   4.212   0.421  3.3787  1.3284  0.1436
  353MOL0     H47637   6.244   4.155   0.291  0.6857  0.5397  0.1598
  353MOL0     H47638   6.472   4.079   0.202  1.4749  1.4726 -2.3621
  353MOL0     H47639   6.845   4.141   0.089  0.7789  2.2059 -0.8161
  353MOL0     H47640   7.082   4.074   0.043  0.2106  1.4269  1.7110
  353MOL0     H47641   8.667   3.853   0.711 -0.1802 -1.7019  1.0543
  353MOL0     H47642   8.638   3.866   0.938 -0.6065  0.2392  2.0623
  353MOL0     H47643   8.497   3.931   1.284 -2.6455 -1.8429 -1.0859
  353MOL0     H47644   8.546   3.999   1.504 -0.9241 -3.7165 -0.5557
  353MOL0     H47645   8.473   4.230   1.817  2.7226 -2.3782  1.4331
  353MOL0     H47646   8.517   4.067   1.748 -0.2204 -1.0085 -1.0838
  353MOL0     H47647   8.625   4.204   1.555  0.5795 -0.9460  0.6351
  353MOL0     H47648   8.691   4.253   1.706  0.2227  0.1763  0.3095
  353MOL0     H47649   8.528   4.459   1.712 -3.5596  0.1836 -1.6334
  353MOL0     H47650   8.499   4.419   1.547 -1.8799  3.8778  2.3249
  353MOL0     H47651   8.781   4.488   1.647  0.9622 -1.3796 -1.3441
  353MOL0     H47652   8.674   4.606   1.587 -2.6676 -0.9650  1.9410
  353MOL0     H47653   8.798   4.420   1.224  0.3479 -0.6305  0.0816
  353MOL0     H47654   8.161   4.198   1.505 -0.0065  1.7255 -2.6841
  353MOL0     H47655   8.124   4.114   1.288 -0.8436 -0.3692  1.1762
  354MOL0     O47656   5.406  10.197   6.752 -0.1282 -0.0746 -0.0822
  354MOL0     C47657   5.437  10.089   6.792 -0.2514  0.7188 -0.5003
  354MOL0     O47658   5.441  10.051   6.926  0.5531 -0.1662 -0.1998
  354MOL0     C47659   5.410  10.144   7.020  1.3579 -0.1551 -0.0918
  354MOL0     C47660   5.513  10.227   7.070 -0.5436 -1.0149 -0.7903
  354MOL0     C47661   5.481  10.324   7.167  0.1742  0.1110  0.7943
  354MOL0     C47662   5.353  10.345   7.208  0.7772  0.1891  0.2173
  354MOL0     O47663   5.336  10.452   7.294 -0.1561 -0.6566  0.2888
  354MOL0     C47664   5.209  10.495   7.346  0.2452  1.0879 -0.6716
  354MOL0     C47665   5.131  10.596   7.258  0.6242  0.9642 -0.6754
  354MOL0     C47666   4.994  10.621   7.318  0.2078  0.4643  0.2530
  354MOL0     C47667   4.883  10.657   7.217 -0.2473  0.1151 -0.3914
  354MOL0     C47668   4.767  10.708   7.292  1.0111 -0.1509  0.2727
  354MOL0     C47669   4.656  10.767   7.197 -0.4898  0.2261  0.2316
  354MOL0     C47670   4.525  10.823   7.269 -0.9971 -0.4283  0.8970
  354MOL0     C47671   4.541  10.933   7.377 -0.1619  0.0965 -0.1966
  354MOL0     N47672   4.406  10.963   7.428  0.3349 -0.5551  0.1710
  354MOL0     C47673   4.350  10.908   7.541 -0.0387 -0.1438  0.0030
  354MOL0     C47674   4.229  10.962   7.541 -0.6130 -0.7428  0.6891
  354MOL0     C47675   4.130  10.916   7.639  0.2294 -0.9671  0.6712
  354MOL0     C47676   3.995  10.888   7.572  0.6095  0.3151 -0.1302
  354MOL0     C47677   3.883  10.834   7.664  0.0753  0.1528 -0.3165
  354MOL0     C47678   3.746  10.866   7.621 -0.0035 -0.1511  1.0017
  354MOL0     O47679   3.726  10.830   7.484 -0.1832 -0.3517  1.0456
  354MOL0     C47680   3.621  10.755   7.462 -0.5457  0.2049  1.3197
  354MOL0     C47681   3.492  10.806   7.473  0.7328  0.4116 -0.6980
  354MOL0     C47682   3.376  10.739   7.433 -0.1151 -0.0043 -0.4412
  354MOL0     C47683   3.248  10.816   7.463 -0.9308  0.6911 -0.2016
  354MOL0     C47684   3.398  10.620   7.365  0.3218 -0.0790  0.4598
  354MOL0     C47685   3.283  10.550   7.308  0.4908  0.8462  0.0875
  354MOL0     O47686   3.318  10.420   7.281  0.2727 -0.4571 -0.1859
  354MOL0     C47687   3.234  10.347   7.204 -0.2577 -0.4809  0.0484
  354MOL0     C47688   3.194  10.230   7.246 -0.1974 -0.1030  0.2324
  354MOL0     C47689   3.123  10.142   7.162  0.4319 -0.9873 -0.5186
  354MOL0     C47690   3.078  10.178   7.032  0.0244  0.0229  0.5314
  354MOL0     O47691   3.018  10.099   6.938  0.4495  0.4942 -0.1333
  354MOL0     C47692   3.060   9.962   6.935 -0.8438  0.1283 -0.4758
  354MOL0     C47693   2.950   9.866   6.982 -0.3534  0.9855 -0.4515
  354MOL0     C47694   2.854   9.847   6.861  0.3836  0.7659 -0.1444
  354MOL0     C47695   2.764   9.729   6.883 -0.4046 -0.2934 -0.6274
  354MOL0     C47696   2.639   9.722   6.795  0.0218  0.1023 -0.1930
  354MOL0     C47697   2.573   9.583   6.804 -0.7411  0.0412  0.0758
  354MOL0     C47698   2.439   9.596   6.756 -0.0651  0.0553 -0.2207
  354MOL0     C47699   2.363   9.469   6.732 -0.1973  0.0220 -0.8217
  354MOL0    Cl47700   2.448   9.366   6.594 -0.4146  0.1095 -0.0789
  354MOL0     C47701   3.096  10.307   7.004 -0.5138 -0.1340  0.2704
  354MOL0     C47702   3.180  10.395   7.081  0.0560  0.2124  0.0252
  354MOL0     O47703   3.173  10.594   7.285  0.4708  0.3429  0.0209
  354MOL0     C47704   3.529  10.563   7.351  0.2913  0.8887 -0.8062
  354MOL0     C47705   3.642  10.633   7.396 -0.0377 -0.6389  0.0835
  354MOL0     N47706   4.219  11.062   7.443  0.5103 -0.2529 -0.4027
  354MOL0     N47707   4.325  11.063   7.375  0.1154  0.8251 -0.9851
  354MOL0     C47708   5.249  10.260   7.160  0.0513 -0.7626 -0.8383
  354MOL0     C47709   5.277  10.161   7.063  0.1521  0.4298 -0.4232
  354MOL0     C47710   5.507  10.005   6.698 -0.0193 -0.3350  0.8365
  354MOL0     C47711   5.478  10.028   6.557 -0.1026 -0.3637 -0.5115
  354MOL0     C47712   5.538   9.953   6.455  0.8246 -0.0708  0.1880
  354MOL0     C47713   5.628   9.859   6.487 -0.5923  0.4188  1.0253
  354MOL0     O47714   5.708   9.785   6.403 -0.0647 -0.2307  0.0882
  354MOL0     C47715   5.681   9.782   6.264 -0.0756 -1.0226 -0.6844
  354MOL0     C47716   5.751   9.892   6.175  0.0790 -0.4468 -0.3390
  354MOL0     C47717   5.879   9.956   6.249 -0.2061 -0.3047 -0.6192
  354MOL0     C47718   6.003   9.877   6.237 -0.2903 -0.2381 -0.5352
  354MOL0     C47719   6.009   9.781   6.347 -0.1106  0.3615 -0.5186
  354MOL0     C47720   5.996   9.705   6.442  0.2722 -0.2059 -0.2840
  354MOL0     C47721   5.659   9.833   6.620 -0.8176  0.0948  0.6339
  354MOL0     C47722   5.599   9.902   6.730 -0.1945  0.5069  0.5087
  354MOL0     H47723   5.613  10.198   7.039  0.3888  0.1679  0.9710
  354MOL0     H47724   5.563  10.388   7.199  0.8796  1.3305 -2.9396
  354MOL0     H47725   5.148  10.406   7.364  0.5887  0.9500 -0.1712
  354MOL0     H47726   5.223  10.526   7.450 -3.5497 -0.6562  0.5477
  354MOL0     H47727   5.189  10.688   7.244  2.1644 -0.2787 -3.2635
  354MOL0     H47728   5.115  10.551   7.160  1.3615  4.3863 -2.5321
  354MOL0     H47729   4.957  10.533   7.371 -1.4621  0.7969 -0.3050
  354MOL0     H47730   5.008  10.708   7.382 -0.9249  1.1445 -0.3795
  354MOL0     H47731   4.925  10.735   7.153 -3.2585 -0.5695 -3.5207
  354MOL0     H47732   4.877  10.567   7.156  0.3576  0.2774 -0.6913
  354MOL0     H47733   4.708  10.637   7.349 -0.2712 -0.0057 -0.8140
  354MOL0     H47734   4.790  10.788   7.364 -0.7482  1.2865 -0.6793
  354MOL0     H47735   4.701  10.849   7.141 -0.8342 -0.2811 -0.8247
  354MOL0     H47736   4.621  10.682   7.137  0.0485 -0.6121  1.0898
  354MOL0     H47737   4.467  10.872   7.190  2.8051  1.2772 -1.0914
  354MOL0     H47738   4.474  10.742   7.321  0.6479 -0.7008  2.1633
  354MOL0     H47739   4.580  11.023   7.330  1.0963  1.9984  4.0198
  354MOL0     H47740   4.605  10.905   7.462 -0.2787  1.9090  0.5277
  354MOL0     H47741   4.389  10.820   7.591  1.1858  1.0365  1.1865
  354MOL0     H47742   4.155  10.828   7.699  1.8218 -0.4210  0.8570
  354MOL0     H47743   4.116  10.998   7.710 -2.8377  0.2898 -1.1920
  354MOL0     H47744   4.018  10.811   7.499 -2.6034 -0.0051 -0.9439
  354MOL0     H47745   3.965  10.977   7.515 -1.4695 -0.0042  0.3930
  354MOL0     H47746   3.908  10.869   7.764  1.5576  2.5842 -1.4348
  354MOL0     H47747   3.894  10.726   7.674  0.8112 -0.0317 -2.4084
  354MOL0     H47748   3.738  10.975   7.623  0.6498 -0.1014  2.3912
  354MOL0     H47749   3.683  10.809   7.691  1.6315 -2.3568  0.7941
  354MOL0     H47750   3.490  10.901   7.525  0.7752  0.0647 -0.0491
  354MOL0     H47751   3.172  10.741   7.485 -3.2008  2.4987 -1.4338
  354MOL0     H47752   3.256  10.881   7.551 -1.9549  0.5378  0.0159
  354MOL0     H47753   3.221  10.869   7.371 -2.8334 -1.6942 -1.1071
  354MOL0     H47754   3.230  10.190   7.340  0.1634 -0.3145  0.0050
  354MOL0     H47755   3.083  10.059   7.219 -0.8265  0.3428  0.6159
  354MOL0     H47756   3.086   9.929   6.834  0.0476 -1.6132  0.2643
  354MOL0     H47757   3.150   9.957   6.998 -2.1435  2.6825  1.7502
  354MOL0     H47758   3.002   9.775   7.012  0.0233  1.6866  1.1696
  354MOL0     H47759   2.911   9.897   7.080  2.7150 -0.5443  1.4227
  354MOL0     H47760   2.900   9.810   6.769  0.9090 -0.9381  0.7582
  354MOL0     H47761   2.789   9.933   6.843  2.0486  2.5836  2.0026
  354MOL0     H47762   2.824   9.641   6.859 -0.5168 -1.7521  3.6320
  354MOL0     H47763   2.733   9.730   6.988 -2.3973 -0.6150 -1.1570
  354MOL0     H47764   2.667   9.736   6.691 -0.5916  0.3078 -0.3361
  354MOL0     H47765   2.570   9.801   6.825 -3.4754 -3.4864  2.2885
  354MOL0     H47766   2.629   9.508   6.747  0.7904 -0.1392  1.7267
  354MOL0     H47767   2.567   9.555   6.910  0.1086  0.6445  0.2996
  354MOL0     H47768   2.432   9.640   6.656  2.2408  0.0753 -0.4382
  354MOL0     H47769   2.380   9.662   6.819 -0.0235 -0.1851  0.0730
  354MOL0     H47770   2.258   9.487   6.707 -0.6207 -1.0147  0.1127
  354MOL0     H47771   2.366   9.403   6.819  2.0059  1.3761  0.2160
  354MOL0     H47772   3.062  10.346   6.908  1.2192  1.2415  0.1718
  354MOL0     H47773   3.200  10.498   7.054  1.1473  0.3638  1.2983
  354MOL0     H47774   3.552  10.479   7.287  1.3897 -0.6259  1.4312
  354MOL0     H47775   3.740  10.594   7.372  0.0307  0.2662 -1.2016
  354MOL0     H47776   5.148  10.274   7.196  0.9354  5.4757  0.3561
  354MOL0     H47777   5.208  10.080   7.045 -0.4867  0.2553  2.4368
  354MOL0     H47778   5.418  10.109   6.516 -1.5063  0.2965  2.5626
  354MOL0     H47779   5.506   9.966   6.352 -2.4985  3.4748  1.3681
  354MOL0     H47780   5.721   9.690   6.220  2.7500  0.1349 -0.6813
  354MOL0     H47781   5.574   9.767   6.242  0.2690 -3.2183 -1.1191
  354MOL0     H47782   5.677   9.969   6.155 -0.3075 -0.7911 -0.2502
  354MOL0     H47783   5.785   9.853   6.078  0.8310 -0.0147 -0.2553
  354MOL0     H47784   5.848   9.969   6.353 -1.0881  1.2810 -1.0360
  354MOL0     H47785   5.903  10.056   6.212  3.1789 -1.3080 -1.4470
  354MOL0     H47786   6.092   9.940   6.247  0.4221 -1.3607  0.3116
  354MOL0     H47787   6.009   9.835   6.136  0.1698 -1.9110  0.1560
  354MOL0     H47788   5.980   9.646   6.529  2.0369 -3.6311 -2.1045
  354MOL0     H47789   5.739   9.762   6.641 -1.1554 -1.2938 -2.2514
  354MOL0     H47790   5.619   9.882   6.834 -1.5488 -0.6543  0.5664
  355MOL0     O47791   7.865   9.622   8.840 -0.1457 -0.5109 -0.2537
  355MOL0     C47792   7.964   9.694   8.818  0.9683  0.3196 -0.8278
  355MOL0     O47793   7.952   9.813   8.773 -0.5486 -0.1933  0.5298
  355MOL0     C47794   7.835   9.879   8.739 -0.4909 -0.1450 -0.3188
  355MOL0     C47795   7.702   9.835   8.726  0.3165  0.2610  0.1778
  355MOL0     C47796   7.599   9.920   8.690  0.0465 -0.1285  0.2382
  355MOL0     C47797   7.632  10.054   8.665  0.2439 -0.9576 -1.0618
  355MOL0     O47798   7.545  10.147   8.616  0.7685 -0.4499 -0.0180
  355MOL0     C47799   7.431  10.093   8.549  0.5025 -0.1182  0.0004
  355MOL0     C47800   7.381  10.205   8.454 -0.7258 -0.1767  0.1851
  355MOL0     C47801   7.228  10.178   8.427 -0.2265 -0.4737  0.2022
  355MOL0     C47802   7.170  10.286   8.337 -0.4568 -0.5147  0.8373
  355MOL0     C47803   7.019  10.271   8.331 -0.7086  0.4324 -0.0524
  355MOL0     C47804   6.963  10.323   8.204 -0.2875 -0.4581  0.3232
  355MOL0     C47805   6.808  10.329   8.193 -0.1647 -0.0000 -0.2373
  355MOL0     C47806   6.722  10.403   8.306 -0.6600  0.1312 -0.0925
  355MOL0     N47807   6.619  10.493   8.266  0.6463 -0.3708  0.0328
  355MOL0     C47808   6.502  10.456   8.207 -0.7088 -0.3361  0.7026
  355MOL0     C47809   6.436  10.574   8.194  0.0266  0.1440 -0.0775
  355MOL0     C47810   6.311  10.609   8.124  0.3363  0.4159 -1.2269
  355MOL0     C47811   6.176  10.583   8.205 -0.3637 -0.1385  0.3608
  355MOL0     C47812   6.165  10.433   8.251  0.3155 -0.6477  0.0154
  355MOL0     C47813   6.057  10.433   8.365  0.1809  0.0803 -1.0861
  355MOL0     O47814   6.066  10.303   8.420  0.1405 -0.2512 -0.6207
  355MOL0     C47815   5.966  10.272   8.504 -0.1901 -0.7425 -0.1910
  355MOL0     C47816   5.934  10.142   8.506  0.5746 -0.6057  1.0635
  355MOL0     C47817   5.834  10.090   8.588 -0.3682  0.3977 -0.0511
  355MOL0     C47818   5.801   9.940   8.579 -0.0296 -0.6390 -0.0154
  355MOL0     C47819   5.763  10.175   8.677 -0.2859 -1.1093 -0.5268
  355MOL0     C47820   5.667  10.132   8.778 -0.4168 -0.4319 -0.1646
  355MOL0     O47821   5.677  10.005   8.841 -0.2311  0.3311 -0.1014
  355MOL0     C47822   5.575   9.950   8.911 -0.1444 -0.0421  0.9997
  355MOL0     C47823   5.598   9.883   9.030 -0.7077  0.2574  0.7391
  355MOL0     C47824   5.498   9.816   9.095 -0.2289  0.1211  0.6705
  355MOL0     C47825   5.366   9.817   9.052  0.6144 -0.6580  0.6841
  355MOL0     O47826   5.278   9.741   9.123 -0.4159 -0.5461  0.2015
  355MOL0     C47827   5.142   9.710   9.069  0.3751 -0.7208 -1.1765
  355MOL0     C47828   5.159   9.597   8.972 -0.9603  0.1225 -0.0541
  355MOL0     C47829   5.022   9.536   8.916  0.4558 -0.8865  0.3996
  355MOL0     C47830   5.029   9.390   8.876  0.4489  0.1010 -0.3124
  355MOL0     C47831   4.885   9.335   8.863  0.3674 -0.8814 -0.0687
  355MOL0     C47832   4.877   9.193   8.801 -0.9707 -1.4567  1.1291
  355MOL0     C47833   4.743   9.156   8.731  0.6317 -0.5661 -0.0762
  355MOL0     C47834   4.712   9.009   8.752  0.5425  0.4860  0.1381
  355MOL0    Cl47835   4.838   8.913   8.677 -0.0680 -0.3751 -0.4042
  355MOL0     C47836   5.339   9.886   8.932  0.7054 -0.0789  0.4908
  355MOL0     C47837   5.437   9.953   8.860  0.2119  0.3632  0.2385
  355MOL0     O47838   5.589  10.216   8.815  0.1898  0.1779 -0.5156
  355MOL0     C47839   5.792  10.320   8.662  0.0891  0.7106 -1.8612
  355MOL0     C47840   5.900  10.357   8.592  0.2849  0.0559  0.4798
  355MOL0     N47841   6.521  10.677   8.234 -0.4202 -1.1050 -0.1260
  355MOL0     N47842   6.627  10.632   8.287  0.4175  0.4692 -0.0318
  355MOL0     C47843   7.765  10.099   8.679  0.5701 -0.2287 -0.0345
  355MOL0     C47844   7.860  10.013   8.721 -0.0743 -0.9837  0.5708
  355MOL0     C47845   8.102   9.638   8.834  0.2824  0.4036  0.5173
  355MOL0     C47846   8.221   9.705   8.822 -0.7435  0.1356 -0.3154
  355MOL0     C47847   8.347   9.643   8.835  0.6195  0.3153 -0.6765
  355MOL0     C47848   8.354   9.508   8.887 -0.3454 -0.7252 -0.0671
  355MOL0     O47849   8.487   9.470   8.910 -0.6117  0.5252  0.7866
  355MOL0     C47850   8.503   9.334   8.942  0.0024  0.1762  0.5883
  355MOL0     C47851   8.506   9.255   8.813 -0.2520  0.3334  0.7204
  355MOL0     C47852   8.619   9.307   8.720 -0.5386 -0.2881 -0.0617
  355MOL0     C47853   8.645   9.208   8.611  0.2003 -0.1246  0.0300
  355MOL0     C47854   8.546   9.189   8.503  0.4807 -0.3070 -0.3102
  355MOL0     C47855   8.455   9.185   8.423 -0.3928 -0.2388 -1.1296
  355MOL0     C47856   8.236   9.437   8.901 -0.3936 -0.1303 -0.4933
  355MOL0     C47857   8.112   9.501   8.878  0.1132 -0.9807  1.1943
  355MOL0     H47858   7.693   9.728   8.743  0.3967  0.5819  2.7441
  355MOL0     H47859   7.507   9.864   8.677  0.4836 -0.9310  0.5540
  355MOL0     H47860   7.455  10.006   8.487 -0.1855 -0.5209  0.2856
  355MOL0     H47861   7.351  10.059   8.614 -0.2365  0.9104 -0.3450
  355MOL0     H47862   7.406  10.303   8.496  2.7835 -0.5230 -0.8489
  355MOL0     H47863   7.439  10.190   8.363  0.3700 -0.0798  0.8574
  355MOL0     H47864   7.206  10.077   8.391  2.1163 -0.3639 -1.8447
  355MOL0     H47865   7.190  10.185   8.529 -3.7573  1.9820 -1.0689
  355MOL0     H47866   7.206  10.386   8.360  2.8739 -1.4120  0.0671
  355MOL0     H47867   7.209  10.265   8.237 -3.7636  1.3046 -0.9813
  355MOL0     H47868   6.987  10.166   8.338  0.9266 -0.3608 -2.8989
  355MOL0     H47869   6.974  10.334   8.408  1.1962  1.3533  0.3437
  355MOL0     H47870   7.002  10.423   8.183  1.0496 -1.1408 -0.6328
  355MOL0     H47871   6.992  10.261   8.119 -3.8396  1.9412 -2.9337
  355MOL0     H47872   6.781  10.378   8.099  0.0782 -0.8021 -0.7326
  355MOL0     H47873   6.772  10.226   8.194 -1.1632  0.3283  1.2459
  355MOL0     H47874   6.796  10.445   8.374 -0.9676 -3.2319  2.6082
  355MOL0     H47875   6.697  10.326   8.379  0.0086  0.4063  0.4386
  355MOL0     H47876   6.465  10.355   8.193 -1.0176 -0.0504 -0.6145
  355MOL0     H47877   6.306  10.717   8.103 -2.6993  1.1808  2.3797
  355MOL0     H47878   6.307  10.556   8.028  4.0538 -2.5365 -0.0272
  355MOL0     H47879   6.085  10.609   8.151 -0.0117  1.6024  0.5415
  355MOL0     H47880   6.176  10.643   8.296 -2.0053 -1.2872  1.1611
  355MOL0     H47881   6.253  10.395   8.302  0.1257 -0.2593  0.6388
  355MOL0     H47882   6.139  10.362   8.172 -3.6622 -0.4364  0.9330
  355MOL0     H47883   5.955  10.452   8.330 -0.6376  0.3261  1.2448
  355MOL0     H47884   6.084  10.513   8.434  1.0694 -0.0148 -1.3049
  355MOL0     H47885   6.000  10.081   8.444  3.8062  0.6850  2.9630
  355MOL0     H47886   5.820   9.887   8.673  2.6830  0.1373 -0.0456
  355MOL0     H47887   5.696   9.934   8.549 -0.2329 -0.1629  0.5933
  355MOL0     H47888   5.869   9.890   8.509  1.6140  1.0592  0.2683
  355MOL0     H47889   5.691   9.902   9.083 -0.3257  1.9854 -0.4793
  355MOL0     H47890   5.524   9.775   9.193  0.3050 -1.4746 -0.0989
  355MOL0     H47891   5.080   9.677   9.152  0.4065  0.5083 -0.6542
  355MOL0     H47892   5.077   9.784   9.021  0.9064 -0.1712 -1.0570
  355MOL0     H47893   5.210   9.643   8.888 -0.5033 -1.5038 -0.7178
  355MOL0     H47894   5.231   9.517   8.993  0.6297  1.2636 -0.8971
  355MOL0     H47895   4.985   9.599   8.835  1.7079 -0.7406 -0.0919
  355MOL0     H47896   4.956   9.535   9.003  4.3163 -2.8189  3.6735
  355MOL0     H47897   5.077   9.385   8.778 -2.2484  0.8459 -1.7755
  355MOL0     H47898   5.082   9.327   8.948 -0.0565 -1.0911 -0.9658
  355MOL0     H47899   4.839   9.412   8.800  2.9530  1.3911  0.6668
  355MOL0     H47900   4.827   9.356   8.954 -0.1496  1.0301 -0.7899
  355MOL0     H47901   4.949   9.193   8.718 -1.0648  0.5358  0.9909
  355MOL0     H47902   4.917   9.122   8.874  0.0361 -1.5364  0.5156
  355MOL0     H47903   4.749   9.183   8.625  0.5985 -1.0388 -0.2001
  355MOL0     H47904   4.664   9.221   8.767  1.2993  1.2478 -1.6882
  355MOL0     H47905   4.616   8.984   8.706  1.2285 -1.6786 -0.2266
  355MOL0     H47906   4.711   8.982   8.858 -0.1862 -1.9384 -0.4262
  355MOL0     H47907   5.235   9.889   8.901  0.3218  0.6010  1.7678
  355MOL0     H47908   5.407  10.005   8.770  1.7465  2.0781  0.6848
  355MOL0     H47909   5.732  10.384   8.725  0.9461 -0.4074  0.2176
  355MOL0     H47910   5.928  10.461   8.583  1.9283 -0.3553  0.4713
  355MOL0     H47911   7.798  10.201   8.669 -2.3310  0.8541  0.3407
  355MOL0     H47912   7.963  10.049   8.728 -1.2150  2.9272 -0.4426
  355MOL0     H47913   8.216   9.813   8.811  2.9909  0.5362  0.4673
  355MOL0     H47914   8.437   9.703   8.821  1.8496 -0.9371  1.3401
  355MOL0     H47915   8.589   9.316   9.007  1.9664 -0.1376 -1.9138
  355MOL0     H47916   8.420   9.283   8.992 -1.2100 -0.3659 -1.8029
  355MOL0     H47917   8.412   9.272   8.759 -0.2121 -1.0917  0.1562
  355MOL0     H47918   8.501   9.150   8.844 -2.6259  0.0857 -0.2518
  355MOL0     H47919   8.714   9.321   8.772  0.8446  1.1563 -2.7516
  355MOL0     H47920   8.586   9.407   8.690  0.2919  0.3857  1.1772
  355MOL0     H47921   8.649   9.109   8.657 -0.3260 -0.6118 -0.9381
  355MOL0     H47922   8.738   9.233   8.559  0.5473  1.4909  1.3630
  355MOL0     H47923   8.365   9.187   8.365 -1.8026 -1.6920  0.8708
  355MOL0     H47924   8.238   9.331   8.926  0.6979  0.1925  0.9319
  355MOL0     H47925   8.016   9.450   8.876 -1.2266  1.1943 -3.8399
  356MOL0     O47926  10.447   5.366   6.229 -0.3142 -0.6496 -0.3071
  356MOL0     C47927  10.466   5.436   6.131  0.2410  0.2878 -0.2731
  356MOL0     O47928  10.371   5.514   6.071 -0.7213 -0.2836  0.0021
  356MOL0     C47929  10.243   5.530   6.122 -1.3904  0.5504 -0.1546
  356MOL0     C47930  10.211   5.555   6.254  0.8650  0.4553 -0.1987
  356MOL0     C47931  10.076   5.572   6.291 -0.5506 -0.3755 -0.2374
  356MOL0     C47932   9.983   5.605   6.196 -0.0117 -0.2207 -0.1416
  356MOL0     O47933   9.857   5.638   6.237 -0.1578 -0.1736  0.9898
  356MOL0     C47934   9.766   5.697   6.135 -0.1869  0.2165 -1.3478
  356MOL0     C47935   9.658   5.773   6.210  0.3372 -1.1427 -0.5275
  356MOL0     C47936   9.539   5.810   6.126  0.2810  0.4136  0.5792
  356MOL0     C47937   9.429   5.884   6.204 -0.0369 -0.4744 -0.0632
  356MOL0     C47938   9.348   5.977   6.099 -0.4619  0.6521  0.4053
  356MOL0     C47939   9.242   6.064   6.154  0.0243  0.4317  0.6916
  356MOL0     C47940   9.122   5.989   6.224  0.2787  0.1550 -0.4911
  356MOL0     C47941   9.042   5.898   6.139  0.4635 -1.2693  0.3345
  356MOL0     N47942   8.991   5.964   6.012  0.0218 -1.3168 -0.1492
  356MOL0     C47943   8.883   6.040   5.998 -0.2832  1.2478 -0.1872
  356MOL0     C47944   8.875   6.066   5.866  0.4781 -0.0857 -0.7817
  356MOL0     C47945   8.765   6.151   5.804  0.1718  0.0318  0.2920
  356MOL0     C47946   8.763   6.302   5.853  0.1932  0.1132 -0.2758
  356MOL0     C47947   8.620   6.367   5.824  0.4566 -0.5180  0.1052
  356MOL0     C47948   8.588   6.506   5.879 -0.2789  0.1347  0.3366
  356MOL0     O47949   8.614   6.510   6.019  0.7114  0.3673  0.0387
  356MOL0     C47950   8.652   6.631   6.079 -0.3840  0.0249  0.4932
  356MOL0     C47951   8.618   6.756   6.022  0.0473 -0.1254  0.0799
  356MOL0     C47952   8.659   6.880   6.079  0.1690  0.1581 -0.2954
  356MOL0     C47953   8.600   7.006   6.013  0.8910  0.7008 -0.2324
  356MOL0     C47954   8.741   6.882   6.191  0.4185  1.0249 -0.0782
  356MOL0     C47955   8.791   7.001   6.257 -0.4858  0.2868 -0.3078
  356MOL0     O47956   8.738   7.117   6.228 -0.1564 -0.3494  0.3261
  356MOL0     C47957   8.780   7.244   6.276  0.6742  0.1292 -0.2944
  356MOL0     C47958   8.902   7.292   6.252 -0.4352 -0.5000 -0.8979
  356MOL0     C47959   8.952   7.410   6.305  0.0279  0.0648 -0.0170
  356MOL0     C47960   8.865   7.502   6.368  0.6967  0.5316  0.8453
  356MOL0     O47961   8.908   7.623   6.402  0.2626  0.5389  0.4495
  356MOL0     C47962   8.878   7.661   6.536 -0.3540 -0.3021 -1.0071
  356MOL0     C47963   8.960   7.780   6.588  0.2773  0.3452 -0.8268
  356MOL0     C47964   8.902   7.915   6.542 -0.0655 -0.5544  0.4447
  356MOL0     C47965   8.997   8.034   6.563 -0.0620 -1.0820  0.5533
  356MOL0     C47966   8.950   8.168   6.493 -0.2014 -0.0071 -0.2419
  356MOL0     C47967   8.990   8.151   6.340 -0.0347 -0.0659 -0.2619
  356MOL0     C47968   8.954   8.271   6.251  0.4482 -0.6756 -0.1495
  356MOL0     C47969   8.938   8.229   6.112  0.2174  0.3785  0.2901
  356MOL0    Cl47970   9.094   8.190   6.033 -0.3386  0.0860 -0.2392
  356MOL0     C47971   8.723   7.453   6.383 -0.0939 -0.5334  0.1252
  356MOL0     C47972   8.687   7.326   6.340  0.2718 -0.5413 -0.6681
  356MOL0     O47973   8.882   6.993   6.340 -0.0792  0.6246  0.6059
  356MOL0     C47974   8.774   6.751   6.251 -0.1713  0.5810  0.1163
  356MOL0     C47975   8.736   6.626   6.193  0.2288 -0.3647  0.3220
  356MOL0     N47976   8.980   6.011   5.799  0.5681 -0.6181  0.3257
  356MOL0     N47977   9.049   5.949   5.891  0.1485 -0.0692 -0.0158
  356MOL0     C47978  10.015   5.577   6.063  0.2623  0.3879  0.3226
  356MOL0     C47979  10.144   5.529   6.027  0.4264 -0.2838  0.3481
  356MOL0     C47980  10.606   5.449   6.077 -0.3085 -0.0382 -0.0758
  356MOL0     C47981  10.637   5.550   5.987  0.8517 -0.7567 -0.1431
  356MOL0     C47982  10.771   5.564   5.949 -0.5807 -0.8687  1.0750
  356MOL0     C47983  10.866   5.468   5.972 -0.3058  0.0545  0.0125
  356MOL0     O47984  10.992   5.478   5.920 -0.1996 -0.1011 -0.0429
  356MOL0     C47985  11.103   5.396   5.955 -0.6065  0.1096 -0.3093
  356MOL0     C47986  11.172   5.427   6.093  0.4867 -0.1936 -0.4173
  356MOL0     C47987  11.321   5.385   6.082 -0.0061 -0.2461 -0.2210
  356MOL0     C47988  11.399   5.404   6.209 -0.2040  0.1949 -0.9273
  356MOL0     C47989  11.547   5.396   6.202  0.3692  0.6600  0.1823
  356MOL0     C47990  11.661   5.378   6.178 -0.2283  0.1915 -1.4086
  356MOL0     C47991  10.834   5.371   6.062 -0.6622 -0.3434 -0.4055
  356MOL0     C47992  10.705   5.362   6.118  0.1361  0.2678 -0.8394
  356MOL0     H47993  10.279   5.545   6.339 -1.8733  4.2160  2.8329
  356MOL0     H47994  10.057   5.593   6.396  1.4563  0.5117 -0.0048
  356MOL0     H47995   9.813   5.763   6.062  1.5301 -0.8255 -1.2539
  356MOL0     H47996   9.727   5.615   6.074 -2.5865  0.9803 -0.9470
  356MOL0     H47997   9.621   5.721   6.299  0.1983  1.7071  1.1971
  356MOL0     H47998   9.693   5.872   6.241 -0.3624 -0.9885 -0.2030
  356MOL0     H47999   9.588   5.867   6.046  2.4174 -2.6457 -0.4805
  356MOL0     H48000   9.497   5.725   6.071  0.3680  0.2296  0.7996
  356MOL0     H48001   9.362   5.806   6.242  1.0762 -1.4516 -0.0502
  356MOL0     H48002   9.471   5.944   6.284  1.1379 -2.3138  0.7610
  356MOL0     H48003   9.409   6.042   6.034  0.7935 -0.6335  0.2452
  356MOL0     H48004   9.304   5.911   6.024 -0.0942  1.5889 -0.6850
  356MOL0     H48005   9.286   6.137   6.223  1.3285  0.6991 -0.3648
  356MOL0     H48006   9.199   6.115   6.067 -2.6320  0.3535  1.8770
  356MOL0     H48007   9.161   5.940   6.313  0.9389  0.3767 -0.6491
  356MOL0     H48008   9.049   6.068   6.245 -1.8757 -1.6643 -0.7829
  356MOL0     H48009   8.956   5.859   6.195 -2.5984  1.0424 -2.3725
  356MOL0     H48010   9.097   5.806   6.114  0.0818 -1.8291  1.4946
  356MOL0     H48011   8.830   6.088   6.079  0.6461  0.5190  0.8848
  356MOL0     H48012   8.777   6.147   5.696 -0.0829  0.9413  0.2281
  356MOL0     H48013   8.667   6.107   5.825 -2.1011  1.6503 -5.2202
  356MOL0     H48014   8.846   6.361   5.812  0.2727  1.7362  2.0317
  356MOL0     H48015   8.776   6.311   5.961 -0.4141  1.6607 -0.3052
  356MOL0     H48016   8.553   6.308   5.887  0.4343  0.1275  0.6974
  356MOL0     H48017   8.580   6.365   5.722 -1.8056  1.8309  0.8421
  356MOL0     H48018   8.482   6.527   5.861  0.0401  0.0631 -1.8706
  356MOL0     H48019   8.634   6.587   5.823  0.1138 -1.4639 -1.7926
  356MOL0     H48020   8.549   6.758   5.938  0.1403  1.1872  0.0194
  356MOL0     H48021   8.513   7.037   6.071  0.2034  1.5991 -1.7058
  356MOL0     H48022   8.678   7.083   6.000  0.6438  1.0483  0.3044
  356MOL0     H48023   8.565   6.979   5.914 -1.0492 -2.9249  1.2587
  356MOL0     H48024   8.966   7.225   6.196  0.5812  1.2877 -1.9981
  356MOL0     H48025   9.055   7.435   6.280 -0.4457  2.0281 -0.2237
  356MOL0     H48026   8.770   7.679   6.535 -0.3407 -0.2483 -2.1091
  356MOL0     H48027   8.908   7.583   6.607 -0.9634 -0.7537 -1.2339
  356MOL0     H48028   8.958   7.780   6.697  0.1811 -0.9507 -0.8088
  356MOL0     H48029   9.066   7.763   6.565  0.5923 -0.2263  0.9338
  356MOL0     H48030   8.810   7.932   6.598 -0.7981 -0.8996 -0.6359
  356MOL0     H48031   8.884   7.908   6.434  3.2050  2.0201 -0.4307
  356MOL0     H48032   9.011   8.046   6.671  3.0564  0.1763  0.0929
  356MOL0     H48033   9.097   8.016   6.524 -0.0355 -0.7436  0.4636
  356MOL0     H48034   9.000   8.254   6.538 -0.4299 -0.2661  0.5377
  356MOL0     H48035   8.844   8.188   6.511  0.2241  5.1105 -2.0284
  356MOL0     H48036   9.094   8.118   6.333 -0.9142 -3.1441 -0.2090
  356MOL0     H48037   8.932   8.062   6.313 -2.0124  0.5946  1.4836
  356MOL0     H48038   9.033   8.347   6.253  1.6897 -1.8518  2.9694
  356MOL0     H48039   8.864   8.316   6.294  1.2577 -1.0875  2.1579
  356MOL0     H48040   8.895   8.312   6.054  0.3362 -0.6698 -1.3541
  356MOL0     H48041   8.875   8.140   6.107  0.2330  0.4040 -0.6411
  356MOL0     H48042   8.632   7.501   6.419 -0.4846 -0.0353 -1.4401
  356MOL0     H48043   8.587   7.287   6.350 -0.4557  1.1524 -1.0834
  356MOL0     H48044   8.831   6.735   6.342  0.1509 -3.9780 -0.6660
  356MOL0     H48045   8.764   6.526   6.227  1.3782 -0.1147  0.1533
  356MOL0     H48046   9.941   5.587   5.984  1.6543 -0.1604 -1.1287
  356MOL0     H48047  10.163   5.510   5.922 -1.4352 -0.3280 -0.0073
  356MOL0     H48048  10.554   5.606   5.944  1.7671  0.2015 -0.6803
  356MOL0     H48049  10.793   5.628   5.864 -1.1351 -1.9230  0.1001
  356MOL0     H48050  11.069   5.293   5.970  1.6431 -0.2636  3.3777
  356MOL0     H48051  11.176   5.398   5.875 -1.1626  0.4505 -0.8165
  356MOL0     H48052  11.128   5.381   6.182  3.6727  2.6487  2.9618
  356MOL0     H48053  11.156   5.534   6.108 -1.8520 -0.5784  0.2428
  356MOL0     H48054  11.360   5.445   5.999  1.9429 -2.2617 -0.8973
  356MOL0     H48055  11.325   5.280   6.051 -0.3121 -0.6492  1.0504
  356MOL0     H48056  11.365   5.330   6.282  2.7335  1.9283  2.5908
  356MOL0     H48057  11.371   5.505   6.241  2.3480  0.5848  0.4013
  356MOL0     H48058  11.762   5.354   6.150  0.2901  0.6093  0.0153
  356MOL0     H48059  10.913   5.311   6.105  1.1064 -0.4908 -3.5700
  356MOL0     H48060  10.685   5.281   6.188 -1.0684 -0.0856 -1.5629
  357MOL0     O48061   4.989   2.726   5.857 -0.4119 -0.4843 -0.2906
  357MOL0     C48062   5.010   2.671   5.967  0.2155  0.8440  0.9206
  357MOL0     O48063   4.923   2.586   6.022 -0.3317 -0.0158  0.4825
  357MOL0     C48064   4.788   2.583   5.995 -1.6853  0.4357  0.2696
  357MOL0     C48065   4.726   2.474   6.043  1.3859 -0.3192 -0.2930
  357MOL0     C48066   4.589   2.452   6.019 -1.3925  0.2644  0.3601
  357MOL0     C48067   4.520   2.552   5.950  0.1610 -0.5965  0.2172
  357MOL0     O48068   4.391   2.529   5.941 -0.3087  0.0196 -0.6876
  357MOL0     C48069   4.325   2.566   5.823 -0.4921  0.0402  0.2477
  357MOL0     C48070   4.359   2.480   5.705  0.7982  0.9113  0.6415
  357MOL0     C48071   4.296   2.345   5.718 -0.7356 -1.1964  0.8128
  357MOL0     C48072   4.375   2.244   5.619  0.6386  0.1445  0.0492
  357MOL0     C48073   4.283   2.120   5.591 -0.2603  0.2257  0.8384
  357MOL0     C48074   4.154   2.125   5.504 -0.1956 -0.0641  0.7262
  357MOL0     C48075   4.193   2.140   5.360  0.1329  0.7072  0.5111
  357MOL0     C48076   4.071   2.153   5.258 -0.1159 -0.7800 -0.0599
  357MOL0     N48077   3.964   2.051   5.264 -0.2847 -0.7050 -0.0637
  357MOL0     C48078   3.982   1.915   5.242 -0.5409  0.5022  0.4025
  357MOL0     C48079   3.863   1.857   5.266 -0.0299  1.3712  0.4960
  357MOL0     C48080   3.809   1.718   5.260  0.3608  0.4659  0.0821
  357MOL0     C48081   3.755   1.685   5.116 -0.1262 -0.3130 -0.0940
  357MOL0     C48082   3.622   1.759   5.093  0.2597  0.1393 -0.5230
  357MOL0     C48083   3.563   1.690   4.972 -0.0320 -0.0658  0.0536
  357MOL0     O48084   3.430   1.730   4.941 -0.4920  0.0587 -0.0370
  357MOL0     C48085   3.323   1.669   5.002  0.9427  0.3816 -0.1091
  357MOL0     C48086   3.330   1.595   5.124 -0.1032  0.0146  0.7821
  357MOL0     C48087   3.221   1.533   5.186 -0.1156  0.4040  0.6267
  357MOL0     C48088   3.252   1.450   5.306 -0.5955 -0.2677 -0.1580
  357MOL0     C48089   3.098   1.543   5.123  1.0208 -0.7141  0.5795
  357MOL0     C48090   2.968   1.495   5.177 -0.8336  0.6680 -0.0007
  357MOL0     O48091   2.883   1.433   5.086  0.1855 -0.6083 -0.7584
  357MOL0     C48092   2.768   1.380   5.137  0.2346 -0.6095 -0.8626
  357MOL0     C48093   2.654   1.396   5.059  0.3099  0.0020 -0.6359
  357MOL0     C48094   2.525   1.339   5.094  0.0100  1.1116 -0.2268
  357MOL0     C48095   2.530   1.260   5.210 -0.2302  0.1982  0.0189
  357MOL0     O48096   2.408   1.230   5.257  0.0816  0.6504  0.2906
  357MOL0     C48097   2.398   1.229   5.405 -0.0179 -0.8039  0.4527
  357MOL0     C48098   2.269   1.300   5.441  0.0315  0.1604  0.0653
  357MOL0     C48099   2.133   1.240   5.391  0.4442 -0.7038 -0.2158
  357MOL0     C48100   2.011   1.302   5.453 -0.2565 -0.1347 -0.0000
  357MOL0     C48101   1.893   1.231   5.372  0.4721 -0.2299  0.0652
  357MOL0     C48102   1.762   1.251   5.450 -0.1891  0.0420 -0.6039
  357MOL0     C48103   1.633   1.193   5.384  0.3564 -0.0252 -0.3243
  357MOL0     C48104   1.566   1.284   5.283 -0.2431 -0.5960  0.3678
  357MOL0    Cl48105   1.406   1.224   5.234  0.2460 -0.1441 -0.3100
  357MOL0     C48106   2.655   1.228   5.279  0.3439  0.3172  0.0015
  357MOL0     C48107   2.775   1.284   5.235  0.2709 -0.6135 -0.8765
  357MOL0     O48108   2.945   1.508   5.294  0.1444  0.5970 -0.6231
  357MOL0     C48109   3.090   1.621   5.007  1.0163 -0.4329 -0.5422
  357MOL0     C48110   3.199   1.685   4.940 -1.1931  0.2113  0.4311
  357MOL0     N48111   3.785   1.957   5.316  1.0262 -0.2876 -0.6920
  357MOL0     N48112   3.840   2.070   5.324 -0.2216  0.2938  0.4281
  357MOL0     C48113   4.574   2.672   5.921  0.5846 -1.1469 -0.5383
  357MOL0     C48114   4.713   2.686   5.941 -0.4384  0.1988  0.1504
  357MOL0     C48115   5.147   2.695   6.025  0.2523 -0.6433  0.3320
  357MOL0     C48116   5.239   2.766   5.949 -0.2037  0.2552  0.0924
  357MOL0     C48117   5.373   2.772   5.993  0.5124 -0.6157  0.2149
  357MOL0     C48118   5.413   2.718   6.110  0.5456  0.2229  0.0269
  357MOL0     O48119   5.548   2.719   6.135 -0.1648 -0.1874  0.1614
  357MOL0     C48120   5.594   2.635   6.244  0.3497  0.4203  0.2075
  357MOL0     C48121   5.740   2.612   6.223  0.2473  0.1930 -1.0142
  357MOL0     C48122   5.781   2.571   6.085 -0.8774  0.0216 -0.6660
  357MOL0     C48123   5.880   2.449   6.069  0.3717 -0.2614 -0.4106
  357MOL0     C48124   6.016   2.463   6.139 -0.7044 -0.1145  0.9195
  357MOL0     C48125   6.133   2.456   6.185 -0.2091 -0.2392  0.5251
  357MOL0     C48126   5.322   2.661   6.193  0.3019 -0.2286  0.6475
  357MOL0     C48127   5.182   2.649   6.156 -0.2638  0.2073 -0.1152
  357MOL0     H48128   4.774   2.389   6.088 -1.1890 -1.3347  0.7255
  357MOL0     H48129   4.545   2.364   6.065 -2.6201 -0.4098 -1.9711
  357MOL0     H48130   4.217   2.566   5.842 -0.5317  0.7587  0.0443
  357MOL0     H48131   4.345   2.671   5.800 -2.6373  0.0135 -2.1204
  357MOL0     H48132   4.325   2.528   5.612  2.6857  1.2151  0.0606
  357MOL0     H48133   4.462   2.447   5.688 -0.2624 -1.3405 -2.3941
  357MOL0     H48134   4.300   2.313   5.823  0.3089  0.3232  1.2895
  357MOL0     H48135   4.192   2.354   5.688 -0.6893  1.9563  1.1923
  357MOL0     H48136   4.397   2.285   5.520 -0.5589 -1.5470 -0.9779
  357MOL0     H48137   4.462   2.203   5.670  0.4067  0.4298  0.6911
  357MOL0     H48138   4.352   2.042   5.560  2.0762  1.1741  3.2712
  357MOL0     H48139   4.244   2.095   5.690  0.4010 -0.0548  1.0339
  357MOL0     H48140   4.097   2.032   5.515 -0.4474 -0.1576 -1.1115
  357MOL0     H48141   4.090   2.206   5.540  0.5721  3.1774 -4.2167
  357MOL0     H48142   4.257   2.226   5.338  0.9341 -0.1867 -0.7601
  357MOL0     H48143   4.249   2.051   5.329 -1.1289  0.1803 -0.3046
  357MOL0     H48144   4.108   2.160   5.155 -0.1284 -1.9494 -0.1540
  357MOL0     H48145   4.018   2.248   5.275 -2.1942 -2.0253  0.7787
  357MOL0     H48146   4.064   1.861   5.196 -2.9051 -2.0973 -1.1175
  357MOL0     H48147   3.886   1.642   5.278 -1.4604 -1.1161  1.7670
  357MOL0     H48148   3.729   1.713   5.335 -2.1958 -1.5499 -2.5420
  357MOL0     H48149   3.750   1.576   5.104 -1.0737 -0.2213 -0.6058
  357MOL0     H48150   3.816   1.724   5.034 -1.6139 -0.8941 -1.5403
  357MOL0     H48151   3.634   1.867   5.076  1.5899 -0.2161 -2.0655
  357MOL0     H48152   3.553   1.746   5.177  0.9479 -0.6792 -0.0819
  357MOL0     H48153   3.557   1.581   4.979  2.6384 -0.3875 -1.5991
  357MOL0     H48154   3.626   1.708   4.885  2.9030 -1.1730  1.7946
  357MOL0     H48155   3.426   1.564   5.165 -1.3999 -3.6885  1.3952
  357MOL0     H48156   3.351   1.477   5.344  1.4711 -2.0192 -3.8090
  357MOL0     H48157   3.181   1.460   5.389  1.5812  2.5925  1.5820
  357MOL0     H48158   3.260   1.346   5.272 -1.8653 -0.6823  0.7332
  357MOL0     H48159   2.648   1.452   4.967  0.1300  1.0374 -0.0105
  357MOL0     H48160   2.441   1.373   5.034  1.7119  1.1967 -2.6883
  357MOL0     H48161   2.411   1.130   5.449  0.0597 -2.2795 -2.6321
  357MOL0     H48162   2.471   1.296   5.452  0.4259 -0.9745  0.0108
  357MOL0     H48163   2.251   1.311   5.548  0.6987 -2.6563  0.5325
  357MOL0     H48164   2.282   1.402   5.402  0.0573 -0.1568 -0.7793
  357MOL0     H48165   2.135   1.137   5.425  0.0674 -1.4634 -2.3420
  357MOL0     H48166   2.123   1.240   5.282  2.5970 -1.2132 -0.4569
  357MOL0     H48167   2.010   1.282   5.561  0.4853  0.0449  0.0408
  357MOL0     H48168   2.006   1.411   5.440 -0.0313  0.0593  1.3868
  357MOL0     H48169   1.926   1.130   5.347 -0.0363 -0.2421 -0.5892
  357MOL0     H48170   1.879   1.277   5.273 -3.4275 -1.6685 -0.1898
  357MOL0     H48171   1.778   1.200   5.546 -0.7772 -1.3712 -1.2224
  357MOL0     H48172   1.738   1.355   5.471 -3.2636  0.1277 -3.6910
  357MOL0     H48173   1.563   1.180   5.467 -1.2532 -0.8829 -1.7396
  357MOL0     H48174   1.649   1.094   5.339  0.4438  0.8406 -2.3124
  357MOL0     H48175   1.633   1.307   5.200 -1.1180  0.4089 -0.0948
  357MOL0     H48176   1.546   1.375   5.341  0.1817 -0.2527 -0.0182
  357MOL0     H48177   2.673   1.167   5.367 -0.6892  1.8162  1.2977
  357MOL0     H48178   2.871   1.261   5.280  0.3930  0.0441 -0.7974
  357MOL0     H48179   2.996   1.652   4.962 -0.2166 -0.1984  2.0375
  357MOL0     H48180   3.192   1.744   4.849 -0.7432 -0.8669 -0.3180
  357MOL0     H48181   4.519   2.756   5.879 -0.0375 -0.9120  0.6814
  357MOL0     H48182   4.760   2.779   5.908  0.5114 -0.2854  0.1338
  357MOL0     H48183   5.205   2.804   5.853 -1.7400 -1.8436 -0.2522
  357MOL0     H48184   5.453   2.811   5.931  1.1193 -0.9416  0.7945
  357MOL0     H48185   5.578   2.691   6.336 -0.7672  2.8395 -1.3552
  357MOL0     H48186   5.549   2.536   6.251  1.3211 -0.1492 -1.1732
  357MOL0     H48187   5.764   2.533   6.294  1.9829  0.5810 -1.1308
  357MOL0     H48188   5.795   2.703   6.247  0.0022 -0.0963  0.8213
  357MOL0     H48189   5.822   2.662   6.041  2.0733 -0.5995  0.5219
  357MOL0     H48190   5.691   2.549   6.028  0.3913 -3.1895 -1.6956
  357MOL0     H48191   5.902   2.448   5.961  0.8857  0.6233 -0.3220
  357MOL0     H48192   5.828   2.355   6.089 -1.2485  0.5170 -0.7530
  357MOL0     H48193   6.239   2.460   6.200  0.1364 -0.0480 -1.7325
  357MOL0     H48194   5.347   2.614   6.287  2.0580  3.8055  2.4160
  357MOL0     H48195   5.106   2.598   6.214 -1.5294  1.7539 -0.3321
  358MOL0     O48196   9.909  10.016   4.967  0.2651 -0.8350  0.1062
  358MOL0     C48197  10.007   9.995   5.034 -0.4471 -0.8499 -0.1980
  358MOL0     O48198  10.035  10.050   5.154  0.7333 -0.2785 -0.4623
  358MOL0     C48199   9.956  10.128   5.235  0.1232  0.3709  0.2632
  358MOL0     C48200  10.017  10.176   5.350 -0.0848  0.6896 -0.6549
  358MOL0     C48201   9.946  10.255   5.437 -0.8731  0.9380  0.4216
  358MOL0     C48202   9.812  10.289   5.406 -0.7789  0.3925 -0.4943
  358MOL0     O48203   9.762  10.375   5.494  0.3490 -0.8810 -0.6606
  358MOL0     C48204   9.623  10.350   5.518  0.0857  0.2492  0.5021
  358MOL0     C48205   9.557  10.447   5.615  0.6299 -0.3447  0.3102
  358MOL0     C48206   9.406  10.436   5.639 -0.0923 -0.4124  0.4077
  358MOL0     C48207   9.303  10.505   5.542 -0.5873  0.5349 -0.2369
  358MOL0     C48208   9.174  10.575   5.607 -0.5199 -0.5959  0.2860
  358MOL0     C48209   9.082  10.630   5.509 -0.3614 -0.3449  0.2519
  358MOL0     C48210   8.949  10.678   5.577  0.6285 -0.7436 -0.1944
  358MOL0     C48211   8.864  10.772   5.492  0.7873 -0.8644 -0.1549
  358MOL0     N48212   8.726  10.788   5.550  0.7524 -0.4296  0.2534
  358MOL0     C48213   8.608  10.735   5.506 -1.2092  0.8054  0.7531
  358MOL0     C48214   8.514  10.777   5.596 -0.6751 -0.3124 -0.5247
  358MOL0     C48215   8.361  10.759   5.589 -0.8148  0.4578 -0.5350
  358MOL0     C48216   8.285  10.883   5.637  0.5323  0.7026  0.4696
  358MOL0     C48217   8.208  10.890   5.774  0.4616 -0.3374 -0.0796
  358MOL0     C48218   8.113  10.768   5.803  0.8671 -0.1934 -0.0494
  358MOL0     O48219   8.040  10.736   5.682  0.2985 -0.5026  0.1247
  358MOL0     C48220   7.917  10.687   5.700 -0.2108  0.1120 -0.4541
  358MOL0     C48221   7.889  10.557   5.668 -0.4032  0.2400 -0.3469
  358MOL0     C48222   7.759  10.503   5.693 -0.3544 -0.4232 -0.2610
  358MOL0     C48223   7.741  10.357   5.700  0.4384 -0.3535  0.6385
  358MOL0     C48224   7.654  10.597   5.701  0.2705  0.2485 -0.3200
  358MOL0     C48225   7.513  10.558   5.701 -0.1179  0.8015  0.1614
  358MOL0     O48226   7.428  10.605   5.795 -0.1323  0.6503  0.0023
  358MOL0     C48227   7.307  10.536   5.823  0.4892 -0.6909  0.6432
  358MOL0     C48228   7.297  10.396   5.843  0.1063 -0.0254  0.4933
  358MOL0     C48229   7.169  10.349   5.885 -0.3401  0.1805 -0.1471
  358MOL0     C48230   7.062  10.440   5.888 -0.2329 -0.0638  0.4234
  358MOL0     O48231   6.932  10.399   5.909 -0.5123 -0.5628 -0.0927
  358MOL0     C48232   6.892  10.301   5.812  0.4725  0.0790  0.0852
  358MOL0     C48233   6.755  10.252   5.850 -0.1375  0.4662 -0.1269
  358MOL0     C48234   6.650  10.346   5.816 -0.1120  0.1903  0.6991
  358MOL0     C48235   6.621  10.453   5.922  0.8367 -0.1191  0.2136
  358MOL0     C48236   6.506  10.550   5.909 -0.4619 -0.6697  0.4581
  358MOL0     C48237   6.371  10.479   5.916  0.6586  0.1477  0.4005
  358MOL0     C48238   6.280  10.593   5.965  0.0216  0.4160  0.1698
  358MOL0     C48239   6.134  10.557   5.980 -0.6630  0.5267 -0.2361
  358MOL0    Cl48240   6.112  10.493   6.147 -0.3862  0.6086  0.2298
  358MOL0     C48241   7.078  10.578   5.871 -0.4792  0.9719  0.6480
  358MOL0     C48242   7.200  10.625   5.842  0.1236  0.3944  1.0724
  358MOL0     O48243   7.486  10.479   5.608  0.1769  0.3105  0.2485
  358MOL0     C48244   7.683  10.730   5.710 -0.1622 -1.0491  0.2085
  358MOL0     C48245   7.808  10.773   5.738 -0.1522  0.7939 -0.3734
  358MOL0     N48246   8.569  10.843   5.700 -0.1580  0.0381  0.2647
  358MOL0     N48247   8.690  10.855   5.668 -1.0082  0.4940  0.0722
  358MOL0     C48248   9.751  10.238   5.291  0.2857 -0.3109  0.1622
  358MOL0     C48249   9.826  10.152   5.207  0.0163 -0.1043  0.2694
  358MOL0     C48250  10.115   9.904   4.978  0.0532 -0.3595  0.9514
  358MOL0     C48251  10.103   9.823   4.861  0.7211 -1.0188  0.0419
  358MOL0     C48252  10.210   9.752   4.815  0.6155  0.0532  0.7493
  358MOL0     C48253  10.328   9.740   4.882 -0.2754 -0.4251 -0.6180
  358MOL0     O48254  10.437   9.661   4.851 -0.2553 -0.5049 -0.1883
  358MOL0     C48255  10.424   9.580   4.738  0.8422 -0.5388 -0.0512
  358MOL0     C48256  10.562   9.511   4.715  0.0020  0.9021 -0.5553
  358MOL0     C48257  10.673   9.592   4.655  0.5470  0.7678  0.4713
  358MOL0     C48258  10.818   9.525   4.658 -0.4102 -0.1146 -0.1698
  358MOL0     C48259  10.887   9.575   4.776 -1.3007 -0.1881 -0.0710
  358MOL0     C48260  10.938   9.617   4.879  0.5021 -1.1530 -0.3296
  358MOL0     C48261  10.346   9.817   4.998  0.2666 -0.2611 -0.0407
  358MOL0     C48262  10.243   9.894   5.047 -0.0857  0.1357  0.6186
  358MOL0     H48263  10.116  10.143   5.380 -0.5027  0.8504  1.0276
  358MOL0     H48264   9.991  10.281   5.533 -1.3374  1.0711  0.6049
  358MOL0     H48265   9.556  10.370   5.434 -0.4451 -0.0396  0.8450
  358MOL0     H48266   9.602  10.248   5.554  0.9571 -0.7900 -1.7200
  358MOL0     H48267   9.612  10.439   5.709  1.9361 -2.3499 -0.5514
  358MOL0     H48268   9.574  10.545   5.570 -0.7924 -1.0315 -1.8573
  358MOL0     H48269   9.384  10.329   5.647 -1.3836 -0.0524  2.3811
  358MOL0     H48270   9.386  10.483   5.736 -2.2868 -0.0779 -0.1663
  358MOL0     H48271   9.355  10.589   5.495  2.7966 -2.0627 -1.6134
  358MOL0     H48272   9.271  10.451   5.452 -3.3113  3.8041 -1.4163
  358MOL0     H48273   9.130  10.494   5.668 -2.4370 -0.8175 -1.2890
  358MOL0     H48274   9.209  10.656   5.671 -0.7001  1.4779 -2.1046
  358MOL0     H48275   9.133  10.719   5.469 -1.4978  0.2256  0.0244
  358MOL0     H48276   9.056  10.556   5.434  0.8316 -1.4211  0.8685
  358MOL0     H48277   8.886  10.590   5.592 -1.1678  0.3821 -0.7342
  358MOL0     H48278   8.968  10.723   5.675  4.5203 -1.8588 -0.2892
  358MOL0     H48279   8.851  10.732   5.391  1.3492  1.2263 -1.0998
  358MOL0     H48280   8.910  10.870   5.474  1.6456 -0.9239  1.4886
  358MOL0     H48281   8.596  10.672   5.418 -0.1917 -0.5441  1.5351
  358MOL0     H48282   8.342  10.739   5.483  2.5560  1.5527 -1.4407
  358MOL0     H48283   8.338  10.664   5.638  0.1469  0.4296 -0.1313
  358MOL0     H48284   8.217  10.911   5.556 -0.1911  0.9797  1.1535
  358MOL0     H48285   8.359  10.964   5.634 -0.0922  1.2615 -1.6296
  358MOL0     H48286   8.170  10.991   5.789  2.3407  0.3752  0.2234
  358MOL0     H48287   8.291  10.872   5.844  0.2440  1.3412  0.6490
  358MOL0     H48288   8.047  10.796   5.886  1.1974  0.1651  0.0956
  358MOL0     H48289   8.177  10.684   5.833 -0.7466 -1.9803 -1.3893
  358MOL0     H48290   7.972  10.491   5.646  0.4383  1.4873 -1.0780
  358MOL0     H48291   7.834  10.301   5.715  1.6930  1.5328  0.2645
  358MOL0     H48292   7.673  10.334   5.782 -2.5908  0.4805 -1.4725
  358MOL0     H48293   7.687  10.321   5.613 -1.8741 -1.4368  2.4247
  358MOL0     H48294   7.384  10.331   5.838 -0.8862 -1.3678 -0.1290
  358MOL0     H48295   7.146  10.246   5.911 -2.8313  0.1028 -2.3211
  358MOL0     H48296   6.889  10.334   5.707  2.2959  2.0629  0.5905
  358MOL0     H48297   6.955  10.212   5.825 -2.9409 -2.1543  3.0760
  358MOL0     H48298   6.730  10.164   5.790 -2.8292 -0.1256  1.6560
  358MOL0     H48299   6.743  10.226   5.956  1.0251  0.7544  0.0901
  358MOL0     H48300   6.554  10.297   5.799 -0.2329  0.9138 -0.8570
  358MOL0     H48301   6.681  10.393   5.723  2.8403  2.1744  2.5050
  358MOL0     H48302   6.603  10.408   6.020  1.8623 -1.8235 -0.3494
  358MOL0     H48303   6.714  10.508   5.937  0.8425  0.4020 -1.5124
  358MOL0     H48304   6.516  10.593   5.809  2.5077 -0.0541  0.9158
  358MOL0     H48305   6.525  10.631   5.981  0.0480 -0.8469  0.5290
  358MOL0     H48306   6.348  10.434   5.819  0.6782 -0.8733  0.8512
  358MOL0     H48307   6.373  10.404   5.996 -2.6788 -0.7077 -0.1871
  358MOL0     H48308   6.286  10.678   5.896 -0.7578  1.1082  0.9354
  358MOL0     H48309   6.316  10.634   6.060  1.8264  2.9506 -1.5038
  358MOL0     H48310   6.100  10.485   5.905 -1.7989  1.0840 -0.2815
  358MOL0     H48311   6.063  10.641   5.972 -0.2474  1.0315  1.0751
  358MOL0     H48312   6.986  10.635   5.876 -0.5164  0.8557  4.6494
  358MOL0     H48313   7.221  10.731   5.827  0.7283  0.4471  2.1516
  358MOL0     H48314   7.600  10.798   5.693 -1.4435 -2.3129  1.1666
  358MOL0     H48315   7.824  10.878   5.763  1.5302  0.2433  1.0634
  358MOL0     H48316   9.645  10.256   5.274 -0.2300 -1.2271  2.1498
  358MOL0     H48317   9.780  10.108   5.119 -0.8865  0.0708  0.6361
  358MOL0     H48318  10.013   9.840   4.803  0.4835 -1.0704  0.3941
  358MOL0     H48319  10.197   9.694   4.724  1.8325 -2.4496  2.0579
  358MOL0     H48320  10.345   9.506   4.750  0.0970  0.1194 -0.8087
  358MOL0     H48321  10.409   9.639   4.648  2.6475  0.8640  0.5077
  358MOL0     H48322  10.540   9.428   4.647 -0.4714  1.5300 -1.1803
  358MOL0     H48323  10.595   9.462   4.807 -0.8082 -0.1004 -0.7768
  358MOL0     H48324  10.678   9.695   4.690  1.3320  0.4710  1.2648
  358MOL0     H48325  10.653   9.604   4.548 -0.9371 -1.0088  0.4959
  358MOL0     H48326  10.878   9.555   4.572 -0.0858  2.1526  0.7813
  358MOL0     H48327  10.814   9.416   4.667  0.2118 -0.1289 -0.0617
  358MOL0     H48328  10.977   9.641   4.976 -1.6250  0.5608  0.1845
  358MOL0     H48329  10.444   9.815   5.043  0.4064 -1.6975 -0.3806
  358MOL0     H48330  10.255   9.950   5.139 -1.2193 -0.5357  1.1983
  359MOL0     O48331   3.794   6.043   9.394 -0.0573  0.4707 -0.4088
  359MOL0     C48332   3.734   5.966   9.480 -0.8431 -0.0355 -0.4271
  359MOL0     O48333   3.620   5.896   9.442 -0.0919 -0.6943 -0.2622
  359MOL0     C48334   3.585   5.852   9.318 -0.3239  0.4394 -0.6346
  359MOL0     C48335   3.667   5.836   9.203  0.0831 -0.2054  0.2351
  359MOL0     C48336   3.622   5.782   9.090  0.5262  0.3477  0.4372
  359MOL0     C48337   3.480   5.744   9.083  0.8998  0.8677 -0.4351
  359MOL0     O48338   3.426   5.657   8.989  0.1225 -0.6058  0.3866
  359MOL0     C48339   3.487   5.666   8.858 -0.8285 -0.3551 -1.1821
  359MOL0     C48340   3.432   5.548   8.769 -0.1385  0.5463 -0.7383
  359MOL0     C48341   3.272   5.540   8.764 -0.5191  0.1216 -0.3625
  359MOL0     C48342   3.226   5.431   8.660  0.1035 -0.0765  1.0991
  359MOL0     C48343   3.085   5.372   8.662  0.5012 -0.4090 -0.5353
  359MOL0     C48344   2.965   5.470   8.627  0.4251  0.2004 -0.5301
  359MOL0     C48345   2.901   5.522   8.757  0.7376  0.3554  0.0022
  359MOL0     C48346   2.762   5.578   8.725  0.1117  0.0542 -0.6663
  359MOL0     N48347   2.666   5.471   8.681 -0.3316  0.0438 -0.4288
  359MOL0     C48348   2.570   5.422   8.761  0.5427 -0.6614  1.4470
  359MOL0     C48349   2.477   5.360   8.676  0.0104 -0.1102 -0.4791
  359MOL0     C48350   2.341   5.305   8.712  1.1073 -0.6867  0.2477
  359MOL0     C48351   2.327   5.244   8.854 -0.0333 -0.5810 -0.6163
  359MOL0     C48352   2.184   5.202   8.879  0.6316  1.3143  0.0069
  359MOL0     C48353   2.173   5.096   8.983  0.1421  0.5456  0.1638
  359MOL0     O48354   2.039   5.042   9.002 -0.2109 -0.5857  0.1416
  359MOL0     C48355   2.029   4.933   9.090  0.3244 -0.5604 -0.3447
  359MOL0     C48356   1.932   4.843   9.078  0.9917  0.8138 -0.4807
  359MOL0     C48357   1.905   4.735   9.165 -0.5918  0.8507  0.0300
  359MOL0     C48358   1.791   4.643   9.130 -0.5249  0.1367  0.4785
  359MOL0     C48359   1.986   4.721   9.284  0.2450 -0.0770  0.6243
  359MOL0     C48360   1.968   4.614   9.382 -0.5956  0.0419 -0.5453
  359MOL0     O48361   2.009   4.647   9.504 -0.5457 -0.1667 -0.0269
  359MOL0     C48362   2.008   4.543   9.592 -0.5617  0.3588 -0.2673
  359MOL0     C48363   1.898   4.539   9.684 -0.5972 -0.2622 -0.0107
  359MOL0     C48364   1.878   4.436   9.776 -0.3429  0.1587 -0.5846
  359MOL0     C48365   1.988   4.341   9.799  0.1336  0.1602 -0.7095
  359MOL0     O48366   1.969   4.238   9.883  0.5664  0.2976 -0.7493
  359MOL0     C48367   1.996   4.111   9.826 -0.4081  0.3018 -0.4611
  359MOL0     C48368   1.885   4.017   9.875  0.1226  0.4236 -0.2787
  359MOL0     C48369   1.892   4.000  10.030  0.2615 -0.2169  0.1937
  359MOL0     C48370   1.770   3.947  10.107 -0.9957 -0.4405 -0.6172
  359MOL0     C48371   1.631   4.017  10.087 -0.6455  0.5981 -0.1771
  359MOL0     C48372   1.514   3.974  10.179 -0.2941 -0.0847  0.6611
  359MOL0     C48373   1.498   3.813  10.191  0.4801  0.3525  0.1501
  359MOL0     C48374   1.446   3.750  10.057 -0.5198 -0.6949 -0.3832
  359MOL0    Cl48375   1.286   3.815  10.033 -0.0734 -0.2843 -0.0334
  359MOL0     C48376   2.114   4.357   9.730  0.0153 -0.2785  0.7571
  359MOL0     C48377   2.119   4.460   9.630  0.1711  0.2368  1.0134
  359MOL0     O48378   1.910   4.508   9.358 -0.1797 -0.7220 -0.3290
  359MOL0     C48379   2.082   4.823   9.291  0.5277 -0.2287 -0.1756
  359MOL0     C48380   2.113   4.923   9.194  0.1359  0.2799  0.2032
  359MOL0     N48381   2.527   5.365   8.550 -0.6291  0.3242  0.3670
  359MOL0     N48382   2.640   5.432   8.554  1.3322 -0.0234  0.2736
  359MOL0     C48383   3.402   5.761   9.191  0.5220 -0.1247 -0.4764
  359MOL0     C48384   3.457   5.807   9.314  0.6153 -0.1938  1.0017
  359MOL0     C48385   3.779   5.955   9.618 -0.6128  0.5995 -0.3316
  359MOL0     C48386   3.896   6.015   9.658  0.2185 -0.0238  0.0883
  359MOL0     C48387   3.940   6.007   9.790 -0.2873 -0.3752 -0.1860
  359MOL0     C48388   3.888   5.909   9.870  0.3626  1.1091 -0.9880
  359MOL0     O48389   3.939   5.865   9.998  0.0197  0.2102 -0.4434
  359MOL0     C48390   4.077   5.825   9.993  0.3475  0.4167  0.2426
  359MOL0     C48391   4.133   5.818  10.139 -0.2255 -0.4300 -0.1707
  359MOL0     C48392   4.062   5.717  10.224  1.6147  0.4298 -0.7382
  359MOL0     C48393   3.933   5.775  10.300 -0.2943 -1.4649 -1.0078
  359MOL0     C48394   3.961   5.881  10.400  0.7342  0.9415 -0.1364
  359MOL0     C48395   3.974   5.957  10.498 -0.9655 -0.1689  0.0670
  359MOL0     C48396   3.772   5.841   9.831  0.4747 -0.1773  0.6539
  359MOL0     C48397   3.712   5.870   9.700 -0.0367 -0.5645 -0.5326
  359MOL0     H48398   3.773   5.859   9.213  0.2129 -1.6835  5.2887
  359MOL0     H48399   3.689   5.748   9.012 -1.2481 -1.8212 -0.2576
  359MOL0     H48400   3.453   5.755   8.805  0.2349 -0.8613 -2.7513
  359MOL0     H48401   3.595   5.652   8.861 -0.9506 -1.9304  3.2835
  359MOL0     H48402   3.472   5.566   8.669 -0.1869 -1.8033 -1.2365
  359MOL0     H48403   3.460   5.452   8.815 -0.8773 -0.3701 -2.1124
  359MOL0     H48404   3.237   5.508   8.862 -1.1244  2.1280  0.1215
  359MOL0     H48405   3.228   5.640   8.751  2.5092  1.3764 -2.1256
  359MOL0     H48406   3.255   5.472   8.563  0.8731  2.3723  2.2688
  359MOL0     H48407   3.286   5.342   8.679  0.3927  0.4713  3.0324
  359MOL0     H48408   3.090   5.302   8.578 -1.1666  1.6836 -2.5259
  359MOL0     H48409   3.053   5.324   8.754 -2.6269  3.0524  0.4426
  359MOL0     H48410   3.005   5.553   8.568  0.3912  0.8798  0.3750
  359MOL0     H48411   2.893   5.426   8.557  2.2036 -1.3963 -1.4368
  359MOL0     H48412   2.894   5.440   8.829  0.0488 -0.0979 -0.5683
  359MOL0     H48413   2.971   5.596   8.796  0.8132  0.9900 -1.2828
  359MOL0     H48414   2.776   5.651   8.645 -0.5100 -0.4950 -1.2812
  359MOL0     H48415   2.721   5.626   8.815 -0.4289 -1.8314  0.1524
  359MOL0     H48416   2.542   5.452   8.861 -0.0506  3.3590  0.2722
  359MOL0     H48417   2.264   5.382   8.702  1.7060  0.3970  2.9803
  359MOL0     H48418   2.309   5.231   8.637 -0.6550 -0.3204  0.5856
  359MOL0     H48419   2.366   5.331   8.908  2.5185 -1.7286 -0.4831
  359MOL0     H48420   2.397   5.164   8.880  1.1686  0.3659 -0.8270
  359MOL0     H48421   2.152   5.162   8.783 -0.2229  1.3218  0.2826
  359MOL0     H48422   2.122   5.291   8.895  1.4608  2.0727 -0.8682
  359MOL0     H48423   2.209   5.151   9.071  0.3940  2.0930 -0.8809
  359MOL0     H48424   2.240   5.011   8.966  0.6772  0.8218  0.8498
  359MOL0     H48425   1.873   4.851   8.987 -1.1888  2.3672  0.9736
  359MOL0     H48426   1.720   4.697   9.067 -1.4193 -0.1770  1.1831
  359MOL0     H48427   1.833   4.558   9.077  3.7670 -0.1713  3.8453
  359MOL0     H48428   1.738   4.618   9.222  1.0639  0.0279  1.4054
  359MOL0     H48429   1.812   4.603   9.663  1.1468  1.7483 -1.4661
  359MOL0     H48430   1.785   4.411   9.825  0.3209 -1.2826 -0.0260
  359MOL0     H48431   1.991   4.115   9.717 -1.0891 -0.6172 -0.4728
  359MOL0     H48432   2.093   4.076   9.861  0.2737  2.9001  0.5231
  359MOL0     H48433   1.787   4.060   9.850 -1.0553 -1.5296  0.7811
  359MOL0     H48434   1.901   3.922   9.823  0.0740  0.9719 -1.3266
  359MOL0     H48435   1.917   4.094  10.079  1.3148  0.3553 -1.3801
  359MOL0     H48436   1.983   3.944  10.053 -0.4764 -1.2660  0.6861
  359MOL0     H48437   1.760   3.840  10.086  1.7837 -0.5299 -2.0138
  359MOL0     H48438   1.795   3.949  10.214  2.2059 -1.5996 -1.2186
  359MOL0     H48439   1.609   4.031   9.980  2.8437  4.3999 -0.6619
  359MOL0     H48440   1.652   4.124  10.100  2.4703  0.4039 -2.3239
  359MOL0     H48441   1.546   4.015  10.275 -0.7697  0.2827  0.6617
  359MOL0     H48442   1.417   4.013  10.148 -0.6920 -0.6163  1.2285
  359MOL0     H48443   1.417   3.799  10.264  2.2325 -1.2037  1.9101
  359MOL0     H48444   1.590   3.773  10.233  0.0624 -0.2237  0.5374
  359MOL0     H48445   1.437   3.642  10.075 -1.0921 -0.5704  0.1209
  359MOL0     H48446   1.513   3.778   9.976 -1.2792 -0.0939 -0.8269
  359MOL0     H48447   2.200   4.293   9.744 -0.9498 -1.6469  0.6038
  359MOL0     H48448   2.215   4.477   9.581  0.2977 -2.7521 -0.0419
  359MOL0     H48449   2.150   4.817   9.376  1.0493 -0.2644 -0.5892
  359MOL0     H48450   2.196   4.991   9.209  0.8303  0.3002 -3.0953
  359MOL0     H48451   3.297   5.735   9.177  0.2022 -0.1182  1.6090
  359MOL0     H48452   3.391   5.798   9.399 -2.3345 -2.1209 -1.2615
  359MOL0     H48453   3.953   6.080   9.591  0.3775  1.5799  1.6913
  359MOL0     H48454   4.033   6.049   9.826 -2.6926  4.4958  1.2185
  359MOL0     H48455   4.082   5.723   9.953  1.5416  0.4884  0.1628
  359MOL0     H48456   4.134   5.894   9.930  2.1327  0.1580  1.4873
  359MOL0     H48457   4.132   5.919  10.182  1.0924  1.0902 -3.3641
  359MOL0     H48458   4.238   5.790  10.137 -0.2842 -0.8982  1.6525
  359MOL0     H48459   4.126   5.672  10.300 -0.6773 -2.8610 -0.5013
  359MOL0     H48460   4.036   5.624  10.172 -1.8491  0.6689  0.2967
  359MOL0     H48461   3.879   5.692  10.347 -1.1392 -0.4933 -0.2489
  359MOL0     H48462   3.868   5.828  10.229  2.4637  1.5915 -1.4866
  359MOL0     H48463   3.977   6.024  10.582 -0.5760  1.1116 -0.9319
  359MOL0     H48464   3.717   5.772   9.895 -1.2144  0.0079 -0.5407
  359MOL0     H48465   3.617   5.828   9.666  0.3353 -1.5307 -0.4221
  360MOL0     O48466   3.693   9.653   0.051  0.2195  0.5146  0.0096
  360MOL0     C48467   3.681   9.769   0.091  0.4799 -0.3658 -1.1343
  360MOL0     O48468   3.789   9.855   0.122  0.2279 -0.9921 -0.7940
  360MOL0     C48469   3.913   9.811   0.104  0.1416 -0.0480  0.9340
  360MOL0     C48470   4.020   9.901   0.061 -0.4113 -0.4413  0.5056
  360MOL0     C48471   4.150   9.855   0.045 -0.4279 -0.5255 -0.4910
  360MOL0     C48472   4.183   9.727   0.090  0.2772  0.2048 -0.5215
  360MOL0     O48473   4.315   9.688   0.084 -0.9011 -0.1200  0.1060
  360MOL0     C48474   4.346   9.547   0.078 -0.2174 -0.2655  0.5861
  360MOL0     C48475   4.479   9.534   0.002 -0.0635  0.2690 -0.8272
  360MOL0     C48476   4.590   9.603   0.085 -0.8658  0.6735  1.0580
  360MOL0     C48477   4.742   9.594   0.027  0.0074 -0.6136 -0.6262
  360MOL0     C48478   4.855   9.633   0.141  0.1131  0.5610  0.0491
  360MOL0     C48479   4.991   9.632   0.069  0.6767 -0.1610  0.3033
  360MOL0     C48480   5.113   9.614   0.162  0.2476 -0.3536  0.4014
  360MOL0     C48481   5.244   9.629   0.079 -0.2269  0.7045 -0.9189
  360MOL0     N48482   5.348   9.549   0.141  0.2164  0.1132 -0.3273
  360MOL0     C48483   5.486   9.585   0.134  0.1718 -0.5168 -0.1330
  360MOL0     C48484   5.553   9.474   0.176 -0.6242 -0.2236  0.0131
  360MOL0     C48485   5.709   9.465   0.195  1.0408  1.4070  0.2560
  360MOL0     C48486   5.781   9.499   0.067  0.0232 -0.3161 -0.4124
  360MOL0     C48487   5.718   9.427  -0.053  0.0226 -0.2280  0.2749
  360MOL0     C48488   5.721   9.274  -0.048  0.3283 -0.0942  0.5371
  360MOL0     O48489   5.659   9.207  -0.155 -0.6142  0.3939  1.0515
  360MOL0     C48490   5.541   9.261  -0.194 -0.0234  0.3489 -0.7870
  360MOL0     C48491   5.544   9.339  -0.308  0.1801 -0.2312 -0.0733
  360MOL0     C48492   5.428   9.399  -0.360  0.1298 -0.0407 -0.5938
  360MOL0     C48493   5.447   9.481  -0.481  0.0768  0.0743  0.3204
  360MOL0     C48494   5.303   9.372  -0.298 -0.2881 -0.7610  0.9839
  360MOL0     C48495   5.166   9.438  -0.340  0.4640 -0.1775  0.7053
  360MOL0     O48496   5.065   9.409  -0.248 -0.7705 -0.3489 -0.0272
  360MOL0     C48497   4.935   9.437  -0.271 -0.5058  0.2793 -0.3669
  360MOL0     C48498   4.830   9.343  -0.241 -0.0369 -0.5588  0.1307
  360MOL0     C48499   4.691   9.383  -0.264  0.1532  0.2718 -0.1594
  360MOL0     C48500   4.663   9.508  -0.331 -1.3824  0.2198 -0.5880
  360MOL0     O48501   4.530   9.533  -0.347  0.4098  0.6432  1.1319
  360MOL0     C48502   4.472   9.649  -0.402 -0.6196  0.4486  0.1391
  360MOL0     C48503   4.317   9.638  -0.429  0.1673  0.5097 -0.1031
  360MOL0     C48504   4.242   9.655  -0.296 -0.5086  0.2933  0.1503
  360MOL0     C48505   4.094   9.624  -0.336 -0.0440  0.0036 -0.5075
  360MOL0     C48506   3.998   9.654  -0.221 -0.8526 -0.2823  0.9477
  360MOL0     C48507   3.868   9.584  -0.250 -0.7002 -0.4825 -0.2297
  360MOL0     C48508   3.866   9.435  -0.226  0.5632 -0.0910  0.9636
  360MOL0     C48509   3.725   9.382  -0.191 -0.3415 -0.2952 -0.6301
  360MOL0    Cl48510   3.731   9.209  -0.163 -0.1144  0.0038 -0.2911
  360MOL0     C48511   4.776   9.589  -0.369 -0.4203 -0.6771  0.2363
  360MOL0     C48512   4.907   9.557  -0.337  0.8946  0.5888 -0.4530
  360MOL0     O48513   5.156   9.471  -0.461  0.2386 -0.3027 -0.7941
  360MOL0     C48514   5.306   9.290  -0.185 -0.3197 -0.2681 -0.3149
  360MOL0     C48515   5.420   9.240  -0.130  0.5096  0.1900 -0.3178
  360MOL0     N48516   5.454   9.368   0.192 -0.4486 -0.2916 -0.9474
  360MOL0     N48517   5.335   9.419   0.173  0.6094  0.3260 -0.0430
  360MOL0     C48518   4.088   9.646   0.155  0.2084  0.1396 -0.1119
  360MOL0     C48519   3.960   9.693   0.166  0.7576 -1.3109 -0.6789
  360MOL0     C48520   3.546   9.814   0.123  0.3422 -0.3402 -0.1851
  360MOL0     C48521   3.523   9.947   0.171 -0.0523  0.0325 -0.2068
  360MOL0     C48522   3.394   9.987   0.208 -0.6432 -0.9634  0.3641
  360MOL0     C48523   3.283   9.908   0.178  0.7649 -0.0418 -0.4931
  360MOL0     O48524   3.148   9.953   0.178 -0.3760  0.1579  0.0863
  360MOL0     C48525   3.110  10.085   0.221 -0.4910  0.3517 -0.3221
  360MOL0     C48526   2.957  10.075   0.232  0.1499  0.0089  0.3940
  360MOL0     C48527   2.919   9.978   0.348 -0.0755  0.8898 -0.0500
  360MOL0     C48528   2.771   9.976   0.379 -0.7539  0.0317  0.5809
  360MOL0     C48529   2.736   9.872   0.485  0.0662 -0.1042  0.0004
  360MOL0     C48530   2.707   9.779   0.559  0.2221 -0.4144 -0.2325
  360MOL0     C48531   3.300   9.780   0.142  0.2825  0.1342  0.8410
  360MOL0     C48532   3.429   9.728   0.107 -0.6789  0.2171  0.0777
  360MOL0     H48533   3.986   9.997   0.023 -0.5418 -0.5053  0.4596
  360MOL0     H48534   4.232   9.915   0.006 -0.3906 -1.6912 -2.3067
  360MOL0     H48535   4.354   9.499   0.175  1.1197  2.5166  1.9610
  360MOL0     H48536   4.266   9.496   0.022  2.4855 -2.2010 -1.8702
  360MOL0     H48537   4.514   9.432  -0.017 -0.2251  0.3241 -1.4325
  360MOL0     H48538   4.472   9.588  -0.092  1.2424  1.2804 -0.3779
  360MOL0     H48539   4.562   9.709   0.085  0.8821  1.1667  0.2393
  360MOL0     H48540   4.597   9.568   0.189  2.9688 -0.4054  0.5884
  360MOL0     H48541   4.757   9.487   0.011  0.7897 -0.9527  1.9813
  360MOL0     H48542   4.763   9.648  -0.067  0.7778  1.5991  0.7286
  360MOL0     H48543   4.829   9.728   0.189  1.1465  0.9758 -0.1858
  360MOL0     H48544   4.862   9.555   0.217  2.6245  1.7423  1.1611
  360MOL0     H48545   4.996   9.553  -0.007 -1.0935 -2.6628  2.6165
  360MOL0     H48546   5.001   9.731   0.025 -0.4586  0.0049  0.4085
  360MOL0     H48547   5.105   9.697   0.233  1.3159  0.4866 -0.4175
  360MOL0     H48548   5.105   9.515   0.208  0.5977 -0.4204  0.3262
  360MOL0     H48549   5.277   9.734   0.079 -1.4143  1.1158  0.3571
  360MOL0     H48550   5.218   9.595  -0.021  0.5914 -0.1663 -0.8489
  360MOL0     H48551   5.536   9.675   0.100  0.7907 -1.6752 -2.5185
  360MOL0     H48552   5.743   9.536   0.272  2.1416  0.6133  0.5196
  360MOL0     H48553   5.727   9.368   0.241 -2.2899  0.4654 -0.1980
  360MOL0     H48554   5.880   9.467   0.100 -1.1941 -0.7007  3.3240
  360MOL0     H48555   5.794   9.606   0.049  1.7686 -0.4741 -0.2122
  360MOL0     H48556   5.776   9.456  -0.142  1.1972 -0.8005  0.8361
  360MOL0     H48557   5.616   9.459  -0.076  0.9347  1.3308 -1.9536
  360MOL0     H48558   5.676   9.235   0.044 -0.1891 -0.7569  0.0113
  360MOL0     H48559   5.826   9.246  -0.039  0.2216 -1.0556 -0.8965
  360MOL0     H48560   5.638   9.361  -0.358  0.7320 -0.5641  0.7861
  360MOL0     H48561   5.413   9.420  -0.565 -0.3067 -0.2150  0.6768
  360MOL0     H48562   5.373   9.562  -0.478  0.8033  1.0890 -3.7337
  360MOL0     H48563   5.547   9.521  -0.502  0.0113  0.0673 -0.0017
  360MOL0     H48564   4.853   9.243  -0.205  0.7735 -0.0491  1.0997
  360MOL0     H48565   4.610   9.320  -0.230  1.2175 -1.1830 -0.2419
  360MOL0     H48566   4.489   9.736  -0.338  1.1317 -0.8874  1.5837
  360MOL0     H48567   4.521   9.674  -0.496  1.1233 -0.2423  0.8225
  360MOL0     H48568   4.283   9.714  -0.500 -1.8720  0.4583  0.7363
  360MOL0     H48569   4.306   9.545  -0.485  1.4077  1.7203 -2.4852
  360MOL0     H48570   4.256   9.750  -0.245 -1.1019 -1.1928  3.3588
  360MOL0     H48571   4.276   9.579  -0.225 -0.2712  0.4967  0.2547
  360MOL0     H48572   4.067   9.697  -0.413 -0.0778  0.0820 -0.4217
  360MOL0     H48573   4.078   9.520  -0.367 -0.7232 -0.1451  0.3287
  360MOL0     H48574   3.997   9.762  -0.201 -0.1158 -0.4831  2.1782
  360MOL0     H48575   4.041   9.628  -0.124  2.1626 -1.0651 -0.4897
  360MOL0     H48576   3.786   9.628  -0.193 -0.2836 -1.9585  1.6218
  360MOL0     H48577   3.831   9.600  -0.352  2.2413  4.3902 -0.8143
  360MOL0     H48578   3.927   9.408  -0.139 -2.8160 -0.2138  3.4892
  360MOL0     H48579   3.883   9.384  -0.321 -2.8120 -0.2669  0.3155
  360MOL0     H48580   3.654   9.407  -0.270 -0.2317 -2.4102 -1.4602
  360MOL0     H48581   3.692   9.412  -0.092  2.9587  0.5765  0.3535
  360MOL0     H48582   4.743   9.680  -0.419  1.6813  1.5833  2.6410
  360MOL0     H48583   4.980   9.630  -0.369  2.0789  0.4689  1.7797
  360MOL0     H48584   5.217   9.271  -0.126 -1.0520  1.9078 -0.6360
  360MOL0     H48585   5.412   9.175  -0.044 -1.5017  0.5874 -0.1534
  360MOL0     H48586   4.120   9.559   0.211 -0.2881 -1.5157 -2.2681
  360MOL0     H48587   3.887   9.646   0.232  0.5366 -1.1305 -0.7936
  360MOL0     H48588   3.595  10.025   0.194  1.4214 -1.8388  1.9231
  360MOL0     H48589   3.387  10.091   0.237 -1.4185 -0.4649 -1.4757
  360MOL0     H48590   3.146  10.116   0.320  1.0802  1.3391 -1.1654
  360MOL0     H48591   3.144  10.170   0.161  2.5149  0.2665  1.0666
  360MOL0     H48592   2.920  10.036   0.137  2.6099 -1.2450 -0.1225
  360MOL0     H48593   2.929  10.178   0.258  2.3801  0.5061  1.1124
  360MOL0     H48594   2.980  10.016   0.431  0.0541 -3.1397  1.9285
  360MOL0     H48595   2.956   9.879   0.320 -1.7392 -0.0861  1.0225
  360MOL0     H48596   2.720   9.950   0.286 -0.8800  0.6497  0.4756
  360MOL0     H48597   2.733  10.076   0.402  1.6764  1.9138 -2.7763
  360MOL0     H48598   2.672   9.705   0.628  0.0380 -0.8848 -0.8168
  360MOL0     H48599   3.214   9.716   0.125  0.3439  0.6660 -1.9485
  360MOL0     H48600   3.441   9.630   0.062  3.3137 -0.1932  1.5397
  361MOL0     O48601   8.755   1.165   3.503 -0.1915  0.4088  0.6069
  361MOL0     C48602   8.803   1.145   3.394 -0.1622 -1.9182 -0.1688
  361MOL0     O48603   8.742   1.177   3.272  0.1535 -0.2548 -0.0969
  361MOL0     C48604   8.616   1.244   3.264 -0.4284 -0.7010  0.1799
  361MOL0     C48605   8.559   1.247   3.134  0.1513 -0.6010 -0.1387
  361MOL0     C48606   8.433   1.300   3.119 -0.3091 -0.1017 -0.0095
  361MOL0     C48607   8.378   1.377   3.220  0.4902 -0.7181  0.8827
  361MOL0     O48608   8.267   1.456   3.185 -0.5496  0.1337 -0.0430
  361MOL0     C48609   8.269   1.591   3.219  0.3741 -0.9115 -0.7180
  361MOL0     C48610   8.140   1.653   3.167 -0.0397 -0.5773  0.9090
  361MOL0     C48611   8.128   1.798   3.203 -0.1655 -0.1210 -0.3991
  361MOL0     C48612   8.013   1.869   3.123 -0.1805 -0.3397 -1.4193
  361MOL0     C48613   8.009   2.015   3.168 -0.4424 -0.2508  0.7245
  361MOL0     C48614   7.895   2.086   3.097 -0.7435 -1.6105  0.3112
  361MOL0     C48615   7.876   2.230   3.154  0.8726  0.2212  0.3688
  361MOL0     C48616   7.730   2.282   3.131 -0.2652 -0.5933 -0.1024
  361MOL0     N48617   7.695   2.284   2.988  0.6760  0.1040  0.4850
  361MOL0     C48618   7.581   2.229   2.936 -0.4906  0.6458 -0.2595
  361MOL0     C48619   7.604   2.246   2.803  0.1403  0.8504 -0.0390
  361MOL0     C48620   7.510   2.204   2.694 -0.6752 -0.0782 -0.6071
  361MOL0     C48621   7.531   2.055   2.659 -0.0670 -0.4780 -0.5624
  361MOL0     C48622   7.498   2.023   2.519  0.3554 -0.3225  0.8792
  361MOL0     C48623   7.359   1.969   2.489  0.4287  1.3371 -0.0604
  361MOL0     O48624   7.258   2.057   2.543 -0.8973 -0.0550 -0.6402
  361MOL0     C48625   7.129   2.042   2.510  0.7670  0.5155  0.2714
  361MOL0     C48626   7.047   2.153   2.533  0.6263  0.4285 -0.1376
  361MOL0     C48627   6.909   2.153   2.500 -0.5536 -0.7149  0.2254
  361MOL0     C48628   6.837   2.294   2.513 -0.8867  0.3620  0.7061
  361MOL0     C48629   6.851   2.035   2.448  0.3151  1.4038  0.4693
  361MOL0     C48630   6.708   2.018   2.402 -0.3993 -0.1416  0.0289
  361MOL0     O48631   6.612   2.084   2.471 -0.1970 -0.1729  0.3079
  361MOL0     C48632   6.481   2.120   2.430 -0.9647  0.1150  0.0444
  361MOL0     C48633   6.408   2.047   2.344  0.2137 -0.4879  0.9126
  361MOL0     C48634   6.282   2.098   2.293  0.4002 -0.2713 -0.0097
  361MOL0     C48635   6.236   2.221   2.329  0.7241  0.2800  0.2090
  361MOL0     O48636   6.120   2.280   2.295  0.4480  1.0603  0.8085
  361MOL0     C48637   6.034   2.226   2.194 -0.3358 -0.5598 -0.1246
  361MOL0     C48638   5.926   2.317   2.146 -0.6616  0.3472  0.4986
  361MOL0     C48639   5.838   2.372   2.254  0.0421  0.7283  0.1106
  361MOL0     C48640   5.747   2.486   2.215 -0.7904 -0.6358 -0.4978
  361MOL0     C48641   5.645   2.504   2.334 -0.3509 -0.3278  0.1612
  361MOL0     C48642   5.516   2.422   2.313  0.7839  0.5234 -0.2195
  361MOL0     C48643   5.410   2.436   2.433  0.3118 -0.2056  0.1325
  361MOL0     C48644   5.349   2.575   2.439 -0.4583  0.2995 -1.0458
  361MOL0    Cl48645   5.444   2.710   2.499  0.5768 -0.1638  0.2959
  361MOL0     C48646   6.311   2.292   2.425  0.1599  0.8871 -1.2363
  361MOL0     C48647   6.435   2.240   2.471 -0.9400 -0.7283 -0.1527
  361MOL0     O48648   6.692   1.949   2.306  0.1098  0.3947  0.5624
  361MOL0     C48649   6.938   1.924   2.429  0.7276  0.4489  0.7132
  361MOL0     C48650   7.071   1.927   2.454  0.3250 -0.4381  0.1945
  361MOL0     N48651   7.724   2.300   2.771  0.2408  0.6593 -0.0645
  361MOL0     N48652   7.778   2.324   2.891 -0.0073 -0.0857  0.0823
  361MOL0     C48653   8.438   1.386   3.343  0.4770 -0.5820  0.4288
  361MOL0     C48654   8.558   1.313   3.369 -0.3349  1.3566 -0.8849
  361MOL0     C48655   8.944   1.098   3.374  1.3122  0.0983  0.3859
  361MOL0     C48656   9.024   1.146   3.273  0.4756  0.6004 -0.9222
  361MOL0     C48657   9.156   1.100   3.249 -0.2682 -0.8544 -0.0517
  361MOL0     C48658   9.214   1.018   3.348 -0.5703 -1.2218  0.0599
  361MOL0     O48659   9.347   0.982   3.331  0.7659  0.3210  0.1171
  361MOL0     C48660   9.389   0.938   3.200 -0.5353 -0.5323 -0.0167
  361MOL0     C48661   9.524   0.860   3.209  0.1724 -0.6131  0.0354
  361MOL0     C48662   9.635   0.955   3.279  1.1231 -0.1824  0.8179
  361MOL0     C48663   9.753   0.866   3.335 -0.4755  0.8129 -0.2535
  361MOL0     C48664   9.851   0.945   3.406 -0.7889 -0.0124 -1.0857
  361MOL0     C48665   9.935   1.009   3.462 -0.1226  0.0319  0.0095
  361MOL0     C48666   9.132   0.978   3.461 -0.4109  0.8816  0.5485
  361MOL0     C48667   9.004   1.015   3.469  0.5449 -0.6445 -0.4638
  361MOL0     H48668   8.610   1.189   3.058 -1.2315 -1.2071 -0.6288
  361MOL0     H48669   8.385   1.291   3.022  2.0943 -1.2133 -1.2005
  361MOL0     H48670   8.281   1.599   3.327 -0.2294 -3.7017 -0.3778
  361MOL0     H48671   8.357   1.635   3.170  1.1201 -2.0453 -0.4397
  361MOL0     H48672   8.135   1.648   3.058  3.1220  3.0930  0.3731
  361MOL0     H48673   8.062   1.584   3.201  0.5332 -1.2528  0.8921
  361MOL0     H48674   8.118   1.797   3.312  1.1345  3.2069 -0.1613
  361MOL0     H48675   8.220   1.853   3.180  1.0188 -1.1445  1.5693
  361MOL0     H48676   8.038   1.848   3.019  2.6130 -4.1369 -0.2055
  361MOL0     H48677   7.920   1.822   3.156  0.5125 -1.2901 -0.7852
  361MOL0     H48678   8.004   2.040   3.275 -3.2558  0.0248  0.5828
  361MOL0     H48679   8.104   2.054   3.130 -1.3930 -1.0341 -2.7976
  361MOL0     H48680   7.912   2.092   2.989  1.1988  0.5933  0.6803
  361MOL0     H48681   7.800   2.037   3.123 -3.7293  2.9902 -0.7411
  361MOL0     H48682   7.896   2.229   3.261 -0.3559  1.7953  0.6452
  361MOL0     H48683   7.949   2.292   3.101  3.0410 -1.3962  1.3129
  361MOL0     H48684   7.716   2.383   3.169  2.7212 -0.2014  0.1991
  361MOL0     H48685   7.660   2.215   3.183  2.0097 -1.9970  1.3503
  361MOL0     H48686   7.493   2.188   2.984 -1.2265  1.9912 -0.4188
  361MOL0     H48687   7.410   2.219   2.735 -0.7365  0.4219 -0.9357
  361MOL0     H48688   7.526   2.271   2.610 -0.1530 -0.4635 -0.8221
  361MOL0     H48689   7.479   2.010   2.744 -4.1705  3.6857 -0.4415
  361MOL0     H48690   7.638   2.033   2.661 -0.1148 -0.6530  0.4491
  361MOL0     H48691   7.580   1.958   2.489  3.0119  1.5774  3.4257
  361MOL0     H48692   7.514   2.114   2.461 -0.6603 -1.2137 -0.8568
  361MOL0     H48693   7.360   1.870   2.535  0.5467  0.9307 -0.9158
  361MOL0     H48694   7.344   1.966   2.380 -1.2460  0.1710  0.1638
  361MOL0     H48695   7.096   2.242   2.572 -0.0736  0.7543  0.0156
  361MOL0     H48696   6.751   2.290   2.580  0.0668 -2.2156  1.9390
  361MOL0     H48697   6.906   2.368   2.556 -0.6701 -0.1429  1.2365
  361MOL0     H48698   6.800   2.322   2.414 -1.0262  1.2246  0.9916
  361MOL0     H48699   6.446   1.949   2.319  0.2561 -0.5739  1.2992
  361MOL0     H48700   6.230   2.035   2.223  1.0832 -1.2804  0.3640
  361MOL0     H48701   6.098   2.194   2.111  0.5415 -0.7372  0.6021
  361MOL0     H48702   5.991   2.135   2.238  0.7702 -1.3022 -0.5178
  361MOL0     H48703   5.958   2.394   2.076 -0.2820  0.5543  0.8977
  361MOL0     H48704   5.869   2.259   2.072  2.3429 -2.4387  0.1344
  361MOL0     H48705   5.902   2.402   2.338 -2.0211  1.1816  1.5884
  361MOL0     H48706   5.773   2.288   2.279 -1.7546  0.8070 -3.6787
  361MOL0     H48707   5.802   2.580   2.208 -3.4139  1.1572  1.2230
  361MOL0     H48708   5.690   2.476   2.122  1.1601  2.7773 -2.2659
  361MOL0     H48709   5.611   2.607   2.316 -0.7688 -0.7978 -2.0157
  361MOL0     H48710   5.685   2.509   2.435 -0.5039 -0.6711  0.2368
  361MOL0     H48711   5.465   2.442   2.219 -1.2953  0.8972  0.9143
  361MOL0     H48712   5.550   2.318   2.312  3.2618  1.2271  1.2759
  361MOL0     H48713   5.456   2.411   2.529  2.1607 -2.2813 -1.1868
  361MOL0     H48714   5.335   2.359   2.410 -0.3243  1.1862 -2.8705
  361MOL0     H48715   5.266   2.561   2.509 -0.5963 -2.3514 -1.6582
  361MOL0     H48716   5.300   2.599   2.344 -3.0126  2.1355  0.5780
  361MOL0     H48717   6.279   2.381   2.479 -0.2671  0.0478 -0.0624
  361MOL0     H48718   6.494   2.286   2.549 -2.6216  0.8173  0.2887
  361MOL0     H48719   6.897   1.829   2.396 -0.4851  0.5205  1.8993
  361MOL0     H48720   7.137   1.847   2.424  1.9444  1.5526 -1.8875
  361MOL0     H48721   8.393   1.432   3.430  3.1923  2.6276  0.3546
  361MOL0     H48722   8.610   1.333   3.462  0.6543  1.3196 -1.4195
  361MOL0     H48723   8.975   1.216   3.207 -3.8823 -0.2066  1.1312
  361MOL0     H48724   9.210   1.129   3.159 -2.0996 -1.6418 -1.4587
  361MOL0     H48725   9.313   0.866   3.169 -0.6631 -1.1927  1.7045
  361MOL0     H48726   9.387   1.016   3.124 -1.0759 -1.4321 -0.9491
  361MOL0     H48727   9.543   0.831   3.105 -1.9390  1.5667 -1.0819
  361MOL0     H48728   9.512   0.763   3.257 -3.3823 -2.3693 -3.7252
  361MOL0     H48729   9.593   1.010   3.364 -0.5244 -2.6749  1.7170
  361MOL0     H48730   9.671   1.021   3.199 -1.4447  0.5194  0.1510
  361MOL0     H48731   9.803   0.816   3.251 -1.7142  0.6330 -0.8941
  361MOL0     H48732   9.719   0.783   3.398  2.1399 -0.0232  0.1976
  361MOL0     H48733  10.006   1.073   3.511 -0.5992  0.4803  0.1250
  361MOL0     H48734   9.187   0.901   3.515  1.8207  0.3022 -2.2795
  361MOL0     H48735   8.947   0.986   3.557 -1.4252  2.6680 -0.4781
  362MOL0     O48736   6.157   3.865   0.862 -0.1665 -0.0122  0.1878
  362MOL0     C48737   6.224   3.907   0.961  0.0880 -0.3521  0.2942
  362MOL0     O48738   6.176   3.955   1.081 -0.2179 -0.0011 -0.1566
  362MOL0     C48739   6.041   3.987   1.085 -0.4818 -0.2021 -0.5443
  362MOL0     C48740   5.979   4.067   0.994  0.5524  0.1754  0.4474
  362MOL0     C48741   5.849   4.119   1.030 -0.1627  0.0239  0.2189
  362MOL0     C48742   5.782   4.071   1.142  0.2287  1.3291  0.5248
  362MOL0     O48743   5.652   4.108   1.179  0.2229  0.6289  0.0846
  362MOL0     C48744   5.568   4.168   1.081  0.5338 -0.0277 -0.8775
  362MOL0     C48745   5.417   4.136   1.111  0.0791 -0.3018 -0.5459
  362MOL0     C48746   5.346   4.266   1.167 -0.4293  0.4201  0.1609
  362MOL0     C48747   5.207   4.225   1.218  0.4914  0.0233 -0.1541
  362MOL0     C48748   5.128   4.354   1.248  0.2225 -0.3423 -1.0176
  362MOL0     C48749   4.978   4.328   1.226  0.7033  0.0316 -0.0061
  362MOL0     C48750   4.919   4.208   1.291 -0.3688  0.3033 -0.0123
  362MOL0     C48751   4.772   4.206   1.257 -0.0531 -0.1216 -0.2462
  362MOL0     N48752   4.719   4.106   1.342 -0.2112  0.4740  0.0635
  362MOL0     C48753   4.720   3.975   1.325 -0.2811 -0.0174  0.4257
  362MOL0     C48754   4.639   3.926   1.426  0.0260  0.0731  0.5969
  362MOL0     C48755   4.600   3.784   1.453 -0.5286  0.2598  0.3878
  362MOL0     C48756   4.719   3.699   1.502  0.8684 -0.2695 -0.6455
  362MOL0     C48757   4.797   3.739   1.621  0.2120 -0.4146 -0.1477
  362MOL0     C48758   4.706   3.736   1.751  0.7548 -0.0674 -0.2652
  362MOL0     O48759   4.783   3.781   1.855 -0.0747  0.4606 -0.7004
  362MOL0     C48760   4.809   3.672   1.936  0.3946 -0.6336 -0.2354
  362MOL0     C48761   4.710   3.632   2.025  0.8040 -0.3257 -0.8284
  362MOL0     C48762   4.728   3.521   2.110 -0.4826  0.6921 -0.8658
  362MOL0     C48763   4.616   3.497   2.211  0.6715  0.5303  0.1948
  362MOL0     C48764   4.847   3.442   2.099 -0.1336 -0.1816  0.5164
  362MOL0     C48765   4.878   3.318   2.167 -0.3820  0.4173  0.6175
  362MOL0     O48766   4.852   3.318   2.289 -0.6908  0.9484 -0.0071
  362MOL0     C48767   4.866   3.201   2.362 -0.0620 -0.2789  0.5032
  362MOL0     C48768   4.758   3.108   2.353  0.2481  0.3597 -0.0539
  362MOL0     C48769   4.768   2.981   2.418  0.2320  0.3515 -0.3189
  362MOL0     C48770   4.879   2.947   2.501  0.0241  0.5202  0.8449
  362MOL0     O48771   4.868   2.826   2.562  0.1935  0.8737 -0.0780
  362MOL0     C48772   4.988   2.768   2.615  0.0782 -0.5857 -0.4047
  362MOL0     C48773   4.956   2.630   2.672  0.7883  0.1583  0.8778
  362MOL0     C48774   4.914   2.536   2.568 -0.3487 -0.1715 -0.3850
  362MOL0     C48775   4.863   2.402   2.633 -0.6941  0.0468  0.0648
  362MOL0     C48776   4.786   2.302   2.540  1.4398  0.3067 -0.4620
  362MOL0     C48777   4.719   2.198   2.637 -0.9633 -1.2484  0.2770
  362MOL0     C48778   4.682   2.093   2.544 -0.1824  0.2204  0.2002
  362MOL0     C48779   4.607   1.975   2.612  0.2199  0.2161  0.1686
  362MOL0    Cl48780   4.564   1.846   2.484 -0.1869 -0.1865 -0.1368
  362MOL0     C48781   4.988   3.033   2.506 -0.8723 -0.6350  0.2473
  362MOL0     C48782   4.985   3.164   2.432  0.2744  0.3671 -0.1049
  362MOL0     O48783   4.945   3.233   2.108  0.0698  0.2665 -0.0048
  362MOL0     C48784   4.946   3.488   2.005 -0.4079  0.3835  0.4344
  362MOL0     C48785   4.921   3.598   1.919 -0.3083  0.6837  0.6509
  362MOL0     N48786   4.607   4.031   1.509 -0.0294 -0.6644  0.0903
  362MOL0     N48787   4.671   4.131   1.460  0.2519  0.4866 -0.5595
  362MOL0     C48788   5.848   3.986   1.225 -0.5658  0.3675 -0.3050
  362MOL0     C48789   5.975   3.943   1.204 -0.5055 -1.0215  0.5235
  362MOL0     C48790   6.375   3.898   0.955  0.2530  0.0342 -0.0453
  362MOL0     C48791   6.432   3.911   0.831 -0.1755 -0.3646 -0.1872
  362MOL0     C48792   6.572   3.908   0.813  0.2597  0.5369  0.0118
  362MOL0     C48793   6.659   3.893   0.927 -0.2639 -0.0055  0.6402
  362MOL0     O48794   6.800   3.898   0.915  0.1651  0.5197  0.7761
  362MOL0     C48795   6.864   3.801   0.832 -0.2536  0.5153 -0.0405
  362MOL0     C48796   6.944   3.869   0.734 -0.3132 -0.3979 -0.4232
  362MOL0     C48797   7.055   3.962   0.799  0.7267  1.4257 -0.1760
  362MOL0     C48798   7.189   3.905   0.764  0.4433  0.4566  0.4416
  362MOL0     C48799   7.293   3.965   0.845  0.8318  0.4340 -0.2075
  362MOL0     C48800   7.385   4.004   0.913 -0.0257 -0.7606 -0.0811
  362MOL0     C48801   6.597   3.876   1.058 -0.3385  0.2201 -0.5520
  362MOL0     C48802   6.458   3.887   1.072  0.4555  0.3396 -0.9913
  362MOL0     H48803   6.043   4.108   0.917 -0.5215 -0.0770 -0.5977
  362MOL0     H48804   5.807   4.199   0.969 -0.2769  1.7944  2.4566
  362MOL0     H48805   5.580   4.276   1.092  0.6079 -0.2335  1.5646
  362MOL0     H48806   5.598   4.133   0.982 -3.6594  1.0325 -2.7438
  362MOL0     H48807   5.367   4.108   1.018 -2.0005 -0.6559  0.6195
  362MOL0     H48808   5.404   4.049   1.177  0.7861 -0.5983 -0.7821
  362MOL0     H48809   5.399   4.302   1.256  0.4128  1.3822 -0.7105
  362MOL0     H48810   5.337   4.338   1.086 -2.3663  2.6726  2.2030
  362MOL0     H48811   5.160   4.176   1.133  0.3901  0.2288 -0.2169
  362MOL0     H48812   5.220   4.162   1.306  1.1675  0.9023  0.3972
  362MOL0     H48813   5.155   4.373   1.352  0.2179 -2.6996 -0.5141
  362MOL0     H48814   5.156   4.436   1.182 -0.2977  0.6615 -0.0240
  362MOL0     H48815   4.914   4.401   1.275 -2.3707 -3.6196  2.0158
  362MOL0     H48816   4.961   4.330   1.118 -0.9953 -0.1332  0.2349
  362MOL0     H48817   4.968   4.116   1.259  3.6817  0.1155  5.3620
  362MOL0     H48818   4.937   4.225   1.398  1.0138 -0.1313 -0.1568
  362MOL0     H48819   4.754   4.184   1.151  0.2676 -4.5488  0.4102
  362MOL0     H48820   4.721   4.299   1.285 -2.1049 -1.2651  0.0041
  362MOL0     H48821   4.764   3.925   1.239  0.8990 -0.6863  1.3829
  362MOL0     H48822   4.520   3.772   1.526 -2.3286 -3.1532 -1.8940
  362MOL0     H48823   4.568   3.743   1.357 -1.7506  1.8909  0.0751
  362MOL0     H48824   4.792   3.705   1.421  0.5758 -3.3246 -1.2392
  362MOL0     H48825   4.675   3.600   1.512 -2.8082  1.2243 -0.5966
  362MOL0     H48826   4.832   3.841   1.604 -1.2316  0.0137 -0.7506
  362MOL0     H48827   4.890   3.682   1.627  2.1453  2.1828 -2.9784
  362MOL0     H48828   4.669   3.636   1.773 -0.7140 -0.0076 -2.2117
  362MOL0     H48829   4.622   3.804   1.734  1.2453  0.8798  0.9624
  362MOL0     H48830   4.617   3.686   2.036  1.5624  0.6129  1.9652
  362MOL0     H48831   4.538   3.448   2.151  2.6574 -1.5004 -0.8910
  362MOL0     H48832   4.642   3.419   2.283  1.5073 -1.7714 -2.3966
  362MOL0     H48833   4.577   3.588   2.257  2.2289  2.7481 -2.5337
  362MOL0     H48834   4.674   3.142   2.294 -1.4267  2.1067  3.0578
  362MOL0     H48835   4.680   2.918   2.408  0.2860  0.0040  1.1861
  362MOL0     H48836   5.071   2.769   2.544  0.7423  0.0245  0.3520
  362MOL0     H48837   5.009   2.836   2.698 -1.1344 -0.8384  0.1379
  362MOL0     H48838   5.031   2.585   2.738 -2.0984 -2.4977  2.6505
  362MOL0     H48839   4.870   2.636   2.740 -0.4714  1.2826 -0.7497
  362MOL0     H48840   5.006   2.515   2.512  1.5337  3.0598  1.1751
  362MOL0     H48841   4.840   2.584   2.504 -0.3889  0.1845 -0.0788
  362MOL0     H48842   4.943   2.343   2.679 -0.9790 -1.0692 -0.8288
  362MOL0     H48843   4.798   2.435   2.715 -0.3760 -1.0045  0.7627
  362MOL0     H48844   4.869   2.260   2.482  1.1463 -0.3513 -0.4206
  362MOL0     H48845   4.718   2.358   2.474  0.1004 -0.1958  0.4495
  362MOL0     H48846   4.788   2.160   2.712  3.0798 -0.2601 -2.6178
  362MOL0     H48847   4.639   2.254   2.687 -0.3430 -1.5651  1.6642
  362MOL0     H48848   4.770   2.049   2.496  0.8722  2.1741  0.2115
  362MOL0     H48849   4.618   2.142   2.470 -0.3108  0.9282  0.7686
  362MOL0     H48850   4.519   2.008   2.667  0.0003 -0.3290  0.1517
  362MOL0     H48851   4.681   1.939   2.685  0.7266 -1.9622 -1.3297
  362MOL0     H48852   5.085   3.004   2.545 -0.9895 -1.1903  0.1296
  362MOL0     H48853   5.067   3.234   2.416  0.8289 -0.1867  0.2308
  362MOL0     H48854   5.044   3.443   2.002 -0.4219  0.2457  1.6796
  362MOL0     H48855   5.000   3.619   1.847 -1.4907  0.0933 -0.8829
  362MOL0     H48856   5.795   3.954   1.314  1.2865  1.2391  1.1731
  362MOL0     H48857   6.017   3.886   1.286 -0.4689  0.4824  1.5943
  362MOL0     H48858   6.374   3.941   0.744  2.0770  4.1704 -0.4263
  362MOL0     H48859   6.599   3.921   0.708 -2.0794  1.5699 -0.5394
  362MOL0     H48860   6.930   3.734   0.888  0.2454 -1.7229 -3.0590
  362MOL0     H48861   6.796   3.736   0.775  0.7699 -1.8928  1.3444
  362MOL0     H48862   6.882   3.925   0.663 -1.2904 -2.1034 -0.9693
  362MOL0     H48863   6.987   3.792   0.670 -1.5518 -1.1516 -0.3666
  362MOL0     H48864   7.040   3.959   0.907  2.2652 -2.1028  0.0899
  362MOL0     H48865   7.056   4.064   0.759 -0.4064  1.0293 -1.2638
  362MOL0     H48866   7.203   3.927   0.658  1.1849 -3.2851 -0.3825
  362MOL0     H48867   7.194   3.799   0.791  1.4703  0.2901 -0.3347
  362MOL0     H48868   7.468   4.045   0.966 -0.6192 -1.3563  1.3586
  362MOL0     H48869   6.650   3.883   1.152 -4.5822  1.8972  2.0435
  362MOL0     H48870   6.410   3.888   1.169  0.8252 -0.8566 -0.7733
  363MOL0     O48871   1.466  11.086   4.812 -0.0945 -0.1660  0.7071
  363MOL0     C48872   1.479  11.007   4.714 -0.9065 -0.7367 -0.3963
  363MOL0     O48873   1.381  10.960   4.641 -0.8633 -0.2348  0.6782
  363MOL0     C48874   1.256  10.934   4.686  0.2403 -0.8336 -1.0329
  363MOL0     C48875   1.179  10.989   4.805 -0.6865  0.0346  0.5228
  363MOL0     C48876   1.040  10.961   4.821 -0.4712 -0.6104 -0.3457
  363MOL0     C48877   0.970  10.903   4.712 -0.2799  0.2078  1.0450
  363MOL0     O48878   0.839  10.888   4.732 -0.2056 -0.4441  0.5334
  363MOL0     C48879   0.773  10.993   4.667 -0.1956 -0.1156  0.3962
  363MOL0     C48880   0.622  10.973   4.635 -0.3258  0.0107 -0.2905
  363MOL0     C48881   0.599  10.837   4.560  0.2394 -0.2008 -0.3653
  363MOL0     C48882   0.650  10.837   4.417 -0.2155 -0.2663 -0.3891
  363MOL0     C48883   0.613  10.707   4.344  0.6301 -0.4257  0.3987
  363MOL0     C48884   0.669  10.574   4.406 -0.7322 -0.4299 -0.6002
  363MOL0     C48885   0.600  10.449   4.337  0.4886  0.6203 -0.1627
  363MOL0     C48886   0.459  10.422   4.391 -1.2507  0.1319  0.4978
  363MOL0     N48887   0.386  10.339   4.293 -0.1416  0.0789  0.4610
  363MOL0     C48888   0.266  10.379   4.238 -0.1294 -0.8860 -0.2432
  363MOL0     C48889   0.224  10.260   4.179 -0.2578  0.6437  1.0041
  363MOL0     C48890   0.102  10.255   4.099  0.4067  0.0746  0.2864
  363MOL0     C48891  -0.015  10.333   4.146  0.6939 -0.3924  0.3438
  363MOL0     C48892  -0.133  10.303   4.056 -0.6482 -0.2655  0.3234
  363MOL0     C48893  -0.265  10.362   4.102 -0.3479 -0.5343 -0.4941
  363MOL0     O48894  -0.298  10.301   4.233  0.0111  0.0471 -0.3377
  363MOL0     C48895  -0.433  10.291   4.257 -0.3779 -0.2900 -0.4557
  363MOL0     C48896  -0.468  10.189   4.348 -0.9470  0.1013  0.5529
  363MOL0     C48897  -0.604  10.171   4.372 -0.4664  0.5091 -0.3757
  363MOL0     C48898  -0.635  10.077   4.487  0.3138  0.4889  0.6545
  363MOL0     C48899  -0.702  10.248   4.311  0.3126  0.4700  0.3662
  363MOL0     C48900  -0.852  10.241   4.341  0.5727 -0.2366  0.2040
  363MOL0     O48901  -0.910  10.129   4.400  0.4490  0.0170  0.4404
  363MOL0     C48902  -1.046  10.136   4.436  0.0025  0.2801  0.0864
  363MOL0     C48903  -1.097  10.104   4.566  0.6485  0.1690  0.2527
  363MOL0     C48904  -1.233  10.112   4.597 -0.9807 -0.0713 -0.0243
  363MOL0     C48905  -1.324  10.148   4.498 -0.3238 -0.4209 -0.2528
  363MOL0     O48906  -1.463  10.148   4.508  0.2520  0.6685  0.4840
  363MOL0     C48907  -1.538  10.050   4.582  0.4254 -1.4586  0.4865
  363MOL0     C48908  -1.680  10.097   4.612  0.1408 -0.7773  0.6789
  363MOL0     C48909  -1.743   9.986   4.702  0.0348 -0.3429  0.1858
  363MOL0     C48910  -1.898  10.002   4.719  0.0736 -0.2239  0.1518
  363MOL0     C48911  -1.923  10.107   4.830  1.0147  0.1959  0.1082
  363MOL0     C48912  -2.053  10.073   4.907 -0.0069  0.3399  0.3286
  363MOL0     C48913  -2.096  10.197   4.995 -0.1019 -1.3075  0.2930
  363MOL0     C48914  -2.210  10.153   5.087  0.0924 -0.0059 -0.4531
  363MOL0    Cl48915  -2.358  10.093   5.010 -0.6107 -0.0040 -0.0459
  363MOL0     C48916  -1.274  10.181   4.376 -0.2540 -0.8161  0.7061
  363MOL0     C48917  -1.140  10.181   4.347  0.7617  0.1732  0.2915
  363MOL0     O48918  -0.908  10.351   4.334  0.3814 -0.3819 -0.0158
  363MOL0     C48919  -0.664  10.345   4.218 -0.3818 -0.0151 -0.1870
  363MOL0     C48920  -0.528  10.367   4.195 -0.1820  0.7104  0.0049
  363MOL0     N48921   0.316  10.160   4.206 -0.1669 -0.0288  0.1760
  363MOL0     N48922   0.416  10.209   4.266 -0.5699 -0.3498 -0.8715
  363MOL0     C48923   1.040  10.838   4.606  0.9452  0.2728 -0.0221
  363MOL0     C48924   1.179  10.857   4.606  0.1688  0.9688  0.9477
  363MOL0     C48925   1.618  10.982   4.671  0.0970  0.7890  0.1322
  363MOL0     C48926   1.643  10.918   4.543  0.3173  0.7596 -0.3235
  363MOL0     C48927   1.776  10.893   4.504 -0.1716  0.0368 -0.2504
  363MOL0     C48928   1.880  10.930   4.587  0.1888 -0.2555  0.2316
  363MOL0     O48929   2.001  10.891   4.551  0.0640 -0.0434  0.7081
  363MOL0     C48930   2.109  10.887   4.649 -0.3130  0.4577 -0.2607
  363MOL0     C48931   2.239  10.837   4.583  0.6613  0.0934  0.0578
  363MOL0     C48932   2.291  10.936   4.490 -0.5310  0.0436  0.0401
  363MOL0     C48933   2.439  10.896   4.456 -0.8308  0.8861 -0.0628
  363MOL0     C48934   2.435  10.779   4.361 -1.2778  0.6356  0.6817
  363MOL0     C48935   2.445  10.675   4.288  0.8510  0.4889 -0.9683
  363MOL0     C48936   1.854  11.000   4.711 -0.0609  0.0525 -0.2253
  363MOL0     C48937   1.723  11.029   4.746  0.7376 -0.3025  0.0077
  363MOL0     H48938   1.231  11.044   4.882 -1.3303 -1.0292  1.7637
  363MOL0     H48939   0.985  10.989   4.909  1.1335  2.7663 -0.2457
  363MOL0     H48940   0.774  11.073   4.741  1.3004  0.5858 -0.3422
  363MOL0     H48941   0.815  11.021   4.570  0.1057  3.1472  1.3491
  363MOL0     H48942   0.561  10.964   4.725 -2.4004 -2.2043 -1.7730
  363MOL0     H48943   0.587  11.053   4.569  1.6321  0.5719 -0.7149
  363MOL0     H48944   0.648  10.760   4.620 -0.8736  1.7142  3.4009
  363MOL0     H48945   0.493  10.809   4.566  0.6741 -1.7236  0.5080
  363MOL0     H48946   0.597  10.917   4.363 -1.5153 -0.5216  0.4471
  363MOL0     H48947   0.756  10.860   4.406  0.1581  0.6004  3.4166
  363MOL0     H48948   0.504  10.708   4.340  0.6521 -1.1688 -0.8593
  363MOL0     H48949   0.639  10.710   4.238 -1.8010 -0.3646 -0.2452
  363MOL0     H48950   0.774  10.561   4.379 -0.3176  1.3017  0.0786
  363MOL0     H48951   0.653  10.570   4.514  1.3807  1.5036 -0.1451
  363MOL0     H48952   0.583  10.470   4.231 -2.3438  1.0016  0.2902
  363MOL0     H48953   0.665  10.362   4.348 -0.9454 -0.2200  2.1055
  363MOL0     H48954   0.411  10.520   4.406 -0.1283  0.7144  0.3656
  363MOL0     H48955   0.462  10.365   4.484  1.5074 -0.5823  0.0581
  363MOL0     H48956   0.223  10.479   4.239  4.0663  1.1462 -1.5972
  363MOL0     H48957   0.108  10.277   3.992 -0.8175 -0.2452  0.1407
  363MOL0     H48958   0.077  10.148   4.104  1.9535 -0.5233 -2.6226
  363MOL0     H48959  -0.001  10.442   4.144  2.0527 -0.5592 -0.4742
  363MOL0     H48960  -0.046  10.299   4.245 -2.1759 -0.5241 -0.5002
  363MOL0     H48961  -0.152  10.196   4.047 -0.3357 -0.1373 -3.2955
  363MOL0     H48962  -0.105  10.349   3.960 -5.2782  0.5763 -0.8834
  363MOL0     H48963  -0.344  10.351   4.027 -2.2793  0.4212  1.3009
  363MOL0     H48964  -0.253  10.470   4.119 -1.2210 -0.5783  0.4656
  363MOL0     H48965  -0.392  10.121   4.382  0.4774 -0.2489 -2.8861
  363MOL0     H48966  -0.705  10.131   4.552  0.3839  1.6494 -0.1970
  363MOL0     H48967  -0.677   9.982   4.453  0.2132  0.2782  1.3523
  363MOL0     H48968  -0.545  10.045   4.541  2.1362 -0.2139 -2.5411
  363MOL0     H48969  -1.016  10.095   4.638  0.5661  1.5810  0.5453
  363MOL0     H48970  -1.266  10.087   4.698  2.5187  2.4876  1.9659
  363MOL0     H48971  -1.546   9.961   4.519 -4.3166  0.4393 -2.1562
  363MOL0     H48972  -1.477  10.024   4.669  0.6266  0.4878  0.9727
  363MOL0     H48973  -1.685  10.197   4.656  0.1957 -1.1210  1.4835
  363MOL0     H48974  -1.743  10.098   4.523  0.6767  0.6891  0.2973
  363MOL0     H48975  -1.704   9.982   4.804 -1.9879 -0.3367  1.0247
  363MOL0     H48976  -1.730   9.889   4.653 -3.1797 -1.8882  2.0512
  363MOL0     H48977  -1.951  10.036   4.630 -2.0696  0.1317  1.5051
  363MOL0     H48978  -1.929   9.903   4.754 -1.1164 -0.0609 -0.4205
  363MOL0     H48979  -1.922  10.210   4.795 -1.0708  0.6313  1.1662
  363MOL0     H48980  -1.849  10.110   4.911 -1.1405 -0.6370  2.2533
  363MOL0     H48981  -2.127  10.046   4.831  0.7248 -0.8360  0.0135
  363MOL0     H48982  -2.042   9.987   4.972 -0.7955 -1.0183 -1.2563
  363MOL0     H48983  -2.141  10.280   4.940 -0.2685 -0.0601  2.2107
  363MOL0     H48984  -2.016  10.215   5.067 -0.2904 -6.2820  2.1415
  363MOL0     H48985  -2.239  10.235   5.153  0.4360 -0.7387  0.6332
  363MOL0     H48986  -2.176  10.080   5.161 -0.2816  0.7851  0.5330
  363MOL0     H48987  -1.349  10.211   4.303  0.5721  1.5940  0.7570
  363MOL0     H48988  -1.109  10.217   4.249 -0.2416 -2.8182 -1.2497
  363MOL0     H48989  -0.730  10.416   4.169 -0.2276  2.2010  2.5371
  363MOL0     H48990  -0.514  10.446   4.122 -1.4320  1.3465  0.4145
  363MOL0     H48991   0.982  10.773   4.541 -0.4067 -0.1037  1.4925
  363MOL0     H48992   1.214  10.800   4.521 -2.0625 -0.1599  0.7133
  363MOL0     H48993   1.550  10.911   4.487  0.0138 -2.3949  0.3517
  363MOL0     H48994   1.793  10.862   4.402 -1.5861 -1.3782 -0.0965
  363MOL0     H48995   2.124  10.987   4.689 -0.7663 -0.2452  1.7522
  363MOL0     H48996   2.076  10.828   4.735  1.6394 -1.8142 -0.9349
  363MOL0     H48997   2.217  10.742   4.533 -0.9485  1.0667 -1.1461
  363MOL0     H48998   2.306  10.819   4.668  0.9832 -2.6540 -0.6553
  363MOL0     H48999   2.293  11.029   4.547 -1.0967 -0.2400  0.5364
  363MOL0     H49000   2.219  10.944   4.407  0.4289  1.1200 -0.7105
  363MOL0     H49001   2.485  10.861   4.549 -1.8569 -0.4518 -0.0317
  363MOL0     H49002   2.500  10.976   4.412 -0.5238 -1.0401 -3.5360
  363MOL0     H49003   2.443  10.589   4.225  2.8438  0.3939 -0.9595
  363MOL0     H49004   1.934  11.029   4.778  0.1990  0.1857 -0.5882
  363MOL0     H49005   1.708  11.074   4.844 -0.4911  0.0361 -0.3201
  364MOL0     O49006   7.051   6.586   5.834  0.7378 -0.1678  0.4752
  364MOL0     C49007   7.122   6.512   5.765 -0.1274  0.0422 -0.4217
  364MOL0     O49008   7.100   6.391   5.701  0.3958  0.4126 -0.6631
  364MOL0     C49009   6.971   6.362   5.711  0.8272 -0.3002  0.7638
  364MOL0     C49010   6.886   6.363   5.593  0.1858 -0.3042 -0.0038
  364MOL0     C49011   6.750   6.326   5.599  0.4678  0.4777  0.4662
  364MOL0     C49012   6.698   6.284   5.726  0.3876 -0.1824  0.2976
  364MOL0     O49013   6.564   6.259   5.714 -0.1331  0.4294 -0.3442
  364MOL0     C49014   6.535   6.134   5.785  0.2597 -0.0795 -0.0286
  364MOL0     C49015   6.402   6.082   5.731 -0.6332 -0.5502 -0.2051
  364MOL0     C49016   6.295   6.178   5.764  0.3793  0.6923  0.0857
  364MOL0     C49017   6.177   6.101   5.704  0.1531 -0.7994 -0.1651
  364MOL0     C49018   6.055   6.191   5.706  0.2174 -0.3179  0.0724
  364MOL0     C49019   5.925   6.114   5.714 -1.2159  0.6005 -0.1820
  364MOL0     C49020   5.797   6.204   5.695 -0.0096  0.6316 -0.2429
  364MOL0     C49021   5.679   6.111   5.719  0.2758 -0.0199 -0.7817
  364MOL0     N49022   5.550   6.186   5.728 -0.2411 -0.1889 -0.6586
  364MOL0     C49023   5.435   6.144   5.681  0.6300  0.9678  0.1496
  364MOL0     C49024   5.336   6.241   5.703 -0.5733 -1.2468  0.9188
  364MOL0     C49025   5.195   6.236   5.650  0.2338  0.1240 -0.7088
  364MOL0     C49026   5.111   6.142   5.729 -0.6968  0.8111  0.6863
  364MOL0     C49027   4.964   6.135   5.678 -0.0516 -0.1939  0.2656
  364MOL0     C49028   4.874   6.033   5.743 -0.2723 -0.2483 -0.2182
  364MOL0     O49029   4.824   6.085   5.866  0.1260  0.2672 -0.6301
  364MOL0     C49030   4.720   5.997   5.914 -0.1563 -0.2847  0.7123
  364MOL0     C49031   4.640   6.047   6.016  0.2432 -0.1975 -0.0675
  364MOL0     C49032   4.534   5.990   6.067 -0.2086  0.4454  0.2523
  364MOL0     C49033   4.471   6.062   6.187  0.0228  1.5985 -0.3284
  364MOL0     C49034   4.493   5.864   6.012  0.0550  0.1550 -0.8677
  364MOL0     C49035   4.373   5.785   6.062 -0.3232  0.3546 -0.1865
  364MOL0     O49036   4.356   5.653   6.017  0.0447 -0.1270  0.3185
  364MOL0     C49037   4.253   5.579   6.057 -0.2447  0.7577 -0.7742
  364MOL0     C49038   4.119   5.630   6.070  0.3476  0.1834  0.0184
  364MOL0     C49039   4.018   5.548   6.122  0.2893  1.1080  0.7287
  364MOL0     C49040   4.046   5.414   6.164  1.4665 -0.1680 -0.7476
  364MOL0     O49041   3.945   5.350   6.229 -0.2132  0.2661 -0.0613
  364MOL0     C49042   3.927   5.216   6.183  1.7828  0.0221  0.1535
  364MOL0     C49043   3.916   5.131   6.304 -0.0066  0.8260 -0.2866
  364MOL0     C49044   4.049   5.099   6.365  0.0021  1.3854 -0.3394
  364MOL0     C49045   4.031   4.987   6.463  0.8346 -0.0490 -0.4776
  364MOL0     C49046   4.074   4.850   6.421  0.9806  0.6941 -1.0204
  364MOL0     C49047   4.006   4.792   6.298  0.4951 -0.4189 -0.4532
  364MOL0     C49048   4.073   4.647   6.279  0.6926 -0.1624 -0.5479
  364MOL0     C49049   4.068   4.611   6.128  0.1423  0.8708 -0.3139
  364MOL0    Cl49050   3.901   4.616   6.077 -0.1226  0.3757  0.3756
  364MOL0     C49051   4.171   5.359   6.145 -0.3773 -0.9073  0.0216
  364MOL0     C49052   4.274   5.442   6.089 -0.2461  1.1842 -0.0820
  364MOL0     O49053   4.298   5.843   6.130  1.5366  0.9337 -0.4071
  364MOL0     C49054   4.569   5.815   5.909  0.2024  0.4244 -0.2903
  364MOL0     C49055   4.680   5.881   5.858 -0.7682  0.1967  0.1609
  364MOL0     N49056   5.401   6.340   5.768 -0.2317  0.3917 -0.0592
  364MOL0     N49057   5.529   6.307   5.785 -0.4069  0.3376 -0.2388
  364MOL0     C49058   6.780   6.267   5.837 -0.4943  1.1034  0.1637
  364MOL0     C49059   6.921   6.310   5.829 -0.2018  0.1769  0.1785
  364MOL0     C49060   7.255   6.562   5.751 -0.4701 -0.1751  0.4051
  364MOL0     C49061   7.310   6.652   5.842 -0.2512 -0.3931  0.3726
  364MOL0     C49062   7.438   6.701   5.821  0.0596  0.1252  0.0965
  364MOL0     C49063   7.513   6.653   5.710 -0.2804  0.6046 -1.0637
  364MOL0     O49064   7.639   6.686   5.685 -0.8286  0.2269 -0.7234
  364MOL0     C49065   7.728   6.723   5.789 -0.1745 -0.4251  0.7026
  364MOL0     C49066   7.864   6.764   5.744  0.2760  0.2120 -1.1058
  364MOL0     C49067   7.941   6.776   5.882 -1.3128 -0.9577 -0.2583
  364MOL0     C49068   8.065   6.844   5.844 -0.1143 -0.1046 -0.0118
  364MOL0     C49069   8.175   6.864   5.938 -0.2870  0.2460  0.0522
  364MOL0     C49070   8.243   6.879   6.043  0.2201  0.3759  0.2946
  364MOL0     C49071   7.461   6.559   5.619 -0.4818 -0.6229  0.0625
  364MOL0     C49072   7.330   6.510   5.640  0.7821  0.8817  0.7757
  364MOL0     H49073   6.918   6.396   5.495 -0.6640  1.5214  0.2927
  364MOL0     H49074   6.689   6.345   5.512  1.4815  0.0570 -0.3574
  364MOL0     H49075   6.615   6.065   5.758  1.0365 -0.1819  2.2942
  364MOL0     H49076   6.531   6.138   5.894  1.7039  0.6284  0.0176
  364MOL0     H49077   6.407   6.059   5.624 -1.9510 -2.2953  0.0610
  364MOL0     H49078   6.392   5.990   5.789 -0.0527 -1.2893 -1.2490
  364MOL0     H49079   6.273   6.187   5.871  0.9835  1.9693  0.1182
  364MOL0     H49080   6.303   6.275   5.716 -3.0781  1.8886  1.6017
  364MOL0     H49081   6.188   6.061   5.603 -0.9178  1.8600 -1.4195
  364MOL0     H49082   6.152   6.018   5.771 -0.4479  0.3057  1.0289
  364MOL0     H49083   6.063   6.266   5.786 -1.5466 -1.1226  1.0607
  364MOL0     H49084   6.055   6.243   5.609  0.0962  1.1066  0.8107
  364MOL0     H49085   5.913   6.037   5.637  0.8278  0.2941 -0.2642
  364MOL0     H49086   5.915   6.060   5.808  0.5183  0.7802  0.1474
  364MOL0     H49087   5.803   6.284   5.770  1.8094 -2.6065  3.4004
  364MOL0     H49088   5.791   6.251   5.597  1.6986  3.1047  0.7319
  364MOL0     H49089   5.696   6.054   5.810 -2.5104  0.9760  0.4482
  364MOL0     H49090   5.672   6.048   5.630  0.8954  0.7869 -1.4230
  364MOL0     H49091   5.425   6.062   5.610  3.1108 -1.3735  2.2881
  364MOL0     H49092   5.150   6.335   5.647  0.1484  0.1183 -4.0574
  364MOL0     H49093   5.194   6.204   5.545 -1.2199 -2.4798  0.0134
  364MOL0     H49094   5.115   6.174   5.833 -0.7372  3.5764 -0.0686
  364MOL0     H49095   5.156   6.045   5.709 -0.2175  0.8801  1.4167
  364MOL0     H49096   4.974   6.107   5.572 -0.5729  0.2130  0.1018
  364MOL0     H49097   4.916   6.233   5.676 -0.7964 -0.5003  1.9435
  364MOL0     H49098   4.928   5.941   5.768  0.6826  0.1312 -0.8350
  364MOL0     H49099   4.799   6.008   5.668  0.3777  1.0366 -1.3375
  364MOL0     H49100   4.673   6.140   6.060  0.1323 -0.0356 -0.3195
  364MOL0     H49101   4.369   6.096   6.167 -1.0602 -1.3636 -0.3225
  364MOL0     H49102   4.471   5.987   6.267 -1.7862  0.7380 -1.0782
  364MOL0     H49103   4.528   6.150   6.220  0.5495  0.7327  1.1653
  364MOL0     H49104   4.103   5.733   6.040 -0.7540 -0.2667 -1.0059
  364MOL0     H49105   3.918   5.588   6.129 -0.7141 -1.1657  0.3401
  364MOL0     H49106   3.836   5.216   6.123  1.0577 -1.3576  1.2162
  364MOL0     H49107   4.009   5.179   6.121  0.5499 -0.1873 -1.3955
  364MOL0     H49108   3.860   5.191   6.377  4.0266  1.9113  2.2350
  364MOL0     H49109   3.854   5.042   6.288 -0.3130  0.9354  0.2437
  364MOL0     H49110   4.092   5.187   6.413  2.6852 -0.5956  1.1728
  364MOL0     H49111   4.123   5.068   6.291 -2.0268  1.2024 -2.4099
  364MOL0     H49112   4.094   5.009   6.550 -0.4582 -2.6446  1.2251
  364MOL0     H49113   3.930   4.987   6.505  0.1099 -1.3433 -2.1075
  364MOL0     H49114   4.064   4.774   6.500  2.5660 -1.2202 -2.5351
  364MOL0     H49115   4.183   4.858   6.416  1.4192  0.1030  3.3171
  364MOL0     H49116   3.897   4.797   6.294  0.5444  1.4056 -0.1856
  364MOL0     H49117   4.031   4.849   6.208 -3.4546  1.4608 -0.5980
  364MOL0     H49118   4.013   4.576   6.337 -0.5902  0.7937 -0.6327
  364MOL0     H49119   4.173   4.637   6.323  0.2212  1.8638  1.2157
  364MOL0     H49120   4.113   4.512   6.127 -2.9486 -0.6261 -0.5390
  364MOL0     H49121   4.127   4.683   6.071 -2.5113  3.0598 -0.5114
  364MOL0     H49122   4.197   5.262   6.185 -4.3362 -1.8015  0.8386
  364MOL0     H49123   4.378   5.412   6.084  0.1820  2.2120  1.8080
  364MOL0     H49124   4.542   5.721   5.860  0.7317 -0.6131  1.3424
  364MOL0     H49125   4.736   5.834   5.778  0.6664  0.8821  0.7307
  364MOL0     H49126   6.738   6.240   5.933 -1.2574  0.8316 -0.2396
  364MOL0     H49127   6.990   6.319   5.912  2.0782 -1.0383 -1.4825
  364MOL0     H49128   7.257   6.684   5.930  2.4429 -1.6319  2.5961
  364MOL0     H49129   7.479   6.774   5.889  0.5138  2.0404 -2.1165
  364MOL0     H49130   7.687   6.808   5.844  1.0692  1.3782 -1.0086
  364MOL0     H49131   7.741   6.637   5.856  1.6934 -1.4126 -0.8334
  364MOL0     H49132   7.860   6.862   5.696 -2.9246  0.3094 -0.8722
  364MOL0     H49133   7.907   6.695   5.671 -0.9562  1.3498 -2.9831
  364MOL0     H49134   7.967   6.680   5.928  3.6749 -0.3432 -1.2903
  364MOL0     H49135   7.885   6.840   5.951 -2.7461 -1.2692 -1.0903
  364MOL0     H49136   8.048   6.941   5.798  1.6855 -0.8931 -2.5982
  364MOL0     H49137   8.110   6.778   5.769 -0.6881 -1.1994  0.5847
  364MOL0     H49138   8.300   6.884   6.133  0.3657 -0.6656  0.2739
  364MOL0     H49139   7.512   6.527   5.528 -3.2808  0.9060 -2.2085
  364MOL0     H49140   7.279   6.446   5.568  0.1009  0.4288  1.6327
  365MOL0     O49141   5.840   1.987   0.171  0.5263  0.1939 -0.7381
  365MOL0     C49142   5.846   1.996   0.052  0.2409 -0.3914  0.5905
  365MOL0     O49143   5.888   1.899  -0.032  0.3376 -0.4933  0.5345
  365MOL0     C49144   5.932   1.784   0.021  0.0553 -0.3567 -0.9598
  365MOL0     C49145   5.876   1.657  -0.012 -0.5533 -1.1192  0.1698
  365MOL0     C49146   5.948   1.542   0.016  0.5129  0.4808  0.5379
  365MOL0     C49147   6.064   1.537   0.088  0.5556 -0.5435 -0.1283
  365MOL0     O49148   6.126   1.421   0.126  0.1530  0.2509  1.0290
  365MOL0     C49149   6.189   1.395   0.252 -1.1034 -0.4296 -0.1037
  365MOL0     C49150   6.292   1.272   0.224  0.4038 -0.5508 -0.3284
  365MOL0     C49151   6.396   1.320   0.134  0.3111 -0.0231  0.3485
  365MOL0     C49152   6.478   1.193   0.095  0.0889  0.0578 -0.4299
  365MOL0     C49153   6.423   1.116  -0.017  0.2254  0.0302  1.0391
  365MOL0     C49154   6.508   0.998  -0.052 -0.1193  0.0591 -0.7945
  365MOL0     C49155   6.474   0.925  -0.184 -0.6809  0.2977  0.0319
  365MOL0     C49156   6.585   0.813  -0.203  0.2621 -0.9138  0.1917
  365MOL0     N49157   6.715   0.852  -0.271  0.1847  0.0739 -0.5234
  365MOL0     C49158   6.837   0.855  -0.217  0.7476 -0.0518 -0.2624
  365MOL0     C49159   6.923   0.861  -0.327  0.4268  0.4440 -1.2516
  365MOL0     C49160   7.082   0.864  -0.329  0.8554  0.6907  0.1706
  365MOL0     C49161   7.151   0.725  -0.352  0.9173  0.3218  0.0348
  365MOL0     C49162   7.139   0.630  -0.237 -0.0967 -0.1881 -0.2737
  365MOL0     C49163   7.230   0.515  -0.252 -0.2103 -0.1167  0.1064
  365MOL0     O49164   7.241   0.434  -0.132  0.1912  0.1354  0.3191
  365MOL0     C49165   7.325   0.331  -0.152  0.0315  0.7963  0.7790
  365MOL0     C49166   7.442   0.331  -0.081  0.3827  0.6418 -0.7789
  365MOL0     C49167   7.546   0.240  -0.096  0.0585  0.8955 -1.1645
  365MOL0     C49168   7.682   0.274  -0.044 -0.1032  0.1774  0.0984
  365MOL0     C49169   7.525   0.132  -0.184  0.1912  0.3087  0.5412
  365MOL0     C49170   7.623   0.023  -0.206 -0.2698 -0.3283  0.3702
  365MOL0     O49171   7.623  -0.033  -0.327 -0.0142  0.3872  0.0273
  365MOL0     C49172   7.719  -0.112  -0.371 -0.0016  0.4275  0.5215
  365MOL0     C49173   7.854  -0.116  -0.323 -0.5792 -0.0627  0.7474
  365MOL0     C49174   7.956  -0.200  -0.384  0.0968 -0.6097  0.7302
  365MOL0     C49175   7.921  -0.294  -0.484 -0.1784  0.8183  0.0750
  365MOL0     O49176   8.009  -0.374  -0.555  0.2161  0.0350  0.0506
  365MOL0     C49177   8.021  -0.506  -0.505 -0.3116 -0.0755  1.4360
  365MOL0     C49178   8.133  -0.578  -0.578 -0.4971 -0.8337  0.6225
  365MOL0     C49179   8.261  -0.494  -0.578  0.8422 -0.1511 -0.1197
  365MOL0     C49180   8.378  -0.578  -0.620  0.9911  0.6856  0.0054
  365MOL0     C49181   8.506  -0.495  -0.652  0.1098  0.6269 -0.0938
  365MOL0     C49182   8.608  -0.572  -0.743  0.4258 -0.9180 -0.0290
  365MOL0     C49183   8.752  -0.529  -0.720  0.3930 -0.9817 -0.3083
  365MOL0     C49184   8.855  -0.600  -0.807 -0.0516  0.3044  0.0669
  365MOL0    Cl49185   9.018  -0.511  -0.816 -0.0732  0.1004 -0.2762
  365MOL0     C49186   7.791  -0.291  -0.526 -0.0640 -0.7014 -0.6822
  365MOL0     C49187   7.691  -0.207  -0.475 -0.7952 -0.7429  0.1268
  365MOL0     O49188   7.669  -0.034  -0.105  0.2453 -0.3589  0.1197
  365MOL0     C49189   7.405   0.127  -0.262 -0.0907 -0.6608 -0.7040
  365MOL0     C49190   7.310   0.236  -0.248  0.0192 -0.3445 -0.0937
  365MOL0     N49191   6.854   0.856  -0.441  0.0723  0.6766  0.2668
  365MOL0     N49192   6.719   0.862  -0.405  0.3681 -0.5593 -0.1396
  365MOL0     C49193   6.114   1.661   0.141 -0.7242  0.3617  0.0910
  365MOL0     C49194   6.047   1.778   0.112  0.3823 -0.2762 -0.1847
  365MOL0     C49195   5.791   2.116  -0.020 -0.9553  0.1006  0.1995
  365MOL0     C49196   5.710   2.212   0.032 -0.2073  0.6257 -0.2119
  365MOL0     C49197   5.657   2.310  -0.052 -0.5551 -0.2299  0.3593
  365MOL0     C49198   5.687   2.313  -0.197  0.2429 -0.2464  0.1581
  365MOL0     O49199   5.634   2.391  -0.293 -0.2547 -0.0407 -0.0657
  365MOL0     C49200   5.532   2.494  -0.257  0.8016 -0.3001 -0.2597
  365MOL0     C49201   5.400   2.463  -0.330  0.1773  0.7942 -0.3977
  365MOL0     C49202   5.321   2.333  -0.279  0.1750 -0.5325  0.5510
  365MOL0     C49203   5.190   2.326  -0.369 -0.2125 -0.0270 -0.3813
  365MOL0     C49204   5.077   2.367  -0.290  0.3359  0.2357 -0.1558
  365MOL0     C49205   4.972   2.394  -0.235  0.1709 -0.2763 -0.2761
  365MOL0     C49206   5.784   2.222  -0.239 -0.9724  0.5774  0.4205
  365MOL0     C49207   5.825   2.124  -0.154  0.2137 -0.0817  0.4408
  365MOL0     H49208   5.786   1.661  -0.074 -0.0755  2.1988 -0.5252
  365MOL0     H49209   5.903   1.445  -0.006  1.3785  0.4293 -1.1502
  365MOL0     H49210   6.237   1.486   0.289 -0.4399  0.5853 -3.1511
  365MOL0     H49211   6.111   1.369   0.325 -2.0318 -1.8186 -1.5317
  365MOL0     H49212   6.339   1.244   0.319  0.2858 -0.0550 -0.1207
  365MOL0     H49213   6.247   1.183   0.177  2.5549 -2.3294  0.7910
  365MOL0     H49214   6.349   1.369   0.049 -5.7470 -1.8142  2.1678
  365MOL0     H49215   6.451   1.395   0.192  0.1990  1.5792 -1.5353
  365MOL0     H49216   6.577   1.227   0.061 -0.6372  2.4218 -0.3587
  365MOL0     H49217   6.489   1.124   0.179  2.2923  0.3861 -0.3744
  365MOL0     H49218   6.321   1.080  -0.000 -0.8809  3.4399  2.5934
  365MOL0     H49219   6.409   1.189  -0.097 -2.4925 -0.9332  0.5397
  365MOL0     H49220   6.615   1.023  -0.048  0.6679 -2.9048 -0.5739
  365MOL0     H49221   6.499   0.923   0.027  0.9636  2.4211  1.7207
  365MOL0     H49222   6.375   0.880  -0.189  0.0066 -1.2903 -0.1812
  365MOL0     H49223   6.472   1.003  -0.260  3.1797 -1.3958 -2.1005
  365MOL0     H49224   6.545   0.721  -0.246  3.1993 -2.6826  0.9441
  365MOL0     H49225   6.615   0.780  -0.103  1.4890  0.2265  0.2290
  365MOL0     H49226   6.860   0.859  -0.111 -0.1362  0.7389 -0.0859
  365MOL0     H49227   7.101   0.927  -0.417  1.0751  0.2187 -0.1203
  365MOL0     H49228   7.107   0.919  -0.238  0.4717  2.5042 -0.7707
  365MOL0     H49229   7.259   0.739  -0.366  1.8518 -2.9559  2.4085
  365MOL0     H49230   7.115   0.693  -0.450 -0.0822  1.8210 -0.1069
  365MOL0     H49231   7.036   0.594  -0.233 -0.5575  1.0643 -0.6624
  365MOL0     H49232   7.161   0.675  -0.139 -1.8085 -2.5580  1.3327
  365MOL0     H49233   7.332   0.551  -0.268  0.7308 -2.0585  1.3030
  365MOL0     H49234   7.189   0.454  -0.333  1.2797 -2.7749  1.2265
  365MOL0     H49235   7.452   0.413  -0.011  3.5829  2.8681 -3.5154
  365MOL0     H49236   7.702   0.381  -0.054 -1.6466  0.4556 -0.2294
  365MOL0     H49237   7.684   0.250   0.063  1.7801  1.9642  0.5326
  365MOL0     H49238   7.759   0.222  -0.101 -0.6966 -0.9259  0.2627
  365MOL0     H49239   7.886  -0.051  -0.242  2.4773  1.0326 -1.1697
  365MOL0     H49240   8.057  -0.198  -0.345  1.9532 -0.3629 -3.5655
  365MOL0     H49241   8.034  -0.516  -0.396  1.2785 -0.8129  1.2102
  365MOL0     H49242   7.936  -0.569  -0.532 -0.3137  0.3927  0.2830
  365MOL0     H49243   8.153  -0.667  -0.519  2.0582  0.9634  2.6649
  365MOL0     H49244   8.098  -0.617  -0.674  0.4586  1.6241 -0.8188
  365MOL0     H49245   8.280  -0.456  -0.477  0.0657 -1.3509  0.5059
  365MOL0     H49246   8.248  -0.404  -0.638  0.5661  2.1946  3.2100
  365MOL0     H49247   8.407  -0.656  -0.548  2.2494  1.6772  0.6205
  365MOL0     H49248   8.349  -0.630  -0.711 -1.3067  0.7661  0.6355
  365MOL0     H49249   8.556  -0.461  -0.561  0.4826  0.9777 -0.4236
  365MOL0     H49250   8.484  -0.399  -0.700  1.0045  0.8867 -0.0019
  365MOL0     H49251   8.581  -0.677  -0.729 -3.8327  0.2278  2.1270
  365MOL0     H49252   8.575  -0.542  -0.843 -3.1423 -1.5385  0.8222
  365MOL0     H49253   8.782  -0.547  -0.616  1.1515  0.8539 -0.1721
  365MOL0     H49254   8.756  -0.423  -0.744 -1.5267 -0.4789  1.2947
  365MOL0     H49255   8.814  -0.624  -0.906 -0.5427  2.4626 -0.3048
  365MOL0     H49256   8.882  -0.694  -0.759  0.2386 -0.0880 -0.8392
  365MOL0     H49257   7.754  -0.357  -0.605 -0.8366 -2.5478  1.1234
  365MOL0     H49258   7.587  -0.219  -0.505 -0.6731  0.7706 -0.9825
  365MOL0     H49259   7.400   0.044  -0.332  0.5744 -2.6347  1.4609
  365MOL0     H49260   7.229   0.235  -0.319  0.8696 -1.9557 -1.1122
  365MOL0     H49261   6.204   1.669   0.202 -1.0819  0.2463  0.6391
  365MOL0     H49262   6.088   1.865   0.163 -2.2793 -0.4668  2.5625
  365MOL0     H49263   5.692   2.210   0.139  2.0923  2.2154  0.2704
  365MOL0     H49264   5.591   2.379  -0.001 -0.7956  0.4304 -0.7928
  365MOL0     H49265   5.518   2.507  -0.149  2.4792 -0.4311  0.0031
  365MOL0     H49266   5.570   2.592  -0.288 -1.8787  1.2437  0.9904
  365MOL0     H49267   5.398   2.482  -0.438 -0.8931  1.2643 -0.3062
  365MOL0     H49268   5.340   2.548  -0.297 -1.0884 -0.8028  1.6978
  365MOL0     H49269   5.304   2.337  -0.172 -0.9935  2.0061  0.3172
  365MOL0     H49270   5.395   2.253  -0.294  2.0630  0.7801  2.3358
  365MOL0     H49271   5.177   2.222  -0.400 -0.5655 -0.4362  1.0863
  365MOL0     H49272   5.189   2.389  -0.459 -1.0544 -1.7806 -1.6574
  365MOL0     H49273   4.890   2.438  -0.181  0.7297  0.4780 -0.0153
  365MOL0     H49274   5.820   2.218  -0.341 -0.4974 -2.9011  0.5970
  365MOL0     H49275   5.898   2.058  -0.198  0.1401 -0.8917  1.4969
  366MOL0     O49276   5.199   4.720   1.013  0.3856 -0.0445  0.4460
  366MOL0     C49277   5.170   4.812   1.090  0.0243  0.6509 -0.2491
  366MOL0     O49278   5.043   4.830   1.141  0.4810 -0.1517 -0.4575
  366MOL0     C49279   4.951   4.730   1.117 -0.0412  0.5539  0.0956
  366MOL0     C49280   4.879   4.677   1.225  0.5794 -0.6287  0.3095
  366MOL0     C49281   4.777   4.590   1.205  0.2762 -0.2654  0.6334
  366MOL0     C49282   4.734   4.550   1.080 -0.0651  0.1566 -0.0709
  366MOL0     O49283   4.626   4.463   1.079 -0.1577  0.1620  0.7637
  366MOL0     C49284   4.575   4.416   0.951  0.2617 -0.6114  0.3505
  366MOL0     C49285   4.434   4.355   0.970  0.4027 -0.4123  0.0820
  366MOL0     C49286   4.359   4.328   0.837 -0.1039  0.9245  0.1555
  366MOL0     C49287   4.248   4.230   0.871  0.1269 -0.3793  0.0532
  366MOL0     C49288   4.155   4.184   0.761  0.8679 -0.5579 -0.0424
  366MOL0     C49289   4.225   4.166   0.632  0.1386 -0.2837  0.1455
  366MOL0     C49290   4.131   4.121   0.515 -0.3254 -0.7181 -0.4846
  366MOL0     C49291   4.206   4.103   0.385  0.8099 -0.5057  0.5149
  366MOL0     N49292   4.331   4.024   0.385  0.5760  0.1570 -0.1108
  366MOL0     C49293   4.459   4.064   0.372 -0.4860  0.0404  0.0058
  366MOL0     C49294   4.539   3.966   0.423  0.3153 -0.2622 -0.4641
  366MOL0     C49295   4.680   3.988   0.442 -0.8379  0.9475 -0.3012
  366MOL0     C49296   4.702   4.090   0.551 -0.9572 -0.5968  0.0401
  366MOL0     C49297   4.650   4.081   0.694 -0.1953  0.6292  0.0110
  366MOL0     C49298   4.711   3.963   0.774 -0.3861 -0.4870  0.1025
  366MOL0     O49299   4.664   3.972   0.905 -0.0298 -0.2140  0.4416
  366MOL0     C49300   4.541   3.929   0.935  0.0150 -0.7180 -0.6481
  366MOL0     C49301   4.500   3.968   1.066  0.9110  0.1445 -0.4978
  366MOL0     C49302   4.377   3.939   1.121 -0.1303  0.7153 -0.4182
  366MOL0     C49303   4.359   3.967   1.269  0.6063  0.1358 -0.0390
  366MOL0     C49304   4.281   3.869   1.039 -0.1560 -0.3450  0.3935
  366MOL0     C49305   4.141   3.830   1.082 -0.7696 -0.8324 -0.1059
  366MOL0     O49306   4.064   3.797   0.970  0.1660 -0.5483  0.3459
  366MOL0     C49307   3.931   3.786   0.995 -0.0138 -0.7153 -0.3966
  366MOL0     C49308   3.849   3.897   1.011 -0.3387 -0.2084  0.2093
  366MOL0     C49309   3.717   3.885   1.044 -0.2909 -0.0558 -0.9974
  366MOL0     C49310   3.653   3.760   1.057 -0.2347  0.6142 -0.4832
  366MOL0     O49311   3.522   3.751   1.090  0.0059 -0.4505 -0.1385
  366MOL0     C49312   3.464   3.622   1.053  0.4587 -0.1581 -1.4245
  366MOL0     C49313   3.316   3.646   1.074  0.2790  0.0629 -0.4404
  366MOL0     C49314   3.217   3.542   1.018  0.4280 -0.3156 -0.4192
  366MOL0     C49315   3.077   3.572   1.067 -0.0754  0.1276 -0.6707
  366MOL0     C49316   2.983   3.486   0.979 -0.2175 -0.0708 -0.4288
  366MOL0     C49317   2.847   3.500   1.039  0.1640  0.1309 -0.5391
  366MOL0     C49318   2.752   3.403   0.961 -1.0178 -0.5174 -0.1293
  366MOL0     C49319   2.602   3.446   0.960 -0.3648 -0.7652  0.1699
  366MOL0    Cl49320   2.499   3.297   0.960 -0.1351  0.7403 -0.1104
  366MOL0     C49321   3.740   3.645   1.032 -1.0288 -0.1629 -1.0278
  366MOL0     C49322   3.872   3.654   1.003  0.0128 -1.3210  0.9943
  366MOL0     O49323   4.096   3.845   1.196  0.1753  0.4406  0.1401
  366MOL0     C49324   4.328   3.827   0.918  0.2959  0.4065  0.5145
  366MOL0     C49325   4.455   3.853   0.860 -0.0338  0.2290 -0.2682
  366MOL0     N49326   4.459   3.866   0.468  0.0561  0.3210 -0.2949
  366MOL0     N49327   4.335   3.897   0.447 -1.0266  0.2000  0.2864
  366MOL0     C49328   4.795   4.601   0.963 -0.2566  0.4201  0.1758
  366MOL0     C49329   4.901   4.695   0.987  0.3468  0.9900 -0.5659
  366MOL0     C49330   5.277   4.919   1.127  0.9904  0.4209 -1.2970
  366MOL0     C49331   5.410   4.902   1.079 -0.5282  0.6887  0.2927
  366MOL0     C49332   5.503   5.008   1.105 -0.4781 -0.3762 -0.6861
  366MOL0     C49333   5.470   5.123   1.179 -0.0210  0.1929  0.8499
  366MOL0     O49334   5.570   5.212   1.215  0.2182 -0.0275  0.7317
  366MOL0     C49335   5.528   5.349   1.244 -1.3241  1.1386 -0.8303
  366MOL0     C49336   5.661   5.424   1.234  0.0921 -0.3323 -1.1248
  366MOL0     C49337   5.626   5.569   1.263 -1.0986 -0.2699  0.3238
  366MOL0     C49338   5.721   5.632   1.362  0.0600 -0.4899  1.0985
  366MOL0     C49339   5.856   5.639   1.304  0.2587  0.8406 -1.4231
  366MOL0     C49340   5.961   5.652   1.245 -0.2652  0.0248  0.0385
  366MOL0     C49341   5.333   5.117   1.222  0.2921  0.1736  0.3994
  366MOL0     C49342   5.236   5.026   1.193 -0.7164  0.3562 -0.1480
  366MOL0     H49343   4.922   4.707   1.320  0.9565 -1.6147  0.4579
  366MOL0     H49344   4.740   4.554   1.301  1.0825  0.6578  1.3202
  366MOL0     H49345   4.575   4.494   0.874  1.8024 -0.8324  0.0963
  366MOL0     H49346   4.640   4.338   0.909 -0.1858 -0.9591  0.2955
  366MOL0     H49347   4.447   4.262   1.026  1.4065  1.6210  3.5071
  366MOL0     H49348   4.371   4.419   1.032 -0.8080  0.9568 -2.3718
  366MOL0     H49349   4.316   4.415   0.788 -1.7744 -0.2967 -0.6294
  366MOL0     H49350   4.420   4.290   0.754 -1.6973  1.3091 -1.2376
  366MOL0     H49351   4.290   4.143   0.922 -1.3867 -1.4276 -0.3992
  366MOL0     H49352   4.192   4.286   0.947  0.6106  0.1486  0.0260
  366MOL0     H49353   4.110   4.089   0.792 -0.0051  0.4788  2.0267
  366MOL0     H49354   4.072   4.254   0.751  0.9825 -0.5211 -0.7730
  366MOL0     H49355   4.274   4.257   0.596  1.1009 -0.2274  1.5189
  366MOL0     H49356   4.302   4.089   0.645  3.3196  2.1032 -2.5313
  366MOL0     H49357   4.082   4.030   0.553 -2.0667  0.4298  0.1610
  366MOL0     H49358   4.057   4.198   0.494  1.4611  1.5030  0.9622
  366MOL0     H49359   4.231   4.206   0.360  0.3929 -0.8984 -1.7435
  366MOL0     H49360   4.134   4.070   0.310 -1.0651 -0.5191  2.2255
  366MOL0     H49361   4.490   4.161   0.336  0.5950  0.6828  2.5179
  366MOL0     H49362   4.730   3.895   0.470  1.8379  2.2013 -0.5386
  366MOL0     H49363   4.745   4.013   0.358  1.1928  1.1065  1.2327
  366MOL0     H49364   4.678   4.188   0.508 -2.6962  0.0782  2.3613
  366MOL0     H49365   4.809   4.090   0.574 -1.5965  0.1614  3.5746
  366MOL0     H49366   4.541   4.077   0.705  0.0024 -2.2123  1.9242
  366MOL0     H49367   4.683   4.179   0.731  0.9950  2.0128 -4.1947
  366MOL0     H49368   4.820   3.977   0.774 -0.3979  0.7109 -3.4146
  366MOL0     H49369   4.677   3.869   0.729 -1.3976 -1.3204  2.4824
  366MOL0     H49370   4.571   4.031   1.119 -0.2219 -0.3251  1.7418
  366MOL0     H49371   4.427   4.044   1.309  0.2477  0.3064  0.2426
  366MOL0     H49372   4.257   3.986   1.303  0.9924 -1.3936  2.2026
  366MOL0     H49373   4.381   3.872   1.318  0.0008  0.3465  0.6585
  366MOL0     H49374   3.897   3.995   1.005  0.2914 -0.4401  1.1760
  366MOL0     H49375   3.656   3.973   1.061 -0.3879 -0.2130 -0.5188
  366MOL0     H49376   3.480   3.595   0.948  1.5092 -1.9769 -0.8540
  366MOL0     H49377   3.491   3.538   1.118  1.3607 -0.3782 -2.0527
  366MOL0     H49378   3.291   3.683   1.174  0.0240 -1.9513  0.2890
  366MOL0     H49379   3.298   3.738   1.018  1.5942  0.4835 -0.1959
  366MOL0     H49380   3.239   3.441   1.055  0.1514 -0.6766 -1.2116
  366MOL0     H49381   3.226   3.546   0.909 -0.7654 -0.4271 -0.5349
  366MOL0     H49382   3.076   3.532   1.169  1.8690  1.5211 -0.0472
  366MOL0     H49383   3.053   3.678   1.062  1.4538  0.4857 -0.8877
  366MOL0     H49384   3.012   3.381   0.977 -0.4724 -0.1659  0.4308
  366MOL0     H49385   2.999   3.531   0.881  2.2123  0.0349 -0.0351
  366MOL0     H49386   2.843   3.466   1.143  2.1606 -0.4998 -0.6232
  366MOL0     H49387   2.819   3.605   1.029  2.0073  0.7132  0.0138
  366MOL0     H49388   2.762   3.300   0.998 -0.0784 -0.1728  0.6127
  366MOL0     H49389   2.787   3.394   0.858 -0.2945 -4.6912  0.3087
  366MOL0     H49390   2.574   3.504   0.871  0.0366  0.3704  0.7690
  366MOL0     H49391   2.589   3.510   1.048 -0.7576 -0.5129 -0.0680
  366MOL0     H49392   3.709   3.541   1.041  0.1834 -0.3853  1.7080
  366MOL0     H49393   3.944   3.576   0.979 -0.6643 -1.3614 -1.1089
  366MOL0     H49394   4.281   3.760   0.847  4.1351 -0.9096 -1.0964
  366MOL0     H49395   4.476   3.818   0.759 -0.7882 -1.2674  0.0713
  366MOL0     H49396   4.772   4.570   0.862  4.0307 -0.1345 -0.8329
  366MOL0     H49397   4.943   4.744   0.900 -0.3773 -1.7048 -2.5812
  366MOL0     H49398   5.440   4.810   1.031 -1.0426 -1.1923  3.3030
  366MOL0     H49399   5.606   5.010   1.070  0.0768  0.1497  0.8834
  366MOL0     H49400   5.463   5.384   1.163 -1.5883 -4.4667 -3.5071
  366MOL0     H49401   5.485   5.353   1.344 -0.5761  0.6841 -0.4818
  366MOL0     H49402   5.703   5.410   1.134  0.1375  1.5485 -1.3953
  366MOL0     H49403   5.720   5.386   1.319 -1.0555  1.4805  0.5482
  366MOL0     H49404   5.528   5.572   1.312 -1.0601 -0.2126  0.3955
  366MOL0     H49405   5.614   5.621   1.167 -1.2453 -3.7962 -1.7553
  366MOL0     H49406   5.706   5.589   1.461 -0.5974  0.9706  1.6763
  366MOL0     H49407   5.693   5.737   1.380  2.6817  0.0925  2.3212
  366MOL0     H49408   6.041   5.684   1.182 -0.3377  3.2611  1.3795
  366MOL0     H49409   5.318   5.203   1.288  0.2307 -0.1950  0.8773
  366MOL0     H49410   5.142   5.044   1.245 -3.4171  0.2724 -4.5145
  367MOL0     O49411   4.507   9.315   9.221  0.0952 -0.0566 -0.6607
  367MOL0     C49412   4.603   9.244   9.185 -0.4377  0.2638 -0.4581
  367MOL0     O49413   4.590   9.117   9.129 -0.2467  0.8363 -0.0073
  367MOL0     C49414   4.465   9.088   9.090  0.0856 -0.2129  1.1476
  367MOL0     C49415   4.402   8.970   9.142  0.5986  0.6212  0.4598
  367MOL0     C49416   4.270   8.939   9.103 -0.6343  0.2420  0.7588
  367MOL0     C49417   4.197   9.023   9.020  1.0529  0.1551 -0.3770
  367MOL0     O49418   4.064   9.006   8.993  0.5874 -0.7422  0.7028
  367MOL0     C49419   3.985   8.927   9.079  0.5327 -0.3124 -0.6781
  367MOL0     C49420   3.840   8.928   9.054 -1.6126 -0.1307 -0.2975
  367MOL0     C49421   3.769   8.850   9.162  0.2040  0.5281 -0.7863
  367MOL0     C49422   3.616   8.880   9.159  0.0980  0.0142  0.5195
  367MOL0     C49423   3.539   8.807   9.273  0.0155  0.1252 -0.5038
  367MOL0     C49424   3.386   8.828   9.256 -1.4423  0.0187 -0.0653
  367MOL0     C49425   3.305   8.758   9.368 -0.3547 -0.0950 -0.3778
  367MOL0     C49426   3.154   8.780   9.343  0.7997 -0.0592 -0.2917
  367MOL0     N49427   3.076   8.659   9.382 -0.7026  0.1444  0.2814
  367MOL0     C49428   3.055   8.629   9.515  0.1013 -0.5349  0.7888
  367MOL0     C49429   2.983   8.516   9.511  0.3148 -0.8587 -0.2638
  367MOL0     C49430   2.913   8.464   9.631  1.0343  0.8893  0.0100
  367MOL0     C49431   2.762   8.444   9.602 -0.0374 -0.6379  0.8294
  367MOL0     C49432   2.694   8.571   9.534  0.4192 -0.0683 -0.3177
  367MOL0     C49433   2.696   8.708   9.603  0.0130 -0.0266  0.1877
  367MOL0     O49434   2.635   8.714   9.732 -0.8190 -0.6402 -0.0905
  367MOL0     C49435   2.497   8.711   9.748  0.0899 -0.7730 -0.1232
  367MOL0     C49436   2.426   8.596   9.790  0.5514  0.3243 -0.0858
  367MOL0     C49437   2.290   8.588   9.804  0.4871  0.4928 -0.7676
  367MOL0     C49438   2.243   8.453   9.861 -0.5119  0.1383  0.4719
  367MOL0     C49439   2.211   8.706   9.783  0.0439  0.0806  0.0811
  367MOL0     C49440   2.060   8.714   9.789  1.0812 -0.4242 -0.1257
  367MOL0     O49441   1.997   8.831   9.754 -0.4379  0.4793 -0.1043
  367MOL0     C49442   1.865   8.855   9.780  0.1480 -0.2623 -0.8404
  367MOL0     C49443   1.755   8.778   9.738 -0.0977 -0.7931 -0.1455
  367MOL0     C49444   1.621   8.819   9.769 -0.5239  0.7142  0.0815
  367MOL0     C49445   1.604   8.935   9.849 -0.4312  0.8121 -0.3422
  367MOL0     O49446   1.471   8.958   9.879 -0.1758 -0.5557  0.0797
  367MOL0     C49447   1.434   9.077   9.960 -1.0703  0.3124  0.1776
  367MOL0     C49448   1.288   9.095  10.004  0.4529 -0.2739  0.4086
  367MOL0     C49449   1.203   9.119   9.881 -0.2657  0.6951  0.1360
  367MOL0     C49450   1.059   9.088   9.894 -0.2452 -0.3695 -0.2731
  367MOL0     C49451   0.989   9.132   9.763 -0.2021  0.3467 -0.1879
  367MOL0     C49452   0.839   9.122   9.777 -0.4581  0.0346 -0.3640
  367MOL0     C49453   0.764   9.180   9.663  0.2088 -0.3868 -0.1815
  367MOL0     C49454   0.610   9.188   9.707 -0.8687  0.3165 -0.0362
  367MOL0    Cl49455   0.509   9.295   9.598  0.5389 -0.5061 -0.3580
  367MOL0     C49456   1.718   9.007   9.898 -0.1157 -0.5425 -0.0771
  367MOL0     C49457   1.847   8.969   9.857 -0.2906  0.3813 -0.9854
  367MOL0     O49458   2.000   8.616   9.832 -0.2666  0.1840 -0.6441
  367MOL0     C49459   2.278   8.825   9.749  0.1176 -0.3604 -0.3489
  367MOL0     C49460   2.416   8.826   9.731 -0.3008  0.8110  0.4862
  367MOL0     N49461   2.963   8.474   9.381 -1.4859  0.0961 -0.3246
  367MOL0     N49462   3.012   8.569   9.302 -0.1987 -0.2096  0.1870
  367MOL0     C49463   4.252   9.140   8.968 -0.2159  0.8407 -0.0166
  367MOL0     C49464   4.390   9.162   8.998 -0.0213  0.1084  0.5978
  367MOL0     C49465   4.742   9.285   9.217 -0.0872  0.6760 -0.1492
  367MOL0     C49466   4.779   9.408   9.260  1.0089  0.0429 -0.6683
  367MOL0     C49467   4.909   9.448   9.288  0.8965 -0.3572 -0.1594
  367MOL0     C49468   5.013   9.355   9.264 -0.8862 -0.2195 -0.3334
  367MOL0     O49469   5.139   9.375   9.292  0.2409  0.1252  0.1668
  367MOL0     C49470   5.173   9.473   9.387 -0.6622 -0.9315  0.8382
  367MOL0     C49471   5.308   9.471   9.443  1.1222 -0.3819  0.3080
  367MOL0     C49472   5.415   9.490   9.335 -0.7174  0.0507  0.0717
  367MOL0     C49473   5.547   9.484   9.399 -0.4208 -0.2260 -0.1565
  367MOL0     C49474   5.586   9.597   9.487  0.1731 -0.2520  0.1442
  367MOL0     C49475   5.603   9.696   9.556  0.4032 -0.3842  1.0493
  367MOL0     C49476   4.979   9.232   9.219 -0.1440  0.7014  0.5054
  367MOL0     C49477   4.847   9.189   9.206  0.1704 -0.0309  0.5398
  367MOL0     H49478   4.457   8.905   9.209  2.5336  0.4241 -1.2229
  367MOL0     H49479   4.226   8.848   9.142 -1.2372 -0.4561 -1.4208
  367MOL0     H49480   4.024   8.825   9.069  0.3267 -0.3196 -1.4347
  367MOL0     H49481   4.012   8.963   9.179  0.6637  1.9138 -1.4540
  367MOL0     H49482   3.809   9.032   9.065  0.5623  0.8629 -2.4898
  367MOL0     H49483   3.819   8.888   8.954  2.0794 -0.9468 -0.9051
  367MOL0     H49484   3.793   8.744   9.150  0.1046  0.2138  1.4229
  367MOL0     H49485   3.798   8.869   9.266 -2.4676 -0.7083  0.2813
  367MOL0     H49486   3.594   8.986   9.174 -2.1851 -0.4328  0.6415
  367MOL0     H49487   3.584   8.863   9.056 -1.4900  4.6410  0.0217
  367MOL0     H49488   3.556   8.701   9.253  1.8002  0.2366  0.2681
  367MOL0     H49489   3.572   8.832   9.374 -3.0381  0.5289  0.4748
  367MOL0     H49490   3.368   8.935   9.255  0.9455  0.4797  0.4489
  367MOL0     H49491   3.357   8.779   9.162  0.5376  0.4869 -0.9932
  367MOL0     H49492   3.316   8.649   9.372  0.3906  0.0252  1.9929
  367MOL0     H49493   3.338   8.800   9.463 -0.0197  0.4580 -0.7357
  367MOL0     H49494   3.138   8.813   9.240  1.0687  0.5151 -0.1562
  367MOL0     H49495   3.120   8.854   9.416  0.9422  0.3088 -0.5917
  367MOL0     H49496   3.084   8.674   9.609 -3.9391 -2.0839  3.0303
  367MOL0     H49497   2.960   8.374   9.671 -0.6631 -0.2005 -0.3359
  367MOL0     H49498   2.914   8.542   9.708  3.3569  1.3382 -0.3834
  367MOL0     H49499   2.716   8.419   9.697  2.0044 -1.6543  1.6226
  367MOL0     H49500   2.750   8.355   9.539  0.1417 -0.4300  0.4969
  367MOL0     H49501   2.589   8.543   9.523 -0.0617  1.3213  0.5348
  367MOL0     H49502   2.731   8.574   9.431  1.4471 -2.5667 -0.0961
  367MOL0     H49503   2.660   8.787   9.537  1.0750  0.2390 -0.0921
  367MOL0     H49504   2.802   8.732   9.620 -0.0989 -0.3879  1.5433
  367MOL0     H49505   2.488   8.508   9.803 -0.1338 -0.9632 -4.2642
  367MOL0     H49506   2.179   8.477   9.946 -0.9069 -0.3702  0.3227
  367MOL0     H49507   2.178   8.396   9.795  0.6362 -1.4879  0.6767
  367MOL0     H49508   2.322   8.384   9.892 -2.7574 -2.2385  1.2430
  367MOL0     H49509   1.765   8.682   9.687 -0.9214 -1.7058  1.3364
  367MOL0     H49510   1.541   8.755   9.735 -0.8342  0.6897  0.8514
  367MOL0     H49511   1.500   9.071  10.047 -1.6146  2.5766  0.8248
  367MOL0     H49512   1.471   9.162   9.901 -1.9033  0.7803  0.3179
  367MOL0     H49513   1.244   9.009  10.054 -2.2326 -0.7388 -2.4235
  367MOL0     H49514   1.295   9.180  10.072  0.8915 -1.0197  1.3224
  367MOL0     H49515   1.250   9.052   9.808  2.1493  0.3032  1.9189
  367MOL0     H49516   1.223   9.222   9.851  1.5224  0.4958  0.5130
  367MOL0     H49517   1.050   8.981   9.914  2.4535 -0.5095  0.4835
  367MOL0     H49518   0.999   9.132   9.974 -2.6592 -1.5553 -1.3198
  367MOL0     H49519   1.031   9.074   9.680 -0.0989 -0.7872  0.6343
  367MOL0     H49520   1.006   9.237   9.739 -0.0977  0.6167  1.0174
  367MOL0     H49521   0.816   9.016   9.788 -0.6695  0.2448  1.4615
  367MOL0     H49522   0.816   9.175   9.870  2.3775 -2.4649  1.9439
  367MOL0     H49523   0.767   9.121   9.571 -1.6059  1.2865 -1.3911
  367MOL0     H49524   0.811   9.278   9.651  3.4298 -1.5535  1.7476
  367MOL0     H49525   0.600   9.221   9.811 -2.3391 -3.9574  1.4388
  367MOL0     H49526   0.569   9.086   9.711  1.2487 -0.5610  1.5662
  367MOL0     H49527   1.700   9.096   9.956 -5.0790 -1.4154  0.1053
  367MOL0     H49528   1.935   9.021   9.893  0.5758 -1.3264 -0.5298
  367MOL0     H49529   2.224   8.919   9.742 -0.3486 -0.6972 -1.4857
  367MOL0     H49530   2.459   8.920   9.700  2.2726  0.4169  2.5660
  367MOL0     H49531   4.194   9.207   8.905  0.4084  0.9720 -0.4605
  367MOL0     H49532   4.440   9.253   8.966 -0.2549  0.1237  0.2728
  367MOL0     H49533   4.697   9.472   9.294  1.6094  0.8048 -0.6194
  367MOL0     H49534   4.926   9.537   9.347  1.0047 -0.7865  0.4681
  367MOL0     H49535   5.187   9.558   9.319 -2.5109 -1.5021 -0.2972
  367MOL0     H49536   5.108   9.488   9.474 -1.0754  0.9749  0.2601
  367MOL0     H49537   5.309   9.368   9.478 -0.4602 -0.1407  1.1684
  367MOL0     H49538   5.315   9.537   9.530  2.2003 -1.9011  1.4221
  367MOL0     H49539   5.400   9.586   9.284 -1.7205  0.1865  0.5957
  367MOL0     H49540   5.399   9.405   9.268 -2.2715  0.8421 -0.6120
  367MOL0     H49541   5.616   9.481   9.315 -0.6182 -0.8201 -0.3062
  367MOL0     H49542   5.561   9.394   9.460  2.4331  1.5133  2.0046
  367MOL0     H49543   5.625   9.779   9.620  3.3458 -0.2655  0.0547
  367MOL0     H49544   5.060   9.159   9.214  0.2714  1.2176 -0.7386
  367MOL0     H49545   4.820   9.091   9.168  2.3910 -0.2673 -0.5670
  368MOL0     O49546   7.947   7.570   9.257  0.0078 -0.4504 -0.1643
  368MOL0     C49547   8.001   7.539   9.151  0.2879 -0.0502 -0.0541
  368MOL0     O49548   8.129   7.496   9.133 -0.2406  0.3539  0.2378
  368MOL0     C49549   8.216   7.503   9.238  0.0762 -0.2477 -0.4284
  368MOL0     C49550   8.195   7.447   9.366  0.1078  0.0949  0.2412
  368MOL0     C49551   8.281   7.448   9.467 -0.6987 -0.5039 -0.2895
  368MOL0     C49552   8.409   7.505   9.447  0.2280 -1.6793  0.7575
  368MOL0     O49553   8.512   7.523   9.539  0.5939 -0.0797 -0.1764
  368MOL0     C49554   8.465   7.552   9.674  0.3211 -0.4195 -0.2713
  368MOL0     C49555   8.583   7.599   9.754  0.3862  0.2944 -0.1751
  368MOL0     C49556   8.710   7.508   9.747 -0.9512 -0.6817  1.0913
  368MOL0     C49557   8.817   7.560   9.848 -0.4994  0.8108 -0.1537
  368MOL0     C49558   8.927   7.457   9.896  0.0588  1.0896  0.6220
  368MOL0     C49559   9.020   7.494  10.012  0.0060 -0.4593  0.2693
  368MOL0     C49560   9.122   7.379  10.048 -0.3433  0.6110  0.1038
  368MOL0     C49561   9.244   7.434  10.122 -0.3251 -0.8104  1.2568
  368MOL0     N49562   9.335   7.523  10.040  0.7263  0.8207  0.1913
  368MOL0     C49563   9.396   7.505   9.916  1.3178  0.0377  0.3456
  368MOL0     C49564   9.479   7.607   9.893 -0.4751 -0.5299  0.1538
  368MOL0     C49565   9.576   7.616   9.779  0.6250  0.6391 -0.1263
  368MOL0     C49566   9.612   7.762   9.746  0.7322  0.1251 -0.2685
  368MOL0     C49567   9.687   7.783   9.604 -0.0176 -0.8998 -0.4692
  368MOL0     C49568   9.734   7.927   9.569  0.9029  1.0119 -0.2938
  368MOL0     O49569   9.727   7.946   9.427 -0.0066  0.0665 -0.0965
  368MOL0     C49570   9.607   7.966   9.368  0.2873  0.4558 -0.3386
  368MOL0     C49571   9.607   7.950   9.230  0.3611  0.9132 -0.3837
  368MOL0     C49572   9.493   7.976   9.153 -0.0865  0.4201  0.3461
  368MOL0     C49573   9.513   7.952   9.003  0.3975 -0.6913  0.0185
  368MOL0     C49574   9.384   8.035   9.214 -0.3174  0.7155  0.1947
  368MOL0     C49575   9.260   8.066   9.136 -0.6458  0.3260  0.6319
  368MOL0     O49576   9.170   8.137   9.202  0.3145 -0.0428  0.4145
  368MOL0     C49577   9.054   8.165   9.130  0.1052  0.5187 -0.2798
  368MOL0     C49578   8.936   8.136   9.185  0.2612 -0.0359  0.6251
  368MOL0     C49579   8.824   8.172   9.113  1.1442 -0.0428  1.3670
  368MOL0     C49580   8.830   8.240   8.989 -0.4256 -0.3381  0.6742
  368MOL0     O49581   8.718   8.278   8.921  0.5066  0.1465 -0.1881
  368MOL0     C49582   8.627   8.177   8.891  0.6266  0.2155 -0.1505
  368MOL0     C49583   8.544   8.238   8.781 -0.3641  0.4395  0.7585
  368MOL0     C49584   8.444   8.130   8.747 -0.0335  0.8715 -0.4819
  368MOL0     C49585   8.304   8.187   8.725 -0.0501  0.4665 -0.1446
  368MOL0     C49586   8.276   8.265   8.596  0.2829 -0.1067 -0.0366
  368MOL0     C49587   8.134   8.321   8.597 -0.0551 -0.2994 -0.9723
  368MOL0     C49588   8.096   8.423   8.481 -0.0063  0.8632 -0.2828
  368MOL0     C49589   8.133   8.559   8.530 -0.7218 -0.7832 -0.3831
  368MOL0    Cl49590   8.084   8.677   8.410 -0.1145  0.0615 -0.1072
  368MOL0     C49591   8.951   8.258   8.934 -0.2046 -0.4918  0.4891
  368MOL0     C49592   9.064   8.233   9.010  0.0840 -0.3353  0.1073
  368MOL0     O49593   9.242   8.019   9.022  0.3906  0.9433 -0.3648
  368MOL0     C49594   9.385   8.060   9.351 -0.2568  0.1462 -0.9534
  368MOL0     C49595   9.492   8.019   9.432 -0.0214  0.3482  0.7113
  368MOL0     N49596   9.468   7.692   9.998 -0.2255 -0.1236  1.3804
  368MOL0     N49597   9.384   7.639  10.083  0.2559  0.7393 -0.2621
  368MOL0     C49598   8.438   7.561   9.321 -0.0852  0.7306  0.3982
  368MOL0     C49599   8.340   7.549   9.219 -0.5752  0.2301  0.2906
  368MOL0     C49600   7.908   7.528   9.038  0.9376 -0.3384  0.4667
  368MOL0     C49601   7.768   7.561   9.048 -0.1579  0.3614 -0.2978
  368MOL0     C49602   7.682   7.537   8.936 -0.4089 -0.2729  0.2803
  368MOL0     C49603   7.744   7.499   8.816  0.3715  0.8187  0.2242
  368MOL0     O49604   7.674   7.478   8.701  0.4767 -0.4834 -0.0588
  368MOL0     C49605   7.706   7.539   8.570 -0.1553 -0.3202  0.2051
  368MOL0     C49606   7.688   7.446   8.453  0.4737  0.1075 -1.1865
  368MOL0     C49607   7.703   7.521   8.319 -0.8340 -0.0991  0.0439
  368MOL0     C49608   7.608   7.457   8.206  0.1027 -0.6269  0.1775
  368MOL0     C49609   7.473   7.521   8.221 -0.3382  0.2361  0.7913
  368MOL0     C49610   7.376   7.579   8.242 -0.1590 -0.2336  0.1226
  368MOL0     C49611   7.881   7.502   8.800 -0.4348  0.4916 -0.2642
  368MOL0     C49612   7.971   7.515   8.907  0.2066 -0.0792 -0.1618
  368MOL0     H49613   8.100   7.397   9.384  0.8102 -0.1629  3.8776
  368MOL0     H49614   8.258   7.401   9.562  1.1443  1.4729  1.2255
  368MOL0     H49615   8.394   7.635   9.670  1.4180  0.7468  2.2273
  368MOL0     H49616   8.434   7.458   9.721 -0.8579 -0.5944 -1.3631
  368MOL0     H49617   8.609   7.701   9.724 -0.3764  1.4104  2.6930
  368MOL0     H49618   8.560   7.613   9.860 -0.1321 -1.5933 -0.0103
  368MOL0     H49619   8.681   7.404   9.764 -2.1890 -0.5026  0.1361
  368MOL0     H49620   8.759   7.525   9.651  1.7485  1.0336  2.6053
  368MOL0     H49621   8.860   7.649   9.801  1.8114  0.0330  0.3852
  368MOL0     H49622   8.768   7.589   9.941  2.9731 -0.0459  2.1137
  368MOL0     H49623   8.881   7.363   9.927 -0.1157  0.8308 -0.3763
  368MOL0     H49624   8.975   7.432   9.801 -0.5843  1.8516  0.0857
  368MOL0     H49625   9.085   7.580   9.993  1.8611 -1.7895  0.2866
  368MOL0     H49626   8.959   7.509  10.101  1.8024 -2.4441  1.9463
  368MOL0     H49627   9.085   7.300  10.114 -1.7056  0.4390 -0.8175
  368MOL0     H49628   9.159   7.322   9.962 -0.0626 -0.4661  0.9202
  368MOL0     H49629   9.298   7.352  10.170 -1.6041 -0.8413  2.7248
  368MOL0     H49630   9.208   7.494  10.206  0.1373  1.6256 -0.1929
  368MOL0     H49631   9.378   7.415   9.857  0.4873 -0.2580  1.0276
  368MOL0     H49632   9.673   7.571   9.802  0.9257 -0.0797 -2.4727
  368MOL0     H49633   9.553   7.557   9.690  1.8790  1.3419 -0.9538
  368MOL0     H49634   9.660   7.813   9.830 -0.7006 -1.3066  1.5039
  368MOL0     H49635   9.518   7.815   9.730  1.0476  0.9825  0.6198
  368MOL0     H49636   9.621   7.752   9.523  1.4898 -1.3919 -1.5457
  368MOL0     H49637   9.773   7.715   9.603 -0.0799 -0.9806 -1.8967
  368MOL0     H49638   9.835   7.940   9.608 -0.0939  1.6862  2.2654
  368MOL0     H49639   9.670   8.001   9.618  1.6776  2.2202 -1.0625
  368MOL0     H49640   9.703   7.921   9.189  2.2194 -0.9101  4.5120
  368MOL0     H49641   9.445   7.874   8.967  0.7249 -0.8406 -0.2765
  368MOL0     H49642   9.490   8.040   8.941  0.0981 -0.1920  0.8193
  368MOL0     H49643   9.611   7.927   8.963  0.6720 -0.0926  0.3002
  368MOL0     H49644   8.938   8.100   9.288  1.4352 -0.4287  0.4823
  368MOL0     H49645   8.727   8.163   9.160  0.6048  2.6483  0.9256
  368MOL0     H49646   8.675   8.088   8.850 -1.4922 -0.5894 -1.0263
  368MOL0     H49647   8.562   8.153   8.975 -0.6577 -2.2953 -1.7451
  368MOL0     H49648   8.501   8.334   8.812 -1.1070  0.0997  0.8056
  368MOL0     H49649   8.616   8.268   8.704 -1.2037  2.7481  0.7707
  368MOL0     H49650   8.426   8.053   8.823 -2.3457 -1.6586 -3.3198
  368MOL0     H49651   8.475   8.084   8.653  2.2066  0.7404  0.2473
  368MOL0     H49652   8.235   8.102   8.728 -1.6745  1.7074 -0.6375
  368MOL0     H49653   8.279   8.246   8.814  1.0934 -1.3363  1.4466
  368MOL0     H49654   8.292   8.209   8.503 -2.3789  0.7258 -1.0976
  368MOL0     H49655   8.345   8.349   8.590 -0.6944  0.6239 -1.7277
  368MOL0     H49656   8.063   8.238   8.589 -1.4165  0.9611 -3.2277
  368MOL0     H49657   8.128   8.372   8.693  4.6391  1.5751 -1.4397
  368MOL0     H49658   7.992   8.407   8.453  0.6286 -2.7814 -0.9843
  368MOL0     H49659   8.143   8.393   8.387 -1.4459 -0.6122 -0.5768
  368MOL0     H49660   8.240   8.569   8.553 -0.9720 -1.8516  1.4306
  368MOL0     H49661   8.076   8.578   8.621  1.3508  2.4057  0.4052
  368MOL0     H49662   8.947   8.300   8.834 -2.1294 -0.3560  0.5928
  368MOL0     H49663   9.160   8.257   8.967  0.0950  0.5535  0.5976
  368MOL0     H49664   9.300   8.109   9.397  1.2385  2.8394 -0.8141
  368MOL0     H49665   9.478   8.036   9.538 -1.1513  2.3848  0.2913
  368MOL0     H49666   8.517   7.626   9.283 -1.2909  0.9189 -2.0101
  368MOL0     H49667   8.365   7.590   9.122 -0.0089  0.3415  0.4802
  368MOL0     H49668   7.738   7.605   9.143 -0.0761 -0.9270  0.3545
  368MOL0     H49669   7.578   7.565   8.940 -0.4244 -0.2551 -0.2096
  368MOL0     H49670   7.627   7.615   8.569 -0.1824 -0.2909  1.7280
  368MOL0     H49671   7.810   7.573   8.564 -0.3143  0.2788  0.7432
  368MOL0     H49672   7.590   7.400   8.461  0.2749 -0.7981 -5.9102
  368MOL0     H49673   7.760   7.366   8.476  0.4989  0.6066  0.6052
  368MOL0     H49674   7.809   7.505   8.295 -0.8838 -0.7490  0.2426
  368MOL0     H49675   7.694   7.630   8.321 -1.3013 -0.1259  2.4735
  368MOL0     H49676   7.593   7.350   8.225  1.2569 -0.6573  0.9379
  368MOL0     H49677   7.652   7.487   8.111  2.5731  0.0042  1.4536
  368MOL0     H49678   7.285   7.633   8.257 -1.4097 -1.7014 -1.7022
  368MOL0     H49679   7.925   7.461   8.709  2.5481  0.0082  1.2610
  368MOL0     H49680   8.072   7.483   8.887  0.8890  2.2474 -0.7262
  369MOL0     O49681   6.370   9.870   5.029 -0.1465  0.1383 -1.0172
  369MOL0     C49682   6.481   9.816   5.045  0.1976  0.3561  0.2944
  369MOL0     O49683   6.506   9.693   4.997 -0.0478 -0.0007 -0.3612
  369MOL0     C49684   6.414   9.624   4.923 -0.1775  0.0179  0.1319
  369MOL0     C49685   6.324   9.535   4.980  0.2273 -1.0346 -0.2091
  369MOL0     C49686   6.234   9.458   4.911 -0.5214  0.3997  0.0966
  369MOL0     C49687   6.223   9.463   4.776 -0.9060 -0.5555  0.2754
  369MOL0     O49688   6.125   9.372   4.719 -0.6539  0.1753 -0.2746
  369MOL0     C49689   6.123   9.360   4.572  0.8981  0.0777 -0.6696
  369MOL0     C49690   6.017   9.257   4.559 -0.3667  0.1697  0.2135
  369MOL0     C49691   5.873   9.300   4.590 -1.6454  0.4256 -0.2287
  369MOL0     C49692   5.760   9.201   4.559 -0.4990  0.1021 -0.4024
  369MOL0     C49693   5.624   9.264   4.547 -0.3338 -0.9489  0.2626
  369MOL0     C49694   5.530   9.172   4.472 -0.2263  0.1397  0.7550
  369MOL0     C49695   5.395   9.235   4.437 -0.9445 -0.7604 -0.0249
  369MOL0     C49696   5.402   9.304   4.302 -0.0710 -0.1251 -1.1640
  369MOL0     N49697   5.417   9.206   4.195 -0.7453 -0.6064 -0.5335
  369MOL0     C49698   5.331   9.106   4.177  0.9792  0.3591  0.2146
  369MOL0     C49699   5.379   9.050   4.062 -0.7964 -1.1810  0.2514
  369MOL0     C49700   5.334   8.929   3.991 -0.1147 -0.1338 -0.2610
  369MOL0     C49701   5.179   8.918   3.994 -0.2373 -1.2185  0.0941
  369MOL0     C49702   5.130   8.868   3.859  0.9381 -0.1014 -0.3666
  369MOL0     C49703   4.985   8.880   3.857  1.1707  0.1699  0.0084
  369MOL0     O49704   4.938   9.018   3.823  0.2846 -0.1970 -0.5756
  369MOL0     C49705   4.802   9.037   3.791 -0.4771 -0.7566  0.1181
  369MOL0     C49706   4.762   9.149   3.728  0.4513 -0.5507 -0.3510
  369MOL0     C49707   4.624   9.169   3.695 -0.1669 -0.7376 -0.2113
  369MOL0     C49708   4.600   9.300   3.624  0.8774  0.2057  0.5321
  369MOL0     C49709   4.530   9.061   3.714 -0.4917  0.4901  0.0771
  369MOL0     C49710   4.375   9.069   3.693 -0.5019 -0.6651 -0.2265
  369MOL0     O49711   4.328   9.199   3.700  0.5402  0.1568 -0.4481
  369MOL0     C49712   4.215   9.240   3.646  0.7694  0.2607  0.9641
  369MOL0     C49713   4.139   9.334   3.718  0.3330 -0.8038 -0.1898
  369MOL0     C49714   4.006   9.368   3.673 -0.7311  0.3033 -0.3990
  369MOL0     C49715   3.954   9.305   3.562 -0.1227 -0.3515 -0.0827
  369MOL0     O49716   3.819   9.328   3.535  0.1448 -0.1848 -0.3864
  369MOL0     C49717   3.750   9.240   3.453  0.4561  0.1143 -0.4493
  369MOL0     C49718   3.598   9.242   3.455  0.4617  0.2336  0.5336
  369MOL0     C49719   3.546   9.378   3.409  0.4354 -1.0465 -0.4480
  369MOL0     C49720   3.390   9.377   3.406  0.7239 -0.7954 -0.1289
  369MOL0     C49721   3.333   9.516   3.378  0.2202 -0.2464  0.9858
  369MOL0     C49722   3.361   9.571   3.236 -0.3630 -0.1193 -0.6924
  369MOL0     C49723   3.256   9.509   3.140  0.5701 -0.4708  0.2479
  369MOL0     C49724   3.316   9.512   3.003  0.1233 -0.3495  0.4751
  369MOL0    Cl49725   3.335   9.684   2.952  0.0601  0.1733  0.0765
  369MOL0     C49726   4.033   9.223   3.488  0.1865  0.4478  1.0236
  369MOL0     C49727   4.160   9.191   3.524 -0.8810 -0.0581 -1.1367
  369MOL0     O49728   4.313   8.968   3.665  0.1792  0.1981  0.0955
  369MOL0     C49729   4.584   8.944   3.774  0.1165 -0.0552  0.3608
  369MOL0     C49730   4.717   8.935   3.819  0.4015  0.5086 -0.5464
  369MOL0     N49731   5.497   9.112   4.020 -0.0705  0.5585  0.0534
  369MOL0     N49732   5.520   9.206   4.105  0.0562  0.5290  0.4754
  369MOL0     C49733   6.312   9.557   4.710  0.2333 -0.2010 -0.3033
  369MOL0     C49734   6.398   9.636   4.784 -0.0381 -0.0814 -0.0496
  369MOL0     C49735   6.581   9.883   5.126  0.6865  0.4222 -0.5575
  369MOL0     C49736   6.701   9.826   5.163 -0.5626  0.6850  0.0518
  369MOL0     C49737   6.806   9.904   5.226  0.6367 -0.1156 -0.8516
  369MOL0     C49738   6.788  10.039   5.255  0.2372  0.3471 -0.7387
  369MOL0     O49739   6.893  10.103   5.325 -0.5047 -0.5278 -0.2037
  369MOL0     C49740   6.913  10.239   5.292  0.5106 -0.0421  0.1710
  369MOL0     C49741   7.037  10.261   5.206 -0.5002  0.3228  0.3271
  369MOL0     C49742   7.022  10.198   5.071  0.1312 -0.0257  0.0581
  369MOL0     C49743   7.136  10.238   4.978 -0.7578 -0.3716  0.9199
  369MOL0     C49744   7.262  10.179   5.013 -0.4736 -0.1944  0.1162
  369MOL0     C49745   7.369  10.137   5.054 -0.8558 -0.2276  0.3456
  369MOL0     C49746   6.657  10.090   5.233 -1.0012  0.1952  0.2710
  369MOL0     C49747   6.562  10.016   5.169 -0.0422  0.5053 -0.3106
  369MOL0     H49748   6.322   9.523   5.088  0.6831 -0.8636 -0.1808
  369MOL0     H49749   6.168   9.382   4.952 -0.6647  0.4605 -0.0207
  369MOL0     H49750   6.093   9.449   4.516  3.3007 -0.7158 -3.4067
  369MOL0     H49751   6.220   9.327   4.536 -0.3788 -1.9917 -2.4581
  369MOL0     H49752   6.018   9.219   4.456 -1.7965 -0.7479  0.5200
  369MOL0     H49753   6.028   9.168   4.622  3.1383  0.2748 -0.0470
  369MOL0     H49754   5.864   9.318   4.698 -2.8376 -0.0215 -0.2327
  369MOL0     H49755   5.860   9.398   4.545 -0.6977 -0.1915 -1.9308
  369MOL0     H49756   5.782   9.143   4.469 -0.7600 -2.6416  1.1783
  369MOL0     H49757   5.764   9.127   4.640  0.9277 -1.6413 -1.9716
  369MOL0     H49758   5.585   9.295   4.644 -1.0618 -0.9160 -0.0387
  369MOL0     H49759   5.645   9.352   4.484  2.2668 -0.6596  1.3768
  369MOL0     H49760   5.586   9.134   4.385  0.0683  2.2320 -0.0207
  369MOL0     H49761   5.502   9.081   4.525 -3.2743 -0.6608 -1.9108
  369MOL0     H49762   5.320   9.156   4.427  1.2834 -2.8201 -1.9519
  369MOL0     H49763   5.371   9.298   4.522 -0.1685  0.5368 -0.7313
  369MOL0     H49764   5.484   9.376   4.294 -0.0017 -0.0950 -0.2403
  369MOL0     H49765   5.311   9.365   4.298 -1.0956 -1.1468  2.5187
  369MOL0     H49766   5.243   9.071   4.230  0.2843 -0.5887 -1.4846
  369MOL0     H49767   5.359   8.943   3.886 -1.8892  4.7255 -0.3177
  369MOL0     H49768   5.379   8.841   4.039 -0.3181 -1.2234 -1.9948
  369MOL0     H49769   5.139   9.018   4.014  2.8026  0.0192  0.3976
  369MOL0     H49770   5.150   8.867   4.087  0.8615  1.4002  2.0040
  369MOL0     H49771   5.153   8.762   3.847 -0.4946 -0.5187  0.3632
  369MOL0     H49772   5.173   8.924   3.775 -0.0868  1.5910  0.1681
  369MOL0     H49773   4.947   8.856   3.956  1.4414  1.7268  0.5176
  369MOL0     H49774   4.948   8.812   3.780 -1.1416  0.2832  0.9353
  369MOL0     H49775   4.832   9.230   3.710  0.1664  0.2043  1.7103
  369MOL0     H49776   4.533   9.287   3.539  2.0707 -1.4470 -0.2148
  369MOL0     H49777   4.561   9.373   3.695  2.1225  1.5129 -0.0580
  369MOL0     H49778   4.691   9.344   3.582  0.1048  1.1510 -0.2009
  369MOL0     H49779   4.184   9.378   3.806  0.0134  1.4816 -1.0830
  369MOL0     H49780   3.942   9.433   3.732 -1.3838 -0.7280  0.0671
  369MOL0     H49781   3.792   9.262   3.354  0.7237  0.4916 -0.2554
  369MOL0     H49782   3.764   9.138   3.487 -5.2988 -1.1691 -0.9199
  369MOL0     H49783   3.561   9.165   3.387  0.0968  1.6920 -0.9617
  369MOL0     H49784   3.563   9.225   3.558 -4.6312 -0.0844 -1.0049
  369MOL0     H49785   3.587   9.400   3.309  0.2065  4.0880  0.3364
  369MOL0     H49786   3.572   9.455   3.481 -1.3113 -0.4941 -0.3633
  369MOL0     H49787   3.367   9.309   3.323  0.0890 -0.0674 -0.5610
  369MOL0     H49788   3.357   9.343   3.504  0.9817 -1.4716 -0.2691
  369MOL0     H49789   3.376   9.590   3.447  3.0533  1.0628 -1.9433
  369MOL0     H49790   3.225   9.508   3.393  0.6129 -2.6915  3.2832
  369MOL0     H49791   3.353   9.680   3.237 -0.3140 -0.0785  2.0031
  369MOL0     H49792   3.467   9.558   3.213  0.9219  2.0204  3.2117
  369MOL0     H49793   3.156   9.555   3.135  0.9317  0.2020 -1.9910
  369MOL0     H49794   3.245   9.401   3.149 -2.2088 -0.2907  0.0695
  369MOL0     H49795   3.261   9.457   2.926  0.3254  1.1078 -0.7472
  369MOL0     H49796   3.418   9.474   2.995  0.7604  1.5640 -1.4873
  369MOL0     H49797   4.013   9.190   3.386  4.3326  0.8440 -0.1097
  369MOL0     H49798   4.227   9.121   3.474  0.1391 -1.2541  1.7292
  369MOL0     H49799   4.519   8.863   3.806 -0.7739  0.4081 -0.2276
  369MOL0     H49800   4.747   8.850   3.880 -0.5277  1.7236  1.7371
  369MOL0     H49801   6.321   9.554   4.602  2.6367  0.2623 -0.1772
  369MOL0     H49802   6.458   9.712   4.733 -0.9172  0.0667 -0.8839
  369MOL0     H49803   6.734   9.726   5.134  0.7756  0.8314  1.0112
  369MOL0     H49804   6.903   9.859   5.242  1.8509  2.2290 -1.0615
  369MOL0     H49805   6.830  10.284   5.237  2.7061 -0.4795 -3.8078
  369MOL0     H49806   6.929  10.306   5.377 -0.9436  1.6452 -0.8235
  369MOL0     H49807   7.119  10.219   5.266 -1.4516 -1.7870  0.2516
  369MOL0     H49808   7.063  10.365   5.186  2.0350 -0.3155  0.0285
  369MOL0     H49809   6.929  10.243   5.034  0.5177  1.1858  0.5296
  369MOL0     H49810   7.010  10.090   5.084 -0.0608 -0.0912 -0.5920
  369MOL0     H49811   7.142  10.347   4.983 -0.8814 -0.4189  3.2480
  369MOL0     H49812   7.115  10.215   4.873 -0.4763 -3.2430  1.4226
  369MOL0     H49813   7.453  10.089   5.099 -1.7805 -0.9160  1.4010
  369MOL0     H49814   6.633  10.187   5.276  1.1325 -0.0261  2.1537
  369MOL0     H49815   6.461  10.052   5.151 -1.4985 -3.3071 -0.7900
  370MOL0     O49816   3.921   3.403   9.715  0.2857 -0.4392  0.3271
  370MOL0     C49817   3.918   3.512   9.761  1.1216 -0.0600  0.2102
  370MOL0     O49818   3.832   3.549   9.858 -0.7612 -0.3759 -0.4106
  370MOL0     C49819   3.730   3.458   9.897  0.2781 -0.1885  0.4273
  370MOL0     C49820   3.594   3.495   9.886  0.2990 -0.5417 -0.7548
  370MOL0     C49821   3.493   3.406   9.919 -0.5868 -0.5872 -0.4163
  370MOL0     C49822   3.516   3.284   9.980 -0.5767  0.4069  0.8331
  370MOL0     O49823   3.417   3.203  10.033  0.3910  0.4397  0.1849
  370MOL0     C49824   3.287   3.222   9.982  0.1482  0.5788  0.1557
  370MOL0     C49825   3.199   3.114  10.064 -0.6736 -0.3965 -0.1566
  370MOL0     C49826   3.068   3.083   9.994 -0.2881 -1.1519 -0.3727
  370MOL0     C49827   2.989   2.970  10.062 -0.0566  1.3371 -0.1933
  370MOL0     C49828   2.839   2.945  10.016 -0.4011 -0.6832 -0.1573
  370MOL0     C49829   2.758   3.032  10.101 -0.4975 -0.0829  0.5328
  370MOL0     C49830   2.616   2.988  10.091 -0.0012 -0.3473 -0.5281
  370MOL0     C49831   2.532   3.060  10.194 -0.3335  0.0131  1.4497
  370MOL0     N49832   2.392   3.029  10.179  0.4670 -1.0406 -0.4834
  370MOL0     C49833   2.292   3.126  10.161  0.5162 -0.0756 -0.0215
  370MOL0     C49834   2.188   3.047  10.159 -0.5171  0.5741 -0.6724
  370MOL0     C49835   2.051   3.111  10.132 -0.4751 -0.7212  1.0817
  370MOL0     C49836   2.005   3.043  10.003 -0.4486 -0.2433 -0.0941
  370MOL0     C49837   2.068   3.091   9.867  0.2741  0.5817  0.0588
  370MOL0     C49838   2.021   3.012   9.746  0.0667 -0.4851  0.1740
  370MOL0     O49839   2.052   2.872   9.749  0.2663  0.5240 -0.3946
  370MOL0     C49840   2.189   2.844   9.734  0.8154  0.3740 -0.1989
  370MOL0     C49841   2.271   2.886   9.620  0.7646  0.5483  0.2257
  370MOL0     C49842   2.401   2.849   9.609 -0.2973  0.5768  0.1998
  370MOL0     C49843   2.478   2.891   9.492 -0.7630  0.2445  0.6039
  370MOL0     C49844   2.460   2.781   9.723 -0.5216 -0.3945 -0.2284
  370MOL0     C49845   2.608   2.745   9.732 -0.0510  0.2194  0.0514
  370MOL0     O49846   2.679   2.756   9.624  0.2350 -0.4160  0.0590
  370MOL0     C49847   2.817   2.776   9.622 -0.6039  0.7901  0.0434
  370MOL0     C49848   2.909   2.767   9.733 -0.0286  0.6992  0.4912
  370MOL0     C49849   3.042   2.784   9.714  0.3399  0.3293  0.1678
  370MOL0     C49850   3.096   2.815   9.583  0.6111  0.3617  0.6644
  370MOL0     O49851   3.217   2.870   9.560 -0.3166 -0.0350 -0.4055
  370MOL0     C49852   3.312   2.875   9.666  1.4261 -0.6684 -0.2137
  370MOL0     C49853   3.438   2.944   9.619  0.4940 -0.0702  0.4980
  370MOL0     C49854   3.503   2.864   9.502  0.2327 -0.3083  0.5264
  370MOL0     C49855   3.641   2.904   9.495 -0.1090  0.2144  0.1648
  370MOL0     C49856   3.703   2.862   9.368 -0.3058  0.1453 -0.0592
  370MOL0     C49857   3.845   2.908   9.361 -0.0388  0.5347  0.4469
  370MOL0     C49858   3.886   2.924   9.217  0.1180  0.0691 -0.2013
  370MOL0     C49859   4.035   2.887   9.215  0.2634 -0.1161 -0.6689
  370MOL0    Cl49860   4.142   2.990   9.310  0.3048  0.1976 -0.2513
  370MOL0     C49861   3.014   2.821   9.471  0.6037 -0.0293  0.1366
  370MOL0     C49862   2.876   2.792   9.493 -0.2593  0.0423  0.2901
  370MOL0     O49863   2.644   2.706   9.842  0.7144  0.0339 -0.4102
  370MOL0     C49864   2.378   2.736   9.835 -0.5735 -0.1284  0.4157
  370MOL0     C49865   2.240   2.765   9.837 -0.1046  0.2181 -0.2344
  370MOL0     N49866   2.214   2.903  10.165 -0.3217  0.2018 -0.6444
  370MOL0     N49867   2.344   2.903  10.181  0.2722  0.2300  0.0669
  370MOL0     C49868   3.650   3.248   9.997  1.0531  0.4153 -0.3319
  370MOL0     C49869   3.751   3.334   9.954 -0.6609 -0.2977 -0.2951
  370MOL0     C49870   4.024   3.608   9.716  0.6877  0.6298  0.2621
  370MOL0     C49871   4.081   3.688   9.820  0.0500  0.3761 -0.1240
  370MOL0     C49872   4.182   3.773   9.795  0.1901 -0.2652 -0.0305
  370MOL0     C49873   4.237   3.772   9.672  0.4753 -0.5416  0.0165
  370MOL0     O49874   4.335   3.855   9.637 -0.3760 -0.3415 -0.6007
  370MOL0     C49875   4.440   3.902   9.723  0.6085 -0.4268 -0.1787
  370MOL0     C49876   4.389   4.030   9.785  0.7078 -0.3167 -0.2848
  370MOL0     C49877   4.414   4.140   9.683  0.0922 -0.1158 -0.3464
  370MOL0     C49878   4.372   4.281   9.725  0.1285 -0.0869 -0.8382
  370MOL0     C49879   4.235   4.277   9.779 -0.1307 -0.2159  0.9990
  370MOL0     C49880   4.121   4.270   9.810  0.1350  0.3269 -0.5100
  370MOL0     C49881   4.180   3.699   9.567  0.8706 -0.2117  0.3161
  370MOL0     C49882   4.074   3.609   9.584 -0.4329  0.0834 -0.1857
  370MOL0     H49883   3.564   3.585   9.834  3.1854  2.4626  2.2604
  370MOL0     H49884   3.394   3.451   9.920  0.5366  2.0902  0.6368
  370MOL0     H49885   3.243   3.321  10.001 -2.4700 -0.2849 -0.9942
  370MOL0     H49886   3.285   3.207   9.874 -1.0550  1.3124  0.0549
  370MOL0     H49887   3.257   3.022  10.073 -1.5291 -0.7074  3.9677
  370MOL0     H49888   3.197   3.163  10.162  4.2548 -1.2729  0.6205
  370MOL0     H49889   2.996   3.165   9.993 -0.4229 -0.7542  5.6210
  370MOL0     H49890   3.098   3.062   9.891  3.8737  1.7239 -0.0135
  370MOL0     H49891   3.043   2.876  10.049 -1.4974  0.5048 -0.3895
  370MOL0     H49892   2.993   2.983  10.170  0.6066 -0.8644  0.0899
  370MOL0     H49893   2.835   2.970   9.910  3.4126 -0.3021 -0.3663
  370MOL0     H49894   2.826   2.838  10.039 -0.3070 -1.1575 -2.1170
  370MOL0     H49895   2.794   3.024  10.204  2.4385 -0.9745 -0.4669
  370MOL0     H49896   2.767   3.135  10.064  1.8861 -0.4010  0.0434
  370MOL0     H49897   2.577   3.017   9.993  2.0499  0.0805 -1.2714
  370MOL0     H49898   2.622   2.882  10.116  0.9139  0.0945  1.2563
  370MOL0     H49899   2.542   3.164  10.161  1.4505 -0.7960 -0.8481
  370MOL0     H49900   2.578   3.040  10.291  2.2476 -2.1855 -0.1056
  370MOL0     H49901   2.299   3.233  10.144  0.7828 -0.3196 -1.5336
  370MOL0     H49902   1.982   3.088  10.213 -2.0574  1.3349  0.4374
  370MOL0     H49903   2.051   3.217  10.104 -0.1786 -1.2749 -1.2965
  370MOL0     H49904   1.899   3.066   9.986 -0.0878  0.5907 -1.2756
  370MOL0     H49905   2.019   2.934  10.008 -2.9924 -0.6609 -0.6508
  370MOL0     H49906   2.175   3.067   9.869 -0.0337 -0.8530  0.2515
  370MOL0     H49907   2.062   3.198   9.846  2.3791  0.6212 -0.5509
  370MOL0     H49908   2.061   3.056   9.654 -0.5966 -0.9485 -0.3427
  370MOL0     H49909   1.913   3.031   9.741  0.6005  4.1941  1.7887
  370MOL0     H49910   2.228   2.934   9.533  0.5985 -0.6030 -0.3456
  370MOL0     H49911   2.569   2.947   9.512  0.6549 -0.5302 -2.9186
  370MOL0     H49912   2.497   2.811   9.419  0.3221  0.4783  0.6157
  370MOL0     H49913   2.421   2.957   9.426  1.4446 -0.0578 -1.7827
  370MOL0     H49914   2.875   2.750   9.834 -1.1176 -0.2673 -0.0233
  370MOL0     H49915   3.110   2.784   9.799  0.6293  2.1504 -0.0168
  370MOL0     H49916   3.261   2.923   9.749 -0.0448 -2.0590 -0.2568
  370MOL0     H49917   3.352   2.776   9.690  1.1048 -0.6393  0.4533
  370MOL0     H49918   3.407   3.040   9.577 -0.3546 -0.7504 -0.4929
  370MOL0     H49919   3.506   2.964   9.703  0.2375 -0.6423  0.8451
  370MOL0     H49920   3.438   2.883   9.416  1.5219 -0.3840 -0.4806
  370MOL0     H49921   3.509   2.757   9.520  1.6167 -0.2625  0.4324
  370MOL0     H49922   3.651   3.012   9.503  4.5563 -0.1039  1.5242
  370MOL0     H49923   3.686   2.863   9.586 -3.7655 -1.8540  1.2517
  370MOL0     H49924   3.652   2.919   9.289 -0.6563  0.2120  0.2151
  370MOL0     H49925   3.706   2.754   9.356  2.0086  0.0819  0.5787
  370MOL0     H49926   3.871   2.999   9.416  3.5767 -0.5779  0.8782
  370MOL0     H49927   3.896   2.826   9.413  1.6188  0.8937 -0.5510
  370MOL0     H49928   3.872   3.028   9.186 -0.6772 -0.2872 -1.1023
  370MOL0     H49929   3.826   2.862   9.149 -0.6937  0.2532  0.3251
  370MOL0     H49930   4.072   2.886   9.112  0.1701  0.6022 -0.7159
  370MOL0     H49931   4.040   2.786   9.258  1.6670 -1.6638 -4.0815
  370MOL0     H49932   3.044   2.847   9.370  0.5395 -2.7742 -0.6918
  370MOL0     H49933   2.811   2.796   9.405 -0.9847  1.9493  0.8690
  370MOL0     H49934   2.421   2.686   9.921 -1.9780 -0.2109  1.0885
  370MOL0     H49935   2.174   2.728   9.914 -0.9897  2.5962  0.2325
  370MOL0     H49936   3.672   3.156  10.049  0.1079 -1.0441 -2.3877
  370MOL0     H49937   3.852   3.297   9.965 -0.1381  0.8064 -1.1798
  370MOL0     H49938   4.030   3.704   9.915  0.3337  4.2797 -0.4599
  370MOL0     H49939   4.225   3.826   9.880  3.0338 -1.7735 -0.3987
  370MOL0     H49940   4.465   3.832   9.804 -0.3213 -0.1182  0.3938
  370MOL0     H49941   4.533   3.918   9.667 -0.7635  0.9031 -2.1725
  370MOL0     H49942   4.446   4.056   9.875  2.3716  1.7640 -1.8409
  370MOL0     H49943   4.284   4.038   9.816  0.8051 -1.0771  0.2816
  370MOL0     H49944   4.371   4.121   9.584  1.3288  0.9972 -1.1301
  370MOL0     H49945   4.521   4.160   9.694 -0.1086  1.2748 -0.6938
  370MOL0     H49946   4.367   4.341   9.634 -2.1104  4.5136  1.9137
  370MOL0     H49947   4.436   4.334   9.798 -0.6682 -0.1189 -0.1014
  370MOL0     H49948   4.024   4.273   9.854  1.0040  0.1152  1.4959
  370MOL0     H49949   4.209   3.709   9.463 -1.9720 -0.3442 -0.5940
  370MOL0     H49950   4.036   3.552   9.500 -2.3852 -0.6007  1.0992
  371MOL0     O49951   3.284   8.791   9.748 -0.3334 -0.2823  0.4595
  371MOL0     C49952   3.322   8.882   9.823 -0.0301  0.1470  0.2014
  371MOL0     O49953   3.256   8.918   9.935  0.1065  0.2582 -0.6336
  371MOL0     C49954   3.121   8.895   9.950 -0.1605  0.5998  0.5843
  371MOL0     C49955   3.070   8.878  10.075 -0.5109  0.0673  0.4208
  371MOL0     C49956   2.936   8.869  10.109 -0.4525 -1.2918  0.3361
  371MOL0     C49957   2.845   8.865  10.013  0.0083  0.7492  0.4598
  371MOL0     O49958   2.709   8.869  10.035 -0.0389 -0.2543  0.5481
  371MOL0     C49959   2.666   8.778  10.134 -1.0328 -0.2442  0.6044
  371MOL0     C49960   2.517   8.771  10.129 -0.0975  0.1010  0.2571
  371MOL0     C49961   2.458   8.660  10.216 -0.1475  0.1836 -0.4548
  371MOL0     C49962   2.309   8.672  10.234  0.0317  0.4466 -0.5673
  371MOL0     C49963   2.247   8.567  10.330 -0.4796 -0.3588 -0.5524
  371MOL0     C49964   2.186   8.440  10.266 -0.5741  0.8215 -0.1977
  371MOL0     C49965   2.121   8.346  10.361  0.4041  0.6921  1.0284
  371MOL0     C49966   1.996   8.266  10.292 -0.8092 -0.0618 -0.0848
  371MOL0     N49967   1.917   8.204  10.399 -0.7349 -0.4013  0.0717
  371MOL0     C49968   1.782   8.217  10.412 -0.8370 -0.3058  0.9645
  371MOL0     C49969   1.743   8.109  10.488  0.4137 -1.1675 -0.1122
  371MOL0     C49970   1.600   8.070  10.522 -0.0224 -1.2255 -0.4092
  371MOL0     C49971   1.495   8.104  10.417 -0.1579  0.5463 -0.2987
  371MOL0     C49972   1.345   8.066  10.450 -1.0257  0.1672 -0.2973
  371MOL0     C49973   1.239   8.103  10.354  0.8100 -0.8475 -0.3923
  371MOL0     O49974   1.118   8.019  10.376 -0.2076 -1.2393  0.1615
  371MOL0     C49975   1.002   8.068  10.312  0.5396 -0.9765  0.2627
  371MOL0     C49976   0.885   8.014  10.360 -0.1950 -0.8292  0.4052
  371MOL0     C49977   0.760   8.038  10.303 -0.5673 -0.5384  0.2948
  371MOL0     C49978   0.643   7.986  10.384 -0.1454 -0.6225  0.0168
  371MOL0     C49979   0.759   8.118  10.179 -0.5507 -0.7743 -0.7234
  371MOL0     C49980   0.635   8.156  10.103  0.1082 -1.2990 -0.5230
  371MOL0     O49981   0.652   8.238   9.985  0.0940 -0.0536 -0.5599
  371MOL0     C49982   0.535   8.266   9.925  0.6425  0.0063 -0.9363
  371MOL0     C49983   0.475   8.390   9.940  0.0317 -0.7668 -0.5368
  371MOL0     C49984   0.370   8.432   9.867  0.7475 -0.2725 -0.1242
  371MOL0     C49985   0.308   8.360   9.762 -0.4346  0.3609  0.4191
  371MOL0     O49986   0.210   8.406   9.682 -0.5543  0.0414  0.3722
  371MOL0     C49987   0.084   8.333   9.681 -0.5446  0.6632 -0.6131
  371MOL0     C49988  -0.005   8.350   9.550  0.0471  0.2517 -0.6959
  371MOL0     C49989  -0.045   8.493   9.547 -0.2044  0.3151  0.1406
  371MOL0     C49990  -0.164   8.509   9.441  0.5529  0.6397 -0.7531
  371MOL0     C49991  -0.191   8.653   9.429  0.5344 -1.1794 -0.2983
  371MOL0     C49992  -0.316   8.691   9.353 -0.0352  0.6472  0.2580
  371MOL0     C49993  -0.457   8.672   9.417 -0.1843  1.0012 -0.3119
  371MOL0     C49994  -0.562   8.598   9.341  0.4159  0.3082 -0.3618
  371MOL0    Cl49995  -0.519   8.419   9.310  0.1526 -0.2578  0.4653
  371MOL0     C49996   0.368   8.235   9.755 -0.5820  0.4424 -0.2280
  371MOL0     C49997   0.470   8.181   9.838  0.5442 -0.4148  0.2885
  371MOL0     O49998   0.527   8.104  10.133  0.4863  0.0697 -0.4390
  371MOL0     C49999   0.876   8.183  10.137 -0.6599 -0.2868  0.6355
  371MOL0     C50000   1.000   8.166  10.210 -0.2408 -0.0195 -0.2169
  371MOL0     N50001   1.848   8.032  10.515  0.1144 -0.0995 -0.5174
  371MOL0     N50002   1.953   8.087  10.466 -0.1624 -0.8225 -0.4625
  371MOL0     C50003   2.885   8.873   9.878 -0.5042  0.0684  0.2650
  371MOL0     C50004   3.020   8.885   9.847 -0.8309  0.4676  0.1256
  371MOL0     C50005   3.459   8.946   9.810  0.4468  0.3877  0.5753
  371MOL0     C50006   3.537   8.916   9.703  0.3094  0.0180  0.5135
  371MOL0     C50007   3.656   8.978   9.681 -0.5803  0.6338  0.1265
  371MOL0     C50008   3.707   9.066   9.777 -0.0643  0.5891  0.8475
  371MOL0     O50009   3.842   9.100   9.747 -0.0465  0.3614  0.6689
  371MOL0     C50010   3.911   9.172   9.849  0.2338  0.1804 -0.3021
  371MOL0     C50011   4.014   9.251   9.788 -1.0172  0.2290  0.4095
  371MOL0     C50012   3.989   9.328   9.654 -0.0760  0.8255 -0.8380
  371MOL0     C50013   3.905   9.461   9.672 -0.1781  1.0465  0.3328
  371MOL0     C50014   3.982   9.549   9.759 -0.3407 -0.6639 -0.0656
  371MOL0     C50015   4.075   9.623   9.802  0.8978 -0.3469  0.4639
  371MOL0     C50016   3.625   9.101   9.890 -0.2229 -1.2693  0.3989
  371MOL0     C50017   3.501   9.037   9.906  0.0170  0.5559 -0.3045
  371MOL0     H50018   3.142   8.879  10.156  0.2187  3.1135 -0.1419
  371MOL0     H50019   2.913   8.881  10.214  1.4903  0.0034  0.6563
  371MOL0     H50020   2.709   8.678  10.124  1.2974  0.5496  1.7064
  371MOL0     H50021   2.691   8.813  10.235 -2.8987  1.8721  0.4053
  371MOL0     H50022   2.468   8.864  10.156  1.0856  0.4044  1.4546
  371MOL0     H50023   2.484   8.753  10.026 -4.1713  2.7571  0.8765
  371MOL0     H50024   2.487   8.559  10.187 -0.1179  0.5074 -1.6149
  371MOL0     H50025   2.506   8.678  10.313 -2.5872  1.3196  0.6215
  371MOL0     H50026   2.292   8.767  10.284  3.1151 -0.6110  2.9695
  371MOL0     H50027   2.253   8.668  10.140 -1.9428  0.9122  0.5251
  371MOL0     H50028   2.326   8.540  10.401 -0.0106  0.5440 -0.7248
  371MOL0     H50029   2.163   8.620  10.376  0.4724  2.6982 -2.0998
  371MOL0     H50030   2.117   8.471  10.187  0.3984 -1.0896 -1.8929
  371MOL0     H50031   2.257   8.384  10.204  0.4998  3.7310 -1.7954
  371MOL0     H50032   2.192   8.278  10.411 -0.5209 -0.0792  1.3239
  371MOL0     H50033   2.087   8.415  10.439 -0.6061 -1.3396  2.4846
  371MOL0     H50034   2.032   8.182  10.232 -0.7656  0.8623 -1.3788
  371MOL0     H50035   1.935   8.330  10.227 -1.2154 -2.0195 -1.7381
  371MOL0     H50036   1.722   8.285  10.352  0.0986 -1.3558 -1.2720
  371MOL0     H50037   1.591   7.961  10.531  1.3430 -1.4803 -1.7114
  371MOL0     H50038   1.582   8.122  10.617  1.8586  2.9812 -2.1180
  371MOL0     H50039   1.516   8.044  10.328 -0.7326  0.8796 -0.6686
  371MOL0     H50040   1.494   8.211  10.396 -1.9456  0.1006 -3.0541
  371MOL0     H50041   1.323   8.110  10.547  0.9518  1.0454 -0.1939
  371MOL0     H50042   1.343   7.958  10.469  0.9772 -0.2330 -1.9865
  371MOL0     H50043   1.279   8.094  10.253 -2.7284  2.7551 -2.4057
  371MOL0     H50044   1.217   8.210  10.358  0.9037 -0.6271 -3.4019
  371MOL0     H50045   0.895   7.941  10.440 -0.2993 -0.1631  1.0359
  371MOL0     H50046   0.674   7.895  10.437  2.9138  0.3789  0.1117
  371MOL0     H50047   0.612   8.059  10.459  0.7537  1.2376 -1.3504
  371MOL0     H50048   0.559   7.946  10.325 -0.0206 -0.6785 -0.1224
  371MOL0     H50049   0.526   8.456  10.010 -1.3124  0.0068 -0.2584
  371MOL0     H50050   0.344   8.536   9.885  1.3415 -0.1441  0.0132
  371MOL0     H50051   0.101   8.228   9.707  1.1585  0.7079 -1.4504
  371MOL0     H50052   0.025   8.367   9.767 -0.7209 -1.1455  0.0266
  371MOL0     H50053   0.047   8.319   9.459 -1.5048  0.2403 -1.6189
  371MOL0     H50054  -0.095   8.288   9.559 -0.2966  0.9457  1.3775
  371MOL0     H50055   0.043   8.547   9.510  0.5302 -0.4614  0.7081
  371MOL0     H50056  -0.075   8.535   9.643 -1.4344 -1.1221  0.4079
  371MOL0     H50057  -0.136   8.476   9.340 -2.3919 -0.4393 -1.3255
  371MOL0     H50058  -0.243   8.442   9.477  1.4683  0.6711  1.4372
  371MOL0     H50059  -0.109   8.706   9.379 -0.5064  0.6341 -0.1777
  371MOL0     H50060  -0.213   8.696   9.527 -0.4837  1.2042 -1.4819
  371MOL0     H50061  -0.302   8.799   9.343  0.0527  0.6728  0.6643
  371MOL0     H50062  -0.311   8.657   9.249 -0.9208  2.2575 -0.3577
  371MOL0     H50063  -0.486   8.777   9.427  0.8354  1.3564 -0.9500
  371MOL0     H50064  -0.456   8.638   9.521 -1.9497  0.5382 -0.4091
  371MOL0     H50065  -0.591   8.646   9.246 -1.1938 -3.0543 -1.7189
  371MOL0     H50066  -0.656   8.597   9.396 -2.0949  2.8993 -4.0743
  371MOL0     H50067   0.333   8.165   9.679  1.7007 -1.8205  0.6746
  371MOL0     H50068   0.522   8.086   9.832  1.4969  0.1376 -0.5772
  371MOL0     H50069   0.874   8.253  10.054 -0.7229  1.7268  2.2570
  371MOL0     H50070   1.094   8.214  10.188 -0.8541  0.6110 -1.6094
  371MOL0     H50071   2.814   8.894   9.799  2.4347 -0.1095 -2.6529
  371MOL0     H50072   3.056   8.907   9.747 -1.3314  1.6167  0.1823
  371MOL0     H50073   3.492   8.849   9.631  0.0447  4.0292 -3.4920
  371MOL0     H50074   3.706   8.961   9.586  0.7114 -2.0940  1.2102
  371MOL0     H50075   3.849   9.233   9.916  1.3998 -0.9498  1.9331
  371MOL0     H50076   3.965   9.097   9.909  0.5853 -0.1825 -1.0620
  371MOL0     H50077   4.094   9.186   9.751  0.1484  1.2504  1.0359
  371MOL0     H50078   4.062   9.316   9.862 -0.9713 -1.0551  1.5325
  371MOL0     H50079   3.923   9.270   9.587 -3.5922  1.6677  1.6222
  371MOL0     H50080   4.081   9.346   9.598  0.5043 -0.5115 -0.3434
  371MOL0     H50081   3.803   9.442   9.707 -1.1961  2.3640 -1.6784
  371MOL0     H50082   3.896   9.489   9.566 -1.8624 -0.8693 -0.1013
  371MOL0     H50083   4.169   9.671   9.819  1.0653  0.0204 -1.2760
  371MOL0     H50084   3.647   9.177   9.964 -0.0774 -2.3332  1.4870
  371MOL0     H50085   3.436   9.066   9.988 -2.2198 -0.0241 -1.7727
  372MOL0     O50086   8.538   6.877   0.442  0.6080  0.2093 -0.3790
  372MOL0     C50087   8.605   6.826   0.532 -0.0304 -0.0000  0.5339
  372MOL0     O50088   8.555   6.760   0.636 -0.4864  0.1063 -0.9801
  372MOL0     C50089   8.429   6.706   0.636  0.1008 -0.3369  1.0067
  372MOL0     C50090   8.391   6.579   0.586 -0.5824 -0.1628  0.3211
  372MOL0     C50091   8.249   6.546   0.592  0.1135 -1.0332 -0.0488
  372MOL0     C50092   8.162   6.642   0.633  0.8624  0.6785 -0.9907
  372MOL0     O50093   8.028   6.617   0.652 -0.2263  0.3606 -0.6342
  372MOL0     C50094   7.990   6.477   0.690 -0.1102 -0.3557  0.2295
  372MOL0     C50095   7.942   6.411   0.563 -0.8099  0.5596  0.6257
  372MOL0     C50096   7.841   6.486   0.478  0.0865  0.0406  0.7420
  372MOL0     C50097   7.798   6.399   0.352 -0.7839  0.1805  0.0867
  372MOL0     C50098   7.696   6.455   0.248 -0.2400 -0.0484  0.3085
  372MOL0     C50099   7.751   6.583   0.191 -0.1665 -0.5195 -0.3718
  372MOL0     C50100   7.696   6.613   0.044  0.0461  0.0238 -0.2839
  372MOL0     C50101   7.546   6.632   0.029  0.0012  0.0713 -0.4392
  372MOL0     N50102   7.500   6.657  -0.106  0.0642  0.4493  0.0981
  372MOL0     C50103   7.497   6.575  -0.221  0.5017  0.0091 -0.2906
  372MOL0     C50104   7.436   6.655  -0.317  0.2111  0.1001 -0.2941
  372MOL0     C50105   7.400   6.591  -0.444 -0.4402 -0.1293  0.2959
  372MOL0     C50106   7.279   6.658  -0.516  0.1554  0.1006  0.3310
  372MOL0     C50107   7.154   6.657  -0.436 -0.2749  0.2232  0.5850
  372MOL0     C50108   7.033   6.715  -0.516 -0.2674  0.0118 -0.0134
  372MOL0     O50109   6.921   6.710  -0.432  0.2257  0.9999  0.6991
  372MOL0     C50110   6.805   6.686  -0.505 -0.7201 -0.6144  0.0694
  372MOL0     C50111   6.775   6.738  -0.632 -0.3346  1.2080 -0.0700
  372MOL0     C50112   6.640   6.739  -0.684  0.3518  0.5602  0.0509
  372MOL0     C50113   6.612   6.799  -0.822 -0.5587 -1.3359  0.0799
  372MOL0     C50114   6.539   6.674  -0.613 -0.2001  0.0647 -0.8519
  372MOL0     C50115   6.402   6.666  -0.654  0.6195 -0.4607  0.6205
  372MOL0     O50116   6.327   6.564  -0.619 -0.2499  0.4507 -0.1960
  372MOL0     C50117   6.199   6.562  -0.666 -0.5525  0.0792 -1.0116
  372MOL0     C50118   6.099   6.650  -0.635  0.0622 -0.4712  0.1263
  372MOL0     C50119   5.964   6.632  -0.661  0.3119  0.4179  0.9188
  372MOL0     C50120   5.921   6.518  -0.737 -0.3074  0.5191 -0.5285
  372MOL0     O50121   5.791   6.479  -0.762 -0.2019  0.6673  0.3433
  372MOL0     C50122   5.696   6.585  -0.758 -0.0417  0.6626 -0.5651
  372MOL0     C50123   5.565   6.546  -0.823 -0.2465 -0.0622 -0.0372
  372MOL0     C50124   5.545   6.576  -0.968 -0.4338  0.1917 -0.3004
  372MOL0     C50125   5.667   6.569  -1.049 -0.1336  0.0340  0.0204
  372MOL0     C50126   5.628   6.577  -1.202 -0.6030  0.5246 -0.9095
  372MOL0     C50127   5.747   6.570  -1.289  0.5530  0.4023  0.2297
  372MOL0     C50128   5.780   6.431  -1.335  0.3026 -0.5583  0.3731
  372MOL0     C50129   5.885   6.420  -1.435  0.1439 -0.4912 -0.1255
  372MOL0    Cl50130   5.794   6.433  -1.595  0.1866 -0.0389  0.3241
  372MOL0     C50131   6.025   6.429  -0.770  0.6401 -0.3287 -0.9190
  372MOL0     C50132   6.161   6.448  -0.740 -0.5879  0.3978 -0.2010
  372MOL0     O50133   6.361   6.775  -0.694 -0.6713  0.1752  0.6139
  372MOL0     C50134   6.569   6.612  -0.489  0.2567 -0.5149 -0.4736
  372MOL0     C50135   6.701   6.626  -0.434  0.0963 -0.1692  0.3145
  372MOL0     N50136   7.424   6.784  -0.275  0.2021  0.6663 -0.3384
  372MOL0     N50137   7.457   6.778  -0.147  0.9338  0.5145  0.4646
  372MOL0     C50138   8.206   6.755   0.696  0.1311 -0.4862 -0.0262
  372MOL0     C50139   8.332   6.783   0.696  0.8589  0.1290 -0.5095
  372MOL0     C50140   8.753   6.861   0.529  0.1641 -0.4261  0.4273
  372MOL0     C50141   8.835   6.819   0.637  0.4722 -0.2592  0.0525
  372MOL0     C50142   8.974   6.858   0.639  0.0136 -0.5356  0.0029
  372MOL0     C50143   9.022   6.929   0.522  0.0715  1.0493  0.5133
  372MOL0     O50144   9.163   6.931   0.515  0.2554 -0.8147 -0.7033
  372MOL0     C50145   9.223   6.998   0.412  0.1939 -0.4138  0.8413
  372MOL0     C50146   9.363   7.038   0.461 -0.0740 -0.4980  0.4024
  372MOL0     C50147   9.450   6.922   0.495  0.0991 -0.1305  0.2323
  372MOL0     C50148   9.576   6.975   0.560 -0.0858 -0.8549 -0.3170
  372MOL0     C50149   9.572   6.941   0.700  0.0188  0.4123  0.2201
  372MOL0     C50150   9.576   6.893   0.814 -0.1637  0.0577  0.1680
  372MOL0     C50151   8.940   6.958   0.414  0.2700  0.7183 -0.0666
  372MOL0     C50152   8.806   6.914   0.411  0.9869 -0.1068 -0.4088
  372MOL0     H50153   8.467   6.506   0.559  0.8446  1.6961 -0.8710
  372MOL0     H50154   8.215   6.459   0.536  0.8192  1.1521 -4.3446
  372MOL0     H50155   8.069   6.425   0.744 -1.2108 -1.1159  1.1571
  372MOL0     H50156   7.898   6.493   0.747 -1.8126 -0.7226 -2.2536
  372MOL0     H50157   8.022   6.388   0.492 -2.5046  1.5752 -1.7538
  372MOL0     H50158   7.915   6.307   0.581 -0.3916  0.4845  0.8387
  372MOL0     H50159   7.755   6.502   0.544 -1.3391 -0.2689 -0.9701
  372MOL0     H50160   7.882   6.580   0.439 -1.6556  0.9679  1.0181
  372MOL0     H50161   7.888   6.367   0.297 -0.6230 -1.0701  1.0283
  372MOL0     H50162   7.756   6.304   0.385 -0.5892 -0.3772 -1.1920
  372MOL0     H50163   7.665   6.377   0.177  0.9419 -0.1072 -0.1617
  372MOL0     H50164   7.604   6.483   0.300 -0.3521  1.7546 -0.7418
  372MOL0     H50165   7.731   6.663   0.263  1.2582  0.0591 -0.5907
  372MOL0     H50166   7.860   6.575   0.190 -0.1793 -0.8031  0.0585
  372MOL0     H50167   7.736   6.709   0.010  2.0821 -0.3225  0.9253
  372MOL0     H50168   7.746   6.539  -0.019 -0.0986  0.9900 -1.5614
  372MOL0     H50169   7.516   6.717   0.091 -0.5867 -0.1859 -0.3566
  372MOL0     H50170   7.486   6.552   0.073 -1.0337  1.6751  1.2291
  372MOL0     H50171   7.521   6.469  -0.225 -2.1861 -0.7363  0.6353
  372MOL0     H50172   7.490   6.573  -0.502  0.6251  1.4896  1.3634
  372MOL0     H50173   7.358   6.496  -0.409 -1.1481  0.8523  2.2593
  372MOL0     H50174   7.273   6.601  -0.609  1.2137 -0.8397  0.8118
  372MOL0     H50175   7.309   6.758  -0.547 -2.4264  0.2333 -2.1527
  372MOL0     H50176   7.168   6.705  -0.339  1.0250 -0.9436  1.0085
  372MOL0     H50177   7.117   6.560  -0.403 -1.5271  0.4111 -0.2102
  372MOL0     H50178   7.028   6.673  -0.617  1.1804  1.4577 -0.7374
  372MOL0     H50179   7.040   6.819  -0.549 -1.8455 -0.2370 -1.2202
  372MOL0     H50180   6.852   6.791  -0.688 -1.1461  0.6563 -1.7644
  372MOL0     H50181   6.557   6.893  -0.812  2.2094  0.5333 -1.0321
  372MOL0     H50182   6.706   6.830  -0.869 -0.6833 -3.3426 -1.6535
  372MOL0     H50183   6.581   6.727  -0.899  2.4746 -0.9473 -1.6667
  372MOL0     H50184   6.134   6.732  -0.572  2.6845 -1.0846 -0.4061
  372MOL0     H50185   5.898   6.703  -0.612  0.6541  0.9725  0.5767
  372MOL0     H50186   5.687   6.610  -0.652  0.7057 -2.8828  0.4796
  372MOL0     H50187   5.725   6.679  -0.806 -1.1040  2.2892  1.7899
  372MOL0     H50188   5.554   6.440  -0.798 -0.6064 -1.0310 -3.6879
  372MOL0     H50189   5.487   6.601  -0.770  0.0793 -1.2580  1.7853
  372MOL0     H50190   5.504   6.677  -0.973  1.1504  0.9004  0.6638
  372MOL0     H50191   5.476   6.500  -1.008  1.8867 -1.7174 -0.9066
  372MOL0     H50192   5.735   6.651  -1.026 -0.6957  0.9080 -1.2672
  372MOL0     H50193   5.729   6.482  -1.027 -1.4041 -0.9614 -0.2430
  372MOL0     H50194   5.576   6.671  -1.225  2.0647  1.6998 -2.7400
  372MOL0     H50195   5.560   6.497  -1.233 -0.8318  0.0817  0.6789
  372MOL0     H50196   5.719   6.634  -1.373  1.1658 -1.2407 -1.2877
  372MOL0     H50197   5.831   6.625  -1.245 -0.0739  2.6772 -1.2660
  372MOL0     H50198   5.685   6.385  -1.361 -1.8930  3.6586  0.0578
  372MOL0     H50199   5.811   6.374  -1.247 -1.7954 -0.0843  1.4827
  372MOL0     H50200   5.942   6.326  -1.432  2.1478  0.5535 -2.0231
  372MOL0     H50201   5.968   6.489  -1.416  0.0637 -0.8372  1.6080
  372MOL0     H50202   5.994   6.337  -0.817 -0.2223 -0.1752 -0.6689
  372MOL0     H50203   6.232   6.371  -0.768  2.1579  2.7337 -0.1546
  372MOL0     H50204   6.490   6.556  -0.440 -0.0290  0.8914  0.7488
  372MOL0     H50205   6.718   6.591  -0.333 -2.1744 -0.9359  0.4805
  372MOL0     H50206   8.141   6.827   0.746 -1.8262 -2.4724  0.4286
  372MOL0     H50207   8.366   6.880   0.729  0.8740  0.3982 -1.2882
  372MOL0     H50208   8.793   6.748   0.708 -2.9715  0.4641 -1.0483
  372MOL0     H50209   9.050   6.825   0.708 -2.0738 -5.3314  0.4104
  372MOL0     H50210   9.227   6.940   0.319  0.3120 -1.1843  1.3188
  372MOL0     H50211   9.173   7.093   0.391  0.6375 -0.3848 -0.1208
  372MOL0     H50212   9.336   7.102   0.546 -0.9254 -0.8546  0.4059
  372MOL0     H50213   9.417   7.107   0.396  1.7172  1.9279  4.0747
  372MOL0     H50214   9.481   6.881   0.399 -0.5882  0.7221 -0.3756
  372MOL0     H50215   9.391   6.855   0.559 -1.4793  2.4825  1.6751
  372MOL0     H50216   9.584   7.083   0.542  2.6233 -1.0211 -0.5569
  372MOL0     H50217   9.664   6.923   0.521 -0.0762 -1.7496  0.8631
  372MOL0     H50218   9.579   6.854   0.914 -2.8315 -1.5831 -0.3078
  372MOL0     H50219   8.981   7.013   0.330  2.8890  0.7530  1.1515
  372MOL0     H50220   8.744   6.920   0.322 -0.8450  2.0762  0.8948
  373MOL0     O50221   3.403   3.863  11.280 -0.1068 -0.2178 -0.4932
  373MOL0     C50222   3.373   3.752  11.249  0.6002  0.0135  0.4136
  373MOL0     O50223   3.441   3.661  11.163 -0.3306 -0.1161 -0.0142
  373MOL0     C50224   3.556   3.697  11.104  0.0238  0.9474  0.6054
  373MOL0     C50225   3.572   3.816  11.032  0.2559 -0.7461 -0.1803
  373MOL0     C50226   3.690   3.838  10.958  0.0106  0.1888 -0.4859
  373MOL0     C50227   3.793   3.748  10.948  0.2301 -0.0625  0.4245
  373MOL0     O50228   3.914   3.778  10.888 -0.2993  0.0262  0.0242
  373MOL0     C50229   4.010   3.682  10.850  0.3909 -0.5348 -0.9456
  373MOL0     C50230   4.124   3.675  10.945  0.4613 -0.0736  0.0347
  373MOL0     C50231   4.255   3.622  10.890  0.5388  0.2730 -0.2303
  373MOL0     C50232   4.237   3.480  10.832  0.0170 -0.6502 -0.1555
  373MOL0     C50233   4.357   3.431  10.761  0.3577 -0.5173  0.5393
  373MOL0     C50234   4.377   3.488  10.618 -0.3961  0.8739  0.9500
  373MOL0     C50235   4.463   3.375  10.552  0.4437 -0.2081  0.4102
  373MOL0     C50236   4.535   3.415  10.421 -1.0056  0.0493 -0.8421
  373MOL0     N50237   4.429   3.405  10.322 -0.2092 -0.8647  0.6279
  373MOL0     C50238   4.376   3.287  10.274  0.1887  0.6667  0.5330
  373MOL0     C50239   4.272   3.317  10.195  0.3187  0.0252  0.4305
  373MOL0     C50240   4.176   3.210  10.140 -0.0532  0.0572 -0.3538
  373MOL0     C50241   4.136   3.101  10.237 -0.7207  0.0732  0.0273
  373MOL0     C50242   4.065   3.168  10.358 -0.8867 -0.0407  0.5880
  373MOL0     C50243   3.949   3.255  10.319  0.2977  0.4927 -0.4980
  373MOL0     O50244   3.858   3.167  10.248 -0.7421  0.0732 -0.2752
  373MOL0     C50245   3.741   3.144  10.305  0.8342  0.5341 -1.2324
  373MOL0     C50246   3.692   3.006  10.322  0.0111  0.1075  0.1575
  373MOL0     C50247   3.564   2.979  10.363 -1.6772  0.4132 -0.4911
  373MOL0     C50248   3.530   2.834  10.380  0.6049 -0.8012  0.0135
  373MOL0     C50249   3.478   3.083  10.400  0.2590  0.2873  0.0689
  373MOL0     C50250   3.338   3.056  10.432  0.2869 -0.0086 -0.4143
  373MOL0     O50251   3.292   3.137  10.535 -0.1881  0.0043 -0.1168
  373MOL0     C50252   3.158   3.129  10.576 -0.3829 -0.1539 -0.3313
  373MOL0     C50253   3.125   3.090  10.711  0.0390  0.2166  0.6748
  373MOL0     C50254   2.994   3.054  10.741  0.3238  0.0878 -0.1491
  373MOL0     C50255   2.889   3.076  10.652  0.9639 -0.7395  0.1431
  373MOL0     O50256   2.756   3.057  10.676  1.2173  0.1218  1.1725
  373MOL0     C50257   2.700   3.037  10.805 -0.4741  1.0560  0.5683
  373MOL0     C50258   2.576   2.964  10.793 -0.2102 -0.0473 -0.3586
  373MOL0     C50259   2.508   2.938  10.927  0.5239 -0.4464  0.5769
  373MOL0     C50260   2.450   3.063  10.992 -0.3548  0.5808  0.2839
  373MOL0     C50261   2.334   3.022  11.087  0.0687 -0.1804 -0.8351
  373MOL0     C50262   2.284   3.148  11.164  0.1141 -0.5710  0.1996
  373MOL0     C50263   2.144   3.151  11.226 -0.0800 -0.7468  0.0649
  373MOL0     C50264   2.140   3.138  11.384  0.2365 -0.5050  0.8968
  373MOL0    Cl50265   2.130   2.964  11.418 -0.2868  0.6131  0.1659
  373MOL0     C50266   2.921   3.124  10.526 -0.5847 -0.7667  0.8467
  373MOL0     C50267   3.056   3.151  10.487  0.1184 -0.0367  0.0399
  373MOL0     O50268   3.274   2.977  10.361 -0.4215 -0.6911 -0.1224
  373MOL0     C50269   3.517   3.216  10.383  0.2332  0.4568 -0.5015
  373MOL0     C50270   3.648   3.248  10.339  1.1712  0.4703 -1.2806
  373MOL0     N50271   4.262   3.452  10.197  0.2579  0.1539  0.0419
  373MOL0     N50272   4.350   3.501  10.269 -0.5418  0.2832 -0.1355
  373MOL0     C50273   3.776   3.621  11.011  0.5278 -1.1451  0.6517
  373MOL0     C50274   3.657   3.604  11.093  0.0793 -0.0595  0.2022
  373MOL0     C50275   3.242   3.708  11.301 -0.5930  0.2862  1.1368
  373MOL0     C50276   3.162   3.794  11.381 -0.9105 -0.0419 -0.1829
  373MOL0     C50277   3.041   3.756  11.431  0.2068  0.2248 -0.1963
  373MOL0     C50278   2.995   3.631  11.408 -0.5517  1.1165  0.6498
  373MOL0     O50279   2.872   3.604  11.463  0.4523  0.0607  0.8008
  373MOL0     C50280   2.810   3.480  11.448  0.2591 -0.0606 -1.5176
  373MOL0     C50281   2.662   3.501  11.491 -1.2174  0.2356 -0.2609
  373MOL0     C50282   2.568   3.512  11.368  0.0245  0.4419  0.5423
  373MOL0     C50283   2.421   3.487  11.417  0.2804 -0.2931 -1.0594
  373MOL0     C50284   2.376   3.617  11.480 -0.0632  0.0912 -0.1153
  373MOL0     C50285   2.333   3.729  11.496 -0.1012  0.0075  0.4236
  373MOL0     C50286   3.061   3.543  11.326  0.0307 -0.4468 -0.0679
  373MOL0     C50287   3.187   3.584  11.272  0.1412  0.2224  0.0405
  373MOL0     H50288   3.493   3.889  11.045  0.9364  0.0108 -0.2005
  373MOL0     H50289   3.711   3.940  10.927  1.7954 -0.2658 -0.8517
  373MOL0     H50290   3.963   3.585  10.831 -1.9814  0.3147  0.0993
  373MOL0     H50291   4.043   3.718  10.752 -2.9601 -0.7048 -2.2878
  373MOL0     H50292   4.132   3.770  10.999 -0.1492  0.6544 -1.0967
  373MOL0     H50293   4.094   3.604  11.022 -1.6226  1.8765  1.1227
  373MOL0     H50294   4.296   3.689  10.813  3.0874  0.2066  0.9411
  373MOL0     H50295   4.336   3.630  10.963 -2.1970 -1.0201  3.2111
  373MOL0     H50296   4.206   3.405  10.905  1.2094 -1.6532 -0.6525
  373MOL0     H50297   4.158   3.477  10.756 -1.5969  0.2096  1.4090
  373MOL0     H50298   4.447   3.443  10.822  2.0785 -2.7065 -1.4212
  373MOL0     H50299   4.330   3.326  10.756 -0.7326 -0.4457  3.3087
  373MOL0     H50300   4.287   3.514  10.562  0.9297  1.9350 -0.7549
  373MOL0     H50301   4.434   3.581  10.624 -0.0951  0.6936  0.9177
  373MOL0     H50302   4.551   3.352  10.612 -1.1062  1.0220  3.3577
  373MOL0     H50303   4.408   3.282  10.533 -0.0996 -0.0241  1.0553
  373MOL0     H50304   4.606   3.333  10.405 -3.6721 -2.4652 -0.7911
  373MOL0     H50305   4.575   3.516  10.430 -1.1783  0.1921 -1.6227
  373MOL0     H50306   4.404   3.185  10.296 -1.3366  0.2630  0.7462
  373MOL0     H50307   4.081   3.257  10.113  0.0954 -0.0300 -1.0492
  373MOL0     H50308   4.218   3.165  10.050 -0.6556 -1.2934  0.0205
  373MOL0     H50309   4.224   3.045  10.271 -0.3533 -1.4091 -3.0301
  373MOL0     H50310   4.068   3.025  10.196 -0.2909 -0.5361  0.4243
  373MOL0     H50311   4.140   3.233  10.404  0.2533  0.0487 -1.3162
  373MOL0     H50312   4.034   3.085  10.423 -0.3521 -0.2786  0.5465
  373MOL0     H50313   3.964   3.347  10.261 -0.6597  0.3082 -1.0774
  373MOL0     H50314   3.908   3.283  10.416  0.1744 -1.4034  0.0379
  373MOL0     H50315   3.748   2.926  10.274 -1.9550 -0.4803 -1.2974
  373MOL0     H50316   3.622   2.777  10.391  0.6154 -0.5671  1.3022
  373MOL0     H50317   3.484   2.810  10.476  1.5694  3.6303  1.8284
  373MOL0     H50318   3.477   2.803  10.289  1.9165  1.0875 -1.4953
  373MOL0     H50319   3.210   3.080  10.778  1.2471  5.7200  0.4277
  373MOL0     H50320   2.985   3.011  10.840  1.9554 -1.5010 -0.6300
  373MOL0     H50321   2.757   2.966  10.865 -2.8057  0.5622  2.3058
  373MOL0     H50322   2.697   3.136  10.852 -0.2484  1.0970  0.4983
  373MOL0     H50323   2.507   3.006  10.719 -0.2356 -0.0434 -0.3323
  373MOL0     H50324   2.602   2.861  10.766 -0.9908  0.2582 -2.4621
  373MOL0     H50325   2.574   2.891  11.001  0.4974  2.0837  2.2987
  373MOL0     H50326   2.421   2.873  10.908 -2.4554  3.6047 -1.0491
  373MOL0     H50327   2.524   3.123  11.045 -0.2850 -0.5081  1.4938
  373MOL0     H50328   2.393   3.116  10.915 -1.7338  0.0907  0.9222
  373MOL0     H50329   2.358   2.942  11.157 -0.9949 -1.2841 -1.6928
  373MOL0     H50330   2.255   2.975  11.028  1.5188 -1.5137 -1.8112
  373MOL0     H50331   2.363   3.162  11.238  1.1144 -0.5566 -0.8418
  373MOL0     H50332   2.282   3.238  11.102  0.3503  0.0749  1.1180
  373MOL0     H50333   2.090   3.069  11.177  1.8055 -0.8670 -1.9991
  373MOL0     H50334   2.091   3.241  11.192 -0.3687 -0.5114  1.0959
  373MOL0     H50335   2.052   3.193  11.418  0.2200  1.2438 -1.6767
  373MOL0     H50336   2.227   3.184  11.430 -0.1825  0.3385  0.8615
  373MOL0     H50337   2.843   3.147  10.453 -0.1075 -1.6014  0.0536
  373MOL0     H50338   3.058   3.188  10.385  1.0001  1.3262  0.5248
  373MOL0     H50339   3.451   3.298  10.406  1.8532  1.0205  2.6764
  373MOL0     H50340   3.682   3.349  10.323  2.2286 -0.2288 -3.9965
  373MOL0     H50341   3.847   3.540  10.996  0.8148 -0.4070 -2.8253
  373MOL0     H50342   3.635   3.507  11.136  0.5076 -0.1568  0.2127
  373MOL0     H50343   3.214   3.885  11.409 -1.6153  0.5801 -0.8455
  373MOL0     H50344   2.989   3.824  11.498 -0.3328  0.5684 -0.9460
  373MOL0     H50345   2.806   3.446  11.344 -2.6871 -1.9451 -0.9175
  373MOL0     H50346   2.871   3.415  11.511 -3.0713 -0.0165  2.0597
  373MOL0     H50347   2.660   3.589  11.556  0.1546  0.0487  0.0648
  373MOL0     H50348   2.631   3.411  11.546 -1.8016 -0.0868 -1.1060
  373MOL0     H50349   2.581   3.426  11.301  1.9309 -0.8980  2.4942
  373MOL0     H50350   2.574   3.605  11.311  1.5380 -1.2265 -2.2646
  373MOL0     H50351   2.423   3.403  11.486 -4.4557  0.7043  0.6828
  373MOL0     H50352   2.366   3.439  11.334  0.4231 -1.3241 -0.5686
  373MOL0     H50353   2.302   3.832  11.491 -2.6042 -0.6741  0.6159
  373MOL0     H50354   3.034   3.439  11.309 -0.6115 -0.4419  0.8700
  373MOL0     H50355   3.243   3.511  11.215  1.5852  1.6476 -0.4302
  374MOL0     O50356   4.212  10.863  10.016  0.0942  0.3808  0.1044
  374MOL0     C50357   4.202  10.952   9.931  0.5913  0.1808 -0.7915
  374MOL0     O50358   4.087  10.988   9.867 -0.3679 -0.0829 -0.2974
  374MOL0     C50359   3.966  10.941   9.908 -0.6176  0.0844 -0.2216
  374MOL0     C50360   3.934  10.902  10.033  0.4358 -0.0490 -1.0660
  374MOL0     C50361   3.802  10.869  10.060  0.6258  0.0724  0.4018
  374MOL0     C50362   3.704  10.858   9.962  0.0865  0.2113  1.0590
  374MOL0     O50363   3.579  10.826  10.000  0.0329 -0.5699  0.0066
  374MOL0     C50364   3.519  10.924  10.081  0.4120 -0.2546 -0.1568
  374MOL0     C50365   3.457  11.040   9.996 -1.2391 -1.2272  0.2263
  374MOL0     C50366   3.430  11.172  10.081  0.2899  0.0100 -0.5367
  374MOL0     C50367   3.336  11.148  10.202  0.0066 -0.2724  0.6559
  374MOL0     C50368   3.192  11.151  10.148 -0.3324  0.3748  0.1926
  374MOL0     C50369   3.089  11.136  10.265 -0.8646 -0.3426 -0.5062
  374MOL0     C50370   2.937  11.157  10.232  0.9987 -0.7518  0.0566
  374MOL0     C50371   2.857  11.173  10.367  0.3581  0.5746  0.0649
  374MOL0     N50372   2.720  11.207  10.330  0.7773 -0.1564  0.2723
  374MOL0     C50373   2.646  11.163  10.223 -0.7065 -0.1305 -0.3367
  374MOL0     C50374   2.548  11.259  10.209  0.6746 -0.1139 -0.3189
  374MOL0     C50375   2.432  11.250  10.112 -0.0832 -0.2576  0.7466
  374MOL0     C50376   2.295  11.279  10.175  0.0858 -0.6065 -0.6845
  374MOL0     C50377   2.191  11.270  10.054 -0.4556 -0.2623  0.6682
  374MOL0     C50378   2.045  11.294  10.096  0.1903 -1.0221  0.0965
  374MOL0     O50379   1.951  11.268   9.994 -0.1405  1.1164 -0.4369
  374MOL0     C50380   1.826  11.328  10.001  0.0350  0.1815  0.0720
  374MOL0     C50381   1.769  11.373   9.884 -0.0677 -0.1077 -0.5135
  374MOL0     C50382   1.637  11.409   9.879  0.3378 -0.2849 -0.3148
  374MOL0     C50383   1.573  11.445   9.746  0.7208  0.8688  0.0492
  374MOL0     C50384   1.567  11.434   9.995  0.1667 -0.4059  0.0025
  374MOL0     C50385   1.434  11.488  10.007  1.0298  0.8440  0.4229
  374MOL0     O50386   1.418  11.569  10.118 -0.8934 -0.1570  0.3684
  374MOL0     C50387   1.293  11.590  10.172 -0.5822  0.1428 -0.2036
  374MOL0     C50388   1.215  11.692  10.127  0.6239 -0.7710  0.7283
  374MOL0     C50389   1.084  11.726  10.185 -0.8636 -0.7426 -0.0658
  374MOL0     C50390   1.030  11.644  10.289 -0.8307 -0.1495 -0.5353
  374MOL0     O50391   0.914  11.667  10.349 -0.3136 -0.5176 -0.4023
  374MOL0     C50392   0.843  11.789  10.339  0.4106  0.2542  0.0012
  374MOL0     C50393   0.749  11.780  10.214 -0.0606 -0.3294 -0.3147
  374MOL0     C50394   0.671  11.912  10.201 -0.0240 -0.0459 -0.5436
  374MOL0     C50395   0.759  12.020  10.134  0.5875  0.5226 -0.1415
  374MOL0     C50396   0.686  12.145  10.097 -0.1388 -0.2737  0.1484
  374MOL0     C50397   0.621  12.211  10.221  0.8278 -0.2490 -0.2333
  374MOL0     C50398   0.577  12.347  10.193 -0.6094  0.5774 -0.2608
  374MOL0     C50399   0.571  12.420  10.328 -0.0106 -0.9950  0.0914
  374MOL0    Cl50400   0.734  12.476  10.374 -0.4447  0.0186 -0.1041
  374MOL0     C50401   1.121  11.546  10.336 -0.5667  0.6461 -0.1950
  374MOL0     C50402   1.245  11.519  10.280 -0.9519  0.4020 -0.3156
  374MOL0     O50403   1.341  11.444   9.939  0.2860 -0.3502  0.7713
  374MOL0     C50404   1.626  11.397  10.118 -0.2275  0.9689  0.2191
  374MOL0     C50405   1.754  11.345  10.119  0.1804 -0.5997 -0.1032
  374MOL0     N50406   2.564  11.366  10.297 -0.2139  0.3435  0.4346
  374MOL0     N50407   2.660  11.329  10.371  0.5160  0.3881 -0.0905
  374MOL0     C50408   3.743  10.889   9.829  0.0511 -0.0906 -0.3481
  374MOL0     C50409   3.878  10.934   9.804  0.2445  0.2955 -1.2352
  374MOL0     C50410   4.328  11.024   9.905 -0.1558  0.0301  0.6277
  374MOL0     C50411   4.340  11.153   9.839 -0.0024  0.0886 -0.0636
  374MOL0     C50412   4.461  11.214   9.831 -0.2493 -0.9753  0.2502
  374MOL0     C50413   4.579  11.164   9.866 -0.1706 -0.0298  0.1892
  374MOL0     O50414   4.695  11.236   9.854 -0.7647 -0.3567 -0.5576
  374MOL0     C50415   4.810  11.204   9.937  0.4165  0.0158 -0.1464
  374MOL0     C50416   4.916  11.312   9.924 -0.9974  0.2308 -0.2608
  374MOL0     C50417   5.034  11.285  10.026 -1.0100 -0.7043 -0.1531
  374MOL0     C50418   5.154  11.368   9.987  0.8192 -0.0200 -0.1971
  374MOL0     C50419   5.133  11.507   9.940 -0.9096 -0.3384 -0.5162
  374MOL0     C50420   5.105  11.624   9.918 -0.0824 -0.4424  0.9766
  374MOL0     C50421   4.571  11.034   9.920  0.0485 -0.4359 -0.4548
  374MOL0     C50422   4.454  10.968   9.946  0.9102 -0.2106 -0.5749
  374MOL0     H50423   4.001  10.914  10.117 -0.3970  2.7284 -0.7005
  374MOL0     H50424   3.776  10.855  10.164 -0.8519 -2.8709 -0.2416
  374MOL0     H50425   3.442  10.859  10.123  0.2530  1.0666  1.7299
  374MOL0     H50426   3.578  10.968  10.162 -0.1177 -0.3753  0.3028
  374MOL0     H50427   3.538  11.077   9.933 -0.9739 -0.3773  1.0475
  374MOL0     H50428   3.376  10.995   9.939  0.6995 -1.2601 -2.7339
  374MOL0     H50429   3.528  11.211  10.110 -0.0351 -0.0747  0.7482
  374MOL0     H50430   3.387  11.245  10.012 -2.5452 -0.5446  0.4852
  374MOL0     H50431   3.350  11.045  10.236 -1.1495 -1.0342 -1.0536
  374MOL0     H50432   3.350  11.216  10.286  0.3941  0.5470 -0.0507
  374MOL0     H50433   3.170  11.242  10.091 -0.2080 -0.0032 -0.4696
  374MOL0     H50434   3.172  11.069  10.078 -1.7170  1.9657 -1.3580
  374MOL0     H50435   3.094  11.045  10.325 -1.6140 -0.7260 -1.0070
  374MOL0     H50436   3.113  11.218  10.333  0.8827 -2.8801  2.1422
  374MOL0     H50437   2.931  11.249  10.173 -0.8774 -0.5263  0.5395
  374MOL0     H50438   2.898  11.072  10.175  0.4582 -1.0168  0.8143
  374MOL0     H50439   2.900  11.238  10.444 -1.5565  0.0864  1.6274
  374MOL0     H50440   2.860  11.073  10.410  0.8457  0.0308 -1.1810
  374MOL0     H50441   2.665  11.083  10.153  0.5499  0.2478 -0.4420
  374MOL0     H50442   2.438  11.317  10.026  2.2619 -0.8763  0.3626
  374MOL0     H50443   2.435  11.151  10.065  2.1686  0.4623 -0.8124
  374MOL0     H50444   2.303  11.377  10.224 -2.7913  0.0940 -1.4360
  374MOL0     H50445   2.279  11.205  10.254 -0.5257  1.4875  1.2599
  374MOL0     H50446   2.205  11.173  10.005  1.1997 -0.9542  2.4049
  374MOL0     H50447   2.218  11.344   9.979  1.8225  1.1363  2.7267
  374MOL0     H50448   2.031  11.398  10.128 -3.2072 -1.5874  0.8103
  374MOL0     H50449   2.010  11.238  10.183 -1.0905 -0.1530  0.1681
  374MOL0     H50450   1.844  11.374   9.806  0.1622  1.9000 -0.3044
  374MOL0     H50451   1.495  11.521   9.747 -0.1970  0.0115 -2.1488
  374MOL0     H50452   1.641  11.470   9.664 -1.3720  1.9992 -1.4131
  374MOL0     H50453   1.518  11.356   9.715 -0.9302  1.4295  1.2134
  374MOL0     H50454   1.252  11.743  10.039  1.0097  0.1395  1.4034
  374MOL0     H50455   1.028  11.816  10.164  1.7064  2.6502  5.2974
  374MOL0     H50456   0.782  11.814  10.426 -0.6952  5.1346 -1.8463
  374MOL0     H50457   0.907  11.876  10.325 -1.7662  1.9452 -0.0617
  374MOL0     H50458   0.806  11.748  10.126 -2.4191 -0.5277 -1.8685
  374MOL0     H50459   0.673  11.703  10.232 -0.3915 -1.1332 -4.2694
  374MOL0     H50460   0.632  11.940  10.299  1.3010  0.4867 -0.1532
  374MOL0     H50461   0.580  11.887  10.146  0.5828 -0.3877 -1.4250
  374MOL0     H50462   0.850  12.043  10.191  0.4362 -1.5765  1.0357
  374MOL0     H50463   0.789  11.974  10.040  1.1132  0.0741  0.2400
  374MOL0     H50464   0.623  12.138  10.008  3.5144  1.4968 -2.8965
  374MOL0     H50465   0.762  12.219  10.070 -1.6523  1.0455 -0.6353
  374MOL0     H50466   0.541  12.157  10.272  0.5141  1.3386  1.0525
  374MOL0     H50467   0.696  12.208  10.301 -0.8459 -5.5913  1.5720
  374MOL0     H50468   0.480  12.360  10.145 -0.1003  5.4301 -0.4235
  374MOL0     H50469   0.650  12.391  10.125  0.1848 -0.4192 -0.0848
  374MOL0     H50470   0.519  12.363  10.405 -0.1265 -1.9276 -0.6601
  374MOL0     H50471   0.512  12.512  10.315 -1.1731 -1.4603  1.7808
  374MOL0     H50472   1.080  11.475  10.407 -0.2129  0.8961  0.2584
  374MOL0     H50473   1.309  11.439  10.316  1.2129  2.3669  0.4055
  374MOL0     H50474   1.562  11.402  10.206 -0.3962 -0.2095  0.1751
  374MOL0     H50475   1.801  11.304  10.208  1.1257  0.1688 -0.2289
  374MOL0     H50476   3.673  10.883   9.746  0.0335 -2.0594 -0.2207
  374MOL0     H50477   3.911  10.963   9.706  2.6326  1.0928 -0.2547
  374MOL0     H50478   4.246  11.181   9.792 -0.1080  0.1067  0.1592
  374MOL0     H50479   4.462  11.312   9.786 -0.5037 -0.0740  2.1205
  374MOL0     H50480   4.768  11.198  10.037  0.9499 -0.5710  0.0462
  374MOL0     H50481   4.856  11.107   9.916  3.5060  0.7295  2.5535
  374MOL0     H50482   4.871  11.407   9.954  1.5828  0.6642  2.8040
  374MOL0     H50483   4.958  11.325   9.824 -1.5513  1.1966 -0.3795
  374MOL0     H50484   5.062  11.180  10.037  2.9623 -0.0286 -1.9910
  374MOL0     H50485   4.998  11.329  10.120  0.5705  0.1578  0.0882
  374MOL0     H50486   5.194  11.313   9.901 -0.6211  2.5633 -2.6663
  374MOL0     H50487   5.224  11.359  10.071  2.6452 -3.5267 -1.8758
  374MOL0     H50488   5.096  11.729   9.898  0.0555 -0.4084  1.0874
  374MOL0     H50489   4.661  10.982   9.952  0.3135  0.6394  0.6154
  374MOL0     H50490   4.458  10.873   9.999 -1.4532  0.2161  0.5245
  375MOL0     O50491   6.267  10.272   6.863 -0.7118  0.2928 -0.0772
  375MOL0     C50492   6.310  10.372   6.808  0.4794 -0.7038  0.6104
  375MOL0     O50493   6.234  10.486   6.775  0.1546  0.1628  0.2081
  375MOL0     C50494   6.107  10.508   6.829 -0.4972 -0.2465  0.6720
  375MOL0     C50495   6.009  10.402   6.836  0.0755  0.4578 -0.0252
  375MOL0     C50496   5.891  10.422   6.907 -0.5358  0.3795 -1.0620
  375MOL0     C50497   5.868  10.548   6.971 -0.2480  1.0610 -0.2384
  375MOL0     O50498   5.770  10.542   7.076 -0.3841 -0.6962  0.8220
  375MOL0     C50499   5.682  10.662   7.074 -0.2611 -0.3415  0.2152
  375MOL0     C50500   5.572  10.667   6.963 -0.4608 -0.0975 -0.5944
  375MOL0     C50501   5.518  10.801   6.945  0.3626  0.1102  1.0301
  375MOL0     C50502   5.419  10.850   7.048 -0.6220 -0.5304 -0.1827
  375MOL0     C50503   5.335  10.969   6.987 -0.1241  0.5953  0.4813
  375MOL0     C50504   5.267  11.057   7.093 -0.9528 -0.8648 -0.3054
  375MOL0     C50505   5.161  10.994   7.187  0.1101  0.2209  0.0006
  375MOL0     C50506   5.136  11.102   7.299  0.5643 -0.2034 -0.1823
  375MOL0     N50507   5.007  11.104   7.373  0.4638  0.1194 -0.3911
  375MOL0     C50508   4.912  11.201   7.380  1.1619  0.4720 -0.1425
  375MOL0     C50509   4.813  11.153   7.478 -0.2450 -0.1801 -0.0191
  375MOL0     C50510   4.702  11.242   7.534 -0.4680  0.1113 -0.7523
  375MOL0     C50511   4.664  11.209   7.676  0.3853 -0.3141 -0.3697
  375MOL0     C50512   4.788  11.227   7.773  0.0334  0.3524 -0.2100
  375MOL0     C50513   4.752  11.216   7.920 -0.4255 -0.3169  0.2042
  375MOL0     O50514   4.668  11.325   7.965 -0.8545  0.0845 -0.2150
  375MOL0     C50515   4.530  11.305   7.973  0.3323 -0.1089  1.1641
  375MOL0     C50516   4.463  11.196   8.034  0.4280  0.6567  0.4591
  375MOL0     C50517   4.320  11.193   8.042 -0.9128 -0.1193  0.3519
  375MOL0     C50518   4.263  11.076   8.103 -0.3230  0.2437 -0.4148
  375MOL0     C50519   4.250  11.305   7.993  0.8787 -0.5254  0.9152
  375MOL0     C50520   4.101  11.314   7.976  0.4087  0.8007  0.8383
  375MOL0     O50521   4.030  11.204   7.943 -0.6699 -0.4603  1.0121
  375MOL0     C50522   3.897  11.211   7.947  0.8815 -0.8656  1.0346
  375MOL0     C50523   3.815  11.288   8.026 -0.2938 -0.1096  0.2918
  375MOL0     C50524   3.677  11.287   8.027 -0.1476  0.0892  0.1998
  375MOL0     C50525   3.607  11.187   7.948  0.0624 -0.5324 -0.4797
  375MOL0     O50526   3.462  11.187   7.965 -0.6681  0.2441 -0.6086
  375MOL0     C50527   3.407  11.061   7.919  0.5169 -0.9030 -0.6043
  375MOL0     C50528   3.266  11.044   7.978  0.8347  0.0867  0.9432
  375MOL0     C50529   3.215  10.908   7.929  0.2911 -0.9715  0.2099
  375MOL0     C50530   3.070  10.898   7.982 -0.7199  0.9001  0.2507
  375MOL0     C50531   3.010  10.760   7.938 -0.1064 -0.2364  0.2880
  375MOL0     C50532   2.891  10.714   8.023 -0.1371  0.8029 -0.3087
  375MOL0     C50533   2.937  10.604   8.123  0.1723  0.2663 -0.2950
  375MOL0     C50534   2.835  10.593   8.242 -0.4062 -1.1993 -0.4555
  375MOL0    Cl50535   2.814  10.748   8.326 -0.0899 -0.0005 -0.4744
  375MOL0     C50536   3.683  11.111   7.864 -0.1788 -0.0485  0.6193
  375MOL0     C50537   3.826  11.122   7.856  0.3710  0.1826 -0.7563
  375MOL0     O50538   4.053  11.425   7.981 -0.3374  0.1123  0.0628
  375MOL0     C50539   4.316  11.399   7.925  0.4053 -0.7560  0.0092
  375MOL0     C50540   4.450  11.407   7.918 -0.0025 -0.0749  0.2445
  375MOL0     N50541   4.865  11.029   7.526  0.5344  0.2113  0.0737
  375MOL0     N50542   4.974  11.000   7.452  0.2136  0.7059  0.3941
  375MOL0     C50543   5.968  10.647   6.971 -0.3624  0.0913  0.9061
  375MOL0     C50544   6.081  10.632   6.889 -0.3802 -1.1551  0.2667
  375MOL0     C50545   6.437  10.357   6.739 -0.7876  0.5182 -0.3923
  375MOL0     C50546   6.505  10.239   6.748 -0.8325  0.0693 -0.4521
  375MOL0     C50547   6.626  10.222   6.682  1.4316 -0.8558 -1.0948
  375MOL0     C50548   6.691  10.318   6.600  0.1162  0.2661 -0.2431
  375MOL0     O50549   6.808  10.298   6.541  0.0225 -0.3279 -0.3627
  375MOL0     C50550   6.806  10.244   6.406  0.1470  1.1093 -0.9140
  375MOL0     C50551   6.938  10.283   6.333  1.0216  0.4675 -0.1005
  375MOL0     C50552   7.051  10.209   6.409 -0.6498  0.1527  0.7920
  375MOL0     C50553   7.180  10.241   6.340  0.8528 -0.4772  0.0423
  375MOL0     C50554   7.285  10.183   6.415  0.0287 -0.1959  0.4690
  375MOL0     C50555   7.376  10.137   6.480 -0.4672  0.3300 -0.6199
  375MOL0     C50556   6.625  10.448   6.609 -0.2190  0.6491  0.4236
  375MOL0     C50557   6.507  10.463   6.685  0.0892 -0.2201 -0.0867
  375MOL0     H50558   6.016  10.315   6.772  2.1445  1.0823 -0.7059
  375MOL0     H50559   5.810  10.350   6.909  0.2621 -0.5433  1.5548
  375MOL0     H50560   5.626  10.652   7.167 -1.5414 -1.1746 -0.6086
  375MOL0     H50561   5.731  10.760   7.075 -2.5986  0.9616 -1.3066
  375MOL0     H50562   5.625  10.633   6.873 -1.1514 -2.1716 -0.2836
  375MOL0     H50563   5.496  10.594   6.991 -0.2192 -1.3355 -2.8698
  375MOL0     H50564   5.596  10.872   6.913 -2.1114  1.8700 -1.7081
  375MOL0     H50565   5.461  10.796   6.851  0.2062 -1.4269  1.1859
  375MOL0     H50566   5.344  10.777   7.079  0.1258 -0.3213  2.2900
  375MOL0     H50567   5.476  10.883   7.135  0.9887 -0.6678 -1.1484
  375MOL0     H50568   5.395  11.036   6.925  0.5682 -0.2986  0.1726
  375MOL0     H50569   5.258  10.917   6.929  0.1169 -0.7684  1.3422
  375MOL0     H50570   5.353  11.093   7.151  0.9810  0.6181 -3.8101
  375MOL0     H50571   5.224  11.141   7.038 -0.7673 -2.2356 -2.6582
  375MOL0     H50572   5.074  10.969   7.126 -1.4210 -3.9150  3.3249
  375MOL0     H50573   5.217  10.908   7.226  2.1379  0.8951 -1.2432
  375MOL0     H50574   5.144  11.196   7.244 -0.3409  0.5463  0.9372
  375MOL0     H50575   5.218  11.089   7.370  1.5767 -0.3041 -1.3213
  375MOL0     H50576   4.905  11.284   7.311  0.9998  2.3927  2.0993
  375MOL0     H50577   4.741  11.343   7.522 -1.4681  0.6617  0.4742
  375MOL0     H50578   4.612  11.227   7.474 -0.5959  1.3469 -0.8815
  375MOL0     H50579   4.623  11.107   7.670 -1.1752  0.3612 -2.2259
  375MOL0     H50580   4.578  11.268   7.708 -0.4222 -0.9367 -1.3266
  375MOL0     H50581   4.829  11.327   7.759  1.1021 -0.0540 -0.0785
  375MOL0     H50582   4.871  11.158   7.753  0.7172 -0.2065  3.8059
  375MOL0     H50583   4.850  11.222   7.969  0.4547 -0.8114 -1.4344
  375MOL0     H50584   4.722  11.115   7.949  0.3758 -0.1806  1.5972
  375MOL0     H50585   4.518  11.111   8.073  2.4964  1.7387  0.0698
  375MOL0     H50586   4.163  11.095   8.143 -0.1450 -0.7971  0.5756
  375MOL0     H50587   4.249  10.998   8.027  0.2916  0.3052 -0.5978
  375MOL0     H50588   4.322  11.037   8.186 -1.0530 -1.2574 -0.5794
  375MOL0     H50589   3.859  11.364   8.090  2.2680  1.7576 -3.3069
  375MOL0     H50590   3.626  11.362   8.086  2.4612  1.2340  1.1632
  375MOL0     H50591   3.400  11.058   7.809  1.8569 -2.2149 -0.6889
  375MOL0     H50592   3.457  10.968   7.948 -0.1252 -0.9959  0.2366
  375MOL0     H50593   3.264  11.045   8.088 -0.6349 -0.1617  0.9300
  375MOL0     H50594   3.210  11.132   7.946 -0.7781 -1.5710 -1.0194
  375MOL0     H50595   3.280  10.828   7.967 -0.7933 -1.5625  0.8827
  375MOL0     H50596   3.205  10.913   7.820  3.0366  0.2291 -0.0558
  375MOL0     H50597   3.066  10.900   8.091 -2.2424 -2.6786  0.3937
  375MOL0     H50598   3.019  10.988   7.947 -1.6017  0.9907  1.6854
  375MOL0     H50599   3.088  10.686   7.957  1.4266  1.7592  2.5248
  375MOL0     H50600   2.982  10.761   7.833  1.4203 -0.1095 -0.1323
  375MOL0     H50601   2.858  10.801   8.080  4.1642  1.8367  0.9663
  375MOL0     H50602   2.809  10.669   7.965 -0.6290  1.6295 -0.2648
  375MOL0     H50603   3.035  10.626   8.167 -0.4454  3.9874 -0.3833
  375MOL0     H50604   2.938  10.505   8.078 -0.6193 -1.1231  2.5340
  375MOL0     H50605   2.869  10.518   8.314  1.9370  0.7914  0.6720
  375MOL0     H50606   2.732  10.574   8.211 -1.0645  2.4225 -0.9960
  375MOL0     H50607   3.624  11.039   7.806  0.4129 -0.0382 -0.0170
  375MOL0     H50608   3.886  11.069   7.784 -1.9303 -0.8146 -2.0490
  375MOL0     H50609   4.261  11.483   7.885 -1.0009 -1.4379  0.4526
  375MOL0     H50610   4.502  11.488   7.867 -1.0810 -0.5019 -1.6157
  375MOL0     H50611   5.957  10.743   7.020  1.5750  1.8087 -1.7320
  375MOL0     H50612   6.141  10.723   6.878 -1.3273 -0.7882 -2.4092
  375MOL0     H50613   6.470  10.146   6.792  1.6020  0.1856  2.0326
  375MOL0     H50614   6.672  10.124   6.682  3.5051 -0.0059  1.3376
  375MOL0     H50615   6.799  10.135   6.420  0.0030  0.9971 -1.7872
  375MOL0     H50616   6.715  10.276   6.354  0.6619  2.5687 -0.9488
  375MOL0     H50617   6.963  10.389   6.344 -0.3958  1.0446 -2.1247
  375MOL0     H50618   6.931  10.256   6.228 -0.9739  0.0710  0.1077
  375MOL0     H50619   7.036  10.101   6.402  2.5920 -0.3883  0.7855
  375MOL0     H50620   7.063  10.256   6.507 -1.0973  1.8531  0.0665
  375MOL0     H50621   7.196  10.349   6.332 -1.1847 -0.0137  1.5376
  375MOL0     H50622   7.171  10.200   6.239 -1.1924  2.8818 -1.3168
  375MOL0     H50623   7.451  10.089   6.540 -1.9815  0.2243  1.2820
  375MOL0     H50624   6.663  10.526   6.544  1.5968 -1.1257 -0.7694
  375MOL0     H50625   6.459  10.560   6.684  0.8891  0.1847 -0.1195
  376MOL0     O50626   3.184   8.122   5.402 -0.5750  0.6939  0.2722
  376MOL0     C50627   3.135   8.012   5.379  0.3796 -0.0301 -0.5238
  376MOL0     O50628   2.998   7.986   5.357  0.0281 -0.4417 -0.0526
  376MOL0     C50629   2.917   8.095   5.322  0.1916  0.3658 -0.3767
  376MOL0     C50630   2.924   8.226   5.382  0.2153  0.4634 -0.0621
  376MOL0     C50631   2.839   8.325   5.340 -0.2091 -0.5538  0.9279
  376MOL0     C50632   2.743   8.305   5.234  0.8102 -0.0501  0.6488
  376MOL0     O50633   2.654   8.403   5.200 -0.4972 -0.9847  0.1752
  376MOL0     C50634   2.515   8.381   5.234 -0.0334  0.0304 -0.6957
  376MOL0     C50635   2.433   8.506   5.210  1.1515  0.4067 -0.0577
  376MOL0     C50636   2.294   8.495   5.266 -0.2663 -0.5074  0.4950
  376MOL0     C50637   2.200   8.601   5.205 -0.3516  0.2293  0.1872
  376MOL0     C50638   2.212   8.746   5.266 -0.3972  0.1954  0.1384
  376MOL0     C50639   2.096   8.840   5.218  0.6307 -0.0472  0.3176
  376MOL0     C50640   1.970   8.780   5.136  0.1705 -0.0905 -0.1545
  376MOL0     C50641   1.864   8.883   5.108 -0.5146 -0.9818  0.0895
  376MOL0     N50642   1.808   8.942   5.229  0.1387 -0.5930 -0.2467
  376MOL0     C50643   1.741   8.874   5.321  0.3773 -0.4836 -0.7704
  376MOL0     C50644   1.700   8.972   5.416 -0.2088  0.3836  0.2506
  376MOL0     C50645   1.636   8.940   5.550  0.2093 -0.6861 -0.1135
  376MOL0     C50646   1.530   8.842   5.532 -0.1580  0.0441 -0.2792
  376MOL0     C50647   1.446   8.819   5.662 -0.6714 -0.5776  0.2955
  376MOL0     C50648   1.336   8.725   5.631  1.5606 -0.2526  0.0421
  376MOL0     O50649   1.231   8.784   5.550  0.0250 -0.5094  0.3537
  376MOL0     C50650   1.111   8.818   5.604  0.2095  0.4235 -0.0231
  376MOL0     C50651   1.003   8.806   5.511  0.5213  1.0326  1.0095
  376MOL0     C50652   0.868   8.843   5.538  0.2650 -0.1389 -0.5433
  376MOL0     C50653   0.770   8.831   5.424  0.1015 -0.1125  0.0177
  376MOL0     C50654   0.845   8.890   5.679 -0.1837  0.1578 -0.6200
  376MOL0     C50655   0.708   8.944   5.718  0.1527  0.9419 -0.3333
  376MOL0     O50656   0.704   9.005   5.840 -0.7090  0.7378  0.1819
  376MOL0     C50657   0.584   9.024   5.892  0.6077  0.8003 -0.4742
  376MOL0     C50658   0.518   9.146   5.876 -0.4692  0.9278  0.0787
  376MOL0     C50659   0.383   9.157   5.923  0.0894 -0.7313 -0.2443
  376MOL0     C50660   0.324   9.051   6.006  0.9914  0.6027  1.2102
  376MOL0     O50661   0.204   9.049   6.069 -0.6671 -0.5795 -0.1970
  376MOL0     C50662   0.121   9.158   6.036 -0.3154 -0.3249  0.4199
  376MOL0     C50663  -0.015   9.123   6.090  0.8153 -1.0874  0.5231
  376MOL0     C50664  -0.064   8.988   6.047 -0.2261 -0.0742  0.7174
  376MOL0     C50665  -0.114   8.980   5.898 -0.7385  1.1567 -0.6522
  376MOL0     C50666  -0.132   8.830   5.844 -0.2292  1.0428 -0.3445
  376MOL0     C50667  -0.210   8.726   5.945  0.6933  0.2071  0.0553
  376MOL0     C50668  -0.201   8.571   5.906  0.3149 -0.4530 -0.4581
  376MOL0     C50669  -0.289   8.544   5.789 -0.8405 -0.5048  0.9014
  376MOL0    Cl50670  -0.464   8.565   5.812 -0.0874 -0.2516  0.5328
  376MOL0     C50671   0.408   8.940   6.025  0.4462  0.1113 -0.3617
  376MOL0     C50672   0.533   8.924   5.971  0.0379 -0.1132 -0.2726
  376MOL0     O50673   0.609   8.939   5.644 -0.6052  0.0187 -0.3925
  376MOL0     C50674   0.952   8.882   5.779  0.3198  0.1057  0.4846
  376MOL0     C50675   1.079   8.834   5.737 -0.2614 -0.6994  0.9899
  376MOL0     N50676   1.734   9.094   5.368  0.8156 -0.2592 -0.5170
  376MOL0     N50677   1.809   9.074   5.264  0.2004  0.1006  0.6844
  376MOL0     C50678   2.733   8.175   5.173  0.3544  0.1643 -0.2435
  376MOL0     C50679   2.826   8.077   5.220  0.0922 -0.2199 -0.2816
  376MOL0     C50680   3.231   7.894   5.392 -0.2065  0.0207 -0.1460
  376MOL0     C50681   3.189   7.756   5.376  0.2041 -0.4613 -0.6794
  376MOL0     C50682   3.277   7.650   5.396  0.0635  0.2082  0.2179
  376MOL0     C50683   3.413   7.680   5.428 -0.0515 -0.5754 -0.1728
  376MOL0     O50684   3.508   7.591   5.442 -0.6308 -0.0622  0.1314
  376MOL0     C50685   3.488   7.448   5.426 -1.0769 -0.4558 -0.0708
  376MOL0     C50686   3.615   7.391   5.484  0.1089  0.8867 -0.1179
  376MOL0     C50687   3.741   7.444   5.403  0.0483  0.4785  0.2305
  376MOL0     C50688   3.870   7.381   5.447  0.1254  0.8005 -0.0356
  376MOL0     C50689   3.970   7.407   5.344 -1.4385 -0.6442  0.6705
  376MOL0     C50690   4.065   7.422   5.261  0.2189 -0.5244 -0.9124
  376MOL0     C50691   3.454   7.814   5.445  0.4785 -0.4269 -0.3850
  376MOL0     C50692   3.363   7.915   5.433 -0.0537  0.9446  1.3989
  376MOL0     H50693   2.994   8.239   5.465  0.0513  1.1673 -0.0321
  376MOL0     H50694   2.848   8.427   5.376 -0.3891 -0.0944 -0.2630
  376MOL0     H50695   2.480   8.298   5.173  3.3049 -0.3430 -2.3328
  376MOL0     H50696   2.504   8.355   5.340  1.1186  2.2902  0.0411
  376MOL0     H50697   2.472   8.585   5.276 -0.3327 -0.8798  2.5222
  376MOL0     H50698   2.416   8.535   5.106 -0.5962  0.9465  0.3401
  376MOL0     H50699   2.256   8.399   5.228  0.2005  0.2770 -2.1764
  376MOL0     H50700   2.291   8.502   5.375 -1.6350  2.6001  0.3754
  376MOL0     H50701   2.215   8.611   5.098  4.3684  0.7996  0.6829
  376MOL0     H50702   2.099   8.564   5.229 -0.9065  1.4801 -0.1584
  376MOL0     H50703   2.191   8.739   5.373 -0.0903 -0.7638  0.1541
  376MOL0     H50704   2.314   8.780   5.243 -1.1406  0.8269 -2.6741
  376MOL0     H50705   2.077   8.896   5.310  0.9835  0.2039  0.2420
  376MOL0     H50706   2.136   8.917   5.151  1.0193  1.0103  1.7234
  376MOL0     H50707   1.991   8.742   5.035 -1.1050  1.9900 -1.2888
  376MOL0     H50708   1.926   8.706   5.202 -0.6502  2.0952  1.8879
  376MOL0     H50709   1.780   8.844   5.050  0.5822 -2.9121 -0.3056
  376MOL0     H50710   1.901   8.954   5.033  0.2421 -3.5555 -2.1402
  376MOL0     H50711   1.745   8.767   5.338  2.8516 -0.2445  0.7233
  376MOL0     H50712   1.709   8.905   5.624 -0.8077 -0.4564  1.0154
  376MOL0     H50713   1.595   9.035   5.585  0.0431  0.0282 -2.0898
  376MOL0     H50714   1.559   8.743   5.496 -0.7450 -0.7113  1.2049
  376MOL0     H50715   1.466   8.881   5.453 -1.7542  0.6075  1.2328
  376MOL0     H50716   1.411   8.914   5.705 -2.0870  0.0502 -1.9907
  376MOL0     H50717   1.515   8.773   5.732  2.5747  2.7246 -0.4203
  376MOL0     H50718   1.296   8.670   5.717 -0.1950 -0.7315 -1.0177
  376MOL0     H50719   1.378   8.646   5.568  1.6827  0.3312 -0.6270
  376MOL0     H50720   1.029   8.769   5.412 -2.1582 -1.1145  0.9757
  376MOL0     H50721   0.811   8.753   5.360  0.2833 -0.5124  0.6107
  376MOL0     H50722   0.677   8.785   5.460 -1.0632 -0.3403 -3.0244
  376MOL0     H50723   0.765   8.931   5.379  1.7180  0.5784  1.2664
  376MOL0     H50724   0.571   9.223   5.822 -0.9882  1.1731 -0.0930
  376MOL0     H50725   0.332   9.251   5.902  2.4257  0.3629 -1.3518
  376MOL0     H50726   0.159   9.249   6.084 -1.1124 -0.3835  1.1857
  376MOL0     H50727   0.113   9.170   5.927  3.7585 -1.0625 -0.1089
  376MOL0     H50728  -0.012   9.135   6.199  1.0925  1.2426  0.2945
  376MOL0     H50729  -0.078   9.199   6.044  0.1795 -1.9383 -0.0378
  376MOL0     H50730  -0.151   8.972   6.112 -0.0919 -0.5229  0.7890
  376MOL0     H50731   0.014   8.913   6.062 -0.6253 -0.8801 -1.0023
  376MOL0     H50732  -0.218   9.013   5.899 -1.4532 -0.9299  0.4077
  376MOL0     H50733  -0.043   9.036   5.837 -0.1885  1.0450 -0.1337
  376MOL0     H50734  -0.030   8.791   5.831 -0.7134  0.3200 -2.4457
  376MOL0     H50735  -0.180   8.842   5.746 -0.7983  0.2368 -0.1750
  376MOL0     H50736  -0.156   8.745   6.038 -1.2154  0.5539  1.1627
  376MOL0     H50737  -0.314   8.758   5.955  1.5782  2.8970  1.4401
  376MOL0     H50738  -0.233   8.508   5.989  0.1337 -0.3288 -0.4330
  376MOL0     H50739  -0.097   8.542   5.884  0.6648 -1.0872  1.8120
  376MOL0     H50740  -0.267   8.447   5.744  0.0950 -0.0949  0.4325
  376MOL0     H50741  -0.266   8.609   5.704 -1.3520 -0.6661  0.6382
  376MOL0     H50742   0.370   8.865   6.094  2.7690 -0.9840 -0.1718
  376MOL0     H50743   0.582   8.829   5.991  0.6034  0.7835  3.1269
  376MOL0     H50744   0.925   8.901   5.882 -1.3106  1.3489 -0.1441
  376MOL0     H50745   1.149   8.831   5.819  0.7151  0.0745  0.2099
  376MOL0     H50746   2.674   8.147   5.087 -0.1033 -2.2718  0.7640
  376MOL0     H50747   2.821   7.973   5.191 -0.8118 -0.9042  2.0619
  376MOL0     H50748   3.088   7.719   5.361 -0.3039 -0.8350  2.7946
  376MOL0     H50749   3.238   7.549   5.388  0.4510 -0.0457  1.3322
  376MOL0     H50750   3.397   7.419   5.480 -0.9187  0.1965  0.5724
  376MOL0     H50751   3.471   7.417   5.323 -1.2422  3.6557 -1.4710
  376MOL0     H50752   3.614   7.284   5.462 -0.4039  1.2982 -2.2887
  376MOL0     H50753   3.625   7.416   5.590  1.8673 -0.2689  0.0304
  376MOL0     H50754   3.746   7.552   5.414 -0.8606  0.4413  1.1542
  376MOL0     H50755   3.738   7.413   5.298  3.6170 -2.3463  0.7795
  376MOL0     H50756   3.856   7.273   5.454  0.1693  0.9146  3.2812
  376MOL0     H50757   3.897   7.422   5.545  0.1447 -0.4085  0.4798
  376MOL0     H50758   4.144   7.416   5.189  0.7822  2.0524 -0.5957
  376MOL0     H50759   3.559   7.839   5.460  0.4652 -0.4585 -0.2393
  376MOL0     H50760   3.407   8.013   5.448  0.3758  1.4175 -2.1972
  377MOL0     O50761   0.412   0.483   5.532  0.0710  0.1005  0.2582
  377MOL0     C50762   0.398   0.380   5.476 -0.5780 -0.0221 -0.4782
  377MOL0     O50763   0.286   0.343   5.404  0.1707 -0.0753 -0.8652
  377MOL0     C50764   0.177   0.421   5.383  0.0978  0.3902 -0.2827
  377MOL0     C50765   0.116   0.504   5.487  0.3451 -0.0354 -0.4666
  377MOL0     C50766  -0.004   0.568   5.468  0.9340 -0.5597 -0.0586
  377MOL0     C50767  -0.066   0.545   5.341  0.5456  0.7775 -0.0286
  377MOL0     O50768  -0.194   0.589   5.314 -0.4396 -0.3410 -0.2953
  377MOL0     C50769  -0.279   0.630   5.420  0.4321 -0.0461  0.1041
  377MOL0     C50770  -0.420   0.636   5.359 -0.9823  0.9892 -0.4000
  377MOL0     C50771  -0.530   0.657   5.460  0.2435  0.7559 -0.4625
  377MOL0     C50772  -0.667   0.602   5.409  0.1602 -0.1638 -0.8629
  377MOL0     C50773  -0.749   0.693   5.318 -0.1627 -0.4687  0.2666
  377MOL0     C50774  -0.846   0.630   5.227 -0.2182 -0.2764  0.0199
  377MOL0     C50775  -0.930   0.521   5.296 -0.5657 -0.0237 -0.2415
  377MOL0     C50776  -1.025   0.570   5.413  0.3186  0.6958  1.4333
  377MOL0     N50777  -1.097   0.684   5.367  0.7897  0.5747 -0.4683
  377MOL0     C50778  -1.196   0.672   5.274 -0.0536 -0.3394 -0.9546
  377MOL0     C50779  -1.234   0.793   5.250  0.5541  1.4461 -0.0911
  377MOL0     C50780  -1.359   0.828   5.171 -0.1737 -0.2623  0.5355
  377MOL0     C50781  -1.475   0.739   5.214 -0.1028  0.2132  1.1058
  377MOL0     C50782  -1.609   0.784   5.153 -0.3142 -0.4525 -0.4510
  377MOL0     C50783  -1.672   0.918   5.218 -0.9610  0.4280  0.4033
  377MOL0     O50784  -1.812   0.925   5.209 -0.8301  0.2350  0.7574
  377MOL0     C50785  -1.873   1.050   5.242  0.0753 -0.3182  0.3347
  377MOL0     C50786  -1.803   1.157   5.308 -0.5110 -0.0510  0.7250
  377MOL0     C50787  -1.866   1.274   5.350  0.4750 -0.7223  0.6228
  377MOL0     C50788  -1.784   1.365   5.441 -0.5086 -0.7315  1.2859
  377MOL0     C50789  -2.005   1.282   5.319 -0.4820 -0.2773  0.6724
  377MOL0     C50790  -2.097   1.376   5.389  0.1362 -0.2139 -0.4822
  377MOL0     O50791  -2.231   1.382   5.345  0.4944  0.3928  0.7189
  377MOL0     C50792  -2.315   1.478   5.389 -0.5859 -0.2339  0.2486
  377MOL0     C50793  -2.292   1.614   5.365  0.1685  0.4328  0.4105
  377MOL0     C50794  -2.380   1.711   5.404 -0.0493 -0.1495  0.0147
  377MOL0     C50795  -2.504   1.675   5.456 -0.7532 -0.1332  0.0760
  377MOL0     O50796  -2.604   1.768   5.485  0.1435  0.4560 -0.8085
  377MOL0     C50797  -2.576   1.907   5.497 -0.1153  0.7176 -0.5535
  377MOL0     C50798  -2.583   1.971   5.360  0.3967 -0.1995 -0.4846
  377MOL0     C50799  -2.710   1.927   5.289  0.4740 -0.3332  0.2430
  377MOL0     C50800  -2.775   2.023   5.199 -0.0258  0.3497 -0.3099
  377MOL0     C50801  -2.905   1.959   5.146  0.4031  0.0238  0.2871
  377MOL0     C50802  -2.957   2.029   5.020 -0.0036  0.7177  0.2276
  377MOL0     C50803  -3.083   1.956   4.971 -0.3371  0.2590 -0.1196
  377MOL0     C50804  -3.136   2.024   4.837 -0.2630  0.5120  0.2450
  377MOL0    Cl50805  -3.303   1.989   4.779  0.2254  0.1223  0.5105
  377MOL0     C50806  -2.529   1.545   5.477  0.1691 -0.0054  0.7510
  377MOL0     C50807  -2.436   1.442   5.440 -0.3102 -0.2480  0.3861
  377MOL0     O50808  -2.060   1.452   5.481  0.0195 -0.1509  0.2173
  377MOL0     C50809  -2.069   1.193   5.242  0.8313  0.0410 -0.4270
  377MOL0     C50810  -2.010   1.070   5.208 -0.4737 -0.8718 -0.7111
  377MOL0     N50811  -1.164   0.886   5.324 -0.0268 -0.5089 -0.2893
  377MOL0     N50812  -1.075   0.821   5.388 -0.0160 -0.3839  0.0500
  377MOL0     C50813  -0.009   0.474   5.246  0.1117 -0.2773 -0.4050
  377MOL0     C50814   0.108   0.405   5.265 -0.1363  1.2619 -0.2552
  377MOL0     C50815   0.494   0.276   5.492 -0.4796  0.1527  0.0875
  377MOL0     C50816   0.631   0.301   5.503 -0.8734  0.5326 -0.1322
  377MOL0     C50817   0.726   0.197   5.491 -0.0215 -0.1391 -0.2092
  377MOL0     C50818   0.689   0.062   5.479 -0.3092 -0.7629  0.5178
  377MOL0     O50819   0.772  -0.044   5.496 -0.1156  0.6409 -0.6012
  377MOL0     C50820   0.897  -0.041   5.429  0.2410 -0.4825  0.5782
  377MOL0     C50821   0.889  -0.055   5.282 -0.8394 -0.9061 -0.3755
  377MOL0     C50822   0.842  -0.197   5.238  0.3297  0.4328  0.1300
  377MOL0     C50823   0.857  -0.221   5.086 -0.1489 -0.2901 -0.3529
  377MOL0     C50824   0.811  -0.115   5.005 -0.5875  0.6000 -0.1613
  377MOL0     C50825   0.771  -0.022   4.943 -0.5892 -0.9185 -0.2957
  377MOL0     C50826   0.549   0.041   5.472 -0.4445  0.2000  0.1388
  377MOL0     C50827   0.454   0.145   5.480  0.3287  0.6038 -0.5838
  377MOL0     H50828   0.163   0.519   5.584  0.4383 -0.4072 -0.4529
  377MOL0     H50829  -0.051   0.633   5.540  2.1726  1.0775 -0.6533
  377MOL0     H50830  -0.284   0.558   5.503  1.9591 -0.2925  0.0183
  377MOL0     H50831  -0.243   0.722   5.466 -0.1564 -0.7194  1.9960
  377MOL0     H50832  -0.428   0.717   5.286  1.5654  1.9644  0.2943
  377MOL0     H50833  -0.436   0.538   5.312 -0.5574  0.4120  0.6375
  377MOL0     H50834  -0.498   0.607   5.552 -2.0697 -1.5930 -0.8251
  377MOL0     H50835  -0.546   0.764   5.476 -1.6495  0.3766  0.3701
  377MOL0     H50836  -0.641   0.511   5.354  0.9139 -1.3441  1.3219
  377MOL0     H50837  -0.729   0.577   5.495  1.5545  1.6741  0.7580
  377MOL0     H50838  -0.799   0.772   5.376 -0.9484 -2.3694  2.3325
  377MOL0     H50839  -0.674   0.734   5.250 -1.6804  0.5988 -0.8396
  377MOL0     H50840  -0.907   0.706   5.179 -0.2421 -1.2505 -1.5540
  377MOL0     H50841  -0.790   0.577   5.150 -0.7624 -1.0649  0.1553
  377MOL0     H50842  -0.991   0.472   5.219 -1.5604  0.2993  0.3166
  377MOL0     H50843  -0.860   0.449   5.338  1.5573  1.4297 -1.1340
  377MOL0     H50844  -0.963   0.593   5.501  3.2361  0.2041 -0.3516
  377MOL0     H50845  -1.092   0.486   5.434 -2.1722  2.1105 -0.4559
  377MOL0     H50846  -1.249   0.589   5.227 -0.2372 -0.6916 -0.1449
  377MOL0     H50847  -1.395   0.931   5.179 -0.4157 -0.1345 -1.5247
  377MOL0     H50848  -1.336   0.817   5.064 -0.2755  0.2891  0.4499
  377MOL0     H50849  -1.474   0.725   5.323 -0.0700 -2.8611  0.7978
  377MOL0     H50850  -1.463   0.636   5.177 -2.4528  0.0951  0.5685
  377MOL0     H50851  -1.678   0.710   5.194 -0.6994  1.0740  1.8566
  377MOL0     H50852  -1.608   0.788   5.044 -1.2593  0.8978 -0.4275
  377MOL0     H50853  -1.631   1.000   5.159 -0.3674 -0.3030 -0.2185
  377MOL0     H50854  -1.636   0.915   5.321 -2.2736 -0.1042  0.8628
  377MOL0     H50855  -1.695   1.152   5.313 -0.3057 -1.3131 -2.3271
  377MOL0     H50856  -1.677   1.365   5.419 -0.6718  1.2439  0.1759
  377MOL0     H50857  -1.812   1.469   5.419  1.2175 -0.3701  0.6695
  377MOL0     H50858  -1.786   1.353   5.549  1.2877  1.8045  1.7087
  377MOL0     H50859  -2.203   1.644   5.309  0.8372 -0.6632  0.8436
  377MOL0     H50860  -2.348   1.811   5.379 -2.1892  1.6233  3.5265
  377MOL0     H50861  -2.649   1.951   5.566  2.1819 -0.3033  2.7686
  377MOL0     H50862  -2.477   1.924   5.542  0.2769 -0.0625 -1.1024
  377MOL0     H50863  -2.570   2.079   5.371 -0.7456  0.2135 -2.6036
  377MOL0     H50864  -2.503   1.946   5.290  0.3285 -0.2122 -0.5593
  377MOL0     H50865  -2.782   1.905   5.368  0.2821 -1.0897 -0.1392
  377MOL0     H50866  -2.706   1.827   5.244 -2.0558  0.5913 -2.3970
  377MOL0     H50867  -2.804   2.110   5.259  1.7029 -0.4105  1.7717
  377MOL0     H50868  -2.712   2.056   5.115  0.2932  2.4812  0.6968
  377MOL0     H50869  -2.978   1.964   5.226  0.3110  0.3107  0.1854
  377MOL0     H50870  -2.875   1.861   5.106 -1.5436 -0.2315 -0.6616
  377MOL0     H50871  -2.990   2.128   5.051  0.4467  0.6956  0.7747
  377MOL0     H50872  -2.882   2.046   4.943 -0.5969 -0.2529 -0.5921
  377MOL0     H50873  -3.162   1.980   5.043 -1.8311  3.0530 -2.4827
  377MOL0     H50874  -3.064   1.848   4.962  1.8270  0.7272 -1.8145
  377MOL0     H50875  -3.069   1.988   4.758 -0.9268 -0.4912  0.1155
  377MOL0     H50876  -3.122   2.132   4.848 -0.9426  1.2680 -4.3603
  377MOL0     H50877  -2.627   1.514   5.510  0.4163 -0.6782  0.8651
  377MOL0     H50878  -2.460   1.336   5.444 -0.1459 -0.3425 -0.7037
  377MOL0     H50879  -2.170   1.220   5.211  0.6944  2.6745  1.8300
  377MOL0     H50880  -2.077   1.012   5.146  0.5827 -2.8529 -0.0623
  377MOL0     H50881  -0.052   0.464   5.146  0.9604  0.2738 -0.8408
  377MOL0     H50882   0.164   0.354   5.187  0.3254 -1.3045  1.6066
  377MOL0     H50883   0.680   0.397   5.521 -0.5790  0.0072  2.1725
  377MOL0     H50884   0.827   0.230   5.510  0.4785 -2.2122  1.0766
  377MOL0     H50885   0.936   0.053   5.470  1.9074 -2.0151  2.7252
  377MOL0     H50886   0.964  -0.121   5.463  0.7204  0.9053  3.1276
  377MOL0     H50887   0.986  -0.029   5.239 -1.6200  1.8035 -0.6336
  377MOL0     H50888   0.830   0.026   5.238  0.3367 -0.2523 -0.7974
  377MOL0     H50889   0.737  -0.216   5.263  0.1831  0.5279 -0.3983
  377MOL0     H50890   0.898  -0.275   5.292  1.5306  0.3945 -1.1067
  377MOL0     H50891   0.813  -0.313   5.048 -1.5294  1.1704 -2.5231
  377MOL0     H50892   0.963  -0.243   5.066  0.1268  0.8588 -0.2652
  377MOL0     H50893   0.734   0.056   4.879  0.0377 -0.0343  0.3874
  377MOL0     H50894   0.506  -0.058   5.458 -2.3530  1.3382 -3.8667
  377MOL0     H50895   0.349   0.118   5.475 -0.6789  3.7526  1.1220
  378MOL0     O50896   9.200   2.244   0.210 -0.7766 -0.1156  0.3017
  378MOL0     C50897   9.199   2.133   0.268  0.0888 -0.2131  0.1865
  378MOL0     O50898   9.086   2.058   0.292 -0.3464 -0.1841 -0.8951
  378MOL0     C50899   8.969   2.127   0.299  0.0662  0.0589  1.1412
  378MOL0     C50900   8.939   2.199   0.415 -0.6601  0.5842  0.5863
  378MOL0     C50901   8.824   2.273   0.419  0.2550 -0.5245 -0.1633
  378MOL0     C50902   8.738   2.277   0.307 -0.4328 -0.1573 -0.3604
  378MOL0     O50903   8.629   2.350   0.330 -0.0099 -0.9443 -0.0534
  378MOL0     C50904   8.542   2.368   0.219  0.4894  0.3174 -0.2433
  378MOL0     C50905   8.417   2.451   0.251  0.5422  0.1315 -0.7091
  378MOL0     C50906   8.316   2.378   0.344  0.4517  0.7170  0.5571
  378MOL0     C50907   8.258   2.250   0.277 -0.1713 -0.0723  0.0034
  378MOL0     C50908   8.140   2.186   0.363 -0.4144  0.4523 -0.0054
  378MOL0     C50909   8.073   2.077   0.279 -0.3389  0.6219  0.7356
  378MOL0     C50910   7.929   2.047   0.318  0.2060 -0.1651 -0.0637
  378MOL0     C50911   7.875   1.918   0.255  0.0913 -0.6965  0.7493
  378MOL0     N50912   7.845   1.930   0.110 -0.1854  0.2473  0.2630
  378MOL0     C50913   7.916   1.894  -0.009 -0.3446 -0.1138 -0.1098
  378MOL0     C50914   7.833   1.888  -0.116 -0.5627  0.5955  1.0118
  378MOL0     C50915   7.861   1.856  -0.263  0.4033  0.3118 -0.7166
  378MOL0     C50916   7.732   1.860  -0.351  0.0863  0.8290 -0.6169
  378MOL0     C50917   7.705   2.007  -0.383 -0.2652  0.0706 -0.2017
  378MOL0     C50918   7.592   2.039  -0.473 -0.0150  0.2107 -0.4242
  378MOL0     O50919   7.632   2.006  -0.608  0.0361  0.2080 -0.2934
  378MOL0     C50920   7.540   2.002  -0.706  0.5436 -0.3977  0.0345
  378MOL0     C50921   7.566   1.929  -0.817 -0.7769  0.7711 -0.0768
  378MOL0     C50922   7.481   1.923  -0.931  0.5401  0.8337 -1.1824
  378MOL0     C50923   7.535   1.837  -1.043  0.1284  0.4542  0.2958
  378MOL0     C50924   7.368   2.003  -0.933 -0.2251 -0.7676  0.5426
  378MOL0     C50925   7.285   2.023  -1.051  0.1646 -1.1003 -0.3077
  378MOL0     O50926   7.154   2.047  -1.013  0.2113 -0.2051 -0.5439
  378MOL0     C50927   7.061   2.101  -1.094 -0.7476 -0.4871 -0.3331
  378MOL0     C50928   7.092   2.211  -1.181  0.3595 -0.1812 -0.3363
  378MOL0     C50929   7.002   2.254  -1.277 -0.3728 -0.9657 -0.1911
  378MOL0     C50930   6.868   2.209  -1.264 -0.0549 -0.7532 -0.3044
  378MOL0     O50931   6.787   2.277  -1.349 -0.2844 -0.0211  1.1154
  378MOL0     C50932   6.652   2.241  -1.360  0.1195 -0.6502  0.3772
  378MOL0     C50933   6.614   2.114  -1.447 -0.2415  0.2888  0.3918
  378MOL0     C50934   6.471   2.082  -1.428  0.1339 -0.4598 -0.7793
  378MOL0     C50935   6.433   1.960  -1.511  0.7034 -0.0167  0.0395
  378MOL0     C50936   6.289   1.924  -1.467 -0.5550  0.2045 -0.4262
  378MOL0     C50937   6.188   2.025  -1.517 -0.0502  1.2682 -0.5184
  378MOL0     C50938   6.048   1.986  -1.479  0.2990 -0.5303 -0.5781
  378MOL0     C50939   5.948   2.095  -1.508 -0.7131 -0.9255  0.9652
  378MOL0    Cl50940   5.942   2.150  -1.673 -0.3482  0.0615 -0.1293
  378MOL0     C50941   6.838   2.112  -1.170  0.6174  0.5983 -0.3145
  378MOL0     C50942   6.932   2.050  -1.093  0.6938 -0.0102 -0.2034
  378MOL0     O50943   7.328   2.027  -1.166  0.2035  0.3425  0.0981
  378MOL0     C50944   7.340   2.071  -0.817 -0.3487  0.0940 -0.3654
  378MOL0     C50945   7.429   2.075  -0.707  0.8940 -0.3957 -0.4443
  378MOL0     N50946   7.715   1.940  -0.063 -0.1277 -0.5922  0.1091
  378MOL0     N50947   7.728   1.957   0.062  0.1122  0.0875  0.0841
  378MOL0     C50948   8.780   2.216   0.181 -0.7930 -0.4238 -0.6755
  378MOL0     C50949   8.899   2.133   0.182  0.4018 -0.0865 -0.0753
  378MOL0     C50950   9.325   2.055   0.287  0.9391  0.9504  0.4292
  378MOL0     C50951   9.326   1.924   0.348 -0.6333  0.4176  0.4304
  378MOL0     C50952   9.447   1.855   0.366 -0.9216  0.5379  0.1849
  378MOL0     C50953   9.569   1.916   0.330 -0.6290  0.6034  0.9770
  378MOL0     O50954   9.675   1.829   0.343  0.1844 -0.4797 -0.1945
  378MOL0     C50955   9.806   1.879   0.304  0.4864 -0.9389  0.8868
  378MOL0     C50956   9.902   1.765   0.269 -0.0366 -0.3446  1.0387
  378MOL0     C50957   9.941   1.694   0.400 -0.2696 -0.3773  1.1811
  378MOL0     C50958  10.038   1.770   0.484 -0.3878  0.6480  0.3685
  378MOL0     C50959  10.087   1.679   0.588 -0.7583  1.1373  0.5412
  378MOL0     C50960  10.118   1.614   0.677 -0.2430  1.4243  0.0033
  378MOL0     C50961   9.564   2.050   0.282 -0.5123  0.0785  0.5244
  378MOL0     C50962   9.447   2.117   0.261 -0.2533 -0.4686 -0.2339
  378MOL0     H50963   9.010   2.205   0.497 -1.5193  2.5468  1.2444
  378MOL0     H50964   8.795   2.338   0.500  0.1983 -1.1322  0.3152
  378MOL0     H50965   8.599   2.418   0.141 -0.0346  2.3815  0.6272
  378MOL0     H50966   8.506   2.270   0.187  2.6902 -1.2245  1.6666
  378MOL0     H50967   8.455   2.543   0.296  0.0873  0.9778 -2.0007
  378MOL0     H50968   8.361   2.488   0.164  4.2415  4.0444 -1.7578
  378MOL0     H50969   8.356   2.361   0.445 -3.0864  2.5897  2.4331
  378MOL0     H50970   8.233   2.445   0.366 -1.8695 -2.2401  1.5243
  378MOL0     H50971   8.224   2.286   0.180  3.5450  1.3839 -0.9527
  378MOL0     H50972   8.333   2.173   0.259 -0.5760 -0.4657 -0.0128
  378MOL0     H50973   8.178   2.140   0.455 -0.2564  1.5196  0.4740
  378MOL0     H50974   8.074   2.267   0.392  0.6646  1.3521  0.0130
  378MOL0     H50975   8.076   2.115   0.176 -0.5610 -0.5733  0.2653
  378MOL0     H50976   8.126   1.982   0.277 -1.9238 -0.2927  0.7379
  378MOL0     H50977   7.930   2.045   0.427  0.9841  1.0951 -0.0221
  378MOL0     H50978   7.869   2.136   0.297 -1.0736 -1.6995 -3.9261
  378MOL0     H50979   7.791   1.884   0.315  1.8905 -3.5487  1.8626
  378MOL0     H50980   7.956   1.844   0.258 -0.0596 -1.2646 -3.1355
  378MOL0     H50981   8.023   1.877  -0.012 -0.4973 -1.0655 -0.4290
  378MOL0     H50982   7.939   1.926  -0.293  2.0411 -0.4916  1.3621
  378MOL0     H50983   7.905   1.757  -0.277  0.8902  0.5534 -0.9073
  378MOL0     H50984   7.652   1.811  -0.295 -1.1735 -0.0267 -3.0183
  378MOL0     H50985   7.754   1.809  -0.445 -0.4527  1.3163 -1.0135
  378MOL0     H50986   7.797   2.049  -0.425 -0.3964  1.0264  0.4267
  378MOL0     H50987   7.682   2.066  -0.294 -0.3102  1.8117 -1.3101
  378MOL0     H50988   7.568   2.146  -0.471  2.0590  0.7383  1.3955
  378MOL0     H50989   7.500   1.989  -0.442  0.5914  0.0511  1.2210
  378MOL0     H50990   7.655   1.867  -0.810 -1.9289 -1.0549 -0.9037
  378MOL0     H50991   7.590   1.750  -1.007  1.7347  0.9487 -0.8410
  378MOL0     H50992   7.453   1.793  -1.102  2.3352 -2.7246 -0.6691
  378MOL0     H50993   7.607   1.894  -1.102  2.9238 -0.8784  2.2159
  378MOL0     H50994   7.191   2.257  -1.184  1.0376 -1.6223 -2.5853
  378MOL0     H50995   7.026   2.333  -1.347  3.6756 -0.7185  1.2008
  378MOL0     H50996   6.609   2.231  -1.260  0.9333 -0.1791  0.7768
  378MOL0     H50997   6.603   2.330  -1.401 -0.0102 -0.6878  0.4489
  378MOL0     H50998   6.630   2.138  -1.552 -1.7016  0.1569  0.1266
  378MOL0     H50999   6.673   2.028  -1.414 -0.1617  1.1182  2.6086
  378MOL0     H51000   6.414   2.164  -1.473 -1.4483 -1.6339 -1.0241
  378MOL0     H51001   6.441   2.073  -1.323 -2.2366 -3.0247 -1.5664
  378MOL0     H51002   6.441   1.978  -1.618  2.2617 -0.3655  0.0691
  378MOL0     H51003   6.492   1.872  -1.482  0.6198 -0.2387 -0.4544
  378MOL0     H51004   6.269   1.916  -1.359 -1.5889  1.2757 -0.5185
  378MOL0     H51005   6.258   1.825  -1.503 -2.8765 -0.0740  2.0128
  378MOL0     H51006   6.212   2.120  -1.467  2.3239  0.7590 -0.5472
  378MOL0     H51007   6.187   2.039  -1.625 -2.9226  1.4457 -0.5456
  378MOL0     H51008   6.043   1.967  -1.372  3.1495 -3.1195 -0.7631
  378MOL0     H51009   6.010   1.893  -1.523 -1.6146 -0.7910  1.4845
  378MOL0     H51010   5.964   2.171  -1.431 -2.0915  0.3937  0.0068
  378MOL0     H51011   5.843   2.063  -1.501 -1.4893  1.5377  1.7707
  378MOL0     H51012   6.738   2.071  -1.174  0.4701  1.0233 -1.7400
  378MOL0     H51013   6.914   1.959  -1.038 -0.8811  0.2326 -0.2723
  378MOL0     H51014   7.253   2.135  -0.811 -1.7767 -1.9239  3.8933
  378MOL0     H51015   7.410   2.127  -0.613  0.3995 -2.5882  0.7403
  378MOL0     H51016   8.727   2.236   0.088 -0.2951 -0.6683 -1.0208
  378MOL0     H51017   8.940   2.085   0.094  0.6810  0.7849 -0.4278
  378MOL0     H51018   9.234   1.878   0.382  0.5762 -1.1604  1.7000
  378MOL0     H51019   9.441   1.758   0.413 -0.0986  0.9445  1.1513
  378MOL0     H51020   9.802   1.928   0.206  1.6361 -2.9196 -0.2284
  378MOL0     H51021   9.845   1.950   0.378  0.4489  0.4080 -0.3504
  378MOL0     H51022   9.989   1.812   0.222  0.8198 -2.7327  0.0551
  378MOL0     H51023   9.868   1.685   0.204  2.3417  0.6759 -1.6670
  378MOL0     H51024   9.994   1.605   0.364  0.4263  0.7280 -0.6077
  378MOL0     H51025   9.856   1.655   0.456 -2.6575 -0.8214 -2.4423
  378MOL0     H51026   9.984   1.855   0.527 -1.4027 -0.4133  1.2746
  378MOL0     H51027  10.116   1.814   0.422 -2.5892  2.2049 -1.5051
  378MOL0     H51028  10.130   1.564   0.771  1.0146 -0.1431 -0.9586
  378MOL0     H51029   9.660   2.099   0.271  0.2162 -1.4059  0.0917
  378MOL0     H51030   9.462   2.224   0.251  2.7009 -0.7121  0.7383
  379MOL0     O51031   9.805   3.357   8.715  0.1503  0.6002  0.0410
  379MOL0     C51032   9.791   3.335   8.831 -0.1804  0.0514 -0.0399
  379MOL0     O51033   9.676   3.290   8.891 -0.1970 -0.1764  0.4077
  379MOL0     C51034   9.578   3.240   8.811  1.1389  0.1984 -0.0746
  379MOL0     C51035   9.591   3.158   8.698 -0.0028  0.7930 -0.2549
  379MOL0     C51036   9.478   3.104   8.632  0.2401  0.6380  0.3464
  379MOL0     C51037   9.344   3.128   8.687 -0.5521 -0.3892 -0.5463
  379MOL0     O51038   9.233   3.076   8.619 -0.3551  0.1884 -0.2212
  379MOL0     C51039   9.106   3.100   8.675  0.1525  0.0985 -0.6703
  379MOL0     C51040   8.990   3.032   8.588  0.0742  0.8105  0.4583
  379MOL0     C51041   8.844   3.086   8.608  0.1052 -0.1826 -0.6312
  379MOL0     C51042   8.740   3.003   8.528 -0.8905 -0.1919 -0.4687
  379MOL0     C51043   8.595   3.059   8.521 -0.4946 -0.0155  0.0761
  379MOL0     C51044   8.517   2.979   8.413  0.2702 -0.2998 -0.5220
  379MOL0     C51045   8.385   3.057   8.389  0.3555 -0.8484  0.7571
  379MOL0     C51046   8.306   2.984   8.282 -0.4355 -1.0277 -0.8433
  379MOL0     N51047   8.183   3.055   8.227 -0.2394  0.8917 -0.3899
  379MOL0     C51048   8.183   3.172   8.158 -0.1719  0.4729 -0.4622
  379MOL0     C51049   8.050   3.212   8.151 -0.1765 -0.2706 -0.4408
  379MOL0     C51050   8.004   3.334   8.075 -0.3747  0.3468 -0.6129
  379MOL0     C51051   8.094   3.452   8.087 -0.0301 -0.5468  0.0729
  379MOL0     C51052   8.149   3.476   8.223  0.1949  0.2705  0.0179
  379MOL0     C51053   8.188   3.623   8.241  0.9154 -1.0587  0.2706
  379MOL0     O51054   8.303   3.666   8.167 -0.6912 -1.0722 -0.2382
  379MOL0     C51055   8.354   3.793   8.182  0.5689 -0.8892  1.0692
  379MOL0     C51056   8.285   3.913   8.212 -0.0402  0.4024 -0.0631
  379MOL0     C51057   8.352   4.038   8.209 -0.2561 -0.0416 -0.1547
  379MOL0     C51058   8.285   4.172   8.223 -0.4898 -0.1513  0.5392
  379MOL0     C51059   8.492   4.037   8.196  0.7202  0.7731  0.5914
  379MOL0     C51060   8.561   4.156   8.232 -0.4208 -0.2429  0.2785
  379MOL0     O51061   8.570   4.240   8.127 -0.1279 -0.0134 -0.0123
  379MOL0     C51062   8.663   4.342   8.133  0.4636 -0.0155  1.1893
  379MOL0     C51063   8.754   4.359   8.026  0.3868  0.6555 -1.6398
  379MOL0     C51064   8.851   4.458   8.046 -0.7345 -0.1609 -0.7546
  379MOL0     C51065   8.846   4.552   8.153  0.1865  0.7968  0.0161
  379MOL0     O51066   8.932   4.656   8.154  0.4896  0.4485  0.3900
  379MOL0     C51067   8.948   4.733   8.030 -0.4613 -0.3185 -0.3767
  379MOL0     C51068   9.040   4.846   8.075 -1.0606  0.2172 -0.3481
  379MOL0     C51069   9.099   4.922   7.955 -0.1309 -0.2956 -0.0690
  379MOL0     C51070   9.250   4.887   7.921 -0.3549  0.0243  0.5530
  379MOL0     C51071   9.327   5.000   7.842 -0.6690  0.1497 -0.7964
  379MOL0     C51072   9.275   5.013   7.702  1.4147  0.6385 -0.3562
  379MOL0     C51073   9.302   5.152   7.644 -0.3236  0.2373  0.5152
  379MOL0     C51074   9.204   5.183   7.534  0.1441  0.1067  0.0075
  379MOL0    Cl51075   9.236   5.336   7.465 -0.7420 -0.3389 -0.3014
  379MOL0     C51076   8.751   4.541   8.251 -0.1191  0.3617  0.3324
  379MOL0     C51077   8.658   4.437   8.243 -0.7922  0.3521 -0.8079
  379MOL0     O51078   8.608   4.178   8.340  0.0358  0.0519 -0.3944
  379MOL0     C51079   8.560   3.930   8.163 -0.6266 -0.7160 -0.0417
  379MOL0     C51080   8.492   3.805   8.157 -0.8264 -0.2951 -0.5517
  379MOL0     N51081   7.972   3.105   8.191 -0.5009  0.0129 -0.5738
  379MOL0     N51082   8.053   3.019   8.241 -0.2840  0.6370  0.6729
  379MOL0     C51083   9.337   3.205   8.806  0.2905 -0.4325  0.8700
  379MOL0     C51084   9.451   3.270   8.860  0.3592  0.0668  0.0317
  379MOL0     C51085   9.896   3.376   8.917 -0.4880 -0.3382 -0.2362
  379MOL0     C51086   9.868   3.424   9.045  0.8685 -1.0366  1.2490
  379MOL0     C51087   9.965   3.476   9.130  0.3243  0.4508 -0.6524
  379MOL0     C51088  10.104   3.472   9.088 -0.3535  0.1106 -0.5793
  379MOL0     O51089  10.207   3.518   9.166 -1.3978  0.3203 -0.4197
  379MOL0     C51090  10.187   3.583   9.290 -0.9835 -0.2632  0.0441
  379MOL0     C51091  10.100   3.711   9.292  0.3959 -0.0825 -0.0151
  379MOL0     C51092  10.085   3.767   9.442 -0.0338 -0.2673 -0.6986
  379MOL0     C51093   9.947   3.728   9.493  0.8276 -1.1538 -0.4335
  379MOL0     C51094   9.926   3.754   9.633  0.6257 -0.0634  0.1338
  379MOL0     C51095   9.917   3.747   9.754 -0.1724  0.4252  0.2245
  379MOL0     C51096  10.134   3.421   8.964 -0.1684 -0.6166  0.4965
  379MOL0     C51097  10.030   3.378   8.879  0.3520 -0.0891  0.1357
  379MOL0     H51098   9.685   3.118   8.661 -0.4654  0.0468 -0.6588
  379MOL0     H51099   9.487   3.049   8.539  0.9609 -0.4142  1.0156
  379MOL0     H51100   9.098   3.039   8.765  0.3329  0.1723 -0.6030
  379MOL0     H51101   9.088   3.206   8.694 -1.9323 -0.6318  1.9320
  379MOL0     H51102   9.018   3.051   8.484 -1.6967  0.4670 -0.1241
  379MOL0     H51103   8.985   2.924   8.602  2.7972  0.6060  0.2180
  379MOL0     H51104   8.819   3.092   8.714 -4.8273 -2.2212 -1.3545
  379MOL0     H51105   8.845   3.182   8.556  3.4497 -1.0272 -2.4254
  379MOL0     H51106   8.776   2.987   8.426 -3.5749 -0.5910 -1.4196
  379MOL0     H51107   8.743   2.908   8.581 -2.0498 -0.0329 -0.0981
  379MOL0     H51108   8.552   3.060   8.621  2.2471  1.5313  1.3377
  379MOL0     H51109   8.600   3.166   8.498 -0.4132  0.2492  1.2901
  379MOL0     H51110   8.579   2.976   8.323 -1.2208  3.3749 -1.8655
  379MOL0     H51111   8.488   2.875   8.430 -0.4721 -0.1473 -0.8565
  379MOL0     H51112   8.329   3.072   8.482  3.6870  2.6285  2.4504
  379MOL0     H51113   8.388   3.158   8.348 -3.0656  1.6993  5.7743
  379MOL0     H51114   8.280   2.885   8.320  1.7540 -1.9787 -1.6307
  379MOL0     H51115   8.376   2.966   8.200 -1.1896  0.5100 -1.8917
  379MOL0     H51116   8.267   3.236   8.134 -2.9074  4.2380 -0.9135
  379MOL0     H51117   8.005   3.297   7.972 -1.8245 -1.5750 -0.0031
  379MOL0     H51118   7.905   3.372   8.104 -1.3976 -0.9926 -2.1441
  379MOL0     H51119   8.033   3.538   8.057  1.4430  1.5333  2.5833
  379MOL0     H51120   8.182   3.433   8.025 -0.5724 -4.6718  0.2623
  379MOL0     H51121   8.240   3.417   8.241  0.4059 -0.2754 -2.4286
  379MOL0     H51122   8.080   3.440   8.300  2.2106 -0.4090  1.6031
  379MOL0     H51123   8.211   3.637   8.347 -1.6702 -0.6873  0.8470
  379MOL0     H51124   8.100   3.686   8.225  2.8063  1.2051 -1.9466
  379MOL0     H51125   8.182   3.913   8.246  0.1379  1.8760  0.5658
  379MOL0     H51126   8.177   4.159   8.205  0.0208 -2.0914 -1.6275
  379MOL0     H51127   8.302   4.212   8.324  1.7329 -1.7148  0.8582
  379MOL0     H51128   8.319   4.236   8.142 -3.6148 -0.6696 -1.3471
  379MOL0     H51129   8.761   4.290   7.942  0.1797  0.8965 -1.8560
  379MOL0     H51130   8.932   4.473   7.976  0.9183 -0.9515  0.9174
  379MOL0     H51131   9.015   4.675   7.966 -1.9862 -2.7597  0.1007
  379MOL0     H51132   8.854   4.764   7.985  0.3745 -0.7291 -2.5373
  379MOL0     H51133   8.979   4.909   8.139 -0.0121 -0.3420  1.2648
  379MOL0     H51134   9.124   4.806   8.131 -1.1032 -0.1689 -0.5543
  379MOL0     H51135   9.087   5.024   7.994  4.1107 -0.5456  2.5109
  379MOL0     H51136   9.031   4.921   7.870 -0.4363  0.4701  0.1505
  379MOL0     H51137   9.307   4.876   8.014 -0.7741 -0.8551  0.7135
  379MOL0     H51138   9.263   4.803   7.853 -1.4965  0.1943  0.1056
  379MOL0     H51139   9.436   4.990   7.844 -0.5905  0.7166  2.6999
  379MOL0     H51140   9.321   5.094   7.897 -0.6809 -0.0510 -0.4548
  379MOL0     H51141   9.293   4.926   7.639 -1.0627  1.1585 -1.9057
  379MOL0     H51142   9.166   5.007   7.698  1.3766 -3.2011  1.8283
  379MOL0     H51143   9.403   5.149   7.602  0.6667 -1.0461  2.8144
  379MOL0     H51144   9.309   5.233   7.717 -4.9954  1.3387  0.0254
  379MOL0     H51145   9.103   5.187   7.575 -0.4952 -0.5345 -1.4325
  379MOL0     H51146   9.201   5.100   7.463  0.1371  1.2791 -1.4255
  379MOL0     H51147   8.757   4.607   8.336  0.3855 -1.5907  1.8788
  379MOL0     H51148   8.577   4.426   8.315 -0.3370 -1.3700 -0.5023
  379MOL0     H51149   8.664   3.948   8.142 -0.3948  4.4388  3.6843
  379MOL0     H51150   8.554   3.720   8.131  4.1851  2.5862  0.6938
  379MOL0     H51151   9.244   3.228   8.857  0.1111 -0.0959  0.4113
  379MOL0     H51152   9.444   3.339   8.944  3.3874  1.1622 -0.4597
  379MOL0     H51153   9.765   3.428   9.079  0.9861  1.3093  1.5023
  379MOL0     H51154   9.932   3.514   9.226 -0.8767  0.1288 -0.9288
  379MOL0     H51155  10.150   3.513   9.365  0.3751  0.5834  1.5644
  379MOL0     H51156  10.285   3.609   9.331 -1.0561 -0.9986  0.7126
  379MOL0     H51157   9.999   3.689   9.255  0.1540 -1.4804  1.3310
  379MOL0     H51158  10.154   3.786   9.234  1.2131  0.9865  2.0437
  379MOL0     H51159  10.091   3.875   9.431  0.7034 -0.4318 -2.0901
  379MOL0     H51160  10.165   3.736   9.509 -0.6614  1.5863  1.0225
  379MOL0     H51161   9.929   3.624   9.465 -0.4781 -0.8432 -0.8078
  379MOL0     H51162   9.866   3.779   9.440 -0.1963 -0.2482  1.8839
  379MOL0     H51163   9.920   3.728   9.859  1.1075  1.9210  0.4996
  379MOL0     H51164  10.240   3.421   8.940 -0.4830  1.2172 -1.2112
  379MOL0     H51165  10.063   3.347   8.781  1.7051 -1.0623  0.8642
  380MOL0     O51166   0.503   3.810   0.823  0.3505 -0.3442  0.2867
  380MOL0     C51167   0.458   3.789   0.711  0.3822  0.1908  0.4476
  380MOL0     O51168   0.534   3.769   0.589 -0.4590  0.3818  0.0628
  380MOL0     C51169   0.676   3.787   0.591  0.7387 -0.7227  0.5306
  380MOL0     C51170   0.750   3.729   0.490  0.2874  0.4205 -0.1158
  380MOL0     C51171   0.890   3.735   0.482  0.1407  0.1973  0.0283
  380MOL0     C51172   0.960   3.813   0.574 -0.4789 -0.3676  0.6282
  380MOL0     O51173   1.099   3.817   0.561 -0.0633  0.2665  0.4063
  380MOL0     C51174   1.166   3.897   0.648 -0.6097 -1.2257 -0.3067
  380MOL0     C51175   1.322   3.920   0.637  0.0393 -0.7829  0.1758
  380MOL0     C51176   1.349   3.941   0.487  0.1628 -0.6936 -0.5327
  380MOL0     C51177   1.495   3.934   0.445 -0.7313  0.0135  0.0875
  380MOL0     C51178   1.592   4.027   0.510  0.2888 -0.0084  0.4612
  380MOL0     C51179   1.710   4.061   0.415  0.3801  0.6567 -0.5297
  380MOL0     C51180   1.791   4.183   0.469 -0.2227 -0.1783 -0.1822
  380MOL0     C51181   1.873   4.251   0.361  0.1928  0.3987 -0.1159
  380MOL0     N51182   1.957   4.357   0.404 -0.0713  0.2178  0.0071
  380MOL0     C51183   2.094   4.342   0.430  0.4574  0.1342 -0.0863
  380MOL0     C51184   2.132   4.467   0.463  0.7624  0.9729  0.0178
  380MOL0     C51185   2.265   4.510   0.522 -0.2941 -0.5516  0.1424
  380MOL0     C51186   2.307   4.415   0.646  0.8526  0.4550  0.0234
  380MOL0     C51187   2.214   4.419   0.769 -0.0049  0.5367 -0.3943
  380MOL0     C51188   2.276   4.337   0.880 -0.2725 -0.4826  0.9263
  380MOL0     O51189   2.292   4.202   0.842 -0.2670  0.0002 -0.5255
  380MOL0     C51190   2.175   4.125   0.852 -0.0741 -0.2009 -0.1614
  380MOL0     C51191   2.138   4.050   0.736 -0.0607 -0.5299  0.1408
  380MOL0     C51192   2.043   3.947   0.751  0.6614 -0.0093  0.5855
  380MOL0     C51193   2.027   3.868   0.627  0.2050 -0.0497  0.0348
  380MOL0     C51194   1.967   3.931   0.862  0.7635 -0.2605 -0.0277
  380MOL0     C51195   1.862   3.825   0.880 -0.6383 -0.2626  0.2691
  380MOL0     O51196   1.800   3.774   0.773 -0.3521  0.7920  0.1935
  380MOL0     C51197   1.677   3.701   0.786 -1.0740 -1.0077  0.1469
  380MOL0     C51198   1.665   3.600   0.693  0.1695 -0.9627 -0.1138
  380MOL0     C51199   1.562   3.516   0.699  0.4628 -0.3808 -0.7128
  380MOL0     C51200   1.469   3.515   0.803  0.7667  0.2058 -0.1772
  380MOL0     O51201   1.355   3.442   0.787 -0.7704 -0.0968  0.3475
  380MOL0     C51202   1.234   3.527   0.800 -1.1077  0.3689 -0.4830
  380MOL0     C51203   1.113   3.482   0.710  1.2737  0.1232 -0.0127
  380MOL0     C51204   0.979   3.485   0.786  0.8469 -0.8748  0.4910
  380MOL0     C51205   0.868   3.434   0.701  1.0712  0.0524 -0.2121
  380MOL0     C51206   0.731   3.482   0.748  0.1035 -0.7280  1.1379
  380MOL0     C51207   0.694   3.427   0.890 -0.1870 -0.5507  0.4108
  380MOL0     C51208   0.567   3.489   0.931 -0.0975  0.3746  1.1296
  380MOL0     C51209   0.443   3.436   0.848 -0.6229 -0.2935  0.0658
  380MOL0    Cl51210   0.292   3.480   0.921  0.4238 -0.2307 -0.0794
  380MOL0     C51211   1.478   3.618   0.897  0.2401  0.6174  0.2162
  380MOL0     C51212   1.575   3.713   0.885  0.4845 -0.0222 -0.5117
  380MOL0     O51213   1.838   3.786   0.997 -0.0914 -0.2413  0.0964
  380MOL0     C51214   1.990   4.014   0.974 -0.6625 -0.1576  1.2551
  380MOL0     C51215   2.105   4.111   0.970  0.2352 -0.4149 -0.2045
  380MOL0     N51216   2.019   4.547   0.470 -0.0320 -0.5453 -0.8045
  380MOL0     N51217   1.916   4.488   0.423  0.1366 -0.2270  0.7568
  380MOL0     C51218   0.892   3.875   0.675  0.5240  0.3189 -0.4073
  380MOL0     C51219   0.751   3.867   0.683  0.2704  0.6269  0.2228
  380MOL0     C51220   0.308   3.794   0.694 -0.3533  0.8739  0.8203
  380MOL0     C51221   0.228   3.862   0.790  0.2568 -0.3137 -0.1217
  380MOL0     C51222   0.085   3.877   0.765  0.1468 -0.5282  0.1396
  380MOL0     C51223   0.025   3.813   0.655 -0.4265 -1.4943  0.0707
  380MOL0     O51224  -0.102   3.813   0.626  0.4175  0.6123 -0.3560
  380MOL0     C51225  -0.195   3.840   0.730 -0.2065 -0.0853 -0.4968
  380MOL0     C51226  -0.330   3.831   0.661  0.0658 -0.1485 -0.2309
  380MOL0     C51227  -0.407   3.961   0.646  0.7108  0.7874  0.6325
  380MOL0     C51228  -0.509   3.988   0.758  0.6877 -0.3952  0.6361
  380MOL0     C51229  -0.442   3.982   0.883  0.3491 -0.4569 -0.1868
  380MOL0     C51230  -0.388   4.010   0.991  0.4970 -0.4195 -0.8206
  380MOL0     C51231   0.113   3.760   0.556 -0.5666 -0.0945 -0.4636
  380MOL0     C51232   0.250   3.746   0.576  0.0767  0.2032  0.2912
  380MOL0     H51233   0.704   3.661   0.419  2.4490 -1.4373  0.1506
  380MOL0     H51234   0.934   3.678   0.401  3.1042 -2.4373  3.1782
  380MOL0     H51235   1.133   4.001   0.650 -1.4052 -1.4321 -1.5039
  380MOL0     H51236   1.149   3.849   0.745 -1.7444 -2.6629 -1.1787
  380MOL0     H51237   1.361   4.001   0.698 -0.2146  0.8879 -1.7573
  380MOL0     H51238   1.368   3.823   0.658  1.0069 -1.3769 -3.7718
  380MOL0     H51239   1.292   3.869   0.428 -3.1469  0.6359  0.8024
  380MOL0     H51240   1.319   4.046   0.477  0.8173 -0.3198  1.1037
  380MOL0     H51241   1.529   3.830   0.440  1.7294  0.8279 -1.5367
  380MOL0     H51242   1.490   3.959   0.339 -0.0852 -0.2523 -0.0069
  380MOL0     H51243   1.539   4.121   0.529  0.4528 -0.3990  3.4115
  380MOL0     H51244   1.615   3.982   0.607 -1.5450  0.2330  1.0547
  380MOL0     H51245   1.777   3.977   0.397  1.2601  0.7582  1.9199
  380MOL0     H51246   1.672   4.088   0.316  0.0075 -0.9476 -0.8560
  380MOL0     H51247   1.728   4.258   0.518 -1.9236 -0.2439 -2.0961
  380MOL0     H51248   1.856   4.140   0.545 -1.8424 -1.3956  0.5922
  380MOL0     H51249   1.796   4.294   0.296 -2.0737 -0.1152  2.0369
  380MOL0     H51250   1.926   4.177   0.301 -1.2528 -0.4649 -0.3794
  380MOL0     H51251   2.163   4.259   0.433  0.2612 -0.0474  3.1348
  380MOL0     H51252   2.342   4.489   0.447  0.5607  2.6659 -0.0033
  380MOL0     H51253   2.276   4.615   0.550 -1.8701 -0.5052  0.6633
  380MOL0     H51254   2.412   4.437   0.671  0.9468 -1.3976  1.4585
  380MOL0     H51255   2.314   4.315   0.604  1.4118  0.4224  0.1819
  380MOL0     H51256   2.113   4.384   0.745 -1.0199  0.5168  3.2773
  380MOL0     H51257   2.191   4.520   0.805 -1.6467  1.1400 -2.8883
  380MOL0     H51258   2.206   4.344   0.963 -3.3291  0.8486 -1.5643
  380MOL0     H51259   2.377   4.373   0.904  0.5628 -3.1776  1.7545
  380MOL0     H51260   2.203   4.053   0.650 -0.3554 -3.2322 -0.2684
  380MOL0     H51261   1.933   3.905   0.586 -0.2975 -2.3254 -1.0783
  380MOL0     H51262   2.101   3.879   0.547  0.6406 -2.9822 -0.0912
  380MOL0     H51263   2.019   3.759   0.638 -1.7710 -0.1787 -1.8327
  380MOL0     H51264   1.745   3.607   0.620 -1.5371  0.6404 -1.9645
  380MOL0     H51265   1.569   3.439   0.623 -1.4340 -0.9919 -0.3464
  380MOL0     H51266   1.204   3.527   0.905  1.2002  0.1983  0.2250
  380MOL0     H51267   1.260   3.631   0.779  2.7760 -0.2244  0.6329
  380MOL0     H51268   1.101   3.545   0.622 -0.7844  0.9764  0.8153
  380MOL0     H51269   1.135   3.382   0.671  0.3424  0.1428 -0.6430
  380MOL0     H51270   0.948   3.586   0.811 -0.4499 -1.2282  0.3919
  380MOL0     H51271   0.993   3.416   0.870  1.3867  0.3267  1.4218
  380MOL0     H51272   0.891   3.458   0.597  1.2550 -0.3272 -0.2590
  380MOL0     H51273   0.857   3.326   0.712 -1.2091  0.2628  0.2868
  380MOL0     H51274   0.657   3.467   0.669  2.1677 -0.8725 -0.8831
  380MOL0     H51275   0.735   3.591   0.742 -0.3298 -0.7752 -2.1136
  380MOL0     H51276   0.701   3.318   0.891  0.8814 -0.5016  1.9872
  380MOL0     H51277   0.770   3.462   0.961  1.1368 -0.4463 -0.9989
  380MOL0     H51278   0.566   3.596   0.912  0.2195  0.0925 -0.6554
  380MOL0     H51279   0.554   3.465   1.037  0.2893 -0.0452  1.0841
  380MOL0     H51280   0.447   3.326   0.844 -5.5900 -0.6463 -1.0447
  380MOL0     H51281   0.443   3.459   0.741 -0.9270 -1.0493 -0.1076
  380MOL0     H51282   1.403   3.621   0.975 -0.1026 -2.1559  0.0837
  380MOL0     H51283   1.585   3.796   0.953  3.7930  0.5862 -1.5903
  380MOL0     H51284   1.920   4.003   1.056 -2.1793  0.7354  0.1329
  380MOL0     H51285   2.141   4.145   1.066 -1.1538 -2.6272  1.2052
  380MOL0     H51286   0.944   3.921   0.758 -2.3685 -0.1327  1.8078
  380MOL0     H51287   0.697   3.925   0.757 -3.5296  0.5167 -2.1602
  380MOL0     H51288   0.283   3.918   0.865  1.9860  2.7048 -3.3298
  380MOL0     H51289   0.023   3.928   0.837  0.6744  0.1745  0.1038
  380MOL0     H51290  -0.194   3.768   0.812  1.2905  0.1926 -0.2290
  380MOL0     H51291  -0.187   3.936   0.783 -2.2371 -1.3556  2.3521
  380MOL0     H51292  -0.393   3.771   0.727  0.1124 -0.9020 -0.8581
  380MOL0     H51293  -0.320   3.786   0.562 -0.4026  0.9040 -0.7701
  380MOL0     H51294  -0.460   3.953   0.551  0.8763  2.5512  0.3526
  380MOL0     H51295  -0.339   4.043   0.620  0.5211  0.5276 -0.7534
  380MOL0     H51296  -0.589   3.914   0.760  0.7162 -0.4110  1.8068
  380MOL0     H51297  -0.556   4.083   0.730 -0.1966 -1.5261 -2.0372
  380MOL0     H51298  -0.358   4.049   1.086  1.9010 -1.5692 -0.7537
  380MOL0     H51299   0.069   3.720   0.465  0.5162  4.0180 -3.0782
  380MOL0     H51300   0.311   3.712   0.492  0.6369  1.6423  0.0938
  381MOL0     O51301   4.821   8.178   0.387 -0.1103  0.7356  0.5036
  381MOL0     C51302   4.883   8.252   0.468 -0.1319  0.5174  0.0564
  381MOL0     O51303   4.823   8.338   0.552  0.1314  0.8577 -0.1536
  381MOL0     C51304   4.682   8.337   0.553 -0.1712  0.5575  0.4148
  381MOL0     C51305   4.612   8.390   0.444  0.2679 -0.0693 -0.5311
  381MOL0     C51306   4.469   8.388   0.453 -0.6812 -0.5204  0.4691
  381MOL0     C51307   4.402   8.311   0.547 -0.6446 -0.0158  0.0226
  381MOL0     O51308   4.265   8.286   0.551 -0.3048 -0.2685  0.2758
  381MOL0     C51309   4.183   8.343   0.459 -0.3162  0.2014 -0.4063
  381MOL0     C51310   4.041   8.323   0.507 -0.5598  0.1049  0.0905
  381MOL0     C51311   3.956   8.326   0.385  0.0597  0.9148 -0.3002
  381MOL0     C51312   3.800   8.322   0.421  0.0580 -0.1079 -0.0605
  381MOL0     C51313   3.747   8.456   0.462 -0.2190 -0.0548 -0.0992
  381MOL0     C51314   3.603   8.438   0.512 -0.0775 -0.2001 -0.5831
  381MOL0     C51315   3.502   8.450   0.395  0.0459  0.0741  0.4847
  381MOL0     C51316   3.372   8.400   0.435  0.6875 -0.9005  0.0207
  381MOL0     N51317   3.273   8.419   0.326 -0.3711  0.1100 -0.2354
  381MOL0     C51318   3.158   8.496   0.334  0.1221  0.7909 -0.8872
  381MOL0     C51319   3.085   8.473   0.222  0.0896  0.5221 -0.5716
  381MOL0     C51320   2.957   8.541   0.180 -0.3034 -0.5443  0.7659
  381MOL0     C51321   2.838   8.474   0.238  0.6420  0.8750  0.2597
  381MOL0     C51322   2.691   8.507   0.186  0.3332  0.3278 -0.8510
  381MOL0     C51323   2.572   8.452   0.282 -0.1330 -0.2548 -0.3426
  381MOL0     O51324   2.591   8.311   0.319  0.3051  0.3225  0.2025
  381MOL0     C51325   2.504   8.249   0.408 -0.3838  0.2776 -0.0605
  381MOL0     C51326   2.539   8.132   0.472  0.0721 -0.2074 -0.4889
  381MOL0     C51327   2.447   8.058   0.551  0.7543  1.0813 -0.8642
  381MOL0     C51328   2.490   7.927   0.612 -0.3054 -0.0396 -0.0182
  381MOL0     C51329   2.313   8.111   0.561  0.6478  0.8875  0.4552
  381MOL0     C51330   2.201   8.033   0.619  0.0298 -0.2983 -0.1332
  381MOL0     O51331   2.077   8.042   0.566  0.0541 -0.7947 -0.1581
  381MOL0     C51332   1.979   7.976   0.632  0.2651 -0.4850  0.3742
  381MOL0     C51333   1.961   7.841   0.616  0.2126  0.5540  0.7181
  381MOL0     C51334   1.854   7.775   0.675 -0.2911  0.5139  1.1941
  381MOL0     C51335   1.769   7.840   0.762  0.0599  0.2408 -0.4817
  381MOL0     O51336   1.666   7.777   0.828  0.8578  0.2882 -0.5830
  381MOL0     C51337   1.674   7.635   0.870  0.8626 -0.4476  0.6469
  381MOL0     C51338   1.616   7.635   1.014  0.0493  0.9897 -0.4339
  381MOL0     C51339   1.462   7.607   1.024  0.0510  0.5865 -0.1540
  381MOL0     C51340   1.416   7.456   1.032  0.5124 -0.0935 -0.2165
  381MOL0     C51341   1.286   7.427   1.115  0.4819  0.0499  0.1197
  381MOL0     C51342   1.156   7.477   1.049 -0.0548  0.5589 -0.3464
  381MOL0     C51343   1.124   7.381   0.943  0.3570  0.6163  0.3903
  381MOL0     C51344   1.043   7.450   0.840 -0.0242 -0.1485  0.4124
  381MOL0    Cl51345   0.890   7.515   0.913  0.8740 -0.3613  0.3341
  381MOL0     C51346   1.786   7.978   0.792 -0.7492  0.2417  1.0468
  381MOL0     C51347   1.891   8.044   0.718  0.4225 -0.9221 -0.5282
  381MOL0     O51348   2.232   7.963   0.716  0.0048 -0.0581  0.3564
  381MOL0     C51349   2.281   8.224   0.486  0.5875 -0.5735 -0.0702
  381MOL0     C51350   2.372   8.302   0.419  0.0183  0.2185  1.3453
  381MOL0     N51351   3.154   8.376   0.156 -0.1395  0.5218 -0.3969
  381MOL0     N51352   3.271   8.351   0.205 -0.2999  0.0757 -0.7658
  381MOL0     C51353   4.476   8.251   0.646 -0.4616  0.0896  1.1811
  381MOL0     C51354   4.614   8.261   0.646 -0.1924  0.1637 -0.0835
  381MOL0     C51355   5.027   8.241   0.505  0.6560  0.5144  0.5520
  381MOL0     C51356   5.108   8.175   0.418  0.0385  0.5803  0.7449
  381MOL0     C51357   5.242   8.157   0.437  0.4655 -1.4175  0.9620
  381MOL0     C51358   5.304   8.192   0.551 -0.2001 -0.1887 -0.3211
  381MOL0     O51359   5.448   8.172   0.552 -0.7336 -0.5602  0.1867
  381MOL0     C51360   5.517   8.192   0.677 -0.6030 -0.8303  0.5996
  381MOL0     C51361   5.657   8.127   0.668  0.0063 -0.3241 -0.2540
  381MOL0     C51362   5.759   8.203   0.761  0.1149  0.1529  0.1048
  381MOL0     C51363   5.876   8.115   0.772  0.6463  0.3706  0.1688
  381MOL0     C51364   5.995   8.195   0.786 -0.5604  0.1704 -0.0580
  381MOL0     C51365   6.092   8.258   0.803  0.3982 -0.1241  0.7883
  381MOL0     C51366   5.218   8.258   0.650 -0.5730  0.0569  0.1747
  381MOL0     C51367   5.084   8.286   0.622  0.2064  0.8649 -0.3054
  381MOL0     H51368   4.666   8.433   0.360  1.1454 -0.5044 -0.1982
  381MOL0     H51369   4.415   8.435   0.371  0.4309 -0.9495 -0.5490
  381MOL0     H51370   4.200   8.451   0.453 -0.5803  0.2089 -1.1127
  381MOL0     H51371   4.214   8.296   0.365  0.8531  2.2526 -1.1052
  381MOL0     H51372   4.031   8.232   0.567 -1.2628 -0.3608 -0.7106
  381MOL0     H51373   4.015   8.409   0.568 -1.1499 -0.0790  0.1010
  381MOL0     H51374   3.985   8.412   0.324 -0.3592  0.5465 -1.0468
  381MOL0     H51375   3.969   8.227   0.339 -0.2649 -0.2193  1.9247
  381MOL0     H51376   3.746   8.287   0.332 -2.0517  0.7774  0.8125
  381MOL0     H51377   3.785   8.257   0.507  0.2914 -0.3030 -0.1647
  381MOL0     H51378   3.810   8.510   0.533 -0.4755 -0.8757  0.7690
  381MOL0     H51379   3.741   8.524   0.376 -1.7201 -0.2960 -0.2168
  381MOL0     H51380   3.596   8.339   0.558  0.6258 -0.9644 -2.0409
  381MOL0     H51381   3.591   8.515   0.588  2.2163 -0.4575  0.1159
  381MOL0     H51382   3.501   8.556   0.368 -2.2526  0.8119  3.0553
  381MOL0     H51383   3.545   8.388   0.315 -0.4230 -1.4836  1.3994
  381MOL0     H51384   3.330   8.457   0.518 -1.3345 -2.4066  0.0938
  381MOL0     H51385   3.379   8.293   0.459  0.2517 -0.6344  1.4199
  381MOL0     H51386   3.145   8.572   0.411  0.2432  1.1016 -1.1673
  381MOL0     H51387   2.964   8.640   0.224 -0.1090 -0.3938  0.3980
  381MOL0     H51388   2.947   8.546   0.071 -0.6336 -0.6139  0.7921
  381MOL0     H51389   2.843   8.494   0.346  2.6531  0.5241  0.2732
  381MOL0     H51390   2.843   8.365   0.224  0.2525  0.7345  1.1411
  381MOL0     H51391   2.684   8.478   0.081 -2.3539  1.0708 -0.9603
  381MOL0     H51392   2.677   8.615   0.174  1.8385  0.7337  0.6936
  381MOL0     H51393   2.482   8.484   0.229  0.5582  2.8751  0.1620
  381MOL0     H51394   2.582   8.512   0.374 -1.4452 -0.8443  0.2143
  381MOL0     H51395   2.643   8.100   0.469  0.5483  1.2149 -0.1607
  381MOL0     H51396   2.488   7.933   0.721 -1.1644  0.8247 -0.0709
  381MOL0     H51397   2.434   7.844   0.567  0.6020  1.5581 -4.6293
  381MOL0     H51398   2.593   7.910   0.578 -1.7109 -2.2868 -3.8715
  381MOL0     H51399   2.021   7.786   0.544 -2.4119 -0.4484 -0.8733
  381MOL0     H51400   1.835   7.671   0.650  2.2251  0.9358 -3.7237
  381MOL0     H51401   1.616   7.562   0.812  0.0142 -0.1461  1.0953
  381MOL0     H51402   1.777   7.598   0.866  1.6088  1.6143 -1.4361
  381MOL0     H51403   1.669   7.560   1.071 -1.9255 -0.2352 -0.1078
  381MOL0     H51404   1.638   7.730   1.063 -0.9102  1.8146 -1.5182
  381MOL0     H51405   1.404   7.650   0.941 -1.9117 -2.6896 -0.6554
  381MOL0     H51406   1.417   7.652   1.113 -0.0120 -1.4355  0.8913
  381MOL0     H51407   1.421   7.408   0.934  2.0423  4.0264 -2.4423
  381MOL0     H51408   1.483   7.402   1.099  0.4791  0.1809  0.0378
  381MOL0     H51409   1.293   7.484   1.209  1.2376  0.0275  0.0828
  381MOL0     H51410   1.283   7.320   1.135  0.1127  0.0704  0.1894
  381MOL0     H51411   1.078   7.481   1.126 -2.4129 -0.3656 -2.5649
  381MOL0     H51412   1.157   7.581   1.014 -1.0332  0.8014  0.2916
  381MOL0     H51413   1.060   7.303   0.985  1.2577 -0.2736  0.1403
  381MOL0     H51414   1.214   7.345   0.893 -0.0420 -1.3702  1.0032
  381MOL0     H51415   1.031   7.383   0.754  3.0834  0.9471 -1.0263
  381MOL0     H51416   1.103   7.536   0.808  1.5675 -1.3689 -0.0575
  381MOL0     H51417   1.708   8.019   0.856 -0.7015  2.2632 -0.1224
  381MOL0     H51418   1.903   8.152   0.724 -0.2441 -0.7751 -1.5911
  381MOL0     H51419   2.180   8.257   0.464  1.0114  1.2693  0.5858
  381MOL0     H51420   2.349   8.398   0.375  1.9064  1.3057  2.5469
  381MOL0     H51421   4.425   8.198   0.726 -0.3039  2.8534  3.2800
  381MOL0     H51422   4.666   8.228   0.735 -0.0204  1.0133  0.1429
  381MOL0     H51423   5.076   8.131   0.324 -2.2565  1.6952  0.9272
  381MOL0     H51424   5.298   8.112   0.356  0.4927  0.8479 -0.3529
  381MOL0     H51425   5.522   8.301   0.685 -0.9888 -0.3994 -3.3086
  381MOL0     H51426   5.470   8.158   0.770 -0.1721  0.3335  1.2781
  381MOL0     H51427   5.703   8.120   0.569  0.2257 -0.7452 -0.1256
  381MOL0     H51428   5.653   8.022   0.697  0.8472 -0.8998 -2.0445
  381MOL0     H51429   5.723   8.224   0.861  0.1702  0.8519 -0.0196
  381MOL0     H51430   5.785   8.298   0.713 -3.0383  0.5993 -0.9642
  381MOL0     H51431   5.887   8.052   0.683  1.5194  1.3032 -0.4063
  381MOL0     H51432   5.861   8.051   0.859  0.4216  2.9893  2.1726
  381MOL0     H51433   6.179   8.312   0.834 -0.4206  2.0485 -0.4538
  381MOL0     H51434   5.267   8.313   0.730 -0.1587  0.8858 -0.6271
  381MOL0     H51435   5.018   8.332   0.696 -0.2038 -3.0026  1.9616
  382MOL0     O51436   8.783   8.325   7.842 -0.6277 -0.6811 -0.4892
  382MOL0     C51437   8.884   8.270   7.803 -0.2368 -0.1357  0.5907
  382MOL0     O51438   8.904   8.206   7.686  0.8481  0.1135 -0.5242
  382MOL0     C51439   8.793   8.189   7.607  0.3467 -1.1383 -0.3810
  382MOL0     C51440   8.817   8.204   7.470 -0.7116 -0.0856 -0.2050
  382MOL0     C51441   8.716   8.177   7.383 -0.0152 -0.9657  0.1648
  382MOL0     C51442   8.583   8.140   7.423 -0.1081 -0.0820 -0.5354
  382MOL0     O51443   8.487   8.128   7.325 -0.0769 -0.0639 -0.0912
  382MOL0     C51444   8.453   7.987   7.304 -0.4979 -0.2508  0.7429
  382MOL0     C51445   8.320   7.953   7.385 -1.1618  1.0364 -0.0236
  382MOL0     C51446   8.258   7.830   7.334  0.0338 -0.4662 -0.1372
  382MOL0     C51447   8.131   7.799   7.415 -1.2410 -0.1691  0.6485
  382MOL0     C51448   8.098   7.656   7.391  0.7127  0.8931  0.1310
  382MOL0     C51449   7.951   7.638   7.430 -0.0176 -0.1750 -0.0960
  382MOL0     C51450   7.908   7.498   7.385 -0.3198 -0.1274  0.1861
  382MOL0     C51451   7.802   7.445   7.477 -0.1748  0.3834 -0.1527
  382MOL0     N51452   7.680   7.528   7.483 -0.7429  0.4445  0.1574
  382MOL0     C51453   7.644   7.578   7.609  0.6240  0.3700 -0.2959
  382MOL0     C51454   7.511   7.618   7.587  0.8540 -0.2488  0.0299
  382MOL0     C51455   7.417   7.672   7.696  0.5500  0.6613  0.6259
  382MOL0     C51456   7.369   7.563   7.797  0.1754 -1.0179  1.7320
  382MOL0     C51457   7.269   7.623   7.895  1.3867 -0.1967 -0.0692
  382MOL0     C51458   7.212   7.517   7.982 -0.5966  0.3324  0.0655
  382MOL0     O51459   7.124   7.422   7.918  0.4009  0.3122 -0.3329
  382MOL0     C51460   7.069   7.339   8.021  0.2971 -0.2975  0.6051
  382MOL0     C51461   7.136   7.222   8.055  0.0425 -0.8236 -0.7769
  382MOL0     C51462   7.087   7.134   8.154 -0.7991 -0.0309 -0.6983
  382MOL0     C51463   7.177   7.012   8.191 -0.3595  0.8660 -0.4658
  382MOL0     C51464   6.967   7.170   8.220 -0.4905  0.4364  0.1999
  382MOL0     C51465   6.883   7.075   8.302 -0.7814 -0.3659  0.4726
  382MOL0     O51466   6.873   6.941   8.256  0.5213  0.0884  0.2023
  382MOL0     C51467   6.792   6.857   8.328 -0.0524  0.5238  0.1367
  382MOL0     C51468   6.685   6.793   8.260  0.3915 -0.5848  0.5548
  382MOL0     C51469   6.612   6.684   8.320 -0.4969  0.2658 -0.5679
  382MOL0     C51470   6.624   6.656   8.458 -0.1469 -0.6860 -0.1856
  382MOL0     O51471   6.541   6.559   8.510  0.0245 -0.1056  1.0512
  382MOL0     C51472   6.508   6.579   8.650  0.7514 -0.0529  0.9228
  382MOL0     C51473   6.386   6.506   8.690 -0.1266  0.0734 -0.3027
  382MOL0     C51474   6.253   6.541   8.629  0.7326 -0.0890  0.2962
  382MOL0     C51475   6.165   6.412   8.588  0.5117  0.4944  0.2017
  382MOL0     C51476   6.220   6.344   8.464  0.4498 -0.0912  0.1793
  382MOL0     C51477   6.219   6.433   8.338  0.4436 -0.3507  0.4332
  382MOL0     C51478   6.237   6.351   8.211  0.2590 -0.0902  0.8689
  382MOL0     C51479   6.382   6.281   8.198 -0.3313 -0.4603 -0.0812
  382MOL0    Cl51480   6.395   6.190   8.051 -0.0835  0.1974 -0.1793
  382MOL0     C51481   6.728   6.717   8.525  0.5603  0.4315 -0.6070
  382MOL0     C51482   6.809   6.811   8.463 -0.3273  0.0778 -0.5059
  382MOL0     O51483   6.842   7.111   8.413 -0.7185 -0.1646  0.0716
  382MOL0     C51484   6.893   7.285   8.174  0.4108  0.3087  1.1941
  382MOL0     C51485   6.944   7.369   8.073  0.2162  0.4664  0.3856
  382MOL0     N51486   7.483   7.608   7.455 -0.4332 -0.7768  0.0897
  382MOL0     N51487   7.582   7.552   7.392  0.4975 -0.2544 -0.1220
  382MOL0     C51488   8.552   8.125   7.557  0.0528  0.1892 -0.9930
  382MOL0     C51489   8.661   8.139   7.649  0.1209  0.5896  0.1736
  382MOL0     C51490   9.008   8.274   7.894  0.3067  0.6092  0.1566
  382MOL0     C51491   9.141   8.251   7.837  0.1460  0.0555  0.1586
  382MOL0     C51492   9.254   8.233   7.925  0.6106 -0.2757  0.7024
  382MOL0     C51493   9.235   8.256   8.070 -0.0697 -0.6267  0.2546
  382MOL0     O51494   9.345   8.248   8.160  0.8625  0.8193 -0.1580
  382MOL0     C51495   9.483   8.291   8.117  0.7510  0.3786 -0.8738
  382MOL0     C51496   9.569   8.311   8.241 -0.7019 -0.1841  0.3016
  382MOL0     C51497   9.597   8.179   8.314 -0.2595 -0.3893  0.7667
  382MOL0     C51498   9.697   8.198   8.427 -0.2021  0.4096 -0.1800
  382MOL0     C51499   9.634   8.252   8.551  0.2990  0.3895 -0.9598
  382MOL0     C51500   9.608   8.304   8.655  0.1795 -0.7360  0.0822
  382MOL0     C51501   9.102   8.285   8.113 -0.4495  0.8222  0.2515
  382MOL0     C51502   8.998   8.290   8.032  1.1785 -0.1216  0.3399
  382MOL0     H51503   8.914   8.246   7.443  0.5619 -1.9687  1.1835
  382MOL0     H51504   8.732   8.173   7.275 -0.9125  0.6412 -0.0506
  382MOL0     H51505   8.428   7.972   7.198 -2.5171  1.3798  0.9131
  382MOL0     H51506   8.531   7.916   7.333  2.8474  0.8225 -4.3318
  382MOL0     H51507   8.347   7.926   7.487  2.1562  1.5841 -0.6510
  382MOL0     H51508   8.251   8.038   7.379 -1.7093  0.6561  0.7144
  382MOL0     H51509   8.230   7.839   7.228  0.5043  1.5263 -0.1380
  382MOL0     H51510   8.328   7.746   7.342 -0.2216 -1.0016 -2.6293
  382MOL0     H51511   8.143   7.811   7.523  1.7220 -0.1360  0.4098
  382MOL0     H51512   8.047   7.863   7.388  2.5034  5.2467  0.1383
  382MOL0     H51513   8.110   7.638   7.284 -2.2732  0.4179 -0.2154
  382MOL0     H51514   8.160   7.588   7.450 -1.8972 -0.1680  1.8787
  382MOL0     H51515   7.945   7.641   7.539  0.8158  1.4510 -0.0720
  382MOL0     H51516   7.878   7.709   7.390 -1.9781 -0.1427  3.2288
  382MOL0     H51517   7.870   7.498   7.283  2.5710  1.4305 -1.0001
  382MOL0     H51518   7.994   7.431   7.395 -0.3183 -0.0487  0.7275
  382MOL0     H51519   7.841   7.429   7.578 -2.7333 -2.1362  0.5744
  382MOL0     H51520   7.779   7.343   7.444 -1.0882 -0.2417  2.1882
  382MOL0     H51521   7.700   7.585   7.702  3.0923 -1.6455 -1.5175
  382MOL0     H51522   7.456   7.754   7.756 -0.4131 -1.1614  4.0335
  382MOL0     H51523   7.333   7.700   7.631  3.4111  2.2138 -2.6761
  382MOL0     H51524   7.453   7.520   7.852  0.4383 -1.9661  0.6300
  382MOL0     H51525   7.323   7.481   7.741 -1.1248 -2.4389  4.6777
  382MOL0     H51526   7.194   7.683   7.842  0.7016 -0.7576  0.2503
  382MOL0     H51527   7.328   7.684   7.963  0.5324 -1.9397  2.3929
  382MOL0     H51528   7.150   7.568   8.057  1.1945  2.8857 -0.0432
  382MOL0     H51529   7.299   7.465   8.023 -0.6798  0.1397 -0.0048
  382MOL0     H51530   7.234   7.209   8.009  0.0495 -1.1741 -0.6684
  382MOL0     H51531   7.151   6.929   8.125  1.4219  0.5927 -0.8864
  382MOL0     H51532   7.284   7.036   8.187 -0.0130  0.2301  2.5944
  382MOL0     H51533   7.164   6.984   8.295 -0.9417  4.6264  0.6139
  382MOL0     H51534   6.689   6.825   8.157  2.0583 -1.8262  0.1928
  382MOL0     H51535   6.550   6.623   8.256  0.3935 -0.1236 -1.0806
  382MOL0     H51536   6.591   6.548   8.714  1.5911 -1.8048 -0.8805
  382MOL0     H51537   6.483   6.685   8.664  0.6040 -0.0581  0.7172
  382MOL0     H51538   6.406   6.399   8.691 -1.6344 -0.2440  1.5683
  382MOL0     H51539   6.383   6.530   8.797 -0.4180  0.5015 -0.4059
  382MOL0     H51540   6.268   6.602   8.540 -1.5310  0.4759  0.2345
  382MOL0     H51541   6.196   6.604   8.698 -2.6689 -0.6836 -1.7708
  382MOL0     H51542   6.150   6.345   8.673  1.0609 -3.7096 -2.6579
  382MOL0     H51543   6.072   6.459   8.554  1.3083  1.7266 -0.3558
  382MOL0     H51544   6.157   6.256   8.448  1.0927 -0.1974 -2.0324
  382MOL0     H51545   6.321   6.305   8.478 -0.2484 -1.9082  0.4706
  382MOL0     H51546   6.119   6.479   8.332  0.9649  0.7494 -0.2240
  382MOL0     H51547   6.297   6.509   8.348  1.6397 -1.7098  2.0407
  382MOL0     H51548   6.226   6.422   8.129  0.7937 -1.3604 -0.3517
  382MOL0     H51549   6.168   6.268   8.194 -0.2550  0.7006 -1.2911
  382MOL0     H51550   6.382   6.207   8.278 -0.4235  0.9927  1.3267
  382MOL0     H51551   6.464   6.353   8.208 -1.2968  0.3199  3.5228
  382MOL0     H51552   6.732   6.701   8.632 -2.6285 -1.1667 -0.6146
  382MOL0     H51553   6.888   6.854   8.523 -1.0179 -0.6420  0.9843
  382MOL0     H51554   6.794   7.310   8.211 -0.7304 -1.3711 -0.5418
  382MOL0     H51555   6.883   7.452   8.040 -0.1913  0.9452  2.2267
  382MOL0     H51556   8.460   8.081   7.593  0.5639  1.5364  2.3771
  382MOL0     H51557   8.642   8.121   7.754  1.9992 -3.7840 -0.0427
  382MOL0     H51558   9.161   8.250   7.730 -1.6071 -3.1010 -0.2472
  382MOL0     H51559   9.350   8.225   7.875 -0.4972 -2.0658 -1.3140
  382MOL0     H51560   9.528   8.209   8.060  0.5354 -0.0211 -0.4737
  382MOL0     H51561   9.462   8.379   8.056 -3.0698 -1.9910 -3.3770
  382MOL0     H51562   9.527   8.383   8.312  0.7221  2.2358 -1.1379
  382MOL0     H51563   9.659   8.358   8.199 -2.4308  3.2264  0.0447
  382MOL0     H51564   9.633   8.115   8.234 -0.6123 -1.7514  1.6630
  382MOL0     H51565   9.506   8.138   8.359 -0.7960  1.1177  1.1170
  382MOL0     H51566   9.777   8.263   8.390  2.4526 -0.9775  2.6273
  382MOL0     H51567   9.753   8.107   8.452 -1.0396  0.3023  1.3911
  382MOL0     H51568   9.577   8.354   8.745 -1.7606 -0.9192 -0.4478
  382MOL0     H51569   9.082   8.302   8.218 -1.5284  1.2847 -0.0147
  382MOL0     H51570   8.902   8.299   8.081  2.4423  2.8127  2.5973
  383MOL0     O51571   9.008  10.278  10.351  0.0610 -0.1550 -0.0514
  383MOL0     C51572   9.037  10.382  10.407 -0.5086  0.3823 -0.6280
  383MOL0     O51573   8.961  10.491  10.402 -1.1426  0.0659 -1.0013
  383MOL0     C51574   8.833  10.479  10.357  0.1604  0.0039  0.1702
  383MOL0     C51575   8.813  10.474  10.224  0.0294 -1.0842 -0.3008
  383MOL0     C51576   8.687  10.447  10.166  0.4385  0.5769  0.5196
  383MOL0     C51577   8.582  10.426  10.245 -0.4553 -0.2192  0.0799
  383MOL0     O51578   8.456  10.420  10.199 -0.0068 -0.8197 -0.6347
  383MOL0     C51579   8.378  10.301  10.249 -0.4623 -0.2357  0.3994
  383MOL0     C51580   8.252  10.288  10.172 -0.0681  0.9905  0.0955
  383MOL0     C51581   8.163  10.159  10.219  0.4754 -1.4621 -0.1038
  383MOL0     C51582   8.038  10.167  10.145 -0.1608 -0.4816  0.2379
  383MOL0     C51583   7.936  10.071  10.205 -0.6513 -0.5138  0.6291
  383MOL0     C51584   7.794  10.084  10.156 -0.5224 -0.4374  0.2509
  383MOL0     C51585   7.784  10.048  10.003 -0.0124  0.7223  0.4424
  383MOL0     C51586   7.796   9.894   9.973 -0.3003  0.5424  0.8189
  383MOL0     N51587   7.695   9.814  10.046  0.0293 -0.4623 -0.3802
  383MOL0     C51588   7.565   9.824  10.010 -0.5301  0.0138  0.2872
  383MOL0     C51589   7.502   9.748  10.101 -0.8476 -0.6740 -0.4583
  383MOL0     C51590   7.353   9.729  10.118 -0.2450  0.9131 -1.3088
  383MOL0     C51591   7.290   9.611  10.041  0.6205 -0.2934 -1.2596
  383MOL0     C51592   7.281   9.488  10.138 -0.8037  0.7545  0.7595
  383MOL0     C51593   7.325   9.368  10.052  0.4564  0.6901  0.1376
  383MOL0     O51594   7.267   9.250  10.110  0.3771  0.1116 -0.5630
  383MOL0     C51595   7.131   9.231  10.105 -0.1620 -0.3070 -0.1111
  383MOL0     C51596   7.073   9.139  10.195 -0.1872  0.2820 -0.0921
  383MOL0     C51597   6.936   9.115  10.203 -1.1254  0.1990 -1.1174
  383MOL0     C51598   6.891   9.021  10.318  0.1258 -0.4845 -0.0329
  383MOL0     C51599   6.857   9.170  10.097 -0.3040 -0.4628 -0.3765
  383MOL0     C51600   6.709   9.134  10.073 -0.5281 -0.3073  0.0944
  383MOL0     O51601   6.654   9.206   9.985 -0.1811 -0.6131  0.2064
  383MOL0     C51602   6.531   9.186   9.931 -0.4150 -0.4436  0.4454
  383MOL0     C51603   6.447   9.293   9.894  0.2641  0.3060  0.2769
  383MOL0     C51604   6.319   9.271   9.839 -0.4438 -0.7872 -0.7674
  383MOL0     C51605   6.276   9.144   9.813  0.1642 -0.4875  0.1418
  383MOL0     O51606   6.155   9.141   9.747  0.2498 -0.0870 -0.5380
  383MOL0     C51607   6.079   9.017   9.747 -0.3936  0.0594  0.5870
  383MOL0     C51608   5.968   9.022   9.644  0.5289  0.2389 -0.7156
  383MOL0     C51609   5.878   8.906   9.680  0.2903 -0.2874 -0.7943
  383MOL0     C51610   5.783   8.878   9.566  0.1250 -1.0451  0.0593
  383MOL0     C51611   5.714   8.747   9.584 -0.0343  1.0510 -1.2100
  383MOL0     C51612   5.621   8.740   9.706  0.1893  0.0565  0.6684
  383MOL0     C51613   5.538   8.610   9.700 -0.6356  0.7140 -0.4052
  383MOL0     C51614   5.424   8.625   9.802  0.0220 -0.1323 -1.0281
  383MOL0    Cl51615   5.306   8.481   9.817 -0.3894  0.3457  0.1271
  383MOL0     C51616   6.346   9.033   9.854  0.4914 -0.3962  0.3546
  383MOL0     C51617   6.469   9.058   9.914 -0.9245  0.1231  0.3075
  383MOL0     O51618   6.658   9.040  10.128  0.6413 -0.1730  0.2772
  383MOL0     C51619   6.905   9.270  10.012  0.5908  0.1594 -0.5657
  383MOL0     C51620   7.037   9.306  10.024 -1.0388  0.4524 -0.1064
  383MOL0     N51621   7.603   9.686  10.174  0.1299  0.4405  0.1246
  383MOL0     N51622   7.717   9.731  10.146  0.3795 -0.5968  0.4081
  383MOL0     C51623   8.607  10.421  10.386  1.0749 -0.3194 -0.3352
  383MOL0     C51624   8.727  10.446  10.439 -0.1669  0.0095 -0.4370
  383MOL0     C51625   9.180  10.403  10.452 -0.1064 -0.3517 -0.4295
  383MOL0     C51626   9.231  10.527  10.482 -0.1304  0.4469  0.0313
  383MOL0     C51627   9.370  10.541  10.526  0.9136  0.6321  0.0305
  383MOL0     C51628   9.449  10.430  10.535  0.0586  0.2280 -0.3754
  383MOL0     O51629   9.570  10.428  10.598 -0.1947 -0.5692 -0.6309
  383MOL0     C51630   9.646  10.550  10.628  0.0311  0.3672  0.0588
  383MOL0     C51631   9.787  10.500  10.673 -0.5076 -0.0609 -0.2930
  383MOL0     C51632   9.854  10.453  10.541  0.6412 -0.6372  0.5205
  383MOL0     C51633   9.978  10.370  10.574 -0.0393 -0.0067 -0.0360
  383MOL0     C51634  10.090  10.469  10.576 -0.0552  1.1614 -0.1533
  383MOL0     C51635  10.183  10.538  10.575 -0.1195 -0.4945 -0.2410
  383MOL0     C51636   9.399  10.311  10.500  0.0680  0.1637  1.0991
  383MOL0     C51637   9.270  10.292  10.463  0.4236  0.5864  0.3487
  383MOL0     H51638   8.887  10.500  10.149 -0.9453  0.6232 -0.7288
  383MOL0     H51639   8.669  10.464  10.061 -0.9207  0.1115  0.6498
  383MOL0     H51640   8.437  10.210  10.236  1.5998  1.1642 -0.6863
  383MOL0     H51641   8.353  10.315  10.355 -0.8345  2.3582  0.0529
  383MOL0     H51642   8.196  10.381  10.167  2.0476  2.3576  0.2658
  383MOL0     H51643   8.284  10.261  10.071  1.2059  1.5978  0.3105
  383MOL0     H51644   8.214  10.062  10.215  1.2362 -1.0409 -2.7242
  383MOL0     H51645   8.149  10.173  10.327 -0.9683  2.7102 -0.6565
  383MOL0     H51646   7.991  10.263  10.169 -1.5462 -1.2825  0.9106
  383MOL0     H51647   8.055  10.147  10.039 -0.8095 -0.1906  0.0739
  383MOL0     H51648   7.978   9.970  10.199  1.3184  0.3248 -4.2180
  383MOL0     H51649   7.930  10.090  10.313  0.3656 -0.4429  0.6914
  383MOL0     H51650   7.734  10.019  10.220 -0.6852 -0.2082  0.3359
  383MOL0     H51651   7.773  10.190  10.177  1.7004  0.2027 -0.4125
  383MOL0     H51652   7.685  10.068   9.960 -0.4018 -0.1405  0.8986
  383MOL0     H51653   7.855  10.098   9.937 -0.1442 -1.2955 -1.3296
  383MOL0     H51654   7.895   9.858  10.002  0.5204  0.9955 -1.2979
  383MOL0     H51655   7.798   9.875   9.866  0.4151  2.1658  0.5167
  383MOL0     H51656   7.526   9.882   9.928 -1.1780 -2.0604 -0.9646
  383MOL0     H51657   7.331   9.725  10.225 -1.6452  1.9231 -1.5372
  383MOL0     H51658   7.304   9.818  10.078 -2.2365  1.2443  1.5609
  383MOL0     H51659   7.352   9.595   9.952 -0.3182  0.6471 -2.0947
  383MOL0     H51660   7.189   9.631  10.007  0.1753 -1.5696 -0.7522
  383MOL0     H51661   7.179   9.466  10.170 -0.3298  0.0934  1.8540
  383MOL0     H51662   7.336   9.496  10.232 -2.9187  0.2020  2.1034
  383MOL0     H51663   7.433   9.372  10.038  0.5362 -3.0461 -1.5656
  383MOL0     H51664   7.293   9.383   9.948  0.3742  0.5223  0.1387
  383MOL0     H51665   7.139   9.073  10.251 -1.3178 -0.2560  0.6474
  383MOL0     H51666   6.928   8.918  10.323 -1.1537 -0.9758 -0.2210
  383MOL0     H51667   6.915   9.080  10.407 -1.6744  0.3552 -0.0609
  383MOL0     H51668   6.782   9.019  10.325  0.1636  1.3737  2.6508
  383MOL0     H51669   6.469   9.398   9.910  0.3431  0.3973 -0.4124
  383MOL0     H51670   6.239   9.341   9.821 -0.4724 -0.4646  0.4831
  383MOL0     H51671   6.151   8.941   9.714  0.8356  2.1813 -2.0348
  383MOL0     H51672   6.047   8.991   9.848  1.8853 -0.2904  1.2814
  383MOL0     H51673   5.914   9.115   9.665 -0.5557 -0.3667 -0.7349
  383MOL0     H51674   6.004   9.018   9.541 -0.7884  0.2972 -1.1966
  383MOL0     H51675   5.825   8.930   9.773  2.6890  0.3595  0.4814
  383MOL0     H51676   5.946   8.825   9.709  1.9312  0.6014 -1.9859
  383MOL0     H51677   5.721   8.968   9.564  4.2119  2.0772  0.9440
  383MOL0     H51678   5.833   8.877   9.469 -0.6147 -1.6245 -0.3260
  383MOL0     H51679   5.783   8.664   9.599 -1.5581 -0.5729 -2.7115
  383MOL0     H51680   5.657   8.723   9.494  0.8858  2.0837 -2.1081
  383MOL0     H51681   5.674   8.736   9.801  2.5741 -1.2046 -0.6123
  383MOL0     H51682   5.568   8.834   9.720  1.0385  0.3296  2.1988
  383MOL0     H51683   5.597   8.522   9.727 -4.4369 -1.8726  0.1475
  383MOL0     H51684   5.493   8.596   9.602 -0.2571  1.5843 -0.7137
  383MOL0     H51685   5.367   8.715   9.773 -2.1657 -1.2280 -0.3665
  383MOL0     H51686   5.461   8.637   9.904 -1.3341 -1.6409 -0.3071
  383MOL0     H51687   6.312   8.930   9.843  1.8829 -0.7549 -0.8459
  383MOL0     H51688   6.522   8.965   9.932  2.5250  1.1548 -3.0712
  383MOL0     H51689   6.843   9.327   9.944 -0.6369 -1.7317 -1.1119
  383MOL0     H51690   7.079   9.381   9.957  0.2347 -0.8218 -0.8094
  383MOL0     H51691   8.516  10.411  10.446 -0.7726 -0.6151 -2.9929
  383MOL0     H51692   8.739  10.439  10.546  0.6353  0.1619 -0.5092
  383MOL0     H51693   9.169  10.615  10.477  0.3549  0.7723 -0.3639
  383MOL0     H51694   9.402  10.632  10.575 -1.5640 -0.3662  4.0071
  383MOL0     H51695   9.649  10.618  10.543 -2.1937  1.0903  0.4938
  383MOL0     H51696   9.607  10.616  10.705  2.2109  1.9475 -0.0782
  383MOL0     H51697   9.780  10.409  10.732 -1.6600  0.2221  0.0330
  383MOL0     H51698   9.851  10.569  10.728 -0.2083 -0.2910 -0.3510
  383MOL0     H51699   9.881  10.537  10.477  0.8671 -0.4023  0.9179
  383MOL0     H51700   9.779  10.389  10.494  2.4500 -1.2185 -1.7764
  383MOL0     H51701  10.006  10.286  10.509  0.3113 -0.8951  1.2366
  383MOL0     H51702   9.960  10.318  10.668 -0.2213 -1.5542 -0.9012
  383MOL0     H51703  10.273  10.596  10.583 -0.6868  0.4292 -0.4141
  383MOL0     H51704   9.464  10.225  10.511 -0.3760 -0.1816  1.0432
  383MOL0     H51705   9.222  10.196  10.448 -1.9700  1.8864 -0.9307
  384MOL0     O51706  10.992   0.233   1.506  0.5490  0.0546  0.3045
  384MOL0     C51707  11.047   0.241   1.614 -0.2360  0.4366 -0.3603
  384MOL0     O51708  10.980   0.277   1.728 -0.0892  0.3593  0.2335
  384MOL0     C51709  10.839   0.295   1.745  0.4270 -0.0485  0.7049
  384MOL0     C51710  10.759   0.350   1.642 -0.1442 -1.0014  0.2470
  384MOL0     C51711  10.624   0.364   1.667 -0.9916  0.0427  0.0235
  384MOL0     C51712  10.573   0.335   1.792 -0.4582 -0.2825 -0.6429
  384MOL0     O51713  10.439   0.362   1.820  0.0289  0.3210 -0.0153
  384MOL0     C51714  10.390   0.495   1.771  0.4862 -0.0891  0.4085
  384MOL0     C51715  10.258   0.534   1.830 -0.6287 -0.4100  0.1258
  384MOL0     C51716  10.155   0.437   1.829  0.3048  0.3096 -0.0899
  384MOL0     C51717  10.113   0.387   1.690  0.5733 -0.0214  0.3181
  384MOL0     C51718   9.970   0.327   1.672 -0.5081  0.6355 -0.5606
  384MOL0     C51719   9.960   0.188   1.742 -0.2641  0.1680 -0.1918
  384MOL0     C51720   9.808   0.156   1.762 -0.3627 -0.0354 -1.1515
  384MOL0     C51721   9.738   0.142   1.639 -0.2758  0.1141 -0.0241
  384MOL0     N51722   9.626   0.051   1.653  0.2499  0.4665 -0.0980
  384MOL0     C51723   9.579  -0.044   1.563 -0.5392 -0.4571 -0.1710
  384MOL0     C51724   9.465  -0.092   1.617 -0.3528  0.3042  0.3580
  384MOL0     C51725   9.382  -0.201   1.547  0.9450  0.3033 -0.4692
  384MOL0     C51726   9.276  -0.253   1.641  1.8042 -0.4998  0.0576
  384MOL0     C51727   9.176  -0.336   1.554  0.9300  0.3615 -0.5269
  384MOL0     C51728   9.060  -0.403   1.640 -0.3924  0.0122 -0.2699
  384MOL0     O51729   8.948  -0.310   1.647 -0.8456  0.0885 -0.3280
  384MOL0     C51730   8.821  -0.358   1.646  0.0083 -0.1830 -0.1172
  384MOL0     C51731   8.772  -0.474   1.700 -0.6017  0.0446  0.0421
  384MOL0     C51732   8.632  -0.504   1.707 -0.9377 -1.3322 -1.0731
  384MOL0     C51733   8.586  -0.620   1.799 -0.7218 -0.9896 -0.2649
  384MOL0     C51734   8.542  -0.395   1.667  0.2285  0.1906 -1.5403
  384MOL0     C51735   8.389  -0.399   1.689  0.6314  0.2779 -0.5395
  384MOL0     O51736   8.313  -0.290   1.646 -0.7648 -0.6634  0.3107
  384MOL0     C51737   8.181  -0.300   1.643  0.5528 -0.7275  1.1510
  384MOL0     C51738   8.120  -0.331   1.527  0.3369  0.3026 -0.9559
  384MOL0     C51739   7.980  -0.326   1.518 -0.1731  0.1266 -1.0110
  384MOL0     C51740   7.896  -0.297   1.630 -0.2017 -0.2588  1.2490
  384MOL0     O51741   7.760  -0.297   1.627  0.5344 -0.0729 -0.0560
  384MOL0     C51742   7.681  -0.343   1.515 -0.1817  0.0808 -0.3158
  384MOL0     C51743   7.659  -0.244   1.398  0.7153  0.0750 -0.3789
  384MOL0     C51744   7.661  -0.326   1.271 -0.0994 -0.1349  0.0260
  384MOL0     C51745   7.607  -0.251   1.149  0.0927  0.1669  0.5824
  384MOL0     C51746   7.592  -0.347   1.030 -0.0896 -0.1407  0.1054
  384MOL0     C51747   7.446  -0.407   1.007  0.4116  0.5089 -0.8497
  384MOL0     C51748   7.432  -0.484   0.875  0.9117  0.6052 -0.2716
  384MOL0     C51749   7.286  -0.513   0.824 -1.0015 -0.1193 -0.7559
  384MOL0    Cl51750   7.283  -0.617   0.684  0.0540  0.3036 -0.6155
  384MOL0     C51751   7.965  -0.248   1.741 -0.1152  0.2786  0.1139
  384MOL0     C51752   8.107  -0.258   1.751  0.1491 -0.6450  0.0658
  384MOL0     O51753   8.335  -0.499   1.737  0.6305  0.4048  0.7010
  384MOL0     C51754   8.593  -0.281   1.602  0.5993 -0.0642  1.0629
  384MOL0     C51755   8.730  -0.262   1.606  0.0881 -0.0211 -0.3173
  384MOL0     N51756   9.435  -0.020   1.732  0.0829  0.2240  0.9181
  384MOL0     N51757   9.527   0.061   1.746 -0.4465 -0.2129 -0.1036
  384MOL0     C51758  10.656   0.304   1.894  0.2045  1.1379 -0.7997
  384MOL0     C51759  10.782   0.266   1.875 -0.2861  0.0518 -0.1931
  384MOL0     C51760  11.197   0.210   1.626  0.2727 -0.8170 -0.0686
  384MOL0     C51761  11.256   0.242   1.745 -0.7517 -0.1466 -0.8965
  384MOL0     C51762  11.393   0.225   1.755 -0.5314  0.3092  0.2842
  384MOL0     C51763  11.468   0.174   1.654  0.5181 -0.9485  0.1696
  384MOL0     O51764  11.601   0.159   1.686  0.3412 -0.3135 -0.5671
  384MOL0     C51765  11.680   0.082   1.594 -1.6300 -0.3556  0.4423
  384MOL0     C51766  11.820   0.059   1.645  0.0767 -0.5188  0.3809
  384MOL0     C51767  11.919   0.181   1.639  0.5921  0.9018 -0.5935
  384MOL0     C51768  11.920   0.267   1.761  0.0861  0.0090  0.4200
  384MOL0     C51769  12.008   0.216   1.867 -0.9568  0.3449 -0.3749
  384MOL0     C51770  12.083   0.187   1.955  0.4425 -0.2464 -0.0121
  384MOL0     C51771  11.407   0.155   1.530 -0.7815  0.0850 -0.5674
  384MOL0     C51772  11.272   0.172   1.510  0.1312  1.1641 -0.3066
  384MOL0     H51773  10.798   0.384   1.547  1.1476 -1.0772  0.7292
  384MOL0     H51774  10.545   0.390   1.597 -0.9291 -0.6142 -0.3033
  384MOL0     H51775  10.461   0.574   1.798  0.4921  0.1493 -0.2804
  384MOL0     H51776  10.379   0.492   1.662  0.4474 -0.4625  0.4199
  384MOL0     H51777  10.278   0.578   1.928 -0.6869  0.6258 -0.3048
  384MOL0     H51778  10.212   0.616   1.773 -2.4086 -0.4517  1.4382
  384MOL0     H51779  10.182   0.345   1.882  1.5810 -0.0129 -1.2438
  384MOL0     H51780  10.067   0.481   1.878  0.0239 -0.2719 -0.0524
  384MOL0     H51781  10.119   0.473   1.623  1.9969 -0.9294 -0.7960
  384MOL0     H51782  10.176   0.311   1.643  0.7922  1.3992 -1.8110
  384MOL0     H51783   9.888   0.388   1.711 -0.9257  1.0737 -2.0801
  384MOL0     H51784   9.959   0.320   1.564  1.7248  0.7668 -0.8487
  384MOL0     H51785  10.013   0.109   1.688 -0.1541 -0.2222  0.4776
  384MOL0     H51786  10.013   0.198   1.837 -2.1075 -1.0250  1.0507
  384MOL0     H51787   9.792   0.062   1.816 -1.2173  0.0488 -1.2465
  384MOL0     H51788   9.766   0.239   1.820 -0.3082  0.6967 -2.1469
  384MOL0     H51789   9.804   0.085   1.574 -0.6930 -1.2208  0.6944
  384MOL0     H51790   9.716   0.240   1.595  1.1804  0.8700  0.8292
  384MOL0     H51791   9.625  -0.065   1.466 -0.2145  1.6956 -0.5485
  384MOL0     H51792   9.348  -0.175   1.447  0.6318  1.5724 -0.0513
  384MOL0     H51793   9.450  -0.284   1.527  0.6578  0.1859 -0.9742
  384MOL0     H51794   9.227  -0.163   1.680  5.1308  0.4591  2.5471
  384MOL0     H51795   9.326  -0.299   1.727  0.5987 -0.4645  0.8057
  384MOL0     H51796   9.230  -0.416   1.502  1.2352 -0.9997  1.7246
  384MOL0     H51797   9.140  -0.275   1.471  0.7753 -0.1318 -0.8253
  384MOL0     H51798   9.088  -0.442   1.738 -2.9361 -2.5685 -0.4241
  384MOL0     H51799   9.040  -0.491   1.578  0.2061 -0.4022  0.1129
  384MOL0     H51800   8.843  -0.547   1.740 -2.1367 -1.4495  0.1680
  384MOL0     H51801   8.510  -0.687   1.757 -1.5911 -0.9370  1.1695
  384MOL0     H51802   8.674  -0.676   1.832 -0.1829  1.1529  2.2682
  384MOL0     H51803   8.545  -0.573   1.889 -0.8482  2.6705 -2.0236
  384MOL0     H51804   8.184  -0.372   1.450 -0.8376  2.8299 -3.4519
  384MOL0     H51805   7.925  -0.361   1.432 -1.0680 -0.1953 -0.3324
  384MOL0     H51806   7.720  -0.435   1.471  0.2165  0.7797 -1.4872
  384MOL0     H51807   7.579  -0.361   1.550  0.7130  0.3306  2.6158
  384MOL0     H51808   7.562  -0.195   1.409  0.0589 -1.2812  0.2077
  384MOL0     H51809   7.743  -0.175   1.395  0.3182  0.8223  2.5178
  384MOL0     H51810   7.598  -0.413   1.293  0.6213  0.1235  3.8196
  384MOL0     H51811   7.762  -0.358   1.244  1.2765  3.7712 -0.1465
  384MOL0     H51812   7.512  -0.203   1.174 -0.1580  0.5229 -0.9890
  384MOL0     H51813   7.684  -0.177   1.126 -0.0426  0.6110  1.5030
  384MOL0     H51814   7.657  -0.434   1.038 -1.7386 -1.5603 -1.1197
  384MOL0     H51815   7.617  -0.286   0.942  3.0657 -0.6662  0.5193
  384MOL0     H51816   7.422  -0.475   1.088  2.8343  1.4572  0.8026
  384MOL0     H51817   7.371  -0.328   0.998 -1.1539 -0.8631 -0.2409
  384MOL0     H51818   7.487  -0.577   0.888 -0.3587  0.0440  1.4568
  384MOL0     H51819   7.477  -0.417   0.801  1.8565  0.7714  0.4343
  384MOL0     H51820   7.243  -0.419   0.790  2.5952  0.5028 -4.4080
  384MOL0     H51821   7.226  -0.569   0.897 -1.6309 -1.9964 -2.6135
  384MOL0     H51822   7.896  -0.208   1.815 -0.6587 -0.2196 -0.1177
  384MOL0     H51823   8.163  -0.229   1.839  0.9869  1.1092 -1.0023
  384MOL0     H51824   8.509  -0.217   1.575  0.0608 -0.4623  1.7717
  384MOL0     H51825   8.771  -0.173   1.558  2.0555  0.2011  1.6289
  384MOL0     H51826  10.623   0.299   1.997  1.3062 -0.7997 -0.4829
  384MOL0     H51827  10.844   0.232   1.958 -0.8792  0.6415  0.4962
  384MOL0     H51828  11.201   0.266   1.835 -1.4466 -0.3717 -1.2596
  384MOL0     H51829  11.444   0.224   1.851  1.7882  1.4789 -0.8255
  384MOL0     H51830  11.630  -0.015   1.585 -1.7739 -0.2531  0.1445
  384MOL0     H51831  11.686   0.134   1.498 -2.5188  1.3163  1.2491
  384MOL0     H51832  11.869  -0.013   1.578  0.8701  2.2509 -2.2358
  384MOL0     H51833  11.826   0.028   1.750  2.5930  1.9740  1.1005
  384MOL0     H51834  11.901   0.241   1.549 -0.6262  2.3270  0.5387
  384MOL0     H51835  12.019   0.139   1.632  0.3691  0.2241  0.1728
  384MOL0     H51836  11.819   0.271   1.803 -0.5944 -3.8695 -0.4247
  384MOL0     H51837  11.949   0.367   1.728  2.0076 -0.9493 -0.9342
  384MOL0     H51838  12.145   0.145   2.032  1.6693 -1.8379 -1.7904
  384MOL0     H51839  11.465   0.112   1.448  1.0654 -0.7151  1.0745
  384MOL0     H51840  11.225   0.150   1.414  1.3906 -0.2758 -0.6400
  385MOL0     O51841   2.940   4.863   8.923 -0.4434 -0.1580 -0.1450
  385MOL0     C51842   2.941   4.985   8.910  0.5074  0.5082  0.1542
  385MOL0     O51843   2.856   5.061   8.843  0.2105 -0.7705  0.1889
  385MOL0     C51844   2.724   5.021   8.819  0.0391  1.0158  0.6533
  385MOL0     C51845   2.662   5.074   8.704 -0.6714  0.3863  0.5113
  385MOL0     C51846   2.537   5.038   8.666 -0.0546 -0.3073  0.4497
  385MOL0     C51847   2.466   4.946   8.745  0.4016  0.5102 -0.1953
  385MOL0     O51848   2.348   4.876   8.699  0.7547 -0.2923 -0.8295
  385MOL0     C51849   2.270   4.933   8.592 -0.0790 -0.1162  0.5597
  385MOL0     C51850   2.151   4.840   8.552  0.0822 -0.3178 -0.4387
  385MOL0     C51851   2.036   4.844   8.654 -0.1271  0.1531  0.2574
  385MOL0     C51852   1.909   4.774   8.593  0.4742 -0.3246 -0.1089
  385MOL0     C51853   1.783   4.843   8.658  0.2356 -0.1691 -0.0533
  385MOL0     C51854   1.655   4.761   8.638 -0.2079 -0.1948  0.2891
  385MOL0     C51855   1.521   4.830   8.672 -0.1146  0.1285  0.2209
  385MOL0     C51856   1.498   4.962   8.602 -0.0158 -0.0319  0.0503
  385MOL0     N51857   1.528   4.957   8.455  0.2293 -0.0629 -0.1000
  385MOL0     C51858   1.440   4.899   8.370 -0.3076 -0.1847  0.0503
  385MOL0     C51859   1.484   4.929   8.248 -1.2896  0.5275 -1.5140
  385MOL0     C51860   1.433   4.886   8.114 -0.5759  0.7509 -0.2320
  385MOL0     C51861   1.280   4.886   8.105 -0.3051  0.1702  0.4140
  385MOL0     C51862   1.236   4.833   7.963  0.3184 -1.0732 -0.7745
  385MOL0     C51863   1.092   4.804   7.945  0.3137 -0.1451 -0.3121
  385MOL0     O51864   1.032   4.720   8.042 -0.3376 -0.1899  0.3688
  385MOL0     C51865   0.890   4.711   8.046 -0.2933 -0.3659  0.6936
  385MOL0     C51866   0.836   4.610   8.126 -0.0013  0.4835  0.0691
  385MOL0     C51867   0.693   4.587   8.136  0.8103 -0.5526 -0.1889
  385MOL0     C51868   0.636   4.499   8.248  0.3757 -0.9562  0.4679
  385MOL0     C51869   0.606   4.667   8.053 -0.1494  0.2810 -0.1073
  385MOL0     C51870   0.455   4.663   8.058 -0.1679  0.3513 -0.9208
  385MOL0     O51871   0.398   4.788   8.042 -0.1153 -0.4924 -0.1331
  385MOL0     C51872   0.264   4.805   8.023 -0.5361  0.2947 -0.1141
  385MOL0     C51873   0.179   4.799   8.143 -0.2987 -0.2324 -0.3477
  385MOL0     C51874   0.041   4.823   8.125  0.1020  0.7382  0.3318
  385MOL0     C51875  -0.025   4.827   7.998 -0.9672  0.7526  0.3849
  385MOL0     O51876  -0.163   4.842   7.979  0.4691  0.3642  0.0366
  385MOL0     C51877  -0.240   4.758   8.075  0.0758  0.4976  0.1445
  385MOL0     C51878  -0.363   4.717   8.004 -0.6028  0.2374  0.1681
  385MOL0     C51879  -0.338   4.614   7.904 -0.7104  0.1369  0.2801
  385MOL0     C51880  -0.464   4.625   7.812  0.5755 -0.2271 -0.3693
  385MOL0     C51881  -0.476   4.511   7.707  0.1992 -0.0792  0.0572
  385MOL0     C51882  -0.619   4.491   7.653 -0.6021 -0.6142  0.0258
  385MOL0     C51883  -0.632   4.357   7.578 -0.9131 -0.4963 -0.2203
  385MOL0     C51884  -0.771   4.330   7.521  0.1724  0.0544  0.0590
  385MOL0    Cl51885  -0.894   4.338   7.655 -0.4054 -0.0640 -0.5973
  385MOL0     C51886   0.058   4.827   7.885 -0.6576 -0.8178 -0.0557
  385MOL0     C51887   0.201   4.812   7.891 -0.3181  0.3600 -0.2659
  385MOL0     O51888   0.395   4.556   8.055 -0.9603 -0.4616  0.0614
  385MOL0     C51889   0.666   4.777   7.989  0.0666  0.0978  0.5389
  385MOL0     C51890   0.796   4.799   7.979 -0.3152 -0.1823  0.7288
  385MOL0     N51891   1.602   5.002   8.262 -0.3997  0.4037 -0.7289
  385MOL0     N51892   1.619   5.023   8.388 -0.1873 -0.2135 -0.1101
  385MOL0     C51893   2.525   4.893   8.864 -0.4331  0.1080 -0.1182
  385MOL0     C51894   2.656   4.929   8.895  0.6012 -0.4166 -0.5791
  385MOL0     C51895   3.055   5.052   8.987 -0.0283 -0.1310  1.7056
  385MOL0     C51896   3.050   5.194   8.992 -0.9064 -0.1163  0.9358
  385MOL0     C51897   3.157   5.260   9.056  0.3658  0.0748 -1.0190
  385MOL0     C51898   3.267   5.197   9.116  0.9800 -0.3118  0.8591
  385MOL0     O51899   3.371   5.269   9.187  0.3894 -0.4055  0.6272
  385MOL0     C51900   3.353   5.406   9.202  0.1199 -0.9883 -0.4000
  385MOL0     C51901   3.248   5.441   9.313  0.0187 -0.2715  0.9583
  385MOL0     C51902   3.323   5.422   9.444  0.1798 -0.4534  0.1549
  385MOL0     C51903   3.225   5.475   9.563 -0.2215  0.5094  0.4759
  385MOL0     C51904   3.133   5.362   9.591 -0.6378  0.4664  0.5580
  385MOL0     C51905   3.060   5.271   9.615  0.2887  0.0711  0.0467
  385MOL0     C51906   3.278   5.060   9.095 -0.1807  0.6446  0.5990
  385MOL0     C51907   3.170   4.986   9.032  0.3468 -0.4118 -0.0435
  385MOL0     H51908   2.724   5.137   8.642  0.9173 -1.2553  0.3336
  385MOL0     H51909   2.511   5.085   8.571  2.1553 -0.7425 -0.4463
  385MOL0     H51910   2.230   5.027   8.630  0.9441  1.4246 -1.9288
  385MOL0     H51911   2.333   4.965   8.508 -0.1309 -2.4092 -0.4285
  385MOL0     H51912   2.113   4.861   8.452 -3.4597  0.7138  0.9834
  385MOL0     H51913   2.191   4.738   8.560  0.4486 -0.0352  2.4059
  385MOL0     H51914   2.064   4.796   8.749 -1.0164  2.2725  1.6792
  385MOL0     H51915   2.018   4.950   8.675  0.3749  0.0975  1.0112
  385MOL0     H51916   1.904   4.791   8.485 -1.4305 -1.2525 -0.2050
  385MOL0     H51917   1.902   4.667   8.613 -1.6659 -0.2910 -0.4469
  385MOL0     H51918   1.797   4.846   8.767 -0.4218 -0.8928  0.0627
  385MOL0     H51919   1.762   4.947   8.629 -0.3691 -0.3834 -0.4029
  385MOL0     H51920   1.656   4.723   8.535  0.3951 -0.6735  0.4685
  385MOL0     H51921   1.664   4.673   8.702 -2.5084  0.7597  2.0397
  385MOL0     H51922   1.440   4.771   8.630  2.3884 -1.6308 -2.5714
  385MOL0     H51923   1.516   4.843   8.781  1.9153 -3.1797  0.8511
  385MOL0     H51924   1.557   5.042   8.647 -0.0472  1.1737 -1.9277
  385MOL0     H51925   1.394   4.995   8.614 -0.1276 -0.6673  0.9460
  385MOL0     H51926   1.355   4.834   8.389 -0.5514  0.5084  1.5117
  385MOL0     H51927   1.474   4.953   8.038  0.4199  1.4700  0.9142
  385MOL0     H51928   1.463   4.782   8.097 -2.4010  0.2789 -0.8346
  385MOL0     H51929   1.244   4.985   8.132 -2.4601 -0.8823  1.7449
  385MOL0     H51930   1.240   4.820   8.182 -4.0792  0.7069 -0.8960
  385MOL0     H51931   1.290   4.741   7.938  1.7106 -0.1873 -1.1506
  385MOL0     H51932   1.274   4.906   7.890 -1.1073  0.6038  0.1079
  385MOL0     H51933   1.072   4.747   7.854 -0.4998 -1.0680  0.4117
  385MOL0     H51934   1.039   4.899   7.946  2.3794  1.2409  4.2318
  385MOL0     H51935   0.913   4.559   8.182  0.2308 -1.0561 -1.5505
  385MOL0     H51936   0.552   4.436   8.219  0.1734 -1.8835  2.8246
  385MOL0     H51937   0.716   4.434   8.282  2.3729  0.0235 -2.0285
  385MOL0     H51938   0.606   4.567   8.329  2.7104  1.4478 -0.5133
  385MOL0     H51939   0.221   4.783   8.242  1.4401 -2.5709 -1.3822
  385MOL0     H51940  -0.006   4.831   8.223 -0.5744 -1.5328  0.2522
  385MOL0     H51941  -0.176   4.679   8.117  0.7518 -0.2100 -2.0670
  385MOL0     H51942  -0.269   4.832   8.151 -0.4374  2.5259 -1.9323
  385MOL0     H51943  -0.430   4.671   8.078 -0.9680  4.4754  2.7984
  385MOL0     H51944  -0.411   4.808   7.967 -1.1432 -0.2686 -0.3998
  385MOL0     H51945  -0.312   4.519   7.951  3.4989  1.0763  0.2325
  385MOL0     H51946  -0.258   4.638   7.834 -1.1464 -1.4885 -0.8490
  385MOL0     H51947  -0.558   4.608   7.866 -1.5821  0.8898 -3.4590
  385MOL0     H51948  -0.458   4.729   7.778  3.4499 -0.4999 -0.8964
  385MOL0     H51949  -0.454   4.416   7.756 -0.1600  1.1682  2.9093
  385MOL0     H51950  -0.401   4.545   7.635  0.1325 -0.7586 -0.3402
  385MOL0     H51951  -0.698   4.504   7.727  1.2200 -0.1413  1.9937
  385MOL0     H51952  -0.651   4.566   7.581  2.0057 -0.7337 -1.3701
  385MOL0     H51953  -0.607   4.266   7.633  2.6825  0.3354 -0.2015
  385MOL0     H51954  -0.557   4.347   7.499  0.4769 -0.1586  1.0012
  385MOL0     H51955  -0.783   4.230   7.478 -0.8406  0.0201  0.3901
  385MOL0     H51956  -0.797   4.403   7.443 -0.3771  1.1992  1.2748
  385MOL0     H51957   0.012   4.837   7.787  0.9836  0.1512 -0.7714
  385MOL0     H51958   0.272   4.803   7.809  0.4051 -0.3195  0.4221
  385MOL0     H51959   0.593   4.832   7.931 -1.6977  0.1628  2.7120
  385MOL0     H51960   0.837   4.881   7.920  0.6486  1.3316  3.3593
  385MOL0     H51961   2.464   4.821   8.918 -0.7792 -0.3548 -1.1125
  385MOL0     H51962   2.703   4.892   8.985  0.9170 -1.8288 -1.2933
  385MOL0     H51963   2.962   5.241   8.949 -1.4315 -3.3990 -2.0209
  385MOL0     H51964   3.148   5.368   9.054  1.1209  0.2643  1.8200
  385MOL0     H51965   3.452   5.446   9.225  0.8222 -0.3523 -4.0080
  385MOL0     H51966   3.328   5.446   9.104 -1.0746  0.9295  0.6401
  385MOL0     H51967   3.161   5.378   9.295 -0.5413  1.1764 -2.0544
  385MOL0     H51968   3.226   5.547   9.295  0.5494 -0.4600 -0.9399
  385MOL0     H51969   3.410   5.488   9.443  0.1544 -0.4094  0.6391
  385MOL0     H51970   3.358   5.321   9.469 -1.5103 -0.3448  3.5236
  385MOL0     H51971   3.171   5.564   9.531 -0.9592 -0.1215 -0.0549
  385MOL0     H51972   3.290   5.485   9.650  0.2240 -0.8861  0.3262
  385MOL0     H51973   3.007   5.181   9.640  4.4487 -2.0258  2.4210
  385MOL0     H51974   3.354   4.996   9.139  0.7099 -0.0316 -1.7486
  385MOL0     H51975   3.169   4.878   9.017  1.5625 -0.3043 -0.9960
  386MOL0     O51976   7.452   5.020  10.196 -0.7851  0.0384 -0.0537
  386MOL0     C51977   7.552   4.968  10.255  0.1725 -0.1083  0.7620
  386MOL0     O51978   7.552   4.929  10.390  0.8828 -0.3502  0.2310
  386MOL0     C51979   7.453   4.974  10.467 -0.3153 -0.8361  0.6526
  386MOL0     C51980   7.417   4.890  10.571 -1.1537 -0.9632 -0.3164
  386MOL0     C51981   7.308   4.925  10.648 -0.0312  1.3631 -0.7996
  386MOL0     C51982   7.222   5.031  10.619  0.2840  0.3324 -0.7979
  386MOL0     O51983   7.111   5.056  10.701  0.4617  0.7492 -0.6430
  386MOL0     C51984   7.020   5.165  10.671 -0.5699  0.9663  1.5094
  386MOL0     C51985   6.896   5.165  10.757  0.1938  0.5107 -0.6558
  386MOL0     C51986   6.827   5.299  10.731  0.3709 -0.9216 -1.4551
  386MOL0     C51987   6.691   5.296  10.792  0.1918  0.8447 -0.4251
  386MOL0     C51988   6.598   5.414  10.752  0.1382 -0.3534  0.2428
  386MOL0     C51989   6.446   5.402  10.796  0.0062  0.1179 -0.3388
  386MOL0     C51990   6.415   5.405  10.948  0.0181  0.2846  0.9515
  386MOL0     C51991   6.442   5.540  11.013  0.3085  0.9054 -0.6358
  386MOL0     N51992   6.309   5.601  11.060  0.4453 -0.2788 -0.2454
  386MOL0     C51993   6.253   5.603  11.184  0.3874 -0.3255 -0.3523
  386MOL0     C51994   6.133   5.671  11.168 -0.5258  0.3637  0.2242
  386MOL0     C51995   6.034   5.714  11.271  0.6855  0.8965  0.0547
  386MOL0     C51996   5.922   5.626  11.274  0.5301 -0.0595 -0.4300
  386MOL0     C51997   5.813   5.683  11.362  0.0753 -0.9864  0.1540
  386MOL0     C51998   5.694   5.587  11.383  0.5045 -0.2496  0.0370
  386MOL0     O51999   5.588   5.670  11.424  0.8041  1.3759 -0.2030
  386MOL0     C52000   5.466   5.639  11.379  0.8738 -0.8177 -1.0726
  386MOL0     C52001   5.364   5.737  11.354  0.6668  1.1100  0.6286
  386MOL0     C52002   5.229   5.691  11.327 -0.1658  0.1016  0.2240
  386MOL0     C52003   5.133   5.801  11.285 -0.1526 -0.2581  0.4518
  386MOL0     C52004   5.195   5.558  11.337 -0.8184  0.0885 -0.6496
  386MOL0     C52005   5.060   5.503  11.339  0.1592 -0.0261  0.9815
  386MOL0     O52006   5.038   5.366  11.321  0.1957 -0.4558  0.0776
  386MOL0     C52007   4.920   5.315  11.283  0.4420  0.4405 -1.0931
  386MOL0     C52008   4.878   5.289  11.152  0.5311  0.1617  0.8620
  386MOL0     C52009   4.748   5.235  11.134 -0.5565  0.5221 -1.1859
  386MOL0     C52010   4.663   5.213  11.242  0.2514  0.0679 -0.9341
  386MOL0     O52011   4.532   5.176  11.208 -0.1210 -0.5087  0.5441
  386MOL0     C52012   4.421   5.205  11.299 -0.1081  0.2863  0.0684
  386MOL0     C52013   4.391   5.069  11.366 -0.1385  0.6176  0.6334
  386MOL0     C52014   4.317   5.073  11.495  0.1713 -0.1684 -0.5509
  386MOL0     C52015   4.319   4.939  11.571 -0.4400  0.3102  0.3283
  386MOL0     C52016   4.256   4.958  11.721 -0.0643  0.5999  0.4159
  386MOL0     C52017   4.266   4.819  11.787  0.0490  0.5356 -0.1594
  386MOL0     C52018   4.143   4.741  11.740  0.3577  0.1890 -0.7131
  386MOL0     C52019   4.123   4.624  11.840 -0.5579  0.2889  0.2845
  386MOL0    Cl52020   4.034   4.674  11.982  0.2193 -0.3734 -0.3493
  386MOL0     C52021   4.703   5.239  11.377  0.1007 -0.5523  0.7839
  386MOL0     C52022   4.835   5.286  11.390 -0.1875 -0.1746 -0.1093
  386MOL0     O52023   4.970   5.576  11.369 -0.0666  0.2594 -0.8011
  386MOL0     C52024   5.294   5.464  11.369 -1.2577  0.4103  0.0813
  386MOL0     C52025   5.424   5.509  11.373 -0.1505  0.0591  0.1734
  386MOL0     N52026   6.118   5.700  11.033  0.2499  0.6832  0.1386
  386MOL0     N52027   6.228   5.669  10.973 -0.2940 -0.6627 -0.3643
  386MOL0     C52028   7.265   5.119  10.523  0.7362  0.9297  0.5814
  386MOL0     C52029   7.375   5.084  10.443  0.3434  0.3131 -0.7766
  386MOL0     C52030   7.665   4.925  10.172  0.6140 -0.7096  0.1236
  386MOL0     C52031   7.652   4.906  10.025  0.0563  0.3491 -0.6658
  386MOL0     C52032   7.768   4.865   9.959 -0.0349 -0.4678 -0.0227
  386MOL0     C52033   7.892   4.846  10.031 -0.0108 -0.0040  0.6164
  386MOL0     O52034   8.008   4.800   9.962  0.0085 -0.3896 -0.0594
  386MOL0     C52035   7.999   4.702   9.867  0.0959  0.2621 -0.1764
  386MOL0     C52036   8.111   4.595   9.881 -0.0742 -0.5666 -0.2518
  386MOL0     C52037   8.157   4.570  10.027  0.0084 -0.0667 -0.3455
  386MOL0     C52038   8.272   4.471  10.020  0.2993 -0.2646  0.7851
  386MOL0     C52039   8.217   4.342  10.056  0.2812 -0.5332  0.2491
  386MOL0     C52040   8.177   4.232  10.081  0.7385  0.2247 -0.5831
  386MOL0     C52041   7.897   4.873  10.170 -1.0699  0.4204  0.5403
  386MOL0     C52042   7.782   4.908  10.239  0.3630  0.5481  0.8118
  386MOL0     H52043   7.477   4.801  10.585 -0.8907 -1.0475 -1.8673
  386MOL0     H52044   7.279   4.844  10.715  1.4589  1.4663  0.0212
  386MOL0     H52045   7.077   5.258  10.676  2.8178 -0.8030 -0.7480
  386MOL0     H52046   6.991   5.155  10.566 -0.0506 -0.6396  1.4951
  386MOL0     H52047   6.833   5.076  10.749  0.0983  0.3248  1.5998
  386MOL0     H52048   6.927   5.175  10.861  0.9044  2.7775 -1.0149
  386MOL0     H52049   6.888   5.378  10.776 -3.2287  1.4353 -0.2956
  386MOL0     H52050   6.814   5.320  10.625  0.3634  4.2851 -0.6635
  386MOL0     H52051   6.636   5.211  10.752 -1.7365  2.0476 -0.4239
  386MOL0     H52052   6.690   5.281  10.900  0.4687 -0.5687 -0.5985
  386MOL0     H52053   6.643   5.505  10.793  3.3351 -1.2488 -1.0308
  386MOL0     H52054   6.588   5.423  10.644 -0.8283 -0.9798  0.2652
  386MOL0     H52055   6.394   5.484  10.746  0.7596  0.1860 -1.0497
  386MOL0     H52056   6.421   5.312  10.739 -0.8436  0.4480 -0.4934
  386MOL0     H52057   6.310   5.382  10.967 -0.1514  2.1579  2.6303
  386MOL0     H52058   6.477   5.325  10.989  1.4402 -0.9403 -3.0903
  386MOL0     H52059   6.497   5.599  10.939  1.4873  0.8492  0.1580
  386MOL0     H52060   6.509   5.521  11.098 -0.2603  1.7692  0.0233
  386MOL0     H52061   6.279   5.548  11.274  0.2170 -1.9668 -1.2776
  386MOL0     H52062   6.083   5.716  11.369  0.7348  1.2546  0.0235
  386MOL0     H52063   5.982   5.806  11.245 -0.0218 -0.1371 -2.5050
  386MOL0     H52064   5.946   5.524  11.307  1.7901  0.8493  1.6604
  386MOL0     H52065   5.867   5.607  11.181 -0.2021  1.5198 -0.3590
  386MOL0     H52066   5.786   5.785  11.331  1.2642 -1.2087 -1.8075
  386MOL0     H52067   5.860   5.686  11.461 -1.2964 -1.1378  0.8256
  386MOL0     H52068   5.723   5.514  11.458 -2.7264  1.4531  3.2221
  386MOL0     H52069   5.675   5.545  11.284 -0.2609 -3.0906  1.3114
  386MOL0     H52070   5.384   5.843  11.356  0.5612  1.1268  0.7703
  386MOL0     H52071   5.082   5.852  11.367  0.7159 -1.2792  1.6692
  386MOL0     H52072   5.189   5.877  11.230  1.3219 -1.7944 -0.2900
  386MOL0     H52073   5.054   5.764  11.219 -0.5059  0.2719  0.5704
  386MOL0     H52074   4.944   5.323  11.073 -0.2969 -1.6211 -0.6828
  386MOL0     H52075   4.708   5.231  11.034 -0.0454  1.2284 -1.4242
  386MOL0     H52076   4.456   5.288  11.361  0.4494  1.4720 -1.7462
  386MOL0     H52077   4.320   5.231  11.264  0.2874  1.6422 -0.1147
  386MOL0     H52078   4.346   4.991  11.304 -0.2102  1.2324 -0.1031
  386MOL0     H52079   4.488   5.020  11.382 -1.9671 -2.4401  3.6761
  386MOL0     H52080   4.216   5.115  11.489  1.2396  3.1339  1.6985
  386MOL0     H52081   4.360   5.142  11.568 -3.8123  1.5255  0.4873
  386MOL0     H52082   4.266   4.861  11.516  1.4369 -0.1449 -0.9419
  386MOL0     H52083   4.425   4.912  11.573 -0.2150  0.9300 -1.4751
  386MOL0     H52084   4.156   5.002  11.715 -1.3523 -2.0247  1.2302
  386MOL0     H52085   4.324   5.017  11.781  1.6917  3.9101 -4.2405
  386MOL0     H52086   4.353   4.755  11.769  0.0635  0.5336 -0.0837
  386MOL0     H52087   4.268   4.852  11.891 -0.5055 -0.8808  0.3278
  386MOL0     H52088   4.173   4.704  11.643  1.9012 -0.6591  0.0639
  386MOL0     H52089   4.050   4.799  11.744  1.8436  2.6478  1.0308
  386MOL0     H52090   4.218   4.585  11.876 -0.1487  1.6591  0.7305
  386MOL0     H52091   4.068   4.543  11.791  2.1310 -0.5325 -1.5749
  386MOL0     H52092   4.642   5.235  11.467 -2.0115  0.8909 -0.5118
  386MOL0     H52093   4.867   5.305  11.491 -3.1997  1.8976  0.5959
  386MOL0     H52094   5.271   5.359  11.379  0.6954 -0.0456  0.2831
  386MOL0     H52095   5.504   5.436  11.379  2.7130  2.7446 -2.1252
  386MOL0     H52096   7.215   5.214  10.507 -0.4106  0.8989  3.3078
  386MOL0     H52097   7.405   5.152  10.364 -2.2175 -0.5541 -2.6603
  386MOL0     H52098   7.563   4.933   9.970 -2.3522  1.3346  3.3110
  386MOL0     H52099   7.753   4.860   9.852  0.6064  1.9202 -0.2822
  386MOL0     H52100   7.898   4.660   9.863 -1.1187  2.8305  1.0483
  386MOL0     H52101   8.011   4.756   9.773 -1.7612  1.2624  0.1055
  386MOL0     H52102   8.197   4.644   9.833 -1.5023  1.9446 -0.4380
  386MOL0     H52103   8.085   4.500   9.832 -0.0335 -1.3555  1.2134
  386MOL0     H52104   8.063   4.531  10.069 -3.6925  3.7759 -4.0462
  386MOL0     H52105   8.195   4.662  10.071  1.4301 -1.3737  1.3035
  386MOL0     H52106   8.339   4.502  10.100 -4.8724  2.7698  4.6107
  386MOL0     H52107   8.331   4.471   9.927  0.4759  0.1308  0.8951
  386MOL0     H52108   8.141   4.133  10.101  1.6835  0.1322  0.8568
  386MOL0     H52109   7.993   4.852  10.215 -0.9577 -1.6499 -0.5476
  386MOL0     H52110   7.792   4.936  10.343  0.2190  0.4587  0.8504
  387MOL0     O52111   0.485   1.910   7.766  0.0160  0.6559 -0.2634
  387MOL0     C52112   0.461   1.844   7.864  1.1280  0.4962 -0.6548
  387MOL0     O52113   0.362   1.873   7.962  0.2414 -0.8820  0.4102
  387MOL0     C52114   0.250   1.948   7.924 -0.1193 -0.8013 -0.6027
  387MOL0     C52115   0.198   1.961   7.795  0.3223  0.5651  0.3156
  387MOL0     C52116   0.097   2.043   7.759 -0.5383 -0.0361 -0.0727
  387MOL0     C52117   0.035   2.136   7.850  0.3130  0.4606 -0.1570
  387MOL0     O52118  -0.067   2.211   7.820 -0.4440 -0.0204 -0.2622
  387MOL0     C52119  -0.121   2.293   7.923 -0.2070  0.3845 -0.3514
  387MOL0     C52120  -0.236   2.359   7.852  1.0823 -0.3474  0.7862
  387MOL0     C52121  -0.343   2.420   7.948 -0.3213  0.3120  0.4089
  387MOL0     C52122  -0.457   2.481   7.866 -0.1497  0.1109  0.9618
  387MOL0     C52123  -0.551   2.570   7.958  0.0003  0.3854  0.4297
  387MOL0     C52124  -0.664   2.495   8.029 -0.0605  0.7465 -0.1398
  387MOL0     C52125  -0.791   2.577   8.054  0.1343 -0.1076  1.0588
  387MOL0     C52126  -0.888   2.501   8.151 -0.5044 -0.2426  0.5216
  387MOL0     N52127  -1.002   2.593   8.189  0.4487 -0.1682  0.2874
  387MOL0     C52128  -1.131   2.570   8.148 -0.0190  0.7065  1.1318
  387MOL0     C52129  -1.207   2.666   8.210  0.1081  0.1306  0.3250
  387MOL0     C52130  -1.354   2.695   8.189 -0.3304  0.7099 -0.0549
  387MOL0     C52131  -1.417   2.644   8.073  0.3680 -0.7648  0.2778
  387MOL0     C52132  -1.559   2.700   8.065  0.2886  0.2988  0.8247
  387MOL0     C52133  -1.619   2.659   7.925 -0.2744  0.3050 -0.4209
  387MOL0     O52134  -1.643   2.517   7.935 -0.1538  0.3576 -0.3541
  387MOL0     C52135  -1.775   2.478   7.974 -0.3467  0.2150  0.8656
  387MOL0     C52136  -1.811   2.341   7.949  0.1690 -0.9783 -0.6584
  387MOL0     C52137  -1.945   2.303   7.962 -0.3163 -1.1569 -0.5959
  387MOL0     C52138  -1.979   2.155   7.922  0.2381 -0.6852  0.1277
  387MOL0     C52139  -2.045   2.390   8.006 -0.4094 -0.1446 -0.1818
  387MOL0     C52140  -2.177   2.363   8.018  0.4459  0.7292  0.6051
  387MOL0     O52141  -2.209   2.239   8.063  1.1006 -0.5180  0.3204
  387MOL0     C52142  -2.344   2.217   8.085 -0.9392  0.0397 -0.8623
  387MOL0     C52143  -2.382   2.233   8.220 -0.1017  0.1333 -0.0686
  387MOL0     C52144  -2.518   2.211   8.249 -0.2898  0.4527 -0.4086
  387MOL0     C52145  -2.607   2.145   8.153 -0.6460  0.7876 -0.6772
  387MOL0     O52146  -2.737   2.114   8.174 -0.1808 -0.0667 -0.1356
  387MOL0     C52147  -2.764   2.067   8.306  0.9532  0.3370 -0.5268
  387MOL0     C52148  -2.905   2.005   8.290  0.2820  0.6647  0.3285
  387MOL0     C52149  -3.019   2.105   8.249  0.2580  0.6997 -0.4480
  387MOL0     C52150  -3.017   2.228   8.330 -0.1879 -1.2588 -0.0632
  387MOL0     C52151  -3.142   2.319   8.315  0.5756  0.7162  0.6827
  387MOL0     C52152  -3.257   2.261   8.399 -0.0329  0.2855  0.1164
  387MOL0     C52153  -3.379   2.328   8.345 -0.2756 -0.7642  0.6416
  387MOL0     C52154  -3.497   2.294   8.420  0.6369 -0.1691 -0.5737
  387MOL0    Cl52155  -3.637   2.363   8.341  0.0030  0.0968  0.3744
  387MOL0     C52156  -2.556   2.125   8.029  0.2301 -0.3165  0.1030
  387MOL0     C52157  -2.428   2.156   7.992  0.6484 -0.1751 -0.2452
  387MOL0     O52158  -2.257   2.449   7.977 -0.2284 -0.1813 -0.0205
  387MOL0     C52159  -2.008   2.528   8.037 -0.3030  0.1144  0.1328
  387MOL0     C52160  -1.868   2.567   8.025 -0.0613 -1.1428  0.5094
  387MOL0     N52161  -1.114   2.728   8.300 -0.2433  0.4694 -0.3194
  387MOL0     N52162  -0.996   2.680   8.292  0.4975 -0.7246 -0.4337
  387MOL0     C52163   0.083   2.112   7.986  0.2818 -1.0742  0.0355
  387MOL0     C52164   0.187   2.029   8.021  0.1080 -0.3266  0.6393
  387MOL0     C52165   0.546   1.723   7.883 -0.3410  0.8081 -1.1580
  387MOL0     C52166   0.680   1.723   7.836 -0.0367  0.1163 -0.3352
  387MOL0     C52167   0.757   1.601   7.840  0.3698 -0.1295  0.6841
  387MOL0     C52168   0.698   1.480   7.883 -0.4807 -0.5580 -0.0265
  387MOL0     O52169   0.767   1.370   7.908 -0.3794  0.3830 -0.6533
  387MOL0     C52170   0.907   1.368   7.865 -0.9112 -0.1532 -0.2641
  387MOL0     C52171   0.965   1.234   7.901 -0.4697  0.8876 -0.3920
  387MOL0     C52172   1.117   1.222   7.885 -1.0360  0.0489 -0.1361
  387MOL0     C52173   1.178   1.098   7.943  0.8955 -0.0938  0.5713
  387MOL0     C52174   1.316   1.078   7.891 -0.5387  0.7948  0.1848
  387MOL0     C52175   1.432   1.060   7.861 -0.6221  0.4293  0.0920
  387MOL0     C52176   0.573   1.487   7.938  0.7616  0.4587  0.5477
  387MOL0     C52177   0.497   1.601   7.937 -0.0128 -1.0916  0.8512
  387MOL0     H52178   0.232   1.907   7.706  1.7329  1.1601  0.4617
  387MOL0     H52179   0.072   2.029   7.654  2.2960  0.0663 -0.8530
  387MOL0     H52180  -0.161   2.230   8.003 -3.8536  1.0938 -1.4017
  387MOL0     H52181  -0.047   2.361   7.966  0.9539 -1.6268  0.9920
  387MOL0     H52182  -0.195   2.447   7.802 -0.9128  1.4387  2.0848
  387MOL0     H52183  -0.286   2.288   7.786  3.8780  0.0076 -1.9533
  387MOL0     H52184  -0.388   2.342   8.009  1.8295 -0.2206  1.4222
  387MOL0     H52185  -0.306   2.495   8.017  0.3651 -1.9165  2.6009
  387MOL0     H52186  -0.414   2.550   7.793 -0.7482  0.4225  0.8952
  387MOL0     H52187  -0.517   2.406   7.813 -0.2409 -0.5310  1.9429
  387MOL0     H52188  -0.501   2.637   8.028 -1.0956  0.9242  0.7309
  387MOL0     H52189  -0.599   2.636   7.885  1.8303  0.8345 -0.4173
  387MOL0     H52190  -0.689   2.407   7.968  0.8494  0.3816 -0.0093
  387MOL0     H52191  -0.631   2.448   8.122  1.6179  0.3314 -0.9119
  387MOL0     H52192  -0.782   2.682   8.084  1.6807  0.8918 -2.3590
  387MOL0     H52193  -0.846   2.588   7.960  1.9570  2.0597  0.1506
  387MOL0     H52194  -0.846   2.459   8.243  2.1425  2.2699  0.6149
  387MOL0     H52195  -0.929   2.415   8.098 -3.4775  1.9781 -1.1125
  387MOL0     H52196  -1.172   2.510   8.067  0.2987  1.5097  0.3535
  387MOL0     H52197  -1.415   2.677   8.278 -0.3483  1.7403  0.1598
  387MOL0     H52198  -1.360   2.804   8.180  2.3373  0.8820 -0.7777
  387MOL0     H52199  -1.428   2.536   8.088  0.5738 -0.4140  3.9119
  387MOL0     H52200  -1.360   2.661   7.981  1.2828  1.1517  1.1460
  387MOL0     H52201  -1.567   2.809   8.076 -3.5094 -0.0585  3.6953
  387MOL0     H52202  -1.619   2.667   8.150  0.7529  2.6007  2.1294
  387MOL0     H52203  -1.542   2.672   7.849  1.5073 -1.6800  0.9213
  387MOL0     H52204  -1.709   2.719   7.908 -2.1356 -1.4540  2.3214
  387MOL0     H52205  -1.734   2.274   7.913  0.2510 -1.4319  0.3256
  387MOL0     H52206  -2.014   2.100   8.010 -0.5161  2.2348  1.7894
  387MOL0     H52207  -2.057   2.160   7.846  1.9287 -0.9905 -1.6972
  387MOL0     H52208  -1.899   2.090   7.886 -0.2418 -1.1255 -0.1421
  387MOL0     H52209  -2.312   2.299   8.271  1.0238 -0.9038 -0.2364
  387MOL0     H52210  -2.564   2.241   8.343  4.6177  0.5910  2.2599
  387MOL0     H52211  -2.701   1.983   8.336 -1.3323 -1.9292 -1.7425
  387MOL0     H52212  -2.781   2.144   8.382 -1.2267 -0.2841 -0.3344
  387MOL0     H52213  -2.910   1.931   8.210 -3.5215 -0.2745  1.2508
  387MOL0     H52214  -2.929   1.954   8.383  1.3093 -3.6771 -1.5459
  387MOL0     H52215  -3.117   2.059   8.261  0.3937  0.1494 -1.3770
  387MOL0     H52216  -2.999   2.129   8.144  2.3182 -1.5077 -0.6555
  387MOL0     H52217  -2.987   2.203   8.432  0.9356 -1.8991 -0.5347
  387MOL0     H52218  -2.933   2.292   8.303  0.4729 -1.0868  2.2178
  387MOL0     H52219  -3.168   2.316   8.209  1.8378 -0.9581  0.3741
  387MOL0     H52220  -3.133   2.425   8.341 -3.7439  1.0765  1.4857
  387MOL0     H52221  -3.263   2.153   8.384  2.4747  0.1913 -0.5642
  387MOL0     H52222  -3.250   2.267   8.508 -2.2235 -2.3729  0.5116
  387MOL0     H52223  -3.388   2.312   8.237 -2.3597  3.8384 -0.1217
  387MOL0     H52224  -3.365   2.436   8.354  3.5289 -1.1815  1.2474
  387MOL0     H52225  -3.508   2.334   8.521 -1.0099 -0.9772 -0.4001
  387MOL0     H52226  -3.505   2.185   8.428  1.1010 -0.2984 -1.6530
  387MOL0     H52227  -2.631   2.080   7.964 -1.6872  1.2707  1.1245
  387MOL0     H52228  -2.383   2.134   7.896  1.0009  1.8256 -0.5990
  387MOL0     H52229  -2.074   2.601   8.081 -1.2277 -1.4798  1.5351
  387MOL0     H52230  -1.835   2.664   8.061  1.9203 -0.5441 -2.6296
  387MOL0     H52231   0.046   2.179   8.063 -3.2015 -0.4625 -1.9340
  387MOL0     H52232   0.225   2.041   8.121  0.6137  3.2355  0.1416
  387MOL0     H52233   0.731   1.810   7.796 -1.3162  1.7396  1.4117
  387MOL0     H52234   0.861   1.615   7.810  0.5141  0.9323  1.5866
  387MOL0     H52235   0.913   1.382   7.757 -3.0574  0.4609 -0.3580
  387MOL0     H52236   0.966   1.443   7.919 -0.0609  0.1046 -1.5111
  387MOL0     H52237   0.920   1.152   7.845  0.6358 -0.8587  1.1643
  387MOL0     H52238   0.936   1.208   8.003  1.7104 -2.1767 -0.4304
  387MOL0     H52239   1.178   1.305   7.922  2.0785 -1.2413 -1.9128
  387MOL0     H52240   1.124   1.215   7.776 -2.6234  0.4374 -0.2867
  387MOL0     H52241   1.125   1.005   7.920  0.5068  0.0759  0.7715
  387MOL0     H52242   1.196   1.120   8.048  0.1699 -0.1289  0.7042
  387MOL0     H52243   1.531   1.054   7.821 -0.8111 -0.1925 -0.2958
  387MOL0     H52244   0.529   1.396   7.977 -0.4037  0.7756  0.0224
  387MOL0     H52245   0.397   1.596   7.981 -0.9184  1.2153 -0.7326
  388MOL0     O52246   2.308   3.535   8.277  0.7903  0.7787  0.0797
  388MOL0     C52247   2.364   3.445   8.336  0.8761  0.2797 -0.7117
  388MOL0     O52248   2.493   3.421   8.337 -0.0666 -0.2016 -0.4884
  388MOL0     C52249   2.574   3.489   8.253  0.0131 -0.7727  0.3056
  388MOL0     C52250   2.621   3.438   8.133 -0.5153 -0.1397 -0.1766
  388MOL0     C52251   2.718   3.512   8.065 -0.6416  0.5584  0.1272
  388MOL0     C52252   2.758   3.639   8.107  0.4057  0.4361 -0.2783
  388MOL0     O52253   2.846   3.691   8.018  0.4945 -0.2435 -0.0692
  388MOL0     C52254   2.913   3.818   8.035  0.1272 -0.0606  0.1125
  388MOL0     C52255   3.002   3.859   7.918 -0.3433  0.3073 -0.1261
  388MOL0     C52256   2.938   3.871   7.781 -0.5728  0.7944  0.0604
  388MOL0     C52257   2.810   3.962   7.787 -0.0221 -0.6670  0.0540
  388MOL0     C52258   2.754   3.969   7.646  0.5930  0.1817  0.4546
  388MOL0     C52259   2.640   4.068   7.610  0.1618 -0.0817 -0.0705
  388MOL0     C52260   2.593   4.057   7.463 -0.8346  0.7200 -0.3166
  388MOL0     C52261   2.504   4.178   7.430  0.0349 -0.3204  1.7186
  388MOL0     N52262   2.442   4.176   7.297  0.8507  0.1509  0.1790
  388MOL0     C52263   2.313   4.123   7.263 -0.1210 -0.2056  0.5121
  388MOL0     C52264   2.319   4.130   7.129 -0.1117  0.3191  0.4208
  388MOL0     C52265   2.221   4.076   7.028 -0.0547  0.5644 -0.4842
  388MOL0     C52266   2.089   4.157   7.028  0.2566  0.2595  0.2635
  388MOL0     C52267   1.995   4.103   6.924 -0.1895 -0.0900 -1.2511
  388MOL0     C52268   1.859   4.172   6.945  0.6618 -0.1582 -0.1889
  388MOL0     O52269   1.764   4.097   7.024 -0.2073  0.8035 -0.5347
  388MOL0     C52270   1.641   4.155   7.053  0.2009 -0.1556  0.3287
  388MOL0     C52271   1.601   4.290   7.036  0.6769  0.3016  0.1579
  388MOL0     C52272   1.472   4.332   7.063 -0.0562  0.1538  0.3084
  388MOL0     C52273   1.434   4.467   7.012  0.0960 -0.8819 -1.5075
  388MOL0     C52274   1.386   4.250   7.141  0.6152 -0.3869  0.4225
  388MOL0     C52275   1.244   4.286   7.190 -0.1230  0.0814  0.5452
  388MOL0     O52276   1.191   4.199   7.287 -0.9855  0.2341  0.1740
  388MOL0     C52277   1.061   4.204   7.311  0.3255 -0.0856  0.5628
  388MOL0     C52278   1.024   4.227   7.447 -0.6563 -0.1766  0.2433
  388MOL0     C52279   0.896   4.198   7.493  0.2714  0.0290  0.1417
  388MOL0     C52280   0.792   4.160   7.398  0.4134 -0.0546  0.2737
  388MOL0     O52281   0.664   4.139   7.442  0.5172 -0.7208 -0.0649
  388MOL0     C52282   0.570   4.227   7.395  0.2509 -0.7429  0.1954
  388MOL0     C52283   0.433   4.182   7.427  0.2150 -0.5537 -0.3844
  388MOL0     C52284   0.386   4.068   7.345  0.5018 -0.2312  0.0087
  388MOL0     C52285   0.234   4.042   7.367 -0.8415  0.1907  0.7164
  388MOL0     C52286   0.197   3.976   7.496 -0.2092 -0.6462  0.0513
  388MOL0     C52287   0.039   3.974   7.502 -0.1704 -0.0746 -0.2271
  388MOL0     C52288   0.006   3.851   7.436  0.2395  0.9017 -0.8303
  388MOL0     C52289  -0.005   3.737   7.536  0.2623 -0.0421  0.3972
  388MOL0    Cl52290  -0.026   3.585   7.440  0.3324  0.0510 -0.3186
  388MOL0     C52291   0.830   4.143   7.262  0.0256 -0.4500  0.2230
  388MOL0     C52292   0.965   4.148   7.224  0.0594  0.4775  0.2169
  388MOL0     O52293   1.178   4.375   7.127 -0.4746  0.7772 -0.1727
  388MOL0     C52294   1.437   4.121   7.168  0.0373  0.1507 -0.2950
  388MOL0     C52295   1.553   4.077   7.120 -0.2387  0.5494 -0.1700
  388MOL0     N52296   2.436   4.184   7.084  0.4629  0.6293  0.3378
  388MOL0     N52297   2.509   4.220   7.180 -0.0096 -0.1127  0.3307
  388MOL0     C52298   2.696   3.694   8.217  0.3813 -0.8958  0.0721
  388MOL0     C52299   2.611   3.617   8.296  0.1279  0.0763 -0.9636
  388MOL0     C52300   2.269   3.342   8.396 -0.2195  0.7375 -0.1323
  388MOL0     C52301   2.131   3.363   8.402  0.3291 -0.2377  0.2719
  388MOL0     C52302   2.049   3.259   8.435  0.7143 -0.6659  0.4687
  388MOL0     C52303   2.096   3.139   8.470  0.6032 -0.8763 -0.5495
  388MOL0     O52304   2.019   3.026   8.495  0.1725  0.2206 -0.7530
  388MOL0     C52305   1.874   3.044   8.503 -1.0290 -0.2172  0.2091
  388MOL0     C52306   1.824   2.899   8.525  0.5441 -0.4762 -0.1388
  388MOL0     C52307   1.875   2.801   8.418  0.6286 -0.7068  0.4142
  388MOL0     C52308   1.848   2.670   8.463  0.2058  0.0793  0.4544
  388MOL0     C52309   1.704   2.640   8.463  0.7834 -0.6785 -0.1712
  388MOL0     C52310   1.586   2.611   8.452  0.3416 -1.0534 -0.5946
  388MOL0     C52311   2.232   3.119   8.472 -0.7249 -0.0511 -0.8440
  388MOL0     C52312   2.325   3.219   8.439  0.4170 -0.6183  0.1547
  388MOL0     H52313   2.591   3.340   8.096 -1.6713  0.7441 -1.6742
  388MOL0     H52314   2.764   3.469   7.977 -1.6429 -0.9033  0.2678
  388MOL0     H52315   2.843   3.901   8.052  3.0849  2.2641  1.7552
  388MOL0     H52316   2.980   3.800   8.119 -1.4404 -0.1418  1.4017
  388MOL0     H52317   3.041   3.954   7.956 -0.0808  0.7744 -1.5282
  388MOL0     H52318   3.091   3.796   7.909 -0.0953  0.8451 -1.7356
  388MOL0     H52319   3.017   3.920   7.722 -0.0207  0.8476  0.8356
  388MOL0     H52320   2.918   3.773   7.737 -0.6611  0.9493 -0.2477
  388MOL0     H52321   2.734   3.926   7.857 -1.7728  3.7306  0.7058
  388MOL0     H52322   2.838   4.062   7.819 -0.0895 -0.1844 -1.3032
  388MOL0     H52323   2.831   3.998   7.573 -0.5528 -0.5903 -1.1256
  388MOL0     H52324   2.716   3.872   7.614 -0.6484  1.1492 -1.2203
  388MOL0     H52325   2.553   4.051   7.675  0.9520  0.5609  1.1964
  388MOL0     H52326   2.679   4.169   7.628 -1.4191  0.3965  0.8999
  388MOL0     H52327   2.677   4.055   7.393 -0.5355 -0.2549  0.0646
  388MOL0     H52328   2.524   3.973   7.452 -0.5635  0.3820  0.5356
  388MOL0     H52329   2.567   4.267   7.426 -1.0023  0.3961 -1.2151
  388MOL0     H52330   2.427   4.192   7.507 -2.4722 -1.2496 -0.4775
  388MOL0     H52331   2.237   4.079   7.327 -0.6245  2.8152  2.1816
  388MOL0     H52332   2.267   4.071   6.929  0.5947 -4.3823 -0.2119
  388MOL0     H52333   2.190   3.973   7.051 -1.7874  1.3112  0.7332
  388MOL0     H52334   2.128   4.255   7.004  3.0646 -0.5948  0.9744
  388MOL0     H52335   2.035   4.165   7.123 -2.0634 -0.3302 -0.9271
  388MOL0     H52336   1.977   3.996   6.933 -4.6755  0.5576  0.2149
  388MOL0     H52337   2.023   4.113   6.818  0.9755  0.5323 -0.9024
  388MOL0     H52338   1.803   4.194   6.854 -1.5238 -0.5695  0.9837
  388MOL0     H52339   1.875   4.268   6.995 -0.0620 -1.2942  2.3810
  388MOL0     H52340   1.667   4.365   6.994  0.1745  0.5425 -0.2154
  388MOL0     H52341   1.518   4.538   7.015 -2.5871  2.5606 -0.3605
  388MOL0     H52342   1.400   4.465   6.908 -1.3368  2.5292 -1.2496
  388MOL0     H52343   1.356   4.515   7.072  2.8185 -0.7717  2.3218
  388MOL0     H52344   1.095   4.244   7.528 -2.0770 -3.0514  2.2775
  388MOL0     H52345   0.878   4.198   7.600 -0.1133 -0.8655  0.0878
  388MOL0     H52346   0.585   4.324   7.443  2.0866  1.1265 -3.7465
  388MOL0     H52347   0.575   4.250   7.288 -1.2102  0.9606  0.4513
  388MOL0     H52348   0.416   4.156   7.532 -2.4154 -1.8228 -1.0272
  388MOL0     H52349   0.360   4.258   7.397 -1.9073 -2.0650  0.6777
  388MOL0     H52350   0.429   3.971   7.372  1.6236  0.4023  0.5402
  388MOL0     H52351   0.391   4.097   7.240 -2.7347  1.3334  0.1504
  388MOL0     H52352   0.177   4.134   7.351  1.0779  0.7501 -5.3546
  388MOL0     H52353   0.198   3.977   7.286  0.7662  2.3314 -1.8874
  388MOL0     H52354   0.243   4.041   7.571 -3.4433  2.1160 -0.1482
  388MOL0     H52355   0.233   3.873   7.505 -0.9887 -0.9873 -0.6599
  388MOL0     H52356   0.012   3.981   7.608  1.5859 -0.3429  0.2797
  388MOL0     H52357  -0.008   4.063   7.461 -0.9821  0.1340  1.0932
  388MOL0     H52358   0.081   3.827   7.359 -0.0008  1.7071 -1.3274
  388MOL0     H52359  -0.082   3.852   7.371  2.3462 -0.0819 -3.9624
  388MOL0     H52360  -0.083   3.744   7.613 -1.3670 -2.9956 -0.7918
  388MOL0     H52361   0.095   3.741   7.580  1.9844  2.2503 -3.2730
  388MOL0     H52362   0.754   4.114   7.190 -0.3002  0.6404  0.1018
  388MOL0     H52363   1.004   4.111   7.130 -0.0359 -0.3355  0.4876
  388MOL0     H52364   1.374   4.049   7.219 -0.1535  0.0606 -0.6528
  388MOL0     H52365   1.583   3.977   7.149  4.6015  2.0152  0.7810
  388MOL0     H52366   2.727   3.791   8.256  0.5481 -1.7456  2.2068
  388MOL0     H52367   2.567   3.659   8.386  0.9869  2.2346 -1.5107
  388MOL0     H52368   2.090   3.460   8.373 -1.0905 -0.5724  1.0783
  388MOL0     H52369   1.943   3.283   8.429  1.0150  0.6094 -0.2858
  388MOL0     H52370   1.844   3.108   8.587  1.0673  1.5231 -0.2726
  388MOL0     H52371   1.822   3.076   8.412 -1.2474 -1.3598 -0.0797
  388MOL0     H52372   1.715   2.908   8.519  0.5955  1.3572  1.0393
  388MOL0     H52373   1.850   2.863   8.625  2.5590  0.6580 -0.2120
  388MOL0     H52374   1.982   2.814   8.399  1.1343  1.7460  4.0366
  388MOL0     H52375   1.809   2.830   8.336  0.6464 -0.6779  0.4103
  388MOL0     H52376   1.885   2.658   8.565 -2.1404  0.9163  1.4863
  388MOL0     H52377   1.890   2.591   8.401  1.9930  0.6256  0.9143
  388MOL0     H52378   1.492   2.558   8.449 -0.2816 -0.1810  1.7631
  388MOL0     H52379   2.278   3.022   8.490 -2.2912 -0.3285  2.5045
  388MOL0     H52380   2.431   3.199   8.451  0.6087  0.3932  0.2687
  389MOL0     O52381   0.236   3.472   1.599 -0.0886 -0.0705  0.3891
  389MOL0     C52382   0.293   3.419   1.511  0.4973 -0.1149 -0.4307
  389MOL0     O52383   0.230   3.344   1.416  0.0968 -0.4873 -0.5035
  389MOL0     C52384   0.092   3.336   1.413 -0.1995  0.4467  0.1457
  389MOL0     C52385   0.005   3.304   1.518  0.1545  0.0518  0.1237
  389MOL0     C52386  -0.126   3.279   1.488  0.2031 -0.0285  0.1552
  389MOL0     C52387  -0.186   3.309   1.362 -0.2159 -0.5140  0.3234
  389MOL0     O52388  -0.318   3.309   1.347 -0.6260  0.3332 -0.0584
  389MOL0     C52389  -0.387   3.389   1.447  0.3263 -0.3627  0.5629
  389MOL0     C52390  -0.534   3.408   1.415 -1.2569 -1.3585 -0.5509
  389MOL0     C52391  -0.598   3.502   1.520 -0.4449 -0.3609 -0.3223
  389MOL0     C52392  -0.749   3.532   1.488  0.5060  0.0777 -0.4404
  389MOL0     C52393  -0.821   3.598   1.608 -0.0462  0.4290 -0.1670
  389MOL0     C52394  -0.976   3.621   1.599 -0.1312  0.4318  0.2514
  389MOL0     C52395  -1.035   3.702   1.476  1.1103  0.3695  1.2075
  389MOL0     C52396  -1.052   3.849   1.510  0.2604  0.2712  0.5167
  389MOL0     N52397  -1.168   3.876   1.607 -0.0532 -0.4524 -0.3343
  389MOL0     C52398  -1.175   3.857   1.742  0.1441 -0.9970  0.0544
  389MOL0     C52399  -1.314   3.847   1.775 -0.6076 -0.4072  0.2806
  389MOL0     C52400  -1.367   3.849   1.911 -1.2062  0.6593  0.3166
  389MOL0     C52401  -1.282   3.743   1.996  0.8619  1.2671  0.7309
  389MOL0     C52402  -1.157   3.801   2.077 -0.5695  0.9737  0.2190
  389MOL0     C52403  -1.034   3.707   2.087 -0.4874  0.2308  0.2882
  389MOL0     O52404  -0.943   3.736   1.981 -0.2331 -0.3211  0.3300
  389MOL0     C52405  -0.831   3.660   1.968 -0.6199  0.5017  0.3697
  389MOL0     C52406  -0.806   3.532   2.022  0.2743 -0.2996 -0.4994
  389MOL0     C52407  -0.681   3.463   1.999  0.0835  0.6062  0.6992
  389MOL0     C52408  -0.672   3.316   2.053 -0.0005  0.0177  0.3229
  389MOL0     C52409  -0.581   3.518   1.914 -0.2055 -0.6959  0.3457
  389MOL0     C52410  -0.445   3.451   1.885  0.2441 -1.4120  0.6847
  389MOL0     O52411  -0.402   3.356   1.963  0.3134  0.0516 -0.4250
  389MOL0     C52412  -0.262   3.337   1.963 -0.0856  0.3089 -0.0941
  389MOL0     C52413  -0.207   3.210   1.941 -0.1199 -0.0021 -0.4044
  389MOL0     C52414  -0.062   3.190   1.958  0.8626  0.3462 -0.4774
  389MOL0     C52415   0.019   3.303   2.000  0.7863  0.5987  1.2740
  389MOL0     O52416   0.149   3.306   1.995 -0.6585 -0.0767 -0.5731
  389MOL0     C52417   0.219   3.216   1.916  0.6117  0.4042  0.3306
  389MOL0     C52418   0.355   3.283   1.901 -0.6013 -0.3208 -1.3615
  389MOL0     C52419   0.444   3.213   1.792 -0.2993 -0.2227 -0.0875
  389MOL0     C52420   0.597   3.256   1.802  0.0070  0.2357  0.3374
  389MOL0     C52421   0.687   3.207   1.689  1.3102 -0.6769  0.0062
  389MOL0     C52422   0.832   3.191   1.733 -0.2464  0.0261 -0.1568
  389MOL0     C52423   0.897   3.319   1.781 -0.0967  0.4087  0.2404
  389MOL0     C52424   1.028   3.291   1.847  0.3597 -0.4013  0.1796
  389MOL0    Cl52425   1.133   3.437   1.837  0.0537  0.5426  0.1181
  389MOL0     C52426  -0.046   3.420   2.006 -1.0168 -0.4804 -1.2919
  389MOL0     C52427  -0.176   3.446   2.001  0.0748 -0.4720 -0.6382
  389MOL0     O52428  -0.386   3.489   1.787 -1.0693  0.5015  0.2716
  389MOL0     C52429  -0.604   3.652   1.860 -0.0460  0.5071 -0.5690
  389MOL0     C52430  -0.729   3.716   1.895  0.1746  0.3632 -0.0134
  389MOL0     N52431  -1.380   3.879   1.656 -0.9048  0.3228 -0.1809
  389MOL0     N52432  -1.294   3.895   1.563 -0.0388 -0.4277  0.4587
  389MOL0     C52433  -0.098   3.337   1.260  0.0061 -0.8324 -0.3091
  389MOL0     C52434   0.035   3.355   1.291  0.4579  0.4441 -0.0708
  389MOL0     C52435   0.438   3.439   1.493 -0.4600 -0.3656 -0.0384
  389MOL0     C52436   0.500   3.378   1.381 -0.7760  0.2106 -0.2233
  389MOL0     C52437   0.637   3.396   1.363  0.1374 -0.8966 -0.2680
  389MOL0     C52438   0.709   3.482   1.441 -0.4044 -0.6561 -0.1671
  389MOL0     O52439   0.847   3.500   1.437 -0.0787 -0.3174 -0.2109
  389MOL0     C52440   0.921   3.379   1.402 -0.1905 -0.9638  0.2357
  389MOL0     C52441   1.073   3.392   1.411 -0.0336  0.0980  0.0124
  389MOL0     C52442   1.139   3.507   1.340 -0.0116  0.0804  0.4906
  389MOL0     C52443   1.150   3.464   1.185  0.5364 -0.5363  0.1161
  389MOL0     C52444   1.260   3.369   1.167 -0.9226  0.0525 -1.0295
  389MOL0     C52445   1.358   3.298   1.149 -0.8642  0.6897 -0.6907
  389MOL0     C52446   0.638   3.559   1.535  1.1233  0.1414 -1.0785
  389MOL0     C52447   0.507   3.530   1.570 -0.0170 -0.0604 -0.5419
  389MOL0     H52448   0.048   3.280   1.615 -0.9926  1.9683  1.1801
  389MOL0     H52449  -0.203   3.255   1.560  0.5571 -0.6438  0.3363
  389MOL0     H52450  -0.374   3.333   1.540  1.5031 -0.3824  0.4027
  389MOL0     H52451  -0.342   3.488   1.459 -1.7547  0.9546 -1.6536
  389MOL0     H52452  -0.540   3.439   1.311 -0.9801 -1.4625 -0.5972
  389MOL0     H52453  -0.593   3.316   1.424 -4.3685  0.6804  2.2454
  389MOL0     H52454  -0.589   3.461   1.621  2.9355  0.2298 -0.2588
  389MOL0     H52455  -0.548   3.598   1.535 -0.2553 -0.4085 -0.6382
  389MOL0     H52456  -0.743   3.593   1.397  0.9062 -0.7239 -0.9754
  389MOL0     H52457  -0.804   3.440   1.464  1.7376 -0.2764 -2.0825
  389MOL0     H52458  -0.791   3.536   1.693 -0.0407  0.9137  0.1877
  389MOL0     H52459  -0.773   3.695   1.622  0.5700  0.2886 -1.2291
  389MOL0     H52460  -1.016   3.519   1.598  1.3240 -0.2040 -2.2084
  389MOL0     H52461  -1.007   3.660   1.696  1.2209 -1.6401  1.5937
  389MOL0     H52462  -0.982   3.687   1.381 -2.3754  0.2638 -0.8942
  389MOL0     H52463  -1.130   3.657   1.446 -0.0525  3.5238 -0.3267
  389MOL0     H52464  -1.079   3.907   1.422 -0.5114  1.3380  1.4363
  389MOL0     H52465  -0.956   3.885   1.549  0.2697  0.4573  0.3221
  389MOL0     H52466  -1.079   3.851   1.792  0.4785 -0.0667 -0.4412
  389MOL0     H52467  -1.364   3.953   1.945 -2.2636  0.8895 -0.2621
  389MOL0     H52468  -1.471   3.816   1.911 -0.4099 -2.1313  0.6351
  389MOL0     H52469  -1.244   3.670   1.925  1.6046  2.3706 -0.0499
  389MOL0     H52470  -1.348   3.691   2.066  1.8508 -3.8986 -1.7615
  389MOL0     H52471  -1.192   3.836   2.174 -1.2360 -3.0197  1.6197
  389MOL0     H52472  -1.126   3.890   2.022 -1.5982  2.3683  1.8149
  389MOL0     H52473  -1.068   3.603   2.088  0.1265 -0.0092 -1.3886
  389MOL0     H52474  -0.973   3.733   2.174  2.3757  1.2830 -1.8531
  389MOL0     H52475  -0.877   3.473   2.078  0.4233 -1.4118 -1.4456
  389MOL0     H52476  -0.773   3.296   2.090 -1.1906  1.7714 -1.7364
  389MOL0     H52477  -0.647   3.248   1.971 -0.4564 -4.9643  3.8396
  389MOL0     H52478  -0.587   3.309   2.122  2.1079  5.5919 -1.1759
  389MOL0     H52479  -0.268   3.129   1.903 -2.2713  0.3789  1.9838
  389MOL0     H52480  -0.024   3.094   1.924 -0.7609 -1.0830  1.5049
  389MOL0     H52481   0.228   3.119   1.965 -5.5669  0.6470  2.8736
  389MOL0     H52482   0.160   3.209   1.825  0.5863 -1.3274  0.4502
  389MOL0     H52483   0.334   3.381   1.858  2.2985  1.1856  0.3749
  389MOL0     H52484   0.401   3.283   2.000 -1.2825  0.0769 -1.0371
  389MOL0     H52485   0.411   3.229   1.688  0.6350 -1.2427 -0.5645
  389MOL0     H52486   0.445   3.105   1.811  0.1457 -0.3009 -0.5078
  389MOL0     H52487   0.604   3.365   1.803  2.3095  0.1683 -0.4868
  389MOL0     H52488   0.642   3.234   1.899 -1.6297 -0.0133  1.0686
  389MOL0     H52489   0.678   3.274   1.603 -1.0782 -0.5298  0.3058
  389MOL0     H52490   0.651   3.108   1.659 -0.9057  0.2175 -0.5072
  389MOL0     H52491   0.838   3.115   1.812 -0.2723 -0.4993 -0.6542
  389MOL0     H52492   0.894   3.141   1.658  1.2820 -0.7787  1.5452
  389MOL0     H52493   0.834   3.374   1.852 -0.6610  0.6154 -0.3990
  389MOL0     H52494   0.915   3.380   1.691  1.0006 -2.0952 -1.3467
  389MOL0     H52495   1.067   3.200   1.800 -2.2356 -1.2703 -0.4841
  389MOL0     H52496   1.003   3.270   1.951  0.9090  0.1870  0.4362
  389MOL0     H52497   0.019   3.502   2.036 -0.9222 -1.7287  2.4206
  389MOL0     H52498  -0.218   3.543   2.028 -0.7163 -1.2779  1.1809
  389MOL0     H52499  -0.535   3.713   1.803  2.4213 -0.5986  1.0192
  389MOL0     H52500  -0.747   3.819   1.865 -0.5166  0.4700  0.7502
  389MOL0     H52501  -0.130   3.346   1.157 -0.8839 -0.4689 -0.0142
  389MOL0     H52502   0.103   3.392   1.215 -0.6224  1.7007 -0.4428
  389MOL0     H52503   0.442   3.317   1.313 -1.9760  1.2943 -0.2068
  389MOL0     H52504   0.678   3.351   1.273  1.5694  1.1622 -0.7188
  389MOL0     H52505   0.886   3.302   1.471 -1.3179 -0.2661  0.4829
  389MOL0     H52506   0.903   3.338   1.302  1.5110  2.4950 -1.6724
  389MOL0     H52507   1.114   3.295   1.384 -5.1907 -1.8913 -1.7049
  389MOL0     H52508   1.098   3.405   1.517  0.1534  0.1564 -0.0380
  389MOL0     H52509   1.238   3.513   1.386  1.3844 -2.7367 -1.7759
  389MOL0     H52510   1.077   3.593   1.363 -3.2623 -1.8439 -0.3201
  389MOL0     H52511   1.170   3.553   1.124 -0.2905 -0.0184  0.5889
  389MOL0     H52512   1.070   3.402   1.143  1.2105 -0.9896 -0.5324
  389MOL0     H52513   1.448   3.239   1.146 -1.8627 -0.9329 -0.1284
  389MOL0     H52514   0.683   3.635   1.598 -0.8861  0.7166 -0.2325
  389MOL0     H52515   0.449   3.589   1.640 -1.6052  0.6365 -2.3408
  390MOL0     O52516   4.191   2.833   3.685 -0.5759  0.1732  0.2102
  390MOL0     C52517   4.195   2.740   3.601 -0.1074  0.4215 -0.0056
  390MOL0     O52518   4.086   2.687   3.527  0.6279  0.5504  0.8247
  390MOL0     C52519   3.966   2.739   3.543  0.3365 -0.8148  0.4801
  390MOL0     C52520   3.937   2.879   3.556 -0.1458 -0.6998 -0.0764
  390MOL0     C52521   3.808   2.929   3.557  0.5697  0.1427  0.0689
  390MOL0     C52522   3.702   2.842   3.557  0.0087  0.2805  0.6067
  390MOL0     O52523   3.573   2.888   3.563  0.6624  0.6089 -0.2486
  390MOL0     C52524   3.462   2.817   3.496 -0.6928  0.1828 -0.1056
  390MOL0     C52525   3.375   2.935   3.453 -0.5044  0.6519 -0.1028
  390MOL0     C52526   3.239   2.888   3.401 -0.5836  0.6493 -0.6522
  390MOL0     C52527   3.141   2.858   3.520  0.2953 -0.8500 -0.2958
  390MOL0     C52528   3.006   2.807   3.474 -0.2206 -0.4152 -0.1550
  390MOL0     C52529   2.899   2.916   3.448  0.4729  0.3054  0.3648
  390MOL0     C52530   2.776   2.871   3.377 -0.1610  0.3812  0.4029
  390MOL0     C52531   2.682   2.792   3.472  0.8470  0.3160 -0.3242
  390MOL0     N52532   2.565   2.733   3.404  1.2718 -0.7072  0.0733
  390MOL0     C52533   2.446   2.790   3.376  0.0336 -0.8899  0.4894
  390MOL0     C52534   2.396   2.715   3.272  0.6105 -0.4246  0.0513
  390MOL0     C52535   2.263   2.735   3.190 -0.2137  0.7864 -0.0268
  390MOL0     C52536   2.155   2.738   3.294 -0.3188 -0.1389  0.4204
  390MOL0     C52537   2.021   2.707   3.227  0.3251  0.0291 -0.6323
  390MOL0     C52538   1.918   2.691   3.341  0.4049 -0.1608  0.3099
  390MOL0     O52539   1.791   2.626   3.306 -0.0468  0.4131 -0.7470
  390MOL0     C52540   1.696   2.699   3.241  0.2340  0.4518  0.0623
  390MOL0     C52541   1.691   2.837   3.221 -0.0606 -0.0172 -0.3967
  390MOL0     C52542   1.571   2.896   3.167 -0.7487  0.6759  0.2386
  390MOL0     C52543   1.569   3.045   3.146  0.7108 -0.3593  0.3719
  390MOL0     C52544   1.460   2.819   3.130  0.0066 -0.3227  0.6193
  390MOL0     C52545   1.339   2.880   3.066  0.0273 -0.3034 -0.2409
  390MOL0     O52546   1.258   2.796   2.996 -0.2413  0.0987 -0.3837
  390MOL0     C52547   1.160   2.858   2.923 -0.6400  0.2222 -0.3697
  390MOL0     C52548   1.040   2.895   2.990 -0.1498 -0.2830  0.0089
  390MOL0     C52549   0.936   2.957   2.932  0.3924 -0.2287  0.8511
  390MOL0     C52550   0.942   2.979   2.795  0.8145 -0.2575 -0.6856
  390MOL0     O52551   0.827   3.029   2.733 -0.0196  0.7661 -0.6465
  390MOL0     C52552   0.806   3.014   2.592 -0.5660 -0.9603 -0.9756
  390MOL0     C52553   0.698   3.112   2.548 -0.1985  0.1930  0.2840
  390MOL0     C52554   0.583   3.112   2.643 -0.5895  0.7164  0.5156
  390MOL0     C52555   0.517   2.976   2.650 -0.5237  0.1631 -0.5497
  390MOL0     C52556   0.393   2.975   2.748 -0.4673 -0.1567 -0.4966
  390MOL0     C52557   0.264   3.017   2.662  0.1625 -0.5263 -0.3072
  390MOL0     C52558   0.143   2.974   2.743  0.1548  1.0521  0.0410
  390MOL0     C52559   0.009   3.034   2.690 -0.4831 -0.0685 -0.0238
  390MOL0    Cl52560  -0.144   2.959   2.754  0.3128 -0.7429 -0.0651
  390MOL0     C52561   1.062   2.948   2.726 -0.5556 -0.1097  0.5584
  390MOL0     C52562   1.172   2.881   2.785 -0.2947 -1.0446 -0.3449
  390MOL0     O52563   1.307   2.991   3.106  0.8139 -0.3141  0.5599
  390MOL0     C52564   1.477   2.681   3.139 -0.1547 -0.1474  0.6214
  390MOL0     C52565   1.588   2.621   3.195  0.1649  0.5588 -0.0665
  390MOL0     N52566   2.474   2.609   3.244 -0.2482  0.6322 -1.1018
  390MOL0     N52567   2.578   2.616   3.321 -0.3147 -0.4595  0.1730
  390MOL0     C52568   3.725   2.700   3.546  0.6905 -0.1270 -0.3222
  390MOL0     C52569   3.859   2.649   3.532 -0.5039 -0.9051  1.2822
  390MOL0     C52570   4.325   2.692   3.564 -0.3314 -0.3421  0.7480
  390MOL0     C52571   4.431   2.780   3.555 -0.8859 -1.0364  0.8181
  390MOL0     C52572   4.555   2.724   3.507 -0.1468 -0.3261 -0.2873
  390MOL0     C52573   4.579   2.593   3.475  0.4389 -0.4234  0.0311
  390MOL0     O52574   4.714   2.560   3.450  0.0770 -0.1975  0.3663
  390MOL0     C52575   4.754   2.427   3.411  0.0579 -0.4327 -0.5352
  390MOL0     C52576   4.711   2.380   3.273 -0.4991 -0.1952 -0.4076
  390MOL0     C52577   4.826   2.317   3.193  1.0805  0.2390 -0.2553
  390MOL0     C52578   4.790   2.263   3.057 -0.0666  0.2531  0.0275
  390MOL0     C52579   4.906   2.222   2.977  0.9943  0.0938 -0.3599
  390MOL0     C52580   4.999   2.206   2.906 -0.1589 -0.6674  0.4654
  390MOL0     C52581   4.468   2.512   3.483  0.0170  0.7118 -0.3957
  390MOL0     C52582   4.343   2.558   3.525  0.4663 -0.0534  0.3536
  390MOL0     H52583   4.017   2.952   3.561 -1.0921  0.2950  1.2083
  390MOL0     H52584   3.793   3.036   3.557 -2.5122 -0.2148 -0.1948
  390MOL0     H52585   3.502   2.755   3.415  0.9886 -1.5550  1.9200
  390MOL0     H52586   3.398   2.751   3.556 -1.2523  1.1471  0.3786
  390MOL0     H52587   3.355   2.997   3.540  0.5958  1.9014 -0.7051
  390MOL0     H52588   3.427   2.996   3.378  3.0709 -0.3247  1.3378
  390MOL0     H52589   3.192   2.961   3.335  0.7389  1.5365 -0.6477
  390MOL0     H52590   3.255   2.803   3.334 -0.3007  1.0976 -1.1548
  390MOL0     H52591   3.171   2.768   3.574 -0.9402 -1.3933 -0.4639
  390MOL0     H52592   3.141   2.934   3.598 -1.6333 -0.2072 -0.8660
  390MOL0     H52593   3.018   2.749   3.382  0.0204 -0.7036  0.0553
  390MOL0     H52594   2.968   2.742   3.553 -0.6245 -0.7632 -0.6351
  390MOL0     H52595   2.870   2.947   3.549  0.4063 -0.9542  0.7581
  390MOL0     H52596   2.940   2.994   3.383  0.5159  0.7997  0.9803
  390MOL0     H52597   2.713   2.956   3.351 -1.8931 -0.5571  1.3805
  390MOL0     H52598   2.802   2.814   3.288 -0.8088  3.5436 -1.9783
  390MOL0     H52599   2.641   2.859   3.549 -1.0394 -0.9993 -0.1051
  390MOL0     H52600   2.731   2.712   3.527  0.1784  0.2534  0.1885
  390MOL0     H52601   2.401   2.884   3.408  0.9684 -0.5346  0.7959
  390MOL0     H52602   2.263   2.831   3.138 -1.7655  1.8491  1.7829
  390MOL0     H52603   2.247   2.658   3.114  2.4856  0.2047 -0.1077
  390MOL0     H52604   2.161   2.840   3.333 -0.1674  0.6763 -1.6332
  390MOL0     H52605   2.164   2.659   3.370 -0.5733 -2.7512 -2.0985
  390MOL0     H52606   2.028   2.614   3.170  0.8130  0.5157 -1.3862
  390MOL0     H52607   2.007   2.789   3.156  1.8459  1.9542  1.1469
  390MOL0     H52608   1.907   2.798   3.366 -1.8201  0.6562 -3.4334
  390MOL0     H52609   1.961   2.639   3.427  1.1901 -0.8304 -0.4695
  390MOL0     H52610   1.764   2.906   3.261 -1.5013 -0.4358  3.3526
  390MOL0     H52611   1.498   3.092   3.215  0.0469  3.8439 -2.7524
  390MOL0     H52612   1.670   3.084   3.161 -0.2935  1.4336  3.2567
  390MOL0     H52613   1.539   3.059   3.041  0.2846 -1.3669  0.3488
  390MOL0     H52614   1.026   2.869   3.095 -4.0687 -0.7013 -0.4675
  390MOL0     H52615   0.845   2.984   2.985  1.1476  3.5098  0.5395
  390MOL0     H52616   0.896   3.044   2.537  0.0864  1.5962  1.2433
  390MOL0     H52617   0.782   2.910   2.572  1.5609 -1.5857 -0.5453
  390MOL0     H52618   0.734   3.215   2.555  1.2415 -0.3637  1.7796
  390MOL0     H52619   0.671   3.089   2.444 -1.2267  4.5753 -0.6072
  390MOL0     H52620   0.508   3.187   2.615  0.6642  2.8821  2.6250
  390MOL0     H52621   0.619   3.139   2.743  1.2453 -0.1665  0.1465
  390MOL0     H52622   0.490   2.932   2.554  1.3730  0.2303 -1.1435
  390MOL0     H52623   0.588   2.910   2.700 -0.4237 -0.5486 -1.5974
  390MOL0     H52624   0.408   3.042   2.833 -0.5636  0.4208 -0.9233
  390MOL0     H52625   0.370   2.880   2.795 -2.7674  1.5478  2.1494
  390MOL0     H52626   0.276   3.124   2.646  2.5019 -0.4105  1.5953
  390MOL0     H52627   0.259   2.961   2.568 -0.3276  0.5357 -0.9292
  390MOL0     H52628   0.152   2.988   2.851  1.0882 -2.2671  0.5119
  390MOL0     H52629   0.140   2.865   2.741  0.9506  0.9152  2.6182
  390MOL0     H52630  -0.004   3.021   2.582 -2.6421  2.8775 -0.2557
  390MOL0     H52631   0.023   3.140   2.709  2.7603 -0.9094  3.2664
  390MOL0     H52632   1.075   2.967   2.620  0.5935 -1.0518  0.4953
  390MOL0     H52633   1.263   2.859   2.730  1.4250 -0.4301  2.0680
  390MOL0     H52634   1.392   2.621   3.109  0.3567  0.7204 -2.9837
  390MOL0     H52635   1.584   2.514   3.216  0.3670  1.0460  2.7295
  390MOL0     H52636   3.639   2.633   3.542  0.6788 -0.2141  1.0910
  390MOL0     H52637   3.877   2.543   3.518 -1.4823 -0.7795 -1.6811
  390MOL0     H52638   4.405   2.885   3.570 -2.0816 -1.2060  0.0418
  390MOL0     H52639   4.640   2.790   3.496  0.1392 -0.4695  0.8849
  390MOL0     H52640   4.862   2.421   3.428 -0.2401 -0.2469  1.6125
  390MOL0     H52641   4.710   2.359   3.483 -2.1429 -0.6711 -2.0146
  390MOL0     H52642   4.672   2.463   3.215  1.6967  1.0420 -0.2146
  390MOL0     H52643   4.631   2.306   3.287  1.3829 -2.2149  0.2069
  390MOL0     H52644   4.881   2.242   3.251  1.8925 -0.9684 -2.4735
  390MOL0     H52645   4.898   2.394   3.166  0.6496 -0.4691 -4.0563
  390MOL0     H52646   4.731   2.337   3.002 -1.2176 -1.2271 -0.7706
  390MOL0     H52647   4.721   2.181   3.077  0.8955 -0.5847 -0.0495
  390MOL0     H52648   5.078   2.184   2.837 -0.4582  2.6759 -1.1207
  390MOL0     H52649   4.482   2.410   3.451 -1.0371 -0.0103  1.3213
  390MOL0     H52650   4.268   2.480   3.529  0.1361  0.3179  1.9369
  391MOL0     O52651  10.291   8.370   1.320  0.8111  0.0922 -0.5871
  391MOL0     C52652  10.279   8.326   1.209 -1.3508  0.1480 -0.4407
  391MOL0     O52653  10.186   8.345   1.112 -0.5726 -0.3298  0.7268
  391MOL0     C52654  10.059   8.395   1.137  0.5755  0.4837 -0.4519
  391MOL0     C52655   9.991   8.379   1.261 -0.4485 -0.9223 -0.0340
  391MOL0     C52656   9.867   8.440   1.284  0.3083  0.9996 -0.0542
  391MOL0     C52657   9.801   8.507   1.180  0.0249  0.0008 -0.8975
  391MOL0     O52658   9.689   8.579   1.209  0.8393  0.6635  1.0254
  391MOL0     C52659   9.600   8.614   1.103  0.1986  0.0801 -0.4271
  391MOL0     C52660   9.466   8.677   1.160 -0.2544  0.4010  0.2811
  391MOL0     C52661   9.378   8.565   1.214 -0.1630 -0.6373 -0.2636
  391MOL0     C52662   9.238   8.633   1.235 -0.0120 -0.5522 -0.3259
  391MOL0     C52663   9.122   8.545   1.271  0.0898  1.0431 -0.0825
  391MOL0     C52664   9.156   8.427   1.358 -0.4251 -0.0090 -0.6474
  391MOL0     C52665   9.035   8.345   1.381  0.5520  0.3791 -0.6139
  391MOL0     C52666   8.969   8.395   1.506  0.0004 -0.4830  0.6971
  391MOL0     N52667   8.851   8.311   1.524 -0.1881 -0.6648  0.0271
  391MOL0     C52668   8.810   8.264   1.647  0.4675 -0.4184 -0.3311
  391MOL0     C52669   8.692   8.206   1.622  0.3218  0.4251  0.4819
  391MOL0     C52670   8.603   8.147   1.716 -0.3230 -0.8288 -0.9596
  391MOL0     C52671   8.502   8.244   1.779  0.8657 -0.3722  0.3113
  391MOL0     C52672   8.563   8.330   1.893 -1.0318  0.2858 -0.2786
  391MOL0     C52673   8.461   8.387   1.989  0.1638  1.1458  0.2424
  391MOL0     O52674   8.422   8.287   2.097  0.3055  0.1488  0.0046
  391MOL0     C52675   8.292   8.305   2.152  0.1753  1.0381  0.0326
  391MOL0     C52676   8.229   8.427   2.175  0.9899 -1.3343  0.5713
  391MOL0     C52677   8.099   8.438   2.241 -0.0289  0.6669  0.3672
  391MOL0     C52678   8.039   8.570   2.268  0.0889 -1.6175  0.3176
  391MOL0     C52679   8.035   8.323   2.283 -0.6711  0.0727 -1.3531
  391MOL0     C52680   7.907   8.323   2.362 -0.9975 -0.4675 -0.4668
  391MOL0     O52681   7.909   8.216   2.445 -0.0930 -0.2864  0.4512
  391MOL0     C52682   7.790   8.182   2.509 -0.8470  0.3175  0.5786
  391MOL0     C52683   7.763   8.046   2.491  0.4115 -0.0905 -0.7247
  391MOL0     C52684   7.643   7.994   2.547  0.1782  0.6279  0.3051
  391MOL0     C52685   7.564   8.078   2.629 -0.3558 -0.2330  0.6477
  391MOL0     O52686   7.459   8.007   2.687 -0.1895  0.0512  0.0729
  391MOL0     C52687   7.381   8.075   2.780 -0.2198 -0.0619 -0.5025
  391MOL0     C52688   7.302   7.981   2.878 -0.0134  0.6592 -0.1527
  391MOL0     C52689   7.152   7.980   2.836 -0.2571 -0.6518  0.1843
  391MOL0     C52690   7.068   7.913   2.944  0.0889 -1.0278  0.1025
  391MOL0     C52691   6.923   7.906   2.904  0.5269 -0.8201 -0.7990
  391MOL0     C52692   6.836   7.830   3.007 -0.4458 -0.4878  0.4622
  391MOL0     C52693   6.851   7.681   2.989  0.0339 -0.5957 -0.1877
  391MOL0     C52694   6.755   7.606   3.085  0.5002 -0.2287  0.4101
  391MOL0    Cl52695   6.834   7.585   3.241  0.1541 -0.2099 -0.2209
  391MOL0     C52696   7.604   8.219   2.645 -0.3040  0.0004 -0.2113
  391MOL0     C52697   7.713   8.269   2.586 -0.0473  0.3678 -0.3688
  391MOL0     O52698   7.818   8.402   2.338 -0.4564 -0.5000 -0.0782
  391MOL0     C52699   8.102   8.202   2.265 -0.0877  0.3945  0.5693
  391MOL0     C52700   8.230   8.191   2.210  0.4824 -1.0795  0.9773
  391MOL0     N52701   8.661   8.228   1.489 -0.7386 -0.1942  0.4084
  391MOL0     N52702   8.761   8.280   1.427  0.0513  0.3996 -0.4139
  391MOL0     C52703   9.866   8.511   1.058 -0.4610 -0.3696  0.2473
  391MOL0     C52704   9.994   8.459   1.039 -1.2383  0.4199 -0.0359
  391MOL0     C52705  10.383   8.223   1.175  0.0563  0.2086  0.7269
  391MOL0     C52706  10.362   8.137   1.068 -0.0781  0.4127 -0.1301
  391MOL0     C52707  10.461   8.049   1.029  0.2507 -0.3140 -0.2948
  391MOL0     C52708  10.593   8.044   1.082 -0.7226 -0.8796  0.2432
  391MOL0     O52709  10.690   7.962   1.030  0.0279 -0.3619  0.0277
  391MOL0     C52710  10.818   7.958   1.094 -0.3247  0.3908 -0.2390
  391MOL0     C52711  10.914   7.864   1.039 -0.5116  0.0720  0.3496
  391MOL0     C52712  10.874   7.712   1.019  0.0220  0.6953 -0.0803
  391MOL0     C52713  10.817   7.643   1.138 -0.7289 -0.0603 -0.9694
  391MOL0     C52714  10.914   7.632   1.246 -0.9269 -0.1844  0.8358
  391MOL0     C52715  11.000   7.628   1.327 -0.2469 -0.0152  0.5416
  391MOL0     C52716  10.610   8.135   1.186 -0.2537 -0.4113  0.6734
  391MOL0     C52717  10.509   8.218   1.230 -0.6996 -0.2938 -0.5156
  391MOL0     H52718  10.053   8.333   1.337  1.9384 -0.1280 -1.3958
  391MOL0     H52719   9.820   8.433   1.382 -0.9032 -3.6703 -0.7748
  391MOL0     H52720   9.651   8.679   1.032  1.4078 -1.9166 -1.4872
  391MOL0     H52721   9.570   8.516   1.063 -3.6647  0.2355  1.5808
  391MOL0     H52722   9.504   8.748   1.234  1.1457 -0.7781  0.7381
  391MOL0     H52723   9.409   8.716   1.075  1.4341 -2.3456 -2.3258
  391MOL0     H52724   9.370   8.483   1.143 -2.0414  1.9725 -3.3625
  391MOL0     H52725   9.430   8.540   1.307  0.9554  0.3773 -0.5944
  391MOL0     H52726   9.266   8.700   1.316  1.3754  1.6839 -2.5271
  391MOL0     H52727   9.213   8.698   1.151 -1.4022 -1.3243 -0.5498
  391MOL0     H52728   9.046   8.606   1.320  2.8896  2.4137  2.9968
  391MOL0     H52729   9.092   8.504   1.174  2.1635  0.6449 -0.6054
  391MOL0     H52730   9.232   8.373   1.301  2.0686  3.1872 -0.6245
  391MOL0     H52731   9.211   8.451   1.450  0.1771  2.3476 -1.5690
  391MOL0     H52732   8.969   8.340   1.295  0.7601  1.5670 -0.8588
  391MOL0     H52733   9.065   8.241   1.395 -1.2320 -0.4477 -2.5075
  391MOL0     H52734   8.931   8.497   1.513  0.8025  0.3467 -3.8708
  391MOL0     H52735   9.038   8.373   1.589  1.6042  1.9310  0.1011
  391MOL0     H52736   8.861   8.277   1.742  0.7920  0.1033 -0.5772
  391MOL0     H52737   8.548   8.072   1.659 -1.3100  1.2854 -2.9526
  391MOL0     H52738   8.664   8.104   1.795  0.3701 -0.6744 -1.4066
  391MOL0     H52739   8.436   8.171   1.826 -1.0065  0.8182 -0.3463
  391MOL0     H52740   8.442   8.299   1.705 -2.0421 -3.7068 -0.0489
  391MOL0     H52741   8.592   8.422   1.843 -2.6624  0.9884  0.0106
  391MOL0     H52742   8.648   8.282   1.943 -1.5393  0.6787  0.9812
  391MOL0     H52743   8.373   8.408   1.927  0.5812 -0.0170 -0.7874
  391MOL0     H52744   8.511   8.471   2.038  2.5307  0.4518 -0.8208
  391MOL0     H52745   8.283   8.511   2.132  0.8918 -1.0118  1.0681
  391MOL0     H52746   8.096   8.646   2.215 -0.1800 -0.3505  1.7713
  391MOL0     H52747   7.945   8.585   2.214  1.3489 -1.2436 -1.8928
  391MOL0     H52748   8.035   8.585   2.376  1.7903 -2.0922  0.4767
  391MOL0     H52749   7.824   7.982   2.429 -0.3259  0.4865 -2.0754
  391MOL0     H52750   7.617   7.890   2.536 -0.5627  0.5853  2.1202
  391MOL0     H52751   7.444   8.145   2.837 -1.4206  0.1914  0.5483
  391MOL0     H52752   7.322   8.138   2.713  1.8411  0.6253 -1.7912
  391MOL0     H52753   7.341   7.879   2.879  0.8796  0.9745 -1.3320
  391MOL0     H52754   7.318   8.028   2.976 -0.1810  2.1378 -0.8049
  391MOL0     H52755   7.136   7.928   2.741  0.0453 -1.8165  0.7629
  391MOL0     H52756   7.128   8.087   2.825  3.5035  0.8263  3.5801
  391MOL0     H52757   7.106   7.818   2.984 -1.6721 -1.4009  1.0035
  391MOL0     H52758   7.070   7.983   3.028  0.4423  0.7649 -1.3587
  391MOL0     H52759   6.914   7.856   2.807  1.2145  1.4321 -2.0906
  391MOL0     H52760   6.884   8.007   2.894  2.6039 -0.0720 -1.9907
  391MOL0     H52761   6.858   7.853   3.111  0.5985 -0.2179  0.1928
  391MOL0     H52762   6.735   7.865   2.986  0.4953  2.1332 -0.0661
  391MOL0     H52763   6.953   7.647   3.009 -0.0581 -1.2986 -0.8607
  391MOL0     H52764   6.811   7.667   2.888  1.8342  0.3388 -1.0673
  391MOL0     H52765   6.733   7.505   3.049  1.8784 -0.5326  0.3908
  391MOL0     H52766   6.657   7.656   3.087  1.0516  0.9317  3.2945
  391MOL0     H52767   7.555   8.287   2.713 -0.1251 -0.5536  0.4921
  391MOL0     H52768   7.744   8.373   2.586  0.7693  0.1446 -1.4062
  391MOL0     H52769   8.075   8.102   2.297  1.8800 -0.7969 -1.2120
  391MOL0     H52770   8.288   8.100   2.209  0.8827 -0.9439 -3.3157
  391MOL0     H52771   9.822   8.558   0.970  0.5594 -1.5984 -0.9629
  391MOL0     H52772  10.045   8.458   0.943 -0.8467  2.3668  0.1034
  391MOL0     H52773  10.269   8.131   1.013  1.1230  0.0925 -2.2733
  391MOL0     H52774  10.439   7.979   0.948 -0.7402  0.7420 -0.9827
  391MOL0     H52775  10.868   8.056   1.093  0.5918 -0.0347  1.2356
  391MOL0     H52776  10.801   7.933   1.199 -1.4888 -1.7689 -0.9024
  391MOL0     H52777  10.992   7.861   1.116 -1.5309 -0.1174  1.4064
  391MOL0     H52778  10.974   7.900   0.955  0.3997 -1.8000  0.1375
  391MOL0     H52779  10.965   7.656   0.994 -1.7007 -2.0213 -0.7156
  391MOL0     H52780  10.786   7.703   0.953 -3.3751  4.2710  3.4216
  391MOL0     H52781  10.782   7.544   1.108 -3.4036 -0.3750  2.6412
  391MOL0     H52782  10.721   7.686   1.168 -1.4624 -1.5675 -1.0680
  391MOL0     H52783  11.075   7.633   1.404 -2.4905 -1.5444  3.0077
  391MOL0     H52784  10.712   8.153   1.219 -0.7189  2.1894  0.8848
  391MOL0     H52785  10.541   8.277   1.315  2.2696 -3.7002  0.9896
  392MOL0     O52786   1.316   4.888  10.857  0.3941 -0.0835 -0.5280
  392MOL0     C52787   1.347   4.854  10.744  0.4846  0.1073  0.0409
  392MOL0     O52788   1.255   4.806  10.650  0.3190  0.2689 -0.4460
  392MOL0     C52789   1.123   4.833  10.645  1.2547 -0.1835 -0.0915
  392MOL0     C52790   1.062   4.924  10.726 -0.2646  0.0841 -0.5577
  392MOL0     C52791   0.930   4.944  10.717  1.6080 -0.4621 -0.1889
  392MOL0     C52792   0.857   4.888  10.612 -0.5799  0.6674 -0.4528
  392MOL0     O52793   0.731   4.941  10.588 -0.7765 -0.7680  0.1595
  392MOL0     C52794   0.715   5.000  10.457 -0.2923 -0.4905  0.3563
  392MOL0     C52795   0.768   5.140  10.444 -0.1521 -0.4556 -0.6537
  392MOL0     C52796   0.716   5.233  10.552 -0.6857 -0.0568  0.0694
  392MOL0     C52797   0.563   5.237  10.549  0.5321 -0.5524  0.3458
  392MOL0     C52798   0.508   5.371  10.595 -0.8567 -0.2366  0.3326
  392MOL0     C52799   0.567   5.398  10.734  0.0457  0.0168 -0.2593
  392MOL0     C52800   0.494   5.489  10.828 -0.5599 -0.4053 -0.7397
  392MOL0     C52801   0.564   5.508  10.965 -0.0044  0.8250  0.1202
  392MOL0     N52802   0.538   5.390  11.048  0.0921  0.3839 -0.4304
  392MOL0     C52803   0.609   5.270  11.036 -0.0950 -0.0785  0.4676
  392MOL0     C52804   0.531   5.170  11.102 -0.8599  0.3488  1.2730
  392MOL0     C52805   0.572   5.022  11.106 -0.1647  0.1150  0.2523
  392MOL0     C52806   0.564   4.939  10.967 -0.1529 -0.6541 -0.8068
  392MOL0     C52807   0.414   4.939  10.917 -0.8583 -0.2024 -0.3759
  392MOL0     C52808   0.393   4.830  10.802 -0.0370  0.6181 -0.3332
  392MOL0     O52809   0.261   4.767  10.806  0.0989 -0.4326  0.3558
  392MOL0     C52810   0.210   4.692  10.909 -0.4514  0.1734 -0.1502
  392MOL0     C52811   0.285   4.645  11.011  0.2018 -0.0997  0.3851
  392MOL0     C52812   0.230   4.566  11.114  0.0674  1.1178  0.4349
  392MOL0     C52813   0.325   4.516  11.217 -0.2463 -0.8807  0.5737
  392MOL0     C52814   0.086   4.531  11.103  0.0894  0.4168 -0.3843
  392MOL0     C52815   0.007   4.458  11.211  0.3511  0.3738  0.6336
  392MOL0     O52816  -0.125   4.433  11.182 -0.0531  0.1665  0.2547
  392MOL0     C52817  -0.211   4.369  11.268 -0.6213  1.3172 -0.1578
  392MOL0     C52818  -0.345   4.397  11.226 -1.1293 -0.2174 -0.5984
  392MOL0     C52819  -0.450   4.333  11.296  0.6949  0.4747  0.2414
  392MOL0     C52820  -0.425   4.236  11.391 -0.0419 -0.0615 -0.0022
  392MOL0     O52821  -0.524   4.163  11.443  1.1265 -0.5370  0.9596
  392MOL0     C52822  -0.501   4.028  11.500  0.0413 -0.2290 -0.2339
  392MOL0     C52823  -0.633   3.942  11.489 -0.9572  0.0201  0.5688
  392MOL0     C52824  -0.747   3.985  11.581 -0.0645 -0.0021  0.4186
  392MOL0     C52825  -0.871   3.954  11.504  0.1118 -0.5123  0.1001
  392MOL0     C52826  -0.999   3.987  11.582 -0.7328 -0.1224  0.3223
  392MOL0     C52827  -1.134   3.943  11.523 -0.1710  0.9392 -0.1172
  392MOL0     C52828  -1.159   3.792  11.539  0.2420  0.2961  0.5447
  392MOL0     C52829  -1.221   3.755  11.676 -0.2586  0.6714  0.1167
  392MOL0    Cl52830  -1.254   3.585  11.705  0.0470  0.3529  0.3869
  392MOL0     C52831  -0.292   4.219  11.436  0.2800 -0.3289  0.3032
  392MOL0     C52832  -0.191   4.286  11.380 -0.9460 -0.3407  0.0353
  392MOL0     O52833   0.064   4.420  11.314 -0.0844 -1.5280 -0.4015
  392MOL0     C52834   0.020   4.559  10.981 -0.1913  0.1821 -0.4313
  392MOL0     C52835   0.082   4.636  10.887 -0.1044 -0.0281 -0.0004
  392MOL0     N52836   0.417   5.233  11.145 -0.0448  0.0112 -0.1617
  392MOL0     N52837   0.418   5.360  11.107 -0.0162  0.2621 -0.1346
  392MOL0     C52838   0.916   4.797  10.524  0.2185  0.4347  0.6581
  392MOL0     C52839   1.049   4.766  10.540  0.6326 -0.5612 -0.5264
  392MOL0     C52840   1.493   4.863  10.701  0.0161  0.1820  0.1250
  392MOL0     C52841   1.523   4.866  10.555 -0.6129  0.1571  0.6754
  392MOL0     C52842   1.653   4.898  10.521 -0.9576  0.3470  0.4266
  392MOL0     C52843   1.763   4.917  10.617  1.0424  0.3361  0.0980
  392MOL0     O52844   1.882   4.942  10.564 -0.4452  0.0041  0.0982
  392MOL0     C52845   1.994   4.944  10.660 -0.2699  0.2338 -0.1027
  392MOL0     C52846   2.132   4.939  10.588  0.5157  0.2450 -0.1517
  392MOL0     C52847   2.163   5.069  10.519 -0.3777 -0.4928  0.3170
  392MOL0     C52848   2.302   5.063  10.464  0.3914  0.8566  0.0159
  392MOL0     C52849   2.415   5.059  10.560 -0.3814  0.2555 -0.5288
  392MOL0     C52850   2.509   5.057  10.634  0.4892 -0.7414 -0.9806
  392MOL0     C52851   1.729   4.908  10.755 -0.6321 -1.0872 -0.1531
  392MOL0     C52852   1.596   4.886  10.793 -0.2563  0.0776 -0.5325
  392MOL0     H52853   1.100   4.986  10.806 -1.9464 -0.1270  0.4644
  392MOL0     H52854   0.904   5.015  10.795  3.9051  0.3812 -0.1149
  392MOL0     H52855   0.753   4.928  10.384 -0.0154 -0.2894  0.3023
  392MOL0     H52856   0.609   5.007  10.430  0.1100 -0.4575 -1.3591
  392MOL0     H52857   0.877   5.128  10.441 -0.0276  0.6491 -1.4209
  392MOL0     H52858   0.743   5.186  10.348 -0.0733  4.4451  1.3719
  392MOL0     H52859   0.760   5.208  10.649 -2.0992 -1.1091  0.4765
  392MOL0     H52860   0.762   5.332  10.541  1.9557 -0.3561  5.3412
  392MOL0     H52861   0.531   5.230  10.445 -0.2594 -2.8636  0.6782
  392MOL0     H52862   0.518   5.153  10.604 -0.9791  0.3261  0.5219
  392MOL0     H52863   0.526   5.453  10.524  0.1764 -0.5429  0.2141
  392MOL0     H52864   0.401   5.352  10.608 -0.5878 -1.8395  0.4737
  392MOL0     H52865   0.576   5.301  10.784  0.7760 -0.8392 -1.9775
  392MOL0     H52866   0.668   5.439  10.721  0.2330 -0.3093  0.1330
  392MOL0     H52867   0.482   5.587  10.782 -2.7196 -0.7714 -1.0709
  392MOL0     H52868   0.391   5.452  10.839 -0.1543 -0.9372  1.8245
  392MOL0     H52869   0.515   5.592  11.014  0.6699  1.0321  0.4533
  392MOL0     H52870   0.669   5.537  10.961  0.5924 -0.6991  2.6853
  392MOL0     H52871   0.711   5.269  10.998  0.9801  0.6661  3.0926
  392MOL0     H52872   0.670   5.004  11.151 -0.7165  0.4604  1.6501
  392MOL0     H52873   0.501   4.971  11.172 -0.3646  0.3605  0.2281
  392MOL0     H52874   0.590   4.834  10.981 -2.8204 -1.1335  1.7776
  392MOL0     H52875   0.627   5.001  10.903 -0.3316  1.2884  0.7750
  392MOL0     H52876   0.387   5.036  10.875  0.8861 -0.0699 -1.2686
  392MOL0     H52877   0.342   4.910  10.994  1.5303  0.5839  2.3346
  392MOL0     H52878   0.466   4.749  10.807 -1.2294 -0.6930 -2.4981
  392MOL0     H52879   0.409   4.865  10.700 -0.5043 -1.3924 -1.1396
  392MOL0     H52880   0.389   4.670  11.028 -0.1316  1.0478  0.8490
  392MOL0     H52881   0.299   4.565  11.311 -0.3267  0.4041 -0.1082
  392MOL0     H52882   0.316   4.407  11.225  1.7428 -1.0210  1.5871
  392MOL0     H52883   0.426   4.537  11.181 -0.0679  3.2508  2.9377
  392MOL0     H52884  -0.372   4.476  11.157 -0.7181  0.5603  0.1201
  392MOL0     H52885  -0.552   4.363  11.273  0.9251  0.8054 -0.3635
  392MOL0     H52886  -0.415   3.979  11.455 -0.1370 -0.0549 -0.7815
  392MOL0     H52887  -0.469   4.052  11.602  0.0387 -0.2809 -0.2212
  392MOL0     H52888  -0.662   3.952  11.384  0.5833  1.2892  0.2143
  392MOL0     H52889  -0.609   3.838  11.510 -0.5566  0.7442  4.5145
  392MOL0     H52890  -0.743   4.091  11.608 -0.2227  0.1580 -0.1595
  392MOL0     H52891  -0.752   3.917  11.666 -1.9764  1.1474  1.3060
  392MOL0     H52892  -0.881   4.015  11.413  0.1751 -0.0097  0.4234
  392MOL0     H52893  -0.878   3.849  11.474 -2.3828 -0.4086  0.0592
  392MOL0     H52894  -1.005   4.096  11.578 -0.3282 -0.1370 -1.0825
  392MOL0     H52895  -0.992   3.956  11.687 -0.3675 -0.2283  0.2686
  392MOL0     H52896  -1.221   3.992  11.566 -1.3266  0.7355 -2.0737
  392MOL0     H52897  -1.144   3.961  11.415 -1.4902  4.7774  0.5160
  392MOL0     H52898  -1.074   3.727  11.518 -0.4081 -0.8780  1.4161
  392MOL0     H52899  -1.233   3.770  11.461  0.8209 -0.2283  0.1385
  392MOL0     H52900  -1.321   3.797  11.689 -0.1346  1.1379 -0.4046
  392MOL0     H52901  -1.145   3.789  11.747  1.0475 -0.3788 -0.7281
  392MOL0     H52902  -0.277   4.157  11.524  1.7743 -1.2055 -0.5186
  392MOL0     H52903  -0.088   4.271  11.412  0.6989  3.0164 -2.9507
  392MOL0     H52904  -0.082   4.536  10.954  0.2410  1.3924 -3.5090
  392MOL0     H52905   0.018   4.681  10.811 -1.1750  0.0534  0.9177
  392MOL0     H52906   0.865   4.751  10.440  0.9665 -0.9571  0.9331
  392MOL0     H52907   1.099   4.708  10.463  0.8442 -0.7800 -0.2297
  392MOL0     H52908   1.438   4.860  10.489 -0.8245 -3.1262  1.0532
  392MOL0     H52909   1.667   4.904  10.414 -4.2915  1.7977 -0.0462
  392MOL0     H52910   1.988   5.038  10.715  0.3973  0.9311 -1.1914
  392MOL0     H52911   1.982   4.858  10.727  1.5535  0.0385  0.0260
  392MOL0     H52912   2.139   4.851  10.523 -0.5287 -0.8115  1.1154
  392MOL0     H52913   2.212   4.925  10.661 -1.0931 -2.4944  1.2426
  392MOL0     H52914   2.143   5.149  10.591  0.4899  0.0883 -0.0725
  392MOL0     H52915   2.086   5.080  10.442 -0.9516  0.3949  0.9908
  392MOL0     H52916   2.312   5.158  10.410 -2.3510  1.7534  0.8919
  392MOL0     H52917   2.313   4.981  10.392  0.9812  1.6748 -0.8428
  392MOL0     H52918   2.592   5.050  10.702  1.1675 -3.2603 -1.9809
  392MOL0     H52919   1.806   4.947  10.821 -1.1827 -1.5224  0.7626
  392MOL0     H52920   1.580   4.884  10.901  1.1008  2.5701 -0.2132
  393MOL0     O52921   1.031   0.587   2.640  0.8690  0.0901  0.4352
  393MOL0     C52922   1.013   0.566   2.758  0.0590  0.4159  0.1978
  393MOL0     O52923   0.948   0.462   2.807 -0.0133  0.3931  0.0357
  393MOL0     C52924   0.869   0.395   2.721 -1.1056  0.6246 -0.2726
  393MOL0     C52925   0.916   0.275   2.655  0.1594 -0.5166  0.1934
  393MOL0     C52926   0.834   0.187   2.588  0.4560 -0.4334  0.0268
  393MOL0     C52927   0.694   0.198   2.587 -0.9001  0.2710  0.0311
  393MOL0     O52928   0.600   0.125   2.521 -0.0900  0.2003  0.4441
  393MOL0     C52929   0.638   0.008   2.441  0.2603 -0.0321  0.0035
  393MOL0     C52930   0.603   0.033   2.290 -0.7762 -0.1187  0.4427
  393MOL0     C52931   0.471  -0.027   2.246  0.3000  0.0514 -0.0750
  393MOL0     C52932   0.427   0.021   2.101 -0.0059 -0.0828  0.1963
  393MOL0     C52933   0.323  -0.057   2.021  0.7197 -0.3567 -0.5757
  393MOL0     C52934   0.194  -0.050   2.100  0.4524 -0.6652  0.1070
  393MOL0     C52935   0.065  -0.109   2.037  0.4483  0.6019  0.1099
  393MOL0     C52936  -0.047  -0.094   2.133  0.1499 -0.0292  0.1421
  393MOL0     N52937  -0.163  -0.159   2.082 -0.1402  0.1845 -0.2626
  393MOL0     C52938  -0.194  -0.292   2.082  0.1322  0.1352 -0.1251
  393MOL0     C52939  -0.299  -0.312   2.000  0.2016  0.1360  1.0257
  393MOL0     C52940  -0.364  -0.455   1.972 -0.1218  0.0059 -0.0386
  393MOL0     C52941  -0.503  -0.487   2.023 -0.7907 -0.0297  0.0475
  393MOL0     C52942  -0.605  -0.414   1.936  0.2662 -0.0874 -0.8733
  393MOL0     C52943  -0.744  -0.421   2.009 -0.3211 -0.4613  0.4149
  393MOL0     O52944  -0.803  -0.552   2.031 -0.0376  0.1669  0.0703
  393MOL0     C52945  -0.881  -0.613   1.938 -0.9762  0.2696  0.6949
  393MOL0     C52946  -0.940  -0.741   1.958  0.5435  0.5187  0.2624
  393MOL0     C52947  -1.012  -0.803   1.851 -0.3113  0.4154 -0.3656
  393MOL0     C52948  -1.036  -0.942   1.873  0.3278  0.9153 -0.2824
  393MOL0     C52949  -1.050  -0.730   1.739  0.2346 -0.0283  0.0830
  393MOL0     C52950  -1.149  -0.767   1.628  0.1390  0.6611  0.0580
  393MOL0     O52951  -1.167  -0.680   1.531  0.1245  0.0403 -0.2658
  393MOL0     C52952  -1.260  -0.681   1.434 -0.5426 -0.3282 -0.6552
  393MOL0     C52953  -1.237  -0.585   1.344  0.1444 -0.0315  0.4281
  393MOL0     C52954  -1.326  -0.563   1.232  0.0339  0.2720  0.4294
  393MOL0     C52955  -1.432  -0.646   1.209  0.7225 -0.1144  0.3276
  393MOL0     O52956  -1.517  -0.644   1.099 -0.5915  0.8298  0.2025
  393MOL0     C52957  -1.472  -0.563   0.989  0.6903 -0.5231  0.8406
  393MOL0     C52958  -1.573  -0.556   0.875  0.4858  0.2104  0.3109
  393MOL0     C52959  -1.516  -0.512   0.737 -0.9816  0.7598  0.5268
  393MOL0     C52960  -1.612  -0.524   0.626 -0.8238 -0.1786  0.8453
  393MOL0     C52961  -1.550  -0.470   0.505 -0.1354  0.6706 -0.6548
  393MOL0     C52962  -1.653  -0.450   0.391  0.7785  0.7295  0.8825
  393MOL0     C52963  -1.596  -0.375   0.261  0.1941 -0.6580 -0.8068
  393MOL0     C52964  -1.677  -0.402   0.129 -0.1198  0.5623 -0.9114
  393MOL0    Cl52965  -1.850  -0.369   0.134 -0.2509  0.3037 -0.3552
  393MOL0     C52966  -1.460  -0.739   1.311  0.3262  0.1393 -0.1196
  393MOL0     C52967  -1.373  -0.762   1.415 -0.0002  0.2560 -0.1987
  393MOL0     O52968  -1.219  -0.872   1.646  0.3067 -0.1453 -0.0841
  393MOL0     C52969  -0.996  -0.597   1.725 -0.4544  0.5506 -0.1007
  393MOL0     C52970  -0.906  -0.551   1.819  0.1007 -0.1826 -0.7017
  393MOL0     N52971  -0.338  -0.182   1.962 -0.1729  0.0054 -0.6758
  393MOL0     N52972  -0.259  -0.091   2.008  0.2402  0.3457 -0.5312
  393MOL0     C52973   0.642   0.310   2.643  0.6044  0.7403 -0.5740
  393MOL0     C52974   0.730   0.411   2.703  0.2419 -0.2520  0.5859
  393MOL0     C52975   1.091   0.644   2.863 -0.7547  0.6248 -0.3227
  393MOL0     C52976   1.169   0.747   2.816  0.2903  0.1092 -0.4727
  393MOL0     C52977   1.256   0.823   2.896 -0.3691 -0.5143  0.6183
  393MOL0     C52978   1.260   0.795   3.028 -0.4075 -1.1158 -1.1299
  393MOL0     O52979   1.334   0.880   3.114  0.3586 -0.1792  0.3853
  393MOL0     C52980   1.369   0.828   3.236 -0.1789  0.7613  0.1466
  393MOL0     C52981   1.493   0.731   3.227  1.1255 -0.5779  0.8564
  393MOL0     C52982   1.617   0.816   3.169 -0.3090  0.9216 -0.5516
  393MOL0     C52983   1.753   0.749   3.189 -0.0316 -0.3782  0.1387
  393MOL0     C52984   1.753   0.621   3.113 -0.6882  0.2311  0.6405
  393MOL0     C52985   1.753   0.521   3.046 -0.0597 -0.0010  0.1456
  393MOL0     C52986   1.190   0.687   3.082 -0.8334 -0.5037  0.3364
  393MOL0     C52987   1.108   0.603   2.995  0.8516 -0.3894  0.5044
  393MOL0     H52988   1.023   0.258   2.651 -0.2070 -3.1363 -0.1698
  393MOL0     H52989   0.880   0.100   2.542  0.8296 -1.0715  1.5392
  393MOL0     H52990   0.743  -0.020   2.437  0.7384  1.6110  0.3843
  393MOL0     H52991   0.575  -0.075   2.472 -1.4370  0.5331 -1.7318
  393MOL0     H52992   0.618   0.141   2.274  0.6143 -0.5391 -1.5128
  393MOL0     H52993   0.677  -0.017   2.226 -1.1272 -1.3458  0.9844
  393MOL0     H52994   0.479  -0.135   2.236 -0.0428 -0.1065  1.1898
  393MOL0     H52995   0.399   0.004   2.323 -0.4588 -2.9895  0.5619
  393MOL0     H52996   0.393   0.122   2.123 -3.4206 -0.9898 -0.3698
  393MOL0     H52997   0.516   0.033   2.039  1.7909 -0.6341  2.4864
  393MOL0     H52998   0.312  -0.000   1.929  2.2906  0.3876 -0.3379
  393MOL0     H52999   0.366  -0.157   2.008  6.3474  1.5977  0.3388
  393MOL0     H53000   0.205  -0.102   2.195 -0.2081  0.3362  0.7606
  393MOL0     H53001   0.156   0.051   2.122 -4.8897 -2.2022 -0.6686
  393MOL0     H53002   0.042  -0.045   1.951 -3.4881 -1.7151 -0.7753
  393MOL0     H53003   0.078  -0.212   2.004 -1.0163 -0.1637  1.7989
  393MOL0     H53004  -0.066   0.011   2.155 -1.0277 -0.4271  1.1590
  393MOL0     H53005  -0.013  -0.135   2.229 -0.3729 -0.7070  0.0429
  393MOL0     H53006  -0.132  -0.366   2.130  3.0798  2.6560  0.2579
  393MOL0     H53007  -0.365  -0.474   1.864 -2.2592  1.7563 -0.3891
  393MOL0     H53008  -0.295  -0.525   2.021 -2.0143  0.6810  4.0567
  393MOL0     H53009  -0.509  -0.449   2.125  1.8538 -2.2675  1.1550
  393MOL0     H53010  -0.527  -0.594   2.015 -1.5421  0.2531 -2.5399
  393MOL0     H53011  -0.608  -0.449   1.833  1.9619  3.3526 -2.2357
  393MOL0     H53012  -0.579  -0.308   1.928  0.7310 -0.2451 -1.4703
  393MOL0     H53013  -0.825  -0.363   1.964 -0.4815 -2.6141 -2.3519
  393MOL0     H53014  -0.730  -0.366   2.102 -2.6431 -0.7361  1.0040
  393MOL0     H53015  -0.932  -0.786   2.057 -0.7625 -1.4481 -0.4562
  393MOL0     H53016  -1.142  -0.965   1.861 -0.5959  4.9516 -1.4067
  393MOL0     H53017  -0.966  -0.995   1.807  3.3454  4.2138 -0.0727
  393MOL0     H53018  -1.016  -0.972   1.976 -2.0952  0.0216 -0.0200
  393MOL0     H53019  -1.155  -0.519   1.370  0.9039 -2.1282  3.9640
  393MOL0     H53020  -1.306  -0.486   1.158  2.1320 -0.6859 -0.0757
  393MOL0     H53021  -1.472  -0.462   1.031  1.1647 -0.6015  1.0320
  393MOL0     H53022  -1.381  -0.614   0.956 -1.9699 -3.7644 -2.3071
  393MOL0     H53023  -1.609  -0.658   0.858 -1.7176  0.7461  1.4278
  393MOL0     H53024  -1.657  -0.494   0.908  0.2602 -0.5827  1.2675
  393MOL0     H53025  -1.427  -0.571   0.712  0.0109  2.2016  0.5574
  393MOL0     H53026  -1.473  -0.412   0.743 -1.3903  1.1913 -2.3605
  393MOL0     H53027  -1.634  -0.630   0.606  1.6477 -0.5857 -0.1760
  393MOL0     H53028  -1.697  -0.457   0.634 -0.4689  0.5178 -0.8040
  393MOL0     H53029  -1.477  -0.548   0.481 -1.9628 -2.0729  2.0469
  393MOL0     H53030  -1.506  -0.371   0.525  3.3651 -0.9491  0.4972
  393MOL0     H53031  -1.711  -0.540   0.371 -0.1054  1.7178 -1.3425
  393MOL0     H53032  -1.724  -0.381   0.438  1.0497  2.9852 -1.7626
  393MOL0     H53033  -1.496  -0.411   0.235 -0.3460 -0.8943 -2.7681
  393MOL0     H53034  -1.597  -0.267   0.278 -1.8431 -1.1075  3.0390
  393MOL0     H53035  -1.662  -0.504   0.093 -2.3257  0.5178 -1.8599
  393MOL0     H53036  -1.622  -0.342   0.055 -0.4461  2.2238  0.1272
  393MOL0     H53037  -1.551  -0.799   1.309  0.3143  0.1854 -1.0731
  393MOL0     H53038  -1.395  -0.841   1.486 -0.7857  2.4546  2.1769
  393MOL0     H53039  -1.020  -0.537   1.638 -0.0442 -4.4289 -4.1091
  393MOL0     H53040  -0.859  -0.454   1.803  0.1041  0.1439  1.0931
  393MOL0     H53041   0.536   0.334   2.642 -0.0661 -1.7902  0.4523
  393MOL0     H53042   0.694   0.500   2.754  0.2072  0.3867 -0.5222
  393MOL0     H53043   1.156   0.770   2.711 -1.1157 -1.5942 -0.7180
  393MOL0     H53044   1.301   0.909   2.848 -2.9917  1.0682  0.7921
  393MOL0     H53045   1.387   0.912   3.304 -3.8557  2.0001 -0.1810
  393MOL0     H53046   1.290   0.772   3.286 -0.2547 -1.5170 -2.3455
  393MOL0     H53047   1.463   0.654   3.155  2.6673 -0.6140  0.2005
  393MOL0     H53048   1.510   0.684   3.324  0.2719 -1.0008  0.8069
  393MOL0     H53049   1.625   0.914   3.216  1.7549  0.3710  0.3463
  393MOL0     H53050   1.599   0.834   3.063  3.2172  1.7735 -1.1137
  393MOL0     H53051   1.767   0.716   3.291 -0.7340 -1.0987  0.0110
  393MOL0     H53052   1.832   0.821   3.167 -1.0299  0.6970 -0.0658
  393MOL0     H53053   1.768   0.440   2.977  0.1749  0.4749 -0.3739
  393MOL0     H53054   1.204   0.648   3.183 -0.8431 -1.1804  0.0776
  393MOL0     H53055   1.045   0.523   3.034 -1.0480  0.7885 -0.0402
  394MOL0     O53056  10.618   3.011   2.516  0.2241 -0.1014  0.8393
  394MOL0     C53057  10.682   2.968   2.423 -0.1675 -0.2234  1.0812
  394MOL0     O53058  10.631   2.881   2.329 -0.8011  0.1750  0.5816
  394MOL0     C53059  10.497   2.881   2.306 -0.5447 -0.4871  1.5512
  394MOL0     C53060  10.421   2.999   2.287  0.2028 -0.3381  0.0778
  394MOL0     C53061  10.291   2.976   2.246  0.4535 -0.3703 -0.0920
  394MOL0     C53062  10.246   2.846   2.207  0.5712  0.2997  1.0051
  394MOL0     O53063  10.118   2.838   2.153  0.2712 -0.2035  1.1632
  394MOL0     C53064  10.048   2.716   2.142  0.6023  0.6712 -0.3564
  394MOL0     C53065   9.903   2.754   2.112  0.3104 -0.8472 -0.2060
  394MOL0     C53066   9.893   2.820   1.970  0.1241  0.3102 -0.6381
  394MOL0     C53067   9.751   2.816   1.904  0.4767 -0.0255  0.4598
  394MOL0     C53068   9.763   2.836   1.752 -0.4171  0.2224 -0.2124
  394MOL0     C53069   9.640   2.774   1.687  0.6151  0.4526  0.8580
  394MOL0     C53070   9.615   2.827   1.544 -0.4992  0.3531 -0.7942
  394MOL0     C53071   9.542   2.729   1.454  1.1126 -0.0178  0.9858
  394MOL0     N53072   9.401   2.729   1.492 -1.5439 -0.3495 -0.0681
  394MOL0     C53073   9.304   2.787   1.410 -0.5299  0.9228 -0.2633
  394MOL0     C53074   9.187   2.736   1.451 -0.1252 -0.4712 -0.4119
  394MOL0     C53075   9.055   2.753   1.397 -0.9551  0.2338 -0.7715
  394MOL0     C53076   9.035   2.673   1.270 -1.1620 -0.4035 -0.0288
  394MOL0     C53077   8.899   2.691   1.200  0.2532 -0.1298 -0.3885
  394MOL0     C53078   8.898   2.654   1.049  0.0589 -0.4686  0.1983
  394MOL0     O53079   8.792   2.733   0.986  0.7333 -0.2190 -0.2471
  394MOL0     C53080   8.674   2.661   0.960 -0.2016 -1.0510 -0.0987
  394MOL0     C53081   8.647   2.638   0.825 -0.3578  0.2491 -0.5393
  394MOL0     C53082   8.532   2.567   0.789  0.0590 -0.5125 -0.0499
  394MOL0     C53083   8.524   2.532   0.645 -0.2526  0.7119 -0.0262
  394MOL0     C53084   8.449   2.510   0.887 -0.9686  0.2907 -0.8008
  394MOL0     C53085   8.328   2.431   0.854  1.1416  0.6842  0.7183
  394MOL0     O53086   8.265   2.462   0.727 -0.4562 -0.1454 -0.7466
  394MOL0     C53087   8.157   2.402   0.672 -0.7125 -0.0282  0.7836
  394MOL0     C53088   8.069   2.483   0.602 -0.7650  1.3217 -0.0287
  394MOL0     C53089   7.934   2.444   0.588 -0.5412 -0.4645  0.1162
  394MOL0     C53090   7.893   2.316   0.612  0.0368 -0.5733  0.2172
  394MOL0     O53091   7.774   2.260   0.582 -0.5905 -0.4347 -1.2684
  394MOL0     C53092   7.659   2.335   0.532 -0.4953  0.0208 -0.6512
  394MOL0     C53093   7.552   2.231   0.503 -0.0705  0.3295  0.3865
  394MOL0     C53094   7.414   2.290   0.450 -1.0575 -0.7561 -0.1720
  394MOL0     C53095   7.353   2.206   0.341  0.3178  0.0565  0.1909
  394MOL0     C53096   7.241   2.287   0.267  0.3525  0.3135 -0.2928
  394MOL0     C53097   7.191   2.196   0.157 -0.6289  0.1443  0.4548
  394MOL0     C53098   7.290   2.202   0.036  0.7059  0.4436 -0.2170
  394MOL0     C53099   7.227   2.129  -0.078 -0.8977 -0.3141  0.0602
  394MOL0    Cl53100   7.296   2.168  -0.239  0.0900 -0.1462 -0.1792
  394MOL0     C53101   7.986   2.231   0.666 -0.3215  0.9284 -0.1830
  394MOL0     C53102   8.120   2.262   0.692 -0.4936 -0.9551  0.4202
  394MOL0     O53103   8.283   2.339   0.925 -1.1469  0.2614  0.2165
  394MOL0     C53104   8.487   2.523   1.021  0.0434 -0.2648 -0.1125
  394MOL0     C53105   8.596   2.604   1.060 -0.3498  0.6295  0.0136
  394MOL0     N53106   9.214   2.652   1.563 -1.1823 -0.4281  0.1804
  394MOL0     N53107   9.348   2.643   1.580 -0.2550 -0.0560  0.1191
  394MOL0     C53108  10.323   2.726   2.238  0.3807 -0.4802  0.1463
  394MOL0     C53109  10.450   2.751   2.283 -0.1831 -0.3122  0.4218
  394MOL0     C53110  10.824   3.007   2.410  0.3102 -0.1301  0.1267
  394MOL0     C53111  10.887   3.054   2.522 -0.6289 -0.1705 -0.1984
  394MOL0     C53112  11.031   3.089   2.510  0.3622 -0.2679  0.6980
  394MOL0     C53113  11.094   3.103   2.392  0.7983  0.4276  0.2310
  394MOL0     O53114  11.230   3.112   2.400 -0.2345 -0.4309 -0.1201
  394MOL0     C53115  11.281   3.212   2.306  0.0772 -0.0068 -0.7797
  394MOL0     C53116  11.385   3.289   2.385  1.5260  0.0455  0.5689
  394MOL0     C53117  11.531   3.256   2.354 -0.8606  0.9045  0.0229
  394MOL0     C53118  11.632   3.357   2.410  0.3955 -0.6085  1.0453
  394MOL0     C53119  11.770   3.325   2.370  0.4717  0.9690 -0.6497
  394MOL0     C53120  11.887   3.300   2.359  0.0709  0.5071 -0.6845
  394MOL0     C53121  11.024   3.053   2.280 -0.0915  0.2697 -0.4039
  394MOL0     C53122  10.890   3.001   2.289  0.2521  1.6535 -0.9219
  394MOL0     H53123  10.446   3.105   2.293 -1.8888  0.1497  1.2540
  394MOL0     H53124  10.215   3.052   2.226  1.2189  0.3427 -0.3470
  394MOL0     H53125  10.083   2.648   2.064  0.3220  1.5438 -1.2613
  394MOL0     H53126  10.063   2.676   2.243  2.9618  2.7546  0.2065
  394MOL0     H53127   9.837   2.667   2.124  0.6367 -0.9114  1.2666
  394MOL0     H53128   9.867   2.832   2.180 -1.3602 -0.9512 -0.9239
  394MOL0     H53129   9.920   2.926   1.974  3.0079 -0.2900 -1.9964
  394MOL0     H53130   9.965   2.779   1.899 -0.0743  1.2112 -1.3802
  394MOL0     H53131   9.708   2.718   1.926  0.1983 -1.2132 -4.2418
  394MOL0     H53132   9.690   2.891   1.954  0.9622 -1.6277  3.7089
  394MOL0     H53133   9.770   2.939   1.715  1.3396 -0.4737 -1.9713
  394MOL0     H53134   9.851   2.786   1.712 -0.0537 -0.4499  1.3231
  394MOL0     H53135   9.656   2.666   1.683 -0.5104  0.2795 -2.6905
  394MOL0     H53136   9.551   2.789   1.749  0.2019  4.8503 -0.4422
  394MOL0     H53137   9.575   2.928   1.532  2.7142  1.6654 -1.5658
  394MOL0     H53138   9.714   2.818   1.499  0.2437  0.4706  0.7560
  394MOL0     H53139   9.595   2.634   1.466  0.0083 -1.1280 -1.8786
  394MOL0     H53140   9.551   2.754   1.348  1.9020 -1.7101  0.6201
  394MOL0     H53141   9.319   2.854   1.326  1.0566 -0.1418 -0.8592
  394MOL0     H53142   8.982   2.706   1.463 -2.1788  1.8076 -0.9302
  394MOL0     H53143   9.034   2.859   1.381  1.3608  0.8157 -0.3061
  394MOL0     H53144   9.049   2.566   1.287 -2.0582 -0.4657  0.3862
  394MOL0     H53145   9.118   2.686   1.200  0.5159 -2.5798  1.4089
  394MOL0     H53146   8.864   2.794   1.213  0.6408 -0.2970  2.9727
  394MOL0     H53147   8.825   2.634   1.258  2.1666  0.9051  3.3891
  394MOL0     H53148   8.888   2.546   1.035 -2.1109 -0.4694  1.2707
  394MOL0     H53149   8.993   2.685   1.005 -0.7062  0.5917 -0.7842
  394MOL0     H53150   8.717   2.673   0.750 -1.5816 -1.5618 -2.6533
  394MOL0     H53151   8.431   2.565   0.597 -0.3729 -1.8795 -1.7516
  394MOL0     H53152   8.602   2.568   0.577 -0.8053  0.8145 -0.6065
  394MOL0     H53153   8.532   2.424   0.629  1.1743  1.0169 -1.6877
  394MOL0     H53154   8.108   2.584   0.584  1.5289  0.4982 -0.0702
  394MOL0     H53155   7.875   2.521   0.539  0.2203  0.7517  1.0395
  394MOL0     H53156   7.639   2.417   0.602 -2.9939  0.0529 -1.2846
  394MOL0     H53157   7.687   2.391   0.442 -1.1618 -1.4912 -1.8363
  394MOL0     H53158   7.591   2.168   0.422 -0.0464  1.8540 -0.8356
  394MOL0     H53159   7.531   2.168   0.590  0.6124 -1.6366 -0.7999
  394MOL0     H53160   7.427   2.396   0.429  1.5493 -0.3353  2.7486
  394MOL0     H53161   7.350   2.281   0.539 -0.4739 -1.8836  0.1610
  394MOL0     H53162   7.431   2.170   0.273  0.7382 -0.7720  1.0884
  394MOL0     H53163   7.316   2.113   0.383  0.8033  0.1534  0.8500
  394MOL0     H53164   7.280   2.375   0.214 -0.8694 -1.2340 -4.1025
  394MOL0     H53165   7.163   2.314   0.339 -2.1909  0.3301 -2.8541
  394MOL0     H53166   7.189   2.093   0.192  2.3875 -0.5096 -1.0117
  394MOL0     H53167   7.091   2.227   0.125 -0.7762 -1.8373 -1.1929
  394MOL0     H53168   7.385   2.149   0.050  0.4608  0.3743  1.2997
  394MOL0     H53169   7.304   2.307   0.008 -1.5559  1.3499  1.7214
  394MOL0     H53170   7.123   2.161  -0.088  0.1955  3.2367 -1.7120
  394MOL0     H53171   7.239   2.025  -0.047  2.7250  0.2716  1.1370
  394MOL0     H53172   7.961   2.131   0.698 -0.2024  0.2512 -2.0922
  394MOL0     H53173   8.185   2.190   0.740 -0.3697 -1.0077  0.1712
  394MOL0     H53174   8.431   2.472   1.099  2.1111  0.2487  1.7908
  394MOL0     H53175   8.624   2.620   1.164  2.6451 -0.6658 -0.5023
  394MOL0     H53176  10.289   2.624   2.224 -1.8590  0.1934  0.2312
  394MOL0     H53177  10.517   2.667   2.301 -0.4530 -0.0801  2.8634
  394MOL0     H53178  10.820   3.053   2.607 -2.5123 -0.5407 -1.6176
  394MOL0     H53179  11.092   3.118   2.595 -2.1647  1.8151  1.9427
  394MOL0     H53180  11.318   3.172   2.211 -1.4371 -3.1123 -0.1685
  394MOL0     H53181  11.206   3.287   2.279 -0.8711 -1.1771 -1.4952
  394MOL0     H53182  11.385   3.263   2.491 -2.1393 -0.0332  0.6716
  394MOL0     H53183  11.362   3.395   2.378 -0.9004 -0.5180 -2.0914
  394MOL0     H53184  11.535   3.250   2.245  2.9719 -0.5641  0.1053
  394MOL0     H53185  11.556   3.155   2.386 -1.2411  0.4727 -0.9996
  394MOL0     H53186  11.635   3.361   2.519  2.8464 -1.3397  1.0657
  394MOL0     H53187  11.597   3.457   2.385  1.3500  0.1335  2.5409
  394MOL0     H53188  11.991   3.291   2.334 -0.1661 -0.1803 -1.4616
  394MOL0     H53189  11.071   3.045   2.182  1.8106  4.1800  0.0028
  394MOL0     H53190  10.832   2.945   2.216 -3.0362  1.0599  1.9346
  395MOL0     O53191   2.439  11.214   4.075  0.6312  0.6556  0.2267
  395MOL0     C53192   2.480  11.297   4.000 -0.1898  0.6476 -0.2420
  395MOL0     O53193   2.399  11.361   3.912 -0.4504 -0.2450  0.2951
  395MOL0     C53194   2.272  11.322   3.888  0.6920 -0.2950 -0.3570
  395MOL0     C53195   2.166  11.414   3.889 -0.7030  0.0260  0.6276
  395MOL0     C53196   2.032  11.379   3.853 -0.2666  0.1413  0.3437
  395MOL0     C53197   2.002  11.241   3.823 -0.5615  0.4769  0.5556
  395MOL0     O53198   1.881  11.187   3.792  0.0656 -0.0413 -0.1627
  395MOL0     C53199   1.767  11.271   3.794 -0.7720  0.1504 -0.1836
  395MOL0     C53200   1.652  11.177   3.757  0.9603 -0.4229 -0.5371
  395MOL0     C53201   1.529  11.244   3.697 -0.7231  0.0994 -0.5401
  395MOL0     C53202   1.466  11.337   3.797 -1.3201 -0.2281 -0.5444
  395MOL0     C53203   1.312  11.328   3.801  1.2537 -0.2432  0.1259
  395MOL0     C53204   1.254  11.403   3.680 -1.1460  0.1400 -0.4945
  395MOL0     C53205   1.131  11.341   3.621 -0.4792 -0.4253  0.0645
  395MOL0     C53206   1.016  11.314   3.726 -0.3196  1.1279  0.3549
  395MOL0     N53207   0.893  11.265   3.674 -0.0362 -0.0539 -0.0276
  395MOL0     C53208   0.823  11.293   3.558 -1.0465 -0.2150 -0.6383
  395MOL0     C53209   0.713  11.224   3.556 -0.2302  0.1575 -1.2243
  395MOL0     C53210   0.612  11.217   3.440 -0.6764  0.6384 -1.2785
  395MOL0     C53211   0.484  11.286   3.473  0.4205  0.9627  0.2175
  395MOL0     C53212   0.368  11.226   3.394  0.3785  0.0650  0.9785
  395MOL0     C53213   0.366  11.269   3.245 -0.2389 -0.3955 -0.6134
  395MOL0     O53214   0.242  11.335   3.226  0.0677 -0.6245  0.6964
  395MOL0     C53215   0.122  11.277   3.225  0.2771  1.2060 -0.0225
  395MOL0     C53216   0.010  11.353   3.246  0.1589 -0.9339  0.7445
  395MOL0     C53217  -0.120  11.305   3.246  0.3543  0.1244  0.3256
  395MOL0     C53218  -0.253  11.382   3.257 -0.1738 -0.6924  0.3421
  395MOL0     C53219  -0.135  11.164   3.208 -0.3511 -0.9859 -1.1384
  395MOL0     C53220  -0.265  11.091   3.179  0.0917  0.2964  1.3847
  395MOL0     O53221  -0.251  10.973   3.110  0.5323 -0.6517  0.2804
  395MOL0     C53222  -0.371  10.909   3.075 -0.3678  0.5900  0.7033
  395MOL0     C53223  -0.381  10.858   2.945  1.1069  0.1843  0.5010
  395MOL0     C53224  -0.500  10.789   2.908 -0.6398  0.5718  0.1145
  395MOL0     C53225  -0.615  10.771   2.994  0.1218 -0.0215  0.2611
  395MOL0     O53226  -0.735  10.711   2.963  0.1385  0.2203  0.0827
  395MOL0     C53227  -0.764  10.683   2.822 -0.3278 -0.1233 -0.5246
  395MOL0     C53228  -0.917  10.674   2.796  0.1302  0.5954 -0.1343
  395MOL0     C53229  -0.987  10.546   2.842 -0.3222 -0.4052 -0.3482
  395MOL0     C53230  -1.126  10.523   2.791  0.2934 -1.2993  0.6084
  395MOL0     C53231  -1.233  10.607   2.877  0.7939 -0.0394 -0.0780
  395MOL0     C53232  -1.376  10.555   2.844  0.3058 -0.0403 -0.3184
  395MOL0     C53233  -1.481  10.621   2.929  0.0086 -0.1447  0.2410
  395MOL0     C53234  -1.614  10.571   2.900  0.6821  0.0653 -0.4645
  395MOL0    Cl53235  -1.632  10.416   2.984 -0.0976  0.2422 -0.0973
  395MOL0     C53236  -0.605  10.830   3.123  0.0859 -0.5004  0.2478
  395MOL0     C53237  -0.480  10.893   3.163 -0.3082 -0.2330  0.1817
  395MOL0     O53238  -0.373  11.138   3.214  0.1586 -0.0770 -0.6963
  395MOL0     C53239  -0.018  11.083   3.201  0.2558  0.2585 -0.0026
  395MOL0     C53240   0.106  11.137   3.213 -0.5920  0.1310 -0.3414
  395MOL0     N53241   0.707  11.150   3.677 -0.3390  0.2521 -0.2619
  395MOL0     N53242   0.810  11.174   3.741 -0.4946 -0.2111  0.0372
  395MOL0     C53243   2.103  11.151   3.824  0.0943  0.1805  0.2789
  395MOL0     C53244   2.236  11.194   3.854  0.0286 -1.1804  0.1438
  395MOL0     C53245   2.632  11.340   4.007  0.3204 -0.2337 -0.6094
  395MOL0     C53246   2.688  11.417   3.904  0.2039  0.8078 -0.6905
  395MOL0     C53247   2.821  11.456   3.910 -0.0236  0.7311 -0.5069
  395MOL0     C53248   2.899  11.412   4.018  0.1873 -0.5868  0.2171
  395MOL0     O53249   3.025  11.465   4.031 -0.4250  0.2339  0.1031
  395MOL0     C53250   3.123  11.368   3.996  0.7696 -0.8971  0.5368
  395MOL0     C53251   3.192  11.394   3.863  0.1736 -0.6376 -0.3593
  395MOL0     C53252   3.256  11.527   3.876  0.0616  0.1528 -0.4379
  395MOL0     C53253   3.366  11.561   3.780  0.4212  0.7532 -0.7615
  395MOL0     C53254   3.325  11.666   3.688  0.3278  0.8747 -0.2138
  395MOL0     C53255   3.273  11.760   3.644  0.8925 -1.6113  0.2992
  395MOL0     C53256   2.850  11.321   4.115  0.4922  0.2000  0.8136
  395MOL0     C53257   2.711  11.297   4.112  0.0661  0.6559  0.2811
  395MOL0     H53258   2.195  11.518   3.900 -1.1767  0.2453 -0.1345
  395MOL0     H53259   1.953  11.452   3.863 -0.2763  0.2735 -0.5801
  395MOL0     H53260   1.746  11.327   3.885 -2.8624  0.4873 -0.8323
  395MOL0     H53261   1.770  11.341   3.710  2.2254  0.2348 -0.1294
  395MOL0     H53262   1.687  11.109   3.678  1.2043  2.6694 -3.3038
  395MOL0     H53263   1.621  11.119   3.845  1.5236 -3.6586 -2.2931
  395MOL0     H53264   1.549  11.301   3.606  3.6805 -2.1737 -1.2764
  395MOL0     H53265   1.456  11.166   3.675  0.4996 -0.7215 -1.8718
  395MOL0     H53266   1.506  11.319   3.897 -0.7350  0.0676 -0.7168
  395MOL0     H53267   1.494  11.440   3.773  0.4653 -0.6016 -0.1789
  395MOL0     H53268   1.286  11.221   3.798  3.1276 -0.7452  0.6025
  395MOL0     H53269   1.261  11.376   3.885 -0.7866  1.5379 -1.9998
  395MOL0     H53270   1.245  11.511   3.694 -0.0566  0.6057 -2.8650
  395MOL0     H53271   1.322  11.393   3.595 -1.5977  1.3341 -1.0203
  395MOL0     H53272   1.083  11.408   3.549 -1.1532  0.0229  0.9193
  395MOL0     H53273   1.168  11.249   3.575  1.8472  0.1007  0.7410
  395MOL0     H53274   0.998  11.404   3.785 -2.8643  0.2125  1.0953
  395MOL0     H53275   1.055  11.247   3.804 -0.7634 -2.2628 -2.1283
  395MOL0     H53276   0.845  11.376   3.491 -3.4741 -0.6337 -2.0978
  395MOL0     H53277   0.657  11.262   3.351  3.2396  1.1843  0.7293
  395MOL0     H53278   0.598  11.114   3.406  1.8419 -0.7841  1.5164
  395MOL0     H53279   0.483  11.392   3.446 -1.3132  0.4461 -1.9752
  395MOL0     H53280   0.468  11.268   3.580  0.9812 -0.8080  0.0299
  395MOL0     H53281   0.279  11.262   3.446 -0.8947  1.7380 -2.0876
  395MOL0     H53282   0.381  11.118   3.401  0.4628 -0.0218 -0.3394
  395MOL0     H53283   0.378  11.184   3.177 -2.0252  1.5922 -3.6771
  395MOL0     H53284   0.453  11.331   3.221  0.5388 -1.2810 -0.1210
  395MOL0     H53285   0.017  11.460   3.262  0.8434 -0.8500 -0.0418
  395MOL0     H53286  -0.229  11.488   3.264  1.0638 -0.9804  0.5959
  395MOL0     H53287  -0.306  11.363   3.163 -0.0981 -1.6535  0.4768
  395MOL0     H53288  -0.307  11.360   3.349  0.9051 -0.5732  1.0131
  395MOL0     H53289  -0.309  10.883   2.869  1.4973 -0.8789  0.4976
  395MOL0     H53290  -0.505  10.760   2.804  0.9603 -1.2131  0.4722
  395MOL0     H53291  -0.723  10.770   2.771  1.3018  0.1878  1.1739
  395MOL0     H53292  -0.717  10.590   2.788 -1.5202  0.3845 -3.8560
  395MOL0     H53293  -0.969  10.764   2.831 -1.5428  0.1855 -1.4132
  395MOL0     H53294  -0.928  10.674   2.687  0.3128  0.9538 -0.1553
  395MOL0     H53295  -0.995  10.530   2.950  1.9437  0.4487  0.0056
  395MOL0     H53296  -0.920  10.469   2.802 -2.9241 -2.3009 -1.3608
  395MOL0     H53297  -1.133  10.565   2.690 -0.7374 -0.9227  0.8248
  395MOL0     H53298  -1.155  10.417   2.793 -0.9907 -0.9558  1.0812
  395MOL0     H53299  -1.218  10.715   2.868  0.7236  0.0124  0.4080
  395MOL0     H53300  -1.216  10.588   2.983 -3.8574  0.8906  1.0569
  395MOL0     H53301  -1.415  10.576   2.744 -2.5878 -0.9694  0.5097
  395MOL0     H53302  -1.378  10.448   2.866 -0.0444  0.5881  3.3492
  395MOL0     H53303  -1.474  10.729   2.913  0.1044 -0.0680  0.7884
  395MOL0     H53304  -1.470  10.607   3.037 -1.4798 -2.0939  0.2097
  395MOL0     H53305  -1.634  10.558   2.793 -0.6481 -3.1274  0.0374
  395MOL0     H53306  -1.680  10.645   2.946 -1.6562 -3.3599  2.2774
  395MOL0     H53307  -0.679  10.823   3.202  2.3017 -1.7543  2.3793
  395MOL0     H53308  -0.469  10.927   3.266  0.3631  0.7006 -0.1972
  395MOL0     H53309  -0.019  10.975   3.188 -0.9779  0.2934 -0.2829
  395MOL0     H53310   0.185  11.062   3.214 -3.6292 -3.3142 -0.5809
  395MOL0     H53311   2.073  11.049   3.803 -1.1245  0.6933 -0.5774
  395MOL0     H53312   2.313  11.120   3.833  0.3189 -0.6852 -0.5604
  395MOL0     H53313   2.633  11.446   3.815 -0.2570  0.1034 -0.6452
  395MOL0     H53314   2.874  11.511   3.833  2.4649 -1.3577 -0.4128
  395MOL0     H53315   3.194  11.369   4.079 -0.8500 -1.2457  1.9593
  395MOL0     H53316   3.086  11.265   3.998 -1.4328 -0.1736  3.7581
  395MOL0     H53317   3.109  11.403   3.792 -2.2160 -0.7979  2.2197
  395MOL0     H53318   3.261  11.311   3.846  1.3100  0.3299 -0.5800
  395MOL0     H53319   3.310  11.540   3.970 -1.4009 -0.0659  0.4748
  395MOL0     H53320   3.174  11.599   3.862 -2.2195 -2.4157 -1.1483
  395MOL0     H53321   3.393  11.470   3.726  1.7394 -0.8911  2.4449
  395MOL0     H53322   3.448  11.604   3.837 -0.6759  3.5463 -1.1391
  395MOL0     H53323   3.220  11.850   3.620 -0.9060 -2.2691  1.5782
  395MOL0     H53324   2.912  11.276   4.191  0.6485  1.2953  1.3549
  395MOL0     H53325   2.671  11.247   4.200  1.6122  1.0884  1.2781
  396MOL0     O53326   5.503   0.810  11.124  0.1082  0.0117  0.1514
  396MOL0     C53327   5.538   0.699  11.152 -0.4761  1.1772  0.4831
  396MOL0     O53328   5.465   0.608  11.217  0.0617 -0.2366 -0.1443
  396MOL0     C53329   5.343   0.654  11.278 -1.2062 -1.7901 -0.1007
  396MOL0     C53330   5.350   0.757  11.372 -0.1904  0.7906 -0.3384
  396MOL0     C53331   5.233   0.817  11.421 -0.2662 -0.4267 -0.8821
  396MOL0     C53332   5.106   0.768  11.388  0.5725  0.0038 -0.6907
  396MOL0     O53333   4.991   0.833  11.448 -0.2920  0.1333  0.1258
  396MOL0     C53334   4.889   0.857  11.361  0.3433  0.8226  1.4597
  396MOL0     C53335   4.788   0.953  11.434  0.1812 -0.5515  0.1128
  396MOL0     C53336   4.854   1.091  11.467 -0.4898  0.4701  0.0769
  396MOL0     C53337   4.758   1.191  11.528 -0.7665  0.8310 -0.2972
  396MOL0     C53338   4.829   1.322  11.581 -0.0675 -1.0476 -0.7472
  396MOL0     C53339   4.720   1.421  11.628 -0.4626  1.2415 -0.1820
  396MOL0     C53340   4.783   1.549  11.683 -0.0964  0.0197 -0.3121
  396MOL0     C53341   4.817   1.560  11.846 -0.7416 -0.2024  0.7151
  396MOL0     N53342   4.706   1.513  11.925  0.3434  0.2118  0.5191
  396MOL0     C53343   4.683   1.389  11.964 -0.0253 -0.3496 -0.0652
  396MOL0     C53344   4.556   1.400  12.020 -0.2090  0.2195  0.6601
  396MOL0     C53345   4.477   1.288  12.079  0.4985  0.4559  1.5716
  396MOL0     C53346   4.352   1.253  11.992 -0.8424 -0.7030  0.4992
  396MOL0     C53347   4.307   1.115  12.022  0.2788 -0.0116 -0.0037
  396MOL0     C53348   4.216   1.096  12.141  0.1567  0.0852  0.0014
  396MOL0     O53349   4.144   0.969  12.135  0.1078 -0.4993  0.1108
  396MOL0     C53350   4.006   0.967  12.103  0.0014  0.7390  0.0046
  396MOL0     C53351   3.922   0.891  12.179 -0.9562  1.0705 -0.9338
  396MOL0     C53352   3.784   0.891  12.167 -0.6514 -0.4243 -0.0684
  396MOL0     C53353   3.703   0.797  12.265  0.2993  0.4393  0.8920
  396MOL0     C53354   3.726   0.978  12.068  0.7155  0.0224 -0.0820
  396MOL0     C53355   3.582   0.984  12.031  0.4438 -0.1834 -0.0554
  396MOL0     O53356   3.533   1.115  11.996 -0.4092  0.2045  0.2364
  396MOL0     C53357   3.405   1.138  11.975  0.0815 -0.3472  0.5495
  396MOL0     C53358   3.291   1.072  12.017  0.5019 -0.4560 -0.0485
  396MOL0     C53359   3.156   1.121  11.966 -0.2947  0.0665  0.4384
  396MOL0     C53360   3.140   1.222  11.867  0.3694  0.5438  0.1559
  396MOL0     O53361   3.025   1.267  11.809  0.2236  0.3340 -0.2661
  396MOL0     C53362   2.924   1.166  11.796 -0.0803 -0.0236 -0.0316
  396MOL0     C53363   2.805   1.229  11.720  0.3619 -0.5295  0.1364
  396MOL0     C53364   2.693   1.126  11.712 -0.2253  0.3890  0.6959
  396MOL0     C53365   2.562   1.192  11.671  1.0702 -0.3113 -0.9791
  396MOL0     C53366   2.459   1.097  11.607 -0.2549  0.3784  0.5038
  396MOL0     C53367   2.324   1.152  11.586  0.3289  0.2563  1.0098
  396MOL0     C53368   2.242   1.050  11.496 -0.7256  0.5924  0.0927
  396MOL0     C53369   2.097   1.104  11.478  0.2401 -0.3711  0.5056
  396MOL0    Cl53370   1.977   0.995  11.406  0.2197 -0.0336  0.4591
  396MOL0     C53371   3.257   1.279  11.816  0.3967 -0.4698  0.6424
  396MOL0     C53372   3.377   1.234  11.871 -0.0380 -0.2586  0.1951
  396MOL0     O53373   3.509   0.888  12.059  0.3272 -0.3725 -0.6430
  396MOL0     C53374   3.817   1.056  11.992 -0.0959  0.2832  0.0556
  396MOL0     C53375   3.952   1.045  12.007  0.0007 -1.0902 -0.0250
  396MOL0     N53376   4.508   1.524  11.988  0.3866 -0.2915  0.6873
  396MOL0     N53377   4.602   1.592  11.953 -0.0502 -0.0961 -0.4120
  396MOL0     C53378   5.105   0.656  11.296 -0.2687 -0.3902 -0.2462
  396MOL0     C53379   5.222   0.603  11.244 -0.0807 -0.5036  0.6563
  396MOL0     C53380   5.672   0.654  11.108  1.1517 -0.5352 -0.2242
  396MOL0     C53381   5.757   0.742  11.029  0.1930  0.0766 -0.7509
  396MOL0     C53382   5.877   0.684  10.978  0.0837  0.0107  0.8565
  396MOL0     C53383   5.923   0.560  11.007  0.2893 -0.6917  0.1066
  396MOL0     O53384   6.045   0.529  10.949 -0.7371  0.1188 -0.6102
  396MOL0     C53385   6.108   0.403  10.985  0.8818  0.5909 -0.0103
  396MOL0     C53386   6.147   0.403  11.133 -0.2832 -0.4278  0.4320
  396MOL0     C53387   6.296   0.470  11.153  0.0230 -0.4974 -1.0931
  396MOL0     C53388   6.361   0.438  11.289 -0.3283  0.0929 -0.0910
  396MOL0     C53389   6.399   0.294  11.302  0.3774 -1.0797 -0.4262
  396MOL0     C53390   6.431   0.176  11.299 -0.1182 -0.0946  0.1785
  396MOL0     C53391   5.849   0.483  11.095  0.0551  0.3263 -0.8852
  396MOL0     C53392   5.714   0.523  11.133 -1.1774  0.4594 -0.0831
  396MOL0     H53393   5.447   0.791  11.408  0.6631  2.3878 -3.7671
  396MOL0     H53394   5.231   0.896  11.496  0.6450 -0.8840 -0.3678
  396MOL0     H53395   4.922   0.897  11.264 -1.1772 -3.0811 -0.8852
  396MOL0     H53396   4.836   0.763  11.343  0.0368  0.7431  2.6552
  396MOL0     H53397   4.698   0.970  11.375 -1.1310  0.8009  2.3713
  396MOL0     H53398   4.759   0.910  11.531 -1.1803 -1.0887 -0.5189
  396MOL0     H53399   4.936   1.081  11.537 -1.9241 -2.1491  1.5400
  396MOL0     H53400   4.898   1.130  11.374 -0.4045  0.8042  0.2566
  396MOL0     H53401   4.678   1.214  11.457 -2.7162 -0.3344  1.4188
  396MOL0     H53402   4.706   1.141  11.611  2.3212 -0.6306  0.9244
  396MOL0     H53403   4.888   1.296  11.669 -1.8060 -0.6907  0.5612
  396MOL0     H53404   4.900   1.365  11.509  1.9886 -3.8676 -0.6140
  396MOL0     H53405   4.672   1.439  11.531 -1.1238 -0.5666 -0.2324
  396MOL0     H53406   4.643   1.386  11.698 -1.3327 -1.7992 -2.4450
  396MOL0     H53407   4.863   1.581  11.616 -1.3737  2.3963 -0.8098
  396MOL0     H53408   4.708   1.628  11.676  2.1723  2.4951  1.2099
  396MOL0     H53409   4.844   1.663  11.869 -0.7093 -0.2771  1.0256
  396MOL0     H53410   4.903   1.497  11.869  0.2973 -0.4488 -3.2253
  396MOL0     H53411   4.758   1.312  11.974  1.0550  0.7531  0.5057
  396MOL0     H53412   4.544   1.202  12.088  0.2877  0.0849 -0.0701
  396MOL0     H53413   4.432   1.316  12.174 -2.2164  1.4733  0.1128
  396MOL0     H53414   4.375   1.270  11.887 -3.4903  1.1439  0.1116
  396MOL0     H53415   4.267   1.317  12.016 -0.8567 -0.2846 -0.6162
  396MOL0     H53416   4.390   1.048  12.047 -1.3611 -1.6248  1.4903
  396MOL0     H53417   4.253   1.061  11.944 -1.7744  1.1913  0.5118
  396MOL0     H53418   4.143   1.178  12.143  0.3089  0.3254 -2.1247
  396MOL0     H53419   4.268   1.102  12.237 -3.4415 -0.9119  2.2201
  396MOL0     H53420   3.973   0.834  12.255  1.9524  1.2970 -2.5691
  396MOL0     H53421   3.651   0.716  12.212  0.1211  0.7017  0.6601
  396MOL0     H53422   3.770   0.757  12.342  3.3840 -0.0691 -1.8317
  396MOL0     H53423   3.631   0.861  12.318 -2.5928 -1.3920 -0.5710
  396MOL0     H53424   3.290   1.000  12.098 -0.4051  1.0450  1.3579
  396MOL0     H53425   3.075   1.056  11.997  0.6226 -2.4312 -1.9550
  396MOL0     H53426   2.961   1.073  11.751  2.1821  1.0613 -0.5506
  396MOL0     H53427   2.898   1.141  11.899  3.8125 -1.0164  0.8566
  396MOL0     H53428   2.769   1.318  11.773  2.9083  0.8426 -0.2660
  396MOL0     H53429   2.839   1.261  11.621  2.0466  1.4021  1.2490
  396MOL0     H53430   2.671   1.078  11.808 -4.4416  0.2902 -0.1207
  396MOL0     H53431   2.718   1.048  11.640 -0.2057  1.1154 -0.1048
  396MOL0     H53432   2.510   1.243  11.752 -1.3469 -1.5546 -1.6634
  396MOL0     H53433   2.578   1.271  11.597 -1.6997  0.7739 -0.5298
  396MOL0     H53434   2.434   1.012  11.671 -0.4301 -1.5722 -2.0070
  396MOL0     H53435   2.506   1.048  11.521  1.4223  0.4847  1.3093
  396MOL0     H53436   2.273   1.172  11.681 -0.6928 -1.0505  0.7667
  396MOL0     H53437   2.332   1.245  11.531 -2.1850 -0.8067 -1.3589
  396MOL0     H53438   2.240   0.953  11.548 -3.2731  0.2099 -0.5884
  396MOL0     H53439   2.289   1.029  11.400  1.2218  0.5003  1.0024
  396MOL0     H53440   2.092   1.200  11.424  1.9415  0.3369  1.5444
  396MOL0     H53441   2.057   1.126  11.577  0.8314  0.7305  0.5229
  396MOL0     H53442   3.233   1.356  11.744 -1.5552 -1.3566  0.2785
  396MOL0     H53443   3.456   1.292  11.825 -1.9328  2.3739  0.0855
  396MOL0     H53444   3.778   1.120  11.914  0.6339  0.6931  0.0173
  396MOL0     H53445   4.013   1.093  11.931 -1.1645 -2.2157 -1.7748
  396MOL0     H53446   5.007   0.614  11.275 -0.5899 -1.0484  2.2214
  396MOL0     H53447   5.220   0.539  11.157  2.8848  2.6834 -2.0602
  396MOL0     H53448   5.722   0.843  11.010  1.6984  0.8790  0.5841
  396MOL0     H53449   5.937   0.756  10.922 -1.4363  1.4598  1.0120
  396MOL0     H53450   6.033   0.326  10.963 -1.6040  2.7537  0.3298
  396MOL0     H53451   6.200   0.388  10.929  0.9027 -2.2678  0.6541
  396MOL0     H53452   6.143   0.302  11.174  0.9873  0.9791  4.5704
  396MOL0     H53453   6.078   0.443  11.208 -0.0541 -4.0361  2.8494
  396MOL0     H53454   6.278   0.578  11.155  1.6837 -0.2024  1.8743
  396MOL0     H53455   6.365   0.448  11.071 -0.5089  0.4506 -1.8202
  396MOL0     H53456   6.312   0.459  11.385  2.1721  1.9055  0.9211
  396MOL0     H53457   6.454   0.497  11.289  1.1587 -1.9320  3.1215
  396MOL0     H53458   6.462   0.074  11.308  3.3494  0.9051  1.4162
  396MOL0     H53459   5.882   0.384  11.125 -1.2254  0.6199  1.7364
  396MOL0     H53460   5.646   0.461  11.191 -1.5107  0.3308 -0.6015
  397MOL0     O53461   2.255   9.002  10.893  0.9763 -0.3279  0.3082
  397MOL0     C53462   2.311   9.107  10.920  0.1763 -0.1555 -0.3642
  397MOL0     O53463   2.262   9.210  10.992  0.2655 -0.1341  0.0821
  397MOL0     C53464   2.130   9.196  11.031  0.9844 -0.9973  0.5186
  397MOL0     C53465   2.097   9.124  11.146 -0.3272 -0.1423  0.0999
  397MOL0     C53466   1.973   9.126  11.214 -0.1589 -0.9107 -0.2440
  397MOL0     C53467   1.882   9.216  11.162  0.3766 -0.6818 -0.6073
  397MOL0     O53468   1.753   9.236  11.200  0.5446 -0.6426 -0.2717
  397MOL0     C53469   1.694   9.134  11.286  0.0336  0.9064  0.2271
  397MOL0     C53470   1.545   9.122  11.269 -0.4856  0.5048 -0.2296
  397MOL0     C53471   1.468   9.257  11.271  0.1914  0.7436  0.2565
  397MOL0     C53472   1.473   9.320  11.412 -0.6595  0.0641 -0.5196
  397MOL0     C53473   1.480   9.469  11.413  0.4752 -0.8028  0.7354
  397MOL0     C53474   1.459   9.529  11.555  0.7043  0.0810  0.0197
  397MOL0     C53475   1.486   9.681  11.550  0.0735  0.3312 -0.0604
  397MOL0     C53476   1.463   9.740  11.685 -0.1029 -0.2521  0.3538
  397MOL0     N53477   1.568   9.699  11.777 -0.3984  0.4315  0.1383
  397MOL0     C53478   1.704   9.734  11.771 -0.1538 -0.6142 -0.0499
  397MOL0     C53479   1.758   9.688  11.881 -0.6595 -0.8555  0.2439
  397MOL0     C53480   1.908   9.679  11.900 -0.6853 -0.3082 -0.5873
  397MOL0     C53481   1.981   9.597  11.783  0.7550  0.8390 -1.2344
  397MOL0     C53482   2.106   9.537  11.832  0.4244 -0.7495 -0.7391
  397MOL0     C53483   2.179   9.458  11.719 -0.1240  0.1243 -0.2098
  397MOL0     O53484   2.291   9.541  11.669 -0.3400 -0.3111 -0.0277
  397MOL0     C53485   2.413   9.505  11.719 -0.7763  0.0641 -0.6805
  397MOL0     C53486   2.530   9.544  11.646 -0.0142  0.2005 -1.7680
  397MOL0     C53487   2.657   9.521  11.690 -0.2149 -0.8776  0.4639
  397MOL0     C53488   2.781   9.575  11.612 -0.2724  0.5388 -1.0138
  397MOL0     C53489   2.680   9.449  11.812 -0.1840  0.4244  0.4127
  397MOL0     C53490   2.804   9.425  11.882 -0.5068 -0.1028  0.1227
  397MOL0     O53491   2.796   9.419  12.015  0.2154  0.4040  0.1910
  397MOL0     C53492   2.910   9.405  12.080 -0.8793 -0.4251 -0.2772
  397MOL0     C53493   2.966   9.522  12.135 -0.2832  0.0642  0.3523
  397MOL0     C53494   3.098   9.524  12.190  0.2386 -0.6327  0.3088
  397MOL0     C53495   3.179   9.407  12.176 -0.7164  0.3945 -0.0516
  397MOL0     O53496   3.318   9.418  12.206 -0.2711 -0.2015  0.4404
  397MOL0     C53497   3.367   9.325  12.303  0.5050 -0.3216 -0.0262
  397MOL0     C53498   3.291   9.310  12.433 -0.3389  0.3586 -0.0597
  397MOL0     C53499   3.276   9.433  12.526 -0.4419 -0.0765  0.9579
  397MOL0     C53500   3.189   9.423  12.651 -0.5588 -0.3262 -0.1062
  397MOL0     C53501   3.041   9.390  12.609  0.0243 -0.1259 -0.7537
  397MOL0     C53502   2.950   9.348  12.735  0.1859 -0.0744  0.2720
  397MOL0     C53503   2.988   9.411  12.868 -0.0797 -0.1508  0.4798
  397MOL0     C53504   2.916   9.357  12.995  0.6391 -0.0013  1.4734
  397MOL0    Cl53505   2.737   9.375  12.970 -0.6060  0.2583 -0.0855
  397MOL0     C53506   3.112   9.289  12.127 -0.9347  0.4363  0.4212
  397MOL0     C53507   2.980   9.287  12.083  0.2423 -0.1625 -1.1652
  397MOL0     O53508   2.908   9.413  11.810  0.2664  0.3167  0.2469
  397MOL0     C53509   2.561   9.408  11.870  0.7106  0.2812 -0.0929
  397MOL0     C53510   2.428   9.432  11.826 -0.1035  0.2316 -0.7877
  397MOL0     N53511   1.661   9.628  11.952 -0.7162  0.1250 -0.0052
  397MOL0     N53512   1.545   9.635  11.892  0.0273  0.0652 -0.1537
  397MOL0     C53513   1.910   9.296  11.056 -0.0269  0.5565  0.2111
  397MOL0     C53514   2.028   9.292  10.979 -0.3749  0.7815 -0.6274
  397MOL0     C53515   2.457   9.112  10.893 -0.1394 -0.8034  0.8216
  397MOL0     C53516   2.542   9.003  10.854  0.7061 -0.1306 -0.7878
  397MOL0     C53517   2.676   9.028  10.827 -0.2684  0.5987 -0.3883
  397MOL0     C53518   2.732   9.149  10.844  0.5926 -0.8848 -0.2157
  397MOL0     O53519   2.870   9.170  10.838  0.1742  0.5715 -0.1872
  397MOL0     C53520   2.965   9.072  10.866  0.2332 -0.0543  0.5416
  397MOL0     C53521   3.106   9.113  10.856 -0.1799 -0.0061 -0.2797
  397MOL0     C53522   3.153   9.219  10.958 -0.4088 -0.9929  0.1919
  397MOL0     C53523   3.306   9.243  10.940 -0.0749 -0.8817  0.1107
  397MOL0     C53524   3.346   9.356  11.027  0.0839  0.1767  0.2937
  397MOL0     C53525   3.374   9.442  11.105  0.1120 -1.2148 -0.1513
  397MOL0     C53526   2.650   9.254  10.877 -0.6191 -0.3604 -0.5065
  397MOL0     C53527   2.515   9.238  10.894 -0.2433  0.5330  0.0583
  397MOL0     H53528   2.178   9.064  11.188  0.0161  0.5656  0.4668
  397MOL0     H53529   1.941   9.072  11.303 -1.1924 -1.2223 -0.7920
  397MOL0     H53530   1.735   9.035  11.266 -1.2024  0.5564 -0.7249
  397MOL0     H53531   1.716   9.151  11.392 -1.9778  1.6501  0.5744
  397MOL0     H53532   1.540   9.075  11.170  2.7886 -2.1484  0.6615
  397MOL0     H53533   1.505   9.046  11.336  1.3830  0.0920  0.4928
  397MOL0     H53534   1.498   9.333  11.198 -0.9170  1.1985  0.2517
  397MOL0     H53535   1.366   9.233  11.238  1.2062 -1.8387 -1.3577
  397MOL0     H53536   1.399   9.274  11.478  0.3658  0.8091  1.2335
  397MOL0     H53537   1.571   9.312  11.460 -1.6750  3.0124  2.4354
  397MOL0     H53538   1.572   9.511  11.372  0.3109  1.0251  2.1203
  397MOL0     H53539   1.402   9.489  11.339  4.2915 -1.9978 -4.1144
  397MOL0     H53540   1.355   9.522  11.586  0.6188  2.9886  0.7148
  397MOL0     H53541   1.524   9.482  11.629  1.9576  1.7508  0.0358
  397MOL0     H53542   1.594   9.693  11.536 -0.0159  0.6843 -0.4527
  397MOL0     H53543   1.421   9.729  11.476  0.4049 -0.2795 -0.7497
  397MOL0     H53544   1.358   9.729  11.716 -0.0189  1.2879  1.3198
  397MOL0     H53545   1.460   9.849  11.672  0.5772 -0.2175  0.4749
  397MOL0     H53546   1.761   9.782  11.692 -1.4939 -1.3015 -1.4944
  397MOL0     H53547   1.955   9.778  11.909  1.1761 -1.2907  1.7446
  397MOL0     H53548   1.911   9.625  11.995 -1.3582  1.2336  0.3537
  397MOL0     H53549   2.013   9.665  11.704  2.0063  0.5941 -0.9612
  397MOL0     H53550   1.913   9.515  11.756 -0.6515  0.7702  1.9917
  397MOL0     H53551   2.073   9.460  11.902  0.1670  0.0220  0.0009
  397MOL0     H53552   2.168   9.616  11.875 -1.4750  1.7824 -2.3686
  397MOL0     H53553   2.119   9.443  11.630  1.1816 -0.6444 -0.9989
  397MOL0     H53554   2.199   9.356  11.756 -1.4730 -0.6857 -1.6068
  397MOL0     H53555   2.502   9.592  11.553 -0.2356 -1.2722 -2.5010
  397MOL0     H53556   2.744   9.637  11.530 -1.8585  0.4251 -0.4233
  397MOL0     H53557   2.845   9.638  11.675  0.8622  0.7583 -2.3290
  397MOL0     H53558   2.848   9.499  11.570  3.3002  3.0002 -0.2596
  397MOL0     H53559   2.903   9.610  12.123  0.8581  1.0142  1.1162
  397MOL0     H53560   3.136   9.623  12.214 -2.8285  0.8484 -0.5089
  397MOL0     H53561   3.380   9.228  12.253 -1.6758 -1.1017  0.7780
  397MOL0     H53562   3.467   9.362  12.326 -0.5098  4.2555 -1.8252
  397MOL0     H53563   3.199   9.253  12.417  0.6903 -1.3474 -0.1112
  397MOL0     H53564   3.342   9.247  12.507 -0.2875  1.2641  0.6964
  397MOL0     H53565   3.234   9.516  12.469 -0.3453 -1.2972 -0.9854
  397MOL0     H53566   3.380   9.458  12.552  0.3936 -2.4915  0.1912
  397MOL0     H53567   3.231   9.339  12.707  0.6997 -0.3332 -1.0131
  397MOL0     H53568   3.196   9.512  12.713 -0.2446  1.4684 -2.5732
  397MOL0     H53569   3.027   9.321  12.526  1.2524 -0.1935 -0.9340
  397MOL0     H53570   3.002   9.483  12.566 -0.0418  0.4339  0.4523
  397MOL0     H53571   2.845   9.376  12.724 -0.6869 -2.9887  0.3278
  397MOL0     H53572   2.941   9.239  12.738  1.5906 -0.3591 -2.2761
  397MOL0     H53573   2.971   9.518  12.859 -1.1438 -0.1359  2.1923
  397MOL0     H53574   3.094   9.393  12.893  0.0124  1.6273  1.5277
  397MOL0     H53575   2.959   9.419  13.075  2.1668  3.2607 -1.6317
  397MOL0     H53576   2.934   9.250  13.009 -0.2659 -0.3489  0.1439
  397MOL0     H53577   3.173   9.199  12.125 -2.2379 -0.4945  1.3016
  397MOL0     H53578   2.941   9.196  12.039  1.6730  0.0581 -2.9796
  397MOL0     H53579   2.578   9.363  11.968  0.8299 -0.6758 -0.5390
  397MOL0     H53580   2.344   9.405  11.889 -2.2693  1.4013 -3.0193
  397MOL0     H53581   1.833   9.364  11.021 -0.5590  1.3177  2.6708
  397MOL0     H53582   2.054   9.354  10.893  1.1709  1.2741  0.1559
  397MOL0     H53583   2.512   8.900  10.841  2.4917 -0.6692 -1.0037
  397MOL0     H53584   2.742   8.946  10.803 -0.2412  0.7458 -0.8277
  397MOL0     H53585   2.938   9.039  10.967 -0.6737  1.3974  0.8044
  397MOL0     H53586   2.941   8.988  10.799 -3.5107  0.0330  1.5152
  397MOL0     H53587   3.134   9.136  10.753 -1.0589 -3.5690 -1.4600
  397MOL0     H53588   3.159   9.020  10.880  1.6901  1.1109  0.1829
  397MOL0     H53589   3.145   9.187  11.063 -0.7705  0.0785  0.5028
  397MOL0     H53590   3.086   9.305  10.951 -1.7194 -1.8826  1.1175
  397MOL0     H53591   3.331   9.268  10.837  3.3150  0.7712  1.1758
  397MOL0     H53592   3.363   9.158  10.978 -0.3515 -0.8835  0.5238
  397MOL0     H53593   3.394   9.526  11.169 -3.3856 -0.2519 -0.1231
  397MOL0     H53594   2.709   9.345  10.888  0.2249 -0.8979 -0.5149
  397MOL0     H53595   2.450   9.316  10.933 -0.6433 -0.1806  0.8687
  398MOL0     O53596   3.041   9.102   5.073 -0.1397 -0.1640 -0.0975
  398MOL0     C53597   2.986   9.192   5.012 -0.3163  0.2482  0.2872
  398MOL0     O53598   2.948   9.180   4.877 -0.2202 -0.5610 -0.2325
  398MOL0     C53599   2.946   9.065   4.804  0.6358 -0.6727 -0.2217
  398MOL0     C53600   2.851   8.967   4.831 -0.0793  1.3688 -0.5799
  398MOL0     C53601   2.834   8.852   4.755 -0.7365 -0.8650 -0.6952
  398MOL0     C53602   2.922   8.828   4.654 -1.4823 -0.2759 -0.7244
  398MOL0     O53603   2.917   8.716   4.585 -0.2579 -0.2858 -0.7668
  398MOL0     C53604   2.815   8.624   4.614  0.7960  0.0574 -0.7016
  398MOL0     C53605   2.837   8.507   4.518 -0.2460 -0.2356 -0.3341
  398MOL0     C53606   2.734   8.389   4.531 -1.3180 -0.0489  0.1855
  398MOL0     C53607   2.595   8.416   4.471 -0.0897  0.4011 -0.8739
  398MOL0     C53608   2.601   8.417   4.320  0.0912 -0.1437 -0.5927
  398MOL0     C53609   2.556   8.281   4.254  1.0741 -0.8566 -0.3554
  398MOL0     C53610   2.402   8.243   4.279 -0.4212 -0.0424  0.1794
  398MOL0     C53611   2.308   8.370   4.277 -0.3430  0.4554  0.3580
  398MOL0     N53612   2.169   8.337   4.259 -0.1144  0.3227 -0.3334
  398MOL0     C53613   2.070   8.365   4.346 -0.2563  0.1423 -0.3515
  398MOL0     C53614   1.957   8.342   4.282 -0.1926 -1.0195 -0.6716
  398MOL0     C53615   1.816   8.370   4.338  0.5700 -0.3389 -0.2487
  398MOL0     C53616   1.814   8.371   4.496 -0.5203  0.1771  0.2905
  398MOL0     C53617   1.689   8.438   4.563 -0.7316  0.8796 -0.9274
  398MOL0     C53618   1.553   8.397   4.530  0.3450 -0.8833 -0.2883
  398MOL0     O53619   1.467   8.457   4.630  0.9263 -0.6183  0.8884
  398MOL0     C53620   1.331   8.426   4.627 -0.2153  0.2516  0.5797
  398MOL0     C53621   1.278   8.330   4.537  0.9759 -0.2841  0.5329
  398MOL0     C53622   1.138   8.297   4.535  0.0591  0.1134  0.0448
  398MOL0     C53623   1.088   8.208   4.422 -0.0637  0.7201 -0.0923
  398MOL0     C53624   1.048   8.368   4.618  0.4673 -0.4616  0.1462
  398MOL0     C53625   0.902   8.344   4.629  0.6796  0.3684  0.3053
  398MOL0     O53626   0.824   8.449   4.699 -0.2665  0.8466 -0.2311
  398MOL0     C53627   0.683   8.425   4.713 -0.0653 -0.4981 -0.1855
  398MOL0     C53628   0.592   8.539   4.698  0.0223  0.1448 -0.5996
  398MOL0     C53629   0.455   8.537   4.728  0.4257  0.2395 -0.2244
  398MOL0     C53630   0.405   8.408   4.766  0.3359  0.3237  0.5579
  398MOL0     O53631   0.274   8.381   4.802  0.1419 -0.0141  0.3114
  398MOL0     C53632   0.177   8.483   4.792 -0.1917  0.5794 -0.0211
  398MOL0     C53633   0.045   8.439   4.853 -0.2834  0.1179  0.6340
  398MOL0     C53634  -0.058   8.543   4.861 -0.2885 -0.2978  0.7828
  398MOL0     C53635  -0.100   8.608   4.733 -0.6481 -0.5752 -0.7553
  398MOL0     C53636  -0.213   8.712   4.770  0.1561  0.7324 -0.5329
  398MOL0     C53637  -0.355   8.682   4.819 -0.0326  0.1842 -1.2778
  398MOL0     C53638  -0.436   8.598   4.722 -0.0378  0.7617 -0.9270
  398MOL0     C53639  -0.560   8.562   4.791 -0.0213  0.3316 -0.2195
  398MOL0    Cl53640  -0.672   8.691   4.771  0.1594 -0.1425 -0.5551
  398MOL0     C53641   0.492   8.303   4.785  0.5861 -0.7173  0.7426
  398MOL0     C53642   0.631   8.311   4.762  0.3247 -0.7140  0.3542
  398MOL0     O53643   0.847   8.241   4.580 -0.2658  0.0259 -0.0167
  398MOL0     C53644   1.101   8.462   4.712 -0.2158  0.1173 -1.1476
  398MOL0     C53645   1.241   8.491   4.713 -0.4124 -0.7441  0.7020
  398MOL0     N53646   1.987   8.311   4.153 -0.2426  0.8241 -0.5300
  398MOL0     N53647   2.119   8.299   4.140 -0.2425  0.0959  0.9132
  398MOL0     C53648   3.015   8.934   4.612 -0.9750  0.6172 -0.3571
  398MOL0     C53649   3.023   9.051   4.690 -1.1985  0.1796  0.4298
  398MOL0     C53650   2.933   9.304   5.095 -0.3588 -0.0402 -0.2287
  398MOL0     C53651   2.890   9.422   5.029 -0.8480 -1.1662 -1.1476
  398MOL0     C53652   2.852   9.531   5.103  0.4716 -0.0770  0.0976
  398MOL0     C53653   2.838   9.529   5.243 -0.4257 -0.2483  1.4028
  398MOL0     O53654   2.801   9.640   5.317 -0.3029  0.2283 -0.4471
  398MOL0     C53655   2.708   9.731   5.243 -0.7314  0.5633  0.6139
  398MOL0     C53656   2.653   9.830   5.344 -0.0128 -0.8191  0.6744
  398MOL0     C53657   2.565   9.766   5.462 -0.3100 -0.4827 -0.2772
  398MOL0     C53658   2.408   9.767   5.436 -0.5164  0.3142  0.3662
  398MOL0     C53659   2.378   9.695   5.316 -0.0496  0.3066  0.4568
  398MOL0     C53660   2.359   9.635   5.209  0.0668 -0.2736 -0.2888
  398MOL0     C53661   2.873   9.411   5.310  0.5481  0.5723  0.2832
  398MOL0     C53662   2.934   9.310   5.238  0.5822  0.8426  0.6164
  398MOL0     H53663   2.787   8.984   4.916  0.9360  3.1140 -0.1179
  398MOL0     H53664   2.762   8.783   4.799  1.1831 -1.0033  2.5912
  398MOL0     H53665   2.831   8.586   4.715 -1.4720  0.8521  0.0221
  398MOL0     H53666   2.715   8.664   4.595 -0.4776 -2.8097 -0.5155
  398MOL0     H53667   2.839   8.563   4.424  0.4398  0.6126  0.1756
  398MOL0     H53668   2.937   8.465   4.533  0.8004  1.9424 -0.8483
  398MOL0     H53669   2.762   8.298   4.477 -0.5955  0.0242  0.4353
  398MOL0     H53670   2.730   8.360   4.637 -1.1532  0.2706  0.2780
  398MOL0     H53671   2.529   8.339   4.512 -1.6771  1.6743 -0.9476
  398MOL0     H53672   2.559   8.515   4.500  3.0081  1.4065 -0.0592
  398MOL0     H53673   2.531   8.494   4.286 -1.5222 -1.8785 -1.3333
  398MOL0     H53674   2.705   8.446   4.299  1.3156 -3.5829  0.0206
  398MOL0     H53675   2.582   8.295   4.149 -2.8109  1.7406 -1.2211
  398MOL0     H53676   2.624   8.202   4.287 -0.6199 -2.1066  0.2834
  398MOL0     H53677   2.376   8.171   4.201 -0.5031  1.8866 -1.6656
  398MOL0     H53678   2.391   8.205   4.381 -1.8243  3.2985  1.4277
  398MOL0     H53679   2.345   8.440   4.201  0.5376 -2.2453 -1.8828
  398MOL0     H53680   2.320   8.434   4.365  1.8626 -0.3363  0.7070
  398MOL0     H53681   2.078   8.402   4.448  2.0273  2.0682 -1.1197
  398MOL0     H53682   1.758   8.454   4.298 -3.5138 -1.7354  2.1090
  398MOL0     H53683   1.760   8.277   4.323  1.6256 -0.9059 -0.7870
  398MOL0     H53684   1.907   8.415   4.532 -0.2986 -1.5860  2.0395
  398MOL0     H53685   1.827   8.268   4.532 -1.1207 -0.6900 -1.8339
  398MOL0     H53686   1.707   8.543   4.540  0.5226  1.0031  0.4588
  398MOL0     H53687   1.706   8.425   4.670  1.6117  0.5871 -1.2873
  398MOL0     H53688   1.550   8.288   4.529  1.0667 -0.9096 -0.3684
  398MOL0     H53689   1.528   8.426   4.427 -1.4142  1.3921  0.6865
  398MOL0     H53690   1.347   8.286   4.467  1.5053 -1.1430  1.5756
  398MOL0     H53691   1.175   8.171   4.366 -0.0891 -3.2214  2.1181
  398MOL0     H53692   1.033   8.121   4.460  0.8676  0.9462  1.8533
  398MOL0     H53693   1.023   8.269   4.359 -2.3716 -2.5950 -1.1657
  398MOL0     H53694   0.650   8.623   4.660 -2.3427  1.2188 -2.0675
  398MOL0     H53695   0.386   8.620   4.714  2.1557  2.3247  2.6607
  398MOL0     H53696   0.220   8.567   4.847 -2.2573  0.0699  2.5520
  398MOL0     H53697   0.152   8.507   4.688 -2.7662 -1.7064 -0.0545
  398MOL0     H53698   0.009   8.346   4.809  2.8872 -2.7395  3.4992
  398MOL0     H53699   0.064   8.409   4.957  0.2412 -2.8326 -0.2301
  398MOL0     H53700  -0.037   8.617   4.938  3.6743 -1.3859  0.9938
  398MOL0     H53701  -0.147   8.490   4.896  0.4661 -2.0843  0.1124
  398MOL0     H53702  -0.020   8.673   4.697 -0.9286  1.6166  2.2157
  398MOL0     H53703  -0.136   8.544   4.651  0.2028 -2.0172 -0.0335
  398MOL0     H53704  -0.225   8.773   4.679  0.0895 -1.6672 -2.2280
  398MOL0     H53705  -0.175   8.781   4.846 -0.5278  1.7584 -1.0865
  398MOL0     H53706  -0.359   8.649   4.924  0.3204  1.5117 -0.8235
  398MOL0     H53707  -0.397   8.783   4.828 -0.3639  0.0467 -1.2691
  398MOL0     H53708  -0.370   8.512   4.705  1.0972  1.5945 -0.8316
  398MOL0     H53709  -0.454   8.655   4.631  1.3577  4.1301  0.7316
  398MOL0     H53710  -0.550   8.550   4.899  0.3001  1.0143 -0.1689
  398MOL0     H53711  -0.604   8.472   4.747 -2.0450  2.4474 -2.8583
  398MOL0     H53712   0.452   8.207   4.817  2.3824 -1.6538  0.2961
  398MOL0     H53713   0.689   8.222   4.784  1.7413 -0.3409 -1.6752
  398MOL0     H53714   1.040   8.524   4.777  2.3195  0.5239  1.0054
  398MOL0     H53715   1.277   8.559   4.790 -1.3722 -0.4419  0.9059
  398MOL0     H53716   3.057   8.928   4.512 -1.5061 -0.9582 -0.5303
  398MOL0     H53717   3.096   9.123   4.656  0.9044 -2.3201 -0.6665
  398MOL0     H53718   2.904   9.436   4.923  0.3923  0.7544 -0.7827
  398MOL0     H53719   2.827   9.621   5.048 -0.3774 -0.4825 -0.2110
  398MOL0     H53720   2.771   9.781   5.169  2.7664  0.9535  3.5410
  398MOL0     H53721   2.624   9.676   5.199 -1.0826  1.8514 -0.3886
  398MOL0     H53722   2.601   9.912   5.294  0.5148  0.1694  1.7026
  398MOL0     H53723   2.740   9.879   5.388  0.2641  0.0699 -0.7843
  398MOL0     H53724   2.568   9.819   5.557  0.1948  2.1014 -1.6361
  398MOL0     H53725   2.602   9.664   5.479  0.3922 -0.4005 -1.2172
  398MOL0     H53726   2.362   9.866   5.433 -0.6734  0.2390  0.2951
  398MOL0     H53727   2.366   9.721   5.526  1.5703  1.0202  1.7816
  398MOL0     H53728   2.365   9.597   5.109  2.1938  1.0565 -0.7302
  398MOL0     H53729   2.869   9.390   5.416  0.0454 -1.1780 -0.0600
  398MOL0     H53730   2.965   9.217   5.284 -1.3332 -0.3595 -0.3682
  399MOL0     O53731   9.073   5.062  10.488 -0.5796 -0.5025 -0.3840
  399MOL0     C53732   9.139   5.147  10.432  0.4955  0.1094 -0.4323
  399MOL0     O53733   9.088   5.249  10.352 -0.2093 -0.3041 -0.3637
  399MOL0     C53734   8.955   5.267  10.344 -0.5425  0.2503  0.2475
  399MOL0     C53735   8.885   5.320  10.446  0.0904  0.2877 -0.3339
  399MOL0     C53736   8.744   5.324  10.439 -0.4729 -0.1310 -0.7778
  399MOL0     C53737   8.671   5.268  10.326 -0.2781 -0.0430 -0.7220
  399MOL0     O53738   8.539   5.274  10.307 -0.3027  0.1363 -0.1805
  399MOL0     C53739   8.464   5.210  10.409  0.3086 -0.2651  0.6914
  399MOL0     C53740   8.333   5.161  10.350 -0.8199  0.7038 -0.1677
  399MOL0     C53741   8.238   5.274  10.319  0.0184  0.0732 -0.6552
  399MOL0     C53742   8.095   5.212  10.304  0.1898  0.1405 -0.2975
  399MOL0     C53743   8.007   5.303  10.238  0.2540  0.0647 -0.2898
  399MOL0     C53744   7.860   5.280  10.282 -0.3465  0.3226 -0.0010
  399MOL0     C53745   7.840   5.348  10.424  0.2555  0.6398 -0.8073
  399MOL0     C53746   7.772   5.484  10.428 -0.7196 -0.2353 -0.1148
  399MOL0     N53747   7.629   5.471  10.407 -0.1803  0.2558  0.4667
  399MOL0     C53748   7.584   5.465  10.279  0.3600  0.0824  0.9040
  399MOL0     C53749   7.458   5.427  10.298  0.6740 -0.5325  0.4360
  399MOL0     C53750   7.365   5.426  10.179  0.1682 -0.3852  0.4228
  399MOL0     C53751   7.221   5.428  10.216 -0.3976 -0.3150  0.4747
  399MOL0     C53752   7.137   5.456  10.094 -0.3863  0.7116  0.3319
  399MOL0     C53753   6.994   5.502  10.136 -0.9967 -0.0952  0.0650
  399MOL0     O53754   6.931   5.416  10.231 -0.1857 -0.4495 -0.0244
  399MOL0     C53755   6.801   5.457  10.259  0.5484 -0.6175 -0.0782
  399MOL0     C53756   6.724   5.363  10.328 -0.5280  1.0979  0.9617
  399MOL0     C53757   6.588   5.376  10.347  0.6960 -0.2862 -0.0103
  399MOL0     C53758   6.506   5.255  10.403 -0.5659  0.6290 -1.1491
  399MOL0     C53759   6.525   5.500  10.316  0.2637  1.6955 -0.1129
  399MOL0     C53760   6.372   5.523  10.344  0.8013 -0.3392  0.5143
  399MOL0     O53761   6.335   5.662  10.337 -0.0496 -0.0753 -0.2790
  399MOL0     C53762   6.214   5.702  10.381  0.3718  0.0839 -0.3548
  399MOL0     C53763   6.168   5.694  10.513 -0.0543  0.4108 -0.6167
  399MOL0     C53764   6.039   5.722  10.545  1.1202  0.8894  1.0315
  399MOL0     C53765   5.945   5.754  10.442  0.5369 -0.1528 -0.6771
  399MOL0     O53766   5.807   5.767  10.454  0.0494 -0.9443 -0.1482
  399MOL0     C53767   5.749   5.831  10.568 -0.3753  0.3141  0.1345
  399MOL0     C53768   5.595   5.812  10.542 -0.7635  0.3188  0.5539
  399MOL0     C53769   5.526   5.843  10.668 -0.2237  0.5525  1.0301
  399MOL0     C53770   5.374   5.829  10.644  1.1695 -0.2487 -0.0272
  399MOL0     C53771   5.302   5.957  10.579  1.1427  0.7315 -0.5526
  399MOL0     C53772   5.155   5.907  10.550  0.5023  0.1984 -0.0312
  399MOL0     C53773   5.123   5.841  10.418  0.1996 -0.8758 -0.3841
  399MOL0     C53774   4.974   5.813  10.403 -0.5249  0.4071  0.1826
  399MOL0    Cl53775   4.867   5.948  10.456 -0.0205 -0.2114 -0.2443
  399MOL0     C53776   5.995   5.763  10.310  0.1348 -0.2786  0.4969
  399MOL0     C53777   6.125   5.731  10.278 -0.2834  1.0014 -0.4056
  399MOL0     O53778   6.293   5.434  10.365 -0.0954  0.0041 -0.6443
  399MOL0     C53779   6.607   5.603  10.264  1.1386  0.6000  0.4782
  399MOL0     C53780   6.737   5.577  10.221  0.1940 -0.9882 -0.0663
  399MOL0     N53781   7.430   5.410  10.438 -0.2299  0.6879  0.0268
  399MOL0     N53782   7.542   5.428  10.497 -0.0372  1.0095  0.2309
  399MOL0     C53783   8.755   5.223  10.223  0.8517 -0.5616  0.1148
  399MOL0     C53784   8.895   5.224  10.233  0.8102 -0.9182  0.1927
  399MOL0     C53785   9.284   5.137  10.439 -0.5830 -0.0094 -0.4820
  399MOL0     C53786   9.346   5.019  10.489  0.4556 -0.0651 -0.2398
  399MOL0     C53787   9.489   5.008  10.483 -0.9397  0.4604 -0.5665
  399MOL0     C53788   9.571   5.107  10.434  0.9537 -0.1004  0.6853
  399MOL0     O53789   9.710   5.093  10.451  0.4404 -0.0347  0.6309
  399MOL0     C53790   9.790   5.198  10.395 -0.5777  0.4386 -0.0232
  399MOL0     C53791   9.813   5.326  10.488  0.5034 -0.0142 -0.6751
  399MOL0     C53792   9.892   5.282  10.615 -0.7675  0.3073 -1.0259
  399MOL0     C53793   9.983   5.398  10.671  0.0197 -0.9346  1.0438
  399MOL0     C53794  10.067   5.339  10.779 -0.2259  0.1647  0.5493
  399MOL0     C53795  10.131   5.303  10.873  1.2152  0.2203 -0.7318
  399MOL0     C53796   9.501   5.220  10.374  2.2092 -0.0882 -0.5717
  399MOL0     C53797   9.361   5.236  10.385 -0.0908 -0.4589  0.6334
  399MOL0     H53798   8.940   5.351  10.534  0.3500  2.3036 -1.1379
  399MOL0     H53799   8.686   5.368  10.519 -0.3625 -0.8678 -0.2828
  399MOL0     H53800   8.516   5.126  10.456 -1.0177 -1.0915  0.7371
  399MOL0     H53801   8.438   5.281  10.488  0.7072  0.2210  0.3927
  399MOL0     H53802   8.357   5.114  10.255  0.6000  1.6644 -0.3244
  399MOL0     H53803   8.280   5.097  10.421 -0.1579  0.3887  0.0509
  399MOL0     H53804   8.232   5.339  10.407 -0.8814 -0.9745  0.0836
  399MOL0     H53805   8.271   5.325  10.228  3.3635  0.5140  0.6639
  399MOL0     H53806   8.102   5.121  10.244  1.7952  1.1565 -1.7683
  399MOL0     H53807   8.055   5.183  10.402 -0.0927 -1.6911 -0.9292
  399MOL0     H53808   8.038   5.406  10.259 -2.1497  0.3509  2.4791
  399MOL0     H53809   8.008   5.275  10.132 -2.8396 -0.1578 -0.3495
  399MOL0     H53810   7.795   5.340  10.218  0.3909  1.6974  0.4859
  399MOL0     H53811   7.855   5.171  10.294  2.7776  0.2894  2.4798
  399MOL0     H53812   7.780   5.271  10.473 -0.3121 -0.4532 -3.0965
  399MOL0     H53813   7.933   5.358  10.481 -0.0102  2.6040 -0.6440
  399MOL0     H53814   7.824   5.548  10.356  0.1229 -0.6035  0.1476
  399MOL0     H53815   7.788   5.535  10.523  0.5804  3.0849 -1.9482
  399MOL0     H53816   7.637   5.506  10.193  1.5760 -0.9719  1.1166
  399MOL0     H53817   7.384   5.507  10.108 -2.9457 -1.5925 -2.0299
  399MOL0     H53818   7.388   5.334  10.126 -0.2249  0.0391 -0.5097
  399MOL0     H53819   7.215   5.494  10.303  2.2887 -2.1340  2.2007
  399MOL0     H53820   7.193   5.330  10.257 -0.2223 -1.4820 -1.9795
  399MOL0     H53821   7.133   5.365  10.034 -0.2325 -1.2269  3.0567
  399MOL0     H53822   7.181   5.530  10.027  0.3972  1.9359  2.1346
  399MOL0     H53823   6.928   5.501  10.049 -1.7821 -0.3044  0.6512
  399MOL0     H53824   7.008   5.608  10.161  2.9221 -0.0563 -1.5744
  399MOL0     H53825   6.769   5.265  10.346  0.9089  1.9096  2.0158
  399MOL0     H53826   6.569   5.166  10.414 -1.0955  0.3245 -0.5238
  399MOL0     H53827   6.457   5.276  10.499 -1.8865  0.6515 -1.8096
  399MOL0     H53828   6.444   5.216  10.322 -1.0496 -4.1843  1.1880
  399MOL0     H53829   6.228   5.648  10.591 -2.3133 -1.4235  0.1355
  399MOL0     H53830   6.012   5.731  10.649  0.4389  3.7484  0.6958
  399MOL0     H53831   5.793   5.793  10.661  1.3291 -1.7772 -1.4403
  399MOL0     H53832   5.764   5.940  10.572 -1.0255  0.5662 -2.6078
  399MOL0     H53833   5.548   5.870  10.463 -1.1422 -3.2624 -2.0907
  399MOL0     H53834   5.574   5.707  10.520 -1.4450  0.5848 -0.1066
  399MOL0     H53835   5.550   5.945  10.701  2.3859  0.6978 -1.0604
  399MOL0     H53836   5.561   5.792  10.758 -0.2356 -2.2387 -0.4542
  399MOL0     H53837   5.354   5.743  10.579  3.1295 -0.8299  0.0614
  399MOL0     H53838   5.318   5.818  10.737 -2.4083  0.7098 -1.8901
  399MOL0     H53839   5.335   5.980  10.477  0.2952  1.0950 -0.7505
  399MOL0     H53840   5.311   6.037  10.653 -0.8586 -0.6293  1.2934
  399MOL0     H53841   5.125   5.840  10.631  1.0437  0.8609  0.7362
  399MOL0     H53842   5.097   6.000  10.553 -1.8427 -1.0783 -2.4072
  399MOL0     H53843   5.173   5.744  10.409  3.5942  0.7977 -1.3435
  399MOL0     H53844   5.154   5.914  10.343 -1.0654  1.6807  1.4369
  399MOL0     H53845   4.955   5.723  10.463  0.1550  0.0766 -0.0826
  399MOL0     H53846   4.957   5.775  10.302 -0.0191  0.4514  0.0766
  399MOL0     H53847   5.917   5.795  10.241  0.9336  1.2353  0.2509
  399MOL0     H53848   6.175   5.738  10.182  0.8077  1.7463  0.1903
  399MOL0     H53849   6.572   5.705  10.251  0.8069  0.7254  2.1682
  399MOL0     H53850   6.785   5.665  10.178 -1.7170 -0.7214 -1.8034
  399MOL0     H53851   8.694   5.184  10.142 -0.5544  3.2971 -0.9233
  399MOL0     H53852   8.943   5.170  10.152 -0.3871  1.7117 -2.4541
  399MOL0     H53853   9.283   4.935  10.513 -0.3090  0.6425  0.2893
  399MOL0     H53854   9.546   4.924  10.522 -0.4646  0.8636 -0.3762
  399MOL0     H53855   9.887   5.151  10.379 -1.3619 -1.2722  0.0364
  399MOL0     H53856   9.743   5.223  10.299 -1.2512  0.3434  0.2796
  399MOL0     H53857   9.711   5.350  10.517  1.0084 -0.5633  1.8416
  399MOL0     H53858   9.862   5.417  10.453  1.2170 -0.0846  0.1105
  399MOL0     H53859   9.961   5.202  10.586 -0.9288 -1.4988  2.9505
  399MOL0     H53860   9.822   5.241  10.688 -0.0034 -1.4875 -1.2307
  399MOL0     H53861   9.920   5.479  10.709  0.2516  0.4603 -1.3374
  399MOL0     H53862  10.048   5.422  10.587  0.1499 -0.1761  1.3593
  399MOL0     H53863  10.194   5.260  10.948  1.2956 -0.3688 -1.1277
  399MOL0     H53864   9.539   5.307  10.322 -3.5941  0.6198 -4.5119
  399MOL0     H53865   9.307   5.325  10.353 -0.2873 -0.5423  0.7302
  400MOL0     O53866   1.569   2.024   3.757 -0.1337  0.7174 -0.3437
  400MOL0     C53867   1.578   1.970   3.868  0.1098  0.1175  0.3718
  400MOL0     O53868   1.479   1.906   3.930 -0.1040 -0.2186 -0.3379
  400MOL0     C53869   1.354   1.912   3.885 -0.0723  0.5370 -0.1726
  400MOL0     C53870   1.331   1.834   3.773  1.0104  0.4264  0.4049
  400MOL0     C53871   1.201   1.832   3.728  0.4309  0.2973  0.0490
  400MOL0     C53872   1.098   1.908   3.785  0.5675 -0.1250 -1.2964
  400MOL0     O53873   0.970   1.910   3.733  0.9369  0.0291  0.7347
  400MOL0     C53874   0.932   2.026   3.656 -0.4435 -0.2806  0.5308
  400MOL0     C53875   0.841   2.120   3.743 -0.4553  1.0794  0.3703
  400MOL0     C53876   0.706   2.051   3.773  0.7714 -0.0571  0.6493
  400MOL0     C53877   0.594   2.153   3.818  0.4161  0.1064 -0.6488
  400MOL0     C53878   0.463   2.093   3.820  0.0012 -0.4032 -0.1387
  400MOL0     C53879   0.415   2.064   3.675 -0.6206  0.3306  0.9133
  400MOL0     C53880   0.266   2.024   3.659 -0.0434 -0.7128  0.2955
  400MOL0     C53881   0.153   2.123   3.717 -0.3932 -0.6078 -0.2243
  400MOL0     N53882   0.044   2.050   3.783  0.7951 -0.1711 -0.2491
  400MOL0     C53883  -0.021   1.950   3.710  0.5908 -0.3801 -0.2010
  400MOL0     C53884  -0.115   1.904   3.802 -0.6153  0.3278 -0.3391
  400MOL0     C53885  -0.217   1.810   3.758 -0.3117  0.6713 -0.4021
  400MOL0     C53886  -0.352   1.869   3.779 -0.6176  0.1420  1.4566
  400MOL0     C53887  -0.443   1.765   3.712  0.7878 -0.2136 -0.2273
  400MOL0     C53888  -0.580   1.830   3.681  0.1976  0.6835 -0.4175
  400MOL0     O53889  -0.665   1.727   3.625  0.2368 -0.0363  0.0282
  400MOL0     C53890  -0.780   1.778   3.563 -0.0356  0.6513  0.0122
  400MOL0     C53891  -0.863   1.676   3.505  0.0646  0.4436 -0.4975
  400MOL0     C53892  -0.988   1.698   3.445 -0.1777 -0.0625  0.2425
  400MOL0     C53893  -1.050   1.569   3.389  0.9787 -0.6065 -0.0402
  400MOL0     C53894  -1.050   1.829   3.466  0.2740  0.0852 -0.0156
  400MOL0     C53895  -1.185   1.868   3.431 -0.6705 -0.1346  0.2884
  400MOL0     O53896  -1.227   1.985   3.482 -0.5108 -0.3090  0.5427
  400MOL0     C53897  -1.361   2.016   3.460 -0.2261 -0.3504  0.0366
  400MOL0     C53898  -1.450   1.985   3.556  1.2308 -0.3809 -0.7138
  400MOL0     C53899  -1.589   2.015   3.530 -0.0714  0.1788 -0.0264
  400MOL0     C53900  -1.623   2.082   3.403 -1.1558 -0.5718  0.1565
  400MOL0     O53901  -1.743   2.109   3.358  0.3692 -0.3614 -0.5265
  400MOL0     C53902  -1.856   2.115   3.449 -0.5067  0.9156  0.1667
  400MOL0     C53903  -1.999   2.146   3.392  0.6143  0.4625  0.1533
  400MOL0     C53904  -2.002   2.294   3.332  0.4652 -0.2294  0.0862
  400MOL0     C53905  -2.136   2.317   3.258 -0.6152 -0.0750 -0.5260
  400MOL0     C53906  -2.160   2.473   3.230 -0.4152  0.7225  0.3071
  400MOL0     C53907  -2.186   2.543   3.361  0.0454  0.4781  0.0559
  400MOL0     C53908  -2.260   2.687   3.344 -0.3386 -1.0231 -0.3673
  400MOL0     C53909  -2.169   2.789   3.279 -0.4045 -0.3777  0.0005
  400MOL0    Cl53910  -2.233   2.957   3.302 -0.3779  0.2194  0.2017
  400MOL0     C53911  -1.519   2.108   3.311  0.6562  0.6572 -0.4107
  400MOL0     C53912  -1.393   2.082   3.343 -0.5428  0.4166  0.0127
  400MOL0     O53913  -1.246   1.801   3.351 -0.8824 -0.3068  0.2946
  400MOL0     C53914  -0.971   1.923   3.538  0.5592 -1.0947  1.0456
  400MOL0     C53915  -0.837   1.907   3.575  0.3140 -0.2652  0.0429
  400MOL0     N53916  -0.111   1.973   3.923 -0.3920 -0.3005 -0.1922
  400MOL0     N53917   0.004   2.048   3.916  0.5888 -0.0908  0.3442
  400MOL0     C53918   1.123   1.962   3.908  0.4738 -0.1622  0.1024
  400MOL0     C53919   1.251   1.971   3.957 -0.0632 -0.1376 -0.4999
  400MOL0     C53920   1.689   2.016   3.955 -0.5366 -0.0579  0.7827
  400MOL0     C53921   1.780   2.119   3.909 -0.0933 -0.2170  0.6780
  400MOL0     C53922   1.889   2.155   3.993 -0.7831  0.4872  1.3035
  400MOL0     C53923   1.906   2.098   4.119  0.5937  0.8152  0.1974
  400MOL0     O53924   2.007   2.155   4.194 -0.0554 -0.1838  0.2623
  400MOL0     C53925   2.051   2.091   4.318 -0.4331  0.6786  0.6823
  400MOL0     C53926   2.141   2.202   4.383 -0.2027  0.0185 -0.4263
  400MOL0     C53927   2.174   2.161   4.527  0.1694 -0.6451 -0.4077
  400MOL0     C53928   2.301   2.087   4.529  0.3076 -0.8049 -0.7004
  400MOL0     C53929   2.323   2.042   4.667  0.5074 -0.1838 -0.4858
  400MOL0     C53930   2.340   2.002   4.783 -0.1920 -0.3784  0.4363
  400MOL0     C53931   1.822   1.987   4.161 -0.3326  0.1280 -0.2417
  400MOL0     C53932   1.708   1.961   4.086  0.2147  0.2156  0.9286
  400MOL0     H53933   1.400   1.765   3.726 -1.0861 -1.1968 -0.4413
  400MOL0     H53934   1.178   1.768   3.643  2.5252 -1.1498  0.5217
  400MOL0     H53935   1.020   2.090   3.641  0.1809 -0.5362  2.7772
  400MOL0     H53936   0.884   1.992   3.565 -2.2181 -0.2221  1.4049
  400MOL0     H53937   0.901   2.143   3.832  0.3648 -0.5235  0.2771
  400MOL0     H53938   0.837   2.221   3.701 -0.6207  0.5052 -1.0361
  400MOL0     H53939   0.671   2.005   3.680 -1.7877  2.5059  0.2020
  400MOL0     H53940   0.726   1.980   3.854 -1.3468  1.2691  2.4499
  400MOL0     H53941   0.611   2.195   3.918  0.6717  0.3028 -0.7738
  400MOL0     H53942   0.593   2.240   3.752  0.5151  1.8239  1.4940
  400MOL0     H53943   0.460   1.998   3.874  1.4666 -1.0545 -1.1441
  400MOL0     H53944   0.407   2.164   3.883  1.9415 -1.0831  2.5654
  400MOL0     H53945   0.440   2.151   3.614  1.2354  0.8462  2.3232
  400MOL0     H53946   0.479   1.985   3.635 -0.4897 -0.0203  1.7783
  400MOL0     H53947   0.231   2.003   3.557 -1.7114  4.7346 -0.5896
  400MOL0     H53948   0.262   1.939   3.728  0.9320 -0.0711  1.1797
  400MOL0     H53949   0.127   2.175   3.625  2.3992 -2.8867 -2.4926
  400MOL0     H53950   0.191   2.190   3.794 -1.0280  0.6462 -0.9685
  400MOL0     H53951   0.002   1.925   3.607  1.7636  0.5195 -0.1772
  400MOL0     H53952  -0.206   1.790   3.651 -1.0904 -2.7543  0.0389
  400MOL0     H53953  -0.208   1.713   3.808 -1.5261 -0.0994 -1.5867
  400MOL0     H53954  -0.347   1.968   3.732  2.2465  0.3174  1.9534
  400MOL0     H53955  -0.373   1.879   3.885  2.7335  0.8359  2.1782
  400MOL0     H53956  -0.458   1.690   3.790  0.7554 -0.6789 -0.6846
  400MOL0     H53957  -0.399   1.716   3.626  0.4231 -2.2632  0.6993
  400MOL0     H53958  -0.562   1.915   3.615  0.2732  1.6831  0.8475
  400MOL0     H53959  -0.624   1.867   3.774  1.9271 -0.7962  1.0812
  400MOL0     H53960  -0.824   1.575   3.505  2.3399  1.2585  0.5248
  400MOL0     H53961  -1.137   1.546   3.451 -0.1536  0.2529 -1.2575
  400MOL0     H53962  -1.087   1.590   3.288  0.5365  2.4428  0.6692
  400MOL0     H53963  -0.971   1.493   3.381  4.4868  2.7768 -0.4246
  400MOL0     H53964  -1.424   1.935   3.648 -2.1507  0.3914  0.8180
  400MOL0     H53965  -1.653   1.983   3.611  0.9989  0.8304  1.1156
  400MOL0     H53966  -1.858   2.016   3.495  2.8106  1.5282  1.9851
  400MOL0     H53967  -1.831   2.190   3.525  1.2883  1.7333 -1.1583
  400MOL0     H53968  -2.047   2.072   3.328 -1.3165  2.0262 -0.3047
  400MOL0     H53969  -2.066   2.146   3.479  0.5558  2.7564  0.1710
  400MOL0     H53970  -1.922   2.318   3.262 -0.2913  2.1030 -0.0964
  400MOL0     H53971  -1.988   2.356   3.422  2.7125 -0.1992 -0.2260
  400MOL0     H53972  -2.135   2.265   3.161  2.7446 -1.0182 -0.1350
  400MOL0     H53973  -2.224   2.282   3.312 -0.2694  0.9586  0.7690
  400MOL0     H53974  -2.245   2.480   3.162 -0.0239  1.1792 -0.1450
  400MOL0     H53975  -2.076   2.516   3.175 -1.0929  0.3261 -1.0768
  400MOL0     H53976  -2.254   2.479   3.418  1.1118 -0.1902  0.6150
  400MOL0     H53977  -2.092   2.549   3.418 -0.2636  1.7041  0.4714
  400MOL0     H53978  -2.287   2.725   3.443 -2.2476 -0.1857 -1.1711
  400MOL0     H53979  -2.353   2.671   3.289 -2.8661  2.4769  2.3790
  400MOL0     H53980  -2.172   2.757   3.174 -0.4527 -1.7585  0.3935
  400MOL0     H53981  -2.068   2.775   3.318  0.6643  1.1328 -2.0418
  400MOL0     H53982  -1.551   2.144   3.214 -0.4653  4.2082  1.1194
  400MOL0     H53983  -1.307   2.091   3.277  0.8421 -1.4918  1.4316
  400MOL0     H53984  -1.015   2.022   3.551  3.4498  0.1538  2.1736
  400MOL0     H53985  -0.792   1.991   3.627  1.3645 -0.9399  0.2657
  400MOL0     H53986   1.050   2.007   3.975  2.2006 -1.1052  2.7486
  400MOL0     H53987   1.263   2.031   4.047  0.8540 -4.0137  2.2330
  400MOL0     H53988   1.749   2.174   3.821 -2.5950  3.1683  3.3937
  400MOL0     H53989   1.957   2.230   3.955 -1.0596  0.3140  0.4360
  400MOL0     H53990   1.961   2.059   4.371  0.8952 -2.3172  1.3436
  400MOL0     H53991   2.095   1.994   4.295 -0.4084  1.0826 -1.1698
  400MOL0     H53992   2.084   2.295   4.394  0.3664  1.0620 -4.7445
  400MOL0     H53993   2.231   2.217   4.323 -0.5841 -0.6723 -1.1920
  400MOL0     H53994   2.092   2.098   4.562  0.1437 -1.5474 -2.0340
  400MOL0     H53995   2.188   2.252   4.586  1.7472  1.1544 -3.3294
  400MOL0     H53996   2.390   2.146   4.506  1.3518 -1.0342  2.3225
  400MOL0     H53997   2.293   2.001   4.461 -0.4137 -1.4015  0.1098
  400MOL0     H53998   2.367   1.972   4.882  2.3470 -0.7867 -0.2875
  400MOL0     H53999   1.828   1.927   4.251 -1.1296  0.0636 -0.2186
  400MOL0     H54000   1.644   1.880   4.120 -1.8156  0.5544 -1.7946
  401MOL0     O54001   8.492   5.536   9.973  0.6653  0.1035  0.0652
  401MOL0     C54002   8.590   5.581   9.924  0.1081  0.5723  0.1437
  401MOL0     O54003   8.610   5.717   9.903 -0.1370  0.2105  0.0847
  401MOL0     C54004   8.509   5.802   9.934 -0.7535 -0.1446  0.1060
  401MOL0     C54005   8.499   5.849  10.061 -0.0195  0.2178  0.0984
  401MOL0     C54006   8.409   5.948  10.092  0.4185  0.6232  0.1443
  401MOL0     C54007   8.337   6.017   9.995 -1.0881  0.2842  0.5605
  401MOL0     O54008   8.266   6.131  10.008  0.6364 -0.4625 -0.0124
  401MOL0     C54009   8.313   6.213  10.114  0.1390  0.7126 -0.0379
  401MOL0     C54010   8.224   6.206  10.236  0.4044  0.1719  0.5959
  401MOL0     C54011   8.270   6.276  10.365  0.1142 -0.1062 -0.0134
  401MOL0     C54012   8.301   6.425  10.334 -0.8930 -0.5396 -0.2873
  401MOL0     C54013   8.314   6.521  10.450  1.4667  0.1997  0.3442
  401MOL0     C54014   8.451   6.496  10.522 -0.9148 -0.6243  0.0146
  401MOL0     C54015   8.478   6.589  10.639 -0.8924 -0.2628  0.4569
  401MOL0     C54016   8.621   6.575  10.695  0.0111  0.0479  0.4467
  401MOL0     N54017   8.730   6.633  10.618  0.2375 -0.1299 -0.1489
  401MOL0     C54018   8.826   6.563  10.550  0.3693  0.0711 -0.8959
  401MOL0     C54019   8.911   6.658  10.497 -0.3075  0.0940  0.1345
  401MOL0     C54020   9.025   6.647  10.414  0.1788  0.5983  0.3619
  401MOL0     C54021   9.127   6.578  10.503  0.4993 -0.1279 -0.4363
  401MOL0     C54022   9.267   6.570  10.438 -0.5683 -0.6748  0.7830
  401MOL0     C54023   9.280   6.431  10.364 -0.1129  1.1013  0.2973
  401MOL0     O54024   9.279   6.320  10.453  0.2355 -0.1384 -0.2992
  401MOL0     C54025   9.320   6.199  10.405  0.3596 -0.6310  0.0444
  401MOL0     C54026   9.391   6.127  10.499  0.2311 -0.0672  0.0742
  401MOL0     C54027   9.462   6.013  10.469 -0.4859  0.6061 -0.4277
  401MOL0     C54028   9.536   5.959  10.586 -0.3130  0.5886 -0.1542
  401MOL0     C54029   9.452   5.964  10.329  0.1976  0.1427 -0.5935
  401MOL0     C54030   9.526   5.847  10.276 -0.1230 -0.1925 -0.0483
  401MOL0     O54031   9.595   5.764  10.363  0.5704 -0.2011  0.8216
  401MOL0     C54032   9.689   5.680  10.312  0.0518  0.0666  0.4860
  401MOL0     C54033   9.818   5.702  10.359  0.4610 -0.1186  0.2056
  401MOL0     C54034   9.923   5.638  10.305 -0.4963  0.4073 -0.2931
  401MOL0     C54035   9.903   5.529  10.214  0.5787 -0.0783 -0.2226
  401MOL0     O54036  10.001   5.457  10.154 -0.1277 -0.2876 -0.0731
  401MOL0     C54037  10.096   5.413  10.252 -0.1731  0.1218  0.2836
  401MOL0     C54038  10.189   5.303  10.187  0.0391 -0.4353  0.2829
  401MOL0     C54039  10.260   5.234  10.302  0.3392 -0.3182 -0.3759
  401MOL0     C54040  10.169   5.145  10.388 -0.4077  1.0417  0.3231
  401MOL0     C54041  10.254   5.050  10.475  0.1950  0.4258  0.6363
  401MOL0     C54042  10.176   4.979  10.584 -0.0513 -0.0118 -0.3910
  401MOL0     C54043  10.066   4.886  10.544 -0.4952  0.0035  0.2153
  401MOL0     C54044   9.965   4.867  10.659  0.8669  0.1830 -0.1400
  401MOL0    Cl54045   9.835   4.751  10.616 -0.1176  0.3467  0.1147
  401MOL0     C54046   9.776   5.505  10.164  0.2625 -0.0367 -0.0734
  401MOL0     C54047   9.670   5.587  10.213  0.8795  0.9243 -0.1143
  401MOL0     O54048   9.539   5.843  10.157 -0.3111  0.6082  0.9343
  401MOL0     C54049   9.379   6.037  10.234  0.3645  0.5684 -0.3195
  401MOL0     C54050   9.321   6.156  10.272  0.3757 -0.5259  0.4697
  401MOL0     N54051   8.857   6.783  10.528 -0.4417 -0.2568 -0.2994
  401MOL0     N54052   8.756   6.767  10.601 -0.5773  0.0951  0.2298
  401MOL0     C54053   8.350   5.961   9.862  0.0665  0.8727  0.6246
  401MOL0     C54054   8.439   5.861   9.827  0.8152 -0.1417  0.2703
  401MOL0     C54055   8.691   5.490   9.896 -0.3469  0.1532  0.3263
  401MOL0     C54056   8.825   5.534   9.874  0.4087 -0.3305 -0.0289
  401MOL0     C54057   8.931   5.440   9.856 -0.5470  0.4083  1.4589
  401MOL0     C54058   8.900   5.301   9.848  1.1035 -0.3211 -0.5085
  401MOL0     O54059   8.988   5.196   9.828  0.0484  0.0619  0.5461
  401MOL0     C54060   9.128   5.220   9.827 -0.3933  0.0957 -0.0405
  401MOL0     C54061   9.188   5.251   9.962  0.1777 -0.3055 -0.5923
  401MOL0     C54062   9.287   5.143  10.020 -0.5678 -0.2954  0.2614
  401MOL0     C54063   9.423   5.119   9.961 -0.5593 -0.4269  0.2136
  401MOL0     C54064   9.482   5.244   9.946  0.0081 -1.1048  0.2746
  401MOL0     C54065   9.539   5.356   9.941  0.7673 -0.2621  0.4631
  401MOL0     C54066   8.761   5.260   9.860 -0.3517  0.2276 -0.1693
  401MOL0     C54067   8.663   5.354   9.878  0.0542 -0.4327  0.2364
  401MOL0     H54068   8.569   5.799  10.127  0.9365  1.6876  0.2470
  401MOL0     H54069   8.400   5.978  10.196  2.0557 -1.3428  0.9263
  401MOL0     H54070   8.412   6.188  10.155  0.2279 -0.8760 -1.1127
  401MOL0     H54071   8.311   6.316  10.078 -0.1628  0.2143 -1.5004
  401MOL0     H54072   8.123   6.241  10.212 -0.8009 -1.8557  2.3289
  401MOL0     H54073   8.218   6.103  10.272 -1.8246  0.8266  2.3542
  401MOL0     H54074   8.194   6.278  10.443 -0.0180 -1.6204 -0.0831
  401MOL0     H54075   8.358   6.226  10.407  0.2070  0.2726  0.2570
  401MOL0     H54076   8.393   6.432  10.275  0.8930  3.0990  2.5797
  401MOL0     H54077   8.221   6.460  10.268 -1.0183  0.6621  0.4742
  401MOL0     H54078   8.302   6.625  10.421 -1.6795 -0.3089 -0.5829
  401MOL0     H54079   8.229   6.514  10.518  1.1795 -2.0986 -0.1513
  401MOL0     H54080   8.455   6.395  10.564 -1.5587 -1.0087 -0.8108
  401MOL0     H54081   8.532   6.514  10.451 -1.0931  1.0140  0.1829
  401MOL0     H54082   8.468   6.692  10.605 -3.2622 -0.2832  0.9636
  401MOL0     H54083   8.404   6.582  10.718  0.8264 -2.3815  2.0244
  401MOL0     H54084   8.645   6.468  10.705  0.2633 -0.1805 -1.9993
  401MOL0     H54085   8.611   6.627  10.790 -1.7260  2.6803 -1.0575
  401MOL0     H54086   8.830   6.455  10.539  2.3073  0.1300 -1.1543
  401MOL0     H54087   9.019   6.572  10.334  1.8952 -0.1010  0.8419
  401MOL0     H54088   9.063   6.742  10.377  0.3324  1.3844  2.3982
  401MOL0     H54089   9.100   6.474  10.525 -1.7417  0.4771 -0.0794
  401MOL0     H54090   9.135   6.630  10.599 -0.2956 -2.8566  1.2288
  401MOL0     H54091   9.343   6.585  10.515 -1.4429  0.0296  1.5294
  401MOL0     H54092   9.283   6.647  10.362  2.8460 -0.3686  1.6711
  401MOL0     H54093   9.379   6.433  10.317 -0.3274  1.7865 -0.1364
  401MOL0     H54094   9.214   6.423  10.278 -2.3596  4.5090  1.5334
  401MOL0     H54095   9.390   6.162  10.602  1.6530 -2.3209  0.9344
  401MOL0     H54096   9.570   6.043  10.648  1.3373 -0.4063  0.3621
  401MOL0     H54097   9.479   5.894  10.654  0.6106  2.2485  2.3532
  401MOL0     H54098   9.620   5.894  10.562 -2.6091 -3.0294  0.7988
  401MOL0     H54099   9.822   5.776  10.438 -1.1776 -0.9740  1.1527
  401MOL0     H54100  10.017   5.669  10.350  0.7959 -1.7193 -1.3884
  401MOL0     H54101  10.159   5.494  10.292 -0.4065 -0.4743  1.9706
  401MOL0     H54102  10.053   5.365  10.340  2.5813 -3.5333 -0.1308
  401MOL0     H54103  10.126   5.239  10.125 -0.8223 -1.1520  1.8640
  401MOL0     H54104  10.260   5.342  10.113 -0.7963 -3.2871 -2.2153
  401MOL0     H54105  10.306   5.312  10.364  1.2831  0.9179 -2.5084
  401MOL0     H54106  10.331   5.163  10.258 -1.1240 -1.4606 -0.9891
  401MOL0     H54107  10.106   5.202  10.457  1.6687 -0.4769  3.7459
  401MOL0     H54108  10.107   5.084  10.322  1.6655  0.1328 -0.8771
  401MOL0     H54109  10.325   5.110  10.532  1.5121 -0.9777  0.5341
  401MOL0     H54110  10.317   4.978  10.422 -1.9424  0.3484 -2.0006
  401MOL0     H54111  10.236   4.924  10.657 -0.4764  2.0110  1.5769
  401MOL0     H54112  10.138   5.053  10.655 -0.3090 -0.4486 -0.0666
  401MOL0     H54113  10.115   4.791  10.521 -0.3886  0.3294 -0.9890
  401MOL0     H54114  10.013   4.913  10.452  1.2750 -1.7629 -1.4181
  401MOL0     H54115   9.926   4.966  10.686  1.2482  0.4236 -0.4674
  401MOL0     H54116  10.013   4.826  10.748  0.8826 -0.0857 -0.2743
  401MOL0     H54117   9.749   5.426  10.094 -1.4989 -1.3609  1.9457
  401MOL0     H54118   9.572   5.579  10.168  3.1075 -0.4205 -5.4612
  401MOL0     H54119   9.379   6.000  10.132  0.4384 -1.2693  0.3060
  401MOL0     H54120   9.278   6.223  10.199  1.0942 -0.1840  0.3462
  401MOL0     H54121   8.298   6.003   9.777  1.6369 -1.3557 -1.5741
  401MOL0     H54122   8.455   5.842   9.721  0.5785  0.9144  0.0341
  401MOL0     H54123   8.835   5.642   9.884 -0.9638  0.1033 -2.5631
  401MOL0     H54124   9.034   5.469   9.838 -1.0555  0.6946 -1.4797
  401MOL0     H54125   9.184   5.133   9.790  0.1825 -0.7330  2.5801
  401MOL0     H54126   9.145   5.301   9.756 -0.7730 -0.9901 -1.4067
  401MOL0     H54127   9.116   5.261  10.044  0.2288 -0.0095 -0.5853
  401MOL0     H54128   9.236   5.349   9.953 -1.4764  0.7495  1.2804
  401MOL0     H54129   9.232   5.049  10.005  0.3723 -0.3319 -4.1926
  401MOL0     H54130   9.306   5.168  10.125  0.3452  1.2675 -0.2388
  401MOL0     H54131   9.421   5.061   9.868  1.0580 -0.9643  0.4894
  401MOL0     H54132   9.473   5.046  10.026 -1.7734 -3.8017 -2.3505
  401MOL0     H54133   9.572   5.457   9.931  1.3128 -0.6332 -2.2323
  401MOL0     H54134   8.742   5.153   9.860  2.6202 -0.4099  1.5059
  401MOL0     H54135   8.562   5.316   9.874  0.3171 -1.1003 -0.0874
  402MOL0     O54136   4.289   6.518  10.015  0.0051  0.4301 -0.3427
  402MOL0     C54137   4.364   6.586   9.949 -0.7396 -0.0522  0.1814
  402MOL0     O54138   4.415   6.559   9.827  1.2094  0.5028 -0.7730
  402MOL0     C54139   4.375   6.448   9.766 -0.4733  1.5403 -0.0005
  402MOL0     C54140   4.248   6.437   9.717 -0.2177 -0.9617 -0.4837
  402MOL0     C54141   4.205   6.328   9.648  0.1719  0.7466  0.3130
  402MOL0     C54142   4.277   6.204   9.654  0.4186 -0.2390  0.2508
  402MOL0     O54143   4.234   6.088   9.593 -0.0702  0.3550  0.3116
  402MOL0     C54144   4.275   5.955   9.637  0.3212  0.0756 -0.2248
  402MOL0     C54145   4.194   5.868   9.547  0.6867  0.1690  0.0269
  402MOL0     C54146   4.132   5.744   9.618  0.4931  0.8772 -0.2807
  402MOL0     C54147   4.031   5.670   9.523  0.5600 -0.6011  0.0402
  402MOL0     C54148   3.942   5.573   9.587  0.8020  0.9490  0.0082
  402MOL0     C54149   3.853   5.492   9.480  0.2010 -0.0826 -0.2363
  402MOL0     C54150   3.951   5.403   9.393 -0.0559 -0.4074  0.2907
  402MOL0     C54151   3.865   5.303   9.311 -0.3379  1.0716 -0.2436
  402MOL0     N54152   3.802   5.206   9.401 -0.7198 -0.1581 -0.2774
  402MOL0     C54153   3.667   5.194   9.413  0.6336 -0.2432  0.1584
  402MOL0     C54154   3.644   5.097   9.496 -0.8205 -0.8068 -0.0318
  402MOL0     C54155   3.508   5.061   9.558  0.2255  0.0268  0.6871
  402MOL0     C54156   3.406   5.014   9.446 -0.3890 -0.6915  0.8579
  402MOL0     C54157   3.271   4.985   9.508 -0.9372 -0.0941 -0.6211
  402MOL0     C54158   3.159   4.961   9.406  0.0213  0.4515 -0.4307
  402MOL0     O54159   3.037   4.951   9.478 -0.3440 -0.1012 -0.1411
  402MOL0     C54160   2.931   4.894   9.412 -0.6329  0.4217  0.0358
  402MOL0     C54161   2.817   4.878   9.486  0.3611  0.2676 -0.2980
  402MOL0     C54162   2.698   4.806   9.443 -0.3771  0.3731 -0.1258
  402MOL0     C54163   2.584   4.796   9.537  0.5456  0.3062  0.2332
  402MOL0     C54164   2.693   4.758   9.309  0.0104  1.0451 -0.9993
  402MOL0     C54165   2.589   4.675   9.244  0.2658 -0.6389 -0.3148
  402MOL0     O54166   2.477   4.647   9.309  0.6270  0.0237  0.0229
  402MOL0     C54167   2.378   4.599   9.235 -0.2108  0.0940 -0.1264
  402MOL0     C54168   2.333   4.467   9.265  0.1871  0.4364 -0.1749
  402MOL0     C54169   2.230   4.413   9.187  0.5060 -0.8351  0.5014
  402MOL0     C54170   2.174   4.489   9.079  0.3367  0.1358  0.6592
  402MOL0     O54171   2.074   4.441   8.998 -0.1369  0.1786 -0.3480
  402MOL0     C54172   2.071   4.459   8.857  0.0309  0.0468 -0.1635
  402MOL0     C54173   1.960   4.365   8.809 -0.0793 -0.3713 -0.2219
  402MOL0     C54174   1.820   4.386   8.880 -0.2951  0.0776  0.9179
  402MOL0     C54175   1.734   4.275   8.826  0.0822  0.4633 -0.2855
  402MOL0     C54176   1.598   4.294   8.886 -0.4433  0.7503 -0.4138
  402MOL0     C54177   1.503   4.187   8.839  0.6260  0.0091  0.3488
  402MOL0     C54178   1.382   4.164   8.931  0.5355 -0.0228  0.0204
  402MOL0     C54179   1.340   4.022   8.933 -0.7484 -0.3609  0.2799
  402MOL0    Cl54180   1.266   3.972   8.780  0.2909 -0.1143  0.2713
  402MOL0     C54181   2.221   4.617   9.054  1.3526 -0.1567  0.2271
  402MOL0     C54182   2.319   4.671   9.129 -1.2391  0.1547  0.6918
  402MOL0     O54183   2.602   4.641   9.130  0.1912 -0.3832  0.1210
  402MOL0     C54184   2.806   4.781   9.228  0.0497  0.3093  0.2006
  402MOL0     C54185   2.926   4.847   9.276  0.5946  0.7489 -0.2160
  402MOL0     N54186   3.766   5.033   9.520  0.0965 -0.4629  0.6301
  402MOL0     N54187   3.857   5.092   9.452  0.2501 -0.7766  0.8147
  402MOL0     C54188   4.407   6.207   9.709  0.2574 -0.1583  0.0775
  402MOL0     C54189   4.453   6.335   9.762 -0.2456  0.1905  0.2964
  402MOL0     C54190   4.417   6.700  10.021  0.6288 -0.5702 -0.0639
  402MOL0     C54191   4.526   6.772   9.972  1.4643 -0.3868  0.7753
  402MOL0     C54192   4.574   6.890  10.033 -0.5160  0.8243 -0.1809
  402MOL0     C54193   4.506   6.946  10.143  0.6716  0.6094 -0.0948
  402MOL0     O54194   4.556   7.066  10.189 -0.2936 -0.1331 -0.2239
  402MOL0     C54195   4.492   7.146  10.284 -0.4582 -0.1959 -0.5255
  402MOL0     C54196   4.361   7.204  10.219 -0.1127  0.0376 -0.3276
  402MOL0     C54197   4.316   7.323  10.302 -0.6290 -0.6055 -0.3182
  402MOL0     C54198   4.293   7.275  10.450  0.2052 -0.2126  0.0413
  402MOL0     C54199   4.211   7.372  10.518 -0.1139  0.0402  0.8833
  402MOL0     C54200   4.146   7.458  10.578  0.7318  0.5876  0.7719
  402MOL0     C54201   4.396   6.869  10.195  1.4260 -0.1730 -0.1890
  402MOL0     C54202   4.351   6.750  10.137 -0.5129  0.1237  0.0057
  402MOL0     H54203   4.190   6.529   9.719  3.6062  1.7371  0.9900
  402MOL0     H54204   4.115   6.337   9.588  1.0628  1.7772 -0.9128
  402MOL0     H54205   4.380   5.940   9.609  0.3305  1.0946 -0.7620
  402MOL0     H54206   4.247   5.953   9.743 -1.0571  1.8892 -0.5074
  402MOL0     H54207   4.109   5.921   9.503 -0.9381 -2.0361  0.3327
  402MOL0     H54208   4.261   5.834   9.466  0.7604  1.6918 -0.5823
  402MOL0     H54209   4.209   5.683   9.666 -0.2999  0.8319  0.9847
  402MOL0     H54210   4.065   5.785   9.693 -0.5776  0.6363 -1.0863
  402MOL0     H54211   3.971   5.743   9.468 -0.2092  0.2975  2.0117
  402MOL0     H54212   4.088   5.621   9.443  0.2595  1.2678 -1.3991
  402MOL0     H54213   4.013   5.505   9.636  1.3249  1.6815  0.2829
  402MOL0     H54214   3.875   5.625   9.656  1.9750 -0.1847  2.1209
  402MOL0     H54215   3.794   5.418   9.534  1.1259 -1.9993 -1.6950
  402MOL0     H54216   3.786   5.561   9.429  1.8708  2.3240  0.6147
  402MOL0     H54217   4.015   5.456   9.322 -1.3270 -0.3424 -0.8606
  402MOL0     H54218   4.021   5.346   9.455  0.1067 -1.7099 -1.0363
  402MOL0     H54219   3.927   5.248   9.239 -1.0730  1.7742 -1.4336
  402MOL0     H54220   3.795   5.359   9.248 -0.9000  2.5438  1.6325
  402MOL0     H54221   3.588   5.256   9.374  0.2129 -0.9892 -0.1923
  402MOL0     H54222   3.516   4.977   9.627 -4.0284  0.5728  2.1059
  402MOL0     H54223   3.463   5.145   9.611  0.0424  0.5173 -0.2311
  402MOL0     H54224   3.447   4.919   9.410  2.4817  0.9995 -0.7274
  402MOL0     H54225   3.405   5.087   9.364 -0.7953  0.0614  1.5144
  402MOL0     H54226   3.250   5.077   9.562  0.1777  1.0203 -2.0041
  402MOL0     H54227   3.268   4.903   9.580  0.7598  0.2559 -0.1224
  402MOL0     H54228   3.183   4.868   9.355  3.6435  1.6636 -1.3009
  402MOL0     H54229   3.154   5.046   9.337  1.5033 -0.2727 -1.4632
  402MOL0     H54230   2.816   4.927   9.583  0.4995 -3.1551  1.5776
  402MOL0     H54231   2.515   4.878   9.518  0.8094  0.8109  1.3684
  402MOL0     H54232   2.529   4.702   9.527  0.9458  0.0860  0.0306
  402MOL0     H54233   2.613   4.817   9.640 -0.6942 -2.1107  1.1574
  402MOL0     H54234   2.389   4.419   9.345  0.1874  0.9381  0.1368
  402MOL0     H54235   2.192   4.316   9.217 -0.3231 -0.9607 -0.8652
  402MOL0     H54236   2.043   4.564   8.842  2.9443  0.5560 -2.9344
  402MOL0     H54237   2.166   4.454   8.804  1.7697 -2.1041  2.8488
  402MOL0     H54238   1.941   4.389   8.704 -1.8729  0.8392  0.3379
  402MOL0     H54239   1.993   4.261   8.817 -2.4409 -1.0472  2.7926
  402MOL0     H54240   1.772   4.480   8.850 -1.2388 -1.4774 -3.1681
  402MOL0     H54241   1.826   4.377   8.989 -2.5810 -0.2895  1.0755
  402MOL0     H54242   1.717   4.300   8.721 -1.6529  1.4448  0.1812
  402MOL0     H54243   1.786   4.181   8.845  0.0094  0.6346  0.8278
  402MOL0     H54244   1.551   4.392   8.873 -0.5075  0.9504  1.1434
  402MOL0     H54245   1.597   4.275   8.994 -3.2382 -0.3667 -0.5423
  402MOL0     H54246   1.471   4.220   8.740 -2.0116 -1.0188  0.7869
  402MOL0     H54247   1.553   4.091   8.819 -0.7799 -0.2982 -2.0877
  402MOL0     H54248   1.286   4.207   8.900 -0.3448 -3.4299 -2.6375
  402MOL0     H54249   1.417   4.193   9.031  1.3420  0.8803 -0.5110
  402MOL0     H54250   1.257   4.019   9.005 -2.2908  2.2628 -1.2636
  402MOL0     H54251   1.425   3.960   8.964 -0.7449 -0.6344 -0.2773
  402MOL0     H54252   2.192   4.685   8.974 -1.0554  0.2654  1.3831
  402MOL0     H54253   2.350   4.771   9.102 -2.6743 -0.3174 -3.3963
  402MOL0     H54254   2.830   4.737   9.132 -1.7264  0.0961 -0.1793
  402MOL0     H54255   3.018   4.835   9.219  0.0956  0.7438 -1.0395
  402MOL0     H54256   4.470   6.120   9.723  1.5435  0.7445 -0.0264
  402MOL0     H54257   4.559   6.345   9.783 -0.0921 -0.4483 -0.1598
  402MOL0     H54258   4.572   6.735   9.881 -2.2961 -1.6634 -0.7787
  402MOL0     H54259   4.658   6.950  10.000 -0.2441  0.5914  0.0797
  402MOL0     H54260   4.467   7.097  10.379 -0.8141  0.7799 -0.1039
  402MOL0     H54261   4.565   7.218  10.321 -0.6102 -1.7916  3.3683
  402MOL0     H54262   4.278   7.132  10.214 -0.9567  1.0271 -0.7778
  402MOL0     H54263   4.386   7.237  10.118  2.8497  3.9717  1.4395
  402MOL0     H54264   4.218   7.360  10.270 -0.0017  0.2017 -1.3527
  402MOL0     H54265   4.379   7.412  10.309 -1.7437  0.0805  2.4304
  402MOL0     H54266   4.380   7.250  10.511  0.6221 -2.9918 -1.5199
  402MOL0     H54267   4.237   7.181  10.455  2.3665 -1.5808  0.1445
  402MOL0     H54268   4.085   7.534  10.623  1.9153  3.1479 -1.6420
  402MOL0     H54269   4.345   6.906  10.284 -1.6334  0.5092 -2.0804
  402MOL0     H54270   4.271   6.691  10.180  0.4346 -1.5536 -0.4507
  403MOL0     O54271   0.754   0.170   8.213  0.2243 -0.7432 -0.2706
  403MOL0     C54272   0.827   0.106   8.285 -1.2553  0.4187  0.6681
  403MOL0     O54273   0.792   0.006   8.367 -0.0608 -0.4025  0.1080
  403MOL0     C54274   0.671  -0.020   8.410  0.6006  0.0088 -0.3260
  403MOL0     C54275   0.662  -0.134   8.482  0.9974  0.5341 -0.4180
  403MOL0     C54276   0.540  -0.178   8.531 -0.0402 -0.3931 -0.9695
  403MOL0     C54277   0.425  -0.094   8.525 -0.0813 -0.3088 -0.6048
  403MOL0     O54278   0.293  -0.121   8.570 -0.4011 -0.3157 -0.0516
  403MOL0     C54279   0.215  -0.217   8.498 -0.4177 -0.8175  0.3643
  403MOL0     C54280   0.072  -0.199   8.532  0.5512  0.3116 -0.5507
  403MOL0     C54281  -0.029  -0.288   8.449  0.6135 -0.4009 -0.8092
  403MOL0     C54282  -0.173  -0.230   8.462 -0.5177  0.3907 -0.0373
  403MOL0     C54283  -0.269  -0.345   8.448  0.9424 -0.8440 -0.5902
  403MOL0     C54284  -0.408  -0.278   8.458 -0.2858 -0.4430  0.1725
  403MOL0     C54285  -0.508  -0.333   8.352 -0.2908  1.0419  0.6570
  403MOL0     C54286  -0.530  -0.488   8.378 -0.4640 -0.2141  0.4812
  403MOL0     N54287  -0.596  -0.516   8.501  0.6190  0.0667  0.5312
  403MOL0     C54288  -0.716  -0.461   8.536  0.0808 -0.0072 -0.2064
  403MOL0     C54289  -0.747  -0.525   8.657 -0.6982  0.0508 -0.2838
  403MOL0     C54290  -0.869  -0.505   8.741  0.4518 -1.1428  0.3527
  403MOL0     C54291  -0.984  -0.594   8.704  0.4234 -0.9038 -1.6762
  403MOL0     C54292  -1.083  -0.571   8.813  1.0939 -0.0155  0.0383
  403MOL0     C54293  -1.216  -0.633   8.767  0.1741 -0.8256 -0.4537
  403MOL0     O54294  -1.304  -0.632   8.882  0.2365  0.5096  0.4472
  403MOL0     C54295  -1.445  -0.619   8.858 -0.1369  2.1331  0.3845
  403MOL0     C54296  -1.502  -0.560   8.749 -0.1354  0.2608  0.2445
  403MOL0     C54297  -1.633  -0.569   8.730 -0.1568  0.2548  0.1174
  403MOL0     C54298  -1.678  -0.510   8.594 -0.4928 -0.5924 -0.5066
  403MOL0     C54299  -1.722  -0.632   8.811 -0.7180  0.7333  0.0316
  403MOL0     C54300  -1.867  -0.652   8.800 -0.4117  0.6884 -0.1496
  403MOL0     O54301  -1.912  -0.716   8.686 -0.5822  0.5599  0.4941
  403MOL0     C54302  -2.045  -0.717   8.657 -0.1877 -0.5343  0.0486
  403MOL0     C54303  -2.087  -0.677   8.534 -0.1476  0.4309 -1.0243
  403MOL0     C54304  -2.219  -0.681   8.489  0.6548  0.7841 -0.0321
  403MOL0     C54305  -2.317  -0.737   8.574 -0.4193 -0.4143 -0.0227
  403MOL0     O54306  -2.452  -0.750   8.560 -0.0750 -0.6685 -0.5613
  403MOL0     C54307  -2.505  -0.763   8.428  0.6982  0.3432  0.8709
  403MOL0     C54308  -2.637  -0.851   8.432  0.0088 -0.0733  0.3100
  403MOL0     C54309  -2.684  -0.874   8.291  0.2628  0.1914 -0.7801
  403MOL0     C54310  -2.809  -0.958   8.295  0.5940 -0.0633 -0.4443
  403MOL0     C54311  -2.859  -0.995   8.153 -0.9793  0.5002  0.3151
  403MOL0     C54312  -2.883  -0.874   8.067 -0.8992 -0.4083 -0.4821
  403MOL0     C54313  -2.970  -0.897   7.937  0.5198  0.2932  0.1254
  403MOL0     C54314  -2.911  -0.962   7.811 -0.9626  0.9183  0.3950
  403MOL0    Cl54315  -2.747  -0.887   7.775  0.1788  0.2130 -0.0332
  403MOL0     C54316  -2.267  -0.787   8.697  1.0739 -0.1588 -0.2611
  403MOL0     C54317  -2.138  -0.782   8.740 -0.4699  0.2819 -0.2309
  403MOL0     O54318  -1.938  -0.607   8.887 -0.8111 -0.2504  0.3813
  403MOL0     C54319  -1.659  -0.694   8.924 -0.7518  0.2104 -0.0537
  403MOL0     C54320  -1.523  -0.687   8.946 -0.3173 -0.3563 -0.0232
  403MOL0     N54321  -0.637  -0.614   8.679  0.2492  0.1225  0.6518
  403MOL0     N54322  -0.543  -0.596   8.592  0.1882 -0.2718  1.1168
  403MOL0     C54323   0.433   0.027   8.461  0.6355  0.4218  0.2672
  403MOL0     C54324   0.557   0.065   8.396 -0.2862 -0.3547 -0.0830
  403MOL0     C54325   0.977   0.127   8.264  1.2556  0.1403  1.1005
  403MOL0     C54326   1.032   0.204   8.157 -0.2753  0.9457  0.1198
  403MOL0     C54327   1.167   0.203   8.135  1.1710 -0.0181 -0.5173
  403MOL0     C54328   1.256   0.127   8.212  0.0562  0.1070  0.4938
  403MOL0     O54329   1.391   0.117   8.171 -0.3002 -0.1650  0.2783
  403MOL0     C54330   1.492   0.102   8.262 -0.3194 -0.9383  0.1987
  403MOL0     C54331   1.622   0.160   8.209 -0.2437 -0.7520  0.6644
  403MOL0     C54332   1.734   0.128   8.311 -0.0706  0.1230  0.9682
  403MOL0     C54333   1.745   0.223   8.438 -0.0289 -0.7980 -0.2411
  403MOL0     C54334   1.760   0.364   8.397 -0.6395 -0.1083 -0.2337
  403MOL0     C54335   1.778   0.483   8.369  0.3186  0.3580  0.0328
  403MOL0     C54336   1.200   0.053   8.319  0.7137 -0.6543  0.2995
  403MOL0     C54337   1.070   0.061   8.350  0.4319  0.7408 -0.1176
  403MOL0     H54338   0.748  -0.198   8.469  1.0684  0.8613 -1.7642
  403MOL0     H54339   0.536  -0.273   8.584  0.1650 -0.8323 -1.7267
  403MOL0     H54340   0.211  -0.198   8.390 -0.0028 -1.8755  0.1458
  403MOL0     H54341   0.249  -0.320   8.513  1.1516 -0.6291 -1.5718
  403MOL0     H54342   0.060  -0.241   8.632  1.9271 -1.4218 -1.0751
  403MOL0     H54343   0.042  -0.093   8.534 -0.0969  0.1347 -0.4471
  403MOL0     H54344  -0.003  -0.287   8.343  2.5234 -1.5518 -0.3935
  403MOL0     H54345  -0.006  -0.388   8.486  0.7650 -0.8565 -2.1003
  403MOL0     H54346  -0.176  -0.184   8.561  0.2155  0.0621  0.1468
  403MOL0     H54347  -0.204  -0.154   8.390 -0.7071  2.6706  2.3137
  403MOL0     H54348  -0.265  -0.383   8.345 -1.3470  0.2503 -1.1535
  403MOL0     H54349  -0.255  -0.428   8.518  0.8753 -1.0031 -0.7638
  403MOL0     H54350  -0.452  -0.294   8.556  1.9445 -0.3481  1.2418
  403MOL0     H54351  -0.401  -0.172   8.433  2.3562 -0.6524 -0.2778
  403MOL0     H54352  -0.604  -0.284   8.366 -1.5962 -1.2440  0.2166
  403MOL0     H54353  -0.466  -0.310   8.254  1.5981  0.1842  1.2184
  403MOL0     H54354  -0.440  -0.550   8.366 -0.2195  0.4152 -1.2290
  403MOL0     H54355  -0.609  -0.509   8.306 -0.2804  3.2139 -0.8885
  403MOL0     H54356  -0.781  -0.389   8.489 -0.5597 -1.4718 -1.6560
  403MOL0     H54357  -0.838  -0.509   8.845 -0.0135 -0.4889  0.5253
  403MOL0     H54358  -0.898  -0.401   8.720  1.6817 -1.0266 -0.9063
  403MOL0     H54359  -0.956  -0.700   8.709  0.6615 -0.7966 -0.1138
  403MOL0     H54360  -1.018  -0.556   8.608 -1.3182  1.2388 -0.3132
  403MOL0     H54361  -1.103  -0.464   8.821 -1.6358 -0.2582 -1.7830
  403MOL0     H54362  -1.050  -0.619   8.905 -0.8904  1.2448  1.5021
  403MOL0     H54363  -1.198  -0.733   8.725  0.7645  0.0907 -2.5555
  403MOL0     H54364  -1.254  -0.570   8.686 -0.0073  1.9168  1.6348
  403MOL0     H54365  -1.437  -0.515   8.674  0.0624  0.2170  0.3857
  403MOL0     H54366  -1.637  -0.410   8.576 -0.5232 -0.7000 -1.2079
  403MOL0     H54367  -1.642  -0.573   8.512 -0.1785 -0.8176 -0.2013
  403MOL0     H54368  -1.787  -0.513   8.599 -0.4742 -0.7859 -0.1622
  403MOL0     H54369  -2.008  -0.646   8.466  0.5939 -0.1539 -0.4487
  403MOL0     H54370  -2.250  -0.641   8.392  0.5760 -1.0338 -0.8044
  403MOL0     H54371  -2.523  -0.668   8.378  0.4688 -0.0431  0.2088
  403MOL0     H54372  -2.436  -0.829   8.374  1.7340 -0.8505  3.4937
  403MOL0     H54373  -2.611  -0.950   8.469  1.2681  0.1651  0.0959
  403MOL0     H54374  -2.700  -0.797   8.503  3.1228  0.6984  2.6581
  403MOL0     H54375  -2.601  -0.918   8.236 -0.3762  0.5931 -2.1045
  403MOL0     H54376  -2.707  -0.777   8.245  1.4334 -0.2293 -2.3154
  403MOL0     H54377  -2.787  -1.054   8.342 -0.1476  0.5818  1.3083
  403MOL0     H54378  -2.892  -0.903   8.339 -1.1834  0.1330 -3.7252
  403MOL0     H54379  -2.951  -1.053   8.153  0.4549 -2.2306  4.0934
  403MOL0     H54380  -2.784  -1.063   8.110  0.9627  1.4588  2.0013
  403MOL0     H54381  -2.929  -0.799   8.133  0.8402  1.8925 -1.7064
  403MOL0     H54382  -2.788  -0.829   8.035  0.6022 -1.8957  1.6012
  403MOL0     H54383  -2.995  -0.798   7.900  2.1974  0.8194  0.3243
  403MOL0     H54384  -3.065  -0.942   7.967 -0.0505 -1.6177 -3.8508
  403MOL0     H54385  -2.989  -0.967   7.735  1.2364  1.0625 -1.9928
  403MOL0     H54386  -2.894  -1.066   7.843 -1.1305  0.3803 -1.1855
  403MOL0     H54387  -2.320  -0.836   8.778  1.8946  0.5026  0.6892
  403MOL0     H54388  -2.116  -0.831   8.834 -2.5650 -0.2564  0.0379
  403MOL0     H54389  -1.715  -0.766   8.984  0.3052 -4.1172 -3.6650
  403MOL0     H54390  -1.472  -0.731   9.032  1.2618 -0.7725 -1.1200
  403MOL0     H54391   0.340   0.082   8.460  0.4012  0.0246 -0.2046
  403MOL0     H54392   0.561   0.162   8.349  2.5712 -0.3811 -0.0517
  403MOL0     H54393   0.973   0.261   8.085 -1.5511  0.6132  0.8720
  403MOL0     H54394   1.214   0.262   8.057 -0.0681 -1.6984 -2.6508
  403MOL0     H54395   1.460   0.156   8.352 -2.7542 -0.9064 -0.6255
  403MOL0     H54396   1.500  -0.007   8.272 -0.3714 -1.1569 -1.7494
  403MOL0     H54397   1.622   0.269   8.198 -0.1979 -0.7263  0.9239
  403MOL0     H54398   1.647   0.127   8.108 -0.7468  2.2357 -0.5399
  403MOL0     H54399   1.829   0.146   8.259  0.6338 -1.5656  1.5607
  403MOL0     H54400   1.721   0.021   8.333 -0.2559  0.3198  1.8436
  403MOL0     H54401   1.836   0.184   8.485 -0.3717 -1.4471 -0.1011
  403MOL0     H54402   1.654   0.214   8.499 -0.6139 -1.2199 -1.1516
  403MOL0     H54403   1.786   0.587   8.341 -0.5907 -0.3641 -3.4096
  403MOL0     H54404   1.271  -0.001   8.380  1.0128 -0.0166  0.5231
  403MOL0     H54405   1.034   0.004   8.435  0.6605  0.3151 -0.3089
  404MOL0     O54406  10.426   7.645  10.840 -0.1532 -0.2792 -0.8001
  404MOL0     C54407  10.403   7.715  10.936  0.6781  0.4651 -0.2175
  404MOL0     O54408  10.497   7.757  11.029  0.0816 -0.1500  0.5948
  404MOL0     C54409  10.625   7.724  11.023  0.2924  0.3282 -0.4647
  404MOL0     C54410  10.681   7.656  11.125  0.2142  0.5324  0.4270
  404MOL0     C54411  10.809   7.589  11.121 -0.2367 -0.0915 -0.3447
  404MOL0     C54412  10.886   7.599  11.005  0.1921 -0.5465  0.4335
  404MOL0     O54413  10.998   7.523  10.991  0.5878  0.1234 -0.6153
  404MOL0     C54414  11.075   7.512  10.875  0.7933  0.3552  0.8058
  404MOL0     C54415  11.195   7.428  10.892 -0.0223  0.3947  0.9879
  404MOL0     C54416  11.295   7.449  10.776  0.3978 -0.3135 -0.0053
  404MOL0     C54417  11.433   7.405  10.821 -0.7500  0.4050 -0.7895
  404MOL0     C54418  11.515   7.351  10.708  0.7560 -0.8528 -0.3185
  404MOL0     C54419  11.663   7.335  10.759  0.8827 -0.1324 -0.2429
  404MOL0     C54420  11.684   7.216  10.861 -0.3332  0.0989  0.6794
  404MOL0     C54421  11.831   7.210  10.910  0.7256  0.6108 -0.7457
  404MOL0     N54422  11.842   7.107  11.007  0.2763 -0.0397 -0.1845
  404MOL0     C54423  11.793   7.099  11.135 -0.3446  0.0496 -0.0546
  404MOL0     C54424  11.805   6.972  11.171 -0.1457  0.3948 -0.1466
  404MOL0     C54425  11.745   6.914  11.300 -0.2088  0.2724  0.2968
  404MOL0     C54426  11.597   6.868  11.266 -1.2169  0.1946  0.7857
  404MOL0     C54427  11.519   6.840  11.394  0.5411  0.6957  0.3438
  404MOL0     C54428  11.367   6.822  11.370 -0.6891  0.8476 -0.1569
  404MOL0     O54429  11.308   6.946  11.320  0.1774  0.0404  0.3926
  404MOL0     C54430  11.180   6.952  11.269  0.2808 -0.2898 -0.1947
  404MOL0     C54431  11.136   7.077  11.240 -0.0804 -0.0295 -0.4343
  404MOL0     C54432  11.002   7.105  11.210 -0.3995  0.5055  1.1691
  404MOL0     C54433  10.963   7.246  11.216 -0.4456  0.4855 -0.4171
  404MOL0     C54434  10.909   7.003  11.194 -0.1432  0.1805 -0.2099
  404MOL0     C54435  10.768   7.017  11.153 -0.1323 -0.5947 -0.5418
  404MOL0     O54436  10.725   7.136  11.093 -0.1499 -0.5059  0.3903
  404MOL0     C54437  10.599   7.162  11.039 -0.4616 -0.4875 -0.5582
  404MOL0     C54438  10.556   7.297  11.048 -0.6760 -0.8604  0.5953
  404MOL0     C54439  10.434   7.326  10.990  0.4757 -0.8212 -0.6157
  404MOL0     C54440  10.349   7.243  10.916 -0.1156  0.2830 -0.0869
  404MOL0     O54441  10.221   7.275  10.873 -0.2130  0.0371 -0.3092
  404MOL0     C54442  10.191   7.413  10.830  0.1406 -0.1513  0.1927
  404MOL0     C54443  10.042   7.432  10.803 -0.4886 -0.0771 -0.6276
  404MOL0     C54444   9.954   7.417  10.929  0.4558 -0.0459 -0.4002
  404MOL0     C54445   9.804   7.401  10.906  0.5092 -0.1562 -0.0737
  404MOL0     C54446   9.732   7.501  10.802 -0.0090 -0.2546 -0.5151
  404MOL0     C54447   9.583   7.496  10.840 -0.7324 -0.1252  0.6792
  404MOL0     C54448   9.488   7.567  10.735  0.2323 -0.6844 -0.6715
  404MOL0     C54449   9.504   7.723  10.742  0.0306  0.3998 -1.2693
  404MOL0    Cl54450   9.382   7.799  10.644 -0.2309  0.0180  0.1786
  404MOL0     C54451  10.395   7.111  10.911  0.0241 -0.1463  0.4860
  404MOL0     C54452  10.514   7.073  10.974  0.3790  0.2686  0.2454
  404MOL0     O54453  10.694   6.917  11.167  0.3761  0.1616  0.5272
  404MOL0     C54454  10.958   6.874  11.217  0.4171  0.4515  0.4189
  404MOL0     C54455  11.085   6.848  11.268 -0.0683 -0.5744  0.2236
  404MOL0     N54456  11.891   6.912  11.082  0.0063  0.0568 -0.5315
  404MOL0     N54457  11.911   6.992  10.985  0.0223 -0.6684  0.6310
  404MOL0     C54458  10.832   7.680  10.899  0.2852 -0.0229  0.8678
  404MOL0     C54459  10.704   7.729  10.903  0.4195  0.5542  0.1561
  404MOL0     C54460  10.257   7.745  10.957  0.4359 -0.1043  0.0803
  404MOL0     C54461  10.215   7.774  11.089  0.1527 -0.7229 -0.1522
  404MOL0     C54462  10.077   7.809  11.105  0.2537 -0.0106  0.4226
  404MOL0     C54463   9.984   7.815  10.999  0.3333  0.4477  1.5769
  404MOL0     O54464   9.851   7.837  11.013  0.3718  0.1762  0.5857
  404MOL0     C54465   9.808   7.912  11.127  0.0106 -1.0090 -0.3529
  404MOL0     C54466   9.659   7.909  11.143  0.0459 -0.4175  1.0556
  404MOL0     C54467   9.602   8.003  11.034  0.9527  0.1846  0.5968
  404MOL0     C54468   9.455   8.002  11.048  0.0742 -0.1032  0.5512
  404MOL0     C54469   9.402   8.101  11.151 -0.7938 -0.4142 -0.6200
  404MOL0     C54470   9.349   8.167  11.234 -0.3197 -0.4479 -0.4558
  404MOL0     C54471  10.029   7.789  10.868  0.1814 -0.2252  0.5879
  404MOL0     C54472  10.160   7.753  10.847  0.4152  0.6795  0.0483
  404MOL0     H54473  10.628   7.632  11.217  0.0387  0.0560  0.2039
  404MOL0     H54474  10.845   7.544  11.213  0.5215 -0.0243 -0.6027
  404MOL0     H54475  11.019   7.470  10.791 -0.9353  0.3224  1.9134
  404MOL0     H54476  11.106   7.612  10.844  0.3880 -0.3927 -2.3339
  404MOL0     H54477  11.245   7.459  10.985  0.2557  2.1012  0.3058
  404MOL0     H54478  11.162   7.324  10.895 -1.3064  0.7853  3.0166
  404MOL0     H54479  11.265   7.386  10.691 -0.8744 -1.9382  1.5613
  404MOL0     H54480  11.307   7.554  10.748  0.3733 -0.8372 -2.2385
  404MOL0     H54481  11.471   7.492  10.875 -1.6947  1.2125 -1.3972
  404MOL0     H54482  11.426   7.321  10.891 -1.9757 -0.5162 -1.9643
  404MOL0     H54483  11.485   7.247  10.688  1.4018 -1.4747  1.6952
  404MOL0     H54484  11.501   7.411  10.618 -1.4667  0.4750  0.7937
  404MOL0     H54485  11.731   7.330  10.674 -0.5358 -0.0275 -1.4186
  404MOL0     H54486  11.687   7.421  10.824  0.0716  0.9828 -1.3798
  404MOL0     H54487  11.615   7.209  10.945 -1.0165 -3.4026 -0.0031
  404MOL0     H54488  11.658   7.125  10.806 -3.4070  1.6792 -0.7406
  404MOL0     H54489  11.839   7.308  10.959 -1.1259  1.3387 -1.7976
  404MOL0     H54490  11.903   7.200  10.829 -0.1588  0.3819 -1.5134
  404MOL0     H54491  11.736   7.166  11.200  2.3343 -0.0479  2.6069
  404MOL0     H54492  11.801   6.824  11.326  0.9385  0.5431 -1.0735
  404MOL0     H54493  11.730   6.993  11.374 -1.2372  0.1444  0.2302
  404MOL0     H54494  11.610   6.773  11.213  1.4135  1.0742 -0.2970
  404MOL0     H54495  11.544   6.942  11.205 -0.1105  2.1734  2.1224
  404MOL0     H54496  11.523   6.913  11.476 -4.1502 -1.1512  2.5465
  404MOL0     H54497  11.540   6.741  11.434  1.4088  0.7285 -0.0020
  404MOL0     H54498  11.331   6.811  11.472  0.8626  1.8822  0.5405
  404MOL0     H54499  11.351   6.738  11.302 -0.2663  2.2225 -2.0779
  404MOL0     H54500  11.207   7.154  11.267 -2.4355  1.3978  2.2635
  404MOL0     H54501  10.971   7.275  11.111  0.2259  1.5089 -0.1023
  404MOL0     H54502  10.864   7.265  11.257 -1.2091 -1.0001 -1.5080
  404MOL0     H54503  11.030   7.310  11.275 -1.0139  0.9787 -0.2999
  404MOL0     H54504  10.602   7.374  11.109 -1.8785  0.2461  0.1307
  404MOL0     H54505  10.395   7.427  10.998 -0.0205 -1.1020  0.7785
  404MOL0     H54506  10.232   7.487  10.899  2.1537  1.4070 -2.4506
  404MOL0     H54507  10.242   7.427  10.734 -0.3408  2.2138  0.2321
  404MOL0     H54508  10.012   7.530  10.765 -0.3523  0.5771  0.8663
  404MOL0     H54509  10.014   7.355  10.730 -2.5853 -0.6154  0.6689
  404MOL0     H54510   9.964   7.507  10.991 -1.1680 -1.0141  1.3497
  404MOL0     H54511   9.987   7.335  10.993 -2.3357  0.4498  1.8694
  404MOL0     H54512   9.790   7.296  10.878  0.5157  0.5141 -2.8099
  404MOL0     H54513   9.753   7.404  11.003 -3.1042 -0.9345 -1.7948
  404MOL0     H54514   9.752   7.476  10.698 -0.6090  0.4007 -0.7995
  404MOL0     H54515   9.772   7.602  10.817  3.1695 -1.7429  2.3346
  404MOL0     H54516   9.543   7.394  10.838 -0.4553 -0.2573 -2.1127
  404MOL0     H54517   9.576   7.539  10.940 -0.3637 -0.2363  0.7537
  404MOL0     H54518   9.385   7.535  10.755  0.1792  0.0294  0.2675
  404MOL0     H54519   9.509   7.545  10.630 -0.4201  2.3769 -1.5327
  404MOL0     H54520   9.603   7.750  10.704 -0.0340  1.3384 -0.7893
  404MOL0     H54521   9.503   7.748  10.848 -0.3189 -1.7226 -0.7265
  404MOL0     H54522  10.341   7.042  10.847  3.5116 -0.3591 -2.5866
  404MOL0     H54523  10.534   6.972  10.940 -2.0311  0.5415 -2.4569
  404MOL0     H54524  10.894   6.789  11.195 -1.6970  1.4853  2.1159
  404MOL0     H54525  11.121   6.747  11.281  1.1501 -0.4175 -1.5762
  404MOL0     H54526  10.883   7.699  10.806  1.9800  0.0706  1.7815
  404MOL0     H54527  10.670   7.790  10.819  1.8033  0.7837 -0.2563
  404MOL0     H54528  10.286   7.780  11.171 -0.8712  2.3688  0.6543
  404MOL0     H54529  10.056   7.833  11.208  0.6848  1.0217  0.2824
  404MOL0     H54530   9.849   7.866  11.217 -0.5614  2.3175  1.7546
  404MOL0     H54531   9.841   8.013  11.101  0.9681 -0.9742  0.9556
  404MOL0     H54532   9.634   7.939  11.245 -0.3846 -1.0350  1.1399
  404MOL0     H54533   9.625   7.806  11.129 -1.7036  0.2348  0.0361
  404MOL0     H54534   9.634   7.966  10.936 -2.8115  0.2312 -0.8161
  404MOL0     H54535   9.649   8.100  11.048  1.1512  0.2737 -0.5599
  404MOL0     H54536   9.426   7.900  11.071 -1.6110  0.2687  0.1819
  404MOL0     H54537   9.414   8.023  10.948  3.0959  1.3274 -0.5461
  404MOL0     H54538   9.325   8.239  11.309  2.9884 -0.9502  1.2445
  404MOL0     H54539   9.956   7.788  10.788 -1.0008  0.7720  1.5973
  404MOL0     H54540  10.203   7.746  10.748 -0.9250 -2.2560 -0.4035
  405MOL0     O54541   0.311   2.455   1.302  0.0948  0.1990  0.1577
  405MOL0     C54542   0.371   2.441   1.411  0.3440  0.1305 -0.4513
  405MOL0     O54543   0.310   2.431   1.532  0.4324 -0.3004  0.1030
  405MOL0     C54544   0.175   2.425   1.555 -0.2961  0.8250  0.1017
  405MOL0     C54545   0.093   2.521   1.494 -0.4727  0.0417 -0.0930
  405MOL0     C54546  -0.046   2.508   1.514  0.4028 -0.0473 -0.3249
  405MOL0     C54547  -0.101   2.407   1.598 -1.1471  0.5139 -0.4144
  405MOL0     O54548  -0.233   2.396   1.626  0.2727 -0.0801  0.0596
  405MOL0     C54549  -0.323   2.364   1.522  0.6614  0.9125  0.8782
  405MOL0     C54550  -0.467   2.427   1.536 -0.1212  0.3325 -0.6281
  405MOL0     C54551  -0.536   2.407   1.667 -0.4048  0.0973  1.1151
  405MOL0     C54552  -0.660   2.496   1.665  0.0612 -0.8880  0.5773
  405MOL0     C54553  -0.761   2.458   1.771 -0.1888 -0.0072 -0.7653
  405MOL0     C54554  -0.900   2.531   1.762  0.3965 -0.6651 -0.3182
  405MOL0     C54555  -0.904   2.677   1.831 -0.8759  0.3670 -0.6537
  405MOL0     C54556  -1.045   2.727   1.859  0.5457 -0.3227 -0.1358
  405MOL0     N54557  -1.132   2.714   1.738 -0.0037 -0.2838 -0.6119
  405MOL0     C54558  -1.101   2.792   1.632 -0.2520  0.6414 -0.8588
  405MOL0     C54559  -1.206   2.765   1.545 -0.6918 -1.3618 -0.1687
  405MOL0     C54560  -1.222   2.847   1.412 -0.5362  0.1622  0.4954
  405MOL0     C54561  -1.293   2.758   1.307 -0.6117 -0.0455 -0.8779
  405MOL0     C54562  -1.331   2.830   1.173  0.1475 -0.0439 -0.2871
  405MOL0     C54563  -1.379   2.980   1.178 -0.2571  0.3235  0.2370
  405MOL0     O54564  -1.414   3.021   1.046 -0.0967 -0.3276 -0.9244
  405MOL0     C54565  -1.532   2.979   0.995  0.1055 -0.5763 -0.3187
  405MOL0     C54566  -1.546   2.994   0.858 -0.3103 -0.5092 -0.1378
  405MOL0     C54567  -1.663   2.943   0.799  0.1563  0.2956  0.2512
  405MOL0     C54568  -1.676   2.954   0.650  0.5561  0.1567  0.5488
  405MOL0     C54569  -1.762   2.857   0.879  0.8297 -0.5837  0.8473
  405MOL0     C54570  -1.879   2.784   0.816 -0.8101  1.3334 -0.8355
  405MOL0     O54571  -1.998   2.788   0.891 -0.3207 -0.3553 -0.5797
  405MOL0     C54572  -2.090   2.693   0.851 -0.4309 -0.0553  0.4292
  405MOL0     C54573  -2.131   2.592   0.936 -0.2607  0.2111  0.0166
  405MOL0     C54574  -2.211   2.484   0.897  0.0678  0.4407  1.5167
  405MOL0     C54575  -2.284   2.496   0.771 -0.8066  0.0573 -0.6963
  405MOL0     O54576  -2.371   2.400   0.728  0.4738  0.0113  0.1584
  405MOL0     C54577  -2.414   2.301   0.829  0.0893  0.8187  0.5075
  405MOL0     C54578  -2.530   2.216   0.777 -0.0979 -0.6661  1.4388
  405MOL0     C54579  -2.596   2.128   0.887 -0.1795  0.1601  0.5595
  405MOL0     C54580  -2.689   2.224   0.960 -0.4449 -0.2529 -0.0701
  405MOL0     C54581  -2.734   2.184   1.094  0.4890  0.8664  0.3111
  405MOL0     C54582  -2.625   2.180   1.196 -0.6212 -0.4935 -0.0787
  405MOL0     C54583  -2.658   2.264   1.320 -0.8881  0.6990 -0.2603
  405MOL0     C54584  -2.560   2.263   1.439  0.1356 -0.7881  0.0666
  405MOL0    Cl54585  -2.446   2.399   1.412 -0.0114  0.2946  0.1520
  405MOL0     C54586  -2.259   2.608   0.698  0.0206 -0.5033 -0.0155
  405MOL0     C54587  -2.153   2.700   0.733  0.4401  0.5145  0.8638
  405MOL0     O54588  -1.853   2.721   0.713 -0.5919  0.5276 -0.3286
  405MOL0     C54589  -1.743   2.843   1.019 -0.2570  0.7178  0.2964
  405MOL0     C54590  -1.631   2.905   1.069  0.3350 -0.6068  0.4807
  405MOL0     N54591  -1.300   2.685   1.603 -0.4762  0.4421  0.1422
  405MOL0     N54592  -1.255   2.656   1.718 -1.1453  0.0420  0.2733
  405MOL0     C54593  -0.016   2.315   1.667 -0.8591 -0.1027  0.1000
  405MOL0     C54594   0.125   2.328   1.639 -0.0977 -0.1059 -0.2945
  405MOL0     C54595   0.514   2.444   1.408 -0.5675  0.7717  0.5921
  405MOL0     C54596   0.584   2.448   1.532 -0.6399  0.4627 -0.3396
  405MOL0     C54597   0.727   2.432   1.531  0.1935 -0.5044  0.1491
  405MOL0     C54598   0.801   2.428   1.414 -0.2348  0.9628 -0.0170
  405MOL0     O54599   0.938   2.425   1.420 -0.1774 -0.3884  0.4079
  405MOL0     C54600   1.033   2.412   1.306  0.6163  0.6525 -1.1449
  405MOL0     C54601   1.077   2.264   1.294  0.1701  0.3135 -0.0887
  405MOL0     C54602   0.963   2.163   1.265  0.1239 -0.8660 -0.1815
  405MOL0     C54603   1.006   2.023   1.256  0.6950  0.1489 -0.0462
  405MOL0     C54604   1.066   1.991   1.129 -0.2218 -0.2529 -0.4711
  405MOL0     C54605   1.122   1.969   1.023  0.2564  0.1186 -0.2516
  405MOL0     C54606   0.730   2.427   1.287 -1.1057  0.5440 -0.0638
  405MOL0     C54607   0.588   2.430   1.288 -0.2091 -0.1121  0.4800
  405MOL0     H54608   0.129   2.598   1.426  1.4146  1.6621  2.5307
  405MOL0     H54609  -0.119   2.573   1.469  0.0271  0.0354  0.3995
  405MOL0     H54610  -0.284   2.378   1.421  1.5041 -4.2017  0.2122
  405MOL0     H54611  -0.324   2.254   1.519  0.7488  0.7654  3.5156
  405MOL0     H54612  -0.448   2.534   1.529  2.3837  0.2939  3.1286
  405MOL0     H54613  -0.539   2.397   1.459  0.0963  2.1135 -1.5736
  405MOL0     H54614  -0.568   2.303   1.659 -2.5278  0.8149 -0.8318
  405MOL0     H54615  -0.470   2.439   1.748  1.4305  1.9416 -0.9929
  405MOL0     H54616  -0.624   2.599   1.675  0.0942 -0.6382 -1.6161
  405MOL0     H54617  -0.711   2.492   1.569  0.5216  1.5198  0.1536
  405MOL0     H54618  -0.786   2.354   1.749  1.1871 -0.4070 -0.5304
  405MOL0     H54619  -0.720   2.484   1.869  3.0831 -1.3562 -1.6389
  405MOL0     H54620  -0.929   2.545   1.657  0.0348 -1.7644 -0.3766
  405MOL0     H54621  -0.976   2.468   1.808  1.7334 -1.5010  0.7979
  405MOL0     H54622  -0.861   2.663   1.930 -1.2855 -1.2690 -0.6819
  405MOL0     H54623  -0.834   2.740   1.774 -0.3456 -0.6573 -1.1561
  405MOL0     H54624  -1.039   2.832   1.890  1.3192 -0.0146 -1.2602
  405MOL0     H54625  -1.088   2.668   1.940  0.1745  1.5434  1.0895
  405MOL0     H54626  -1.010   2.850   1.625 -0.4703  1.4484  1.6926
  405MOL0     H54627  -1.283   2.935   1.432 -2.0880 -0.8601  0.4316
  405MOL0     H54628  -1.120   2.867   1.379  0.8112 -4.4210  1.1900
  405MOL0     H54629  -1.385   2.707   1.339 -0.6115 -0.1364 -1.0249
  405MOL0     H54630  -1.223   2.676   1.291 -1.0372 -0.8758  1.1407
  405MOL0     H54631  -1.402   2.769   1.117 -1.8648  0.5852  1.4396
  405MOL0     H54632  -1.245   2.830   1.105 -1.4995  0.8677 -2.4937
  405MOL0     H54633  -1.299   3.046   1.213  0.0130  0.6213 -0.8913
  405MOL0     H54634  -1.459   2.972   1.252 -0.2959 -4.4381  0.0372
  405MOL0     H54635  -1.474   3.045   0.795 -0.8898  0.9698  0.3532
  405MOL0     H54636  -1.635   2.870   0.594  0.9228  0.8288 -0.2075
  405MOL0     H54637  -1.781   2.958   0.620 -0.0801 -1.1032  2.4105
  405MOL0     H54638  -1.626   3.047   0.623 -0.5555  0.7752  0.5805
  405MOL0     H54639  -2.072   2.574   1.025 -0.6441 -1.9907 -0.1031
  405MOL0     H54640  -2.225   2.397   0.960 -1.2789 -0.2605  0.3063
  405MOL0     H54641  -2.330   2.233   0.844  0.1099  0.5747 -0.6047
  405MOL0     H54642  -2.435   2.354   0.922  2.6777  2.0944  0.4849
  405MOL0     H54643  -2.617   2.270   0.738 -0.2582  0.3744  3.1577
  405MOL0     H54644  -2.492   2.147   0.700 -1.3880 -0.1329  0.2876
  405MOL0     H54645  -2.516   2.097   0.956 -0.3134  0.0959  0.6868
  405MOL0     H54646  -2.646   2.045   0.838 -2.2701  1.3597  0.5593
  405MOL0     H54647  -2.642   2.322   0.973 -2.3365  0.4730  1.8393
  405MOL0     H54648  -2.783   2.246   0.908 -1.4861 -0.9004  1.4839
  405MOL0     H54649  -2.787   2.089   1.082  1.4370  0.6483 -4.1242
  405MOL0     H54650  -2.806   2.262   1.122  0.8552  1.6892 -0.9292
  405MOL0     H54651  -2.596   2.081   1.233 -1.4005 -0.1834  1.3843
  405MOL0     H54652  -2.535   2.228   1.156  1.7177  0.3892  5.4508
  405MOL0     H54653  -2.752   2.224   1.361  0.6014  0.4640  3.3624
  405MOL0     H54654  -2.671   2.368   1.288 -0.4240 -0.2047 -3.6962
  405MOL0     H54655  -2.507   2.168   1.442  1.2288 -0.3590 -2.4030
  405MOL0     H54656  -2.613   2.279   1.533  0.5946 -1.5172  0.4471
  405MOL0     H54657  -2.314   2.626   0.605  2.6706  0.7491 -1.4448
  405MOL0     H54658  -2.136   2.776   0.657  0.7646  2.6065  2.9183
  405MOL0     H54659  -1.805   2.782   1.083  3.0337 -0.9133  2.1730
  405MOL0     H54660  -1.627   2.890   1.177 -0.0725  2.0954  0.9407
  405MOL0     H54661  -0.055   2.241   1.735 -0.0755 -0.3657  0.2762
  405MOL0     H54662   0.190   2.264   1.697 -1.4441 -1.2839 -0.0095
  405MOL0     H54663   0.528   2.459   1.624  0.8043 -0.2082  0.6526
  405MOL0     H54664   0.768   2.427   1.631 -1.3791  0.0201  0.8423
  405MOL0     H54665   0.973   2.445   1.220 -0.3673 -0.6637 -1.0025
  405MOL0     H54666   1.116   2.480   1.327 -0.8932  1.4295  3.2000
  405MOL0     H54667   1.106   2.237   1.396 -0.7551 -2.1971 -0.4086
  405MOL0     H54668   1.148   2.253   1.211  0.5787 -1.9172  0.4798
  405MOL0     H54669   0.913   2.184   1.170  0.3549  4.6759  0.6372
  405MOL0     H54670   0.885   2.173   1.341 -2.7166 -0.9401 -2.8944
  405MOL0     H54671   0.915   1.965   1.272 -0.1450  0.2461 -3.6626
  405MOL0     H54672   1.068   2.008   1.345  0.2033  0.4293  0.3501
  405MOL0     H54673   1.169   1.940   0.931  0.0270 -1.1085 -0.0030
  405MOL0     H54674   0.769   2.430   1.186 -1.0864  0.2456 -0.0646
  405MOL0     H54675   0.542   2.408   1.192  0.8899  0.7358 -0.2711
  406MOL0     O54676   1.037   7.387   7.473 -0.1076  0.0599 -0.2925
  406MOL0     C54677   1.112   7.483   7.476 -0.3404  0.1249  0.2137
  406MOL0     O54678   1.080   7.607   7.535  0.6102 -1.0279  0.0400
  406MOL0     C54679   0.948   7.640   7.559  0.4040  1.3047  0.7109
  406MOL0     C54680   0.904   7.678   7.688  0.2604 -0.4870  0.5861
  406MOL0     C54681   0.770   7.708   7.714 -0.2176  0.1843  0.0380
  406MOL0     C54682   0.675   7.707   7.612  0.4335 -0.9603 -0.2717
  406MOL0     O54683   0.545   7.737   7.657  0.5359  0.0215 -0.5719
  406MOL0     C54684   0.435   7.755   7.565  0.0779  0.1762  0.7211
  406MOL0     C54685   0.322   7.809   7.645 -0.7607 -0.3368  0.8333
  406MOL0     C54686   0.190   7.811   7.566  0.3727 -0.0534  0.0818
  406MOL0     C54687   0.100   7.925   7.614  0.7012 -0.8504  0.3014
  406MOL0     C54688  -0.030   7.937   7.539  0.4379 -0.0555  0.7105
  406MOL0     C54689  -0.130   8.020   7.614 -0.0435 -0.0348 -0.3516
  406MOL0     C54690  -0.259   8.018   7.538 -0.0008  0.0744 -0.1688
  406MOL0     C54691  -0.351   8.134   7.591 -0.1863  0.7936 -0.0576
  406MOL0     N54692  -0.495   8.133   7.548  0.2689 -0.2570  0.4300
  406MOL0     C54693  -0.576   8.024   7.551  0.4162  0.1825 -0.4145
  406MOL0     C54694  -0.698   8.074   7.530 -0.0563  0.2500  0.8730
  406MOL0     C54695  -0.829   8.002   7.551  0.0029 -0.1195  1.0404
  406MOL0     C54696  -0.857   7.982   7.705  0.5700 -0.3387 -1.1822
  406MOL0     C54697  -0.819   8.095   7.793 -0.0009  0.4498 -0.6921
  406MOL0     C54698  -0.898   8.217   7.782 -0.0282 -0.2016 -0.2507
  406MOL0     O54699  -1.034   8.199   7.807  0.9847  0.7167  0.2455
  406MOL0     C54700  -1.124   8.286   7.748 -0.2123  0.6542 -0.0963
  406MOL0     C54701  -1.095   8.419   7.706  0.6004 -0.2245  0.7797
  406MOL0     C54702  -1.194   8.496   7.644 -0.2898  0.0840  1.3098
  406MOL0     C54703  -1.154   8.642   7.629 -0.4954 -0.3738 -1.0896
  406MOL0     C54704  -1.318   8.442   7.610 -0.2967  0.1226  0.2765
  406MOL0     C54705  -1.414   8.510   7.518  0.5928  1.8211 -0.1074
  406MOL0     O54706  -1.407   8.640   7.492  0.2916 -0.7842 -0.2847
  406MOL0     C54707  -1.514   8.711   7.426 -0.9364 -0.1965  0.7140
  406MOL0     C54708  -1.649   8.678   7.422  0.5236 -0.7930 -0.4508
  406MOL0     C54709  -1.746   8.747   7.346  0.3520  0.5639 -1.1268
  406MOL0     C54710  -1.710   8.858   7.271 -0.3089  0.1126 -0.3202
  406MOL0     O54711  -1.798   8.943   7.205 -0.4904  0.4213 -1.0375
  406MOL0     C54712  -1.933   8.951   7.253 -0.6152  0.2584  0.6991
  406MOL0     C54713  -2.035   8.928   7.139  0.0637 -0.5959 -0.8308
  406MOL0     C54714  -2.170   8.975   7.176  0.6625 -0.4176  0.0558
  406MOL0     C54715  -2.253   9.013   7.058 -0.4114  0.0018  0.7267
  406MOL0     C54716  -2.404   9.035   7.090 -0.8550 -0.2978  0.0024
  406MOL0     C54717  -2.489   9.061   6.972  0.3895  0.8138  0.3898
  406MOL0     C54718  -2.629   9.095   7.011  0.0877  0.6998  0.5822
  406MOL0     C54719  -2.733   9.080   6.891 -0.1359 -0.0482 -0.1861
  406MOL0    Cl54720  -2.744   8.904   6.852 -0.1710 -0.1714 -0.3307
  406MOL0     C54721  -1.582   8.890   7.261 -0.5083 -0.4184 -1.1549
  406MOL0     C54722  -1.489   8.816   7.345 -0.1428 -0.8089  0.1710
  406MOL0     O54723  -1.498   8.435   7.468  0.7107  0.4460 -0.0767
  406MOL0     C54724  -1.345   8.308   7.646 -0.7425 -0.2898 -0.0042
  406MOL0     C54725  -1.250   8.232   7.715  0.4368 -0.3409 -0.5216
  406MOL0     N54726  -0.681   8.208   7.492  0.2922 -0.4120 -0.3632
  406MOL0     N54727  -0.563   8.245   7.502  0.4733 -0.2281 -0.6008
  406MOL0     C54728   0.716   7.677   7.483 -0.9491  0.3046 -0.9776
  406MOL0     C54729   0.853   7.647   7.454 -0.0517  0.1246 -0.4640
  406MOL0     C54730   1.255   7.466   7.420  0.3968 -0.2073 -0.0952
  406MOL0     C54731   1.344   7.578   7.403  0.4771 -0.1204  0.7329
  406MOL0     C54732   1.477   7.554   7.354  0.5256  0.3049  1.0881
  406MOL0     C54733   1.515   7.430   7.297 -1.0425  0.2231  0.5399
  406MOL0     O54734   1.653   7.415   7.257 -0.5296  0.3090  0.4790
  406MOL0     C54735   1.706   7.289   7.214  0.3756 -0.1930 -0.2673
  406MOL0     C54736   1.862   7.291   7.216 -0.2107  0.3148 -0.7971
  406MOL0     C54737   1.909   7.397   7.102  0.2494 -0.1538  0.0147
  406MOL0     C54738   2.056   7.390   7.078 -0.1253  0.3025  0.3721
  406MOL0     C54739   2.143   7.453   7.179  0.1182  0.0007 -0.3606
  406MOL0     C54740   2.226   7.508   7.249 -0.5764 -0.6724  0.1834
  406MOL0     C54741   1.425   7.324   7.308  0.3951  0.5748  1.1188
  406MOL0     C54742   1.309   7.341   7.378 -0.1848 -0.9036 -0.2061
  406MOL0     H54743   0.967   7.681   7.777 -0.6172 -1.7492  1.2843
  406MOL0     H54744   0.739   7.738   7.814 -2.1709  0.7893 -0.6887
  406MOL0     H54745   0.461   7.826   7.485  0.1460 -1.4766 -0.7957
  406MOL0     H54746   0.407   7.657   7.525 -2.1838  0.5484  1.2687
  406MOL0     H54747   0.290   7.734   7.718 -0.8694 -1.7393 -0.5846
  406MOL0     H54748   0.362   7.906   7.676 -0.8992 -0.3989  1.2101
  406MOL0     H54749   0.209   7.815   7.458  2.0101 -2.1640  0.2441
  406MOL0     H54750   0.140   7.715   7.581 -0.3425 -0.2432 -2.9419
  406MOL0     H54751   0.076   7.897   7.717  2.0143 -0.1693  0.8243
  406MOL0     H54752   0.145   8.025   7.604 -1.5858  0.4884  2.1070
  406MOL0     H54753  -0.028   7.975   7.436 -0.6314  0.7939  0.9833
  406MOL0     H54754  -0.076   7.838   7.535  0.2424  0.0534 -0.0007
  406MOL0     H54755  -0.141   7.998   7.721 -1.9838  2.6002  0.1036
  406MOL0     H54756  -0.091   8.122   7.620 -0.3953  0.2756 -2.6859
  406MOL0     H54757  -0.230   8.028   7.433 -0.3326 -1.3874 -0.4327
  406MOL0     H54758  -0.302   7.918   7.553  1.3141 -0.2146  2.2170
  406MOL0     H54759  -0.301   8.228   7.567 -1.1589  1.2111 -0.5419
  406MOL0     H54760  -0.354   8.120   7.700  0.7359 -0.2733 -0.1627
  406MOL0     H54761  -0.554   7.920   7.573 -0.8307 -0.4532 -1.9920
  406MOL0     H54762  -0.911   8.063   7.510  2.1515  3.0548  1.0709
  406MOL0     H54763  -0.828   7.899   7.517 -0.3123 -0.4131  1.8923
  406MOL0     H54764  -0.810   7.888   7.734 -1.9147 -0.8271  1.7164
  406MOL0     H54765  -0.964   7.972   7.725  1.1689  0.7594  3.7211
  406MOL0     H54766  -0.713   8.120   7.781  0.5752 -1.6304 -0.3594
  406MOL0     H54767  -0.830   8.048   7.891  0.0068 -1.6612 -1.6651
  406MOL0     H54768  -0.886   8.267   7.685 -0.8378  3.7306  1.4903
  406MOL0     H54769  -0.858   8.299   7.841  1.2654  1.1240 -2.7891
  406MOL0     H54770  -1.001   8.463   7.739  0.8541  0.5846 -0.9372
  406MOL0     H54771  -1.055   8.665   7.669 -1.2473 -1.5891  1.7045
  406MOL0     H54772  -1.145   8.673   7.525  2.2805  1.5247 -0.4064
  406MOL0     H54773  -1.224   8.701   7.690 -1.5312  0.8713 -3.3388
  406MOL0     H54774  -1.680   8.604   7.495  1.1987 -0.0315  0.6315
  406MOL0     H54775  -1.853   8.725   7.351 -0.4028  3.9881  1.0161
  406MOL0     H54776  -1.942   8.897   7.347  2.8281  0.5598  1.3345
  406MOL0     H54777  -1.935   9.055   7.287  2.1519 -0.3406  3.0538
  406MOL0     H54778  -2.000   8.981   7.049  1.0279  0.0598 -0.0878
  406MOL0     H54779  -2.049   8.822   7.115 -2.9199 -0.1638 -1.3390
  406MOL0     H54780  -2.163   9.072   7.226  3.1625 -0.2178 -0.5369
  406MOL0     H54781  -2.218   8.898   7.238  3.0066 -0.0414  2.5391
  406MOL0     H54782  -2.225   9.105   7.005 -2.1044  0.9814  1.4241
  406MOL0     H54783  -2.244   8.938   6.979 -1.2148  2.1667 -1.5621
  406MOL0     H54784  -2.406   9.126   7.151 -0.6488  0.4892 -1.1341
  406MOL0     H54785  -2.445   8.960   7.158 -0.0840  0.4283  1.3100
  406MOL0     H54786  -2.436   9.143   6.922 -0.0989  1.7623  1.3785
  406MOL0     H54787  -2.495   8.979   6.900  0.0065  0.8889  0.3364
  406MOL0     H54788  -2.635   9.202   7.032 -0.4604  0.4079  2.0596
  406MOL0     H54789  -2.648   9.024   7.092  2.3422  0.5453  1.0557
  406MOL0     H54790  -2.689   9.120   6.799  1.6189 -2.6212 -0.5543
  406MOL0     H54791  -2.834   9.121   6.899  0.5197  2.4575 -2.8771
  406MOL0     H54792  -1.554   8.976   7.201  2.5489 -0.5856 -0.1432
  406MOL0     H54793  -1.385   8.846   7.347 -0.5435  0.7817 -0.7679
  406MOL0     H54794  -1.445   8.274   7.618 -1.2325  0.1204  1.1714
  406MOL0     H54795  -1.276   8.127   7.723 -2.1427  0.1237 -1.8027
  406MOL0     H54796   0.644   7.685   7.402 -1.3293 -0.9577 -0.7946
  406MOL0     H54797   0.897   7.620   7.359 -0.9974 -1.7730 -0.4073
  406MOL0     H54798   1.326   7.684   7.416  0.8041  0.0534 -0.1534
  406MOL0     H54799   1.548   7.636   7.351 -1.9761  2.5822  0.2594
  406MOL0     H54800   1.689   7.211   7.288 -0.4018 -1.2795 -1.5411
  406MOL0     H54801   1.658   7.261   7.119 -0.2283  2.5529 -0.8738
  406MOL0     H54802   1.896   7.189   7.197  1.7749  0.4984  1.2832
  406MOL0     H54803   1.890   7.311   7.320  1.0842 -1.3846 -0.7846
  406MOL0     H54804   1.882   7.494   7.145  0.6963 -0.4948  1.0911
  406MOL0     H54805   1.851   7.371   7.013  0.4638 -0.3528 -0.0688
  406MOL0     H54806   2.074   7.447   6.987  0.5724  2.4422  1.7626
  406MOL0     H54807   2.095   7.288   7.069 -0.6211 -0.1815  2.8896
  406MOL0     H54808   2.297   7.540   7.322 -0.8314  0.3852 -0.0181
  406MOL0     H54809   1.461   7.222   7.294 -1.4268 -0.4546  3.2222
  406MOL0     H54810   1.246   7.255   7.398  0.8221 -1.3244  1.3503
  407MOL0     O54811   0.207   5.480   9.291  0.4995  0.2340  0.1147
  407MOL0     C54812   0.274   5.547   9.214 -0.9398  0.1399  0.5288
  407MOL0     O54813   0.228   5.642   9.128  1.2204 -0.6398 -0.1675
  407MOL0     C54814   0.097   5.660   9.105 -0.4573 -0.3783 -0.1983
  407MOL0     C54815   0.046   5.624   8.980  0.8485  0.0531 -0.4427
  407MOL0     C54816  -0.094   5.631   8.953  0.7627  0.5293  0.7116
  407MOL0     C54817  -0.177   5.670   9.058  0.4444 -0.4404 -0.2390
  407MOL0     O54818  -0.312   5.672   9.039 -0.1682  0.4861  0.3958
  407MOL0     C54819  -0.364   5.543   9.009  0.0958  0.6132  0.4072
  407MOL0     C54820  -0.520   5.542   8.982 -0.1676 -0.5485 -0.4650
  407MOL0     C54821  -0.602   5.549   9.116 -0.9073 -0.7418  0.3084
  407MOL0     C54822  -0.748   5.566   9.093 -0.5752  1.0016 -0.1032
  407MOL0     C54823  -0.824   5.560   9.229  0.5268  0.1470 -0.2572
  407MOL0     C54824  -0.981   5.568   9.210 -0.6707 -0.1171  0.6270
  407MOL0     C54825  -1.050   5.590   9.346  0.6414 -0.4755  0.0082
  407MOL0     C54826  -1.200   5.628   9.344  0.3102 -0.8963  0.9464
  407MOL0     N54827  -1.266   5.600   9.470 -1.0655  1.0197 -0.2001
  407MOL0     C54828  -1.250   5.675   9.583  0.1698  0.6179 -0.1007
  407MOL0     C54829  -1.321   5.611   9.684  0.1319 -0.9449  0.9560
  407MOL0     C54830  -1.307   5.652   9.832 -0.3012  0.5033  0.3003
  407MOL0     C54831  -1.344   5.790   9.865  0.8152  0.3664 -1.5148
  407MOL0     C54832  -1.354   5.810  10.017  0.3714 -0.1040  0.0059
  407MOL0     C54833  -1.473   5.910  10.038 -1.0875 -0.2672  0.2861
  407MOL0     O54834  -1.449   6.031   9.962 -0.4151  0.1245 -0.8911
  407MOL0     C54835  -1.532   6.139   9.969  1.1215 -1.1015 -1.1056
  407MOL0     C54836  -1.486   6.264   9.927 -0.9337 -0.2104 -0.2683
  407MOL0     C54837  -1.555   6.386   9.930  1.1201  1.1787 -0.0277
  407MOL0     C54838  -1.495   6.512   9.877  0.4142 -0.7032 -0.1911
  407MOL0     C54839  -1.682   6.383   9.992 -0.1184 -0.0820  0.4379
  407MOL0     C54840  -1.769   6.506   9.997 -0.5633  0.7735 -0.7780
  407MOL0     O54841  -1.850   6.503  10.100 -0.2364  0.0944 -0.4814
  407MOL0     C54842  -1.960   6.584  10.079 -0.1410 -0.0528 -0.0273
  407MOL0     C54843  -1.956   6.707  10.131  0.1426 -0.1118  0.8678
  407MOL0     C54844  -2.074   6.786  10.125 -0.4066 -1.5791 -1.0216
  407MOL0     C54845  -2.199   6.735  10.091  0.4106  0.7369 -0.6203
  407MOL0     O54846  -2.315   6.800  10.092  0.2857 -0.1150  0.3422
  407MOL0     C54847  -2.307   6.938  10.118  0.5464 -0.0736  0.0653
  407MOL0     C54848  -2.454   6.990  10.097 -1.0687  0.5265 -0.8729
  407MOL0     C54849  -2.499   6.982   9.945 -0.2290  0.0083 -0.0589
  407MOL0     C54850  -2.626   7.047   9.918 -0.2640  0.5479  0.1996
  407MOL0     C54851  -2.714   6.990   9.805  0.7856  0.1826  0.7376
  407MOL0     C54852  -2.848   7.070   9.795  0.1661 -0.5066  0.0288
  407MOL0     C54853  -2.969   6.984   9.781  0.1250  0.3877 -0.3625
  407MOL0     C54854  -3.088   7.034   9.704  0.9111  0.5251 -0.2607
  407MOL0    Cl54855  -3.154   7.190   9.777  0.1719 -0.2615 -0.0394
  407MOL0     C54856  -2.203   6.599  10.050 -0.8899 -0.0645 -0.7385
  407MOL0     C54857  -2.080   6.525  10.038  0.6696  0.4389 -0.8332
  407MOL0     O54858  -1.771   6.588   9.904 -0.7110 -0.7991 -0.6553
  407MOL0     C54859  -1.716   6.264  10.054  0.0801  0.3680 -0.2800
  407MOL0     C54860  -1.649   6.142  10.038  0.0212 -0.3897 -0.6139
  407MOL0     N54861  -1.405   5.515   9.624 -0.7141 -0.6920  0.2181
  407MOL0     N54862  -1.368   5.509   9.499 -0.0523  0.1900 -0.4913
  407MOL0     C54863  -0.126   5.712   9.185 -0.2850 -0.0413  0.6031
  407MOL0     C54864   0.012   5.709   9.204  0.5410  0.0532  0.7540
  407MOL0     C54865   0.422   5.534   9.224 -0.2554 -1.3682 -0.3699
  407MOL0     C54866   0.506   5.654   9.195 -0.0149  1.0317  0.7267
  407MOL0     C54867   0.645   5.646   9.190 -0.6623 -0.3200 -1.0776
  407MOL0     C54868   0.712   5.532   9.239 -0.2588 -0.3978  0.3378
  407MOL0     O54869   0.845   5.504   9.244 -0.4923 -0.2182  0.2196
  407MOL0     C54870   0.942   5.596   9.195  0.3005  0.3607  1.1237
  407MOL0     C54871   1.090   5.562   9.227 -0.4377 -0.4097  0.4299
  407MOL0     C54872   1.165   5.682   9.163 -0.4913  0.2393 -0.4924
  407MOL0     C54873   1.320   5.642   9.197  0.1482  0.2341 -0.1890
  407MOL0     C54874   1.363   5.551   9.092  0.3843  0.4744 -0.1449
  407MOL0     C54875   1.397   5.466   9.006  0.1489 -0.6220  0.0721
  407MOL0     C54876   0.633   5.431   9.286  1.0916 -0.1640  0.2700
  407MOL0     C54877   0.489   5.428   9.280 -0.3337 -0.3225 -0.4269
  407MOL0     H54878   0.113   5.600   8.897  0.4219  2.4578 -1.5746
  407MOL0     H54879  -0.124   5.601   8.853 -0.8705  1.5393  0.8557
  407MOL0     H54880  -0.303   5.510   8.924 -0.1766  1.1045  0.0148
  407MOL0     H54881  -0.350   5.482   9.099 -1.4827 -0.6476 -0.1566
  407MOL0     H54882  -0.529   5.635   8.925 -1.4614 -1.8912 -2.5975
  407MOL0     H54883  -0.553   5.460   8.918 -2.2715 -0.7730  0.8105
  407MOL0     H54884  -0.576   5.450   9.154  0.1914 -1.5014 -2.2175
  407MOL0     H54885  -0.562   5.622   9.186 -2.8031  1.7465 -1.0521
  407MOL0     H54886  -0.776   5.660   9.045 -0.1125  0.5427 -1.2998
  407MOL0     H54887  -0.781   5.493   9.018 -1.2020 -0.7268  1.7544
  407MOL0     H54888  -0.804   5.466   9.283 -0.6245  0.8123  1.4216
  407MOL0     H54889  -0.791   5.644   9.291  0.6411 -1.0020  1.3017
  407MOL0     H54890  -1.011   5.653   9.148 -1.0421 -2.2148 -2.2368
  407MOL0     H54891  -1.010   5.475   9.161 -1.0541 -0.3185  1.2212
  407MOL0     H54892  -1.049   5.500   9.408 -0.6635 -1.3786 -1.2076
  407MOL0     H54893  -1.001   5.669   9.403 -1.7499 -1.2726  3.5039
  407MOL0     H54894  -1.249   5.583   9.257  1.0732  0.5872 -0.3309
  407MOL0     H54895  -1.207   5.734   9.316  1.6873 -1.6845 -3.1894
  407MOL0     H54896  -1.184   5.760   9.596  1.3827 -0.3475  0.2287
  407MOL0     H54897  -1.376   5.585   9.884 -0.1412  0.3473  0.3153
  407MOL0     H54898  -1.207   5.628   9.872  0.8637 -1.4226 -3.2767
  407MOL0     H54899  -1.436   5.819   9.814 -0.9134  3.2906  2.7169
  407MOL0     H54900  -1.266   5.859   9.832  0.7256  1.2359  0.0060
  407MOL0     H54901  -1.257   5.851  10.045  1.1686 -0.4637 -2.0325
  407MOL0     H54902  -1.356   5.714  10.070 -1.3962 -2.5948 -4.0708
  407MOL0     H54903  -1.481   5.928  10.145  0.8618  1.2943  0.2250
  407MOL0     H54904  -1.566   5.864  10.002 -3.2243 -0.2431  5.0661
  407MOL0     H54905  -1.393   6.268   9.871 -0.8127 -0.0385 -0.0598
  407MOL0     H54906  -1.391   6.490   9.854  0.3757  0.9338 -2.2612
  407MOL0     H54907  -1.544   6.547   9.785 -0.3404 -1.5613 -0.1257
  407MOL0     H54908  -1.498   6.596   9.946 -0.8002 -1.5361  0.8225
  407MOL0     H54909  -1.863   6.747  10.170  0.2320 -1.4389  2.0986
  407MOL0     H54910  -2.071   6.882  10.175  1.5872 -2.4869  0.7760
  407MOL0     H54911  -2.282   6.943  10.224 -0.2013 -2.0321  0.3877
  407MOL0     H54912  -2.233   6.990  10.056 -1.7103  1.9790 -1.1020
  407MOL0     H54913  -2.515   6.912  10.143  1.9218 -0.8900  1.0089
  407MOL0     H54914  -2.470   7.091  10.136  2.4307  1.3034 -1.0968
  407MOL0     H54915  -2.507   6.876   9.917  1.7217 -0.9139  2.4613
  407MOL0     H54916  -2.424   7.028   9.880  2.9705 -0.4787  2.9258
  407MOL0     H54917  -2.680   7.031  10.012 -1.0270 -3.6630 -0.7483
  407MOL0     H54918  -2.610   7.153   9.898 -1.7357  0.9838  1.1654
  407MOL0     H54919  -2.742   6.890   9.840  1.7464 -0.3689 -0.0150
  407MOL0     H54920  -2.663   6.977   9.709  0.1454 -0.2776  0.4567
  407MOL0     H54921  -2.857   7.132   9.885 -3.5468 -0.8444  0.0716
  407MOL0     H54922  -2.848   7.144   9.714 -3.2668 -1.0129 -0.5918
  407MOL0     H54923  -2.999   6.960   9.883 -2.0837  2.6113 -0.3907
  407MOL0     H54924  -2.937   6.895   9.726 -0.8438 -0.7922  0.9148
  407MOL0     H54925  -3.172   6.963   9.706  0.9742  0.4636  0.6250
  407MOL0     H54926  -3.060   7.054   9.601  0.3348  0.2928 -0.4692
  407MOL0     H54927  -2.295   6.547  10.024 -1.3889 -0.3825  1.4410
  407MOL0     H54928  -2.087   6.424  10.000  0.0170  0.6322 -1.2460
  407MOL0     H54929  -1.809   6.252  10.109 -0.4568  0.0683 -1.2215
  407MOL0     H54930  -1.683   6.052  10.089  0.4655  0.2785  0.9218
  407MOL0     H54931  -0.198   5.740   9.261 -1.8390  1.3446 -1.2683
  407MOL0     H54932   0.060   5.754   9.291  1.7580  1.7082 -0.7024
  407MOL0     H54933   0.462   5.741   9.147  0.3351  0.7440 -0.1350
  407MOL0     H54934   0.698   5.739   9.170  1.4107 -1.4352 -0.9811
  407MOL0     H54935   0.921   5.620   9.091 -1.0469  2.0313  1.7261
  407MOL0     H54936   0.912   5.693   9.236  0.6440  0.3792  1.3391
  407MOL0     H54937   1.107   5.467   9.175  0.4365 -0.5251  0.9076
  407MOL0     H54938   1.104   5.552   9.335  0.6392 -2.3757  0.1583
  407MOL0     H54939   1.135   5.773   9.217  0.4691  0.1162  0.2799
  407MOL0     H54940   1.148   5.693   9.056  2.2033 -1.2265 -1.1582
  407MOL0     H54941   1.335   5.603   9.298 -0.8079 -0.0460 -0.1521
  407MOL0     H54942   1.374   5.738   9.193 -1.6596  1.7060  4.4082
  407MOL0     H54943   1.431   5.377   8.955  3.3000 -0.9330  2.3804
  407MOL0     H54944   0.678   5.353   9.346  1.4956 -0.4758 -0.4221
  407MOL0     H54945   0.430   5.346   9.320 -1.5222 -0.4219 -2.2597
  408MOL0     O54946  10.668   9.504   5.692  0.2547  0.4267  0.5278
  408MOL0     C54947  10.704   9.386   5.674 -0.3345 -0.3444 -0.2559
  408MOL0     O54948  10.622   9.280   5.650  0.0073  0.2597 -0.1439
  408MOL0     C54949  10.487   9.294   5.657  0.2609  0.0899 -0.2249
  408MOL0     C54950  10.414   9.276   5.538  0.2459 -0.7743 -0.9091
  408MOL0     C54951  10.265   9.294   5.528 -0.9829  0.0549  0.6813
  408MOL0     C54952  10.195   9.322   5.643 -0.1481  0.1222  0.4603
  408MOL0     O54953  10.061   9.319   5.653  0.8472  0.5424 -0.2101
  408MOL0     C54954   9.988   9.261   5.548 -1.0469 -0.4246 -0.1330
  408MOL0     C54955   9.836   9.258   5.581  0.5692 -0.5789 -0.1370
  408MOL0     C54956   9.765   9.393   5.552 -0.0152 -0.5748 -0.3755
  408MOL0     C54957   9.610   9.390   5.562 -0.5399  0.1347  0.4862
  408MOL0     C54958   9.554   9.526   5.578 -0.5310 -0.2118  0.0855
  408MOL0     C54959   9.408   9.543   5.529  0.0674 -0.5270  0.5276
  408MOL0     C54960   9.298   9.473   5.615 -0.8682 -1.2668  0.2274
  408MOL0     C54961   9.264   9.331   5.562 -0.4237 -0.2626 -0.0828
  408MOL0     N54962   9.138   9.276   5.606  0.8140  0.6095  0.4947
  408MOL0     C54963   9.111   9.223   5.731  0.1442  0.3673 -0.1141
  408MOL0     C54964   8.974   9.193   5.727 -0.0618  0.8742  0.0897
  408MOL0     C54965   8.895   9.116   5.818 -0.7720 -0.0107 -0.5314
  408MOL0     C54966   8.768   9.187   5.865 -0.5954 -0.2391 -0.4484
  408MOL0     C54967   8.654   9.160   5.771 -0.1488  0.7318 -0.2004
  408MOL0     C54968   8.515   9.190   5.830  0.3016  0.3391  0.8940
  408MOL0     O54969   8.469   9.100   5.929  0.1466  0.6811 -0.2321
  408MOL0     C54970   8.335   9.082   5.941  0.0682 -0.5065 -0.1123
  408MOL0     C54971   8.256   9.191   5.912  0.0071 -0.1306 -0.3424
  408MOL0     C54972   8.111   9.182   5.919 -0.0446  0.1234 -0.4560
  408MOL0     C54973   8.033   9.302   5.892  0.0476  0.7228  0.6137
  408MOL0     C54974   8.054   9.057   5.957 -0.1942  0.7898 -0.6829
  408MOL0     C54975   7.920   9.036   5.982 -0.1701  0.2930  0.7182
  408MOL0     O54976   7.887   9.021   6.114  0.2897 -0.0386  0.5419
  408MOL0     C54977   7.755   8.973   6.138 -0.3271  0.1208 -0.0439
  408MOL0     C54978   7.645   9.056   6.122 -0.2788  0.7871 -0.3924
  408MOL0     C54979   7.514   9.019   6.162 -0.5808 -0.6316 -0.1360
  408MOL0     C54980   7.499   8.899   6.225 -0.1857  0.1961 -0.5516
  408MOL0     O54981   7.371   8.852   6.255  0.1941  0.6053  0.5880
  408MOL0     C54982   7.254   8.933   6.261  0.6654 -1.0877 -0.0736
  408MOL0     C54983   7.125   8.846   6.302 -0.1356  0.6961  0.5186
  408MOL0     C54984   7.165   8.747   6.419 -0.2694 -0.1250  0.3970
  408MOL0     C54985   7.043   8.667   6.472 -0.2382 -0.0421 -0.3211
  408MOL0     C54986   7.092   8.550   6.560  0.1909 -1.0693 -0.1458
  408MOL0     C54987   6.976   8.458   6.577 -0.3327  0.4852  1.1055
  408MOL0     C54988   6.850   8.506   6.655 -0.1341  0.5872 -0.7340
  408MOL0     C54989   6.728   8.419   6.626  0.1464 -0.3171  0.5717
  408MOL0    Cl54990   6.578   8.456   6.726 -0.0799 -0.0677  0.0228
  408MOL0     C54991   7.605   8.813   6.245 -0.1916 -0.0796 -0.8368
  408MOL0     C54992   7.731   8.850   6.198 -0.6443  0.2710 -0.1977
  408MOL0     O54993   7.842   9.028   5.888  0.7828 -0.7186  0.4892
  408MOL0     C54994   8.136   8.956   6.012  0.2420  0.0775  0.6725
  408MOL0     C54995   8.273   8.967   5.995 -0.1394 -0.1604 -0.1398
  408MOL0     N54996   8.930   9.235   5.606  0.5550 -0.0820 -0.3877
  408MOL0     N54997   9.019   9.301   5.541 -0.0104  0.0448 -0.4193
  408MOL0     C54998  10.272   9.354   5.759  0.5499  0.5548 -0.2146
  408MOL0     C54999  10.412   9.327   5.770  0.1570  0.2964 -0.0456
  408MOL0     C55000  10.848   9.369   5.680  0.1571  0.3790  0.9423
  408MOL0     C55001  10.915   9.244   5.648 -0.1719 -0.6688  0.0162
  408MOL0     C55002  11.053   9.230   5.651  0.4873 -0.2338  0.9379
  408MOL0     C55003  11.132   9.341   5.672 -1.0418  0.3769  1.3432
  408MOL0     O55004  11.273   9.341   5.655  0.5247 -0.1371  0.7899
  408MOL0     C55005  11.324   9.405   5.537 -0.5219  0.9913  0.0969
  408MOL0     C55006  11.480   9.390   5.521  0.9607  0.1011 -0.3382
  408MOL0     C55007  11.556   9.405   5.654 -0.0933  0.5401  0.3264
  408MOL0     C55008  11.696   9.445   5.616  0.0445 -0.1327  0.1084
  408MOL0     C55009  11.776   9.468   5.737 -0.2056  0.1156  0.4102
  408MOL0     C55010  11.857   9.503   5.821  0.2565  0.2556 -0.1141
  408MOL0     C55011  11.075   9.462   5.703  0.2945 -0.1511 -0.1855
  408MOL0     C55012  10.935   9.473   5.707  0.7161 -0.5471 -0.0353
  408MOL0     H55013  10.466   9.256   5.446  1.0264 -0.7703 -0.4794
  408MOL0     H55014  10.227   9.296   5.427  0.9471  0.2388 -0.0857
  408MOL0     H55015  10.002   9.318   5.455  0.0284 -0.4136  0.0253
  408MOL0     H55016  10.023   9.158   5.540 -3.1903 -1.5473  2.9786
  408MOL0     H55017   9.795   9.172   5.527  1.5412 -2.3961  1.8923
  408MOL0     H55018   9.825   9.235   5.687 -0.7545 -0.4791 -0.2380
  408MOL0     H55019   9.805   9.470   5.619 -1.4119 -0.4605  0.3719
  408MOL0     H55020   9.794   9.429   5.453  0.5896 -1.5975 -0.5857
  408MOL0     H55021   9.574   9.344   5.470  1.5193 -1.6916  0.4966
  408MOL0     H55022   9.580   9.335   5.652  0.1525 -0.1549  0.5521
  408MOL0     H55023   9.562   9.560   5.682  0.2760  2.3384 -0.7418
  408MOL0     H55024   9.619   9.600   5.532 -1.0968  0.4884  0.3861
  408MOL0     H55025   9.389   9.650   5.537  0.5185 -0.5092  1.4822
  408MOL0     H55026   9.394   9.510   5.426  0.9606 -1.4701  0.6937
  408MOL0     H55027   9.333   9.471   5.719 -0.0703  2.9285  0.1960
  408MOL0     H55028   9.206   9.531   5.627  0.4698  0.8603  0.8689
  408MOL0     H55029   9.337   9.256   5.597 -2.7803 -1.4083  2.8165
  408MOL0     H55030   9.262   9.328   5.453  0.0625  0.1251 -0.1062
  408MOL0     H55031   9.179   9.207   5.815 -0.4125 -0.9656  0.1093
  408MOL0     H55032   8.874   9.012   5.792 -0.3167 -0.3596  0.4261
  408MOL0     H55033   8.952   9.108   5.911  0.6614 -0.5388 -1.4306
  408MOL0     H55034   8.787   9.295   5.868 -2.8394  0.2325 -1.0828
  408MOL0     H55035   8.746   9.159   5.968  1.9756 -1.4741 -0.1557
  408MOL0     H55036   8.654   9.054   5.741  2.6647  1.1025 -1.8319
  408MOL0     H55037   8.671   9.207   5.674  1.8354 -3.7126 -2.3090
  408MOL0     H55038   8.454   9.174   5.740  0.5637  0.6103  0.6647
  408MOL0     H55039   8.515   9.296   5.858 -2.4840  0.0610  2.2977
  408MOL0     H55040   8.294   9.290   5.890 -1.8807  1.0843  1.5356
  408MOL0     H55041   7.963   9.294   5.809  0.3321  2.7040  0.1500
  408MOL0     H55042   7.983   9.326   5.986 -0.1555 -0.3166  0.7866
  408MOL0     H55043   8.102   9.384   5.874  0.7123  0.2725  1.0453
  408MOL0     H55044   7.676   9.152   6.082 -0.5740  1.3360  0.6472
  408MOL0     H55045   7.439   9.097   6.157 -0.6102 -0.2798  3.4171
  408MOL0     H55046   7.273   9.004   6.342 -2.0753 -0.8780  0.4919
  408MOL0     H55047   7.214   8.978   6.170 -1.0784  1.2482  1.7004
  408MOL0     H55048   7.047   8.916   6.330 -1.2321 -0.1830 -0.2496
  408MOL0     H55049   7.100   8.786   6.214 -0.5734  0.1768  0.9943
  408MOL0     H55050   7.222   8.797   6.499  1.6640  0.6854 -1.4053
  408MOL0     H55051   7.235   8.670   6.386  0.8478  1.8249 -2.0250
  408MOL0     H55052   6.960   8.723   6.516 -1.2405 -1.0639 -0.8661
  408MOL0     H55053   6.993   8.618   6.387  0.9292 -2.2431  0.1774
  408MOL0     H55054   7.123   8.590   6.657 -0.3701  0.6984 -0.6522
  408MOL0     H55055   7.177   8.504   6.509 -0.1161 -1.5070 -0.2672
  408MOL0     H55056   6.940   8.416   6.483 -1.1467 -0.9637  2.0344
  408MOL0     H55057   7.014   8.370   6.629  1.7697  1.3009  1.0399
  408MOL0     H55058   6.824   8.606   6.619 -1.5847 -0.2662 -2.1846
  408MOL0     H55059   6.861   8.515   6.763  2.5266 -0.4871 -0.8242
  408MOL0     H55060   6.759   8.315   6.642 -1.8514 -0.7669  2.0317
  408MOL0     H55061   6.703   8.419   6.520 -0.1147 -0.7857  0.6289
  408MOL0     H55062   7.582   8.720   6.296  0.7088 -0.5914 -1.3148
  408MOL0     H55063   7.821   8.791   6.206 -1.6361 -1.3054 -0.3742
  408MOL0     H55064   8.101   8.861   6.050  1.7992 -1.1589 -0.8329
  408MOL0     H55065   8.351   8.900   6.029 -2.3207 -1.5446  2.5729
  408MOL0     H55066  10.216   9.383   5.847  1.3309 -0.5449  0.6680
  408MOL0     H55067  10.464   9.339   5.865 -2.4469 -1.3422  1.7312
  408MOL0     H55068  10.868   9.149   5.623 -0.3261 -0.4698 -0.4491
  408MOL0     H55069  11.097   9.136   5.620  0.9837 -0.3834  2.0833
  408MOL0     H55070  11.286   9.353   5.449  0.4682 -0.6031  0.5751
  408MOL0     H55071  11.303   9.512   5.531 -0.6443  1.0766  1.5704
  408MOL0     H55072  11.504   9.469   5.449 -0.2256 -0.8058 -1.7647
  408MOL0     H55073  11.499   9.293   5.475 -0.1119 -0.1259 -0.3322
  408MOL0     H55074  11.551   9.309   5.706  3.2660 -0.5695 -1.1430
  408MOL0     H55075  11.508   9.477   5.721  0.6183  1.2126  0.1316
  408MOL0     H55076  11.698   9.541   5.565 -2.3708  0.1817  0.5067
  408MOL0     H55077  11.737   9.366   5.552 -1.8458  0.0849 -1.4623
  408MOL0     H55078  11.936   9.550   5.877 -0.3642  0.0664  0.9525
  408MOL0     H55079  11.143   9.542   5.730  0.2179 -0.8072  2.1365
  408MOL0     H55080  10.893   9.573   5.716  2.5953  0.1262  2.3680
  409MOL0     O55081   6.045   7.646   0.482 -0.7798  1.0363 -0.0722
  409MOL0     C55082   6.064   7.756   0.534 -0.1601  0.9907 -0.2292
  409MOL0     O55083   5.965   7.834   0.578  0.2563 -0.0282  0.3800
  409MOL0     C55084   5.830   7.799   0.568  0.3392 -0.3057  0.9116
  409MOL0     C55085   5.767   7.731   0.673 -1.3090 -0.3484  0.5373
  409MOL0     C55086   5.635   7.684   0.665 -0.7125  0.3856 -0.5625
  409MOL0     C55087   5.563   7.710   0.554  0.2210 -0.1930  0.7520
  409MOL0     O55088   5.432   7.676   0.551 -0.7219 -0.2024  0.0867
  409MOL0     C55089   5.334   7.757   0.487  0.3935 -0.0576  0.9998
  409MOL0     C55090   5.184   7.720   0.541 -0.2264 -0.0714 -0.3640
  409MOL0     C55091   5.191   7.712   0.704  0.1155  0.9553 -0.2429
  409MOL0     C55092   5.066   7.667   0.780 -0.5865 -0.0619  1.0179
  409MOL0     C55093   5.119   7.663   0.924 -0.2974  0.0510 -0.1951
  409MOL0     C55094   5.007   7.642   1.019  0.0313 -0.3033 -0.6426
  409MOL0     C55095   5.045   7.626   1.164 -0.2465  0.0026 -0.1403
  409MOL0     C55096   5.089   7.481   1.199  0.3786  0.4452 -0.9618
  409MOL0     N55097   4.972   7.386   1.203 -0.5057  0.7651  0.3004
  409MOL0     C55098   4.878   7.394   1.306  0.0112  0.5007 -0.1361
  409MOL0     C55099   4.793   7.285   1.286  0.0005  0.3914  0.2287
  409MOL0     C55100   4.673   7.263   1.370  0.6530 -0.3828 -0.2241
  409MOL0     C55101   4.552   7.342   1.304  0.3700 -0.6024  0.1771
  409MOL0     C55102   4.409   7.284   1.345  0.5085  0.5966 -0.1032
  409MOL0     C55103   4.290   7.348   1.274 -0.0885 -0.5010  0.0780
  409MOL0     O55104   4.175   7.262   1.300  0.0397 -0.5545 -0.1390
  409MOL0     C55105   4.061   7.327   1.350 -0.7337  0.3739 -0.8551
  409MOL0     C55106   4.060   7.399   1.476  0.5134  0.7994 -0.2801
  409MOL0     C55107   3.939   7.447   1.532 -0.0722  0.5240 -0.2482
  409MOL0     C55108   3.946   7.494   1.672  0.5259 -0.2038 -0.4688
  409MOL0     C55109   3.821   7.440   1.454  0.2790  0.8290  0.1950
  409MOL0     C55110   3.680   7.488   1.490  0.4036 -0.1509 -0.6032
  409MOL0     O55111   3.578   7.423   1.418 -0.1566 -0.4060 -1.4473
  409MOL0     C55112   3.455   7.488   1.408 -0.1175  0.2198 -0.6282
  409MOL0     C55113   3.454   7.609   1.353 -0.2845 -0.7014  0.8380
  409MOL0     C55114   3.331   7.670   1.329 -0.6713 -0.1196 -0.7019
  409MOL0     C55115   3.212   7.605   1.348  0.1099 -0.0776 -0.5347
  409MOL0     O55116   3.085   7.662   1.337  0.1595  0.2199  1.1671
  409MOL0     C55117   3.073   7.801   1.321  0.2736 -0.6127 -0.4077
  409MOL0     C55118   2.934   7.839   1.357  1.0861  0.0495  0.1850
  409MOL0     C55119   2.901   7.992   1.379  0.1970 -0.7161  0.3154
  409MOL0     C55120   2.785   8.010   1.469 -0.2928 -0.2957 -0.2074
  409MOL0     C55121   2.746   8.157   1.508  0.4850  0.3999 -0.2812
  409MOL0     C55122   2.714   8.259   1.405  0.4961  0.3715 -0.6438
  409MOL0     C55123   2.846   8.322   1.339 -0.0217  0.2833  0.7777
  409MOL0     C55124   2.795   8.431   1.244  0.0950  0.8652  0.0475
  409MOL0    Cl55125   2.737   8.357   1.096 -0.4491 -0.0038  0.2506
  409MOL0     C55126   3.228   7.486   1.418  1.2176 -0.2721 -0.9518
  409MOL0     C55127   3.345   7.423   1.451  0.2653 -0.1909  0.0646
  409MOL0     O55128   3.668   7.573   1.578  0.1674  0.2886  0.1488
  409MOL0     C55129   3.829   7.376   1.325  0.5718 -0.0819  0.4729
  409MOL0     C55130   3.944   7.306   1.290  0.3738 -0.0218 -0.3934
  409MOL0     N55131   4.840   7.206   1.179 -0.0635  0.0845  0.2807
  409MOL0     N55132   4.930   7.282   1.127 -0.1516 -0.2408 -0.2046
  409MOL0     C55133   5.628   7.785   0.441  0.5867  0.0423 -1.0865
  409MOL0     C55134   5.757   7.832   0.456 -0.9486  0.8194  0.0613
  409MOL0     C55135   6.193   7.809   0.553 -0.9994 -1.1260 -0.4437
  409MOL0     C55136   6.217   7.939   0.622  0.2567 -0.1736  0.1915
  409MOL0     C55137   6.345   7.998   0.628 -0.1197 -0.6614  0.4764
  409MOL0     C55138   6.455   7.926   0.573 -0.4173 -0.6723 -0.4197
  409MOL0     O55139   6.579   7.978   0.584  0.2103 -0.0868  0.0159
  409MOL0     C55140   6.620   8.016   0.453 -0.1139 -0.4685  0.7347
  409MOL0     C55141   6.671   8.156   0.443 -0.8052 -0.1183 -0.1579
  409MOL0     C55142   6.582   8.269   0.524  0.0168  0.5872 -0.2257
  409MOL0     C55143   6.654   8.402   0.527 -0.1296 -0.0424 -0.3045
  409MOL0     C55144   6.745   8.426   0.643 -0.3015  0.1756  0.3820
  409MOL0     C55145   6.828   8.424   0.741  0.0442 -0.3369  0.2452
  409MOL0     C55146   6.433   7.795   0.519 -0.8201  0.3560  0.4004
  409MOL0     C55147   6.301   7.741   0.506 -0.6740  0.3200  0.1635
  409MOL0     H55148   5.829   7.714   0.760  0.8498  1.3981 -0.5620
  409MOL0     H55149   5.589   7.616   0.736  0.6047  2.0280  2.0736
  409MOL0     H55150   5.336   7.865   0.502 -1.8488  0.5941 -2.2519
  409MOL0     H55151   5.325   7.730   0.381 -0.0639 -2.9972  1.7084
  409MOL0     H55152   5.112   7.794   0.505  0.7586 -0.1885 -2.7167
  409MOL0     H55153   5.155   7.628   0.490  2.0457 -2.7319  2.6901
  409MOL0     H55154   5.275   7.649   0.735 -0.1874 -0.0891 -1.4457
  409MOL0     H55155   5.218   7.811   0.742  2.0010  0.1506  0.6593
  409MOL0     H55156   4.993   7.747   0.766  0.8301  1.1881  0.3887
  409MOL0     H55157   5.025   7.572   0.745  1.1189  0.2605 -2.2470
  409MOL0     H55158   5.188   7.579   0.922  1.5884  1.5306 -1.6368
  409MOL0     H55159   5.168   7.760   0.938 -0.3412 -0.1048  1.0986
  409MOL0     H55160   4.953   7.737   1.019 -0.5388 -0.6112  0.1518
  409MOL0     H55161   4.933   7.570   0.985  2.1868 -2.4268 -1.1113
  409MOL0     H55162   5.125   7.694   1.193 -0.6333  0.4566 -0.1236
  409MOL0     H55163   4.969   7.652   1.239 -3.5285 -1.4910 -2.7025
  409MOL0     H55164   5.141   7.475   1.295  1.0747  0.9120 -1.3029
  409MOL0     H55165   5.165   7.449   1.127 -1.1258  0.4449 -2.6064
  409MOL0     H55166   4.873   7.475   1.379  1.5712  0.6895 -0.2137
  409MOL0     H55167   4.633   7.163   1.356 -5.6386  2.0124 -3.0700
  409MOL0     H55168   4.680   7.287   1.476 -0.4262  1.3072 -0.4916
  409MOL0     H55169   4.558   7.340   1.195  4.3692  1.8708  0.1400
  409MOL0     H55170   4.560   7.450   1.319 -2.3415 -0.1150 -1.3270
  409MOL0     H55171   4.406   7.324   1.447  0.0264 -0.4829  0.3158
  409MOL0     H55172   4.387   7.177   1.346 -0.2314  0.6884  3.1891
  409MOL0     H55173   4.308   7.354   1.166 -0.9218  1.3414 -0.0011
  409MOL0     H55174   4.272   7.451   1.308 -2.1650 -0.9213  0.3276
  409MOL0     H55175   4.152   7.406   1.533  0.9295  2.7908 -1.1102
  409MOL0     H55176   3.936   7.603   1.676 -0.8025 -0.3212  0.0495
  409MOL0     H55177   3.868   7.448   1.733  0.8498  0.6034  0.5913
  409MOL0     H55178   4.042   7.466   1.715 -0.7817 -0.1524  2.7619
  409MOL0     H55179   3.546   7.662   1.333 -2.4165  2.9395 -0.4239
  409MOL0     H55180   3.339   7.775   1.300 -0.9447  0.1455  0.1553
  409MOL0     H55181   3.133   7.851   1.397 -1.1081  2.4229 -1.1457
  409MOL0     H55182   3.113   7.823   1.221  0.2555 -2.1226 -0.7637
  409MOL0     H55183   2.876   7.793   1.277  1.5598  0.6584 -0.5155
  409MOL0     H55184   2.905   7.786   1.449  2.0916 -1.0517 -0.1116
  409MOL0     H55185   2.872   8.035   1.282 -0.7629  1.2245  1.4128
  409MOL0     H55186   2.990   8.046   1.412 -0.6603  0.9240  0.0495
  409MOL0     H55187   2.695   7.968   1.424  0.8313 -1.9816 -0.9906
  409MOL0     H55188   2.814   7.966   1.565  0.3541  1.2944  0.3816
  409MOL0     H55189   2.832   8.182   1.570 -0.8846 -0.1739  1.9727
  409MOL0     H55190   2.659   8.145   1.574  0.5502  3.8122  0.5619
  409MOL0     H55191   2.642   8.225   1.330 -0.5601  0.3075  0.3699
  409MOL0     H55192   2.673   8.348   1.454  1.2448  1.9992 -2.7999
  409MOL0     H55193   2.900   8.242   1.286 -1.4186 -0.6085  0.6261
  409MOL0     H55194   2.919   8.362   1.410 -0.9239 -0.1854  2.0197
  409MOL0     H55195   2.886   8.488   1.224  0.5924  0.7093  1.7277
  409MOL0     H55196   2.709   8.488   1.283 -2.9848 -2.0263 -1.9494
  409MOL0     H55197   3.135   7.449   1.459  1.4704  2.3880  2.4731
  409MOL0     H55198   3.352   7.330   1.507  1.9877 -1.0092 -1.4126
  409MOL0     H55199   3.744   7.363   1.259  0.2028 -2.5218  1.3502
  409MOL0     H55200   3.949   7.257   1.194  0.8995  1.6758 -1.2827
  409MOL0     H55201   5.575   7.806   0.348  0.8413 -1.3656 -1.5664
  409MOL0     H55202   5.803   7.889   0.376 -2.3598  1.1615 -0.5317
  409MOL0     H55203   6.131   8.000   0.648 -0.4342 -0.4076 -1.4258
  409MOL0     H55204   6.355   8.098   0.670  1.2309  0.2992 -1.9063
  409MOL0     H55205   6.693   7.942   0.419  1.4148  1.2789  0.0710
  409MOL0     H55206   6.536   8.018   0.383  1.8903  1.8614 -1.8472
  409MOL0     H55207   6.685   8.172   0.336  1.9761 -2.6815 -0.3124
  409MOL0     H55208   6.771   8.164   0.489 -1.5370 -1.4604  1.8254
  409MOL0     H55209   6.581   8.228   0.626  0.1836 -1.3455 -0.9550
  409MOL0     H55210   6.475   8.271   0.500 -0.4492  0.2451  1.6361
  409MOL0     H55211   6.588   8.488   0.516 -1.2966 -0.9820 -0.8009
  409MOL0     H55212   6.712   8.405   0.435 -1.1526 -1.5512 -1.0404
  409MOL0     H55213   6.913   8.415   0.805 -0.1194  2.0561  0.8991
  409MOL0     H55214   6.525   7.747   0.484 -1.1082 -0.2283  0.4240
  409MOL0     H55215   6.301   7.645   0.454 -0.8485  1.7217 -2.6302
  410MOL0     O55216   4.712  11.046   3.870 -0.2864  0.3863 -0.0410
  410MOL0     C55217   4.737  11.162   3.837  0.3799  0.0215  0.4207
  410MOL0     O55218   4.786  11.194   3.716  0.5741  0.0509  0.0124
  410MOL0     C55219   4.854  11.105   3.639 -0.5505  0.3999 -0.5309
  410MOL0     C55220   4.807  11.053   3.518  0.9241  0.3260 -0.2372
  410MOL0     C55221   4.861  10.952   3.439  0.3592  0.4933  0.9763
  410MOL0     C55222   4.985  10.904   3.475  0.3021  0.1195 -0.4447
  410MOL0     O55223   5.040  10.793   3.411 -0.3385 -0.7257 -0.2251
  410MOL0     C55224   5.168  10.731   3.444 -0.1945  0.0679 -0.0293
  410MOL0     C55225   5.203  10.610   3.356 -0.1629 -0.7782  0.5205
  410MOL0     C55226   5.091  10.503   3.361 -0.0812  0.6903 -0.5812
  410MOL0     C55227   5.163  10.375   3.309  0.7214 -0.3538 -0.0428
  410MOL0     C55228   5.065  10.254   3.300 -1.3965  0.0264  0.6112
  410MOL0     C55229   5.001  10.220   3.438 -0.6652 -0.0650  0.4562
  410MOL0     C55230   5.111  10.202   3.541  0.6761 -0.3177  0.0736
  410MOL0     C55231   5.050  10.163   3.673 -0.6601 -0.3972 -0.9324
  410MOL0     N55232   5.038  10.016   3.673  0.1458 -0.9183 -0.8692
  410MOL0     C55233   4.926   9.947   3.622  0.0818 -0.4124 -0.2784
  410MOL0     C55234   4.970   9.824   3.632 -0.1115 -0.6691 -0.0259
  410MOL0     C55235   4.890   9.705   3.594 -0.5235  0.0815 -0.1215
  410MOL0     C55236   4.904   9.697   3.436 -0.3628 -0.9150 -0.6152
  410MOL0     C55237   4.816   9.604   3.361  0.2887 -0.0563  0.3142
  410MOL0     C55238   4.670   9.663   3.346 -0.5720  0.1795 -0.0732
  410MOL0     O55239   4.591   9.646   3.465 -0.2343  0.1767  0.3243
  410MOL0     C55240   4.459   9.698   3.468 -0.3925  0.7263 -0.9750
  410MOL0     C55241   4.415   9.810   3.403  0.9238  0.9970 -0.3150
  410MOL0     C55242   4.281   9.855   3.399  0.3053 -0.2968  0.2617
  410MOL0     C55243   4.236   9.985   3.343  0.0366  0.0436 -0.4073
  410MOL0     C55244   4.191   9.766   3.457  0.7141  0.5374 -0.2118
  410MOL0     C55245   4.048   9.802   3.470  0.4993  0.1784  0.1281
  410MOL0     O55246   3.984   9.761   3.592 -0.5481  0.1204  0.2000
  410MOL0     C55247   3.866   9.812   3.632 -0.2481 -0.6955 -0.5425
  410MOL0     C55248   3.853   9.840   3.769 -0.0338  0.7536 -0.8360
  410MOL0     C55249   3.735   9.894   3.829 -0.0790  0.2673 -0.5018
  410MOL0     C55250   3.625   9.917   3.746 -0.0513 -0.1813 -0.2792
  410MOL0     O55251   3.511   9.965   3.814  0.9350  0.7937 -0.2035
  410MOL0     C55252   3.413  10.034   3.736 -0.3615 -0.2503  0.5134
  410MOL0     C55253   3.361  10.151   3.819 -0.3554  0.3949  0.2403
  410MOL0     C55254   3.279  10.241   3.733  0.5265  0.5755 -0.0030
  410MOL0     C55255   3.361  10.358   3.681 -0.0936  0.4088  0.5934
  410MOL0     C55256   3.278  10.466   3.604  0.1082  0.1634  0.5013
  410MOL0     C55257   3.355  10.529   3.480 -0.4881 -0.4034 -0.5936
  410MOL0     C55258   3.430  10.652   3.523 -0.1488 -0.8400  0.9529
  410MOL0     C55259   3.518  10.700   3.405 -0.0603  0.3728  0.3378
  410MOL0    Cl55260   3.598  10.848   3.437  0.2040 -0.1342 -0.4263
  410MOL0     C55261   3.635   9.871   3.613  0.0777 -0.5859  0.3031
  410MOL0     C55262   3.749   9.821   3.557 -0.2435  0.4178  0.3772
  410MOL0     O55263   3.989   9.851   3.367  0.7492  0.1066 -0.5772
  410MOL0     C55264   4.229   9.646   3.522  0.4437 -0.7734 -0.2277
  410MOL0     C55265   4.366   9.620   3.542  0.0768  0.0765 -0.7027
  410MOL0     N55266   5.095   9.814   3.683  0.5341  0.6279 -0.4987
  410MOL0     N55267   5.131   9.930   3.722  0.8782 -0.7226  0.2875
  410MOL0     C55268   5.045  10.963   3.587  0.0835  0.1142  0.1574
  410MOL0     C55269   4.984  11.055   3.666  0.3222 -0.4044  0.1475
  410MOL0     C55270   4.692  11.270   3.923  0.6752  0.7743  0.2587
  410MOL0     C55271   4.615  11.241   4.038 -1.1925  0.0547  0.5445
  410MOL0     C55272   4.589  11.340   4.129 -0.3436  0.3197  0.6240
  410MOL0     C55273   4.632  11.465   4.112 -0.6890 -0.4358 -0.1994
  410MOL0     O55274   4.589  11.547   4.216  0.8905  0.2063  0.3328
  410MOL0     C55275   4.633  11.677   4.212  0.3039  0.3562  0.3285
  410MOL0     C55276   4.590  11.755   4.333  0.4187 -0.8690 -0.4779
  410MOL0     C55277   4.619  11.688   4.464 -0.2940 -0.3511 -0.2255
  410MOL0     C55278   4.567  11.780   4.580 -0.5299 -0.4867  0.4122
  410MOL0     C55279   4.647  11.899   4.591  0.9387  0.0257  0.1428
  410MOL0     C55280   4.697  12.010   4.610 -0.5072 -0.0254  0.6821
  410MOL0     C55281   4.710  11.502   3.993 -0.4907  0.1760 -0.4118
  410MOL0     C55282   4.738  11.401   3.900 -1.1833 -0.2561  0.5213
  410MOL0     H55283   4.713  11.098   3.488 -0.6849 -1.1158  2.2899
  410MOL0     H55284   4.800  10.914   3.357  1.5724  1.1747 -0.2997
  410MOL0     H55285   5.242  10.810   3.429  1.3858 -0.7451  2.7184
  410MOL0     H55286   5.170  10.706   3.551 -1.4344 -0.5114 -0.1274
  410MOL0     H55287   5.226  10.645   3.255  0.8665 -0.3031  0.9103
  410MOL0     H55288   5.296  10.565   3.393  1.6429 -0.2419 -2.9771
  410MOL0     H55289   5.044  10.484   3.458 -0.5659  0.6752 -0.8104
  410MOL0     H55290   5.003  10.522   3.298 -1.3597 -3.0057 -0.1475
  410MOL0     H55291   5.205  10.397   3.210 -0.3242  3.1523  0.1469
  410MOL0     H55292   5.252  10.361   3.372  0.2839 -0.2725  0.5941
  410MOL0     H55293   4.985  10.297   3.238  0.1076  2.4006  0.1484
  410MOL0     H55294   5.113  10.172   3.246 -0.3147  2.1603 -1.9262
  410MOL0     H55295   4.948  10.304   3.484  1.2578  1.3741  0.1972
  410MOL0     H55296   4.954  10.121   3.431 -0.7604 -0.1302  1.7980
  410MOL0     H55297   5.183  10.131   3.499 -0.1515 -1.1136 -0.0185
  410MOL0     H55298   5.159  10.299   3.555  2.2920 -0.6900 -2.2115
  410MOL0     H55299   4.950  10.206   3.674  0.2612  1.8669 -1.7344
  410MOL0     H55300   5.113  10.183   3.760 -0.0069 -2.6024 -0.8263
  410MOL0     H55301   4.831   9.984   3.584  1.3345  2.7655 -0.6128
  410MOL0     H55302   4.927   9.609   3.632 -0.8970 -0.6802 -1.6107
  410MOL0     H55303   4.784   9.719   3.621 -0.4119 -1.7622  1.5156
  410MOL0     H55304   5.004   9.656   3.417  0.5203  0.5252  0.7247
  410MOL0     H55305   4.893   9.796   3.391 -0.1289  1.9209  4.7396
  410MOL0     H55306   4.816   9.514   3.422 -3.3364  0.2945  1.0131
  410MOL0     H55307   4.851   9.581   3.260  0.8115  0.4222  0.3769
  410MOL0     H55308   4.618   9.623   3.259 -0.3323  1.6715 -0.9416
  410MOL0     H55309   4.675   9.768   3.315 -0.3111  0.3513  0.5278
  410MOL0     H55310   4.485   9.862   3.338 -1.7871 -0.4844 -4.8715
  410MOL0     H55311   4.169  10.033   3.415 -1.6845 -0.8334 -1.3560
  410MOL0     H55312   4.321  10.049   3.318 -0.0652  1.2407  2.0309
  410MOL0     H55313   4.182   9.981   3.248  0.2458 -1.6584 -0.4810
  410MOL0     H55314   3.937   9.829   3.837 -1.2110  0.4077  0.5983
  410MOL0     H55315   3.735   9.920   3.934 -1.5402  1.3780 -0.7568
  410MOL0     H55316   3.452  10.077   3.644 -1.8825  0.0534 -0.0241
  410MOL0     H55317   3.335   9.962   3.707  2.0125 -2.0726 -1.7474
  410MOL0     H55318   3.301  10.117   3.903 -1.6414  0.1307 -0.7484
  410MOL0     H55319   3.442  10.208   3.864  0.2265 -1.6486  1.9437
  410MOL0     H55320   3.196  10.275   3.795 -0.2601 -4.4229  2.2334
  410MOL0     H55321   3.225  10.196   3.649  2.1483 -0.4764 -0.5506
  410MOL0     H55322   3.413  10.411   3.761  1.2033 -0.5507  0.4331
  410MOL0     H55323   3.444  10.321   3.620  0.7303  1.2271  1.1890
  410MOL0     H55324   3.239  10.549   3.664 -0.0171 -0.4381  1.2742
  410MOL0     H55325   3.190  10.418   3.561  0.8139  0.9434 -2.0253
  410MOL0     H55326   3.418  10.449   3.439  1.5674  1.0251 -0.3674
  410MOL0     H55327   3.284  10.548   3.399 -0.6688  1.3262 -0.0646
  410MOL0     H55328   3.480  10.628   3.618 -0.1574 -2.4203  0.5853
  410MOL0     H55329   3.365  10.738   3.540  2.0103  1.2404 -0.7134
  410MOL0     H55330   3.452  10.710   3.317 -0.0494  1.5194  0.4512
  410MOL0     H55331   3.601  10.634   3.378  1.2351  1.8019  0.7107
  410MOL0     H55332   3.556   9.895   3.542  0.1435 -1.5892 -0.1214
  410MOL0     H55333   3.757   9.788   3.454  1.5934 -3.1765  1.4738
  410MOL0     H55334   4.151   9.585   3.567  1.6849  0.4209  3.9883
  410MOL0     H55335   4.394   9.531   3.597  0.8742  0.0818 -1.0960
  410MOL0     H55336   5.146  10.934   3.615  0.7054 -0.9242 -2.7947
  410MOL0     H55337   5.047  11.078   3.751  0.1244 -3.1512  1.1517
  410MOL0     H55338   4.571  11.142   4.045  0.9415 -1.1106 -1.4147
  410MOL0     H55339   4.532  11.311   4.217  2.3418 -0.5778  2.1928
  410MOL0     H55340   4.743  11.680   4.209  0.3067 -0.2430 -2.1726
  410MOL0     H55341   4.583  11.727   4.128  1.4592  1.6168  0.3532
  410MOL0     H55342   4.480  11.753   4.329  0.2759  1.7799 -0.1476
  410MOL0     H55343   4.633  11.856   4.338  0.9654 -1.1603  2.3982
  410MOL0     H55344   4.727  11.677   4.482 -0.8090 -0.3301  3.4577
  410MOL0     H55345   4.569  11.592   4.467  0.3854 -0.8698 -2.6400
  410MOL0     H55346   4.571  11.738   4.682 -3.8503  0.3597  1.0311
  410MOL0     H55347   4.464  11.811   4.557  0.4295  1.3786 -1.6913
  410MOL0     H55348   4.734  12.108   4.636 -1.5530  0.9157 -1.1862
  410MOL0     H55349   4.743  11.604   3.976  0.7475 -0.1390 -0.0205
  410MOL0     H55350   4.812  11.423   3.824 -0.4929 -0.9316  0.9726
  411MOL0     O55351   9.012   1.526   9.424  0.3235 -0.0954  0.1077
  411MOL0     C55352   9.008   1.409   9.388 -0.3458 -0.6014  0.5245
  411MOL0     O55353   8.909   1.347   9.315  0.3741  0.6123  0.7105
  411MOL0     C55354   8.794   1.401   9.268  0.1706  1.2540  0.0872
  411MOL0     C55355   8.749   1.529   9.301 -0.1435 -0.1189 -0.6453
  411MOL0     C55356   8.646   1.588   9.226  0.8761 -0.3229 -0.0050
  411MOL0     C55357   8.568   1.510   9.138  0.1576 -0.0941 -0.1296
  411MOL0     O55358   8.465   1.573   9.071 -0.2014 -0.5520  0.3705
  411MOL0     C55359   8.402   1.502   8.968 -0.3958 -0.9099  0.5216
  411MOL0     C55360   8.295   1.590   8.907  0.7128 -0.6883 -0.4056
  411MOL0     C55361   8.212   1.512   8.818 -0.1676 -0.5834  0.2931
  411MOL0     C55362   8.130   1.401   8.881 -0.0959 -0.8017 -0.2155
  411MOL0     C55363   8.024   1.355   8.778  0.6864 -0.6639  0.5674
  411MOL0     C55364   7.908   1.258   8.824 -0.7818  0.8378  0.0244
  411MOL0     C55365   7.853   1.280   8.965  0.1353 -0.5110  0.2317
  411MOL0     C55366   7.722   1.210   9.003 -0.1499 -0.1276  0.3339
  411MOL0     N55367   7.607   1.262   8.930  1.0640 -0.6737  0.0808
  411MOL0     C55368   7.502   1.179   8.891 -0.2224  0.1579 -0.8595
  411MOL0     C55369   7.456   1.241   8.777 -0.1281 -0.0053  0.6095
  411MOL0     C55370   7.350   1.192   8.687 -0.1157 -0.0582  0.3778
  411MOL0     C55371   7.386   1.069   8.599 -0.2362 -0.9627  0.1754
  411MOL0     C55372   7.486   1.118   8.494  0.1034  0.3762 -0.5397
  411MOL0     C55373   7.506   1.015   8.387 -0.6464 -0.0380  0.7345
  411MOL0     O55374   7.628   1.031   8.309  0.5829  0.5786  0.1620
  411MOL0     C55375   7.745   1.003   8.371  0.0948  0.1600 -0.0434
  411MOL0     C55376   7.864   1.057   8.312 -0.0879 -0.8177 -0.3842
  411MOL0     C55377   7.986   1.038   8.379  0.5122 -0.6371  0.1733
  411MOL0     C55378   8.109   1.075   8.298 -0.7330  0.5594 -0.2120
  411MOL0     C55379   7.991   0.978   8.512 -0.9162  0.1729  0.2915
  411MOL0     C55380   8.120   0.947   8.590 -0.2758  0.1586 -0.4641
  411MOL0     O55381   8.111   0.902   8.727  0.8976 -0.6098  0.7821
  411MOL0     C55382   8.237   0.883   8.780 -0.3087  0.5237  0.3575
  411MOL0     C55383   8.287   0.759   8.759 -0.3022  0.0850  0.5099
  411MOL0     C55384   8.417   0.729   8.809 -0.4213  0.0285  0.9071
  411MOL0     C55385   8.488   0.827   8.875 -0.4698 -0.6842  0.4466
  411MOL0     O55386   8.617   0.793   8.913  0.6431  0.0719 -0.0878
  411MOL0     C55387   8.708   0.863   9.002 -0.0475  0.0147  0.5270
  411MOL0     C55388   8.677   0.842   9.147  0.3771 -0.3503 -0.5303
  411MOL0     C55389   8.784   0.909   9.243  0.0102  0.6909 -0.5557
  411MOL0     C55390   8.806   0.825   9.373 -0.4262 -0.2516 -0.0971
  411MOL0     C55391   8.919   0.887   9.450  0.5662 -0.0766 -0.3781
  411MOL0     C55392   8.946   0.793   9.575 -0.0388 -1.1160  0.2329
  411MOL0     C55393   9.072   0.835   9.644  0.0980 -0.0466 -0.6411
  411MOL0     C55394   9.181   0.735   9.612 -0.8900 -1.7780 -0.1948
  411MOL0    Cl55395   9.250   0.781   9.453 -0.1041  0.1060 -0.4627
  411MOL0     C55396   8.438   0.959   8.888  0.1606 -0.9459 -0.2281
  411MOL0     C55397   8.310   0.985   8.836  0.5862  0.2962 -0.6767
  411MOL0     O55398   8.230   0.961   8.529  1.1604  0.4960  0.1616
  411MOL0     C55399   7.871   0.935   8.564 -0.6231 -0.9371  0.5157
  411MOL0     C55400   7.754   0.942   8.497  0.2153  0.8361  1.0545
  411MOL0     N55401   7.512   1.363   8.757  0.1337  0.5559  0.1355
  411MOL0     N55402   7.609   1.376   8.851  0.3865  0.2383  0.5802
  411MOL0     C55403   8.602   1.370   9.115  1.0084 -0.8989 -0.6416
  411MOL0     C55404   8.722   1.322   9.176  0.5978 -0.1068  0.0736
  411MOL0     C55405   9.131   1.339   9.420 -0.6429  0.4469 -0.5094
  411MOL0     C55406   9.152   1.205   9.383 -0.5275 -0.1206 -0.1710
  411MOL0     C55407   9.275   1.139   9.418 -0.5997 -0.5020 -0.9742
  411MOL0     C55408   9.385   1.200   9.480 -0.0654 -0.5397  0.0503
  411MOL0     O55409   9.505   1.132   9.508 -0.0970 -0.3332 -0.3254
  411MOL0     C55410   9.627   1.202   9.521 -0.0287 -1.1369  0.2256
  411MOL0     C55411   9.730   1.093   9.512 -1.0910  0.4123  1.1311
  411MOL0     C55412   9.868   1.156   9.506 -0.9112 -0.5780 -0.1863
  411MOL0     C55413   9.981   1.065   9.458 -0.9246  0.4587  0.1422
  411MOL0     C55414  10.012   0.968   9.551 -0.8126  0.2907 -0.1953
  411MOL0     C55415  10.048   0.879   9.629  0.8873 -0.2014 -0.7610
  411MOL0     C55416   9.362   1.335   9.520  0.3494  0.0767 -0.0720
  411MOL0     C55417   9.237   1.402   9.492 -0.6179 -0.4792 -0.0826
  411MOL0     H55418   8.795   1.587   9.381 -3.6023 -1.4498  2.5756
  411MOL0     H55419   8.617   1.693   9.237  2.4291  0.2327 -0.9020
  411MOL0     H55420   8.482   1.466   8.903  1.5524  3.2432  0.3023
  411MOL0     H55421   8.361   1.409   9.008  2.8592 -3.5764 -1.8157
  411MOL0     H55422   8.233   1.636   8.984 -0.2357 -1.2095 -0.8474
  411MOL0     H55423   8.347   1.673   8.857  1.1236 -0.3420  0.5651
  411MOL0     H55424   8.142   1.588   8.782 -1.1311  0.1514  3.4127
  411MOL0     H55425   8.264   1.473   8.730  0.0947  0.0344  0.1723
  411MOL0     H55426   8.196   1.318   8.908 -1.7034 -3.0422 -2.7350
  411MOL0     H55427   8.086   1.437   8.974  2.4561 -1.9491  1.5797
  411MOL0     H55428   7.969   1.438   8.734  1.8779 -0.7725 -1.2423
  411MOL0     H55429   8.083   1.300   8.704  0.8634 -3.4486  2.6215
  411MOL0     H55430   7.821   1.256   8.759 -2.4356  1.8185  2.0923
  411MOL0     H55431   7.969   1.167   8.829 -1.8498  0.1110  0.1391
  411MOL0     H55432   7.926   1.253   9.040  1.2125 -1.6302 -1.1672
  411MOL0     H55433   7.832   1.387   8.979 -0.1742 -0.7841  2.1238
  411MOL0     H55434   7.707   1.227   9.110 -0.0816 -1.9201  0.6594
  411MOL0     H55435   7.723   1.103   8.984 -0.8166  0.0415 -0.6761
  411MOL0     H55436   7.501   1.075   8.920 -1.9164 -0.4774 -2.9445
  411MOL0     H55437   7.269   1.149   8.747 -0.1880  0.1571  0.4375
  411MOL0     H55438   7.303   1.275   8.633  4.8579  2.9777  0.0831
  411MOL0     H55439   7.297   1.033   8.545 -2.1367 -0.0424  2.5192
  411MOL0     H55440   7.419   0.984   8.659 -1.1171 -1.7105 -0.3683
  411MOL0     H55441   7.580   1.131   8.549 -0.9844 -2.7054  2.3729
  411MOL0     H55442   7.448   1.210   8.448  1.5163  0.8275 -0.8738
  411MOL0     H55443   7.421   1.027   8.320 -1.7925 -3.7980  1.2858
  411MOL0     H55444   7.499   0.911   8.421 -2.0097 -0.6561 -1.2282
  411MOL0     H55445   7.859   1.124   8.227  0.9009  0.3581  0.4457
  411MOL0     H55446   8.175   1.133   8.362  0.2416  1.1270 -1.6888
  411MOL0     H55447   8.176   0.992   8.274  1.5330  2.3355 -0.3395
  411MOL0     H55448   8.085   1.132   8.209 -3.9457  2.0612  1.4531
  411MOL0     H55449   8.239   0.680   8.702  1.0870 -0.2165 -0.3052
  411MOL0     H55450   8.462   0.634   8.780 -1.1796 -0.0819  0.0638
  411MOL0     H55451   8.800   0.811   8.973 -1.5628 -1.2045 -2.6572
  411MOL0     H55452   8.726   0.968   8.979 -1.1823  0.3857  1.2497
  411MOL0     H55453   8.576   0.880   9.167 -0.3556 -2.1818 -0.5398
  411MOL0     H55454   8.668   0.734   9.164 -2.1425 -0.1300 -0.1149
  411MOL0     H55455   8.757   1.014   9.257  1.7110  0.8743  1.9269
  411MOL0     H55456   8.883   0.917   9.197  0.3850  0.0320  0.1060
  411MOL0     H55457   8.710   0.815   9.424 -0.1896  0.5396  0.5308
  411MOL0     H55458   8.836   0.722   9.353  0.7631 -0.2112  1.3221
  411MOL0     H55459   8.896   0.990   9.480 -2.0691 -1.0739  1.3935
  411MOL0     H55460   9.014   0.885   9.396  1.9460 -0.1486  1.9057
  411MOL0     H55461   8.863   0.807   9.644  0.8237  0.5499  1.0004
  411MOL0     H55462   8.959   0.687   9.552  3.6397 -1.4525  2.9979
  411MOL0     H55463   9.063   0.837   9.753  0.7072 -0.3133 -0.5798
  411MOL0     H55464   9.108   0.937   9.625  3.9789 -0.1099  4.2476
  411MOL0     H55465   9.152   0.629   9.615 -4.1220 -1.0935 -2.0863
  411MOL0     H55466   9.260   0.757   9.684 -0.2321 -1.8242 -0.8891
  411MOL0     H55467   8.495   1.039   8.934 -0.3242  1.3581 -3.3293
  411MOL0     H55468   8.263   1.081   8.858  0.5643 -0.2210  1.9204
  411MOL0     H55469   7.863   0.885   8.660 -3.0613 -2.9014 -0.6154
  411MOL0     H55470   7.667   0.914   8.556 -1.1187  3.2771  0.3807
  411MOL0     H55471   8.561   1.310   9.034  2.3345  0.2153 -2.1987
  411MOL0     H55472   8.773   1.232   9.144 -1.0415 -1.2611  0.5983
  411MOL0     H55473   9.079   1.167   9.312 -1.0654  0.8108 -0.1351
  411MOL0     H55474   9.295   1.034   9.396  2.2361 -0.9580  2.7665
  411MOL0     H55475   9.637   1.277   9.442  1.5177 -0.1458  1.3051
  411MOL0     H55476   9.630   1.246   9.621  2.1750  1.8653 -1.0172
  411MOL0     H55477   9.717   1.043   9.415 -3.0846  0.7649  1.1688
  411MOL0     H55478   9.715   1.026   9.597 -1.0706  1.6469  2.1418
  411MOL0     H55479   9.890   1.204   9.602 -1.9853 -1.4976  0.5484
  411MOL0     H55480   9.861   1.236   9.432 -0.8263  0.6924  1.1367
  411MOL0     H55481  10.068   1.128   9.444 -1.5512  1.3035 -0.0059
  411MOL0     H55482   9.950   1.024   9.361  0.3626  0.7753 -0.4137
  411MOL0     H55483  10.078   0.818   9.712 -0.3270 -0.8719 -0.7807
  411MOL0     H55484   9.437   1.397   9.568 -0.2523  0.8467 -0.1093
  411MOL0     H55485   9.215   1.496   9.541  0.6463 -0.7478  1.0609
  412MOL0     O55486  10.908   7.785   7.866  0.4032 -0.3659  0.0531
  412MOL0     C55487  10.955   7.703   7.947 -0.0357  0.5993  0.3257
  412MOL0     O55488  10.899   7.664   8.058 -0.1352  0.5249 -0.5745
  412MOL0     C55489  10.780   7.728   8.085  0.8862 -0.3678 -0.6613
  412MOL0     C55490  10.770   7.834   8.181 -0.5919 -0.1086 -0.3064
  412MOL0     C55491  10.654   7.907   8.183  0.4549  0.3568  0.8210
  412MOL0     C55492  10.535   7.871   8.115 -0.6612  0.0302  0.2735
  412MOL0     O55493  10.417   7.932   8.123 -0.1601 -0.9487 -0.1741
  412MOL0     C55494  10.326   7.858   8.213  0.0675  0.2995  0.0918
  412MOL0     C55495  10.223   7.945   8.289  0.1446  0.5636 -0.0972
  412MOL0     C55496  10.281   8.056   8.374 -0.6908  1.3341  0.9324
  412MOL0     C55497  10.173   8.112   8.453  0.6462 -0.0541 -0.0210
  412MOL0     C55498  10.209   8.251   8.506  0.2095  0.9015  0.4107
  412MOL0     C55499  10.091   8.302   8.592 -0.6025 -0.6929  0.8045
  412MOL0     C55500  10.098   8.458   8.612 -0.5117  0.7330  0.5147
  412MOL0     C55501   9.974   8.505   8.682 -0.2740 -0.2030 -0.2795
  412MOL0     N55502   9.947   8.649   8.663 -0.4186  0.7097 -0.1283
  412MOL0     C55503  10.043   8.738   8.649 -0.3228  0.0953 -0.1426
  412MOL0     C55504   9.983   8.857   8.657  0.4710  0.8331  0.1267
  412MOL0     C55505  10.055   8.993   8.643  0.3360  0.2890  0.3858
  412MOL0     C55506   9.982   9.109   8.571 -0.0488 -0.1548  0.6955
  412MOL0     C55507   9.983   9.080   8.423 -0.4071  0.1811  0.1830
  412MOL0     C55508   9.853   9.139   8.356  0.1341  0.6457  0.5662
  412MOL0     O55509   9.841   9.094   8.210 -0.1186 -0.8517  0.0475
  412MOL0     C55510   9.744   9.002   8.183  0.5291 -0.7220 -0.3671
  412MOL0     C55511   9.699   8.904   8.271  0.4453 -0.1655  0.2596
  412MOL0     C55512   9.596   8.821   8.238 -0.5522 -0.3455  0.2143
  412MOL0     C55513   9.566   8.704   8.322  0.3309  0.7574 -0.5354
  412MOL0     C55514   9.510   8.854   8.122  0.3340 -0.0241 -0.5671
  412MOL0     C55515   9.378   8.801   8.101 -0.5443 -0.6604  1.0455
  412MOL0     O55516   9.307   8.844   7.987  0.3419 -0.7425 -0.1427
  412MOL0     C55517   9.172   8.819   7.973  0.0835 -0.0466 -0.8111
  412MOL0     C55518   9.084   8.922   7.958 -0.1588  0.1501  0.0552
  412MOL0     C55519   8.948   8.906   7.935 -0.3830  0.5514  0.5332
  412MOL0     C55520   8.889   8.781   7.920 -1.2225  0.5872  0.5948
  412MOL0     O55521   8.758   8.775   7.879  0.9178 -0.3165  0.9911
  412MOL0     C55522   8.696   8.651   7.834 -0.0897 -0.0901  0.0789
  412MOL0     C55523   8.560   8.682   7.778  0.4525 -0.7675  0.2251
  412MOL0     C55524   8.525   8.572   7.675 -0.3595 -1.0482  0.0135
  412MOL0     C55525   8.376   8.542   7.663  0.1204  0.0338  0.0914
  412MOL0     C55526   8.367   8.458   7.537  0.2526 -0.2140 -0.1165
  412MOL0     C55527   8.244   8.397   7.503  0.4497  0.9196  0.3113
  412MOL0     C55528   8.142   8.493   7.439 -0.6528 -0.1223 -0.8497
  412MOL0     C55529   8.004   8.432   7.451 -0.7787  1.7244  0.2159
  412MOL0    Cl55530   8.002   8.287   7.348  0.1622  0.4360 -0.4530
  412MOL0     C55531   8.983   8.668   7.933  0.9433 -0.6083 -0.3551
  412MOL0     C55532   9.114   8.682   7.970 -0.8630 -1.7400  0.5470
  412MOL0     O55533   9.323   8.741   8.193 -0.5454  0.1212  0.4022
  412MOL0     C55534   9.569   8.942   8.033  0.6414  0.3817 -0.8606
  412MOL0     C55535   9.689   9.008   8.059 -0.2096  0.5787 -0.3083
  412MOL0     N55536   9.852   8.834   8.690  0.4397 -0.3929 -0.8081
  412MOL0     N55537   9.825   8.708   8.690 -0.3406  0.8642 -0.1807
  412MOL0     C55538  10.550   7.765   8.026  0.0658 -0.0071 -0.4215
  412MOL0     C55539  10.669   7.698   8.011 -0.7596  0.3381  0.3537
  412MOL0     C55540  11.100   7.658   7.916 -0.5144 -0.1046 -0.5027
  412MOL0     C55541  11.168   7.682   7.794 -0.5253  1.1287 -0.7095
  412MOL0     C55542  11.297   7.625   7.770  1.5204  0.2305 -0.2560
  412MOL0     C55543  11.361   7.551   7.868  0.4249  0.7707  0.4096
  412MOL0     O55544  11.498   7.510   7.849 -0.4603 -0.3255 -0.2928
  412MOL0     C55545  11.582   7.479   7.960  0.2158 -0.1336  0.3019
  412MOL0     C55546  11.733   7.470   7.910  1.1531  0.1409  0.2872
  412MOL0     C55547  11.828   7.479   8.026  0.4994 -0.3000  0.2968
  412MOL0     C55548  11.969   7.446   7.982  0.7595  1.3113 -0.3000
  412MOL0     C55549  12.049   7.477   8.099 -1.4790  0.3238 -0.6567
  412MOL0     C55550  12.114   7.495   8.203 -0.5696  0.5430  0.5175
  412MOL0     C55551  11.297   7.531   7.988  0.4969  0.0605  0.5898
  412MOL0     C55552  11.164   7.565   8.007  0.5575 -1.2201 -0.9885
  412MOL0     H55553  10.851   7.876   8.241 -0.2620  0.4051 -1.0968
  412MOL0     H55554  10.653   7.995   8.247  0.6387  2.1181 -1.4675
  412MOL0     H55555  10.272   7.789   8.149 -0.4128 -0.6375  1.4689
  412MOL0     H55556  10.386   7.808   8.290  1.1403 -0.6439 -1.3072
  412MOL0     H55557  10.149   7.987   8.220 -0.1545  1.2063  0.6042
  412MOL0     H55558  10.166   7.872   8.349  2.9094 -1.0267  0.7586
  412MOL0     H55559  10.357   8.013   8.440 -2.4919 -0.3111  2.0568
  412MOL0     H55560  10.329   8.130   8.309 -0.5790 -2.3396 -3.6901
  412MOL0     H55561  10.085   8.119   8.389  1.3256  0.2321 -0.9466
  412MOL0     H55562  10.159   8.042   8.535  0.7806 -1.3078 -1.0441
  412MOL0     H55563  10.303   8.247   8.561 -0.1158  0.7776  0.9660
  412MOL0     H55564  10.230   8.320   8.424  1.2280  2.3380  1.8308
  412MOL0     H55565   9.997   8.281   8.540 -0.4229 -2.1589  1.0265
  412MOL0     H55566  10.088   8.248   8.687 -0.5112 -0.2988  1.0345
  412MOL0     H55567  10.187   8.485   8.670 -2.0082  0.9766  2.8342
  412MOL0     H55568  10.114   8.511   8.518  0.0237  1.1276  0.8197
  412MOL0     H55569   9.968   8.475   8.787 -0.3724 -0.2404 -0.2957
  412MOL0     H55570   9.887   8.455   8.638 -1.3268 -0.7663  2.2184
  412MOL0     H55571  10.149   8.715   8.641  0.2960  1.4393  2.7129
  412MOL0     H55572  10.075   9.024   8.745 -0.8249 -0.2401  0.7929
  412MOL0     H55573  10.154   8.980   8.598  0.6777  0.6796  1.0288
  412MOL0     H55574  10.026   9.206   8.593 -0.1916 -0.2709  1.5419
  412MOL0     H55575   9.878   9.088   8.599 -0.2758 -4.0294 -2.1351
  412MOL0     H55576   9.983   8.972   8.403  1.3100  0.0035  0.9913
  412MOL0     H55577  10.073   9.121   8.377 -0.2153 -0.3904  0.0408
  412MOL0     H55578   9.858   9.247   8.367 -1.1999  0.5478  2.6576
  412MOL0     H55579   9.767   9.110   8.416 -0.9617 -0.1575 -1.3208
  412MOL0     H55580   9.755   8.902   8.363  1.6412 -1.7256 -0.4646
  412MOL0     H55581   9.491   8.733   8.397 -0.0850  2.2661 -1.4967
  412MOL0     H55582   9.532   8.619   8.264 -0.0171 -0.3415  1.2001
  412MOL0     H55583   9.656   8.674   8.377 -0.3393 -0.8018 -0.2403
  412MOL0     H55584   9.125   9.021   7.942 -1.1641  0.2465 -2.1711
  412MOL0     H55585   8.874   8.980   7.910 -0.6620 -0.8451 -3.7466
  412MOL0     H55586   8.764   8.622   7.754  0.3045  0.5956  0.1613
  412MOL0     H55587   8.681   8.580   7.916 -0.4150 -0.8443 -0.6194
  412MOL0     H55588   8.489   8.681   7.861  1.7463 -1.0249  1.3746
  412MOL0     H55589   8.562   8.782   7.733  1.1447 -0.2785  1.3150
  412MOL0     H55590   8.582   8.479   7.686  1.0462 -0.4474 -1.7968
  412MOL0     H55591   8.565   8.608   7.580 -2.0183  4.7494  1.1486
  412MOL0     H55592   8.336   8.494   7.754 -2.0808  1.2733 -0.1426
  412MOL0     H55593   8.316   8.631   7.645  1.2247  0.2053 -3.2657
  412MOL0     H55594   8.435   8.373   7.542  1.2051  0.5809  2.9866
  412MOL0     H55595   8.412   8.509   7.451  1.9740 -2.8018 -0.8743
  412MOL0     H55596   8.263   8.320   7.427 -3.1128 -0.2404  0.4004
  412MOL0     H55597   8.201   8.338   7.585  0.4951  1.6219  0.8455
  412MOL0     H55598   8.173   8.518   7.338 -0.2760 -1.7994 -1.1709
  412MOL0     H55599   8.148   8.582   7.504  1.3906  0.8970 -2.3497
  412MOL0     H55600   7.923   8.498   7.418 -0.7752  1.1138 -1.0876
  412MOL0     H55601   7.995   8.398   7.554  1.7379 -0.2697 -0.1165
  412MOL0     H55602   8.944   8.566   7.933  2.4748 -1.2746  2.1451
  412MOL0     H55603   9.170   8.590   7.981 -0.6479 -1.5599  0.9676
  412MOL0     H55604   9.520   8.961   7.938 -0.6581 -1.7859 -0.6781
  412MOL0     H55605   9.728   9.085   7.992 -0.1524 -0.1830 -1.1786
  412MOL0     H55606  10.462   7.750   7.965 -0.0762 -0.5526 -0.0836
  412MOL0     H55607  10.697   7.621   7.940  2.4764 -0.1455  1.9481
  412MOL0     H55608  11.126   7.745   7.717 -0.8051  1.2662 -0.4477
  412MOL0     H55609  11.348   7.643   7.676  0.8179  3.3479 -0.1310
  412MOL0     H55610  11.572   7.554   8.039 -1.4973  1.5746 -1.4128
  412MOL0     H55611  11.549   7.387   8.009 -0.3467  1.6598  3.5519
  412MOL0     H55612  11.770   7.540   7.834  1.2029  0.1799  0.3473
  412MOL0     H55613  11.750   7.375   7.859  0.1529  0.9199 -1.6082
  412MOL0     H55614  11.797   7.414   8.108 -0.9636  0.3783  0.3093
  412MOL0     H55615  11.808   7.583   8.053  2.2909  0.2147 -0.2063
  412MOL0     H55616  11.995   7.512   7.898 -1.7594  1.3006 -1.1687
  412MOL0     H55617  11.981   7.345   7.943 -3.2924  0.6396 -0.1817
  412MOL0     H55618  12.160   7.497   8.299 -2.4522 -0.9556  1.5128
  412MOL0     H55619  11.336   7.461   8.062  0.1842  1.7893  2.4835
  412MOL0     H55620  11.104   7.542   8.094 -0.4882 -2.3009 -1.9576
  413MOL0     O55621   9.829  10.065   0.934  0.1056 -0.4213  0.1893
  413MOL0     C55622   9.806   9.982   1.025 -0.2697  0.1432  0.6893
  413MOL0     O55623   9.688   9.913   1.049 -0.4053  0.1157 -0.2878
  413MOL0     C55624   9.579   9.933   0.973 -1.2197  0.2727  0.4638
  413MOL0     C55625   9.531  10.052   0.928  0.0108 -0.2031 -0.3556
  413MOL0     C55626   9.406  10.067   0.866 -0.4512  0.4334  0.4724
  413MOL0     C55627   9.329   9.950   0.847 -0.7553 -0.0112 -0.6001
  413MOL0     O55628   9.208   9.943   0.788  0.5972  0.2130  0.3222
  413MOL0     C55629   9.164  10.066   0.732 -0.0282  0.6247 -0.5861
  413MOL0     C55630   9.064  10.062   0.620  0.3613  0.3171  0.6131
  413MOL0     C55631   8.968  10.184   0.604 -0.3692  0.6890  0.7228
  413MOL0     C55632   8.832  10.163   0.683  0.8264 -0.0095  0.2542
  413MOL0     C55633   8.727  10.276   0.673 -1.0796  1.3386  0.2663
  413MOL0     C55634   8.682  10.295   0.527  0.4366  0.8863  1.2140
  413MOL0     C55635   8.577  10.412   0.521  0.1133 -0.4835  0.0727
  413MOL0     C55636   8.519  10.418   0.374 -0.0883 -0.7275 -0.0270
  413MOL0     N55637   8.384  10.489   0.381 -0.6868 -0.6033  0.5675
  413MOL0     C55638   8.353  10.619   0.332  0.1276  0.1217 -0.7499
  413MOL0     C55639   8.222  10.638   0.371 -0.2699  0.0991 -0.0996
  413MOL0     C55640   8.128  10.755   0.345 -0.1785 -0.1042  0.1334
  413MOL0     C55641   8.063  10.738   0.208  0.1527  0.8106 -0.3851
  413MOL0     C55642   7.907  10.747   0.217  0.0456 -0.7613  0.3126
  413MOL0     C55643   7.859  10.878   0.295  0.2110  0.1199  0.2075
  413MOL0     O55644   7.716  10.895   0.307 -0.3136  0.2338 -0.2685
  413MOL0     C55645   7.658  10.983   0.393 -0.8534 -0.2713  1.1254
  413MOL0     C55646   7.738  11.062   0.477  0.3388 -0.2475  0.3065
  413MOL0     C55647   7.674  11.151   0.566  0.0834  0.3102 -0.1275
  413MOL0     C55648   7.758  11.225   0.665 -0.3894 -0.3603  0.4729
  413MOL0     C55649   7.533  11.152   0.580 -0.7412 -0.2214 -0.6529
  413MOL0     C55650   7.462  11.234   0.674  0.3214 -1.2912 -0.6535
  413MOL0     O55651   7.350  11.176   0.722  0.2155 -0.4710 -0.5323
  413MOL0     C55652   7.269  11.258   0.804  0.7558  0.7900 -1.0331
  413MOL0     C55653   7.127  11.272   0.769  0.2840  0.1037 -0.2897
  413MOL0     C55654   7.055  11.358   0.850 -0.9978  0.1647  0.1753
  413MOL0     C55655   7.094  11.410   0.967 -0.3478  0.2572 -0.0110
  413MOL0     O55656   7.001  11.482   1.039 -0.7772 -0.5696 -0.8351
  413MOL0     C55657   7.010  11.462   1.183  1.0341 -0.0605  0.4041
  413MOL0     C55658   6.859  11.457   1.220  0.1222  0.1486  0.4682
  413MOL0     C55659   6.789  11.341   1.164 -0.5491 -0.0690 -0.8158
  413MOL0     C55660   6.646  11.330   1.216  0.6572 -0.7280 -0.2973
  413MOL0     C55661   6.547  11.441   1.173 -0.3890 -0.4532 -0.1199
  413MOL0     C55662   6.408  11.411   1.232  1.3730  0.4474  0.1502
  413MOL0     C55663   6.313  11.519   1.186 -0.9026 -0.2663  0.4451
  413MOL0     C55664   6.172  11.502   1.225 -0.3398  0.3935 -0.1904
  413MOL0    Cl55665   6.113  11.366   1.134  0.4459 -0.2382  0.1818
  413MOL0     C55666   7.223  11.379   1.008  0.4131 -0.0477  0.5070
  413MOL0     C55667   7.311  11.317   0.925  0.3885  0.9144  0.0652
  413MOL0     O55668   7.502  11.350   0.695  0.4265  0.5610 -0.4979
  413MOL0     C55669   7.456  11.063   0.506  0.4901 -0.6756  0.0136
  413MOL0     C55670   7.517  10.977   0.408 -1.1084  0.1512  0.2377
  413MOL0     N55671   8.178  10.519   0.438 -0.6456 -0.0147  0.3611
  413MOL0     N55672   8.277  10.434   0.439  0.5684 -0.1018 -0.5552
  413MOL0     C55673   9.379   9.827   0.884 -0.3140  0.1901  0.7362
  413MOL0     C55674   9.502   9.817   0.949  0.9079  0.1165 -0.3713
  413MOL0     C55675   9.913   9.947   1.109 -0.9336 -0.8947  0.7899
  413MOL0     C55676  10.048   9.981   1.071 -0.0068  1.0816  0.3564
  413MOL0     C55677  10.150   9.954   1.157 -0.0850 -0.6268  0.3705
  413MOL0     C55678  10.127   9.875   1.272  1.0715  0.7422 -0.2820
  413MOL0     O55679  10.222   9.831   1.358 -0.9156 -0.7706  0.4096
  413MOL0     C55680  10.359   9.865   1.333  0.4672  0.1743 -0.5721
  413MOL0     C55681  10.431   9.737   1.278  0.7118  0.0707 -0.0768
  413MOL0     C55682  10.448   9.627   1.382 -0.9442 -0.2096 -0.1999
  413MOL0     C55683  10.500   9.487   1.343 -0.1773  0.5242  0.6708
  413MOL0     C55684  10.639   9.506   1.292  1.3633 -0.0552 -0.1629
  413MOL0     C55685  10.748   9.524   1.253  0.2275  0.1410  0.0344
  413MOL0     C55686   9.998   9.817   1.293 -0.4066 -0.9161 -0.0504
  413MOL0     C55687   9.890   9.850   1.216 -0.5810 -0.4951  0.5003
  413MOL0     H55688   9.594  10.135   0.959 -1.6451  0.6142  0.9266
  413MOL0     H55689   9.371  10.168   0.849 -0.3070  0.6306  1.3327
  413MOL0     H55690   9.125  10.133   0.809  1.3596 -0.1825  0.8814
  413MOL0     H55691   9.248  10.123   0.691 -0.1615  1.3363  0.1052
  413MOL0     H55692   9.135  10.062   0.536 -0.1291 -4.4688 -0.0632
  413MOL0     H55693   8.997   9.976   0.623 -1.1011  1.4458  2.3398
  413MOL0     H55694   9.015  10.277   0.638  0.4217  1.3055 -1.8239
  413MOL0     H55695   8.951  10.182   0.496  2.2781 -0.4274  0.2624
  413MOL0     H55696   8.786  10.075   0.638  0.0111  0.8185 -0.5714
  413MOL0     H55697   8.851  10.156   0.791 -1.7977  3.0679  1.0731
  413MOL0     H55698   8.640  10.241   0.730 -1.2007  0.6812 -0.3130
  413MOL0     H55699   8.767  10.368   0.716  0.9186 -0.8255  3.4793
  413MOL0     H55700   8.766  10.306   0.458 -1.4340 -0.1019 -1.3988
  413MOL0     H55701   8.627  10.203   0.505  0.4610  0.9188  1.0191
  413MOL0     H55702   8.502  10.404   0.600  1.0550 -0.6034  0.9783
  413MOL0     H55703   8.633  10.505   0.531  0.6396 -0.6314 -1.2514
  413MOL0     H55704   8.491  10.324   0.325 -1.0195  0.8094 -2.6413
  413MOL0     H55705   8.594  10.470   0.314 -1.0331  2.5364  1.3973
  413MOL0     H55706   8.410  10.685   0.268  4.4415 -1.4495  1.0847
  413MOL0     H55707   8.056  10.739   0.426  0.5344 -0.3171  0.7346
  413MOL0     H55708   8.165  10.857   0.355 -0.9331  0.4109 -1.8398
  413MOL0     H55709   8.083  10.636   0.174  1.1381  0.4714  1.0994
  413MOL0     H55710   8.104  10.815   0.141  2.8911  1.0737  1.4482
  413MOL0     H55711   7.874  10.661   0.276 -0.3643 -0.9964 -0.2434
  413MOL0     H55712   7.855  10.751   0.120 -0.0613  2.0108  0.4100
  413MOL0     H55713   7.909  10.969   0.260  1.7098 -0.1713  1.4725
  413MOL0     H55714   7.896  10.869   0.398  0.4146 -0.6710  0.0760
  413MOL0     H55715   7.846  11.057   0.483  0.4648  1.7322  0.2828
  413MOL0     H55716   7.739  11.180   0.762  1.0273 -2.3641 -0.1216
  413MOL0     H55717   7.862  11.195   0.649 -0.5270 -1.1393  0.9689
  413MOL0     H55718   7.741  11.333   0.654  3.1686  0.0726 -3.3810
  413MOL0     H55719   7.088  11.218   0.683  1.2179 -0.1075 -0.6031
  413MOL0     H55720   6.950  11.380   0.834 -1.0141  1.1553  1.4348
  413MOL0     H55721   7.052  11.365   1.213  0.1643 -0.9507 -1.1042
  413MOL0     H55722   7.052  11.547   1.236  0.8691  0.6875 -0.6394
  413MOL0     H55723   6.851  11.453   1.329  0.0272 -1.6110  0.4357
  413MOL0     H55724   6.811  11.548   1.184 -0.6447 -0.2346  0.4818
  413MOL0     H55725   6.848  11.259   1.206  1.7444  1.6555 -0.4995
  413MOL0     H55726   6.785  11.348   1.055 -3.1121 -1.6455 -0.9171
  413MOL0     H55727   6.607  11.235   1.178  1.3208 -0.8067 -0.8104
  413MOL0     H55728   6.645  11.334   1.325 -0.3720 -1.5621 -0.2584
  413MOL0     H55729   6.551  11.443   1.064  2.4197  1.5446 -0.0946
  413MOL0     H55730   6.576  11.538   1.214  0.8674 -1.1484  0.7148
  413MOL0     H55731   6.384  11.310   1.198 -1.6233  1.5810 -1.4367
  413MOL0     H55732   6.422  11.411   1.341  0.4105  2.3129  0.3079
  413MOL0     H55733   6.329  11.529   1.078  3.5261 -0.7996  0.8657
  413MOL0     H55734   6.355  11.609   1.232 -0.0328  0.0339 -0.8716
  413MOL0     H55735   6.120  11.593   1.190  1.8565  1.7078 -0.2442
  413MOL0     H55736   6.157  11.505   1.333 -0.0997 -1.8010 -0.0600
  413MOL0     H55737   7.259  11.405   1.107  2.2251  3.2956 -0.8609
  413MOL0     H55738   7.415  11.301   0.951  1.0534 -1.6042 -3.5517
  413MOL0     H55739   7.348  11.054   0.513 -0.0680  2.5868 -2.1010
  413MOL0     H55740   7.470  10.901   0.346 -0.5710  0.4034 -0.4952
  413MOL0     H55741   9.322   9.735   0.886 -0.8727  0.4890 -0.2918
  413MOL0     H55742   9.527   9.721   0.994 -1.0047 -0.6165 -0.7786
  413MOL0     H55743  10.063  10.023   0.972 -2.9408  1.3026 -0.0833
  413MOL0     H55744  10.251   9.988   1.139 -0.2324 -0.5227 -0.2948
  413MOL0     H55745  10.376   9.960   1.281 -0.4757  0.9530  0.4960
  413MOL0     H55746  10.407   9.887   1.429  0.4709  2.2096 -0.9988
  413MOL0     H55747  10.536   9.766   1.262  1.0060 -1.2968 -0.8103
  413MOL0     H55748  10.382   9.721   1.181  3.1119  3.1754 -2.0297
  413MOL0     H55749  10.346   9.611   1.420 -0.4055  2.0387  2.4949
  413MOL0     H55750  10.502   9.666   1.468 -1.4952 -1.2327  0.6403
  413MOL0     H55751  10.440   9.463   1.254 -0.5240  2.8979  0.1910
  413MOL0     H55752  10.500   9.420   1.429 -1.7502  0.8287  0.9396
  413MOL0     H55753  10.847   9.535   1.213 -0.7610  2.3303 -2.1329
  413MOL0     H55754   9.974   9.766   1.385 -1.7698  4.6116  3.1173
  413MOL0     H55755   9.790   9.809   1.227 -1.4582  0.4184 -2.8484
  414MOL0     O55756   4.135   1.085   5.556 -0.5179  0.4968 -0.2370
  414MOL0     C55757   4.232   1.013   5.579 -0.3108  0.6481  0.0337
  414MOL0     O55758   4.245   0.888   5.534 -0.3811 -0.3805  0.4919
  414MOL0     C55759   4.139   0.829   5.460  0.4885 -0.2056 -0.0002
  414MOL0     C55760   4.166   0.777   5.334  0.7137  0.7990 -0.2508
  414MOL0     C55761   4.065   0.712   5.262 -0.1401 -0.6068  0.2980
  414MOL0     C55762   3.932   0.711   5.305  0.1188  0.0647 -0.9468
  414MOL0     O55763   3.824   0.652   5.241  0.3322 -0.5010 -0.0971
  414MOL0     C55764   3.856   0.595   5.109 -0.3466 -0.2126  0.8617
  414MOL0     C55765   3.737   0.506   5.057 -0.2779  0.2192  0.0743
  414MOL0     C55766   3.633   0.574   4.981  0.9277  0.2105 -0.3903
  414MOL0     C55767   3.611   0.717   5.032 -0.7381 -1.1350 -1.1879
  414MOL0     C55768   3.489   0.790   4.966 -0.1756 -0.0278 -0.0087
  414MOL0     C55769   3.352   0.730   4.987 -0.1559 -0.4805 -0.9725
  414MOL0     C55770   3.229   0.798   4.929 -0.3320  0.0295  0.1531
  414MOL0     C55771   3.105   0.736   5.000  1.1152 -0.3219  0.1879
  414MOL0     N55772   3.071   0.605   4.951  0.2881  0.1265 -0.1547
  414MOL0     C55773   3.004   0.572   4.833 -0.6111 -0.6378 -0.1325
  414MOL0     C55774   3.017   0.434   4.832 -0.5543 -0.6486  0.2041
  414MOL0     C55775   2.955   0.352   4.720  0.7852  0.4919  0.7510
  414MOL0     C55776   2.828   0.292   4.764 -0.4139  0.4866  0.2830
  414MOL0     C55777   2.843   0.187   4.875  0.3479  0.6457  0.6905
  414MOL0     C55778   2.718   0.103   4.871  0.0757  0.2867  0.1761
  414MOL0     O55779   2.619   0.186   4.930 -0.0002  0.0785  0.2863
  414MOL0     C55780   2.487   0.138   4.935  0.0805  0.0880 -0.0925
  414MOL0     C55781   2.436   0.014   4.878  0.3865 -0.4562 -0.8124
  414MOL0     C55782   2.300  -0.021   4.887 -0.7477 -0.4363  0.2867
  414MOL0     C55783   2.265  -0.157   4.823 -0.2375  0.1356 -0.1357
  414MOL0     C55784   2.219   0.062   4.967  0.1696  0.0933  0.2956
  414MOL0     C55785   2.080   0.024   4.989 -1.1085 -0.2342  0.9688
  414MOL0     O55786   2.024   0.083   5.104 -0.0907 -0.0591  0.5109
  414MOL0     C55787   1.884   0.099   5.124 -0.1974  0.1148 -0.4527
  414MOL0     C55788   1.869   0.168   5.249 -1.4999 -0.8075  0.4446
  414MOL0     C55789   1.735   0.204   5.282  0.7112 -0.8395 -0.6296
  414MOL0     C55790   1.625   0.152   5.211  0.6206 -0.4088 -1.3719
  414MOL0     O55791   1.492   0.170   5.246 -0.0231 -0.4625  0.1315
  414MOL0     C55792   1.458   0.274   5.341  0.2386 -1.0254 -0.0422
  414MOL0     C55793   1.308   0.288   5.370  0.3704  0.4723  1.7433
  414MOL0     C55794   1.241   0.170   5.434  0.0651 -0.9060 -1.5697
  414MOL0     C55795   1.283   0.159   5.582  0.8000  0.8066 -0.4579
  414MOL0     C55796   1.204   0.060   5.662  0.8821  0.0546 -0.2563
  414MOL0     C55797   1.284   0.004   5.781  0.2009  0.0971  0.4087
  414MOL0     C55798   1.322   0.116   5.881 -0.6373 -0.3538  0.1095
  414MOL0     C55799   1.404   0.064   5.994  0.1871  0.5557 -0.2092
  414MOL0    Cl55800   1.334  -0.082   6.090  0.2011  0.1366  0.2780
  414MOL0     C55801   1.645   0.078   5.097  0.0128  0.4159 -0.8733
  414MOL0     C55802   1.773   0.046   5.049 -0.9356 -0.1467  0.0740
  414MOL0     O55803   2.019  -0.058   4.924  0.3678 -0.4087  0.1718
  414MOL0     C55804   2.272   0.180   5.023 -0.7128  0.3778  0.0693
  414MOL0     C55805   2.404   0.218   5.009 -0.5056 -0.6706  0.4458
  414MOL0     N55806   3.082   0.391   4.942 -0.2327  0.9397  1.0413
  414MOL0     N55807   3.114   0.491   5.010 -0.9429  0.7483  0.7429
  414MOL0     C55808   3.903   0.772   5.425 -0.3657  0.2523 -0.5166
  414MOL0     C55809   4.003   0.822   5.493 -0.1375 -0.0291 -0.6865
  414MOL0     C55810   4.333   1.066   5.666  0.0685  0.0590 -0.6889
  414MOL0     C55811   4.430   0.979   5.719 -0.3342  0.0760 -0.2739
  414MOL0     C55812   4.540   1.034   5.792  0.5242 -0.2196 -0.0432
  414MOL0     C55813   4.551   1.172   5.813 -0.3107  0.2124  0.1249
  414MOL0     O55814   4.647   1.218   5.892 -0.0526  0.3462 -0.3131
  414MOL0     C55815   4.686   1.354   5.899 -0.0416 -0.1642 -0.6418
  414MOL0     C55816   4.793   1.360   5.780  0.5961 -0.0325 -0.7790
  414MOL0     C55817   4.870   1.496   5.784  0.4961 -0.5404  0.0802
  414MOL0     C55818   4.966   1.492   5.671  0.0128  0.1342 -0.3804
  414MOL0     C55819   4.915   1.496   5.535 -0.3575 -1.1832  0.4620
  414MOL0     C55820   4.880   1.508   5.418 -0.8729  0.9928 -0.7050
  414MOL0     C55821   4.454   1.255   5.754 -0.2162 -0.2384  0.5884
  414MOL0     C55822   4.342   1.202   5.685 -1.0941 -0.0785 -0.7259
  414MOL0     H55823   4.265   0.785   5.290  0.3444 -0.9738 -1.4919
  414MOL0     H55824   4.101   0.677   5.165 -0.6843  0.0729 -0.1586
  414MOL0     H55825   3.873   0.681   5.044  0.9489 -0.3801  0.9632
  414MOL0     H55826   3.946   0.537   5.130 -0.2287  0.3611  2.0309
  414MOL0     H55827   3.781   0.428   4.994  0.6916 -0.6818  1.7962
  414MOL0     H55828   3.694   0.457   5.144  1.7311  1.8812  2.1167
  414MOL0     H55829   3.667   0.583   4.877 -0.8204  1.4632 -0.9086
  414MOL0     H55830   3.538   0.521   4.992  0.6716  1.1606  5.3139
  414MOL0     H55831   3.605   0.715   5.142  2.0044 -2.4507 -0.9678
  414MOL0     H55832   3.698   0.780   5.013 -0.5489 -1.2196 -0.6384
  414MOL0     H55833   3.469   0.893   4.994  1.6272  1.3246 -3.1557
  414MOL0     H55834   3.505   0.786   4.857 -0.3390 -2.4915 -0.0067
  414MOL0     H55835   3.353   0.625   4.959 -1.3262 -1.2757  1.6520
  414MOL0     H55836   3.338   0.732   5.095  3.3836 -0.2589 -0.3855
  414MOL0     H55837   3.228   0.906   4.945 -4.2511 -0.2290  3.1004
  414MOL0     H55838   3.222   0.776   4.822 -0.9127 -1.3336  0.4386
  414MOL0     H55839   3.031   0.814   4.982  3.1549  1.3287 -1.6239
  414MOL0     H55840   3.123   0.731   5.107 -3.3007 -2.8639  1.0213
  414MOL0     H55841   2.950   0.639   4.766  0.4348 -0.5551 -0.9108
  414MOL0     H55842   2.938   0.417   4.634 -1.6414  1.7416  2.0640
  414MOL0     H55843   3.015   0.261   4.710  1.3754  0.7284  1.8588
  414MOL0     H55844   2.798   0.246   4.670  1.9495 -1.0841  0.2177
  414MOL0     H55845   2.755   0.369   4.791 -2.1047 -0.7456 -0.5612
  414MOL0     H55846   2.857   0.243   4.967 -0.6586 -1.1450  1.9933
  414MOL0     H55847   2.928   0.119   4.861 -0.4555 -0.1383 -0.6280
  414MOL0     H55848   2.733   0.018   4.938  0.6478 -0.0766 -0.3986
  414MOL0     H55849   2.708   0.051   4.776 -0.4801  0.9920 -0.1596
  414MOL0     H55850   2.509  -0.054   4.835 -1.2639 -1.0700 -2.8399
  414MOL0     H55851   2.353  -0.222   4.810  0.1900  0.1379  2.1986
  414MOL0     H55852   2.196  -0.219   4.880 -0.2887 -2.3057 -2.6266
  414MOL0     H55853   2.212  -0.154   4.728 -1.1985 -0.7562  0.3506
  414MOL0     H55854   1.953   0.206   5.306 -0.6394  0.9586 -1.8657
  414MOL0     H55855   1.708   0.253   5.375  0.5738 -0.4789 -0.8587
  414MOL0     H55856   1.508   0.257   5.438  0.9692  1.0349  0.0012
  414MOL0     H55857   1.495   0.369   5.301 -1.3094  0.4167  1.7814
  414MOL0     H55858   1.292   0.378   5.430  1.9173  2.2547 -0.3578
  414MOL0     H55859   1.254   0.308   5.277 -1.0461  3.0861  3.0183
  414MOL0     H55860   1.267   0.077   5.382  0.0217 -1.6840 -0.2813
  414MOL0     H55861   1.133   0.186   5.424 -0.0175  3.0885  2.3342
  414MOL0     H55862   1.382   0.116   5.567  0.6509  0.5089 -0.5729
  414MOL0     H55863   1.283   0.250   5.643  0.2027 -1.4169  3.1634
  414MOL0     H55864   1.170  -0.023   5.601 -2.3264  1.7449 -0.9852
  414MOL0     H55865   1.113   0.106   5.703  2.4625  1.5140  1.8268
  414MOL0     H55866   1.210  -0.065   5.822  0.5243 -0.0337  0.7713
  414MOL0     H55867   1.366  -0.057   5.742 -2.7168 -2.8114 -1.7721
  414MOL0     H55868   1.228   0.152   5.924 -0.7284 -1.6895  1.0916
  414MOL0     H55869   1.380   0.195   5.833  0.0500 -1.9408 -1.8003
  414MOL0     H55870   1.424   0.152   6.055  1.1166  0.9325 -1.0225
  414MOL0     H55871   1.504   0.030   5.963  1.1205  1.1208  2.0387
  414MOL0     H55872   1.559   0.047   5.039 -0.5838 -1.2185  0.7852
  414MOL0     H55873   1.783  -0.022   4.964 -2.0746 -0.0784 -0.1225
  414MOL0     H55874   2.219   0.241   5.095  2.8521  0.4101  2.9776
  414MOL0     H55875   2.453   0.300   5.061  1.7811 -1.0385 -0.9672
  414MOL0     H55876   3.802   0.777   5.466  0.2364 -1.4280  1.3201
  414MOL0     H55877   3.974   0.860   5.590 -1.4765 -0.2708 -0.9678
  414MOL0     H55878   4.415   0.872   5.719 -5.1187  0.4456 -2.4513
  414MOL0     H55879   4.607   0.964   5.841 -1.6166  0.4879  4.3804
  414MOL0     H55880   4.610   1.431   5.886  1.0463  0.5845 -3.3937
  414MOL0     H55881   4.736   1.367   5.995 -1.0078 -0.0729 -0.1416
  414MOL0     H55882   4.750   1.341   5.681  1.8929  0.9672 -1.5642
  414MOL0     H55883   4.870   1.289   5.812  1.2776  1.2510  0.5867
  414MOL0     H55884   4.930   1.507   5.875 -2.3634 -0.8090  2.1266
  414MOL0     H55885   4.797   1.576   5.772  0.4904 -0.4649  0.6201
  414MOL0     H55886   5.027   1.403   5.687  2.2137  1.7621  1.0481
  414MOL0     H55887   5.032   1.579   5.680  3.4747 -2.2173 -1.2171
  414MOL0     H55888   4.838   1.535   5.323  2.2737  0.1672 -2.4764
  414MOL0     H55889   4.461   1.363   5.759 -2.5977  0.0573 -1.1485
  414MOL0     H55890   4.277   1.271   5.631 -0.2146 -0.6406 -2.6072
  415MOL0     O55891   0.962   6.533   6.661 -0.3633 -0.4545  0.7139
  415MOL0     C55892   0.915   6.464   6.570 -0.3023  0.1887  0.4753
  415MOL0     O55893   0.792   6.484   6.510  0.3970 -0.2185 -0.3525
  415MOL0     C55894   0.709   6.589   6.558 -0.3411  0.0288  0.4577
  415MOL0     C55895   0.678   6.605   6.697 -0.2143  0.7010 -0.5594
  415MOL0     C55896   0.588   6.701   6.738  0.2607 -0.4495  1.2114
  415MOL0     C55897   0.520   6.785   6.642  0.4877  0.2738 -0.1414
  415MOL0     O55898   0.427   6.875   6.694  0.6916  0.7619  0.1991
  415MOL0     C55899   0.351   6.959   6.604 -0.0475  0.1179 -0.2606
  415MOL0     C55900   0.275   7.065   6.675  0.4405 -0.2558 -1.0618
  415MOL0     C55901   0.370   7.135   6.775 -0.2806 -0.4495 -0.0219
  415MOL0     C55902   0.291   7.232   6.863  0.7229  0.2370 -0.1918
  415MOL0     C55903   0.376   7.316   6.951 -0.0746 -0.4049  0.3512
  415MOL0     C55904   0.315   7.381   7.073 -0.2269 -0.1161 -0.3601
  415MOL0     C55905   0.423   7.410   7.182 -0.9440 -0.3851 -0.5650
  415MOL0     C55906   0.512   7.533   7.154  1.3791  0.9367  0.1364
  415MOL0     N55907   0.451   7.659   7.105  0.3627  0.1921  0.0990
  415MOL0     C55908   0.408   7.684   6.973  0.0641  0.2038  1.6078
  415MOL0     C55909   0.331   7.794   6.991 -0.3015 -0.0357  0.0735
  415MOL0     C55910   0.249   7.852   6.879 -1.0384  0.3839  0.3418
  415MOL0     C55911   0.120   7.764   6.848  0.1650 -0.2709 -0.1833
  415MOL0     C55912  -0.005   7.833   6.795 -0.0266 -0.8770  0.6680
  415MOL0     C55913  -0.066   7.934   6.895 -0.5523 -0.1556  0.4926
  415MOL0     O55914  -0.142   7.870   7.006  0.2499 -0.3365 -0.4013
  415MOL0     C55915  -0.276   7.849   6.994 -0.1997 -1.2025  0.2941
  415MOL0     C55916  -0.342   7.862   7.120 -0.3368  0.1975  0.0609
  415MOL0     C55917  -0.481   7.843   7.129 -0.5529  0.3038  0.0421
  415MOL0     C55918  -0.544   7.855   7.261  0.2525  0.5005 -0.8695
  415MOL0     C55919  -0.556   7.815   7.010  0.2999  0.9080 -0.6592
  415MOL0     C55920  -0.706   7.804   7.009  0.0483  0.4508 -0.4200
  415MOL0     O55921  -0.765   7.807   6.883  0.1399  0.2960  0.1087
  415MOL0     C55922  -0.895   7.794   6.860  1.2637  0.3372 -0.4489
  415MOL0     C55923  -0.968   7.692   6.931  0.4546  0.6035  1.0620
  415MOL0     C55924  -1.109   7.692   6.923  0.4664  0.3137 -0.4441
  415MOL0     C55925  -1.185   7.786   6.861  0.0979 -0.6731 -0.2184
  415MOL0     O55926  -1.318   7.780   6.878  0.1040 -0.7829  0.1103
  415MOL0     C55927  -1.390   7.906   6.843 -0.0883  0.2817 -0.0148
  415MOL0     C55928  -1.534   7.936   6.891 -0.0858  0.1009 -0.3998
  415MOL0     C55929  -1.635   7.845   6.826 -0.4916  0.6148  0.9305
  415MOL0     C55930  -1.772   7.857   6.888 -0.2797 -0.4466 -1.0568
  415MOL0     C55931  -1.884   7.791   6.809  0.1952  0.3592 -0.5334
  415MOL0     C55932  -1.918   7.849   6.678  0.1608  0.6482  0.5724
  415MOL0     C55933  -1.956   7.998   6.677  0.1731 -0.4120  0.0380
  415MOL0     C55934  -1.849   8.116   6.661 -0.0343 -0.1743  0.5523
  415MOL0    Cl55935  -1.918   8.269   6.711 -0.0573  0.3971  0.6814
  415MOL0     C55936  -1.110   7.877   6.776  0.8606  0.9251 -0.9035
  415MOL0     C55937  -0.972   7.880   6.777 -0.1003 -0.3891 -0.2932
  415MOL0     O55938  -0.765   7.797   7.118 -0.0497  0.3827 -0.4966
  415MOL0     C55939  -0.487   7.808   6.891 -0.4844 -1.0340  0.2096
  415MOL0     C55940  -0.345   7.825   6.882  0.3455 -0.1735 -0.7443
  415MOL0     N55941   0.323   7.829   7.125  0.1675 -0.3305 -0.8102
  415MOL0     N55942   0.403   7.746   7.195  0.2691 -0.3832 -0.2711
  415MOL0     C55943   0.552   6.779   6.511 -0.2735 -0.2911 -0.3849
  415MOL0     C55944   0.648   6.682   6.470  0.8232  0.4923  0.2398
  415MOL0     C55945   0.992   6.348   6.503  1.1679  0.2096  0.0786
  415MOL0     C55946   1.118   6.316   6.554 -1.3530 -0.1121  0.1489
  415MOL0     C55947   1.195   6.213   6.499 -0.8570  0.0459 -0.6371
  415MOL0     C55948   1.159   6.149   6.381  0.3122  1.2751  0.4265
  415MOL0     O55949   1.244   6.055   6.329  0.6246  1.2350 -0.2010
  415MOL0     C55950   1.259   6.060   6.185  0.2488  0.0834  0.3103
  415MOL0     C55951   1.362   6.173   6.150 -0.2424  0.6452 -0.6451
  415MOL0     C55952   1.491   6.174   6.245  0.2729 -0.2647  0.0349
  415MOL0     C55953   1.620   6.214   6.177  0.2143  0.4980  0.6069
  415MOL0     C55954   1.623   6.358   6.160  0.1319  0.2471 -0.5615
  415MOL0     C55955   1.623   6.482   6.147  0.0680 -0.4956  0.0657
  415MOL0     C55956   1.027   6.175   6.328 -0.1261 -1.2373  0.1218
  415MOL0     C55957   0.947   6.275   6.386 -0.6960 -0.1519 -0.3117
  415MOL0     H55958   0.732   6.546   6.770  0.5692  3.3799  1.1934
  415MOL0     H55959   0.550   6.709   6.840 -0.3709  0.0841  0.9442
  415MOL0     H55960   0.423   7.012   6.541  0.0435  0.5012  0.1629
  415MOL0     H55961   0.286   6.893   6.546 -0.4401 -2.3234  2.7101
  415MOL0     H55962   0.239   7.140   6.605  1.0551  0.9504 -0.1257
  415MOL0     H55963   0.184   7.022   6.718  0.9296  2.3168  3.2337
  415MOL0     H55964   0.428   7.067   6.838  2.0436  0.8197 -0.6658
  415MOL0     H55965   0.448   7.195   6.727  2.8680 -0.2465  4.6598
  415MOL0     H55966   0.223   7.292   6.802  2.4415  1.5203 -0.9373
  415MOL0     H55967   0.215   7.175   6.918  0.5498  0.9410  0.3231
  415MOL0     H55968   0.449   7.239   6.978 -0.6309 -0.6801  1.1181
  415MOL0     H55969   0.432   7.396   6.901  0.0859 -0.9481 -0.3391
  415MOL0     H55970   0.260   7.473   7.049 -2.5034 -0.8178  1.8253
  415MOL0     H55971   0.247   7.312   7.122  1.3874 -0.7153  1.1402
  415MOL0     H55972   0.374   7.434   7.277  1.4609  1.4688  0.3401
  415MOL0     H55973   0.485   7.320   7.182 -0.9905 -0.4533 -2.2297
  415MOL0     H55974   0.585   7.490   7.086  1.3364  0.4275  0.4069
  415MOL0     H55975   0.553   7.548   7.255  0.6490  0.1158  0.5708
  415MOL0     H55976   0.418   7.623   6.883  1.2186 -2.4328  3.3981
  415MOL0     H55977   0.213   7.953   6.901  0.1893  0.9602 -0.2132
  415MOL0     H55978   0.310   7.861   6.789 -0.1638 -2.7540  0.4986
  415MOL0     H55979   0.080   7.705   6.932  0.4518  0.0875  0.2115
  415MOL0     H55980   0.159   7.698   6.770  0.5176  0.2758 -0.4720
  415MOL0     H55981  -0.077   7.758   6.761  0.7927 -0.2652 -2.8317
  415MOL0     H55982   0.007   7.883   6.698 -1.9959 -1.6445 -0.0311
  415MOL0     H55983  -0.129   8.009   6.845  0.3045  2.1977  2.7492
  415MOL0     H55984   0.006   8.005   6.937  2.2658 -3.2434  1.3339
  415MOL0     H55985  -0.290   7.879   7.214 -0.4430 -2.0672  0.5955
  415MOL0     H55986  -0.629   7.925   7.263 -2.1119 -2.2065  0.4207
  415MOL0     H55987  -0.582   7.758   7.294 -1.1263  1.6764  1.3051
  415MOL0     H55988  -0.473   7.889   7.337  1.8966 -0.5819 -1.8539
  415MOL0     H55989  -0.912   7.619   6.989 -0.1714 -0.9720 -0.2143
  415MOL0     H55990  -1.168   7.615   6.972 -0.1893  2.5040  2.4848
  415MOL0     H55991  -1.326   7.991   6.869  0.1527  0.3476 -0.8049
  415MOL0     H55992  -1.394   7.911   6.734 -1.3885 -3.2240 -0.2710
  415MOL0     H55993  -1.538   7.924   7.000 -1.3077  1.1375 -0.3103
  415MOL0     H55994  -1.563   8.039   6.872 -0.3093 -0.1681 -1.6247
  415MOL0     H55995  -1.604   7.741   6.810 -0.0643  1.2240 -3.3819
  415MOL0     H55996  -1.636   7.882   6.723  0.7189  0.0317  0.6857
  415MOL0     H55997  -1.774   7.817   6.990  4.3296 -0.1291 -0.6465
  415MOL0     H55998  -1.802   7.962   6.884 -1.4111 -0.7672 -1.5575
  415MOL0     H55999  -1.978   7.800   6.864  0.1773  3.3916 -0.9233
  415MOL0     H56000  -1.876   7.684   6.786 -3.8020 -0.1271 -0.3041
  415MOL0     H56001  -1.840   7.841   6.601  1.6099  1.3137  1.9265
  415MOL0     H56002  -2.002   7.784   6.650  0.4751 -0.5598  2.3151
  415MOL0     H56003  -2.005   8.025   6.771  1.8677  0.0145  0.8530
  415MOL0     H56004  -2.023   8.011   6.593  0.1459 -1.4123 -0.1136
  415MOL0     H56005  -1.814   8.120   6.558 -0.5221 -0.1623  0.3871
  415MOL0     H56006  -1.766   8.100   6.731 -0.0016 -0.9728  0.3411
  415MOL0     H56007  -1.166   7.942   6.711  0.8563  0.3540 -1.4823
  415MOL0     H56008  -0.929   7.964   6.724  2.5262 -0.2356  1.8732
  415MOL0     H56009  -0.537   7.795   6.796 -5.3535 -2.0453  2.5668
  415MOL0     H56010  -0.289   7.815   6.790  2.6236  1.3567  0.3983
  415MOL0     H56011   0.503   6.834   6.431  0.1633 -2.0176 -1.9096
  415MOL0     H56012   0.674   6.669   6.365  0.6490  0.5016  0.1952
  415MOL0     H56013   1.146   6.378   6.639 -0.1336  0.8648 -0.9079
  415MOL0     H56014   1.294   6.184   6.534 -0.5460 -1.7558 -2.7751
  415MOL0     H56015   1.301   5.967   6.146  0.0087  0.2431 -0.3487
  415MOL0     H56016   1.169   6.074   6.123  1.7860 -0.2015 -2.1072
  415MOL0     H56017   1.325   6.276   6.142  2.9916  1.8063 -4.2120
  415MOL0     H56018   1.376   6.144   6.045 -2.5375 -0.9311 -0.5780
  415MOL0     H56019   1.504   6.069   6.274 -1.3779 -0.4216  0.2885
  415MOL0     H56020   1.465   6.242   6.326 -1.6531  0.0979 -0.8407
  415MOL0     H56021   1.607   6.179   6.074 -1.1463  3.7880 -0.4754
  415MOL0     H56022   1.704   6.179   6.236 -2.9388 -2.3127  3.9005
  415MOL0     H56023   1.635   6.589   6.141  2.8999 -0.7232  0.4383
  415MOL0     H56024   0.991   6.122   6.240  0.2567 -2.7793  0.8590
  415MOL0     H56025   0.848   6.300   6.349 -0.2320 -1.2314 -2.4617
  416MOL0     O56026  10.963   1.506   9.680  0.3597  0.3635  0.0505
  416MOL0     C56027  11.027   1.464   9.778 -0.0926 -0.4982 -0.2938
  416MOL0     O56028  10.971   1.399   9.893  0.0993 -0.8591  0.3177
  416MOL0     C56029  10.835   1.404   9.907 -0.3382 -0.3608 -0.6621
  416MOL0     C56030  10.757   1.524   9.888 -0.4859  0.4513 -0.2626
  416MOL0     C56031  10.620   1.530   9.918  0.3616  0.4867  0.3505
  416MOL0     C56032  10.557   1.416   9.967 -0.6163  0.7101  0.0612
  416MOL0     O56033  10.422   1.429  10.004  0.0277 -0.5926 -0.2369
  416MOL0     C56034  10.371   1.342  10.106  0.3970 -0.7362  1.1090
  416MOL0     C56035  10.231   1.375  10.125  0.8917 -0.1616  0.6474
  416MOL0     C56036  10.164   1.281  10.218  0.5641 -0.1582 -0.2125
  416MOL0     C56037  10.010   1.308  10.207 -0.6233 -0.7750  0.4229
  416MOL0     C56038   9.935   1.211  10.298  0.1960  0.1504 -0.1192
  416MOL0     C56039   9.783   1.231  10.308 -0.5755  0.3323  0.7396
  416MOL0     C56040   9.747   1.356  10.393  0.1308  1.0003 -0.0738
  416MOL0     C56041   9.601   1.403  10.384  0.4479  0.1364  0.6669
  416MOL0     N56042   9.498   1.309  10.431  0.0567 -0.7195 -0.6305
  416MOL0     C56043   9.471   1.187  10.378 -0.2616  0.5670  0.4458
  416MOL0     C56044   9.386   1.122  10.459 -0.2647  0.0564 -0.3299
  416MOL0     C56045   9.341   0.981  10.427  0.1142 -0.4261  0.1654
  416MOL0     C56046   9.231   0.971  10.325  0.4018  0.7312  0.0468
  416MOL0     C56047   9.266   0.989  10.181 -1.4601  0.5920 -0.7460
  416MOL0     C56048   9.144   1.001  10.097  0.0198 -0.5182 -0.1784
  416MOL0     O56049   9.066   0.880  10.111 -0.0535  0.4435 -0.3533
  416MOL0     C56050   8.953   0.879  10.046  0.6035  1.3912 -0.0027
  416MOL0     C56051   8.852   0.785  10.090  0.2544  0.1204  0.0905
  416MOL0     C56052   8.724   0.779  10.021  0.4826 -0.0186 -0.2946
  416MOL0     C56053   8.621   0.676  10.069 -0.9410  0.0438  0.7119
  416MOL0     C56054   8.706   0.859   9.907  0.6691  0.1288 -0.1453
  416MOL0     C56055   8.583   0.850   9.816 -0.1569 -0.0107 -0.9142
  416MOL0     O56056   8.470   0.822   9.879  0.6248  0.4841 -0.4570
  416MOL0     C56057   8.349   0.857   9.828  0.8862  0.2537 -0.6814
  416MOL0     C56058   8.320   0.967   9.739  1.4557  0.1493  0.1837
  416MOL0     C56059   8.188   0.995   9.686  0.0752  0.0834 -0.3211
  416MOL0     C56060   8.089   0.906   9.716  0.7030 -0.0888 -0.6785
  416MOL0     O56061   7.964   0.906   9.663 -0.2365 -0.4390 -0.7122
  416MOL0     C56062   7.935   1.008   9.564 -0.1058  0.3010 -0.3285
  416MOL0     C56063   7.809   0.950   9.499 -0.8510  0.1109  0.1833
  416MOL0     C56064   7.750   1.058   9.412 -0.1730  0.4795  0.2624
  416MOL0     C56065   7.634   1.002   9.343  1.0548  0.6687  0.1119
  416MOL0     C56066   7.497   1.077   9.371  0.9594 -0.4725  0.4194
  416MOL0     C56067   7.376   1.051   9.270 -0.1148 -0.0993 -0.9809
  416MOL0     C56068   7.337   0.906   9.255 -0.0971 -0.5113 -0.3634
  416MOL0     C56069   7.385   0.851   9.120 -0.2947  0.5711 -0.5274
  416MOL0    Cl56070   7.281   0.913   8.984  0.2849  0.4886 -0.4847
  416MOL0     C56071   8.118   0.800   9.808 -0.9520 -0.2690  0.4557
  416MOL0     C56072   8.242   0.778   9.868  0.2547  0.2448  0.0676
  416MOL0     O56073   8.598   0.866   9.693 -0.3502  0.1249 -0.0269
  416MOL0     C56074   8.801   0.942   9.859 -0.4575 -0.3505 -1.0369
  416MOL0     C56075   8.922   0.957   9.931 -0.2195 -0.5121 -0.3713
  416MOL0     N56076   9.350   1.209  10.563 -0.1706  0.2137  0.0848
  416MOL0     N56077   9.428   1.315  10.552 -0.2040 -0.5541 -0.1726
  416MOL0     C56078  10.631   1.300   9.997  0.3378 -0.0431 -0.3260
  416MOL0     C56079  10.771   1.292   9.974 -0.2478 -0.6350  0.2611
  416MOL0     C56080  11.173   1.463   9.753  0.3126  0.8161 -0.6394
  416MOL0     C56081  11.260   1.421   9.850  0.5436  0.4275  0.1565
  416MOL0     C56082  11.396   1.390   9.833  0.1707  0.4242 -0.5460
  416MOL0     C56083  11.456   1.420   9.710  0.0242 -0.3197 -0.3949
  416MOL0     O56084  11.589   1.405   9.688  0.6691  0.3010  0.8050
  416MOL0     C56085  11.667   1.313   9.770  0.4641 -0.0233  0.2254
  416MOL0     C56086  11.800   1.375   9.786  0.4549 -0.4061  0.1389
  416MOL0     C56087  11.889   1.277   9.855  0.2682  0.0716 -0.1046
  416MOL0     C56088  12.026   1.321   9.835 -0.5498 -1.6239 -0.4973
  416MOL0     C56089  12.122   1.274   9.926 -0.3122  0.0507 -0.7695
  416MOL0     C56090  12.193   1.237  10.017 -0.5733 -0.2304  0.2334
  416MOL0     C56091  11.376   1.471   9.606 -0.3481  0.0029 -0.0999
  416MOL0     C56092  11.237   1.486   9.630 -0.1018 -0.7051 -0.3167
  416MOL0     H56093  10.803   1.614   9.849 -2.8012  2.3533  1.1023
  416MOL0     H56094  10.564   1.621   9.899  0.2882  0.3269 -0.2313
  416MOL0     H56095  10.373   1.235  10.086  3.0493 -1.2411  3.4956
  416MOL0     H56096  10.425   1.359  10.199  3.4191 -1.9343 -0.2736
  416MOL0     H56097  10.226   1.472  10.175 -2.2601  0.6296 -0.9049
  416MOL0     H56098  10.171   1.368  10.034  0.6250  0.7964  0.7398
  416MOL0     H56099  10.181   1.178  10.188 -0.2823 -0.5053  0.4707
  416MOL0     H56100  10.196   1.308  10.319  0.8598 -1.4126  0.0398
  416MOL0     H56101  10.006   1.414  10.234  2.4312 -0.1952 -1.0149
  416MOL0     H56102   9.975   1.291  10.105 -0.2206  2.1355 -0.2782
  416MOL0     H56103   9.951   1.106  10.274 -0.6968 -0.5035  1.9691
  416MOL0     H56104   9.975   1.216  10.399  0.4480  0.1866 -0.2208
  416MOL0     H56105   9.732   1.225  10.212  1.1249  2.0982 -0.3615
  416MOL0     H56106   9.747   1.143  10.362  2.1415 -1.4500 -0.1102
  416MOL0     H56107   9.787   1.327  10.491 -2.5115  2.3049  1.5019
  416MOL0     H56108   9.808   1.441  10.360  2.2499 -0.8126 -1.1331
  416MOL0     H56109   9.568   1.408  10.279 -1.9047  4.2349  1.3883
  416MOL0     H56110   9.569   1.495  10.432 -0.5836  0.2537 -0.1909
  416MOL0     H56111   9.521   1.138  10.295 -0.9316 -0.4414  0.6154
  416MOL0     H56112   9.419   0.914  10.388  0.3055  0.5377 -1.1686
  416MOL0     H56113   9.320   0.934  10.523  0.1820  1.4224  1.1301
  416MOL0     H56114   9.158   1.044  10.358  0.9905  0.7108  1.4585
  416MOL0     H56115   9.185   0.872  10.336 -0.5538  1.0988 -0.5061
  416MOL0     H56116   9.323   0.900  10.154 -2.7813 -0.7049  0.5423
  416MOL0     H56117   9.313   1.086  10.161  1.6129 -1.1385 -2.7929
  416MOL0     H56118   9.189   1.018   9.999 -2.0752 -0.5713 -1.1921
  416MOL0     H56119   9.093   1.097  10.113  0.9266 -0.3205  1.9250
  416MOL0     H56120   8.870   0.714  10.171 -0.6168 -1.3377 -0.9306
  416MOL0     H56121   8.655   0.613  10.151  1.3557 -2.0121 -1.6255
  416MOL0     H56122   8.529   0.726  10.100 -1.0617  0.9837 -1.0025
  416MOL0     H56123   8.599   0.612   9.983  0.2539 -2.0547  1.8972
  416MOL0     H56124   8.403   1.027   9.703  1.0342 -0.8501 -2.7420
  416MOL0     H56125   8.179   1.085   9.626  2.0100  1.2015  0.9233
  416MOL0     H56126   7.926   1.103   9.618  2.4531 -1.0751  2.9315
  416MOL0     H56127   8.015   1.015   9.490  1.0268  1.6761  0.9691
  416MOL0     H56128   7.838   0.860   9.444  2.8474 -0.0894  2.1850
  416MOL0     H56129   7.735   0.913   9.571 -1.7832  0.4741 -0.5560
  416MOL0     H56130   7.823   1.092   9.337  2.2655 -1.2098  1.7391
  416MOL0     H56131   7.728   1.140   9.481 -1.4086 -0.6344  1.2410
  416MOL0     H56132   7.662   0.997   9.237  1.1609  2.8820 -0.0128
  416MOL0     H56133   7.614   0.899   9.375 -0.5734  2.1433  4.4231
  416MOL0     H56134   7.518   1.184   9.377  1.1664 -0.4724 -0.2394
  416MOL0     H56135   7.469   1.055   9.474 -0.5959  0.6193  0.2676
  416MOL0     H56136   7.293   1.101   9.319  0.5310  2.8268 -2.6292
  416MOL0     H56137   7.387   1.105   9.176  1.5824  0.7083 -0.3605
  416MOL0     H56138   7.228   0.905   9.249 -0.0421  0.8769 -2.2799
  416MOL0     H56139   7.375   0.835   9.330 -0.1299 -2.3515 -2.0095
  416MOL0     H56140   7.370   0.743   9.128 -2.8992  1.0012  3.4881
  416MOL0     H56141   7.490   0.879   9.108 -0.0034  0.3823  1.3001
  416MOL0     H56142   8.029   0.749   9.845 -2.6598 -0.8479 -3.8883
  416MOL0     H56143   8.246   0.710   9.953  0.0531  2.2183  1.7449
  416MOL0     H56144   8.790   1.010   9.774 -0.2393  1.0491  0.0218
  416MOL0     H56145   8.981   1.037   9.887 -0.9976  0.4117  0.2010
  416MOL0     H56146  10.591   1.214  10.050  0.1408  0.8933  1.0945
  416MOL0     H56147  10.823   1.203  10.008  1.2874  0.8210  2.0419
  416MOL0     H56148  11.223   1.416   9.952 -0.4488  0.0687 -0.2073
  416MOL0     H56149  11.446   1.358   9.924 -0.4605 -0.1581 -0.3961
  416MOL0     H56150  11.632   1.286   9.870 -0.6958  0.8133  0.0671
  416MOL0     H56151  11.674   1.221   9.711 -2.6677  0.1032 -0.5414
  416MOL0     H56152  11.793   1.465   9.848  3.0742  0.8866 -1.3213
  416MOL0     H56153  11.823   1.415   9.687 -5.2587  0.5725 -1.1875
  416MOL0     H56154  11.887   1.180   9.804  1.7675  0.1232 -0.3145
  416MOL0     H56155  11.869   1.258   9.961  2.6243 -0.9050  0.2360
  416MOL0     H56156  12.014   1.426   9.864 -0.3766 -1.4677 -0.9747
  416MOL0     H56157  12.058   1.321   9.730 -0.1556  1.6923 -0.4943
  416MOL0     H56158  12.256   1.196  10.093 -0.4586  2.3362  1.6247
  416MOL0     H56159  11.425   1.495   9.512  0.8730 -0.1142  0.4929
  416MOL0     H56160  11.177   1.515   9.544  2.4647 -0.1071 -1.9953
  417MOL0     O56161   2.064   2.816   4.649 -0.1362  0.1560 -0.0742
  417MOL0     C56162   2.122   2.924   4.634 -0.1955 -0.2207  0.8543
  417MOL0     O56163   2.057   3.039   4.593  0.2217 -0.3704  0.6350
  417MOL0     C56164   1.914   3.013   4.575 -1.0307 -0.4730  0.4633
  417MOL0     C56165   1.813   3.077   4.649 -0.2951  0.2608 -0.1988
  417MOL0     C56166   1.680   3.053   4.620  0.1995  0.4078  0.0455
  417MOL0     C56167   1.635   2.971   4.513 -0.4120  0.2634  0.1663
  417MOL0     O56168   1.495   2.966   4.483 -0.3549  0.0128  0.8303
  417MOL0     C56169   1.402   3.052   4.550  0.0032  0.9776 -0.1971
  417MOL0     C56170   1.269   3.059   4.474  0.3543 -0.1382 -0.7511
  417MOL0     C56171   1.204   2.926   4.468 -0.0205  0.7092  0.4422
  417MOL0     C56172   1.089   2.930   4.375 -0.7785 -0.6689  0.9450
  417MOL0     C56173   1.016   2.791   4.373 -0.0646  0.3582  0.0597
  417MOL0     C56174   0.878   2.809   4.320 -0.3551 -0.2714 -0.3950
  417MOL0     C56175   0.807   2.678   4.287  0.3771 -0.0293 -0.5410
  417MOL0     C56176   0.678   2.716   4.221  1.2899  0.7904  0.7435
  417MOL0     N56177   0.617   2.589   4.182  0.3809  0.8977 -0.2412
  417MOL0     C56178   0.610   2.473   4.261  0.8821 -0.0388 -0.8656
  417MOL0     C56179   0.545   2.383   4.180  0.2812  0.4429 -0.2170
  417MOL0     C56180   0.492   2.247   4.206  0.7691  0.1158 -0.4755
  417MOL0     C56181   0.477   2.206   4.356  0.1661  0.6991 -0.0271
  417MOL0     C56182   0.420   2.065   4.383  0.9354  0.5891 -0.7992
  417MOL0     C56183   0.268   2.068   4.377 -0.0728 -0.3001 -0.4590
  417MOL0     O56184   0.228   1.928   4.388  0.4618 -0.0974  0.1431
  417MOL0     C56185   0.085   1.907   4.386  0.2140  0.5034 -0.6103
  417MOL0     C56186   0.024   1.833   4.485  0.4444  0.5189  0.0672
  417MOL0     C56187  -0.108   1.779   4.462 -0.3811 -0.7877  0.2749
  417MOL0     C56188  -0.164   1.691   4.563  0.5824 -0.4789 -1.1380
  417MOL0     C56189  -0.178   1.813   4.345  0.0816  0.8689 -0.3489
  417MOL0     C56190  -0.327   1.782   4.321 -0.1975 -0.1015 -0.3243
  417MOL0     O56191  -0.396   1.874   4.232  0.6546  0.9720  0.0916
  417MOL0     C56192  -0.516   1.838   4.174 -0.2430 -0.0984 -0.3884
  417MOL0     C56193  -0.510   1.738   4.073 -0.2976 -0.0878  0.2358
  417MOL0     C56194  -0.628   1.705   4.001  0.4470  0.5298 -0.2375
  417MOL0     C56195  -0.749   1.766   4.039 -0.6122  0.0138 -0.3971
  417MOL0     O56196  -0.860   1.725   3.979 -0.2131 -0.2677 -0.4666
  417MOL0     C56197  -0.955   1.829   3.955 -0.4307 -0.5113 -0.2860
  417MOL0     C56198  -1.063   1.801   3.860 -0.0983  0.9539  1.2581
  417MOL0     C56199  -1.176   1.702   3.897 -0.9820  1.0408 -1.0774
  417MOL0     C56200  -1.283   1.707   3.794 -0.8132 -0.2962  0.2952
  417MOL0     C56201  -1.417   1.634   3.836  0.0078 -0.0246  0.5913
  417MOL0     C56202  -1.522   1.653   3.721  0.3736  0.0226  0.2948
  417MOL0     C56203  -1.661   1.616   3.763 -0.6192 -0.9269 -0.0377
  417MOL0     C56204  -1.773   1.664   3.669 -0.6874 -0.0235  0.0675
  417MOL0    Cl56205  -1.918   1.604   3.739 -0.2018 -0.0551  0.4390
  417MOL0     C56206  -0.752   1.863   4.138 -0.6820  0.3251 -0.1211
  417MOL0     C56207  -0.638   1.896   4.209  0.5933  0.2549 -0.4501
  417MOL0     O56208  -0.375   1.677   4.360 -0.4841  0.1306  0.5318
  417MOL0     C56209  -0.119   1.896   4.253 -0.2511  0.2630 -0.5203
  417MOL0     C56210   0.009   1.938   4.273 -0.2590 -0.7516 -0.3675
  417MOL0     N56211   0.520   2.437   4.057  1.5458  0.3117  0.0463
  417MOL0     N56212   0.569   2.555   4.062 -0.0109 -0.7998 -0.0957
  417MOL0     C56213   1.735   2.927   4.420 -0.8913  0.6859 -0.3476
  417MOL0     C56214   1.875   2.940   4.461  0.4952 -1.2275 -0.0019
  417MOL0     C56215   2.262   2.940   4.682 -1.0250 -0.1420  0.3197
  417MOL0     C56216   2.319   2.853   4.772  0.2708 -0.2917 -0.8040
  417MOL0     C56217   2.453   2.859   4.803 -0.2227 -0.3570 -0.1502
  417MOL0     C56218   2.533   2.974   4.758  0.8277  0.0661 -0.6114
  417MOL0     O56219   2.659   2.970   4.815  0.0812 -0.1604  0.1739
  417MOL0     C56220   2.769   3.033   4.740  1.2020 -0.1384  0.8152
  417MOL0     C56221   2.896   2.981   4.807 -0.0847 -0.1247  0.5423
  417MOL0     C56222   2.920   3.028   4.951  0.3595  0.4432  0.5007
  417MOL0     C56223   3.044   2.960   5.009  0.7799  0.3447 -0.1552
  417MOL0     C56224   3.162   3.029   4.958 -0.1103 -0.6448  0.1152
  417MOL0     C56225   3.253   3.095   4.917  0.4118 -0.4287  0.0103
  417MOL0     C56226   2.478   3.061   4.664 -0.1627 -0.2998  1.0209
  417MOL0     C56227   2.342   3.046   4.623 -0.0348  0.9478  0.3019
  417MOL0     H56228   1.822   3.121   4.748  0.3737 -0.1622 -0.0675
  417MOL0     H56229   1.614   3.080   4.702 -1.4820 -2.0339 -0.3999
  417MOL0     H56230   1.387   3.018   4.652  0.1467  1.7986  0.1053
  417MOL0     H56231   1.433   3.157   4.556 -0.2635  0.9936  1.3970
  417MOL0     H56232   1.196   3.112   4.537  0.4576 -2.2894  1.3326
  417MOL0     H56233   1.277   3.109   4.377 -0.7073 -0.1686 -0.8679
  417MOL0     H56234   1.273   2.844   4.446  0.6026  1.5712 -0.9203
  417MOL0     H56235   1.151   2.905   4.562 -2.3884 -0.1197 -0.9955
  417MOL0     H56236   1.018   2.995   4.426  0.1837 -0.7197  2.4158
  417MOL0     H56237   1.119   2.969   4.277 -2.4988  3.6249  1.9070
  417MOL0     H56238   1.056   2.722   4.298 -0.3789  0.5779 -0.3161
  417MOL0     H56239   1.009   2.745   4.472  1.2828 -2.9266 -1.2048
  417MOL0     H56240   0.813   2.863   4.389 -1.1929 -1.4554 -0.2242
  417MOL0     H56241   0.884   2.873   4.231  1.8444 -0.9759 -0.8272
  417MOL0     H56242   0.871   2.623   4.218  0.5026  3.5097 -3.5562
  417MOL0     H56243   0.805   2.621   4.381  0.1690  0.6272 -0.1366
  417MOL0     H56244   0.696   2.772   4.129  0.7836 -1.0324 -0.5318
  417MOL0     H56245   0.621   2.778   4.290  0.0770 -0.1032  0.5849
  417MOL0     H56246   0.638   2.461   4.366  0.2733  0.5620 -0.6230
  417MOL0     H56247   0.398   2.236   4.153  1.8327 -2.0159 -2.0942
  417MOL0     H56248   0.564   2.177   4.162 -0.3368 -2.6609  1.7644
  417MOL0     H56249   0.425   2.279   4.417  0.7535  0.2448  1.0459
  417MOL0     H56250   0.578   2.212   4.399 -0.9534 -1.3352  3.3126
  417MOL0     H56251   0.447   2.033   4.485 -1.3000  0.9533 -0.0415
  417MOL0     H56252   0.455   1.983   4.320  1.2210  1.6137 -1.9990
  417MOL0     H56253   0.239   2.102   4.277 -0.3325 -0.2056 -0.3518
  417MOL0     H56254   0.225   2.130   4.456  0.6833 -0.5386  0.1563
  417MOL0     H56255   0.082   1.807   4.573  0.6486  1.9629  0.3886
  417MOL0     H56256  -0.244   1.744   4.617  1.5184 -0.0077 -0.1811
  417MOL0     H56257  -0.201   1.593   4.533 -0.6133  0.1242 -1.6968
  417MOL0     H56258  -0.081   1.674   4.632 -1.4328  0.4133  1.7234
  417MOL0     H56259  -0.429   1.668   4.057 -2.4257 -2.4021 -1.2215
  417MOL0     H56260  -0.635   1.618   3.936  2.9124 -0.0160  0.1568
  417MOL0     H56261  -1.005   1.853   4.050  0.8636  1.2998 -0.0131
  417MOL0     H56262  -0.905   1.918   3.915 -0.6326 -0.1173  0.3238
  417MOL0     H56263  -1.113   1.896   3.839 -2.2798  0.2033  2.7380
  417MOL0     H56264  -1.023   1.755   3.769 -1.6126  0.8915  0.5977
  417MOL0     H56265  -1.214   1.738   3.993 -0.9422 -1.4927 -0.0225
  417MOL0     H56266  -1.139   1.600   3.912 -0.7182  1.4058  1.1611
  417MOL0     H56267  -1.315   1.811   3.790  0.5304  0.1517  0.6706
  417MOL0     H56268  -1.233   1.666   3.706 -0.7355  0.2230  0.0962
  417MOL0     H56269  -1.444   1.673   3.934  1.6159 -2.1502  1.9479
  417MOL0     H56270  -1.404   1.531   3.871 -1.0096 -0.0329  0.9961
  417MOL0     H56271  -1.521   1.760   3.699 -0.8530  0.0631  0.3813
  417MOL0     H56272  -1.492   1.600   3.630  1.9763  0.8915  0.2794
  417MOL0     H56273  -1.678   1.665   3.860  2.6598  1.2314 -0.3987
  417MOL0     H56274  -1.662   1.508   3.779 -2.4925 -0.9836 -0.3437
  417MOL0     H56275  -1.767   1.624   3.567 -0.5318 -0.2177  0.1519
  417MOL0     H56276  -1.767   1.773   3.666  2.4481 -0.1012  0.1481
  417MOL0     H56277  -0.848   1.906   4.165  0.5115  0.8488  4.0278
  417MOL0     H56278  -0.637   1.970   4.288 -0.5370 -0.7905  0.5878
  417MOL0     H56279  -0.168   1.917   4.158  2.0905  0.2790 -1.7873
  417MOL0     H56280   0.042   2.009   4.198 -0.8720  0.8839  0.8649
  417MOL0     H56281   1.718   2.855   4.341  1.0030  0.9802 -1.0733
  417MOL0     H56282   1.954   2.898   4.400 -0.9890  0.2061 -3.1360
  417MOL0     H56283   2.258   2.777   4.818  0.6568  0.4645  1.0488
  417MOL0     H56284   2.489   2.797   4.884 -1.3284 -1.4936 -0.4988
  417MOL0     H56285   2.761   3.011   4.633 -0.5022 -0.3075  0.9570
  417MOL0     H56286   2.757   3.139   4.763  0.8312  0.4282 -1.6696
  417MOL0     H56287   2.986   3.002   4.750 -1.0757  1.9005 -0.3849
  417MOL0     H56288   2.887   2.872   4.808  0.5473 -0.1752  0.9587
  417MOL0     H56289   2.831   3.002   5.008 -2.1800  3.9343 -1.4564
  417MOL0     H56290   2.924   3.138   4.954 -1.2896  0.5742 -0.6255
  417MOL0     H56291   3.056   2.853   4.990  3.4326  0.4628  0.3887
  417MOL0     H56292   3.040   2.961   5.118  0.2231 -2.8822 -0.0683
  417MOL0     H56293   3.328   3.167   4.896 -0.5974  0.3721 -0.9746
  417MOL0     H56294   2.542   3.140   4.626 -0.3493 -0.8933 -0.6016
  417MOL0     H56295   2.304   3.103   4.539 -0.6967  1.7915  1.1568
  418MOL0     O56296  11.364  10.602   1.769  0.3000 -0.3981  0.0881
  418MOL0     C56297  11.459  10.646   1.698 -0.6267 -0.6816  0.4648
  418MOL0     O56298  11.452  10.688   1.554  0.2147  0.5339 -0.2113
  418MOL0     C56299  11.333  10.667   1.483  0.1427 -0.4289  0.3521
  418MOL0     C56300  11.321  10.740   1.368  0.4258 -0.1135  0.0269
  418MOL0     C56301  11.206  10.733   1.283 -0.7235 -0.9975  0.0867
  418MOL0     C56302  11.098  10.650   1.318  0.2159 -0.5150 -0.7519
  418MOL0     O56303  10.979  10.650   1.240 -0.7027 -0.3741  0.0642
  418MOL0     C56304  10.896  10.528   1.244 -0.2553 -0.0942  0.3225
  418MOL0     C56305  10.832  10.518   1.102  0.9998  0.7319 -0.2704
  418MOL0     C56306  10.934  10.493   0.993  1.1938  0.2449 -0.0174
  418MOL0     C56307  10.879  10.472   0.859  0.9036  0.0067 -1.1096
  418MOL0     C56308  10.979  10.422   0.752  0.1313 -0.5412 -0.2828
  418MOL0     C56309  10.913  10.383   0.615  0.0957 -0.0809  0.6222
  418MOL0     C56310  11.009  10.333   0.509  0.1609  0.6466 -0.3755
  418MOL0     C56311  11.116  10.436   0.472 -0.2383  0.8068  0.3003
  418MOL0     N56312  11.165  10.429   0.336  0.5247 -0.5279  0.3079
  418MOL0     C56313  11.197  10.534   0.255 -0.3667  0.4127  0.0552
  418MOL0     C56314  11.240  10.473   0.146  0.5849  0.1863  0.4688
  418MOL0     C56315  11.297  10.548   0.021  0.8570  0.4754 -0.2876
  418MOL0     C56316  11.180  10.616  -0.067  0.2391  0.3015 -0.2685
  418MOL0     C56317  11.238  10.683  -0.191 -0.4079  1.2324 -0.5419
  418MOL0     C56318  11.141  10.765  -0.277  1.0462  0.6770  0.4262
  418MOL0     O56319  11.069  10.671  -0.360  0.2218 -0.3248  0.4847
  418MOL0     C56320  10.955  10.718  -0.420  0.2947 -0.3535  0.0566
  418MOL0     C56321  10.898  10.854  -0.412  1.0269 -0.0562  0.4095
  418MOL0     C56322  10.792  10.887  -0.495 -0.0083 -0.0672 -0.8866
  418MOL0     C56323  10.743  11.029  -0.486  0.0296  0.4253 -0.3655
  418MOL0     C56324  10.738  10.795  -0.586  0.0110 -0.2042  0.4812
  418MOL0     C56325  10.627  10.813  -0.684 -0.0253 -0.0377 -0.2496
  418MOL0     O56326  10.543  10.911  -0.646  0.1547  0.6710  0.8232
  418MOL0     C56327  10.475  10.980  -0.746 -0.1339 -0.1190  0.2677
  418MOL0     C56328  10.450  11.122  -0.730 -0.5493 -0.0270  0.1599
  418MOL0     C56329  10.374  11.194  -0.824 -0.2548 -0.8167 -0.7851
  418MOL0     C56330  10.341  11.146  -0.953 -0.9991 -0.2192 -0.1981
  418MOL0     O56331  10.276  11.209  -1.051 -0.4670  0.6249  0.4877
  418MOL0     C56332  10.216  11.341  -1.030 -0.9071  0.4857 -0.9004
  418MOL0     C56333  10.163  11.387  -1.156  0.1302 -0.6146  0.3251
  418MOL0     C56334  10.267  11.434  -1.258  0.4206 -0.0153  0.2490
  418MOL0     C56335  10.191  11.480  -1.386 -0.2169 -0.1844 -0.7505
  418MOL0     C56336  10.288  11.522  -1.496  0.1487 -0.3898  0.9270
  418MOL0     C56337  10.381  11.412  -1.547  0.6369  0.3954 -0.5759
  418MOL0     C56338  10.437  11.440  -1.681 -0.9599 -0.9089 -0.0831
  418MOL0     C56339  10.502  11.317  -1.753  1.2086 -0.3371  0.3851
  418MOL0    Cl56340  10.663  11.272  -1.680 -0.1354 -0.0439  0.0821
  418MOL0     C56341  10.373  11.015  -0.968  1.2118 -0.3903 -0.5352
  418MOL0     C56342  10.415  10.930  -0.865  0.1747  0.0314  0.4067
  418MOL0     O56343  10.636  10.766  -0.798  0.2534 -0.5977 -0.4939
  418MOL0     C56344  10.782  10.662  -0.578  0.5043 -0.1619 -0.3464
  418MOL0     C56345  10.887  10.631  -0.501 -0.0472 -0.1714  0.2570
  418MOL0     N56346  11.223  10.339   0.149 -0.7126 -0.2940 -0.3383
  418MOL0     N56347  11.178  10.312   0.267  0.2119 -0.0387  0.8926
  418MOL0     C56348  11.114  10.565   1.434  0.6607  1.1845  0.0826
  418MOL0     C56349  11.227  10.581   1.512  0.7460  0.2010  0.6122
  418MOL0     C56350  11.590  10.621   1.764  0.7694 -0.2453  0.5389
  418MOL0     C56351  11.601  10.578   1.905 -0.4267 -0.4210  0.5657
  418MOL0     C56352  11.722  10.553   1.970  0.5240 -0.1943 -0.2121
  418MOL0     C56353  11.841  10.556   1.902  0.0427 -0.6394  0.8545
  418MOL0     O56354  11.967  10.547   1.959 -0.5297 -0.0375 -0.5411
  418MOL0     C56355  12.012  10.413   1.970 -0.3986 -0.3744  0.4719
  418MOL0     C56356  12.149  10.416   2.052 -0.3017 -0.0010 -0.3737
  418MOL0     C56357  12.273  10.478   1.983 -1.0276 -0.6976 -1.0191
  418MOL0     C56358  12.382  10.492   2.090 -0.7378  0.6091 -0.0594
  418MOL0     C56359  12.494  10.565   2.044 -0.8911 -1.7439  0.3771
  418MOL0     C56360  12.606  10.619   2.025  0.2794  0.2139  0.5311
  418MOL0     C56361  11.835  10.588   1.760  0.2948  0.5046  0.3541
  418MOL0     C56362  11.713  10.627   1.704 -0.3346  0.0611 -0.4991
  418MOL0     H56363  11.401  10.812   1.355  0.9801  0.2663  4.2155
  418MOL0     H56364  11.197  10.794   1.194  2.8682  0.1801  0.3590
  418MOL0     H56365  10.956  10.439   1.266  0.8815  0.7031  0.5055
  418MOL0     H56366  10.814  10.542   1.315 -0.8340  0.6253 -0.4645
  418MOL0     H56367  10.745  10.452   1.103  0.4864  1.3897  1.0817
  418MOL0     H56368  10.785  10.614   1.081  0.5791  0.1773 -1.9732
  418MOL0     H56369  11.016  10.566   0.991  1.7593 -0.3777  0.1204
  418MOL0     H56370  10.989  10.400   1.011  3.2811  1.2308 -0.9572
  418MOL0     H56371  10.800  10.397   0.865 -1.7884  2.6691 -0.7747
  418MOL0     H56372  10.818  10.560   0.837  0.8606  0.1813 -0.3099
  418MOL0     H56373  11.050  10.503   0.733 -2.6095  2.4083  1.1622
  418MOL0     H56374  11.030  10.336   0.797 -0.2903 -0.5641  0.1565
  418MOL0     H56375  10.845  10.304   0.649  2.6201 -1.2409  3.4482
  418MOL0     H56376  10.851  10.466   0.580 -1.0915 -1.3765 -0.5008
  418MOL0     H56377  11.059  10.239   0.535 -0.5079  0.8374  1.8561
  418MOL0     H56378  10.952  10.312   0.418 -0.2241 -1.4750  0.2943
  418MOL0     H56379  11.200  10.420   0.540 -0.7307 -1.9902  0.3771
  418MOL0     H56380  11.073  10.535   0.486  1.6548  1.5407  1.2255
  418MOL0     H56381  11.201  10.641   0.270  3.2208  0.5546 -1.0234
  418MOL0     H56382  11.374  10.621   0.047  1.7831 -0.9909  1.3021
  418MOL0     H56383  11.343  10.474  -0.046 -0.2917 -1.5562  1.0713
  418MOL0     H56384  11.125  10.695  -0.014 -1.3475  0.5479 -2.1681
  418MOL0     H56385  11.109  10.538  -0.098  0.0848 -0.0741  0.9665
  418MOL0     H56386  11.290  10.608  -0.251  2.5967  3.0995 -0.4681
  418MOL0     H56387  11.320  10.740  -0.148  0.9738  0.3197 -1.8659
  418MOL0     H56388  11.201  10.829  -0.342 -1.3574 -0.1377 -2.8651
  418MOL0     H56389  11.075  10.833  -0.223 -1.5747  0.9382 -2.8145
  418MOL0     H56390  10.936  10.927  -0.341  0.7562  0.3889  0.0983
  418MOL0     H56391  10.714  11.074  -0.581  2.5157  0.0727 -1.3794
  418MOL0     H56392  10.649  11.022  -0.429 -0.0551 -0.9838 -0.6452
  418MOL0     H56393  10.805  11.106  -0.439 -0.3885  0.1996  0.5891
  418MOL0     H56394  10.481  11.171  -0.638  2.0014 -2.5366  0.7773
  418MOL0     H56395  10.350  11.296  -0.800  0.7683 -1.1525  2.1005
  418MOL0     H56396  10.136  11.339  -0.956  0.9260  3.2444  1.3638
  418MOL0     H56397  10.293  11.410  -0.993 -1.7506  1.7984 -1.5352
  418MOL0     H56398  10.107  11.304  -1.199 -0.5668  0.9150 -1.8959
  418MOL0     H56399  10.092  11.467  -1.133  0.1597 -0.7460  0.8930
  418MOL0     H56400  10.345  11.362  -1.282  0.4896 -0.2492  1.1697
  418MOL0     H56401  10.304  11.529  -1.220 -2.0570  2.0830 -2.0972
  418MOL0     H56402  10.130  11.396  -1.420 -1.8914 -0.7114  3.0428
  418MOL0     H56403  10.134  11.573  -1.382 -3.1939 -1.9215  0.3545
  418MOL0     H56404  10.329  11.616  -1.458 -1.4236  0.2478  1.1261
  418MOL0     H56405  10.224  11.560  -1.576  1.1994  1.6541  0.9979
  418MOL0     H56406  10.459  11.385  -1.475 -0.0736 -1.9236 -0.5754
  418MOL0     H56407  10.332  11.315  -1.560  0.9436 -0.5409  3.8683
  418MOL0     H56408  10.524  11.505  -1.665  0.5665 -3.4671  3.6269
  418MOL0     H56409  10.359  11.477  -1.747 -0.5656 -2.3632 -1.4162
  418MOL0     H56410  10.523  11.354  -1.854 -1.1384  2.3610  0.7744
  418MOL0     H56411  10.436  11.230  -1.753  1.6535 -0.6948  2.0205
  418MOL0     H56412  10.357  10.957  -1.059 -0.4773 -1.5352  0.4247
  418MOL0     H56413  10.424  10.823  -0.882  1.2832  0.1938 -0.0522
  418MOL0     H56414  10.731  10.588  -0.639 -0.5872 -1.1807  1.6940
  418MOL0     H56415  10.927  10.532  -0.517 -3.4315 -1.6536  0.3229
  418MOL0     H56416  11.035  10.492   1.451  2.1963 -0.7770 -0.7921
  418MOL0     H56417  11.230  10.506   1.590  0.9526 -1.7092 -1.1760
  418MOL0     H56418  11.506  10.577   1.958 -1.8355 -3.6577 -1.7135
  418MOL0     H56419  11.740  10.537   2.076  2.8079  2.9761  0.0241
  418MOL0     H56420  11.933  10.354   2.018  0.5524 -1.0687  1.1999
  418MOL0     H56421  12.037  10.365   1.874  2.0895 -1.1887  1.4541
  418MOL0     H56422  12.180  10.315   2.079 -1.6469 -0.7982 -1.6930
  418MOL0     H56423  12.131  10.470   2.146 -0.3927 -0.0317 -0.3732
  418MOL0     H56424  12.247  10.580   1.952 -0.9111  0.3519  1.9985
  418MOL0     H56425  12.312  10.416   1.902  1.2140  0.4663 -0.8891
  418MOL0     H56426  12.416  10.388   2.101  1.8166  1.1351 -2.1917
  418MOL0     H56427  12.336  10.530   2.182 -1.3262  3.7258 -1.5305
  418MOL0     H56428  12.701  10.669   2.023  2.2496 -3.0967 -2.8174
  418MOL0     H56429  11.928  10.599   1.706  0.0511 -0.1547 -0.2071
  418MOL0     H56430  11.703  10.655   1.599 -3.2052  0.8060 -0.1124
  419MOL0     O56431  10.145   6.233   4.533 -0.1882  0.0084  0.0925
  419MOL0     C56432  10.156   6.123   4.476  0.0860 -0.3796  0.1133
  419MOL0     O56433  10.088   6.088   4.359 -0.0435  0.0909  0.3584
  419MOL0     C56434   9.987   6.166   4.321  0.3743 -0.1013 -0.2495
  419MOL0     C56435   9.861   6.124   4.358 -0.0938 -0.6641  0.4610
  419MOL0     C56436   9.747   6.196   4.329 -0.2284  1.1570 -0.3403
  419MOL0     C56437   9.760   6.315   4.267  0.4433  0.3350  0.0427
  419MOL0     O56438   9.642   6.385   4.270  0.6579 -0.2226 -0.3180
  419MOL0     C56439   9.606   6.448   4.147  0.0777 -1.3758  0.2136
  419MOL0     C56440   9.458   6.491   4.167  0.2894 -0.6321  0.4027
  419MOL0     C56441   9.424   6.578   4.045  0.6217 -0.3112  0.7534
  419MOL0     C56442   9.267   6.577   4.028 -1.0227 -0.9670 -0.1046
  419MOL0     C56443   9.192   6.658   4.137  0.3336  0.0226  0.3024
  419MOL0     C56444   9.046   6.676   4.093  0.4962  0.0158 -0.6177
  419MOL0     C56445   8.963   6.774   4.189  0.2607  0.4472  0.2532
  419MOL0     C56446   8.819   6.789   4.152 -0.8623  0.2755 -0.5945
  419MOL0     N56447   8.744   6.666   4.172  0.4898  0.2707 -0.3301
  419MOL0     C56448   8.686   6.580   4.085  0.1772  0.1859  0.3517
  419MOL0     C56449   8.637   6.475   4.164 -0.5007  1.0855  0.6256
  419MOL0     C56450   8.577   6.349   4.108  0.6426  0.6268 -0.2448
  419MOL0     C56451   8.438   6.310   4.186 -0.4540  0.2663  0.0256
  419MOL0     C56452   8.341   6.428   4.177  0.4704  0.6458  0.2063
  419MOL0     C56453   8.188   6.397   4.196 -0.1100 -0.7874 -0.7547
  419MOL0     O56454   8.149   6.290   4.115  0.3252 -0.1179 -0.2791
  419MOL0     C56455   8.018   6.255   4.101 -0.2994  0.3870  0.2882
  419MOL0     C56456   7.998   6.140   4.027  0.2265  0.3636  0.5312
  419MOL0     C56457   7.873   6.081   4.010 -0.6887 -0.0549  0.9653
  419MOL0     C56458   7.878   5.955   3.933  0.8205  0.6588  0.6933
  419MOL0     C56459   7.762   6.151   4.062  0.8354  0.1598 -0.0161
  419MOL0     C56460   7.613   6.102   4.049  0.3220  0.4398  0.5614
  419MOL0     O56461   7.505   6.188   4.091 -0.1808  0.3818 -1.1554
  419MOL0     C56462   7.373   6.162   4.082  0.3730 -0.2189  0.3128
  419MOL0     C56463   7.308   6.045   4.022  0.1283 -0.2203  0.5122
  419MOL0     C56464   7.170   6.033   4.022  1.2025 -0.2161  0.1300
  419MOL0     C56465   7.093   6.147   4.077 -0.2228  1.5296  0.2005
  419MOL0     O56466   6.958   6.148   4.091  0.2656 -0.4685  0.3987
  419MOL0     C56467   6.892   6.023   4.046  1.0012  0.0964  0.1415
  419MOL0     C56468   6.747   6.032   4.105  0.0388  0.3180  0.6644
  419MOL0     C56469   6.671   6.142   4.021 -0.1657 -0.6670 -0.1395
  419MOL0     C56470   6.520   6.155   4.053 -0.0553 -0.3667  0.6716
  419MOL0     C56471   6.453   6.278   3.982 -0.3043 -0.7644 -0.1860
  419MOL0     C56472   6.335   6.331   4.059  0.6298  0.4420  0.3006
  419MOL0     C56473   6.257   6.429   3.968 -0.2672  1.4942  0.3506
  419MOL0     C56474   6.339   6.542   3.920  0.0937  0.9949  1.4373
  419MOL0    Cl56475   6.245   6.696   3.886  0.4155  0.0166 -0.2234
  419MOL0     C56476   7.155   6.258   4.127 -0.0734 -0.5862  0.5149
  419MOL0     C56477   7.292   6.264   4.136  1.0405  0.5350  0.6455
  419MOL0     O56478   7.599   5.987   4.008  0.6400  0.2717 -0.5742
  419MOL0     C56479   7.781   6.265   4.134  0.6694 -0.7220  0.5577
  419MOL0     C56480   7.907   6.316   4.161  0.5794 -0.5386  0.4632
  419MOL0     N56481   8.682   6.496   4.298  0.5713 -0.4830  0.2851
  419MOL0     N56482   8.742   6.618   4.302  0.2685  0.2547  0.7252
  419MOL0     C56483   9.888   6.366   4.237 -0.2668 -0.3822  0.0935
  419MOL0     C56484   9.998   6.290   4.259  0.3584  0.5517 -0.1132
  419MOL0     C56485  10.247   6.018   4.539  0.7496 -0.1280  0.1873
  419MOL0     C56486  10.210   5.886   4.521  0.3924 -0.0929  1.1001
  419MOL0     C56487  10.286   5.779   4.581  0.1878 -0.6214 -0.4688
  419MOL0     C56488  10.388   5.808   4.667  0.1247  0.2526  0.5488
  419MOL0     O56489  10.450   5.695   4.721  0.0063  0.2363 -0.5321
  419MOL0     C56490  10.582   5.717   4.777 -0.2523 -0.3041 -0.2312
  419MOL0     C56491  10.648   5.589   4.746 -0.3542 -0.7938 -0.0843
  419MOL0     C56492  10.605   5.481   4.843  0.7990 -0.4664 -0.2025
  419MOL0     C56493  10.692   5.359   4.837  0.7587 -0.7797  0.2844
  419MOL0     C56494  10.634   5.257   4.917 -0.0631 -0.2155 -0.1316
  419MOL0     C56495  10.576   5.174   4.967  0.0221  0.9784 -0.4227
  419MOL0     C56496  10.421   5.943   4.690  0.5698 -0.1186  0.0029
  419MOL0     C56497  10.350   6.044   4.617 -0.1264  0.6094  0.4108
  419MOL0     H56498   9.848   6.034   4.417  1.0843 -0.6424  0.7888
  419MOL0     H56499   9.653   6.164   4.373  0.7532 -2.1069 -0.3510
  419MOL0     H56500   9.663   6.541   4.130 -0.0526 -0.7665  2.6993
  419MOL0     H56501   9.626   6.391   4.056  0.5838  1.1548 -1.3731
  419MOL0     H56502   9.396   6.401   4.159  1.0242 -1.1712  0.6803
  419MOL0     H56503   9.437   6.529   4.268  0.3791 -1.9704  0.9479
  419MOL0     H56504   9.459   6.680   4.064  1.1774 -0.3771  0.1350
  419MOL0     H56505   9.470   6.544   3.952  2.1647  3.1761  0.0847
  419MOL0     H56506   9.247   6.624   3.931  2.5450  0.3050 -0.3924
  419MOL0     H56507   9.227   6.475   4.035  0.4550 -1.4765  1.5765
  419MOL0     H56508   9.187   6.604   4.232 -0.4730  1.0417  0.8554
  419MOL0     H56509   9.248   6.747   4.164  0.0219  0.4043 -0.2902
  419MOL0     H56510   9.034   6.714   3.991  2.4446 -0.0825 -0.9217
  419MOL0     H56511   9.006   6.575   4.100  0.3971  0.1086  0.2662
  419MOL0     H56512   8.975   6.737   4.291  1.6565  4.0290  1.5528
  419MOL0     H56513   9.006   6.875   4.185  2.3912 -0.3352  1.5904
  419MOL0     H56514   8.813   6.842   4.057  1.2559  2.4580  0.3910
  419MOL0     H56515   8.773   6.866   4.216  3.0958  2.4665 -0.0577
  419MOL0     H56516   8.687   6.588   3.977 -0.1824  1.0007  0.3998
  419MOL0     H56517   8.568   6.355   3.999 -0.2381 -3.4391 -0.5863
  419MOL0     H56518   8.646   6.266   4.129 -1.0405 -1.4702 -2.4187
  419MOL0     H56519   8.471   6.280   4.286  0.0770 -0.9905 -0.4968
  419MOL0     H56520   8.396   6.220   4.138  2.1803  0.0464 -2.0986
  419MOL0     H56521   8.344   6.464   4.074 -1.7336  0.7026  0.1099
  419MOL0     H56522   8.373   6.517   4.232 -0.0572  0.8280  0.2259
  419MOL0     H56523   8.137   6.492   4.175  1.0503 -0.0877 -0.4887
  419MOL0     H56524   8.175   6.375   4.302  3.1240 -3.6186 -0.7585
  419MOL0     H56525   8.085   6.085   3.994 -0.0270 -0.4257  1.1436
  419MOL0     H56526   7.978   5.911   3.929  0.9985  1.1339 -1.7587
  419MOL0     H56527   7.821   5.880   3.989  2.4050  0.5525  2.2480
  419MOL0     H56528   7.832   5.974   3.835  2.1331 -1.8043 -0.4876
  419MOL0     H56529   7.366   5.964   3.979  3.3540  1.2404  1.7900
  419MOL0     H56530   7.124   5.935   4.012 -1.0722  0.8510 -0.5946
  419MOL0     H56531   6.880   6.020   3.938 -1.1552 -1.4392  0.3630
  419MOL0     H56532   6.941   5.929   4.074  0.8574 -0.6694 -1.9900
  419MOL0     H56533   6.688   5.940   4.106  0.7169 -0.1170  1.0844
  419MOL0     H56534   6.754   6.063   4.210 -0.0106 -1.3827  1.1933
  419MOL0     H56535   6.683   6.134   3.913  2.1720 -0.3206  0.0354
  419MOL0     H56536   6.707   6.242   4.047  1.5887 -0.9229 -1.4274
  419MOL0     H56537   6.467   6.062   4.031 -1.3205  0.4565  0.1251
  419MOL0     H56538   6.505   6.171   4.161 -0.1731  1.3892  0.4267
  419MOL0     H56539   6.426   6.245   3.882  0.8938 -0.1799 -0.7272
  419MOL0     H56540   6.521   6.363   3.971  3.2424 -3.2270  0.6686
  419MOL0     H56541   6.261   6.254   4.082  1.0549  0.2833  1.1827
  419MOL0     H56542   6.356   6.370   4.159 -3.4799  0.2046  1.4221
  419MOL0     H56543   6.173   6.471   4.024  0.2226  1.9524  0.7600
  419MOL0     H56544   6.220   6.369   3.885  2.5818 -3.8718  2.4798
  419MOL0     H56545   6.391   6.507   3.830  0.8938 -2.5971  3.1007
  419MOL0     H56546   6.415   6.552   3.999  1.1048  0.3797  0.5642
  419MOL0     H56547   7.102   6.336   4.181 -3.4731 -1.3125 -1.4780
  419MOL0     H56548   7.344   6.346   4.185  2.6526  0.8107 -1.3842
  419MOL0     H56549   7.696   6.313   4.181  0.0270  0.9872 -2.1106
  419MOL0     H56550   7.919   6.406   4.221 -3.1093  1.3315 -1.3097
  419MOL0     H56551   9.889   6.461   4.186 -0.7010  0.0594  0.8768
  419MOL0     H56552  10.099   6.321   4.231  0.6974 -1.6365 -1.5906
  419MOL0     H56553  10.115   5.870   4.472  0.4962  2.0377  0.1151
  419MOL0     H56554  10.248   5.678   4.572 -2.4264  0.0960  1.4731
  419MOL0     H56555  10.635   5.802   4.735 -0.1761  0.9998  2.3514
  419MOL0     H56556  10.562   5.734   4.883 -3.0616  1.2547 -0.9018
  419MOL0     H56557  10.757   5.599   4.751 -0.5337  0.7419  1.7784
  419MOL0     H56558  10.635   5.566   4.640  1.1259 -0.5240 -0.3496
  419MOL0     H56559  10.506   5.449   4.809 -0.6699  0.3461  2.9324
  419MOL0     H56560  10.614   5.511   4.948  0.4268 -4.2804  1.0971
  419MOL0     H56561  10.794   5.378   4.872  1.2863 -0.3455 -1.3621
  419MOL0     H56562  10.690   5.324   4.733  0.5071 -1.0448  0.3777
  419MOL0     H56563  10.522   5.100   5.022  0.2509  0.8620 -0.3540
  419MOL0     H56564  10.495   5.966   4.766  0.7024 -0.9491  0.1280
  419MOL0     H56565  10.399   6.140   4.635  3.3148 -0.6612 -1.2897
  420MOL0     O56566   2.015   8.033   9.278  0.3035 -0.2425 -0.8912
  420MOL0     C56567   2.054   7.972   9.173 -0.0520 -0.7059  0.6709
  420MOL0     O56568   2.006   7.987   9.042 -0.7029  0.4285  0.0773
  420MOL0     C56569   1.900   8.070   9.023  0.6598  0.2566 -0.1476
  420MOL0     C56570   1.903   8.200   9.069 -0.7068 -1.4024  0.4319
  420MOL0     C56571   1.792   8.291   9.042 -0.4744  0.4039  0.6109
  420MOL0     C56572   1.687   8.236   8.971 -0.6547 -0.4855  0.1074
  420MOL0     O56573   1.570   8.300   8.941  0.2207 -0.6203  0.1189
  420MOL0     C56574   1.560   8.443   8.973 -0.0900 -0.9080 -0.2614
  420MOL0     C56575   1.458   8.524   8.881 -0.1653  1.3023 -0.0860
  420MOL0     C56576   1.503   8.671   8.900 -0.1720  0.1676  0.4514
  420MOL0     C56577   1.419   8.777   8.816 -0.4410 -0.1123  0.1496
  420MOL0     C56578   1.479   8.918   8.845  0.6386 -0.8467  0.2044
  420MOL0     C56579   1.391   9.014   8.785  0.0368  0.0539 -0.1332
  420MOL0     C56580   1.453   9.155   8.784  0.4190 -1.0505 -0.5661
  420MOL0     C56581   1.359   9.285   8.785 -0.4190 -0.6720  0.3800
  420MOL0     N56582   1.257   9.277   8.685 -0.2392 -0.2003 -0.2577
  420MOL0     C56583   1.274   9.288   8.547 -0.2219  0.1557 -0.4816
  420MOL0     C56584   1.156   9.250   8.493  0.3248 -0.7831 -0.1273
  420MOL0     C56585   1.124   9.250   8.346  0.5011  0.1814 -0.7554
  420MOL0     C56586   1.044   9.122   8.308 -0.1616 -0.1192 -0.0154
  420MOL0     C56587   1.000   9.130   8.162  0.1471  0.0390 -0.4151
  420MOL0     C56588   0.849   9.155   8.144  0.4512  0.4040 -0.0926
  420MOL0     O56589   0.803   9.134   8.011 -0.3683 -0.7131 -0.0830
  420MOL0     C56590   0.666   9.142   7.980 -0.0424 -0.2427  0.8616
  420MOL0     C56591   0.631   9.126   7.846  0.1592  1.0002 -0.2439
  420MOL0     C56592   0.507   9.138   7.800 -0.9635  0.4065 -0.0053
  420MOL0     C56593   0.480   9.107   7.655 -1.1095  0.2065 -0.0170
  420MOL0     C56594   0.404   9.177   7.888 -0.1120 -1.2016 -0.5885
  420MOL0     C56595   0.273   9.212   7.815 -0.7328  0.3110 -0.2498
  420MOL0     O56596   0.157   9.169   7.886  0.3317  0.3037  0.2424
  420MOL0     C56597   0.039   9.209   7.849  0.4074  0.1159  0.0492
  420MOL0     C56598  -0.004   9.179   7.725  0.9071 -1.1343  0.0979
  420MOL0     C56599  -0.133   9.208   7.685 -0.1904  0.3894 -0.5662
  420MOL0     C56600  -0.218   9.259   7.791 -0.1889  0.5765 -0.0980
  420MOL0     O56601  -0.351   9.287   7.780  1.1400  0.1921 -0.3300
  420MOL0     C56602  -0.427   9.226   7.671 -0.1793 -0.0597 -0.8523
  420MOL0     C56603  -0.475   9.083   7.695 -0.4373  0.4156 -0.4504
  420MOL0     C56604  -0.571   9.049   7.577  0.8800  0.8288 -0.0842
  420MOL0     C56605  -0.724   9.063   7.619  0.7454  0.2997 -0.6984
  420MOL0     C56606  -0.821   9.040   7.502  0.1345  0.5318 -0.0368
  420MOL0     C56607  -0.963   9.047   7.564  0.3713 -0.5489 -0.1601
  420MOL0     C56608  -1.069   9.002   7.455  0.4959 -0.0442  0.7800
  420MOL0     C56609  -1.087   9.114   7.342  0.5963 -0.8787 -0.3404
  420MOL0    Cl56610  -1.227   9.098   7.234 -0.0153  0.1749  0.0602
  420MOL0     C56611  -0.164   9.282   7.918 -0.0312  0.2917  0.1312
  420MOL0     C56612  -0.034   9.269   7.952  0.1187  0.4953  0.0353
  420MOL0     O56613   0.277   9.274   7.707 -0.2712  0.0371 -0.3659
  420MOL0     C56614   0.432   9.191   8.025  0.3671  0.4586  0.4969
  420MOL0     C56615   0.566   9.179   8.071 -1.0746  0.3270  0.5652
  420MOL0     N56616   1.070   9.223   8.604  0.0429 -0.3103  0.2808
  420MOL0     N56617   1.130   9.251   8.715  0.3059  0.0395  0.0005
  420MOL0     C56618   1.692   8.108   8.913  1.5751 -0.1439  0.2660
  420MOL0     C56619   1.802   8.027   8.938  0.2360 -0.4024 -0.2323
  420MOL0     C56620   2.164   7.865   9.191 -0.7519 -0.0873 -0.3981
  420MOL0     C56621   2.236   7.862   9.319  0.5587 -0.0565  0.1793
  420MOL0     C56622   2.337   7.769   9.331 -0.3732 -0.4702  0.6370
  420MOL0     C56623   2.354   7.659   9.246 -1.0172  0.7575 -0.0236
  420MOL0     O56624   2.444   7.551   9.265  0.7746  0.3481  0.3223
  420MOL0     C56625   2.560   7.572   9.344  0.3080  0.2320  2.1235
  420MOL0     C56626   2.637   7.443   9.346  0.8088 -0.2240 -0.7978
  420MOL0     C56627   2.765   7.449   9.423  0.4284  1.2906 -0.2545
  420MOL0     C56628   2.777   7.545   9.545  0.0431  0.1149  0.6414
  420MOL0     C56629   2.918   7.558   9.577 -0.2646  0.2519  0.2600
  420MOL0     C56630   3.036   7.581   9.603  0.2219  0.2760  0.6447
  420MOL0     C56631   2.274   7.654   9.131  0.7058  0.2772 -0.0012
  420MOL0     C56632   2.180   7.759   9.104  0.0621 -0.2279  0.6067
  420MOL0     H56633   1.987   8.251   9.116 -0.5576  0.1622 -1.4231
  420MOL0     H56634   1.794   8.387   9.093  1.2677  1.1997 -0.8437
  420MOL0     H56635   1.541   8.455   9.080  1.0461 -2.7087  0.1948
  420MOL0     H56636   1.657   8.484   8.944  1.1360 -4.2502 -1.3803
  420MOL0     H56637   1.458   8.497   8.775  1.1145  2.1281 -0.3235
  420MOL0     H56638   1.359   8.495   8.916  0.7981 -1.4257  0.5781
  420MOL0     H56639   1.500   8.693   9.007  0.7330  1.6450  0.2003
  420MOL0     H56640   1.607   8.673   8.868  0.5878 -0.3183  2.7005
  420MOL0     H56641   1.420   8.760   8.708 -1.0292  0.1011  0.1048
  420MOL0     H56642   1.313   8.786   8.842 -0.9114 -4.0035  0.1214
  420MOL0     H56643   1.494   8.940   8.951 -2.1104 -2.2184  0.9880
  420MOL0     H56644   1.578   8.927   8.799  1.0465  0.1915  1.2496
  420MOL0     H56645   1.390   8.991   8.678 -1.1693  0.6959 -0.2768
  420MOL0     H56646   1.295   9.000   8.836 -0.4875 -1.5270 -1.4716
  420MOL0     H56647   1.511   9.179   8.874 -0.5270 -0.5193 -0.0809
  420MOL0     H56648   1.514   9.165   8.695 -2.9233  2.1669 -2.7738
  420MOL0     H56649   1.410   9.380   8.766  1.2721 -0.7695  3.6533
  420MOL0     H56650   1.315   9.300   8.884 -1.0068 -0.7457  0.1339
  420MOL0     H56651   1.368   9.301   8.493  0.2697  1.4136  0.6259
  420MOL0     H56652   1.064   9.336   8.313 -1.7937 -1.7064 -1.8014
  420MOL0     H56653   1.220   9.265   8.297  1.0796  2.3020  0.8594
  420MOL0     H56654   0.960   9.117   8.378  1.3284 -1.2205  1.7817
  420MOL0     H56655   1.103   9.031   8.323 -0.7749 -0.7207 -1.1532
  420MOL0     H56656   1.020   9.031   8.122  0.7406 -0.1941  0.4194
  420MOL0     H56657   1.060   9.192   8.095 -1.6287  0.5131 -1.6466
  420MOL0     H56658   0.829   9.259   8.174 -1.4443 -0.4497  1.8925
  420MOL0     H56659   0.786   9.089   8.205  0.2981 -0.6718 -1.3823
  420MOL0     H56660   0.706   9.087   7.778  0.2428 -2.1936  1.5018
  420MOL0     H56661   0.385   9.058   7.633 -1.3575  0.0563  1.2932
  420MOL0     H56662   0.504   9.198   7.601 -0.4827  1.1946  1.8381
  420MOL0     H56663   0.548   9.026   7.628 -1.2239  0.0064  0.2944
  420MOL0     H56664   0.059   9.113   7.666 -0.4693 -1.8099 -0.6569
  420MOL0     H56665  -0.177   9.182   7.589 -1.6953  0.9514 -0.0591
  420MOL0     H56666  -0.515   9.291   7.667 -0.4862 -0.2963  1.1583
  420MOL0     H56667  -0.382   9.234   7.572 -0.1272 -0.3957 -0.8572
  420MOL0     H56668  -0.391   9.013   7.694 -0.4759  0.3679 -2.1801
  420MOL0     H56669  -0.518   9.071   7.795 -0.2327  0.7798 -0.3143
  420MOL0     H56670  -0.569   8.944   7.547 -0.7904  0.2220  1.6918
  420MOL0     H56671  -0.560   9.110   7.487 -1.6942 -0.8941 -1.6985
  420MOL0     H56672  -0.762   8.989   7.690 -1.7402  1.5681 -0.5899
  420MOL0     H56673  -0.737   9.168   7.647  0.3789 -0.0488  0.5326
  420MOL0     H56674  -0.817   8.940   7.460 -2.1166  0.5998 -0.5530
  420MOL0     H56675  -0.788   9.105   7.421  1.7029 -0.4091 -0.1867
  420MOL0     H56676  -0.972   8.982   7.651 -0.2323  2.1749  1.9797
  420MOL0     H56677  -0.987   9.149   7.597  4.1853  1.0814 -1.7054
  420MOL0     H56678  -1.165   8.970   7.496  0.0186 -1.9156 -1.5698
  420MOL0     H56679  -1.039   8.904   7.417 -0.1900 -1.0041  2.5967
  420MOL0     H56680  -0.995   9.119   7.282  0.5987  0.2886 -0.2790
  420MOL0     H56681  -1.107   9.207   7.397 -2.2216  0.6862 -3.6048
  420MOL0     H56682  -0.223   9.331   7.995  1.5876  0.7265  1.1457
  420MOL0     H56683   0.000   9.283   8.054  1.5189 -0.2091 -0.3080
  420MOL0     H56684   0.356   9.230   8.091 -0.7780  0.9987 -1.0844
  420MOL0     H56685   0.580   9.201   8.176 -1.6570 -2.1469  1.2422
  420MOL0     H56686   1.604   8.070   8.863 -1.2618  0.3310  4.4788
  420MOL0     H56687   1.806   7.920   8.924  4.0581 -0.7731  2.1877
  420MOL0     H56688   2.199   7.936   9.390  0.7564  1.6062 -1.3569
  420MOL0     H56689   2.392   7.765   9.425  0.1234 -0.8514  0.3346
  420MOL0     H56690   2.628   7.649   9.307  0.1977  0.1188  1.6811
  420MOL0     H56691   2.530   7.603   9.445 -0.1038  1.3187  1.6839
  420MOL0     H56692   2.656   7.412   9.243  2.2303  0.9236 -0.9226
  420MOL0     H56693   2.565   7.377   9.393 -0.1165  2.0276  1.1634
  420MOL0     H56694   2.845   7.469   9.351 -0.3896 -0.9304 -1.8877
  420MOL0     H56695   2.776   7.351   9.472  0.9731  1.0230 -0.8886
  420MOL0     H56696   2.721   7.518   9.635 -2.2125  2.9437  0.2591
  420MOL0     H56697   2.742   7.645   9.516 -1.9311 -0.1554  1.9061
  420MOL0     H56698   3.138   7.612   9.617  0.9767 -1.4110 -0.7355
  420MOL0     H56699   2.280   7.573   9.059 -1.4061 -0.4702  0.5811
  420MOL0     H56700   2.116   7.743   9.019 -0.2767 -0.3072  0.8731
  421MOL0     O56701   1.294   6.994   9.837 -0.5414 -0.3156  0.4039
  421MOL0     C56702   1.352   6.948   9.737  0.0799 -0.8830 -0.2494
  421MOL0     O56703   1.309   6.853   9.639 -0.1182 -0.0079  0.1156
  421MOL0     C56704   1.176   6.808   9.641 -0.0932  0.4876 -0.2474
  421MOL0     C56705   1.094   6.794   9.754  0.8490 -0.2747  0.2391
  421MOL0     C56706   0.963   6.740   9.740  0.1089  0.0029 -0.4319
  421MOL0     C56707   0.903   6.711   9.612  0.3911 -0.3465  0.0705
  421MOL0     O56708   0.777   6.677   9.609  0.6395  1.0512  0.4414
  421MOL0     C56709   0.690   6.753   9.522  0.1724  0.0634 -0.6290
  421MOL0     C56710   0.553   6.785   9.582 -1.6679  0.1171 -0.7118
  421MOL0     C56711   0.450   6.842   9.484 -0.7301  0.1927  0.7439
  421MOL0     C56712   0.498   6.959   9.397 -0.3830  0.5612  0.1691
  421MOL0     C56713   0.405   7.002   9.277  0.0866 -1.8467 -0.0925
  421MOL0     C56714   0.354   6.895   9.183  0.3612 -0.0038  0.4162
  421MOL0     C56715   0.284   6.970   9.070  0.2391 -0.6843 -0.5837
  421MOL0     C56716   0.240   6.873   8.967 -0.4476 -0.9968 -0.8476
  421MOL0     N56717   0.335   6.807   8.881  0.1749  0.2240 -0.0266
  421MOL0     C56718   0.391   6.681   8.902  0.3605 -0.4380 -0.6351
  421MOL0     C56719   0.453   6.647   8.785  0.5688 -0.2454  0.7173
  421MOL0     C56720   0.516   6.522   8.734  0.2901 -0.0780 -0.4679
  421MOL0     C56721   0.415   6.402   8.758 -1.2099 -0.3197  0.0871
  421MOL0     C56722   0.306   6.390   8.654 -1.0544 -0.3072  0.1932
  421MOL0     C56723   0.193   6.491   8.676 -0.0235  0.7309  0.1977
  421MOL0     O56724   0.142   6.481   8.814  0.5649 -0.0458 -0.0609
  421MOL0     C56725   0.026   6.546   8.836  0.8182 -0.2854 -0.1368
  421MOL0     C56726  -0.070   6.485   8.908  0.0025  0.5401 -0.5840
  421MOL0     C56727  -0.199   6.547   8.924  0.9112 -0.4357  0.4689
  421MOL0     C56728  -0.307   6.465   9.000 -0.1594  0.4304  0.5376
  421MOL0     C56729  -0.228   6.683   8.883  0.0219  0.8670 -0.6625
  421MOL0     C56730  -0.350   6.764   8.917 -0.7066 -0.1403  0.0095
  421MOL0     O56731  -0.450   6.711   8.992 -0.6913  0.1647 -0.2069
  421MOL0     C56732  -0.557   6.794   9.013  0.1014 -0.4220 -0.3857
  421MOL0     C56733  -0.661   6.798   8.921 -0.3053 -0.4689  0.8234
  421MOL0     C56734  -0.769   6.885   8.923  0.6519  0.7546 -0.6505
  421MOL0     C56735  -0.772   6.967   9.034 -0.0136 -0.6319 -0.4204
  421MOL0     O56736  -0.867   7.065   9.050 -0.4950  0.2138  0.0073
  421MOL0     C56737  -0.997   7.035   9.002 -0.0816 -0.3102  1.3395
  421MOL0     C56738  -1.101   7.103   9.082 -0.3957  0.6271 -1.0030
  421MOL0     C56739  -1.245   7.057   9.052  0.3367  0.2512 -0.2649
  421MOL0     C56740  -1.347   7.163   9.113 -0.1571 -0.3788  0.7383
  421MOL0     C56741  -1.366   7.130   9.260  0.5719 -0.9494  0.2472
  421MOL0     C56742  -1.457   7.238   9.328 -0.4390 -0.9542  0.2117
  421MOL0     C56743  -1.502   7.203   9.478  0.9911 -0.4432  0.6615
  421MOL0     C56744  -1.564   7.323   9.550 -0.6777 -0.4460 -0.5584
  421MOL0    Cl56745  -1.455   7.463   9.556 -0.2946 -0.4925 -0.1466
  421MOL0     C56746  -0.662   6.966   9.126 -0.5916 -0.4773 -0.7928
  421MOL0     C56747  -0.556   6.884   9.120 -1.1413 -0.1236  0.6857
  421MOL0     O56748  -0.352   6.877   8.868  1.0289  0.0974  0.3657
  421MOL0     C56749  -0.121   6.748   8.822 -1.1585  0.3104 -0.7385
  421MOL0     C56750   0.002   6.676   8.795  0.6564 -0.0390  0.0138
  421MOL0     N56751   0.428   6.752   8.689  0.8053  0.4964 -0.1887
  421MOL0     N56752   0.361   6.844   8.752 -1.2635 -0.2692 -0.1486
  421MOL0     C56753   0.987   6.733   9.504  0.4330  0.2618  0.5676
  421MOL0     C56754   1.117   6.771   9.522  0.1498 -0.0461 -0.1534
  421MOL0     C56755   1.497   6.985   9.720  0.6467 -0.7391  0.2139
  421MOL0     C56756   1.567   7.048   9.830  0.7175  0.1395  0.1983
  421MOL0     C56757   1.698   7.082   9.821  0.0275 -0.1410 -0.1145
  421MOL0     C56758   1.765   7.064   9.702 -0.4181  1.0758 -0.1170
  421MOL0     O56759   1.895   7.083   9.686 -0.3206  0.0563  0.2195
  421MOL0     C56760   1.950   7.209   9.717  0.5723 -0.1696  0.2117
  421MOL0     C56761   2.057   7.248   9.615  0.0743  0.1669 -0.4624
  421MOL0     C56762   2.110   7.387   9.633 -0.0043  0.8624  0.6325
  421MOL0     C56763   2.157   7.460   9.500  1.2087 -0.3043  0.3967
  421MOL0     C56764   2.044   7.482   9.397  0.1052  0.1587 -0.5381
  421MOL0     C56765   1.945   7.489   9.317 -0.5126 -0.4123 -0.4909
  421MOL0     C56766   1.698   7.001   9.592  0.3860  0.3950 -0.7632
  421MOL0     C56767   1.560   6.974   9.601 -0.6905  0.4049  0.0495
  421MOL0     H56768   1.115   6.827   9.855  2.1487 -1.6667  0.4603
  421MOL0     H56769   0.909   6.724   9.833  0.4599  0.5335 -0.1272
  421MOL0     H56770   0.732   6.850   9.491  0.2096  0.8361  1.6681
  421MOL0     H56771   0.664   6.704   9.428 -2.1664 -0.0389  0.0185
  421MOL0     H56772   0.523   6.686   9.617 -0.3741 -0.9998 -2.5616
  421MOL0     H56773   0.581   6.852   9.664 -0.0529  0.8329 -1.7800
  421MOL0     H56774   0.397   6.774   9.418 -0.8337  0.5140  0.4919
  421MOL0     H56775   0.375   6.887   9.550  1.3994  1.7766  2.2565
  421MOL0     H56776   0.517   7.052   9.449  0.1163  1.3158 -1.2986
  421MOL0     H56777   0.586   6.922   9.342  0.4138  1.5121  0.7749
  421MOL0     H56778   0.313   7.041   9.323 -0.8791 -1.6059 -2.1350
  421MOL0     H56779   0.451   7.084   9.221  0.7733 -1.2101  1.3551
  421MOL0     H56780   0.444   6.842   9.153  0.0235  1.0673 -2.8156
  421MOL0     H56781   0.285   6.822   9.226  0.2492  0.2641  0.7011
  421MOL0     H56782   0.195   7.018   9.111  1.9763  0.4543  2.1243
  421MOL0     H56783   0.353   7.045   9.030  0.7540 -1.4638 -1.1962
  421MOL0     H56784   0.168   6.921   8.899 -0.7016 -1.1495 -0.6867
  421MOL0     H56785   0.185   6.795   9.020 -3.2688  1.9449  0.9237
  421MOL0     H56786   0.384   6.614   8.988 -1.3309  1.6613  0.9632
  421MOL0     H56787   0.524   6.529   8.625  0.1531 -0.6830 -0.5208
  421MOL0     H56788   0.614   6.506   8.781 -0.9173 -3.4062  1.1778
  421MOL0     H56789   0.373   6.403   8.860 -0.6822  0.0711  0.3029
  421MOL0     H56790   0.473   6.309   8.763 -0.9391 -0.1435  0.2669
  421MOL0     H56791   0.270   6.287   8.659  0.2231 -0.7436  0.8481
  421MOL0     H56792   0.346   6.409   8.554  1.2961  0.1090  1.1321
  421MOL0     H56793   0.114   6.458   8.608  1.3219 -1.1356 -0.5370
  421MOL0     H56794   0.216   6.593   8.643  0.3670  0.4094 -0.5648
  421MOL0     H56795  -0.048   6.388   8.952 -1.9076  1.2098  2.0648
  421MOL0     H56796  -0.339   6.497   9.099 -0.5028  0.4601  0.4172
  421MOL0     H56797  -0.397   6.454   8.938 -1.2296 -1.3581  2.2958
  421MOL0     H56798  -0.274   6.361   9.010 -0.7979  0.1177 -0.5030
  421MOL0     H56799  -0.644   6.738   8.832  1.7084  2.6111 -1.0424
  421MOL0     H56800  -0.844   6.897   8.846 -1.8359 -0.6360  1.3843
  421MOL0     H56801  -0.981   7.075   8.902  1.3313 -0.8231  1.3360
  421MOL0     H56802  -1.032   6.932   8.991 -2.6814  0.5764  0.5123
  421MOL0     H56803  -1.081   7.070   9.184 -3.5238  1.0829 -0.1226
  421MOL0     H56804  -1.082   7.210   9.072 -1.3841  0.8483 -0.6498
  421MOL0     H56805  -1.277   6.959   9.087  0.0706  1.2659  2.6134
  421MOL0     H56806  -1.243   7.058   8.942  0.1358  0.9928 -0.2707
  421MOL0     H56807  -1.303   7.263   9.109  0.7329 -0.7305  1.3303
  421MOL0     H56808  -1.444   7.168   9.063  0.2453 -2.7302 -0.4581
  421MOL0     H56809  -1.267   7.134   9.305 -0.5329 -0.1712  2.8522
  421MOL0     H56810  -1.395   7.027   9.284  0.1671 -0.2853  2.9950
  421MOL0     H56811  -1.396   7.328   9.322  1.7026 -2.2860  0.7311
  421MOL0     H56812  -1.549   7.242   9.270 -1.1804  0.6978  1.4187
  421MOL0     H56813  -1.429   7.153   9.542 -0.1488  0.3987  2.7085
  421MOL0     H56814  -1.590   7.139   9.464 -0.1322  1.4053 -1.3028
  421MOL0     H56815  -1.603   7.304   9.651 -0.6432  2.5585  0.1052
  421MOL0     H56816  -1.652   7.357   9.495 -1.6761 -1.9803  0.0000
  421MOL0     H56817  -0.676   7.031   9.212  0.3202  2.7145 -2.8651
  421MOL0     H56818  -0.464   6.886   9.179  0.7130 -0.7818 -1.9778
  421MOL0     H56819  -0.128   6.851   8.790  0.0173  1.2987  1.9261
  421MOL0     H56820   0.082   6.732   8.747  0.3101 -0.5557 -1.1881
  421MOL0     H56821   0.958   6.710   9.402  1.9402 -1.5500  0.4874
  421MOL0     H56822   1.180   6.791   9.436 -0.5003  2.2894 -0.1473
  421MOL0     H56823   1.521   7.063   9.928  1.8665 -0.0815  0.7842
  421MOL0     H56824   1.744   7.133   9.904 -2.1558  1.9790 -0.0905
  421MOL0     H56825   1.875   7.288   9.710  1.2694  0.4425 -0.6816
  421MOL0     H56826   2.000   7.212   9.814  1.6681  2.7679 -0.3306
  421MOL0     H56827   2.010   7.230   9.518 -0.7969 -0.7710  0.1098
  421MOL0     H56828   2.136   7.173   9.623 -0.2312 -0.2241 -1.0619
  421MOL0     H56829   2.188   7.391   9.709 -0.0560  0.5710  0.7006
  421MOL0     H56830   2.029   7.452   9.668 -0.6089  1.3998 -1.5612
  421MOL0     H56831   2.234   7.408   9.443  1.2730  1.4058 -1.1884
  421MOL0     H56832   2.199   7.555   9.534  1.6687 -0.9404  1.6915
  421MOL0     H56833   1.860   7.501   9.253 -1.8976 -0.5370  1.2511
  421MOL0     H56834   1.749   6.980   9.499 -2.0771  0.3177 -2.2011
  421MOL0     H56835   1.520   6.909   9.523  1.8839 -0.7905 -0.3687
  422MOL0     O56836  11.002   7.840   0.552  0.1269  0.7354  1.1478
  422MOL0     C56837  10.990   7.726   0.585 -0.2111  0.0695  0.3837
  422MOL0     O56838  10.870   7.666   0.611  0.0575 -0.1270 -0.3857
  422MOL0     C56839  10.749   7.729   0.590 -0.1509  0.2533 -0.2121
  422MOL0     C56840  10.654   7.664   0.524  0.4382  0.0510 -0.0063
  422MOL0     C56841  10.521   7.719   0.495 -0.1273  0.0192  0.2707
  422MOL0     C56842  10.495   7.841   0.548 -0.6522  0.1620 -0.5326
  422MOL0     O56843  10.362   7.889   0.530 -0.3849 -0.0222  0.1286
  422MOL0     C56844  10.320   8.026   0.557 -0.5691 -0.6218 -0.2892
  422MOL0     C56845  10.160   8.038   0.550 -0.0262  0.8212  0.6619
  422MOL0     C56846  10.117   8.164   0.608  0.1549  0.0392 -0.2398
  422MOL0     C56847   9.979   8.209   0.560  0.0716  0.0037  0.5216
  422MOL0     C56848   9.930   8.321   0.653 -0.0531 -1.0880 -0.1340
  422MOL0     C56849   9.862   8.438   0.579  0.2436 -0.1890 -0.2289
  422MOL0     C56850   9.721   8.401   0.544  0.4516  1.4332 -0.1667
  422MOL0     C56851   9.618   8.405   0.655 -0.6567 -0.2000 -0.2841
  422MOL0     N56852   9.578   8.543   0.681 -0.0547 -0.3712  0.1188
  422MOL0     C56853   9.488   8.606   0.598 -0.2437 -0.5100  0.2076
  422MOL0     C56854   9.481   8.727   0.638 -0.2327  0.6874 -0.5443
  422MOL0     C56855   9.411   8.838   0.589  0.9212  0.0637 -0.1552
  422MOL0     C56856   9.397   8.826   0.443  0.1561 -0.5229 -0.1072
  422MOL0     C56857   9.358   8.954   0.371 -0.1463 -0.1649  0.3425
  422MOL0     C56858   9.204   8.983   0.380 -0.9367  0.1741 -0.6361
  422MOL0     O56859   9.141   8.894   0.292  0.6908 -0.7896  0.1961
  422MOL0     C56860   9.011   8.930   0.273  0.0624  0.5117 -0.2454
  422MOL0     C56861   8.934   8.845   0.198 -0.7557  0.3081  0.0614
  422MOL0     C56862   8.800   8.856   0.162 -1.2226 -0.6079  0.0278
  422MOL0     C56863   8.756   8.769   0.052 -0.4535  0.5374 -0.3878
  422MOL0     C56864   8.736   8.960   0.231  0.2010  0.4283  0.7058
  422MOL0     C56865   8.588   8.974   0.223 -0.1567  0.0906  0.6752
  422MOL0     O56866   8.537   9.025   0.336 -0.6111  0.5483  0.4852
  422MOL0     C56867   8.405   9.043   0.343 -0.4067 -0.4221 -0.3264
  422MOL0     C56868   8.312   8.943   0.327 -0.2571  0.2370  0.1456
  422MOL0     C56869   8.177   8.970   0.326  0.1880 -0.7582 -0.7676
  422MOL0     C56870   8.136   9.097   0.352 -0.0754  0.1781  0.4957
  422MOL0     O56871   8.008   9.142   0.342 -0.5278 -0.2470 -0.3877
  422MOL0     C56872   7.895   9.051   0.363  0.4117 -0.3519 -1.6074
  422MOL0     C56873   7.850   9.055   0.511  0.1969  0.5619  0.6041
  422MOL0     C56874   7.698   9.047   0.523  0.2809 -0.9764  0.7904
  422MOL0     C56875   7.630   8.918   0.475  0.2056 -0.0558 -0.2106
  422MOL0     C56876   7.490   8.915   0.536 -0.1226  0.2247 -0.0045
  422MOL0     C56877   7.416   8.787   0.506  0.0980 -0.0293 -1.1510
  422MOL0     C56878   7.284   8.788   0.570 -0.4238  0.0666 -0.2612
  422MOL0     C56879   7.201   8.670   0.518  0.0554  0.0732 -0.9278
  422MOL0    Cl56880   7.032   8.684   0.570 -0.1958 -0.1600 -0.5179
  422MOL0     C56881   8.225   9.199   0.385 -1.2577 -0.5439 -0.0182
  422MOL0     C56882   8.368   9.174   0.383 -0.6841  0.1980  1.3472
  422MOL0     O56883   8.529   8.940   0.127  0.4641 -0.4438  0.1613
  422MOL0     C56884   8.811   9.050   0.302 -0.0912  0.0892 -0.1856
  422MOL0     C56885   8.950   9.048   0.318  0.6526  0.7124 -0.1163
  422MOL0     N56886   9.565   8.737   0.753  0.5650  0.3223 -0.5983
  422MOL0     N56887   9.624   8.623   0.776  0.0377 -0.5397 -0.7135
  422MOL0     C56888  10.597   7.910   0.623  0.1393 -0.3977 -0.3085
  422MOL0     C56889  10.718   7.854   0.648 -0.6028  0.3162  0.4218
  422MOL0     C56890  11.114   7.649   0.607 -0.2193 -0.9710 -0.3440
  422MOL0     C56891  11.117   7.513   0.642 -0.1725 -0.0045  0.5121
  422MOL0     C56892  11.235   7.438   0.662 -0.3132  0.9030  0.4246
  422MOL0     C56893  11.358   7.492   0.647  0.4799 -1.2857 -0.0331
  422MOL0     O56894  11.469   7.413   0.675  1.3505 -0.3831 -0.2896
  422MOL0     C56895  11.586   7.493   0.653  0.3863  0.3924 -0.3270
  422MOL0     C56896  11.707   7.398   0.655 -0.0582 -0.1323 -0.3085
  422MOL0     C56897  11.724   7.304   0.782 -0.3847 -0.2397  0.8076
  422MOL0     C56898  11.826   7.195   0.772  0.2316  0.8819  0.0109
  422MOL0     C56899  11.961   7.249   0.777  0.7062 -0.5328 -0.2598
  422MOL0     C56900  12.077   7.280   0.776 -0.8472  0.4267 -0.6473
  422MOL0     C56901  11.361   7.632   0.605 -0.0969 -0.2323 -0.0087
  422MOL0     C56902  11.245   7.702   0.589  0.3737 -0.7659  0.3834
  422MOL0     H56903  10.675   7.559   0.507 -0.0131  0.0264 -0.4406
  422MOL0     H56904  10.455   7.652   0.441 -1.6448 -0.0826  2.1439
  422MOL0     H56905  10.350   8.060   0.656 -3.9691 -1.6651  1.2344
  422MOL0     H56906  10.352   8.098   0.481 -1.2267 -0.0482 -0.0317
  422MOL0     H56907  10.131   8.033   0.445 -2.2696 -1.7618  1.3086
  422MOL0     H56908  10.122   7.950   0.603  3.1244  0.6106  2.8373
  422MOL0     H56909  10.124   8.146   0.716 -2.3634  1.3073  0.2239
  422MOL0     H56910  10.186   8.243   0.578 -2.0069  0.8334 -3.7279
  422MOL0     H56911   9.984   8.241   0.456  0.4400  1.5906  1.0004
  422MOL0     H56912   9.904   8.130   0.572  0.5525 -0.4543  0.5705
  422MOL0     H56913   9.870   8.279   0.734  0.4786  0.1129  0.9079
  422MOL0     H56914  10.020   8.360   0.700 -0.1175 -3.5637  2.2808
  422MOL0     H56915   9.856   8.510   0.660 -0.7870 -1.3777  0.7871
  422MOL0     H56916   9.924   8.476   0.497  0.2937 -0.8296 -0.4941
  422MOL0     H56917   9.699   8.461   0.455 -1.3139  0.5443 -0.3787
  422MOL0     H56918   9.715   8.301   0.500 -2.1646  1.7278 -0.6366
  422MOL0     H56919   9.661   8.362   0.746  0.7413  0.5844 -0.5639
  422MOL0     H56920   9.529   8.352   0.617 -1.5539  0.2231  1.1355
  422MOL0     H56921   9.423   8.566   0.521  1.2047 -1.0243 -0.8048
  422MOL0     H56922   9.314   8.830   0.640  1.6911 -1.4181  1.1565
  422MOL0     H56923   9.459   8.931   0.620  3.3678 -0.8511 -0.9869
  422MOL0     H56924   9.319   8.754   0.415 -1.0911  0.9452 -0.6170
  422MOL0     H56925   9.489   8.788   0.399  0.5531  0.6499 -0.3441
  422MOL0     H56926   9.392   8.950   0.267  0.1521  2.4186  0.2782
  422MOL0     H56927   9.399   9.040   0.424 -2.2945  0.8050  0.5361
  422MOL0     H56928   9.196   9.082   0.335  1.4978  0.0980 -1.3750
  422MOL0     H56929   9.170   8.985   0.484 -1.4145  0.7146 -0.7963
  422MOL0     H56930   8.987   8.756   0.165  3.3903  1.9883  1.5262
  422MOL0     H56931   8.814   8.790  -0.039  0.1275 -1.8285 -0.6226
  422MOL0     H56932   8.767   8.663   0.075 -4.7626  0.2344  1.2222
  422MOL0     H56933   8.653   8.771   0.015 -0.3072  0.5517 -0.8009
  422MOL0     H56934   8.358   8.847   0.303 -0.4199  0.1503  0.1736
  422MOL0     H56935   8.103   8.895   0.301  0.2693 -0.9926 -0.3141
  422MOL0     H56936   7.814   9.098   0.305 -0.1258  2.1082  0.9096
  422MOL0     H56937   7.909   8.951   0.322 -0.8311 -1.4163  0.4288
  422MOL0     H56938   7.898   8.973   0.565  1.5417 -0.9791 -2.6424
  422MOL0     H56939   7.887   9.149   0.552  2.2677  0.9997 -1.9891
  422MOL0     H56940   7.650   9.134   0.478  0.4468 -1.3941 -0.2158
  422MOL0     H56941   7.674   9.049   0.630  0.4950  3.8328  0.9683
  422MOL0     H56942   7.619   8.918   0.366  2.2933 -0.3382 -0.4587
  422MOL0     H56943   7.686   8.828   0.501 -3.9220 -2.9637 -0.4500
  422MOL0     H56944   7.428   8.996   0.495  0.5813 -0.0320 -1.6400
  422MOL0     H56945   7.506   8.936   0.642  1.0358 -1.9460  0.2894
  422MOL0     H56946   7.414   8.779   0.397  2.1663 -1.0573 -1.1560
  422MOL0     H56947   7.479   8.709   0.547 -1.7717 -0.7439  0.5386
  422MOL0     H56948   7.241   8.888   0.563 -0.3523  0.0742 -0.6101
  422MOL0     H56949   7.298   8.766   0.676  0.7586  0.8530 -0.2315
  422MOL0     H56950   7.250   8.582   0.560  3.3246  3.0391  2.1925
  422MOL0     H56951   7.220   8.653   0.412 -0.0920  0.5660 -1.0386
  422MOL0     H56952   8.190   9.300   0.399 -3.0024 -1.1079 -0.1343
  422MOL0     H56953   8.447   9.244   0.406  0.8477 -1.2166  0.5829
  422MOL0     H56954   8.769   9.138   0.350  1.2595  0.5666  0.1743
  422MOL0     H56955   8.999   9.132   0.367  1.8664 -0.4485  0.7402
  422MOL0     H56956  10.583   8.009   0.666  1.2061  0.4282 -1.7488
  422MOL0     H56957  10.789   7.899   0.716  0.1776 -2.8732  1.8734
  422MOL0     H56958  11.025   7.457   0.630 -0.6846  0.9119  0.1124
  422MOL0     H56959  11.221   7.332   0.681  0.0332  0.8664  0.4716
  422MOL0     H56960  11.586   7.545   0.557  1.7740  1.4712  0.2270
  422MOL0     H56961  11.591   7.573   0.727 -4.9996  1.1711 -0.4429
  422MOL0     H56962  11.799   7.457   0.652  1.1515 -1.9174  0.4533
  422MOL0     H56963  11.707   7.337   0.564  0.5242  0.7440 -0.9087
  422MOL0     H56964  11.623   7.264   0.796 -0.4593 -0.6593 -0.6589
  422MOL0     H56965  11.752   7.371   0.863 -0.0059  1.1668 -0.4404
  422MOL0     H56966  11.815   7.144   0.675  3.0059 -0.9968  0.5928
  422MOL0     H56967  11.815   7.125   0.855 -1.3345  0.5758 -0.4070
  422MOL0     H56968  12.179   7.308   0.758 -0.7297 -0.8706 -2.2141
  422MOL0     H56969  11.455   7.687   0.599  0.3865 -1.0493 -0.1014
  422MOL0     H56970  11.259   7.804   0.553  2.9328 -1.6196 -1.3717
  423MOL0     O56971   9.894   9.045   3.099 -0.0263  0.7793 -0.7816
  423MOL0     C56972   9.951   8.942   3.084 -0.1294  0.9397 -0.0394
  423MOL0     O56973   9.898   8.824   3.056  0.1364  0.6937 -0.7571
  423MOL0     C56974   9.768   8.794   3.055 -0.5233  0.5177  0.9351
  423MOL0     C56975   9.668   8.888   3.052  0.6427 -0.4103 -0.2967
  423MOL0     C56976   9.534   8.849   3.050  0.4081  0.7196 -0.9327
  423MOL0     C56977   9.495   8.715   3.075  0.5437 -0.3119 -0.3112
  423MOL0     O56978   9.361   8.697   3.079  0.2248 -0.1708 -0.0356
  423MOL0     C56979   9.304   8.570   3.064  0.7670  0.2167 -0.4490
  423MOL0     C56980   9.269   8.489   3.196  0.3570 -0.8458  0.5423
  423MOL0     C56981   9.133   8.519   3.261  0.2494  0.9826 -0.7047
  423MOL0     C56982   9.027   8.427   3.203 -1.1192  0.3799 -0.2198
  423MOL0     C56983   8.891   8.448   3.257  0.6508  0.4124 -1.0447
  423MOL0     C56984   8.866   8.445   3.415  0.6275 -0.1711 -0.2098
  423MOL0     C56985   8.731   8.515   3.444 -0.1043 -0.4242  0.1917
  423MOL0     C56986   8.612   8.449   3.381 -0.6523 -0.2951  0.2676
  423MOL0     N56987   8.495   8.497   3.439  0.3844  0.6186  0.1674
  423MOL0     C56988   8.412   8.601   3.390  0.3879 -0.3711 -0.0517
  423MOL0     C56989   8.303   8.605   3.477 -0.2158 -0.9552 -0.2398
  423MOL0     C56990   8.186   8.702   3.471  0.5311 -0.5837  0.2784
  423MOL0     C56991   8.063   8.626   3.510 -0.2881 -0.6045  0.0836
  423MOL0     C56992   7.941   8.716   3.493  0.0989  0.3011 -0.2602
  423MOL0     C56993   7.822   8.640   3.551  0.1796 -0.4292 -0.5104
  423MOL0     O56994   7.707   8.727   3.595  1.1607 -0.3472 -0.2814
  423MOL0     C56995   7.602   8.724   3.498  0.2192 -0.2060  0.3689
  423MOL0     C56996   7.613   8.797   3.376 -0.0310  0.1840  0.1756
  423MOL0     C56997   7.508   8.807   3.286  0.5758  0.4013 -0.0173
  423MOL0     C56998   7.531   8.897   3.171  0.6255 -0.1476  0.0612
  423MOL0     C56999   7.380   8.737   3.311 -0.0014 -0.6180 -0.2672
  423MOL0     C57000   7.265   8.720   3.218 -0.2629 -0.6697 -0.3623
  423MOL0     O57001   7.155   8.643   3.262 -0.8584 -0.1622  0.6796
  423MOL0     C57002   7.053   8.622   3.170 -0.3234 -0.8430  0.2609
  423MOL0     C57003   6.987   8.497   3.170 -0.0298  0.5335 -0.4115
  423MOL0     C57004   6.871   8.464   3.095 -0.3247  0.4071 -0.4305
  423MOL0     C57005   6.828   8.561   3.005 -0.0102 -0.5138  0.1036
  423MOL0     O57006   6.720   8.543   2.921  0.4853 -0.3964 -0.1942
  423MOL0     C57007   6.640   8.425   2.926  0.5501 -0.1956  0.6682
  423MOL0     C57008   6.663   8.340   2.807  0.3360 -0.4442  0.3346
  423MOL0     C57009   6.605   8.204   2.830 -0.6636 -0.2755 -0.6406
  423MOL0     C57010   6.643   8.104   2.719  0.6177 -0.1218 -0.2165
  423MOL0     C57011   6.592   8.146   2.578 -0.2145 -0.2469  0.4231
  423MOL0     C57012   6.601   8.010   2.503  1.2724  0.2762 -0.0307
  423MOL0     C57013   6.575   8.016   2.360 -1.2757 -0.1845 -0.3469
  423MOL0     C57014   6.441   8.059   2.321  0.2209  0.4242  0.4320
  423MOL0    Cl57015   6.408   8.010   2.155 -0.0368 -0.3315  0.1153
  423MOL0     C57016   6.893   8.683   3.000 -0.0960 -0.8389  0.6618
  423MOL0     C57017   6.998   8.717   3.084 -0.4722 -0.5980 -0.1451
  423MOL0     O57018   7.282   8.764   3.100 -0.3170 -0.3914  0.4357
  423MOL0     C57019   7.372   8.661   3.433 -0.2630 -0.6285 -0.4441
  423MOL0     C57020   7.481   8.655   3.522 -0.6678 -0.1601 -0.3640
  423MOL0     N57021   8.328   8.520   3.584 -0.8203 -0.2287  0.4555
  423MOL0     N57022   8.442   8.454   3.558  0.7231  0.5929 -0.1537
  423MOL0     C57023   9.601   8.624   3.065 -0.2292  0.0861 -0.4788
  423MOL0     C57024   9.736   8.662   3.060 -0.3531  0.3700 -0.0598
  423MOL0     C57025  10.097   8.947   3.065 -0.1657 -0.7745  1.0256
  423MOL0     C57026  10.164   9.071   3.045  0.0895 -0.9077  0.2110
  423MOL0     C57027  10.296   9.076   3.005  0.2174 -0.6939 -0.0973
  423MOL0     C57028  10.371   8.961   2.992  0.0122  0.9378 -0.0209
  423MOL0     O57029  10.505   8.979   2.967  0.8491 -0.0336  0.6232
  423MOL0     C57030  10.587   8.865   2.952  0.0156 -0.3541  0.3722
  423MOL0     C57031  10.734   8.903   2.970  0.9153 -1.5880  0.1109
  423MOL0     C57032  10.818   8.783   3.011  0.0060  0.5516 -0.1108
  423MOL0     C57033  10.957   8.834   3.042  0.5602  0.1887 -0.5101
  423MOL0     C57034  11.046   8.723   3.036 -0.7980 -0.0235 -0.1504
  423MOL0     C57035  11.125   8.630   3.046 -0.6363 -0.1910  0.2198
  423MOL0     C57036  10.315   8.836   3.025 -0.7191  0.4986  0.0173
  423MOL0     C57037  10.176   8.828   3.054 -0.1932  0.5448 -1.0563
  423MOL0     H57038   9.688   8.991   3.024 -1.0814  0.0514  0.0412
  423MOL0     H57039   9.454   8.921   3.035  0.8186  1.7086  1.2382
  423MOL0     H57040   9.218   8.585   2.999  0.2315 -0.4463  0.1002
  423MOL0     H57041   9.359   8.493   3.010 -2.5286 -3.6815  1.2560
  423MOL0     H57042   9.290   8.383   3.178  0.4585 -0.3805 -2.7448
  423MOL0     H57043   9.350   8.522   3.262  0.9664  0.2731 -0.6884
  423MOL0     H57044   9.146   8.505   3.368  1.8909  1.9160 -0.7499
  423MOL0     H57045   9.110   8.621   3.228  1.2214  1.7284  0.8345
  423MOL0     H57046   9.026   8.425   3.093 -1.8543 -1.1270 -0.2189
  423MOL0     H57047   9.050   8.324   3.232 -1.6436  0.7033  1.4261
  423MOL0     H57048   8.847   8.538   3.212  0.2355  0.5980 -0.2845
  423MOL0     H57049   8.832   8.363   3.223  0.5400  0.7237 -1.6554
  423MOL0     H57050   8.862   8.343   3.456  1.1315 -0.2566 -0.3658
  423MOL0     H57051   8.946   8.501   3.464  1.5123 -2.7488  1.5343
  423MOL0     H57052   8.717   8.506   3.552  0.0705 -1.1353  0.1596
  423MOL0     H57053   8.740   8.622   3.423 -1.3930 -0.2201  0.5963
  423MOL0     H57054   8.621   8.340   3.377 -0.6195 -0.2786 -0.1403
  423MOL0     H57055   8.615   8.469   3.274 -0.4266  2.0404  0.6378
  423MOL0     H57056   8.418   8.672   3.308 -2.3915  0.2144  0.1531
  423MOL0     H57057   8.196   8.790   3.535 -0.6354  0.8207 -1.3607
  423MOL0     H57058   8.174   8.741   3.370 -0.7132  1.7951  1.2724
  423MOL0     H57059   8.076   8.605   3.617  1.7582 -0.1197 -0.0300
  423MOL0     H57060   8.054   8.533   3.453 -1.8428 -2.0600  2.5264
  423MOL0     H57061   7.931   8.741   3.387  2.5964  3.2506  0.0344
  423MOL0     H57062   7.963   8.813   3.540  2.1472 -1.0169  1.6932
  423MOL0     H57063   7.847   8.587   3.644 -2.8039 -2.1104 -0.5301
  423MOL0     H57064   7.790   8.558   3.485  1.3721  0.3928 -2.1632
  423MOL0     H57065   7.706   8.852   3.371  0.0450 -0.0214 -3.1050
  423MOL0     H57066   7.447   8.968   3.162  1.0091  0.7432  2.6555
  423MOL0     H57067   7.617   8.959   3.197 -0.9722  2.6405 -0.8291
  423MOL0     H57068   7.536   8.844   3.075 -3.5188 -0.5785 -0.1249
  423MOL0     H57069   7.035   8.426   3.236  0.5203  0.5926 -0.7474
  423MOL0     H57070   6.824   8.367   3.101  0.0156  0.1400 -1.7193
  423MOL0     H57071   6.644   8.372   3.021 -0.9255  0.4720  1.1278
  423MOL0     H57072   6.533   8.448   2.917  0.2225 -1.8609 -0.3739
  423MOL0     H57073   6.615   8.381   2.717  1.6773 -1.5365 -0.9483
  423MOL0     H57074   6.770   8.341   2.783  0.5589  0.1101  1.3167
  423MOL0     H57075   6.496   8.209   2.827 -0.6210  0.0622 -2.8368
  423MOL0     H57076   6.649   8.173   2.926 -1.0678 -3.2240 -1.3163
  423MOL0     H57077   6.752   8.099   2.717  0.6359  0.3330 -0.4143
  423MOL0     H57078   6.603   8.006   2.747  2.0261 -0.4372  0.8302
  423MOL0     H57079   6.659   8.222   2.536 -2.4305  2.1413  0.9330
  423MOL0     H57080   6.489   8.183   2.576  0.2667  1.2212  1.3229
  423MOL0     H57081   6.701   7.967   2.497  0.6744 -0.9792 -1.8303
  423MOL0     H57082   6.535   7.933   2.545 -0.4888 -1.4536 -5.2629
  423MOL0     H57083   6.592   7.918   2.314  0.1394 -0.3622  0.5002
  423MOL0     H57084   6.650   8.088   2.325 -1.3179  0.2074  0.3426
  423MOL0     H57085   6.436   8.168   2.331  2.7841  0.5500  1.0955
  423MOL0     H57086   6.375   8.006   2.389 -0.5527  0.8452  0.0207
  423MOL0     H57087   6.848   8.749   2.928 -0.8021 -0.9337  1.0033
  423MOL0     H57088   7.047   8.814   3.086  1.0373 -1.2643 -1.9430
  423MOL0     H57089   7.281   8.612   3.467 -1.1246  0.5585 -0.9623
  423MOL0     H57090   7.475   8.612   3.621 -0.1511  2.8092  1.0558
  423MOL0     H57091   9.578   8.518   3.062  0.6876 -0.1077 -1.3519
  423MOL0     H57092   9.816   8.589   3.064  2.1319  2.8934 -0.7478
  423MOL0     H57093  10.107   9.163   3.045 -2.1032 -2.1928  0.3348
  423MOL0     H57094  10.347   9.171   2.995 -0.6870 -0.2624 -0.7074
  423MOL0     H57095  10.566   8.800   3.038 -2.0717 -0.8074 -0.4265
  423MOL0     H57096  10.562   8.806   2.863 -1.1380  1.2151 -0.3867
  423MOL0     H57097  10.729   8.984   3.043 -2.0514 -1.2709 -0.3122
  423MOL0     H57098  10.763   8.955   2.879 -0.4549  1.3760  1.2443
  423MOL0     H57099  10.820   8.711   2.928 -1.1915 -1.7702  1.7734
  423MOL0     H57100  10.781   8.733   3.100  0.2425 -2.7374 -1.7046
  423MOL0     H57101  10.947   8.883   3.140 -1.8482 -0.9291 -0.1352
  423MOL0     H57102  10.988   8.918   2.979  1.0612  1.3829  1.2345
  423MOL0     H57103  11.201   8.555   3.054  0.8933  1.4170  1.1143
  423MOL0     H57104  10.360   8.737   3.022 -0.2146  0.7424 -1.1218
  423MOL0     H57105  10.132   8.733   3.083 -0.3717  1.3442  1.5643
  424MOL0     O57106  11.351  10.650   7.811 -0.4602 -0.1698 -1.1179
  424MOL0     C57107  11.382  10.544   7.758 -0.6174  0.3746 -0.7523
  424MOL0     O57108  11.296  10.444   7.715 -0.1597 -0.1485 -0.1218
  424MOL0     C57109  11.160  10.458   7.743 -0.5835  0.4562 -0.4566
  424MOL0     C57110  11.092  10.422   7.868  0.2329 -0.4805  0.9617
  424MOL0     C57111  10.955  10.405   7.872  0.4411  0.4195 -0.1203
  424MOL0     C57112  10.880  10.440   7.766  0.0646  0.0949 -0.1519
  424MOL0     O57113  10.754  10.409   7.787  0.4520 -0.0138  0.4734
  424MOL0     C57114  10.658  10.490   7.709  0.1448 -0.7067 -0.5670
  424MOL0     C57115  10.532  10.495   7.792  0.1039  0.7825 -1.2995
  424MOL0     C57116  10.406  10.545   7.712 -0.4057  0.0515 -0.1062
  424MOL0     C57117  10.302  10.589   7.817 -0.5471  0.1550 -0.8306
  424MOL0     C57118  10.179  10.647   7.741  0.3944 -0.2438  0.1436
  424MOL0     C57119  10.068  10.670   7.845  0.5086 -0.2448 -0.5309
  424MOL0     C57120   9.940  10.737   7.798 -1.2077 -0.1689 -1.4009
  424MOL0     C57121   9.856  10.668   7.689 -0.7233  0.1526  1.0762
  424MOL0     N57122   9.746  10.751   7.643  0.7599 -0.9635 -1.2482
  424MOL0     C57123   9.645  10.714   7.561  0.5529  0.1728  0.4226
  424MOL0     C57124   9.571  10.825   7.536 -0.1948 -0.2117 -0.1795
  424MOL0     C57125   9.455  10.838   7.445  0.0895 -0.0254  0.2203
  424MOL0     C57126   9.494  10.802   7.302  0.0185  0.7599 -0.9501
  424MOL0     C57127   9.434  10.667   7.267 -0.4748  0.3896 -0.2965
  424MOL0     C57128   9.506  10.614   7.147  0.4511 -0.3583  0.0082
  424MOL0     O57129   9.456  10.482   7.123  0.1367  0.0242 -0.4338
  424MOL0     C57130   9.329  10.463   7.071  0.0032  0.3950  0.4446
  424MOL0     C57131   9.308  10.333   7.029 -0.0942  0.6892  0.5211
  424MOL0     C57132   9.194  10.281   6.971 -0.1126  0.1647  0.3439
  424MOL0     C57133   9.206  10.131   6.925  0.2365  0.2290 -0.0311
  424MOL0     C57134   9.091  10.370   6.938  0.1788  0.2364 -1.0893
  424MOL0     C57135   8.962  10.324   6.881 -0.3410 -0.1722 -0.2034
  424MOL0     O57136   8.875  10.415   6.839  0.6457 -0.3468  0.3862
  424MOL0     C57137   8.753  10.385   6.797 -0.7561  0.3886 -0.3107
  424MOL0     C57138   8.647  10.457   6.849  0.7446 -0.2203  0.7066
  424MOL0     C57139   8.511  10.431   6.812 -0.7222  0.0959  0.8625
  424MOL0     C57140   8.475  10.350   6.700  0.2172 -0.2798  1.6948
  424MOL0     O57141   8.351  10.344   6.657 -0.7477  0.1351  0.7643
  424MOL0     C57142   8.317  10.248   6.557  0.0661 -0.2456 -0.4473
  424MOL0     C57143   8.166  10.244   6.550  0.4398  0.2885 -0.4112
  424MOL0     C57144   8.099  10.222   6.689 -0.4826 -0.8193 -0.1655
  424MOL0     C57145   8.060  10.077   6.710  0.2443  0.1000 -0.1259
  424MOL0     C57146   7.938  10.044   6.795  0.0955 -1.1482 -0.0315
  424MOL0     C57147   7.907   9.895   6.799 -0.0765 -0.2807 -0.0798
  424MOL0     C57148   7.793   9.864   6.901 -0.1741 -0.3747 -0.0612
  424MOL0     C57149   7.837   9.832   7.051 -0.6850 -0.5214  0.0478
  424MOL0    Cl57150   7.682   9.853   7.140 -0.0723  0.0378  0.0137
  424MOL0     C57151   8.588  10.280   6.645  0.0114 -0.6715  0.5212
  424MOL0     C57152   8.721  10.294   6.693  0.6858 -0.4964  0.2961
  424MOL0     O57153   8.932  10.204   6.885  0.0680  0.7383 -0.4220
  424MOL0     C57154   9.105  10.506   6.970 -0.6329  0.2078 -0.7717
  424MOL0     C57155   9.221  10.548   7.049  0.0882  0.6136 -0.3450
  424MOL0     N57156   9.640  10.938   7.570 -0.2226  0.0999  0.2571
  424MOL0     N57157   9.745  10.887   7.626 -0.1225 -0.6183 -0.1065
  424MOL0     C57158  10.939  10.468   7.643  0.2809  0.1096  0.4855
  424MOL0     C57159  11.080  10.477   7.632 -0.4839 -0.5247 -0.5733
  424MOL0     C57160  11.523  10.523   7.761  0.5880  1.4275 -0.4950
  424MOL0     C57161  11.581  10.393   7.800 -0.0206  0.3329 -0.1374
  424MOL0     C57162  11.715  10.376   7.799 -0.1529 -0.4147 -0.1231
  424MOL0     C57163  11.812  10.477   7.767  1.2451  0.3367  0.8506
  424MOL0     O57164  11.949  10.468   7.757  0.1453  0.8331 -0.1328
  424MOL0     C57165  12.004  10.380   7.657  0.2555 -0.5379  0.0913
  424MOL0     C57166  12.033  10.455   7.524 -0.4819  0.0863 -0.2178
  424MOL0     C57167  12.177  10.486   7.489 -0.2196 -0.5464 -0.0360
  424MOL0     C57168  12.196  10.539   7.345  0.5843  0.3194  0.2874
  424MOL0     C57169  12.144  10.675   7.338  0.0245  0.5465 -0.0024
  424MOL0     C57170  12.108  10.793   7.338  0.0107  0.7262 -0.4636
  424MOL0     C57171  11.749  10.597   7.723 -1.2860  0.9743 -0.4610
  424MOL0     C57172  11.614  10.627   7.732 -0.1736 -0.2421 -0.0474
  424MOL0     H57173  11.147  10.393   7.956  1.2238  0.8658  0.8101
  424MOL0     H57174  10.909  10.359   7.959  0.9390 -3.9485 -1.9291
  424MOL0     H57175  10.698  10.587   7.680  2.8316 -1.7423 -0.5717
  424MOL0     H57176  10.635  10.440   7.614  0.1782  0.1919 -1.0559
  424MOL0     H57177  10.510  10.399   7.840 -2.5777  2.5090  1.2862
  424MOL0     H57178  10.552  10.555   7.881 -0.3084 -1.9091  0.7380
  424MOL0     H57179  10.433  10.630   7.649  2.5276 -2.1969 -2.1592
  424MOL0     H57180  10.363  10.472   7.643 -1.3375 -0.0256  0.5376
  424MOL0     H57181  10.269  10.501   7.872 -0.7124 -0.7987 -2.4159
  424MOL0     H57182  10.343  10.652   7.897 -1.2357 -0.1041 -0.2625
  424MOL0     H57183  10.200  10.743   7.694  0.7514  0.4338  1.6226
  424MOL0     H57184  10.141  10.575   7.668 -2.7079  1.7051 -0.3485
  424MOL0     H57185  10.032  10.573   7.883 -1.6715  1.8649  3.3946
  424MOL0     H57186  10.111  10.726   7.928 -0.2665  1.0162 -0.9606
  424MOL0     H57187   9.871  10.745   7.882 -0.8500  1.1553 -1.2098
  424MOL0     H57188   9.961  10.840   7.769 -0.6142  1.1059  2.8571
  424MOL0     H57189   9.822  10.572   7.731  0.0493 -0.3381  0.6053
  424MOL0     H57190   9.922  10.652   7.603  1.1682  5.8372  1.1062
  424MOL0     H57191   9.610  10.617   7.527 -2.1263  1.3380 -0.4041
  424MOL0     H57192   9.378  10.767   7.478  1.2351 -1.3020  0.2532
  424MOL0     H57193   9.413  10.938   7.460 -2.6868 -0.8409 -1.4946
  424MOL0     H57194   9.602  10.797   7.285 -0.2325  0.4179 -2.5908
  424MOL0     H57195   9.462  10.880   7.232 -0.7553 -0.0365 -1.5137
  424MOL0     H57196   9.327  10.687   7.259 -1.0526 -0.2644  3.7115
  424MOL0     H57197   9.442  10.597   7.350 -2.0813  2.6105  1.8768
  424MOL0     H57198   9.615  10.618   7.157  0.4633  1.1376 -0.4224
  424MOL0     H57199   9.485  10.684   7.065  0.1101  0.9785  1.1888
  424MOL0     H57200   9.399  10.277   7.045 -1.3173 -1.5684  0.0171
  424MOL0     H57201   9.174  10.114   6.822 -0.4644 -2.9685  0.6082
  424MOL0     H57202   9.312  10.102   6.930  0.6288  1.2224 -1.7099
  424MOL0     H57203   9.158  10.071   7.002  3.4393 -3.5521 -0.6787
  424MOL0     H57204   8.676  10.530   6.924  2.3292  0.5059 -0.5679
  424MOL0     H57205   8.428  10.484   6.859  0.2353  0.4165  2.2719
  424MOL0     H57206   8.360  10.277   6.461 -1.1516  0.5939 -0.7629
  424MOL0     H57207   8.348  10.147   6.582 -1.8549 -0.3277  2.0505
  424MOL0     H57208   8.135  10.341   6.511 -0.2028  0.8942  1.4637
  424MOL0     H57209   8.142  10.167   6.477 -0.2217 -0.8621  0.9642
  424MOL0     H57210   8.014  10.291   6.680 -0.5969 -0.8004  0.8966
  424MOL0     H57211   8.164  10.244   6.775  2.2839 -4.0544 -1.2101
  424MOL0     H57212   8.040  10.027   6.615  0.0647 -0.1421  0.0386
  424MOL0     H57213   8.147  10.022   6.748  1.2784  1.3761 -0.5476
  424MOL0     H57214   7.854  10.102   6.756  1.8607  2.4392  1.0918
  424MOL0     H57215   7.956  10.089   6.893 -4.5052  1.8775 -0.2367
  424MOL0     H57216   7.880   9.848   6.704  2.0436  0.4394 -1.0840
  424MOL0     H57217   7.997   9.845   6.836  0.7619  2.5626  2.0329
  424MOL0     H57218   7.736   9.780   6.859 -0.1406 -1.2934  1.6666
  424MOL0     H57219   7.723   9.948   6.909 -0.5875 -0.7438  0.2596
  424MOL0     H57220   7.906   9.909   7.086  1.2322 -1.6743 -0.9705
  424MOL0     H57221   7.890   9.736   7.057 -1.0076 -0.6332  1.4698
  424MOL0     H57222   8.568  10.231   6.549 -1.2961  1.8305 -0.5690
  424MOL0     H57223   8.800  10.237   6.644 -0.9143 -1.5078 -1.2059
  424MOL0     H57224   9.019  10.570   6.957 -2.1953 -1.7173 -0.5259
  424MOL0     H57225   9.232  10.651   7.082  1.5838  0.1580  0.6835
  424MOL0     H57226  10.878  10.493   7.557  1.3571  0.9584 -0.0418
  424MOL0     H57227  11.129  10.504   7.540  0.0588  0.6692  0.0520
  424MOL0     H57228  11.533  10.303   7.836 -0.9531  0.5247 -0.8543
  424MOL0     H57229  11.754  10.277   7.817  0.3380 -0.7048 -2.5252
  424MOL0     H57230  12.099  10.344   7.697  0.4587 -0.4907 -0.3384
  424MOL0     H57231  11.932  10.299   7.639  0.9151 -1.7173  2.3391
  424MOL0     H57232  11.979  10.550   7.518  1.2230  1.0220 -4.4311
  424MOL0     H57233  11.997  10.394   7.440  4.4905 -0.3715 -2.3465
  424MOL0     H57234  12.238  10.397   7.506 -3.1709 -3.1727 -1.9085
  424MOL0     H57235  12.221  10.560   7.556  1.5431 -0.7994 -0.8499
  424MOL0     H57236  12.143  10.473   7.276  2.4690  0.0597 -0.9957
  424MOL0     H57237  12.302  10.551   7.320 -0.1604  0.3070 -3.5026
  424MOL0     H57238  12.077  10.894   7.322 -4.3312 -0.2973  0.2266
  424MOL0     H57239  11.812  10.681   7.696  1.3712 -0.5880  0.5168
  424MOL0     H57240  11.584  10.730   7.718  0.2683 -0.0507  0.3912
  425MOL0     O57241   2.350   7.324   7.630 -0.3546 -0.4223 -0.6661
  425MOL0     C57242   2.376   7.276   7.519  0.3545 -0.3942 -1.0558
  425MOL0     O57243   2.289   7.205   7.450  0.8845 -0.0066 -0.2665
  425MOL0     C57244   2.165   7.166   7.498  0.8530 -0.2372 -1.3950
  425MOL0     C57245   2.117   7.036   7.461  0.9161  0.2100 -0.8168
  425MOL0     C57246   1.983   6.992   7.499 -0.3140  0.1991  0.1261
  425MOL0     C57247   1.900   7.076   7.567  0.4405  1.5019 -0.1413
  425MOL0     O57248   1.777   7.032   7.619 -0.6087 -0.1387 -0.1528
  425MOL0     C57249   1.675   7.006   7.522  0.3041  0.1301 -0.6036
  425MOL0     C57250   1.539   6.955   7.594  0.7531  0.3173  1.0283
  425MOL0     C57251   1.465   7.076   7.650 -0.3692  0.3369 -0.5891
  425MOL0     C57252   1.325   7.051   7.710  1.1134 -0.1758  0.5576
  425MOL0     C57253   1.267   7.186   7.744  0.3099  0.9500  1.5080
  425MOL0     C57254   1.136   7.170   7.822  0.0369  0.5045 -0.1552
  425MOL0     C57255   1.101   7.297   7.886 -0.6249 -0.4768 -0.5104
  425MOL0     C57256   0.973   7.281   7.968  0.5309  1.1171  0.3765
  425MOL0     N57257   0.863   7.234   7.883  0.0025 -0.3905  0.1085
  425MOL0     C57258   0.841   7.289   7.767  0.0010  0.1379  0.3069
  425MOL0     C57259   0.736   7.220   7.711 -0.9756  0.2651  1.0119
  425MOL0     C57260   0.683   7.257   7.577 -0.3307  0.3136 -0.0009
  425MOL0     C57261   0.529   7.297   7.585 -0.9563 -0.2567 -0.0245
  425MOL0     C57262   0.441   7.181   7.628  0.0028  0.3084 -0.0278
  425MOL0     C57263   0.295   7.220   7.615 -0.1366 -0.6118 -0.2402
  425MOL0     O57264   0.258   7.289   7.496 -0.2312 -0.4464 -0.9033
  425MOL0     C57265   0.134   7.352   7.499  0.9229 -0.0118  0.6970
  425MOL0     C57266   0.117   7.465   7.420  1.1436  0.0543  1.0844
  425MOL0     C57267  -0.018   7.514   7.389 -0.4609  1.1705  0.3356
  425MOL0     C57268  -0.027   7.601   7.266  0.2955  0.7138  0.3079
  425MOL0     C57269  -0.124   7.459   7.448  0.4391  0.0412  0.2262
  425MOL0     C57270  -0.270   7.502   7.438  0.0531  0.4031  0.0113
  425MOL0     O57271  -0.369   7.412   7.470 -0.3650  0.3740 -0.9645
  425MOL0     C57272  -0.505   7.445   7.493 -0.2071 -0.9299  1.2360
  425MOL0     C57273  -0.597   7.344   7.476 -0.0225 -0.6515  0.6574
  425MOL0     C57274  -0.723   7.352   7.517 -0.0749  0.5111 -0.3958
  425MOL0     C57275  -0.768   7.469   7.581 -0.4328  0.6316 -0.2731
  425MOL0     O57276  -0.892   7.468   7.611  0.1345 -0.4821  0.0354
  425MOL0     C57277  -0.953   7.570   7.687  0.1615 -0.7731 -0.7258
  425MOL0     C57278  -1.101   7.554   7.700 -0.6737 -0.3022  0.1748
  425MOL0     C57279  -1.137   7.670   7.792  0.1644  0.1540  0.4708
  425MOL0     C57280  -1.274   7.741   7.776 -0.4190  0.0801  1.3989
  425MOL0     C57281  -1.301   7.830   7.893 -0.6557  0.9962  0.4351
  425MOL0     C57282  -1.439   7.894   7.894  0.7443 -0.0940 -0.1969
  425MOL0     C57283  -1.470   7.960   8.021  0.2572  0.1783 -0.6909
  425MOL0     C57284  -1.529   8.098   8.005  0.4710  0.4391 -0.0168
  425MOL0    Cl57285  -1.665   8.113   7.891  0.0190  0.0098  0.1383
  425MOL0     C57286  -0.678   7.572   7.605 -0.2304 -0.2065  0.0904
  425MOL0     C57287  -0.549   7.568   7.552  0.2920  0.4922 -0.1140
  425MOL0     O57288  -0.288   7.621   7.428 -0.6279  0.4067 -0.1408
  425MOL0     C57289  -0.107   7.353   7.543  0.4355  1.3960  0.3640
  425MOL0     C57290   0.021   7.312   7.575  0.0420  0.4313  0.0715
  425MOL0     N57291   0.698   7.119   7.797  0.3012  0.2185 -0.5314
  425MOL0     N57292   0.784   7.121   7.894  0.0590  0.4098  0.7666
  425MOL0     C57293   1.940   7.208   7.605  0.6227  0.7509 -0.3147
  425MOL0     C57294   2.071   7.254   7.566  0.4026  0.3002  0.0066
  425MOL0     C57295   2.505   7.313   7.462 -0.6135 -0.2338 -0.4589
  425MOL0     C57296   2.562   7.251   7.346  0.3857  0.5988  0.1224
  425MOL0     C57297   2.677   7.298   7.283 -0.4547  0.4676  0.5512
  425MOL0     C57298   2.746   7.411   7.338  0.5273  0.6047  1.2550
  425MOL0     O57299   2.868   7.461   7.290  0.6606  0.6360 -0.0555
  425MOL0     C57300   2.930   7.380   7.183 -0.5038  0.1461 -0.0206
  425MOL0     C57301   3.052   7.460   7.128  0.0065  0.5407 -0.0956
  425MOL0     C57302   3.175   7.460   7.228  0.3869 -0.1490 -0.4764
  425MOL0     C57303   3.177   7.589   7.322  0.5851 -0.1632  0.8587
  425MOL0     C57304   3.301   7.611   7.386 -1.2194 -0.4295  1.1538
  425MOL0     C57305   3.401   7.625   7.451  0.8427 -0.0834  0.4478
  425MOL0     C57306   2.704   7.467   7.457 -0.1616 -0.0534  0.5882
  425MOL0     C57307   2.584   7.418   7.514 -1.2933  0.4322  0.3570
  425MOL0     H57308   2.192   6.969   7.421 -1.2397 -1.0261 -3.0641
  425MOL0     H57309   1.949   6.892   7.477 -2.1845  0.0609  3.1223
  425MOL0     H57310   1.649   7.095   7.464  0.7017 -0.8028 -2.2842
  425MOL0     H57311   1.716   6.933   7.451  1.2099 -0.6859  0.7253
  425MOL0     H57312   1.468   6.911   7.524  0.7839  0.0609  1.1571
  425MOL0     H57313   1.549   6.873   7.666 -1.6207 -1.1841 -0.2083
  425MOL0     H57314   1.524   7.108   7.737  4.1154 -2.4715 -2.2272
  425MOL0     H57315   1.465   7.155   7.574 -4.2763  3.1540  1.9510
  425MOL0     H57316   1.266   6.995   7.635  0.0836 -1.5604  2.3126
  425MOL0     H57317   1.319   6.988   7.799  0.9554  1.1312  1.5000
  425MOL0     H57318   1.341   7.245   7.799  2.4089 -0.0245 -0.1616
  425MOL0     H57319   1.243   7.243   7.653  0.4461 -0.3696  0.6172
  425MOL0     H57320   1.062   7.143   7.746  2.2647  1.1716 -2.7195
  425MOL0     H57321   1.140   7.088   7.895 -1.8966 -1.6375 -2.2760
  425MOL0     H57322   1.186   7.315   7.952  0.6758 -0.4981 -2.1118
  425MOL0     H57323   1.099   7.383   7.819  0.7405  0.0058  0.0525
  425MOL0     H57324   0.941   7.367   8.027 -0.7735 -0.1719  1.6247
  425MOL0     H57325   0.999   7.203   8.040  0.1900  1.4968  0.9220
  425MOL0     H57326   0.892   7.371   7.718 -0.1850  0.4766  0.6710
  425MOL0     H57327   0.734   7.339   7.527  1.1101  0.1090  1.0874
  425MOL0     H57328   0.684   7.168   7.513  1.4446  0.4005 -0.1290
  425MOL0     H57329   0.507   7.342   7.488  1.5769  0.0483 -0.5204
  425MOL0     H57330   0.532   7.385   7.650 -1.5177  0.1982 -0.6008
  425MOL0     H57331   0.452   7.148   7.732  3.3261  0.0705 -0.3460
  425MOL0     H57332   0.457   7.099   7.557 -1.2957 -2.4980  2.6619
  425MOL0     H57333   0.263   7.281   7.700 -1.8369  0.1428 -1.3514
  425MOL0     H57334   0.227   7.135   7.606  0.3570 -0.7709 -4.9131
  425MOL0     H57335   0.204   7.514   7.376 -0.6151  0.6727 -1.9882
  425MOL0     H57336   0.042   7.574   7.187  0.5115  3.9474 -0.7372
  425MOL0     H57337  -0.130   7.592   7.230 -0.6072 -2.3584  3.1255
  425MOL0     H57338   0.004   7.704   7.287  1.5883  0.6540 -1.1569
  425MOL0     H57339  -0.555   7.253   7.435 -0.2182 -0.4634  0.0231
  425MOL0     H57340  -0.787   7.265   7.510 -0.3521  0.7213 -0.4765
  425MOL0     H57341  -0.914   7.577   7.789  0.1103  1.5053 -0.8168
  425MOL0     H57342  -0.938   7.663   7.631  1.1068 -1.6064 -1.9224
  425MOL0     H57343  -1.145   7.577   7.602  1.7374 -0.8322 -1.1316
  425MOL0     H57344  -1.135   7.457   7.736  0.8523 -1.6417 -1.7596
  425MOL0     H57345  -1.069   7.754   7.777 -0.8528  1.0439  0.6674
  425MOL0     H57346  -1.131   7.639   7.897 -1.4739 -0.5403  0.3915
  425MOL0     H57347  -1.256   7.799   7.685  0.7804  0.8254  2.0897
  425MOL0     H57348  -1.352   7.670   7.748  0.8847  0.0666 -2.8730
  425MOL0     H57349  -1.217   7.899   7.904  2.1281 -1.7601 -1.5271
  425MOL0     H57350  -1.298   7.763   7.979 -0.2040 -0.9871 -1.0556
  425MOL0     H57351  -1.442   7.979   7.825 -1.1516  0.6283  0.6748
  425MOL0     H57352  -1.508   7.814   7.866  0.1726 -1.4275  4.2184
  425MOL0     H57353  -1.380   7.980   8.080  0.2450  0.6436 -0.8281
  425MOL0     H57354  -1.541   7.905   8.084  1.2078 -0.4558 -0.1494
  425MOL0     H57355  -1.449   8.162   7.967  0.4141  0.1235 -0.6632
  425MOL0     H57356  -1.553   8.143   8.102  1.0445  1.0403 -0.1452
  425MOL0     H57357  -0.701   7.664   7.657  1.6456 -0.4958  1.5323
  425MOL0     H57358  -0.474   7.646   7.563  0.7040  0.0223  0.4713
  425MOL0     H57359  -0.182   7.305   7.606  3.9307 -1.8563  2.5246
  425MOL0     H57360   0.025   7.230   7.645 -0.1557 -1.5227 -2.0760
  425MOL0     H57361   1.869   7.275   7.653  1.1311  2.5487 -1.9486
  425MOL0     H57362   2.103   7.353   7.598 -2.3733  1.8206 -1.5677
  425MOL0     H57363   2.510   7.167   7.301 -2.0367  1.0630  1.8250
  425MOL0     H57364   2.712   7.259   7.188 -0.6732 -0.1767  0.7277
  425MOL0     H57365   2.955   7.280   7.220 -3.9974 -0.3717  1.3098
  425MOL0     H57366   2.856   7.382   7.103  0.2568  2.8779 -0.7920
  425MOL0     H57367   3.018   7.561   7.101  0.5675  1.1013  1.1950
  425MOL0     H57368   3.095   7.424   7.034  0.2260 -0.0973  0.2447
  425MOL0     H57369   3.263   7.446   7.165 -0.1654 -0.9186 -1.0903
  425MOL0     H57370   3.170   7.376   7.298 -0.2199  1.2078  1.1960
  425MOL0     H57371   3.113   7.570   7.409 -0.1043 -1.1954  0.1465
  425MOL0     H57372   3.150   7.682   7.271 -1.7983 -0.6291  1.1777
  425MOL0     H57373   3.493   7.623   7.506  1.7874 -0.4553 -1.1168
  425MOL0     H57374   2.761   7.549   7.499 -0.1689 -0.0235  0.5399
  425MOL0     H57375   2.545   7.462   7.606 -2.5272  2.0047 -0.8611
  426MOL0     O57376   8.236   4.213   0.093  0.0452  0.2002 -0.0238
  426MOL0     C57377   8.307   4.207  -0.009 -0.3096  0.6733 -0.2800
  426MOL0     O57378   8.262   4.227  -0.130 -0.7131 -0.0586  0.5972
  426MOL0     C57379   8.133   4.260  -0.139  0.5757  0.0606 -0.4248
  426MOL0     C57380   8.078   4.384  -0.089  0.6824 -0.7460 -0.0542
  426MOL0     C57381   7.942   4.417  -0.114 -0.4762  0.3053  0.4147
  426MOL0     C57382   7.853   4.324  -0.170  0.4872  0.1298 -0.3799
  426MOL0     O57383   7.719   4.347  -0.173  0.1186  0.6146  0.4193
  426MOL0     C57384   7.668   4.479  -0.161 -0.0503  0.5415  0.0275
  426MOL0     C57385   7.600   4.497  -0.027  0.3009 -0.9258  0.2394
  426MOL0     C57386   7.473   4.426  -0.003  0.0839  0.9512  0.7168
  426MOL0     C57387   7.411   4.463   0.131  0.4563 -0.5175 -0.2389
  426MOL0     C57388   7.356   4.600   0.123 -0.0624 -0.4035 -1.0373
  426MOL0     C57389   7.260   4.641   0.239  0.1038 -0.1037 -0.2564
  426MOL0     C57390   7.197   4.778   0.213 -1.0389 -0.2831  0.1710
  426MOL0     C57391   7.100   4.798   0.323  0.1097  0.4792 -0.2518
  426MOL0     N57392   7.027   4.921   0.309 -0.3418 -0.4025  0.2164
  426MOL0     C57393   6.927   4.925   0.217  0.3460 -0.8362 -1.1227
  426MOL0     C57394   6.871   5.046   0.251  0.0553 -0.3048 -0.6145
  426MOL0     C57395   6.775   5.109   0.156 -0.3770 -0.1143  0.1538
  426MOL0     C57396   6.660   5.025   0.110 -0.1663 -0.6467 -0.4965
  426MOL0     C57397   6.554   5.009   0.225 -0.2026 -0.4510  0.0707
  426MOL0     C57398   6.454   5.119   0.252  0.3206 -0.4263 -0.2049
  426MOL0     O57399   6.402   5.166   0.119 -0.1529 -0.5055 -0.4704
  426MOL0     C57400   6.265   5.168   0.113  0.7023 -0.4337  0.6593
  426MOL0     C57401   6.196   5.139  -0.008 -0.1322 -0.0604  0.1874
  426MOL0     C57402   6.056   5.153  -0.026 -0.1931  0.2826 -0.3437
  426MOL0     C57403   6.005   5.112  -0.168  0.5343 -0.1480 -0.0465
  426MOL0     C57404   5.972   5.201   0.080  0.2564  0.4127  0.9189
  426MOL0     C57405   5.824   5.215   0.066  0.8629 -0.8903  0.4549
  426MOL0     O57406   5.758   5.213   0.186  0.1850 -0.3725  0.9536
  426MOL0     C57407   5.625   5.198   0.192  0.5669 -0.0678 -0.0172
  426MOL0     C57408   5.541   5.126   0.102 -0.0912 -0.5160  0.5594
  426MOL0     C57409   5.411   5.100   0.132  0.4322  0.4482  0.4106
  426MOL0     C57410   5.347   5.149   0.251 -0.8325  0.0452  0.6568
  426MOL0     O57411   5.216   5.129   0.282 -0.7337  0.5627  0.1242
  426MOL0     C57412   5.147   5.046   0.192  0.6366  0.1177  0.4205
  426MOL0     C57413   5.009   5.011   0.256 -0.6893  0.2296  0.4846
  426MOL0     C57414   4.937   4.894   0.189  0.0103  0.6878  0.4684
  426MOL0     C57415   4.784   4.901   0.191 -0.3536 -0.3278  0.4679
  426MOL0     C57416   4.716   4.765   0.174 -0.1131  0.4790  0.0707
  426MOL0     C57417   4.703   4.708   0.318 -0.5992 -0.2787  0.3753
  426MOL0     C57418   4.656   4.560   0.316 -0.7100  0.5396 -0.0939
  426MOL0     C57419   4.623   4.499   0.459 -1.0084 -0.3190 -0.6104
  426MOL0    Cl57420   4.474   4.566   0.539 -0.3500  0.6151  0.2480
  426MOL0     C57421   5.434   5.215   0.344  0.5349 -0.3410 -0.8557
  426MOL0     C57422   5.568   5.239   0.314  0.2712 -0.2832  0.3617
  426MOL0     O57423   5.780   5.270  -0.039  0.5588  0.7240 -0.3143
  426MOL0     C57424   6.042   5.224   0.201 -0.3003  0.8616  0.5638
  426MOL0     C57425   6.181   5.220   0.218  0.2202  0.6644  0.5451
  426MOL0     N57426   6.922   5.100   0.372  0.9510 -0.4150  0.4451
  426MOL0     N57427   7.011   5.014   0.402  0.1710  0.5213 -0.1273
  426MOL0     C57428   7.903   4.193  -0.206  0.3440 -0.1946  0.6761
  426MOL0     C57429   8.039   4.170  -0.201 -0.1446  0.3174 -0.8413
  426MOL0     C57430   8.451   4.183   0.010  0.2213 -0.0537 -0.3212
  426MOL0     C57431   8.532   4.103  -0.076  0.9638  0.2096  0.2391
  426MOL0     C57432   8.668   4.090  -0.063 -0.1154  0.3195 -0.9916
  426MOL0     C57433   8.733   4.157   0.037  0.6820 -0.1013 -0.0068
  426MOL0     O57434   8.867   4.162   0.049 -0.5186 -0.3335 -0.1465
  426MOL0     C57435   8.940   4.093  -0.050  0.4335 -0.7008 -0.1590
  426MOL0     C57436   8.951   3.940  -0.025 -0.8281  0.9001 -0.5262
  426MOL0     C57437   9.034   3.869  -0.142 -1.0600  0.4290  0.0859
  426MOL0     C57438   9.053   3.721  -0.107  1.1896 -0.1617  0.6311
  426MOL0     C57439   8.929   3.635  -0.133 -0.4448  0.6948 -0.3997
  426MOL0     C57440   8.840   3.547  -0.127  0.5475  0.0645 -0.8059
  426MOL0     C57441   8.656   4.236   0.138 -0.6540  0.2243  0.1843
  426MOL0     C57442   8.516   4.242   0.121 -0.5252 -0.1550  0.1266
  426MOL0     H57443   8.155   4.449  -0.048  2.0248 -2.5547  0.4294
  426MOL0     H57444   7.912   4.514  -0.076  0.8157  0.6236  0.6495
  426MOL0     H57445   7.739   4.560  -0.180  1.1395 -0.3466  0.5249
  426MOL0     H57446   7.592   4.496  -0.238 -0.1444  3.5186  0.6554
  426MOL0     H57447   7.676   4.460   0.043  1.5889 -1.2733 -1.2932
  426MOL0     H57448   7.587   4.604  -0.007 -3.0093 -1.4863  1.8012
  426MOL0     H57449   7.400   4.452  -0.080  2.1670  0.2825 -1.6276
  426MOL0     H57450   7.495   4.319  -0.016 -1.4305  0.4344  2.0583
  426MOL0     H57451   7.327   4.396   0.154  0.0022  0.0219 -0.3056
  426MOL0     H57452   7.482   4.440   0.211  1.2788  1.1145 -0.4721
  426MOL0     H57453   7.433   4.675   0.146  0.2206 -1.5104  1.9793
  426MOL0     H57454   7.313   4.623   0.025 -2.3475  3.6643  0.6818
  426MOL0     H57455   7.175   4.573   0.242 -0.1116  0.2123  1.9676
  426MOL0     H57456   7.315   4.646   0.333  0.8400 -1.6706 -0.5810
  426MOL0     H57457   7.267   4.861   0.220 -1.5813  0.1488  0.5061
  426MOL0     H57458   7.155   4.785   0.112  0.0776  2.4411 -0.1703
  426MOL0     H57459   7.149   4.798   0.420 -0.5453  0.1505  0.0891
  426MOL0     H57460   7.035   4.709   0.325  1.2639 -0.4301 -1.6527
  426MOL0     H57461   6.908   4.861   0.132  0.9995 -2.0975 -0.3498
  426MOL0     H57462   6.744   5.207   0.195  0.4256  0.4519 -0.5977
  426MOL0     H57463   6.829   5.134   0.064 -2.0925 -1.0160 -1.1652
  426MOL0     H57464   6.704   4.930   0.078  0.5039  0.2175 -2.2600
  426MOL0     H57465   6.618   5.069   0.019 -0.5695  0.1443  0.0625
  426MOL0     H57466   6.603   4.987   0.320 -0.6647  0.7827  0.6250
  426MOL0     H57467   6.496   4.918   0.205  1.1512 -0.7075 -3.2848
  426MOL0     H57468   6.496   5.205   0.305 -0.2835 -0.7734  0.8630
  426MOL0     H57469   6.378   5.071   0.314  0.4672 -1.3266 -0.7104
  426MOL0     H57470   6.256   5.118  -0.096 -2.4939 -0.3319 -1.4650
  426MOL0     H57471   6.072   5.045  -0.224  1.0095  0.4268 -0.1682
  426MOL0     H57472   5.907   5.065  -0.158  0.1696  0.8500  1.2623
  426MOL0     H57473   5.997   5.206  -0.223  1.2869 -1.8923 -3.4414
  426MOL0     H57474   5.587   5.081   0.015  0.4864  0.7926  0.1545
  426MOL0     H57475   5.360   5.050   0.050 -0.1515  1.3166  0.2272
  426MOL0     H57476   5.130   5.084   0.091 -0.5092 -0.2251  0.4742
  426MOL0     H57477   5.188   4.945   0.182 -2.8122 -1.4798  0.9059
  426MOL0     H57478   5.024   4.984   0.361  1.1860  2.4461  0.8659
  426MOL0     H57479   4.936   5.091   0.241 -2.0157 -0.7954  1.1707
  426MOL0     H57480   4.960   4.794   0.227 -1.0989  0.2545  0.0444
  426MOL0     H57481   4.977   4.882   0.088 -1.4742 -4.0577  0.1886
  426MOL0     H57482   4.749   4.956   0.279 -0.2940 -1.2014  1.0406
  426MOL0     H57483   4.762   4.960   0.101 -0.6953  1.5874  1.7373
  426MOL0     H57484   4.774   4.700   0.108 -0.4445 -0.1481  0.4004
  426MOL0     H57485   4.614   4.773   0.137 -0.7076 -1.4935  1.1496
  426MOL0     H57486   4.788   4.728   0.384 -0.1589 -2.5164  0.5713
  426MOL0     H57487   4.618   4.759   0.365 -0.5488  1.3130 -1.1598
  426MOL0     H57488   4.740   4.498   0.285  0.1476  1.7997 -0.3619
  426MOL0     H57489   4.569   4.546   0.251 -1.2271  0.6834  0.5580
  426MOL0     H57490   4.708   4.524   0.524 -1.4938  0.9151 -0.4179
  426MOL0     H57491   4.605   4.392   0.449 -2.0123 -0.3277  1.0564
  426MOL0     H57492   5.393   5.241   0.442 -0.3484 -1.5681 -0.8835
  426MOL0     H57493   5.614   5.300   0.391  1.3289  2.6234 -2.3189
  426MOL0     H57494   5.976   5.262   0.278 -1.0506 -0.1769  0.4668
  426MOL0     H57495   6.218   5.238   0.319 -0.6237 -1.4212  1.2754
  426MOL0     H57496   7.834   4.115  -0.238  1.2197 -0.5138 -0.4560
  426MOL0     H57497   8.074   4.068  -0.212  1.2036  0.6927 -0.2584
  426MOL0     H57498   8.479   4.054  -0.157  3.2734 -1.8291 -0.1587
  426MOL0     H57499   8.717   4.026  -0.136 -0.6810 -1.0458 -0.2314
  426MOL0     H57500   8.891   4.107  -0.147  1.1050  0.5704 -0.3367
  426MOL0     H57501   9.040   4.136  -0.057 -0.3270  1.1487 -0.1333
  426MOL0     H57502   8.855   3.888  -0.025 -0.4935  0.1503 -2.6408
  426MOL0     H57503   8.999   3.904   0.067  1.5608  0.8283 -1.7265
  426MOL0     H57504   9.138   3.904  -0.144 -2.2967  4.9161  1.0432
  426MOL0     H57505   8.981   3.883  -0.236  1.5540  1.3423 -1.3613
  426MOL0     H57506   9.098   3.721  -0.007  2.8227  1.0204 -0.0516
  426MOL0     H57507   9.130   3.687  -0.177  1.1321  0.0734  0.4535
  426MOL0     H57508   8.759   3.480  -0.106 -1.1031  2.3984  0.7368
  426MOL0     H57509   8.709   4.301   0.207 -1.5752  1.7852 -0.5173
  426MOL0     H57510   8.451   4.299   0.187 -3.1263  0.7528 -2.9557
  427MOL0     O57511   3.706  10.905   5.913  0.0686  0.1715 -0.0131
  427MOL0     C57512   3.787  10.812   5.901  0.1430 -0.0462 -0.6855
  427MOL0     O57513   3.748  10.685   5.905  0.0378  0.5372  0.1007
  427MOL0     C57514   3.621  10.647   5.943 -0.2533 -0.0825  0.3860
  427MOL0     C57515   3.554  10.693   6.059 -0.2377  0.4972 -0.2532
  427MOL0     C57516   3.431  10.633   6.096 -0.2802 -0.3363  0.3012
  427MOL0     C57517   3.367  10.540   6.016 -0.2484 -0.5620  0.2038
  427MOL0     O57518   3.246  10.496   6.058  0.5368  0.5545  0.1374
  427MOL0     C57519   3.262  10.374   6.140 -0.4719  0.8672  0.1024
  427MOL0     C57520   3.202  10.247   6.075  0.0125 -0.1215  0.5134
  427MOL0     C57521   3.045  10.261   6.095  0.1531 -0.6251  0.1527
  427MOL0     C57522   2.954  10.159   6.041 -0.2042  1.1084 -0.3131
  427MOL0     C57523   2.805  10.196   6.047  0.1007  0.2793  1.2349
  427MOL0     C57524   2.746  10.209   6.188  0.4970 -0.2967 -0.0617
  427MOL0     C57525   2.589  10.203   6.197  0.0654 -0.4234 -0.9408
  427MOL0     C57526   2.526  10.344   6.167 -0.2990  1.3064  0.5576
  427MOL0     N57527   2.389  10.356   6.216 -0.4417 -0.4060  0.1091
  427MOL0     C57528   2.298  10.258   6.238 -0.2080 -0.1056 -0.3572
  427MOL0     C57529   2.192  10.309   6.311 -0.4097 -0.8170 -0.2144
  427MOL0     C57530   2.071  10.231   6.351 -0.4935 -0.4478 -0.6445
  427MOL0     C57531   1.989  10.299   6.471 -0.0530  0.0487 -0.4632
  427MOL0     C57532   1.870  10.212   6.502 -0.6224 -0.4451 -0.2366
  427MOL0     C57533   1.760  10.281   6.593 -1.1414 -0.5430  0.7679
  427MOL0     O57534   1.643  10.196   6.608  0.6841 -0.4829 -0.4441
  427MOL0     C57535   1.525  10.245   6.665  0.5929  0.3520  0.1391
  427MOL0     C57536   1.494  10.379   6.707 -0.3653  0.8439  0.7168
  427MOL0     C57537   1.373  10.415   6.756  0.5865  0.2314 -0.2230
  427MOL0     C57538   1.349  10.560   6.785 -0.4419  0.1523 -0.3264
  427MOL0     C57539   1.280  10.311   6.781 -0.0768  0.5731  1.1079
  427MOL0     C57540   1.146  10.334   6.845 -0.3703 -0.2953 -0.6664
  427MOL0     O57541   1.052  10.248   6.795 -0.6409  0.3204 -0.2858
  427MOL0     C57542   0.929  10.226   6.844 -0.6777  0.1695  0.3114
  427MOL0     C57543   0.860  10.288   6.952  0.1362 -0.1380 -0.9041
  427MOL0     C57544   0.724  10.276   6.965 -0.8017  0.0742  0.6581
  427MOL0     C57545   0.661  10.178   6.887  0.0948 -0.5947 -0.4136
  427MOL0     O57546   0.528  10.151   6.903 -1.0653 -0.8961  0.6886
  427MOL0     C57547   0.437  10.254   6.942  0.6524  0.1929  0.6893
  427MOL0     C57548   0.308  10.217   6.866  0.3327 -0.0695  0.1763
  427MOL0     C57549   0.181  10.292   6.920  0.1609 -0.0895  1.1789
  427MOL0     C57550   0.141  10.221   7.048 -1.0938 -0.4648  0.2640
  427MOL0     C57551   0.044  10.303   7.140 -0.9233  0.3749 -0.5655
  427MOL0     C57552  -0.075  10.358   7.066 -0.1350 -0.0235 -0.0249
  427MOL0     C57553  -0.181  10.415   7.155  0.2976 -0.7882  0.3937
  427MOL0     C57554  -0.309  10.470   7.089 -0.3738 -0.2100 -0.3721
  427MOL0    Cl57555  -0.431  10.559   7.195 -0.6191  0.4017 -0.0308
  427MOL0     C57556   0.726  10.097   6.801 -0.4568 -0.2974 -0.2024
  427MOL0     C57557   0.861  10.118   6.777 -0.5390 -0.0538  0.4549
  427MOL0     O57558   1.128  10.426   6.923  0.8884 -0.1640 -0.4664
  427MOL0     C57559   1.302  10.175   6.738  0.7264 -0.4238  0.2492
  427MOL0     C57560   1.424  10.145   6.674  0.5191 -0.9446 -0.2130
  427MOL0     N57561   2.224  10.451   6.317  0.9554  0.7620 -0.5171
  427MOL0     N57562   2.332  10.475   6.257 -0.4763 -0.3011  0.2581
  427MOL0     C57563   3.435  10.487   5.904 -0.2722 -0.5893  0.0103
  427MOL0     C57564   3.566  10.538   5.874  0.7263  0.1054 -0.0691
  427MOL0     C57565   3.921  10.852   5.881 -1.4197 -0.7498  1.1218
  427MOL0     C57566   4.026  10.759   5.885  0.6427  0.4994 -0.3928
  427MOL0     C57567   4.154  10.797   5.858 -0.2294  0.1855 -0.2144
  427MOL0     C57568   4.181  10.936   5.849  0.1476 -0.0975 -1.2793
  427MOL0     O57569   4.309  10.979   5.832  0.5024 -0.5465  0.3666
  427MOL0     C57570   4.419  10.926   5.905  0.1810 -0.5364 -0.6785
  427MOL0     C57571   4.427  10.932   6.053  0.2025 -0.8021  0.8205
  427MOL0     C57572   4.454  11.078   6.094  0.3362 -0.1852  0.8335
  427MOL0     C57573   4.459  11.096   6.251  0.2769  0.0517 -0.3653
  427MOL0     C57574   4.587  11.060   6.305 -0.0018  0.2544  0.1096
  427MOL0     C57575   4.692  11.009   6.347  0.3721 -0.3205 -0.3211
  427MOL0     C57576   4.080  11.030   5.860 -0.3461 -1.3844 -0.3367
  427MOL0     C57577   3.953  10.989   5.857  0.5332 -0.4228 -0.1611
  427MOL0     H57578   3.592  10.777   6.118  0.7984 -0.3448  0.3161
  427MOL0     H57579   3.385  10.673   6.186 -0.7852 -0.7714  0.2461
  427MOL0     H57580   3.367  10.349   6.157 -0.6173  2.9628  7.7457
  427MOL0     H57581   3.219  10.391   6.239 -2.2431 -1.7900 -0.1060
  427MOL0     H57582   3.231  10.258   5.971 -1.4226  4.7714  0.3920
  427MOL0     H57583   3.246  10.163   6.131  2.4584  1.6343  1.3719
  427MOL0     H57584   3.027  10.282   6.201 -0.4478  0.5574 -0.1722
  427MOL0     H57585   3.023  10.359   6.051  1.9896 -0.6644 -0.9446
  427MOL0     H57586   2.989  10.114   5.948  0.3769  1.9188 -0.4985
  427MOL0     H57587   2.975  10.073   6.106  0.1002  2.2223  1.1257
  427MOL0     H57588   2.764  10.270   5.977 -0.4013 -2.6681 -1.9010
  427MOL0     H57589   2.767  10.109   5.992  0.3672  0.7911  0.2080
  427MOL0     H57590   2.785  10.124   6.245  2.1891  0.8316  0.5248
  427MOL0     H57591   2.774  10.306   6.229 -0.8284 -0.1417  0.5452
  427MOL0     H57592   2.547  10.128   6.130  1.3887 -0.3661 -1.8693
  427MOL0     H57593   2.549  10.168   6.293 -1.5476 -2.6533 -2.3334
  427MOL0     H57594   2.522  10.357   6.059  2.9643  0.1798  0.1731
  427MOL0     H57595   2.594  10.419   6.208  0.8851  0.5366  0.0637
  427MOL0     H57596   2.308  10.155   6.205 -0.8919 -0.1565 -0.4193
  427MOL0     H57597   2.012  10.216   6.260  1.6336  0.4109 -2.2789
  427MOL0     H57598   2.102  10.131   6.382 -1.6884 -0.6924 -0.2143
  427MOL0     H57599   1.971  10.407   6.468 -0.4022  0.2282  3.0452
  427MOL0     H57600   2.056  10.285   6.557 -2.4808  3.7893  2.3784
  427MOL0     H57601   1.904  10.122   6.555  0.9415  0.0343 -0.3993
  427MOL0     H57602   1.831  10.169   6.409 -0.2440 -0.6932 -0.2829
  427MOL0     H57603   1.732  10.376   6.548  1.9396  1.3940  2.5833
  427MOL0     H57604   1.787  10.296   6.698  0.4060 -2.8118  0.7637
  427MOL0     H57605   1.564  10.461   6.699  0.2038  0.2113 -1.3534
  427MOL0     H57606   1.245  10.595   6.780 -0.4669  0.6238  2.1115
  427MOL0     H57607   1.381  10.581   6.887  1.6380  0.2581 -0.9547
  427MOL0     H57608   1.412  10.624   6.722 -2.0469 -0.3140 -2.5498
  427MOL0     H57609   0.913  10.363   7.011 -2.5087  2.9156 -2.1036
  427MOL0     H57610   0.675  10.325   7.049 -1.3866  3.3963 -1.4149
  427MOL0     H57611   0.429  10.253   7.051 -1.3533  3.4379  0.7006
  427MOL0     H57612   0.466  10.352   6.902 -0.2059 -0.1546 -0.8903
  427MOL0     H57613   0.320  10.229   6.758  1.0904 -2.1573 -0.0151
  427MOL0     H57614   0.291  10.110   6.878  2.6481 -0.7630 -1.9484
  427MOL0     H57615   0.093  10.290   6.855  0.5219 -1.0438  0.6937
  427MOL0     H57616   0.220  10.392   6.941  1.7212 -0.8744  2.1644
  427MOL0     H57617   0.092  10.128   7.020  1.2270 -1.4463 -0.8581
  427MOL0     H57618   0.227  10.196   7.112 -0.0875 -0.5454 -1.0652
  427MOL0     H57619   0.095  10.395   7.173 -2.7768  2.8443 -3.8877
  427MOL0     H57620   0.016  10.244   7.227  0.2135 -1.9801 -1.6984
  427MOL0     H57621  -0.049  10.443   7.002 -0.8265  0.0454 -0.2202
  427MOL0     H57622  -0.133  10.283   7.011  0.1330  2.0545 -3.4348
  427MOL0     H57623  -0.136  10.500   7.208  0.8090 -0.9821  0.2853
  427MOL0     H57624  -0.204  10.336   7.228  0.9652 -1.2960  0.0688
  427MOL0     H57625  -0.354  10.382   7.042 -1.3884  1.1553 -2.0915
  427MOL0     H57626  -0.269  10.531   7.007 -1.6995 -0.1478 -1.0065
  427MOL0     H57627   0.685  10.013   6.745  0.2709 -1.2234  0.6083
  427MOL0     H57628   0.898  10.063   6.691 -6.1921 -0.2522 -2.3372
  427MOL0     H57629   1.228  10.096   6.745  0.3797  0.0376  2.8737
  427MOL0     H57630   1.444  10.044   6.639  2.3419 -0.5280 -0.4624
  427MOL0     H57631   3.382  10.424   5.832  1.9754  1.2911 -3.6122
  427MOL0     H57632   3.614  10.499   5.785 -0.0549 -1.2260  0.0611
  427MOL0     H57633   4.026  10.652   5.908  1.6271 -0.0220 -2.5835
  427MOL0     H57634   4.232  10.721   5.853  1.5232  1.6380  2.5588
  427MOL0     H57635   4.419  10.820   5.879 -4.8923 -0.9012 -0.0657
  427MOL0     H57636   4.505  10.986   5.873 -2.2450  3.6079 -0.0978
  427MOL0     H57637   4.502  10.860   6.088 -0.2544 -2.3564 -1.2113
  427MOL0     H57638   4.330  10.895   6.088  0.5960 -3.0522 -0.2763
  427MOL0     H57639   4.380  11.151   6.060  0.8298  0.7239  1.6796
  427MOL0     H57640   4.550  11.121   6.063  0.6159 -0.8667  0.7247
  427MOL0     H57641   4.382  11.037   6.302  0.4644  0.5497  0.5047
  427MOL0     H57642   4.440  11.200   6.277  1.9874  0.6387 -1.3232
  427MOL0     H57643   4.784  10.964   6.380  1.1960  1.8692  0.5728
  427MOL0     H57644   4.104  11.136   5.861  1.4097 -1.6377 -3.2329
  427MOL0     H57645   3.870  11.058   5.843  1.6793  0.8028 -1.0715
  428MOL0     O57646   5.507   8.391   4.978 -0.2816  0.0639  0.3105
  428MOL0     C57647   5.508   8.440   4.869 -0.5414 -0.2584 -0.1700
  428MOL0     O57648   5.406   8.502   4.807  0.4113 -0.4718 -0.0681
  428MOL0     C57649   5.314   8.567   4.889 -0.3295 -0.4283  0.0634
  428MOL0     C57650   5.352   8.688   4.958  0.1209  0.5624 -1.0802
  428MOL0     C57651   5.258   8.754   5.034  0.3229  0.0186 -0.0801
  428MOL0     C57652   5.130   8.700   5.055  0.0823 -0.6153  0.8357
  428MOL0     O57653   5.050   8.773   5.142 -0.8248 -0.6497  0.5533
  428MOL0     C57654   4.966   8.705   5.235  1.2218  0.7776  1.2754
  428MOL0     C57655   4.863   8.790   5.301  0.2697  0.1230  0.4026
  428MOL0     C57656   4.750   8.842   5.205  0.6896 -0.6655  0.1055
  428MOL0     C57657   4.646   8.934   5.268 -0.1901 -0.3000  0.3682
  428MOL0     C57658   4.527   8.944   5.168 -0.5416 -1.2542  0.1103
  428MOL0     C57659   4.419   9.040   5.229  0.1465  1.1165  0.0007
  428MOL0     C57660   4.298   9.071   5.139 -0.1817  0.1897  0.6258
  428MOL0     C57661   4.211   8.945   5.118 -0.3053 -0.1276  0.7292
  428MOL0     N57662   4.088   8.989   5.046 -0.4420 -0.2911  0.2002
  428MOL0     C57663   4.077   9.082   4.952 -0.9090 -0.2433  0.7349
  428MOL0     C57664   3.947   9.083   4.920 -0.1426  0.2561  0.3962
  428MOL0     C57665   3.861   9.171   4.835 -0.0590  0.9486 -0.4491
  428MOL0     C57666   3.827   9.101   4.701  0.3882 -0.3783  0.4687
  428MOL0     C57667   3.727   9.185   4.627  0.4610 -0.1106  0.4424
  428MOL0     C57668   3.659   9.099   4.513  0.1813 -0.2338 -0.3165
  428MOL0     O57669   3.544   9.020   4.561  0.1002  0.1924  0.5861
  428MOL0     C57670   3.495   8.923   4.472  0.0380 -1.1312  0.4805
  428MOL0     C57671   3.575   8.851   4.385 -1.4257 -0.1897  0.1248
  428MOL0     C57672   3.521   8.758   4.297 -0.2935 -0.0478  0.4015
  428MOL0     C57673   3.613   8.686   4.200  0.1952  0.2557  0.3946
  428MOL0     C57674   3.377   8.731   4.295 -0.2534 -0.5868 -0.4104
  428MOL0     C57675   3.304   8.650   4.194 -0.3610 -0.6353  0.3862
  428MOL0     O57676   3.182   8.603   4.234 -0.3429  0.1904 -0.0955
  428MOL0     C57677   3.081   8.575   4.139 -1.2245  0.4725  0.4186
  428MOL0     C57678   3.075   8.638   4.010 -1.3700  0.6309 -0.7407
  428MOL0     C57679   2.973   8.601   3.924 -0.1273 -0.6629  0.5167
  428MOL0     C57680   2.871   8.514   3.967  0.4321  0.3196  0.5071
  428MOL0     O57681   2.757   8.480   3.900 -0.1229 -0.1447  0.3733
  428MOL0     C57682   2.661   8.582   3.895  0.4369 -0.4125  0.4338
  428MOL0     C57683   2.532   8.528   3.833  0.1629  0.5615 -0.5373
  428MOL0     C57684   2.424   8.633   3.816  0.8622  0.6589 -1.1946
  428MOL0     C57685   2.286   8.564   3.836  0.2131 -0.2186  0.8444
  428MOL0     C57686   2.177   8.650   3.780  0.0576 -0.0596 -0.5859
  428MOL0     C57687   2.040   8.590   3.822  0.0668 -0.0346 -0.7420
  428MOL0     C57688   1.934   8.622   3.719 -0.7230  0.2694  0.7209
  428MOL0     C57689   1.794   8.597   3.761  0.1598  0.5827 -0.4972
  428MOL0    Cl57690   1.768   8.419   3.795 -0.2012 -0.2512  0.2984
  428MOL0     C57691   2.879   8.449   4.088 -0.4224 -0.2025 -0.8792
  428MOL0     C57692   2.990   8.479   4.173  0.6614 -0.8039 -0.5604
  428MOL0     O57693   3.357   8.641   4.082  0.3104  0.2849  0.6324
  428MOL0     C57694   3.302   8.805   4.390  0.4739  0.0599 -0.8927
  428MOL0     C57695   3.355   8.904   4.462 -0.3352 -0.5400 -0.3438
  428MOL0     N57696   3.880   8.987   4.989 -0.1469 -0.6111 -0.2487
  428MOL0     N57697   3.966   8.928   5.063 -0.4138  1.2967  0.3211
  428MOL0     C57698   5.094   8.579   4.995 -0.0546  0.4464  0.3578
  428MOL0     C57699   5.186   8.520   4.906 -0.1732  0.5292 -0.3340
  428MOL0     C57700   5.630   8.420   4.792 -0.0406  0.6245  0.0224
  428MOL0     C57701   5.753   8.385   4.850 -0.3959  0.2844 -0.5292
  428MOL0     C57702   5.865   8.354   4.782 -0.1816  0.2144  1.1794
  428MOL0     C57703   5.869   8.341   4.639  1.5986 -0.5717 -0.0176
  428MOL0     O57704   5.978   8.312   4.559  0.5779  0.5248 -0.1112
  428MOL0     C57705   6.106   8.354   4.607 -0.1400  0.8129 -0.0965
  428MOL0     C57706   6.117   8.511   4.619  0.2359 -0.7930 -0.6284
  428MOL0     C57707   6.080   8.580   4.489 -0.0243 -0.5683  0.4087
  428MOL0     C57708   6.188   8.562   4.375  0.9501 -0.2353  0.0950
  428MOL0     C57709   6.133   8.597   4.245 -1.1605  0.8900 -0.2943
  428MOL0     C57710   6.076   8.618   4.134 -0.4705  0.5273 -0.7692
  428MOL0     C57711   5.749   8.380   4.576 -1.2548 -0.3538 -0.1336
  428MOL0     C57712   5.634   8.424   4.647 -0.1920  0.8245  0.2547
  428MOL0     H57713   5.454   8.723   4.948  0.4656 -0.4768 -1.2739
  428MOL0     H57714   5.275   8.852   5.078 -0.1533 -0.2241  0.6668
  428MOL0     H57715   4.907   8.630   5.181  2.5043 -0.3941  1.4528
  428MOL0     H57716   5.031   8.648   5.302  1.9807  1.6272  1.2839
  428MOL0     H57717   4.827   8.720   5.377  1.0961  0.1083  0.7981
  428MOL0     H57718   4.901   8.881   5.350 -1.1419  2.4137 -2.4528
  428MOL0     H57719   4.791   8.880   5.111  0.8426 -1.9301 -0.3670
  428MOL0     H57720   4.701   8.749   5.174 -0.8771  0.1653  0.0122
  428MOL0     H57721   4.617   8.895   5.366  0.9162 -1.6234  0.2058
  428MOL0     H57722   4.692   9.031   5.291  1.0858 -0.7122 -0.3567
  428MOL0     H57723   4.559   8.984   5.071 -0.1613 -1.1744  0.2677
  428MOL0     H57724   4.475   8.850   5.147 -0.4685 -1.0670 -0.9980
  428MOL0     H57725   4.374   8.997   5.319 -0.8982  1.1551 -0.4903
  428MOL0     H57726   4.465   9.135   5.259  2.2847 -0.0067  0.5173
  428MOL0     H57727   4.240   9.151   5.186 -0.0912  0.4186  0.3535
  428MOL0     H57728   4.326   9.119   5.044 -1.6008 -0.6466 -0.2618
  428MOL0     H57729   4.176   8.891   5.206  3.1039 -2.1882  1.0147
  428MOL0     H57730   4.265   8.869   5.060  1.7176  1.2654  0.6851
  428MOL0     H57731   4.159   9.130   4.900 -0.3552 -3.0765 -1.2844
  428MOL0     H57732   3.770   9.180   4.895  2.0613 -1.4670  3.5515
  428MOL0     H57733   3.896   9.273   4.821  1.3380  0.2553 -2.5061
  428MOL0     H57734   3.798   8.999   4.728  0.6876 -0.3019  1.0821
  428MOL0     H57735   3.916   9.103   4.637  1.3562 -0.2472  1.7835
  428MOL0     H57736   3.775   9.268   4.575  0.4024  0.3414  1.0978
  428MOL0     H57737   3.650   9.236   4.685 -0.6793 -1.7323  0.4084
  428MOL0     H57738   3.733   9.039   4.459 -0.7417 -0.1687 -1.7051
  428MOL0     H57739   3.629   9.167   4.433  1.1343 -0.2133 -0.6693
  428MOL0     H57740   3.684   8.851   4.382 -1.4022  1.7324  0.2362
  428MOL0     H57741   3.592   8.579   4.201  3.0298 -0.3932  1.8930
  428MOL0     H57742   3.595   8.723   4.098 -3.7174 -1.9034  0.1217
  428MOL0     H57743   3.720   8.695   4.221  0.6920  1.0891 -2.1293
  428MOL0     H57744   3.152   8.707   3.978  0.4736 -2.0524 -2.6011
  428MOL0     H57745   2.965   8.643   3.824  1.7295  1.1513  1.0653
  428MOL0     H57746   2.627   8.613   3.995  1.3870  1.1576  0.2905
  428MOL0     H57747   2.686   8.671   3.837  2.3017 -0.7174  0.7203
  428MOL0     H57748   2.552   8.468   3.744 -0.4866 -1.4700  0.6146
  428MOL0     H57749   2.511   8.456   3.912  2.6504  0.4980  0.1543
  428MOL0     H57750   2.430   8.674   3.715 -2.0895  1.6329 -1.0567
  428MOL0     H57751   2.438   8.712   3.890 -2.2180  0.2301 -0.0219
  428MOL0     H57752   2.287   8.464   3.791 -0.9774 -0.5349  1.4659
  428MOL0     H57753   2.248   8.561   3.939 -2.8168  1.1044 -0.1257
  428MOL0     H57754   2.195   8.677   3.676  0.7255 -1.0569 -0.7435
  428MOL0     H57755   2.168   8.750   3.822 -0.3960  0.1400 -1.1619
  428MOL0     H57756   2.042   8.482   3.838 -1.5446  0.2305  1.9058
  428MOL0     H57757   2.002   8.635   3.915  0.5187  3.1721 -1.9617
  428MOL0     H57758   1.954   8.561   3.630  1.0725  2.4402 -0.4864
  428MOL0     H57759   1.946   8.728   3.699 -0.4444  0.4321  1.6838
  428MOL0     H57760   1.732   8.636   3.681  0.5946 -3.5299 -3.1326
  428MOL0     H57761   1.766   8.663   3.844 -0.7560  1.4578 -1.4697
  428MOL0     H57762   2.815   8.368   4.120  1.4149 -1.1281  0.6435
  428MOL0     H57763   2.994   8.434   4.272 -1.1789 -2.3337 -1.1150
  428MOL0     H57764   3.194   8.794   4.392  0.4091  0.2048 -2.5060
  428MOL0     H57765   3.297   8.951   4.541  0.0728 -2.3776  1.1187
  428MOL0     H57766   5.003   8.521   5.004  1.2104 -2.9350 -4.4181
  428MOL0     H57767   5.169   8.433   4.844 -0.1444 -0.9295  1.6073
  428MOL0     H57768   5.765   8.391   4.957  3.0438 -0.8591 -0.7361
  428MOL0     H57769   5.951   8.338   4.845 -0.9590  0.5986  2.3663
  428MOL0     H57770   6.133   8.302   4.699  0.1722 -0.8754 -1.1034
  428MOL0     H57771   6.181   8.318   4.536 -1.4954  2.5937 -2.6177
  428MOL0     H57772   6.216   8.545   4.651 -0.3050 -0.5232  0.8218
  428MOL0     H57773   6.057   8.548   4.702  4.6041  3.4214  1.1786
  428MOL0     H57774   6.066   8.682   4.527 -2.2690 -1.0076  0.9159
  428MOL0     H57775   5.987   8.553   4.437  0.4103  1.8937 -1.8791
  428MOL0     H57776   6.224   8.459   4.363  1.5073  0.2901 -4.8013
  428MOL0     H57777   6.274   8.625   4.400  0.1399  2.2980 -2.9072
  428MOL0     H57778   6.052   8.626   4.030  2.3180 -1.5787 -1.6998
  428MOL0     H57779   5.753   8.393   4.468  1.7260 -0.9935 -0.2029
  428MOL0     H57780   5.545   8.451   4.591  0.6513  0.2547 -1.4198
  429MOL0     O57781   1.625   5.475   7.268 -0.1155 -0.3879 -0.4528
  429MOL0     C57782   1.659   5.598   7.279 -0.0004 -0.6564  0.8775
  429MOL0     O57783   1.662   5.694   7.174 -0.3343  0.2245 -0.1592
  429MOL0     C57784   1.612   5.667   7.050  0.5912 -0.3839 -0.3351
  429MOL0     C57785   1.665   5.762   6.957  0.0463  0.1470  0.0197
  429MOL0     C57786   1.629   5.760   6.827  0.6113 -0.3743  0.7722
  429MOL0     C57787   1.539   5.665   6.784  0.9019  0.0096  0.4283
  429MOL0     O57788   1.490   5.663   6.656 -0.0547 -0.5550  0.1287
  429MOL0     C57789   1.355   5.662   6.622  0.9696 -0.2555  0.1224
  429MOL0     C57790   1.273   5.791   6.657 -0.3846 -0.9337 -0.0331
  429MOL0     C57791   1.131   5.782   6.605  0.1302 -0.6372 -0.1265
  429MOL0     C57792   1.048   5.912   6.637 -0.5811 -0.4166 -0.4220
  429MOL0     C57793   0.912   5.910   6.563 -0.2286 -0.3726  0.1075
  429MOL0     C57794   0.820   6.021   6.610 -0.8398  0.0289  0.4734
  429MOL0     C57795   0.686   6.025   6.537 -0.1690 -0.1314 -1.5212
  429MOL0     C57796   0.598   5.895   6.555  0.4244 -0.1273 -0.3329
  429MOL0     N57797   0.457   5.905   6.518  0.1844  0.2714  0.4503
  429MOL0     C57798   0.353   5.965   6.582 -0.0462 -0.9601  0.1853
  429MOL0     C57799   0.234   5.927   6.531  0.0458 -0.6789  0.4096
  429MOL0     C57800   0.096   5.971   6.575  0.2869  1.7884  0.1453
  429MOL0     C57801  -0.006   5.969   6.455  0.0678  1.3231 -0.5116
  429MOL0     C57802   0.025   6.076   6.359 -0.8311  0.2381 -0.2808
  429MOL0     C57803   0.031   6.210   6.418  0.3286  0.7216 -0.6513
  429MOL0     O57804  -0.096   6.246   6.479  0.0016 -0.3899 -0.4271
  429MOL0     C57805  -0.201   6.285   6.394 -0.7202 -0.0265  0.1410
  429MOL0     C57806  -0.329   6.287   6.445  0.7414 -0.5059 -0.3108
  429MOL0     C57807  -0.447   6.325   6.373 -1.1586 -0.4177 -0.1580
  429MOL0     C57808  -0.573   6.317   6.455 -0.0572  0.8228 -0.0408
  429MOL0     C57809  -0.426   6.369   6.236  1.0019  0.7210  0.8257
  429MOL0     C57810  -0.539   6.401   6.151 -0.4067  0.7372  0.6745
  429MOL0     O57811  -0.669   6.376   6.193 -0.4337 -0.2179  0.5881
  429MOL0     C57812  -0.787   6.412   6.124  0.8218  0.0918 -0.2416
  429MOL0     C57813  -0.898   6.325   6.151 -0.1731  0.4206 -0.2710
  429MOL0     C57814  -1.011   6.340   6.077 -0.6181  1.2282  0.1726
  429MOL0     C57815  -1.029   6.442   5.979 -0.5345 -0.1300 -0.5512
  429MOL0     O57816  -1.152   6.427   5.915  0.3912  0.7010 -1.1075
  429MOL0     C57817  -1.177   6.528   5.818 -1.1932  0.4680  0.6251
  429MOL0     C57818  -1.319   6.490   5.760  0.4124  0.3480  0.1640
  429MOL0     C57819  -1.371   6.576   5.649 -0.2188 -0.5932 -0.4766
  429MOL0     C57820  -1.514   6.513   5.627 -0.0087 -0.0157  0.3494
  429MOL0     C57821  -1.580   6.581   5.510 -0.0529 -0.1376  0.9850
  429MOL0     C57822  -1.725   6.531   5.480  0.4499 -0.3789 -0.3866
  429MOL0     C57823  -1.817   6.582   5.594  0.9306  0.0340 -0.2543
  429MOL0     C57824  -1.974   6.578   5.570 -0.7395 -0.0945 -0.6221
  429MOL0    Cl57825  -2.007   6.692   5.423 -0.1570  0.4165 -0.4612
  429MOL0     C57826  -0.933   6.535   5.958 -0.1529  0.6473 -0.7773
  429MOL0     C57827  -0.807   6.510   6.025 -0.1581  0.5053  0.4148
  429MOL0     O57828  -0.507   6.454   6.044 -0.7085  0.6343  0.2770
  429MOL0     C57829  -0.290   6.368   6.184 -0.2712  0.0505  0.2867
  429MOL0     C57830  -0.183   6.338   6.268 -0.4334 -0.0787  0.2965
  429MOL0     N57831   0.276   5.840   6.433  0.4038  0.5479  0.5517
  429MOL0     N57832   0.405   5.822   6.428 -0.6618 -0.1571  0.2581
  429MOL0     C57833   1.487   5.563   6.870 -0.5020  0.2307 -0.6036
  429MOL0     C57834   1.526   5.563   7.005  0.5532 -0.6521  0.5429
  429MOL0     C57835   1.692   5.653   7.416 -0.4610 -0.2787  0.1465
  429MOL0     C57836   1.723   5.566   7.513  0.2944 -0.4461  0.1540
  429MOL0     C57837   1.771   5.605   7.633  0.2040 -0.3294 -0.5074
  429MOL0     C57838   1.781   5.740   7.671 -0.4783 -0.0437  0.5107
  429MOL0     O57839   1.810   5.775   7.797 -0.4077  0.2736  0.4592
  429MOL0     C57840   1.799   5.913   7.827 -0.2344 -0.3636  0.2406
  429MOL0     C57841   1.867   5.939   7.960 -0.2210  0.0672  0.2263
  429MOL0     C57842   1.803   5.856   8.082  0.5994 -0.4384 -0.2021
  429MOL0     C57843   1.864   5.715   8.086 -0.4332 -0.5061  0.6776
  429MOL0     C57844   1.845   5.653   8.222 -0.4035  0.1951  0.7549
  429MOL0     C57845   1.820   5.608   8.331 -0.0282 -0.6537 -0.0687
  429MOL0     C57846   1.747   5.831   7.566  0.1336  0.1705 -0.0985
  429MOL0     C57847   1.707   5.791   7.438 -0.2425  0.1930 -0.3089
  429MOL0     H57848   1.731   5.839   6.995 -1.1003  0.8514  0.6598
  429MOL0     H57849   1.666   5.831   6.754 -2.5302 -0.7752 -1.4175
  429MOL0     H57850   1.343   5.649   6.514  3.1773  2.8663 -0.6495
  429MOL0     H57851   1.305   5.580   6.674  1.2591  0.3886  1.4642
  429MOL0     H57852   1.262   5.811   6.764 -1.3836  1.3520 -0.5176
  429MOL0     H57853   1.332   5.873   6.615  0.5231 -0.4671  1.9973
  429MOL0     H57854   1.130   5.763   6.498  1.8822  1.4854 -0.6055
  429MOL0     H57855   1.084   5.693   6.647 -0.7567  0.0105  0.2861
  429MOL0     H57856   1.032   5.916   6.745  0.5213 -0.4231 -0.2484
  429MOL0     H57857   1.093   6.008   6.608 -0.2286 -1.1744 -2.5788
  429MOL0     H57858   0.930   5.910   6.455  1.4963 -1.5740  0.3440
  429MOL0     H57859   0.870   5.813   6.592 -0.4055  0.1504  1.6873
  429MOL0     H57860   0.809   5.991   6.715 -0.1171  0.7308  0.7595
  429MOL0     H57861   0.862   6.122   6.602  2.1144 -1.0996  0.5969
  429MOL0     H57862   0.628   6.106   6.581  2.5841  2.0123 -1.5234
  429MOL0     H57863   0.706   6.038   6.430  2.3804  0.4516 -1.0399
  429MOL0     H57864   0.616   5.855   6.656 -0.5922 -2.3186 -0.9417
  429MOL0     H57865   0.641   5.820   6.489 -0.6151 -1.1175  0.0821
  429MOL0     H57866   0.366   6.031   6.667  3.7026 -2.3452  0.8732
  429MOL0     H57867   0.065   5.892   6.644 -2.5600  1.5496 -1.2659
  429MOL0     H57868   0.084   6.063   6.634 -0.4552 -0.6131  4.1309
  429MOL0     H57869  -0.105   5.982   6.498 -1.4789  2.6736 -4.0477
  429MOL0     H57870   0.005   5.875   6.400  3.6969  1.4591 -0.2741
  429MOL0     H57871  -0.037   6.069   6.270 -0.7333 -2.5564 -0.2110
  429MOL0     H57872   0.128   6.062   6.325  0.5806  0.4344  3.3831
  429MOL0     H57873   0.065   6.293   6.356  3.8160  0.1504  0.3028
  429MOL0     H57874   0.108   6.208   6.495  1.8666 -0.7810 -2.1533
  429MOL0     H57875  -0.337   6.250   6.546  2.4918 -0.4337 -0.1173
  429MOL0     H57876  -0.556   6.290   6.559  0.7745  1.0610 -0.1053
  429MOL0     H57877  -0.620   6.416   6.447  1.3472  1.7091  1.7977
  429MOL0     H57878  -0.652   6.247   6.427  0.5506 -0.7580  2.0149
  429MOL0     H57879  -0.869   6.242   6.214 -0.7748  0.9726  0.7626
  429MOL0     H57880  -1.084   6.265   6.103  1.5731 -0.5797  1.4408
  429MOL0     H57881  -1.178   6.626   5.867 -3.0709 -0.3705  2.4476
  429MOL0     H57882  -1.099   6.518   5.742 -1.2273 -0.3521  0.6917
  429MOL0     H57883  -1.321   6.385   5.729  0.8073  0.6501 -0.8965
  429MOL0     H57884  -1.386   6.507   5.845 -1.0833  1.7813 -1.2367
  429MOL0     H57885  -1.316   6.568   5.555  0.3636  2.0352 -0.4458
  429MOL0     H57886  -1.366   6.681   5.681 -1.0279 -0.9302  0.8693
  429MOL0     H57887  -1.511   6.405   5.609  1.6835 -0.0665  0.7211
  429MOL0     H57888  -1.564   6.532   5.722 -0.0597  2.7432 -0.1609
  429MOL0     H57889  -1.524   6.564   5.417 -0.3087  1.9938  0.3790
  429MOL0     H57890  -1.595   6.687   5.530  0.0683 -0.0137  0.4477
  429MOL0     H57891  -1.744   6.574   5.381  0.7744  0.2811 -0.1750
  429MOL0     H57892  -1.744   6.425   5.464 -1.4245 -0.0521 -0.5202
  429MOL0     H57893  -1.800   6.689   5.608  2.7048 -0.1082 -1.0869
  429MOL0     H57894  -1.800   6.527   5.687  0.9674 -3.9011 -2.3568
  429MOL0     H57895  -2.030   6.613   5.656 -0.6839 -1.8593  0.1690
  429MOL0     H57896  -2.019   6.481   5.547 -1.8022  0.2851 -0.1770
  429MOL0     H57897  -0.938   6.626   5.898 -1.9369  2.3278  1.7280
  429MOL0     H57898  -0.721   6.569   5.995 -0.2495  0.6963  0.5248
  429MOL0     H57899  -0.274   6.405   6.084 -0.3476 -2.2392 -0.6370
  429MOL0     H57900  -0.084   6.357   6.228 -2.4873  2.7553 -4.2676
  429MOL0     H57901   1.418   5.487   6.837 -0.3824 -0.6766  1.1184
  429MOL0     H57902   1.480   5.492   7.073 -0.5121  0.0180  0.5457
  429MOL0     H57903   1.714   5.459   7.497  0.4573 -0.4042 -0.2275
  429MOL0     H57904   1.782   5.530   7.711 -3.1909  0.2324  0.6604
  429MOL0     H57905   1.853   5.972   7.753 -2.0477 -1.1120 -1.7733
  429MOL0     H57906   1.696   5.948   7.824 -0.4786 -1.1457 -0.6771
  429MOL0     H57907   1.857   6.045   7.986 -0.5675 -0.2810  1.6132
  429MOL0     H57908   1.972   5.907   7.958 -0.4416 -0.6438 -0.9621
  429MOL0     H57909   1.694   5.855   8.074  0.4702 -0.3182  1.2726
  429MOL0     H57910   1.821   5.911   8.174 -0.8801 -1.4409  0.7327
  429MOL0     H57911   1.969   5.701   8.060 -0.4040 -1.1000  1.1186
  429MOL0     H57912   1.818   5.660   8.004 -1.0100  3.6752 -2.1297
  429MOL0     H57913   1.807   5.572   8.431  2.6056  3.1782  1.8603
  429MOL0     H57914   1.749   5.939   7.580 -3.4229  0.0798  2.2142
  429MOL0     H57915   1.674   5.864   7.365 -0.5751  1.3041  0.9232
  430MOL0     O57916   3.470   2.546   3.227  0.3153 -0.2985  0.6554
  430MOL0     C57917   3.498   2.464   3.138  0.0917 -0.1930  0.4536
  430MOL0     O57918   3.406   2.414   3.045 -0.3726  1.0273  0.2884
  430MOL0     C57919   3.270   2.413   3.046  0.0669 -0.2621  0.5090
  430MOL0     C57920   3.197   2.477   3.138  0.4991  0.2862  0.1597
  430MOL0     C57921   3.056   2.468   3.133  0.5041 -0.3043 -0.5249
  430MOL0     C57922   2.991   2.391   3.034  0.1601 -0.8738 -0.8039
  430MOL0     O57923   2.862   2.389   3.042  0.6458 -0.7820  0.3171
  430MOL0     C57924   2.780   2.332   2.939 -0.9967 -0.5893 -1.0413
  430MOL0     C57925   2.646   2.400   2.963  0.2533 -0.1639 -0.5603
  430MOL0     C57926   2.543   2.348   2.866 -0.4292  0.7901 -0.0546
  430MOL0     C57927   2.406   2.404   2.889 -0.4889 -0.8392 -0.1764
  430MOL0     C57928   2.307   2.366   2.777  0.1997  0.3333  0.0087
  430MOL0     C57929   2.185   2.471   2.766 -0.3936 -0.9105 -0.1272
  430MOL0     C57930   2.068   2.415   2.681  0.0721 -0.8786 -0.9601
  430MOL0     C57931   2.093   2.432   2.537 -1.2752 -0.0595  0.4060
  430MOL0     N57932   2.048   2.565   2.478  0.9154  0.0729 -0.3964
  430MOL0     C57933   2.113   2.686   2.488 -0.0784 -0.1979  0.2172
  430MOL0     C57934   2.031   2.773   2.418 -0.1163  0.2896 -1.1750
  430MOL0     C57935   2.048   2.923   2.420  1.3099  0.0827 -0.7053
  430MOL0     C57936   2.164   2.959   2.319 -0.4157 -0.3785  0.9347
  430MOL0     C57937   2.102   2.986   2.185  0.8065  0.4466  0.0836
  430MOL0     C57938   2.205   3.007   2.063  0.2180  0.0116 -0.8793
  430MOL0     O57939   2.295   2.890   2.044  0.1273  0.4693  0.6675
  430MOL0     C57940   2.376   2.911   1.936  0.8258  0.4614  0.1857
  430MOL0     C57941   2.463   3.014   1.932 -0.5075  0.3922 -0.5671
  430MOL0     C57942   2.563   3.023   1.832  0.3761 -0.4799 -0.1086
  430MOL0     C57943   2.672   3.136   1.839 -0.1469 -0.8020  0.3909
  430MOL0     C57944   2.560   2.938   1.724 -0.2844  0.2686  0.8333
  430MOL0     C57945   2.653   2.952   1.603 -0.4017  0.6878  0.2217
  430MOL0     O57946   2.719   3.066   1.559 -0.0851  0.4859  0.1476
  430MOL0     C57947   2.818   3.071   1.467 -1.0216 -0.5517 -0.5964
  430MOL0     C57948   2.921   2.977   1.449 -0.0440  0.0609 -0.2028
  430MOL0     C57949   3.032   3.002   1.368 -0.5133  0.6149  0.1205
  430MOL0     C57950   3.047   3.127   1.300 -0.6876  0.4962 -0.1239
  430MOL0     O57951   3.152   3.167   1.214  0.3355 -0.0328 -0.7474
  430MOL0     C57952   3.279   3.100   1.238 -0.6097  0.2962  0.3158
  430MOL0     C57953   3.389   3.158   1.148  0.4203 -1.2026 -0.6295
  430MOL0     C57954   3.352   3.170   0.995 -0.5963 -0.6999 -0.2559
  430MOL0     C57955   3.446   3.265   0.919 -0.5441 -0.2066 -0.1029
  430MOL0     C57956   3.413   3.290   0.776 -0.4254  0.5672 -0.2204
  430MOL0     C57957   3.529   3.354   0.700 -0.1033 -0.2904 -0.6974
  430MOL0     C57958   3.640   3.249   0.657  0.2817  0.1153  0.3850
  430MOL0     C57959   3.776   3.308   0.618  0.2149  1.0794  0.5346
  430MOL0    Cl57960   3.833   3.383   0.772 -0.3867 -0.0943  0.0317
  430MOL0     C57961   2.957   3.222   1.335 -0.3401 -0.2267 -0.3169
  430MOL0     C57962   2.847   3.201   1.421 -0.2649  0.3552 -0.2773
  430MOL0     O57963   2.657   2.839   1.546  0.0229 -0.3800 -0.6813
  430MOL0     C57964   2.459   2.841   1.720 -0.5519 -0.6833 -0.2471
  430MOL0     C57965   2.372   2.826   1.826  0.0816 -0.3760  0.0578
  430MOL0     N57966   1.920   2.704   2.371 -0.1426  0.1381  0.0673
  430MOL0     N57967   1.930   2.581   2.408  0.0868  0.2829  0.2817
  430MOL0     C57968   3.067   2.329   2.933  0.6887 -0.1761 -0.8113
  430MOL0     C57969   3.202   2.348   2.934  0.1066 -0.1255 -0.6554
  430MOL0     C57970   3.642   2.431   3.108 -0.7387 -0.5940 -0.0823
  430MOL0     C57971   3.670   2.351   2.996 -0.6438 -1.2565 -0.3616
  430MOL0     C57972   3.805   2.334   2.957  0.2145  0.2817  0.0565
  430MOL0     C57973   3.907   2.389   3.026  0.1767 -0.0360 -0.6890
  430MOL0     O57974   4.036   2.381   2.991  0.1099  0.7556  1.1195
  430MOL0     C57975   4.101   2.500   2.946  0.2005 -0.2206 -0.3297
  430MOL0     C57976   4.234   2.459   2.894 -0.8211  0.4050  0.0760
  430MOL0     C57977   4.236   2.372   2.771 -0.0269 -0.3580 -0.1280
  430MOL0     C57978   4.377   2.308   2.768  0.0371  0.4150 -0.8163
  430MOL0     C57979   4.387   2.180   2.854  0.1565 -1.5313  0.1568
  430MOL0     C57980   4.407   2.082   2.917 -1.0979  0.2008  0.2912
  430MOL0     C57981   3.878   2.459   3.138  0.2548  0.0118 -0.2713
  430MOL0     C57982   3.750   2.482   3.182  0.0213  0.4322 -0.3871
  430MOL0     H57983   3.239   2.536   3.219 -1.2410  3.0890 -0.8295
  430MOL0     H57984   2.991   2.515   3.206  0.7682 -0.2954 -0.2979
  430MOL0     H57985   2.811   2.358   2.838 -3.2270 -0.4685 -1.7367
  430MOL0     H57986   2.782   2.223   2.948 -0.4116 -0.6137 -1.4208
  430MOL0     H57987   2.593   2.375   3.056 -3.4127  0.7929 -2.1963
  430MOL0     H57988   2.649   2.507   2.942  0.9352 -0.1494 -0.3866
  430MOL0     H57989   2.580   2.381   2.768 -0.8912  1.0298 -0.1511
  430MOL0     H57990   2.547   2.239   2.865 -0.2157  0.7851 -1.8469
  430MOL0     H57991   2.378   2.366   2.987 -1.1713  2.1559  0.9089
  430MOL0     H57992   2.411   2.513   2.898 -0.2600 -0.9317  0.8869
  430MOL0     H57993   2.350   2.370   2.677  0.0834  2.4155 -0.0094
  430MOL0     H57994   2.274   2.263   2.789  0.0258  0.2847 -0.8224
  430MOL0     H57995   2.142   2.488   2.865 -2.2014  0.8756 -1.1484
  430MOL0     H57996   2.225   2.568   2.736  0.5967 -0.9003  1.1224
  430MOL0     H57997   2.040   2.314   2.712 -0.7656 -0.5555 -0.6290
  430MOL0     H57998   1.985   2.483   2.706  1.1520  1.2355 -2.7285
  430MOL0     H57999   2.042   2.350   2.487  0.9946 -0.1499 -1.9806
  430MOL0     H58000   2.199   2.425   2.510 -1.4962 -1.8725 -0.1569
  430MOL0     H58001   2.211   2.715   2.524 -1.2660  1.6009  2.2313
  430MOL0     H58002   1.957   2.980   2.400  2.1374  1.8561  0.3172
  430MOL0     H58003   2.094   2.951   2.515  0.1855 -0.2134 -0.0532
  430MOL0     H58004   2.243   2.885   2.308  0.3711  0.6742 -0.8072
  430MOL0     H58005   2.217   3.046   2.358 -1.0080  0.7671 -0.7414
  430MOL0     H58006   2.039   3.074   2.198 -0.7725 -0.9299  2.4159
  430MOL0     H58007   2.041   2.900   2.156 -1.2256  1.1578  2.0235
  430MOL0     H58008   2.256   3.103   2.076 -2.1958  1.1185  1.2534
  430MOL0     H58009   2.141   3.027   1.977 -1.0116  1.5607  0.3460
  430MOL0     H58010   2.456   3.096   2.002 -3.9056  1.1060 -1.5239
  430MOL0     H58011   2.765   3.088   1.807 -0.2389  0.5266 -2.1694
  430MOL0     H58012   2.648   3.209   1.760 -0.4911 -1.9218 -0.5617
  430MOL0     H58013   2.677   3.178   1.940 -0.5807  1.9395 -0.6296
  430MOL0     H58014   2.906   2.875   1.485  0.2215 -0.4967 -1.5821
  430MOL0     H58015   3.102   2.923   1.346  0.2063  1.1833  0.3202
  430MOL0     H58016   3.307   3.114   1.343  2.3317  1.9577 -0.5744
  430MOL0     H58017   3.281   2.994   1.209  0.5668 -0.3550  2.5504
  430MOL0     H58018   3.408   3.262   1.178  1.4735 -1.3059 -0.9227
  430MOL0     H58019   3.477   3.100   1.173  3.6564  3.5375  0.4304
  430MOL0     H58020   3.248   3.204   0.995 -0.9264 -1.4941  2.1055
  430MOL0     H58021   3.357   3.071   0.949 -0.0547 -2.1674  2.7039
  430MOL0     H58022   3.456   3.359   0.973  2.2351  1.3398 -2.9625
  430MOL0     H58023   3.548   3.225   0.924  0.1885  1.6985  1.7432
  430MOL0     H58024   3.328   3.359   0.777 -1.3453 -0.5192  1.0471
  430MOL0     H58025   3.379   3.201   0.723 -0.7860 -0.5762  1.7946
  430MOL0     H58026   3.477   3.387   0.610 -0.6804 -1.9366 -1.0083
  430MOL0     H58027   3.577   3.436   0.754 -2.0475  1.7065 -1.8419
  430MOL0     H58028   3.607   3.195   0.568 -0.8272  1.3417  0.0227
  430MOL0     H58029   3.648   3.184   0.745  0.2500  1.5218  1.4734
  430MOL0     H58030   3.771   3.382   0.538  0.7326 -1.3237 -1.8669
  430MOL0     H58031   3.852   3.234   0.591 -1.4883 -0.9135  0.8999
  430MOL0     H58032   2.978   3.326   1.310 -0.2447 -0.5011 -1.4123
  430MOL0     H58033   2.800   3.296   1.443 -0.4265  0.7969 -2.3410
  430MOL0     H58034   2.442   2.789   1.626 -2.7667  0.8302 -0.7642
  430MOL0     H58035   2.302   2.745   1.809 -1.1271  0.3198  1.5053
  430MOL0     H58036   3.019   2.269   2.857  1.8343 -1.3940 -0.6060
  430MOL0     H58037   3.263   2.298   2.860  1.9169  1.0727 -0.0472
  430MOL0     H58038   3.599   2.310   2.925  1.2021 -2.0770 -1.8199
  430MOL0     H58039   3.816   2.292   2.858 -1.1466  1.3630 -0.5911
  430MOL0     H58040   4.047   2.538   2.858 -0.1600  0.2873  0.1037
  430MOL0     H58041   4.120   2.572   3.025  0.0939 -0.0519 -0.4570
  430MOL0     H58042   4.284   2.396   2.967  0.3014 -0.5438 -1.4565
  430MOL0     H58043   4.294   2.546   2.867 -1.0853  0.0412 -1.8295
  430MOL0     H58044   4.220   2.432   2.681  0.0057 -0.7867 -0.4209
  430MOL0     H58045   4.160   2.294   2.779 -1.0999  0.8417  2.5715
  430MOL0     H58046   4.459   2.380   2.774  0.2275  0.2734 -1.5613
  430MOL0     H58047   4.382   2.260   2.670  1.6462 -0.4729 -0.3277
  430MOL0     H58048   4.425   1.994   2.975  1.1079 -0.6019 -1.4684
  430MOL0     H58049   3.956   2.515   3.189 -0.8565  0.1682  1.3381
  430MOL0     H58050   3.727   2.547   3.266 -0.1815 -0.9951  0.6832
  431MOL0     O58051   9.090   1.039   1.251  0.6392 -1.0073  0.3030
  431MOL0     C58052   9.134   1.122   1.177 -0.3334  1.0180  0.4006
  431MOL0     O58053   9.061   1.180   1.083 -0.1991 -0.6443 -0.4188
  431MOL0     C58054   8.934   1.137   1.063  0.1876 -0.7603  0.1564
  431MOL0     C58055   8.827   1.184   1.143 -0.0785  0.3852 -0.5538
  431MOL0     C58056   8.700   1.150   1.112  0.0422 -0.3079 -0.1046
  431MOL0     C58057   8.677   1.062   1.007  0.1758 -0.3881  0.2149
  431MOL0     O58058   8.553   1.021   0.968  0.1888  0.5460 -0.1826
  431MOL0     C58059   8.456   1.000   1.075 -1.5906 -0.1959  0.3674
  431MOL0     C58060   8.375   0.865   1.064 -0.1366 -0.0657 -0.7134
  431MOL0     C58061   8.234   0.891   0.999 -0.2790  1.1265 -0.3762
  431MOL0     C58062   8.166   0.755   0.970 -0.3558  0.2614 -0.1552
  431MOL0     C58063   8.087   0.692   1.083 -0.3881 -0.2110  0.4868
  431MOL0     C58064   8.043   0.548   1.038  0.1864  0.0889 -0.1250
  431MOL0     C58065   7.949   0.482   1.148  0.2537 -0.0514 -0.1207
  431MOL0     C58066   7.886   0.352   1.092  0.1478 -0.4197 -0.2994
  431MOL0     N58067   7.743   0.330   1.136 -0.4981 -0.4167  0.4807
  431MOL0     C58068   7.646   0.422   1.124  0.8140 -0.3528  0.2105
  431MOL0     C58069   7.541   0.366   1.177 -0.6590  0.4061 -0.1548
  431MOL0     C58070   7.407   0.430   1.199  0.0635 -0.4091 -0.1127
  431MOL0     C58071   7.296   0.443   1.081 -0.2881  0.5048  0.2970
  431MOL0     C58072   7.174   0.516   1.140 -0.2916 -0.7322 -0.2069
  431MOL0     C58073   7.048   0.468   1.066 -1.0342 -0.5492  0.3621
  431MOL0     O58074   6.934   0.535   1.091 -0.1154 -0.1401  0.1666
  431MOL0     C58075   6.852   0.515   1.204 -0.4661 -0.5194  0.2663
  431MOL0     C58076   6.878   0.421   1.306  0.1175 -0.0334  0.3972
  431MOL0     C58077   6.796   0.423   1.418 -0.7959  0.3597  0.3876
  431MOL0     C58078   6.843   0.332   1.530 -0.6364 -0.4708 -0.1770
  431MOL0     C58079   6.671   0.490   1.423  0.3187 -1.1583 -0.1019
  431MOL0     C58080   6.565   0.483   1.530 -0.1726 -0.0811  0.9265
  431MOL0     O58081   6.430   0.494   1.482  0.0999 -0.2658 -0.2509
  431MOL0     C58082   6.329   0.454   1.572 -0.1568  0.4375  0.1340
  431MOL0     C58083   6.223   0.543   1.598 -0.0559  0.1142 -0.1439
  431MOL0     C58084   6.124   0.506   1.686 -0.0864 -1.0738 -0.2680
  431MOL0     C58085   6.106   0.377   1.732 -0.5042  0.2552  0.2825
  431MOL0     O58086   5.992   0.349   1.800  0.5491  0.0546 -0.0802
  431MOL0     C58087   5.922   0.226   1.762  0.2595 -0.3377  0.3710
  431MOL0     C58088   5.816   0.272   1.659  0.4053  0.2280 -0.5619
  431MOL0     C58089   5.699   0.349   1.724 -0.3213 -0.3742 -0.2974
  431MOL0     C58090   5.599   0.393   1.616  0.3086  0.2075 -0.2960
  431MOL0     C58091   5.468   0.432   1.691  1.0749 -0.5779 -0.2323
  431MOL0     C58092   5.338   0.418   1.600  0.0286 -0.6023 -0.4937
  431MOL0     C58093   5.204   0.450   1.682 -0.6831 -0.2135 -0.2220
  431MOL0     C58094   5.087   0.445   1.584 -0.9423 -0.1712 -0.1211
  431MOL0    Cl58095   4.937   0.474   1.669 -0.0306 -0.1646 -0.4137
  431MOL0     C58096   6.206   0.286   1.714 -0.0234 -0.0885  0.2182
  431MOL0     C58097   6.318   0.321   1.635 -1.1571  0.5565  0.2933
  431MOL0     O58098   6.604   0.449   1.639  0.9091 -0.1059 -0.3845
  431MOL0     C58099   6.640   0.585   1.322  0.4897  0.0755  0.3681
  431MOL0     C58100   6.738   0.595   1.220 -0.2357 -0.4269  0.4873
  431MOL0     N58101   7.572   0.243   1.237 -0.1300  0.6463  0.5739
  431MOL0     N58102   7.695   0.225   1.217 -0.5857 -0.0575 -0.2993
  431MOL0     C58103   8.781   1.023   0.919  0.1694 -0.1470  0.2069
  431MOL0     C58104   8.906   1.069   0.950  0.1659  0.3313 -0.4839
  431MOL0     C58105   9.276   1.161   1.186 -0.9607  0.2136 -1.6283
  431MOL0     C58106   9.368   1.064   1.244 -0.0473 -0.1118 -0.4109
  431MOL0     C58107   9.510   1.094   1.264 -0.0590 -0.3518  0.3591
  431MOL0     C58108   9.553   1.220   1.213 -0.2343 -0.4861 -0.3596
  431MOL0     O58109   9.684   1.268   1.199  0.3229 -0.2310 -0.6828
  431MOL0     C58110   9.796   1.194   1.254  1.4492  0.0191 -0.3870
  431MOL0     C58111   9.921   1.278   1.271 -0.3905 -0.4267 -0.4301
  431MOL0     C58112   9.940   1.387   1.166 -0.2139  0.2122  0.2305
  431MOL0     C58113  10.016   1.329   1.047  0.2172  0.1804 -0.1811
  431MOL0     C58114  10.161   1.348   1.069  0.4273  0.6459  0.4611
  431MOL0     C58115  10.279   1.369   1.076  0.2238 -0.4761 -0.6874
  431MOL0     C58116   9.460   1.313   1.156 -0.2639 -0.2300 -0.0862
  431MOL0     C58117   9.322   1.286   1.144 -0.2982 -0.5952  0.4511
  431MOL0     H58118   8.852   1.232   1.237 -0.4625 -1.6366  0.6541
  431MOL0     H58119   8.621   1.193   1.172  1.0458  1.7131 -0.1240
  431MOL0     H58120   8.509   1.003   1.170  1.4908 -0.7780 -1.2256
  431MOL0     H58121   8.400   1.094   1.078  0.8234  1.3005  2.5047
  431MOL0     H58122   8.438   0.802   1.000  0.0328  1.0713 -1.7155
  431MOL0     H58123   8.363   0.830   1.167 -3.0401  2.8532  0.1110
  431MOL0     H58124   8.171   0.948   1.068  0.5042  2.3464 -0.6287
  431MOL0     H58125   8.256   0.943   0.905  2.7815 -0.6451 -0.7593
  431MOL0     H58126   8.098   0.774   0.887 -0.3449  1.3174  0.0653
  431MOL0     H58127   8.241   0.684   0.935 -1.8450 -1.3970 -0.1105
  431MOL0     H58128   8.146   0.690   1.175 -0.5282  0.5257  0.5995
  431MOL0     H58129   7.994   0.742   1.111 -1.1931 -0.4408 -1.5643
  431MOL0     H58130   7.994   0.557   0.940  0.6320  0.4312 -0.3222
  431MOL0     H58131   8.136   0.490   1.026  0.0755 -0.1183  0.0310
  431MOL0     H58132   8.007   0.451   1.235  0.8606 -3.2581 -1.5233
  431MOL0     H58133   7.875   0.555   1.183 -0.9952 -1.2888 -0.0809
  431MOL0     H58134   7.949   0.266   1.118 -2.7802 -2.7114 -0.1978
  431MOL0     H58135   7.890   0.358   0.983 -1.8957  2.4208 -0.3275
  431MOL0     H58136   7.649   0.515   1.068 -1.9346 -0.4230 -0.1770
  431MOL0     H58137   7.373   0.378   1.289 -0.2361 -0.0431 -0.0144
  431MOL0     H58138   7.431   0.532   1.230  3.4002  0.1597 -3.8686
  431MOL0     H58139   7.257   0.351   1.037  0.6514  0.6634 -0.9247
  431MOL0     H58140   7.346   0.496   1.000 -0.7243 -0.9431 -0.9496
  431MOL0     H58141   7.180   0.624   1.124  1.2334 -0.8817 -0.8068
  431MOL0     H58142   7.171   0.494   1.247  2.2096 -3.0903 -0.4986
  431MOL0     H58143   7.042   0.360   1.086 -3.6413 -0.1922  2.0131
  431MOL0     H58144   7.069   0.475   0.959  2.9306 -1.7508  0.8863
  431MOL0     H58145   6.969   0.362   1.318 -0.8960 -1.7718 -0.1100
  431MOL0     H58146   6.762   0.261   1.550 -0.1374 -1.0805 -0.2989
  431MOL0     H58147   6.935   0.274   1.517  0.1157  0.6373  0.0882
  431MOL0     H58148   6.848   0.395   1.619 -0.6803  0.4016 -0.7805
  431MOL0     H58149   6.211   0.646   1.568 -4.5573 -0.8087 -2.4257
  431MOL0     H58150   6.042   0.575   1.704 -0.4562 -1.3924 -0.7024
  431MOL0     H58151   5.983   0.149   1.713  1.0967  1.1824 -1.0671
  431MOL0     H58152   5.865   0.188   1.847 -0.2877  0.1936  0.2484
  431MOL0     H58153   5.872   0.339   1.593  1.2616 -1.5811 -1.7683
  431MOL0     H58154   5.771   0.186   1.608 -1.5805 -0.8278  2.6758
  431MOL0     H58155   5.739   0.431   1.786  2.3826 -2.1825  0.5100
  431MOL0     H58156   5.651   0.277   1.791  1.1202  1.9873  3.6148
  431MOL0     H58157   5.649   0.472   1.559  4.0887 -1.8997 -0.2543
  431MOL0     H58158   5.582   0.314   1.542  0.6034  1.8867 -2.2451
  431MOL0     H58159   5.464   0.530   1.741 -0.8640 -0.6277 -0.2178
  431MOL0     H58160   5.456   0.356   1.769  0.5604 -0.9747 -0.6951
  431MOL0     H58161   5.340   0.471   1.504  0.2320 -1.1159 -0.7811
  431MOL0     H58162   5.337   0.312   1.571  3.8004 -1.3937  1.6367
  431MOL0     H58163   5.211   0.551   1.725  0.3224  0.0876 -1.0453
  431MOL0     H58164   5.200   0.381   1.767  0.7190  1.5251  1.3656
  431MOL0     H58165   5.077   0.349   1.531 -3.6728 -0.3776  0.6059
  431MOL0     H58166   5.100   0.528   1.514  1.6952  1.2454  1.8850
  431MOL0     H58167   6.206   0.183   1.748 -0.8008 -0.3932 -0.6534
  431MOL0     H58168   6.396   0.252   1.606 -0.8743  1.3144 -0.8024
  431MOL0     H58169   6.554   0.651   1.328  1.5889  1.4259  2.8934
  431MOL0     H58170   6.707   0.667   1.144 -1.1323 -1.1543  0.1555
  431MOL0     H58171   8.751   0.967   0.831 -1.4886  2.3099 -0.9013
  431MOL0     H58172   8.985   1.031   0.886  1.6982  1.8472  0.4398
  431MOL0     H58173   9.332   0.964   1.267 -1.1355 -0.2849 -2.5928
  431MOL0     H58174   9.570   1.007   1.290 -0.2514  0.2494  3.1835
  431MOL0     H58175   9.764   1.155   1.351 -2.8658  1.2187 -1.1375
  431MOL0     H58176   9.820   1.112   1.185  0.8840  0.6475 -1.3487
  431MOL0     H58177  10.002   1.205   1.271 -1.3859 -1.5777 -0.2542
  431MOL0     H58178   9.928   1.327   1.368 -1.9860  1.5885 -1.2537
  431MOL0     H58179   9.997   1.462   1.223 -1.2755  3.1903 -2.3179
  431MOL0     H58180   9.854   1.443   1.128 -0.3169 -0.1217 -0.0376
  431MOL0     H58181   9.976   1.380   0.959 -2.3553 -0.7191  0.3993
  431MOL0     H58182   9.990   1.223   1.044 -0.7987  0.2684  2.3495
  431MOL0     H58183  10.383   1.390   1.057  0.8936 -3.2566 -0.5689
  431MOL0     H58184   9.498   1.412   1.131 -0.0470 -0.0878  0.7900
  431MOL0     H58185   9.254   1.363   1.108 -2.1066 -1.7353  1.2787
  432MOL0     O58186   3.388  10.811   2.110 -0.9299  0.0979 -0.2940
  432MOL0     C58187   3.352  10.791   1.993 -0.2139 -0.6602  0.4349
  432MOL0     O58188   3.438  10.780   1.888 -0.2292 -0.6425 -0.0802
  432MOL0     C58189   3.574  10.756   1.915  0.8986  0.3804 -0.4032
  432MOL0     C58190   3.621  10.656   2.003  0.7428  0.6230 -0.5568
  432MOL0     C58191   3.751  10.634   2.033 -0.2818  0.1016  0.6342
  432MOL0     C58192   3.849  10.720   1.978 -1.6833  0.4032  0.1626
  432MOL0     O58193   3.981  10.687   1.987 -0.4960 -0.1841 -0.1810
  432MOL0     C58194   4.070  10.768   1.913  0.0810 -0.2777 -0.4547
  432MOL0     C58195   4.219  10.716   1.934  0.4356  0.0578  0.0042
  432MOL0     C58196   4.234  10.590   1.836  0.4581 -0.5815 -0.4110
  432MOL0     C58197   4.363  10.514   1.863 -0.3183 -0.2957 -0.7699
  432MOL0     C58198   4.383  10.379   1.801  0.2392 -0.0954 -0.0763
  432MOL0     C58199   4.280  10.273   1.849  0.0112 -0.1768 -0.4224
  432MOL0     C58200   4.341  10.129   1.844 -0.3599 -0.3212 -0.3455
  432MOL0     C58201   4.320  10.078   1.701  0.3946 -0.0005  0.4680
  432MOL0     N58202   4.171  10.051   1.673 -0.9621  0.3480  0.8617
  432MOL0     C58203   4.117   9.931   1.689 -0.6850 -0.0453  0.0077
  432MOL0     C58204   3.992   9.941   1.649  0.2072 -0.0921  0.6957
  432MOL0     C58205   3.890   9.842   1.668 -0.9873 -0.1105 -0.5788
  432MOL0     C58206   3.812   9.901   1.801 -0.9706 -0.1194  0.3694
  432MOL0     C58207   3.711   9.804   1.859  0.7191 -1.2203  0.1008
  432MOL0     C58208   3.603   9.869   1.943  0.5534 -0.4442 -0.8411
  432MOL0     O58209   3.512   9.767   1.993 -0.0177  0.1246 -0.6504
  432MOL0     C58210   3.400   9.811   2.055  0.9187 -0.3767  0.1429
  432MOL0     C58211   3.350   9.945   2.065  0.5010 -0.1003  0.1342
  432MOL0     C58212   3.227   9.978   2.126  0.5089  0.5364 -1.0433
  432MOL0     C58213   3.189  10.121   2.128  0.3822 -0.7725  0.3017
  432MOL0     C58214   3.151   9.871   2.167  1.1144  0.0856 -0.0826
  432MOL0     C58215   3.016   9.894   2.220 -0.0923  0.5653  0.5263
  432MOL0     O58216   2.979  10.020   2.265 -0.2853  0.3022 -0.3858
  432MOL0     C58217   2.861  10.035   2.331  0.1281  0.3938 -0.5559
  432MOL0     C58218   2.792   9.945   2.421 -0.0363 -0.3945 -0.2678
  432MOL0     C58219   2.674   9.979   2.482  0.0488 -0.7704 -0.6586
  432MOL0     C58220   2.619  10.106   2.470  0.1508 -0.6524  0.3891
  432MOL0     O58221   2.503  10.142   2.535  0.2336 -0.1859  0.4687
  432MOL0     C58222   2.411  10.038   2.557  0.5812 -0.8877  0.5242
  432MOL0     C58223   2.274  10.099   2.580 -0.4281 -0.7700 -0.7227
  432MOL0     C58224   2.257  10.162   2.726  0.6150 -0.6867  0.5040
  432MOL0     C58225   2.110  10.183   2.758  0.4165  0.2143  0.1265
  432MOL0     C58226   2.097  10.267   2.884  0.6671  0.7495  0.3513
  432MOL0     C58227   1.962  10.259   2.937  1.1744  0.6093 -0.1680
  432MOL0     C58228   1.849  10.327   2.856 -0.7707 -0.5086  0.0671
  432MOL0     C58229   1.706  10.286   2.898 -0.0738 -0.2753  1.0923
  432MOL0    Cl58230   1.656  10.362   3.058 -0.4159  0.1059  0.2499
  432MOL0     C58231   2.683  10.202   2.390 -0.8314  0.1290 -0.9978
  432MOL0     C58232   2.800  10.164   2.324 -0.2771 -0.3683  0.3219
  432MOL0     O58233   2.936   9.805   2.203 -0.1547 -0.1400  0.0117
  432MOL0     C58234   3.193   9.738   2.160 -0.4986  0.3537 -0.0874
  432MOL0     C58235   3.312   9.711   2.098 -0.8668 -0.4840 -0.0832
  432MOL0     N58236   3.970  10.065   1.599  0.3674  0.4338 -0.9593
  432MOL0     N58237   4.080  10.131   1.602  0.0761 -0.1268  0.8139
  432MOL0     C58238   3.802  10.809   1.883  0.3066  0.2082 -0.0546
  432MOL0     C58239   3.669  10.833   1.856  0.2693 -0.2856  0.5401
  432MOL0     C58240   3.217  10.811   1.939  0.6918  0.0493 -0.4668
  432MOL0     C58241   3.115  10.845   2.026  0.3623 -0.7443 -0.0163
  432MOL0     C58242   2.988  10.889   1.972 -0.8043  0.2850  0.1144
  432MOL0     C58243   2.961  10.886   1.837  0.9825 -0.2748  0.1701
  432MOL0     O58244   2.845  10.944   1.788  0.7539 -0.4745  0.0843
  432MOL0     C58245   2.739  10.856   1.736 -0.6606  0.3528  0.4870
  432MOL0     C58246   2.617  10.858   1.830 -0.1671 -0.6052 -0.3611
  432MOL0     C58247   2.505  10.781   1.763  1.3278 -0.5975  0.3507
  432MOL0     C58248   2.360  10.821   1.814 -0.1996 -0.4164  0.5403
  432MOL0     C58249   2.316  10.958   1.781 -0.2287  0.5553 -0.4382
  432MOL0     C58250   2.294  11.073   1.744  1.5735  0.4965  0.6409
  432MOL0     C58251   3.061  10.837   1.761  0.3198  0.0449  0.4026
  432MOL0     C58252   3.192  10.809   1.803  0.6075 -0.0022  0.3017
  432MOL0     H58253   3.551  10.603   2.067 -0.4042  2.3887 -0.2816
  432MOL0     H58254   3.774  10.550   2.098  0.1016  0.4193  0.9096
  432MOL0     H58255   4.043  10.763   1.807  0.3801  1.3670 -0.6441
  432MOL0     H58256   4.069  10.873   1.945  0.0903 -0.5080  0.2981
  432MOL0     H58257   4.290  10.791   1.898 -1.2795  0.2233 -3.5509
  432MOL0     H58258   4.239  10.694   2.039  1.5735  1.9987  0.2306
  432MOL0     H58259   4.146  10.526   1.841  0.3861 -0.6126 -1.6748
  432MOL0     H58260   4.230  10.625   1.732 -0.9778 -0.4302 -0.3129
  432MOL0     H58261   4.447  10.573   1.826  1.0291 -0.7461  1.3650
  432MOL0     H58262   4.379  10.509   1.972 -0.7091 -1.5044 -0.7544
  432MOL0     H58263   4.378  10.386   1.692 -1.9768  0.7914  0.0169
  432MOL0     H58264   4.483  10.346   1.829 -0.3439 -1.2840  0.6966
  432MOL0     H58265   4.259  10.285   1.956  4.7762  1.3514  0.6244
  432MOL0     H58266   4.198  10.292   1.780 -0.8990  0.3024  0.7495
  432MOL0     H58267   4.447  10.133   1.869 -0.9925 -0.8386  2.8105
  432MOL0     H58268   4.294  10.074   1.926 -1.2761  0.8646 -0.0447
  432MOL0     H58269   4.378   9.987   1.683 -3.4919 -2.4784 -0.8522
  432MOL0     H58270   4.353  10.166   1.644 -1.0016 -0.4735 -1.1377
  432MOL0     H58271   4.147   9.839   1.738 -3.5770 -0.9093  0.3535
  432MOL0     H58272   3.826   9.831   1.580  0.0866  0.9459 -1.5227
  432MOL0     H58273   3.928   9.743   1.694  2.8017  0.9794 -1.3779
  432MOL0     H58274   3.768   9.998   1.776 -0.7932  0.3140  1.6767
  432MOL0     H58275   3.888   9.929   1.874 -0.1041  1.4549 -1.0557
  432MOL0     H58276   3.771   9.741   1.925  0.2567 -0.0487  1.7351
  432MOL0     H58277   3.658   9.751   1.780 -0.5771  1.1340 -0.7371
  432MOL0     H58278   3.542   9.933   1.878 -2.0702  2.7549  4.0674
  432MOL0     H58279   3.631   9.933   2.028 -0.3617 -1.1167 -0.0048
  432MOL0     H58280   3.399  10.027   2.016  2.5913 -0.4967  1.4443
  432MOL0     H58281   3.202  10.137   2.235  3.1571 -2.8278  0.3792
  432MOL0     H58282   3.264  10.178   2.071  1.1741 -2.3287 -0.2553
  432MOL0     H58283   3.094  10.150   2.081  0.6924  1.2904  0.8283
  432MOL0     H58284   2.841   9.849   2.435  1.0200 -0.1630 -1.9764
  432MOL0     H58285   2.621   9.903   2.539  1.0774 -2.6347 -2.0743
  432MOL0     H58286   2.406   9.984   2.462 -1.9858 -0.2820  0.2343
  432MOL0     H58287   2.430   9.978   2.646  0.7206 -2.2445 -0.3891
  432MOL0     H58288   2.258  10.171   2.499 -3.2060 -0.6521 -0.1589
  432MOL0     H58289   2.197  10.022   2.574  1.0131 -2.8278  3.2192
  432MOL0     H58290   2.309  10.258   2.735  1.7138 -1.2628  0.3946
  432MOL0     H58291   2.293  10.085   2.795 -0.2580 -2.3785 -0.8585
  432MOL0     H58292   2.048  10.225   2.678 -0.6088 -0.4918  0.5283
  432MOL0     H58293   2.078  10.079   2.774 -0.8687  0.3013 -1.6186
  432MOL0     H58294   2.122  10.367   2.845  0.3207 -0.3976 -3.2407
  432MOL0     H58295   2.173  10.234   2.955  1.8633 -1.7856 -1.9364
  432MOL0     H58296   1.927  10.160   2.965 -2.8235  1.8417 -0.2692
  432MOL0     H58297   1.954  10.313   3.032 -0.1771 -0.2356  0.2201
  432MOL0     H58298   1.861  10.311   2.749  0.1757  1.0896 -0.1023
  432MOL0     H58299   1.848  10.436   2.862 -1.6060 -0.5093  0.0558
  432MOL0     H58300   1.695  10.180   2.923 -2.9193 -0.2534  0.2598
  432MOL0     H58301   1.643  10.323   2.817  2.4471 -2.1097 -1.9121
  432MOL0     H58302   2.640  10.301   2.384 -1.1767  0.1692  1.3268
  432MOL0     H58303   2.839  10.231   2.249  2.1119 -2.7741 -0.7359
  432MOL0     H58304   3.138   9.659   2.210 -1.0414  0.1626 -0.9686
  432MOL0     H58305   3.347   9.610   2.114 -3.4062 -0.9877  3.6060
  432MOL0     H58306   3.869  10.874   1.828  0.0386 -0.2119 -0.9017
  432MOL0     H58307   3.647  10.906   1.779 -2.6733 -1.7842 -0.1845
  432MOL0     H58308   3.113  10.844   2.134 -0.2904  0.8744  0.0236
  432MOL0     H58309   2.907  10.915   2.039  0.4912 -1.4732  2.5323
  432MOL0     H58310   2.705  10.901   1.642  2.2995 -0.5856 -1.1654
  432MOL0     H58311   2.765  10.754   1.707 -2.2719 -0.8729  3.0248
  432MOL0     H58312   2.590  10.963   1.844 -1.0401 -0.6708 -1.4319
  432MOL0     H58313   2.649  10.812   1.924  0.6706 -1.7453 -1.1636
  432MOL0     H58314   2.521  10.673   1.776 -2.3107 -1.4538 -0.9667
  432MOL0     H58315   2.500  10.796   1.655 -2.4565 -1.0691  0.3090
  432MOL0     H58316   2.365  10.828   1.923  1.9469  4.4508  0.3802
  432MOL0     H58317   2.279  10.751   1.789 -2.9197  2.3287  0.9738
  432MOL0     H58318   2.296  11.166   1.691 -0.4569 -0.3967 -1.1666
  432MOL0     H58319   3.049  10.849   1.654 -2.2424  2.8866  0.8658
  432MOL0     H58320   3.253  10.774   1.720 -2.3006  1.8091 -2.8397
  433MOL0     O58321  10.779   8.535   1.340 -0.1164  0.1999  0.1901
  433MOL0     C58322  10.824   8.495   1.235 -0.4835 -0.3411 -0.1277
  433MOL0     O58323  10.799   8.531   1.108 -0.1558 -0.1222  0.6201
  433MOL0     C58324  10.692   8.608   1.075  0.0356 -1.1017  0.5335
  433MOL0     C58325  10.561   8.583   1.118 -0.3293 -0.7060 -0.2930
  433MOL0     C58326  10.456   8.661   1.068  0.7834  1.0581  0.5265
  433MOL0     C58327  10.476   8.772   0.994  0.0014  0.6206 -0.6598
  433MOL0     O58328  10.379   8.853   0.938 -1.1286 -0.3990  0.2165
  433MOL0     C58329  10.241   8.825   0.946 -0.7489 -0.0724 -0.2102
  433MOL0     C58330  10.173   8.949   0.875 -0.8017 -0.2438 -0.7341
  433MOL0     C58331  10.028   8.947   0.904  0.3935  0.6919  0.5378
  433MOL0     C58332   9.985   9.074   0.835 -0.0024  0.0613  0.6068
  433MOL0     C58333   9.828   9.101   0.872 -0.2713  0.1208  0.4798
  433MOL0     C58334   9.792   9.104   1.019  0.2763  0.6301 -1.0278
  433MOL0     C58335   9.650   9.150   1.041 -0.6081 -0.4966  0.2979
  433MOL0     C58336   9.537   9.067   0.972 -0.7355  0.5585 -0.0428
  433MOL0     N58337   9.403   9.074   1.035  0.8884  0.1413  0.0029
  433MOL0     C58338   9.303   9.150   0.980 -0.0225 -0.9317 -0.3869
  433MOL0     C58339   9.196   9.137   1.071 -0.6322 -1.0520  0.4082
  433MOL0     C58340   9.064   9.211   1.044 -0.0214  0.9863  0.7843
  433MOL0     C58341   9.021   9.273   1.176 -0.3249 -0.7470  0.6384
  433MOL0     C58342   8.962   9.410   1.155 -0.1124 -1.0761 -0.0504
  433MOL0     C58343   8.886   9.453   1.283  0.1448  0.4698  0.9300
  433MOL0     O58344   8.816   9.573   1.257 -0.3023 -0.1808 -0.5350
  433MOL0     C58345   8.689   9.575   1.215  0.0466  0.6092  1.0816
  433MOL0     C58346   8.637   9.703   1.205  0.1978 -0.4108  0.1733
  433MOL0     C58347   8.505   9.726   1.166  0.6044  0.0452 -0.3683
  433MOL0     C58348   8.468   9.873   1.179  0.3683  1.2635  0.9573
  433MOL0     C58349   8.423   9.606   1.142 -0.4231  0.0855  0.0874
  433MOL0     C58350   8.279   9.606   1.116 -0.0627 -0.2037  0.5390
  433MOL0     O58351   8.227   9.735   1.091 -0.3821  0.1812 -0.1107
  433MOL0     C58352   8.092   9.748   1.093 -0.1523 -0.7267  0.1934
  433MOL0     C58353   8.056   9.884   1.067  0.4372 -0.2561 -0.1754
  433MOL0     C58354   7.921   9.925   1.060  0.0717 -0.4560 -0.0507
  433MOL0     C58355   7.816   9.836   1.077  0.0043 -0.4406  0.1864
  433MOL0     O58356   7.688   9.889   1.066  0.4677  0.5261  0.1478
  433MOL0     C58357   7.588   9.819   1.147  0.8618 -0.2484  0.8296
  433MOL0     C58358   7.453   9.866   1.105  0.0834  0.4435 -0.8665
  433MOL0     C58359   7.341   9.779   1.178 -0.3801 -0.6908 -0.2521
  433MOL0     C58360   7.213   9.855   1.165  0.0446 -0.2229  0.3726
  433MOL0     C58361   7.090   9.794   1.241 -0.4874 -0.0968 -0.0591
  433MOL0     C58362   6.974   9.889   1.246  1.1222  0.4331  0.5657
  433MOL0     C58363   6.895   9.909   1.119  0.0240 -0.2004  0.4052
  433MOL0     C58364   6.837   9.789   1.048  0.8599  0.0313 -0.3090
  433MOL0    Cl58365   6.716   9.695   1.148  0.0004 -0.1538 -0.2235
  433MOL0     C58366   7.848   9.703   1.108 -0.2449 -0.1087 -0.8004
  433MOL0     C58367   7.985   9.666   1.129  0.1981  1.2101  0.4006
  433MOL0     O58368   8.214   9.504   1.129  0.4326 -0.9307 -0.0178
  433MOL0     C58369   8.486   9.481   1.143  1.0597 -0.4629 -0.8282
  433MOL0     C58370   8.615   9.458   1.188 -0.4393 -0.1431  0.1826
  433MOL0     N58371   9.235   9.045   1.168 -0.6275  1.3069  0.8891
  433MOL0     N58372   9.354   9.007   1.139 -0.6241 -0.6267 -0.5315
  433MOL0     C58373  10.607   8.797   0.959 -0.0528 -0.2458 -0.2081
  433MOL0     C58374  10.710   8.716   0.999 -0.0055 -0.9809  0.6259
  433MOL0     C58375  10.907   8.380   1.255 -0.4766  0.3778 -0.5952
  433MOL0     C58376  10.873   8.288   1.357  0.5342  0.4274  0.8338
  433MOL0     C58377  10.957   8.182   1.387  0.0739  0.6481 -0.3115
  433MOL0     C58378  11.067   8.162   1.310 -0.8397  0.1078  1.3840
  433MOL0     O58379  11.136   8.047   1.339 -0.0722 -0.1490 -0.1200
  433MOL0     C58380  11.242   8.000   1.255 -0.0427  0.3166 -0.0564
  433MOL0     C58381  11.318   7.897   1.335  0.2527  0.3413 -0.3911
  433MOL0     C58382  11.424   7.816   1.255 -0.1675  0.1429 -0.2424
  433MOL0     C58383  11.467   7.687   1.319 -0.4381  0.9467 -0.1829
  433MOL0     C58384  11.548   7.609   1.219 -0.6097 -0.8172  0.7392
  433MOL0     C58385  11.610   7.554   1.128 -0.8496 -1.0400  1.1078
  433MOL0     C58386  11.094   8.240   1.191 -0.5785  0.9527  0.5563
  433MOL0     C58387  11.014   8.356   1.171  0.2784  0.1395  0.6000
  433MOL0     H58388  10.538   8.503   1.187 -1.7976 -0.5799 -0.5920
  433MOL0     H58389  10.353   8.650   1.101 -0.2368  2.1293 -2.0451
  433MOL0     H58390  10.206   8.731   0.901 -0.4259 -0.2575 -0.0820
  433MOL0     H58391  10.210   8.829   1.051  1.7302 -1.5317  0.6510
  433MOL0     H58392  10.230   9.035   0.913  2.1371 -2.4152  0.1476
  433MOL0     H58393  10.202   8.952   0.770 -0.0377  0.0564 -0.5222
  433MOL0     H58394   9.990   8.863   0.846 -0.1704  1.3950 -0.1356
  433MOL0     H58395  10.002   8.921   1.007  2.5634 -1.0563  0.7279
  433MOL0     H58396  10.037   9.158   0.880 -0.2217 -0.1696  1.3083
  433MOL0     H58397  10.000   9.059   0.728 -0.9118 -0.3652  0.5257
  433MOL0     H58398   9.804   9.200   0.832  2.2581  1.8840  2.9806
  433MOL0     H58399   9.770   9.021   0.825  1.7004  0.7269 -3.4008
  433MOL0     H58400   9.809   9.008   1.068 -1.8474  0.3574 -0.7006
  433MOL0     H58401   9.865   9.169   1.068  1.8401 -3.7739  3.1562
  433MOL0     H58402   9.633   9.155   1.149 -0.0477  2.5286  0.3162
  433MOL0     H58403   9.638   9.251   1.000  0.7471 -0.4568 -0.0352
  433MOL0     H58404   9.563   8.962   0.984  1.3320  1.3262  4.0468
  433MOL0     H58405   9.545   9.085   0.864  0.5855  3.6081  0.4600
  433MOL0     H58406   9.305   9.219   0.896 -4.5239  1.4583  1.1034
  433MOL0     H58407   9.075   9.288   0.967 -1.0947  0.2705 -0.1126
  433MOL0     H58408   8.995   9.134   1.009  1.3723  0.8959 -2.0448
  433MOL0     H58409   9.105   9.286   1.245  1.5972 -0.9651 -1.5228
  433MOL0     H58410   8.951   9.210   1.230 -2.2181 -0.2010 -1.0767
  433MOL0     H58411   8.890   9.393   1.073 -0.4999 -2.8099  0.5917
  433MOL0     H58412   9.031   9.492   1.135 -1.9074 -0.2813 -4.0479
  433MOL0     H58413   8.962   9.461   1.362 -0.4889  0.2161  1.5798
  433MOL0     H58414   8.825   9.369   1.318  1.1630  0.1674  2.0704
  433MOL0     H58415   8.700   9.788   1.229  0.4577  0.3226 -2.6899
  433MOL0     H58416   8.465   9.916   1.079 -0.7157 -0.5867  0.1271
  433MOL0     H58417   8.367   9.894   1.215 -0.0407  2.0495 -0.5505
  433MOL0     H58418   8.538   9.925   1.244  0.1532 -1.6617  3.8353
  433MOL0     H58419   8.136   9.956   1.057 -2.0943  3.2614  2.4243
  433MOL0     H58420   7.898  10.026   1.028 -1.0621 -0.7066 -0.0678
  433MOL0     H58421   7.598   9.710   1.137  0.4436 -0.1985 -0.4313
  433MOL0     H58422   7.599   9.838   1.254 -1.4866  0.6983  0.9521
  433MOL0     H58423   7.448   9.975   1.111  2.1913  0.5655 -0.4354
  433MOL0     H58424   7.445   9.844   0.998 -0.4311  0.2730 -0.7950
  433MOL0     H58425   7.369   9.757   1.282 -0.9863  2.9249  0.8394
  433MOL0     H58426   7.334   9.681   1.131  2.8882 -0.7119 -0.9076
  433MOL0     H58427   7.237   9.953   1.209  2.2447 -1.7603  2.9301
  433MOL0     H58428   7.190   9.871   1.060  1.9681  0.4312  0.0020
  433MOL0     H58429   7.117   9.766   1.343  0.2880  2.8969  0.6497
  433MOL0     H58430   7.061   9.707   1.181  0.8843 -0.0178 -0.8713
  433MOL0     H58431   6.904   9.859   1.325 -0.2341 -1.7615 -1.3402
  433MOL0     H58432   7.024   9.982   1.275 -0.2558  2.0785 -1.9244
  433MOL0     H58433   6.953   9.964   1.045 -2.2062  0.1568 -1.1886
  433MOL0     H58434   6.811   9.979   1.122 -0.1858 -0.3467 -1.3438
  433MOL0     H58435   6.921   9.727   1.016 -0.3439 -1.6453 -0.3460
  433MOL0     H58436   6.783   9.834   0.964 -0.6806 -0.3393  0.4566
  433MOL0     H58437   7.779   9.620   1.104 -1.1576  0.6771 -2.3250
  433MOL0     H58438   7.987   9.567   1.173  0.1261  1.0855  0.1262
  433MOL0     H58439   8.425   9.396   1.115 -1.2789  1.2630 -1.2556
  433MOL0     H58440   8.642   9.354   1.201 -0.3362  0.2398  3.8415
  433MOL0     H58441  10.631   8.878   0.892 -0.3793 -0.6891 -0.8667
  433MOL0     H58442  10.809   8.738   0.960 -0.5640 -0.1182 -0.3142
  433MOL0     H58443  10.782   8.313   1.411 -0.6125 -1.5291 -0.0699
  433MOL0     H58444  10.927   8.111   1.463  1.4935  1.1797  0.7794
  433MOL0     H58445  11.208   7.954   1.162  1.9642 -0.4842 -0.4461
  433MOL0     H58446  11.317   8.076   1.230  0.1551  0.4101  0.7920
  433MOL0     H58447  11.242   7.830   1.377 -1.0241  0.1076 -2.8855
  433MOL0     H58448  11.368   7.952   1.416 -2.3590  2.0350  0.1905
  433MOL0     H58449  11.503   7.882   1.218  0.2156  0.6135  1.3628
  433MOL0     H58450  11.363   7.791   1.167  0.4043  0.0119 -0.6054
  433MOL0     H58451  11.379   7.630   1.352 -1.0406  2.4066  0.8161
  433MOL0     H58452  11.534   7.712   1.401 -1.3893  1.6520  0.3936
  433MOL0     H58453  11.655   7.494   1.053 -0.6120  2.6967 -2.0627
  433MOL0     H58454  11.176   8.222   1.121 -0.1880  0.3639  1.1507
  433MOL0     H58455  11.036   8.416   1.083  3.0711 -1.3570  0.1552
  434MOL0     O58456   0.129   7.516   3.082 -0.7858 -0.2905  0.2620
  434MOL0     C58457   0.102   7.606   3.008  0.3298 -0.6186  0.6065
  434MOL0     O58458   0.186   7.670   2.919 -0.4498  0.3848 -0.7453
  434MOL0     C58459   0.316   7.622   2.902 -0.1144  0.1585 -0.3581
  434MOL0     C58460   0.343   7.509   2.827 -0.6748 -0.2442  0.3894
  434MOL0     C58461   0.466   7.440   2.849 -0.3645 -0.0806 -0.4000
  434MOL0     C58462   0.550   7.477   2.955 -0.5597 -0.6634  1.1991
  434MOL0     O58463   0.663   7.399   2.984  0.2007  0.5780  0.5473
  434MOL0     C58464   0.769   7.455   3.058  0.9666 -0.1440 -0.6306
  434MOL0     C58465   0.894   7.363   3.063  0.2848 -0.3050  0.7938
  434MOL0     C58466   1.010   7.439   3.120 -0.2036 -1.2565  0.1458
  434MOL0     C58467   1.137   7.362   3.126 -0.0881 -0.5862  0.0570
  434MOL0     C58468   1.258   7.432   3.076 -0.0866 -0.6520 -0.5128
  434MOL0     C58469   1.384   7.337   3.076  0.6213 -0.1615  0.4646
  434MOL0     C58470   1.475   7.356   3.191  0.2867 -0.4617 -0.7567
  434MOL0     C58471   1.558   7.483   3.172 -0.3039 -0.4371  0.8853
  434MOL0     N58472   1.691   7.445   3.103  0.0409 -1.0092 -0.5792
  434MOL0     C58473   1.702   7.389   2.978 -0.1026  0.7355  0.3280
  434MOL0     C58474   1.830   7.347   2.974  0.4299  0.3072  0.1141
  434MOL0     C58475   1.898   7.282   2.868 -0.0986  0.1855 -0.4861
  434MOL0     C58476   2.027   7.340   2.816 -0.3110  0.2639  0.6842
  434MOL0     C58477   2.149   7.343   2.920 -0.4852 -0.1589 -0.2268
  434MOL0     C58478   2.284   7.384   2.878  0.0932  0.3834 -0.0084
  434MOL0     O58479   2.264   7.502   2.798 -0.5326 -0.0308  0.3616
  434MOL0     C58480   2.371   7.552   2.726  0.8523 -0.2396  0.4648
  434MOL0     C58481   2.340   7.665   2.647 -0.7863 -0.7022 -0.0235
  434MOL0     C58482   2.432   7.734   2.575  0.3820 -0.2014  1.0020
  434MOL0     C58483   2.393   7.845   2.475 -0.0428  0.0972  0.4121
  434MOL0     C58484   2.571   7.695   2.590 -0.1245  0.5320 -0.2392
  434MOL0     C58485   2.692   7.766   2.533  0.4295  0.1582  0.2304
  434MOL0     O58486   2.669   7.857   2.440 -0.5280  0.2934  0.3269
  434MOL0     C58487   2.758   7.946   2.388 -0.7462 -0.1379  0.0209
  434MOL0     C58488   2.876   7.996   2.449  0.3709 -0.2144  0.0085
  434MOL0     C58489   2.981   8.074   2.383  0.9769 -0.1272 -0.0330
  434MOL0     C58490   2.956   8.100   2.245  0.3649  1.1135 -0.3634
  434MOL0     O58491   3.046   8.166   2.180 -0.2860 -0.4591 -0.3340
  434MOL0     C58492   3.053   8.166   2.041 -0.6984  0.5864  0.2152
  434MOL0     C58493   3.161   8.264   1.987  0.4245 -0.2747 -0.2177
  434MOL0     C58494   3.292   8.254   2.070  0.5576 -0.2189 -0.0018
  434MOL0     C58495   3.399   8.338   2.001  0.5345 -0.4942 -0.2822
  434MOL0     C58496   3.521   8.360   2.079 -0.7001 -0.4506  0.4448
  434MOL0     C58497   3.639   8.428   2.005 -0.4831 -0.2956 -0.0974
  434MOL0     C58498   3.772   8.440   2.084 -0.0713  0.8187  0.5954
  434MOL0     C58499   3.886   8.341   2.076  0.1664 -0.2218  0.4494
  434MOL0    Cl58500   3.826   8.187   2.138  0.1717 -0.2729  0.1639
  434MOL0     C58501   2.833   8.059   2.187  0.4664 -0.1171  0.2086
  434MOL0     C58502   2.739   7.986   2.251 -0.0520 -0.0224  0.2376
  434MOL0     O58503   2.805   7.737   2.581 -0.0321  1.4853 -1.1455
  434MOL0     C58504   2.602   7.576   2.669 -0.7727 -0.4206  0.1785
  434MOL0     C58505   2.503   7.504   2.740  0.0979 -0.4903 -0.0237
  434MOL0     N58506   1.889   7.359   3.097  0.0447 -0.7234  0.5865
  434MOL0     N58507   1.805   7.418   3.175 -0.5847 -0.0588 -0.1955
  434MOL0     C58508   0.520   7.593   3.023  0.4618  0.0184  0.1441
  434MOL0     C58509   0.404   7.664   2.998  0.3794 -0.8667  0.2709
  434MOL0     C58510  -0.039   7.653   3.028 -0.4410  0.5421 -0.3509
  434MOL0     C58511  -0.129   7.605   3.132 -0.0001  0.6073  0.2150
  434MOL0     C58512  -0.268   7.632   3.132 -0.6229  1.6452  0.4207
  434MOL0     C58513  -0.325   7.718   3.039  0.1454  0.0284  0.4960
  434MOL0     O58514  -0.459   7.735   3.053 -1.0618 -0.1960  0.1283
  434MOL0     C58515  -0.509   7.859   3.008 -0.3220 -0.1746  0.0110
  434MOL0     C58516  -0.662   7.856   3.035  0.1845 -0.0544 -0.3526
  434MOL0     C58517  -0.764   7.974   3.002 -0.5999 -0.1386 -0.3616
  434MOL0     C58518  -0.907   7.950   3.037  0.9215 -0.3915 -0.5268
  434MOL0     C58519  -0.961   7.848   2.955  0.8001 -0.3462 -0.1532
  434MOL0     C58520  -1.009   7.764   2.880 -0.5986  0.4926 -0.5534
  434MOL0     C58521  -0.240   7.777   2.946 -0.3981 -0.6444 -0.1762
  434MOL0     C58522  -0.100   7.747   2.941  0.6046 -0.4127 -0.0100
  434MOL0     H58523   0.266   7.478   2.757 -2.8875 -0.4281  2.7393
  434MOL0     H58524   0.486   7.354   2.786 -2.7630 -0.6327 -0.4653
  434MOL0     H58525   0.799   7.542   3.000  2.6801 -1.6424 -2.0895
  434MOL0     H58526   0.750   7.481   3.163  0.7953  0.2718 -0.7657
  434MOL0     H58527   0.886   7.274   3.126  3.4872 -1.4663 -0.2236
  434MOL0     H58528   0.905   7.327   2.960 -3.0190  0.8485 -0.0812
  434MOL0     H58529   1.023   7.518   3.045 -4.0625 -1.2497 -0.7651
  434MOL0     H58530   0.986   7.491   3.214 -0.3851  1.6758 -1.4138
  434MOL0     H58531   1.153   7.337   3.231 -0.2821  1.7719  0.6876
  434MOL0     H58532   1.123   7.261   3.086 -0.3775 -1.7238  2.8033
  434MOL0     H58533   1.235   7.470   2.976  1.9552  2.2683 -0.0024
  434MOL0     H58534   1.286   7.513   3.145  0.1114 -0.7209 -0.5130
  434MOL0     H58535   1.348   7.235   3.092  1.1733 -0.3229  0.6830
  434MOL0     H58536   1.438   7.339   2.980 -1.3631 -2.9278 -0.8472
  434MOL0     H58537   1.421   7.385   3.281  1.1511  2.5584 -1.1067
  434MOL0     H58538   1.532   7.264   3.206  1.3210  0.2352 -0.2976
  434MOL0     H58539   1.583   7.537   3.263  0.8147 -0.4647  0.6156
  434MOL0     H58540   1.501   7.555   3.112 -0.0551  0.3615  1.5907
  434MOL0     H58541   1.633   7.391   2.894  2.2457 -0.3183 -1.7989
  434MOL0     H58542   1.910   7.173   2.880  0.6736 -0.0065 -2.6465
  434MOL0     H58543   1.828   7.287   2.784 -1.8654  2.0128  1.0013
  434MOL0     H58544   2.004   7.436   2.770  0.9378  0.1262 -0.2717
  434MOL0     H58545   2.057   7.277   2.731  1.4998 -1.0515  2.2080
  434MOL0     H58546   2.144   7.237   2.950  0.8210 -0.6013 -1.4630
  434MOL0     H58547   2.121   7.406   3.005  2.8519 -0.2693  1.1140
  434MOL0     H58548   2.336   7.303   2.826 -0.7113 -0.1311 -0.0324
  434MOL0     H58549   2.330   7.415   2.972 -2.4553 -0.2528  1.5657
  434MOL0     H58550   2.236   7.693   2.638 -0.1725  3.3244  2.5950
  434MOL0     H58551   2.454   7.935   2.482  1.2015 -0.4523 -2.0544
  434MOL0     H58552   2.390   7.815   2.370 -1.9890 -1.1598  0.7690
  434MOL0     H58553   2.292   7.882   2.494  0.1096 -0.3507  2.3503
  434MOL0     H58554   2.903   7.952   2.544 -2.0508  3.5860  2.7227
  434MOL0     H58555   3.075   8.098   2.431  0.5381 -0.0668  0.8206
  434MOL0     H58556   3.074   8.063   2.011 -1.7447 -0.3189  2.3412
  434MOL0     H58557   2.961   8.198   1.992  0.4082 -1.3656 -3.4909
  434MOL0     H58558   3.184   8.229   1.886  2.4100  1.3125 -0.3838
  434MOL0     H58559   3.118   8.365   1.987 -1.0150 -0.8655  0.6273
  434MOL0     H58560   3.328   8.151   2.081  1.0723  0.0404  0.9008
  434MOL0     H58561   3.271   8.297   2.168 -0.4275 -1.2206  0.2591
  434MOL0     H58562   3.434   8.297   1.906  1.3467  1.8221 -1.0697
  434MOL0     H58563   3.359   8.436   1.975 -3.0681 -2.3959 -2.6861
  434MOL0     H58564   3.551   8.258   2.108 -2.0931 -0.6524  1.2348
  434MOL0     H58565   3.501   8.420   2.168 -0.0884 -1.0827  1.0302
  434MOL0     H58566   3.658   8.381   1.908  1.2633  2.8577 -1.4379
  434MOL0     H58567   3.605   8.530   1.985 -2.5754 -0.7200  1.0299
  434MOL0     H58568   3.748   8.438   2.191 -1.2326  3.5103  0.4599
  434MOL0     H58569   3.814   8.536   2.052  0.2011  1.4900  2.7790
  434MOL0     H58570   3.976   8.373   2.129 -0.6813  1.1543  1.1028
  434MOL0     H58571   3.911   8.312   1.973  2.4144 -1.3222  1.2282
  434MOL0     H58572   2.822   8.081   2.081  0.0357  0.7432  0.4296
  434MOL0     H58573   2.658   7.944   2.191  1.8126 -1.7591 -1.2058
  434MOL0     H58574   2.703   7.536   2.677 -0.4610  0.2928 -0.0430
  434MOL0     H58575   2.524   7.417   2.801  3.9860  1.2058  1.3544
  434MOL0     H58576   0.587   7.649   3.088  0.8524  2.3833 -2.1411
  434MOL0     H58577   0.383   7.754   3.055  0.5691 -0.9910  0.5358
  434MOL0     H58578  -0.095   7.547   3.218  2.4148  0.5873 -0.6674
  434MOL0     H58579  -0.334   7.593   3.208  1.1099 -1.4752  0.5218
  434MOL0     H58580  -0.465   7.950   3.050  1.9545 -0.4542 -1.5711
  434MOL0     H58581  -0.502   7.866   2.899 -2.9904  1.7051 -0.1474
  434MOL0     H58582  -0.655   7.844   3.144  2.4026  0.4985 -0.3801
  434MOL0     H58583  -0.704   7.764   2.995  0.2538 -0.5070  0.5919
  434MOL0     H58584  -0.753   8.001   2.897  0.2311 -0.4280 -0.3561
  434MOL0     H58585  -0.714   8.055   3.055  2.5463 -1.9446 -0.3113
  434MOL0     H58586  -0.959   8.044   3.015  0.8193 -0.7645 -1.9886
  434MOL0     H58587  -0.906   7.924   3.143  0.5194  1.6686  0.0127
  434MOL0     H58588  -1.039   7.683   2.817 -1.1103 -0.1424  0.4761
  434MOL0     H58589  -0.275   7.852   2.877  3.5872  0.1778 -1.5277
  434MOL0     H58590  -0.039   7.803   2.870  1.1245 -0.1120  0.6637
  435MOL0     O58591   0.083   9.144   5.099 -0.4701  0.2651 -0.6387
  435MOL0     C58592   0.088   9.038   5.036 -1.0722  0.4617  0.9142
  435MOL0     O58593   0.007   8.929   5.055 -0.0082 -0.0048  0.8921
  435MOL0     C58594  -0.087   8.934   5.154 -0.6874 -0.0203  0.7280
  435MOL0     C58595  -0.222   8.949   5.118  0.4115  0.7379 -0.0633
  435MOL0     C58596  -0.321   8.947   5.209 -0.7589  0.4368 -0.4821
  435MOL0     C58597  -0.295   8.925   5.342  0.0984 -0.2229 -0.5144
  435MOL0     O58598  -0.392   8.919   5.442 -0.3488 -0.2602 -0.1397
  435MOL0     C58599  -0.531   8.890   5.409  0.6144  0.0666  0.1188
  435MOL0     C58600  -0.620   8.890   5.527 -0.7801 -0.2583  0.2440
  435MOL0     C58601  -0.766   8.858   5.510  0.0989 -0.0814 -0.1509
  435MOL0     C58602  -0.827   8.944   5.408  0.7467  0.1194 -0.6211
  435MOL0     C58603  -0.980   8.924   5.408  1.2649  0.0507  0.1199
  435MOL0     C58604  -1.050   8.999   5.286  1.0626 -0.2976  0.2535
  435MOL0     C58605  -1.200   8.995   5.295  0.4398 -0.3229  0.6342
  435MOL0     C58606  -1.264   9.070   5.175 -0.3954  0.0473 -0.3151
  435MOL0     N58607  -1.413   9.070   5.186 -0.1683 -0.6515 -0.9045
  435MOL0     C58608  -1.500   8.967   5.163 -0.7543  1.0208 -0.4130
  435MOL0     C58609  -1.624   9.027   5.175  0.1707 -0.2799 -0.8208
  435MOL0     C58610  -1.766   8.965   5.169 -0.1351  0.1533  0.0520
  435MOL0     C58611  -1.796   8.886   5.298 -0.0990 -0.1996 -0.7839
  435MOL0     C58612  -1.795   8.962   5.434  0.0900  0.3388  0.6205
  435MOL0     C58613  -1.904   9.067   5.450 -0.8259  0.4092  0.0576
  435MOL0     O58614  -2.039   9.024   5.426  1.1103 -0.0839 -0.0904
  435MOL0     C58615  -2.101   8.940   5.520  0.5975  0.0030  0.0533
  435MOL0     C58616  -2.075   8.940   5.661  1.1396  0.5678  0.5665
  435MOL0     C58617  -2.160   8.879   5.752 -0.5164  0.3785 -0.0546
  435MOL0     C58618  -2.126   8.885   5.904  1.0536  0.7584  0.3685
  435MOL0     C58619  -2.282   8.813   5.699  0.3528 -0.4690  0.3879
  435MOL0     C58620  -2.386   8.748   5.785  0.3226 -0.0865  0.2572
  435MOL0     O58621  -2.479   8.680   5.726  0.9391 -0.2248  0.3101
  435MOL0     C58622  -2.589   8.629   5.786 -0.1323 -0.3542 -0.0922
  435MOL0     C58623  -2.704   8.637   5.704 -0.2859  0.2892 -0.5605
  435MOL0     C58624  -2.827   8.597   5.754  0.0324  0.1585  0.0434
  435MOL0     C58625  -2.839   8.546   5.885 -0.1943  0.3088  0.6066
  435MOL0     O58626  -2.958   8.500   5.937 -0.1017 -1.0696 -0.2199
  435MOL0     C58627  -3.087   8.520   5.875  0.0202 -0.0920  0.1075
  435MOL0     C58628  -3.204   8.447   5.951 -0.4918  1.0176 -0.5642
  435MOL0     C58629  -3.216   8.498   6.099 -0.4017 -0.3254  0.3674
  435MOL0     C58630  -3.319   8.420   6.172  0.0381  0.2630  0.3360
  435MOL0     C58631  -3.345   8.489   6.318  0.2375  0.5882 -0.0935
  435MOL0     C58632  -3.476   8.442   6.382 -0.3614 -0.1655 -0.0173
  435MOL0     C58633  -3.465   8.392   6.522  0.0086 -0.9797 -0.1673
  435MOL0     C58634  -3.483   8.505   6.620  0.5116  0.4671  0.7905
  435MOL0    Cl58635  -3.646   8.579   6.609  0.4604 -0.0862  0.1921
  435MOL0     C58636  -2.721   8.528   5.961  0.7890 -0.3048  0.6206
  435MOL0     C58637  -2.600   8.583   5.917 -0.3192  0.0519 -0.0887
  435MOL0     O58638  -2.375   8.756   5.908 -0.2691 -0.0568  0.2988
  435MOL0     C58639  -2.302   8.809   5.562  0.4107  0.5570 -0.4308
  435MOL0     C58640  -2.208   8.871   5.471 -0.2527  1.0810 -0.7338
  435MOL0     N58641  -1.611   9.159   5.212  0.6342  0.8566  0.5103
  435MOL0     N58642  -1.482   9.185   5.214 -0.2695  0.8028  0.0413
  435MOL0     C58643  -0.158   8.907   5.383 -0.4642  0.2325  0.2702
  435MOL0     C58644  -0.054   8.909   5.290 -0.0952 -0.3267  0.7868
  435MOL0     C58645   0.169   9.033   4.912 -0.1634  1.1306  0.0043
  435MOL0     C58646   0.174   8.918   4.826  0.3235 -0.4622  0.3201
  435MOL0     C58647   0.255   8.911   4.714 -0.4278 -0.0420 -0.2773
  435MOL0     C58648   0.353   9.016   4.700 -1.2553 -0.3974 -0.1248
  435MOL0     O58649   0.442   9.006   4.602 -0.1863  0.3905  0.3604
  435MOL0     C58650   0.404   9.095   4.493 -0.1918  0.0752 -0.4652
  435MOL0     C58651   0.456   9.047   4.361 -0.6724  0.2091 -0.7208
  435MOL0     C58652   0.614   9.034   4.352  1.6359  0.4410  0.1377
  435MOL0     C58653   0.665   8.980   4.216 -0.2125 -0.9953  0.2600
  435MOL0     C58654   0.632   9.055   4.098 -0.5178  0.1712 -0.4671
  435MOL0     C58655   0.602   9.092   3.991 -1.4006 -1.0349  0.1802
  435MOL0     C58656   0.349   9.131   4.778 -0.1519  0.0287 -0.4548
  435MOL0     C58657   0.250   9.141   4.876 -0.5719  0.8011 -0.3145
  435MOL0     H58658  -0.233   8.972   5.013  0.5821 -0.1441 -0.2825
  435MOL0     H58659  -0.422   8.969   5.175 -1.4343 -1.0681  0.4384
  435MOL0     H58660  -0.560   8.961   5.331 -0.3972 -0.1276  0.3114
  435MOL0     H58661  -0.522   8.785   5.379 -3.0354  0.0010 -1.1569
  435MOL0     H58662  -0.586   8.821   5.604  0.1935 -0.4657 -0.3457
  435MOL0     H58663  -0.620   8.992   5.566 -2.9222 -0.1042 -0.0156
  435MOL0     H58664  -0.778   8.754   5.477 -3.8183 -0.0683  0.7739
  435MOL0     H58665  -0.815   8.860   5.608  0.3086 -0.4841 -0.0330
  435MOL0     H58666  -0.812   9.049   5.433  1.7447  0.0859 -1.0043
  435MOL0     H58667  -0.788   8.920   5.309 -1.6587  0.0061 -1.5971
  435MOL0     H58668  -1.015   8.820   5.407  0.8527  0.1855 -0.6502
  435MOL0     H58669  -1.015   8.949   5.508  3.1599 -2.7350  1.6111
  435MOL0     H58670  -1.019   9.104   5.295 -1.9454  0.5083  2.8682
  435MOL0     H58671  -1.014   8.965   5.189  2.3231  1.5551  0.0034
  435MOL0     H58672  -1.246   8.896   5.297 -5.5112  1.8076 -2.7213
  435MOL0     H58673  -1.227   9.045   5.388 -3.0864  1.8247 -1.3115
  435MOL0     H58674  -1.227   9.024   5.084 -1.7216  2.0571 -1.9708
  435MOL0     H58675  -1.231   9.174   5.181 -2.1767  0.6691 -0.6463
  435MOL0     H58676  -1.474   8.863   5.150 -0.8376  1.2394 -2.8183
  435MOL0     H58677  -1.833   9.051   5.165 -2.0372 -1.2369  0.9278
  435MOL0     H58678  -1.789   8.904   5.081 -1.2728 -0.1558  0.5548
  435MOL0     H58679  -1.734   8.797   5.312 -2.0850 -1.5036  0.2423
  435MOL0     H58680  -1.897   8.844   5.299  0.6857 -2.1785 -0.1198
  435MOL0     H58681  -1.696   9.007   5.443  2.5758 -4.4186 -0.0210
  435MOL0     H58682  -1.798   8.889   5.516  2.8401 -0.4357  0.1245
  435MOL0     H58683  -1.880   9.144   5.376  0.0691  0.8087  0.7364
  435MOL0     H58684  -1.886   9.124   5.542  0.5805 -2.2060  1.5129
  435MOL0     H58685  -1.985   8.987   5.699  1.8531 -0.5563  0.2970
  435MOL0     H58686  -2.123   8.789   5.956 -4.3519 -0.2811 -0.5807
  435MOL0     H58687  -2.030   8.936   5.913  0.9816  1.3586 -1.7280
  435MOL0     H58688  -2.198   8.945   5.961 -0.1229  1.4857 -1.7617
  435MOL0     H58689  -2.698   8.685   5.607  3.3280  5.0425  1.6343
  435MOL0     H58690  -2.918   8.610   5.696 -1.1351 -1.0246  1.5182
  435MOL0     H58691  -3.102   8.628   5.872 -3.0035 -0.2481  3.4108
  435MOL0     H58692  -3.075   8.468   5.779 -0.3370 -1.3311  0.7097
  435MOL0     H58693  -3.289   8.472   5.888 -1.2516 -0.2602 -0.0949
  435MOL0     H58694  -3.191   8.338   5.949 -0.6345  1.0151 -1.9576
  435MOL0     H58695  -3.252   8.600   6.086 -1.3448 -0.6384  0.4239
  435MOL0     H58696  -3.121   8.497   6.152 -0.8477 -1.1479  1.1867
  435MOL0     H58697  -3.410   8.417   6.112  0.0383 -2.1150  0.3850
  435MOL0     H58698  -3.287   8.317   6.183 -1.4827 -0.4099 -1.1261
  435MOL0     H58699  -3.345   8.597   6.303 -2.7445  0.5092 -1.2492
  435MOL0     H58700  -3.260   8.457   6.379  0.3186 -0.2070 -0.5958
  435MOL0     H58701  -3.566   8.502   6.368 -0.2027 -0.1972 -1.2625
  435MOL0     H58702  -3.508   8.356   6.322  0.2983 -0.0420 -0.5595
  435MOL0     H58703  -3.367   8.348   6.545 -0.1317 -0.9345  0.5408
  435MOL0     H58704  -3.536   8.311   6.541 -1.9615  1.2233  2.7947
  435MOL0     H58705  -3.404   8.578   6.599  0.8731 -0.2490 -0.4154
  435MOL0     H58706  -3.463   8.462   6.718 -0.0088 -0.3001  0.5666
  435MOL0     H58707  -2.731   8.484   6.060 -0.0318 -2.2144 -0.2602
  435MOL0     H58708  -2.514   8.576   5.982  0.1887  2.5183 -0.4008
  435MOL0     H58709  -2.382   8.753   5.514  0.7718  1.2105 -1.8469
  435MOL0     H58710  -2.229   8.872   5.364  0.9503 -1.7632 -1.1020
  435MOL0     H58711  -0.149   8.878   5.487 -2.1736 -0.0244  0.3758
  435MOL0     H58712   0.051   8.893   5.312  0.3831  0.4469 -0.8348
  435MOL0     H58713   0.112   8.834   4.857 -0.6539  0.6244  1.4251
  435MOL0     H58714   0.268   8.829   4.643  3.5830  2.1437 -2.4519
  435MOL0     H58715   0.296   9.110   4.478 -0.1603 -0.8213 -1.7318
  435MOL0     H58716   0.439   9.198   4.501 -2.9165  1.1219 -0.8882
  435MOL0     H58717   0.422   9.117   4.283 -0.6162  0.6814 -0.3248
  435MOL0     H58718   0.417   8.948   4.336  0.1077 -0.3792  0.3452
  435MOL0     H58719   0.640   8.967   4.434 -0.2237  0.7300  1.0304
  435MOL0     H58720   0.659   9.132   4.372  1.3084  0.5418  0.3949
  435MOL0     H58721   0.627   8.879   4.197  0.6269 -1.1814 -0.5337
  435MOL0     H58722   0.773   8.960   4.223 -0.1946 -0.3777  2.3429
  435MOL0     H58723   0.561   9.124   3.897  0.7446 -0.7103 -0.7131
  435MOL0     H58724   0.420   9.209   4.751  0.2995 -0.5237 -0.8679
  435MOL0     H58725   0.241   9.231   4.935 -0.3296  0.6915 -0.1083
  436MOL0     O58726   4.131   9.433   4.896 -0.8667  0.2594 -0.0110
  436MOL0     C58727   4.185   9.544   4.907 -1.5513 -1.0293 -0.3510
  436MOL0     O58728   4.155   9.661   4.836 -0.4374 -0.7444  0.7330
  436MOL0     C58729   4.051   9.668   4.757  0.5947 -0.8856  1.2290
  436MOL0     C58730   3.926   9.617   4.797 -0.1275 -0.6943  0.7983
  436MOL0     C58731   3.812   9.633   4.702  0.0983  0.1009 -0.0894
  436MOL0     C58732   3.832   9.683   4.574  0.9279  0.3929  0.5072
  436MOL0     O58733   3.727   9.703   4.489 -0.0240 -0.3264  0.3445
  436MOL0     C58734   3.760   9.703   4.349 -0.1310 -0.3521 -0.2296
  436MOL0     C58735   3.649   9.659   4.260 -0.3890  0.0097  0.3330
  436MOL0     C58736   3.533   9.759   4.275 -0.0174  0.0948 -0.3168
  436MOL0     C58737   3.408   9.715   4.193 -0.2861 -0.0275  0.2420
  436MOL0     C58738   3.285   9.804   4.205  0.0375 -0.1452  0.2979
  436MOL0     C58739   3.213   9.807   4.340  0.5927 -0.1114  0.6521
  436MOL0     C58740   3.140   9.671   4.355  0.4961 -0.5006 -0.8747
  436MOL0     C58741   3.079   9.652   4.496  0.3230 -0.4662  0.3645
  436MOL0     N58742   3.016   9.525   4.502  0.8952  0.6075 -0.0335
  436MOL0     C58743   2.895   9.478   4.444 -0.5295  0.3975 -0.4793
  436MOL0     C58744   2.883   9.357   4.497 -0.0523 -0.1918  0.2055
  436MOL0     C58745   2.776   9.266   4.437  0.4425  0.3766 -0.1656
  436MOL0     C58746   2.732   9.147   4.521  0.3088  0.6267 -0.4389
  436MOL0     C58747   2.625   9.064   4.454  0.4319 -0.0433  0.6130
  436MOL0     C58748   2.495   9.054   4.539  1.4343 -0.2476  0.0442
  436MOL0     O58749   2.397   8.969   4.479  0.1394 -0.1309 -0.6978
  436MOL0     C58750   2.280   8.950   4.552  0.3110 -0.1997  0.3982
  436MOL0     C58751   2.220   8.820   4.551 -0.5192  0.0256 -0.0416
  436MOL0     C58752   2.094   8.799   4.604 -0.5135  0.2284 -0.0122
  436MOL0     C58753   2.031   8.663   4.594 -0.8808 -0.0017 -0.2639
  436MOL0     C58754   2.032   8.912   4.674  0.1706 -0.2951  0.0958
  436MOL0     C58755   1.892   8.907   4.729  0.1198 -0.9205 -0.8102
  436MOL0     O58756   1.818   9.022   4.744  0.4657 -0.3669  0.5151
  436MOL0     C58757   1.703   9.017   4.815 -0.2762 -0.7818 -1.3333
  436MOL0     C58758   1.706   9.100   4.926  0.1640 -0.1922 -0.0173
  436MOL0     C58759   1.592   9.101   5.014 -0.9414 -0.6692 -0.0733
  436MOL0     C58760   1.481   9.013   4.995 -0.3417  0.1171  0.9714
  436MOL0     O58761   1.373   9.004   5.079 -0.4030 -0.0532 -0.3490
  436MOL0     C58762   1.377   9.092   5.195 -0.4552 -1.0028 -0.1287
  436MOL0     C58763   1.283   9.052   5.296 -0.3146  0.0386  0.8505
  436MOL0     C58764   1.151   9.102   5.275 -0.2039 -1.1486 -0.3079
  436MOL0     C58765   1.068   9.043   5.156  0.0719  0.0254 -0.1799
  436MOL0     C58766   0.936   9.121   5.150 -0.1229  0.8388  0.4978
  436MOL0     C58767   0.855   9.104   5.022 -0.4412  0.6192 -0.4726
  436MOL0     C58768   0.800   8.965   4.997  0.4757 -0.0042  0.1810
  436MOL0     C58769   0.717   8.952   4.863  0.6454  0.7202  0.3304
  436MOL0    Cl58770   0.825   8.997   4.726 -0.2352  0.3430 -0.0706
  436MOL0     C58771   1.478   8.946   4.872 -0.7554  0.1913 -0.8772
  436MOL0     C58772   1.584   8.957   4.783  0.7424  0.6728 -0.0737
  436MOL0     O58773   1.862   8.798   4.786  0.1241  0.5289  0.0649
  436MOL0     C58774   2.091   9.037   4.666 -0.4103  0.1428 -0.0844
  436MOL0     C58775   2.214   9.053   4.607 -0.8582 -0.4861  0.6592
  436MOL0     N58776   2.977   9.336   4.595  1.0127 -0.2854 -0.1225
  436MOL0     N58777   3.057   9.438   4.598 -0.0576 -0.5198  0.3753
  436MOL0     C58778   3.963   9.740   4.541  0.4583 -0.0441  0.3639
  436MOL0     C58779   4.063   9.721   4.634  0.0170 -0.3076  0.2840
  436MOL0     C58780   4.308   9.558   4.986  0.5957  0.7612 -0.4776
  436MOL0     C58781   4.399   9.659   4.964  0.3703  0.1274 -0.1623
  436MOL0     C58782   4.512   9.679   5.041 -0.2896 -0.0348 -0.9331
  436MOL0     C58783   4.521   9.603   5.154 -0.2630  0.6449  0.0232
  436MOL0     O58784   4.616   9.623   5.258  0.3053 -0.7719  0.8339
  436MOL0     C58785   4.713   9.728   5.252  0.2203  0.0260 -0.4396
  436MOL0     C58786   4.700   9.820   5.378 -0.0251 -0.2138  0.3139
  436MOL0     C58787   4.565   9.887   5.393 -0.1484 -0.4484  0.4093
  436MOL0     C58788   4.475   9.825   5.505  0.1747 -0.9955  0.5091
  436MOL0     C58789   4.331   9.849   5.468 -0.1163  0.0100  0.3296
  436MOL0     C58790   4.208   9.865   5.438  0.2162 -0.6429 -0.8271
  436MOL0     C58791   4.434   9.490   5.181 -0.1326  0.1293 -0.6225
  436MOL0     C58792   4.323   9.474   5.100  0.5547 -0.4284 -0.9344
  436MOL0     H58793   3.920   9.574   4.896  3.0055 -4.0503 -0.2253
  436MOL0     H58794   3.716   9.605   4.744  1.6368 -0.6436  3.2226
  436MOL0     H58795   3.779   9.809   4.329 -1.2602 -0.2588 -0.9460
  436MOL0     H58796   3.846   9.641   4.322 -2.4145 -2.9933 -2.0955
  436MOL0     H58797   3.693   9.649   4.161  3.2120 -0.4078  1.7905
  436MOL0     H58798   3.628   9.558   4.296 -1.5410 -0.1984 -0.8748
  436MOL0     H58799   3.501   9.760   4.379  0.5786 -1.9786 -0.0629
  436MOL0     H58800   3.566   9.856   4.238 -1.2548  0.1610 -1.3299
  436MOL0     H58801   3.435   9.726   4.087 -0.2687  0.1752  0.2669
  436MOL0     H58802   3.384   9.609   4.205  0.2756  0.0248  2.1037
  436MOL0     H58803   3.313   9.907   4.180 -2.5864  0.7691  0.8265
  436MOL0     H58804   3.207   9.774   4.135 -0.3256  0.1093  0.5862
  436MOL0     H58805   3.275   9.819   4.430 -0.6884  1.2611  1.3808
  436MOL0     H58806   3.151   9.896   4.340  1.4359  0.5984 -2.4971
  436MOL0     H58807   3.060   9.656   4.281 -1.3392 -1.9378  1.2671
  436MOL0     H58808   3.207   9.586   4.341  0.1964 -0.9671  0.4241
  436MOL0     H58809   3.008   9.731   4.520  0.4330 -0.0552 -0.6097
  436MOL0     H58810   3.160   9.657   4.569  0.5314  1.0297  0.0673
  436MOL0     H58811   2.838   9.528   4.367  0.0993  3.0518  0.6543
  436MOL0     H58812   2.688   9.322   4.402 -2.3234 -2.7487  1.2901
  436MOL0     H58813   2.810   9.222   4.343  1.1334  0.1201  0.2001
  436MOL0     H58814   2.701   9.186   4.618  2.0668  1.0306 -0.0120
  436MOL0     H58815   2.815   9.076   4.524 -2.5648 -3.0827 -1.4151
  436MOL0     H58816   2.649   8.957   4.452  1.3941  0.1722 -1.1260
  436MOL0     H58817   2.595   9.102   4.355  2.1368 -1.1256 -0.3654
  436MOL0     H58818   2.452   9.153   4.561 -0.8354 -1.2034  0.1621
  436MOL0     H58819   2.512   9.023   4.643 -0.9659 -1.1878  0.2171
  436MOL0     H58820   2.270   8.738   4.501 -2.6146 -2.9588  2.3862
  436MOL0     H58821   2.090   8.608   4.521  0.9029  4.6612 -2.7927
  436MOL0     H58822   2.034   8.612   4.691  0.4384  2.6689  1.2393
  436MOL0     H58823   1.928   8.671   4.559 -1.0059  2.8339  0.4613
  436MOL0     H58824   1.786   9.171   4.946 -0.4334 -0.0376  2.0748
  436MOL0     H58825   1.597   9.162   5.104 -0.5571 -1.1864  0.2595
  436MOL0     H58826   1.476   9.103   5.240  0.7810 -1.2946 -2.6131
  436MOL0     H58827   1.345   9.193   5.168  0.7093 -0.0859  1.7605
  436MOL0     H58828   1.281   8.943   5.295 -1.2395  0.0091  2.2246
  436MOL0     H58829   1.323   9.076   5.395  0.0445 -1.9550  1.2215
  436MOL0     H58830   1.162   9.209   5.257  1.9982 -0.9516  1.6317
  436MOL0     H58831   1.099   9.088   5.370  2.6350 -3.6277  1.0607
  436MOL0     H58832   1.128   9.069   5.067  4.0815 -1.7247  1.7594
  436MOL0     H58833   1.049   8.937   5.175 -1.4795 -0.0517 -1.8555
  436MOL0     H58834   0.970   9.224   5.160 -0.7698  1.6976 -4.0540
  436MOL0     H58835   0.868   9.096   5.232 -1.1229 -0.6897 -0.7447
  436MOL0     H58836   0.771   9.174   5.027  1.1312  2.5250  1.5152
  436MOL0     H58837   0.916   9.131   4.935 -0.7647 -1.9597 -1.5807
  436MOL0     H58838   0.722   8.941   5.069 -0.4355 -0.8516 -1.0495
  436MOL0     H58839   0.886   8.899   4.996  2.2285  2.0961 -1.9563
  436MOL0     H58840   0.630   9.019   4.869 -1.9462 -2.3639  0.0233
  436MOL0     H58841   0.683   8.849   4.851  0.4812  0.2120  4.0316
  436MOL0     H58842   1.394   8.879   4.852 -0.4797 -0.6518  0.6306
  436MOL0     H58843   1.578   8.904   4.689  1.6707 -0.8056  0.6704
  436MOL0     H58844   2.037   9.121   4.710  0.1848 -0.5263  1.9980
  436MOL0     H58845   2.242   9.158   4.598 -1.4271 -0.2891  1.1162
  436MOL0     H58846   3.970   9.804   4.454 -1.5927 -0.9399 -0.5568
  436MOL0     H58847   4.161   9.759   4.610 -1.0263  1.6681 -1.1915
  436MOL0     H58848   4.392   9.737   4.888 -0.0761 -0.8034 -1.1030
  436MOL0     H58849   4.579   9.759   5.010 -0.0024 -0.4226 -1.3129
  436MOL0     H58850   4.818   9.700   5.243  0.5963  1.4636 -0.8986
  436MOL0     H58851   4.703   9.794   5.165  0.3706 -0.6900 -1.0133
  436MOL0     H58852   4.775   9.899   5.386 -2.5030  2.0696  3.0729
  436MOL0     H58853   4.723   9.766   5.470 -1.3402  0.1076  0.8515
  436MOL0     H58854   4.513   9.888   5.296 -0.9865  2.4772  0.7832
  436MOL0     H58855   4.583   9.994   5.407 -0.0958 -0.0617 -2.0721
  436MOL0     H58856   4.499   9.866   5.603  0.1186  0.9558 -0.2362
  436MOL0     H58857   4.493   9.718   5.501 -0.0717 -1.0122 -0.4457
  436MOL0     H58858   4.102   9.862   5.426 -0.1151 -0.5981  1.6193
  436MOL0     H58859   4.449   9.428   5.268 -2.3180  1.0914  0.5225
  436MOL0     H58860   4.258   9.388   5.118  2.0053 -1.0090  2.3567
  437MOL0     O58861  10.545   1.842   9.763 -0.1835 -0.4544 -0.1366
  437MOL0     C58862  10.520   1.841   9.640 -0.5509 -0.4170  0.2856
  437MOL0     O58863  10.402   1.846   9.579  0.1620  0.9544 -0.3135
  437MOL0     C58864  10.292   1.879   9.645  0.2017  0.2095 -0.0397
  437MOL0     C58865  10.283   1.965   9.756  0.6237  0.2084 -0.0767
  437MOL0     C58866  10.157   1.995   9.811 -0.4466  0.1432  0.7005
  437MOL0     C58867  10.044   1.944   9.750 -0.4151 -0.2516 -0.4318
  437MOL0     O58868   9.922   1.956   9.801 -0.4090  0.7307  0.0706
  437MOL0     C58869   9.885   2.091   9.839 -0.0395  0.3470  0.3112
  437MOL0     C58870   9.733   2.088   9.869 -0.4030 -0.2666 -0.6724
  437MOL0     C58871   9.690   1.998   9.977  0.4503 -0.5005  0.8825
  437MOL0     C58872   9.563   2.034  10.058  0.4478 -0.6712  0.3935
  437MOL0     C58873   9.431   2.037   9.967  0.2642 -0.3705  0.1671
  437MOL0     C58874   9.317   2.104  10.046 -0.6199  0.6113 -0.4581
  437MOL0     C58875   9.174   2.063   9.993  0.4091 -0.1011  0.5349
  437MOL0     C58876   9.082   2.176   9.990  0.1188 -0.3772 -1.1124
  437MOL0     N58877   8.958   2.166   9.920  0.0476  0.3247  0.6661
  437MOL0     C58878   8.889   2.268   9.855 -0.0947  0.2177 -0.7142
  437MOL0     C58879   8.766   2.220   9.836  1.0342  0.4355  0.4661
  437MOL0     C58880   8.635   2.289   9.790 -0.4796  0.3083  0.4081
  437MOL0     C58881   8.568   2.191   9.693  0.8792 -0.4368  0.4500
  437MOL0     C58882   8.425   2.251   9.661 -0.0140 -0.5765  0.7079
  437MOL0     C58883   8.423   2.397   9.610 -0.2361  0.7652 -1.3178
  437MOL0     O58884   8.296   2.427   9.548 -0.1823  0.6132 -0.7121
  437MOL0     C58885   8.280   2.560   9.514  0.2298 -0.0151 -0.6989
  437MOL0     C58886   8.382   2.652   9.488  0.0616  1.0076 -0.3307
  437MOL0     C58887   8.344   2.795   9.495  0.2887 -0.5802  0.7752
  437MOL0     C58888   8.451   2.895   9.460 -0.2402  0.4490  0.0452
  437MOL0     C58889   8.214   2.832   9.532 -0.3401  0.3980  0.5081
  437MOL0     C58890   8.170   2.970   9.565 -0.4461 -0.0404 -0.3547
  437MOL0     O58891   8.036   3.001   9.561  1.0144 -0.0588  0.2179
  437MOL0     C58892   7.981   3.121   9.592 -1.0404  0.6546 -0.2754
  437MOL0     C58893   7.840   3.127   9.582  0.6239 -0.5974 -0.8280
  437MOL0     C58894   7.768   3.239   9.614 -0.6613  0.0570  0.0433
  437MOL0     C58895   7.838   3.360   9.660  1.1650 -0.5648 -0.1126
  437MOL0     O58896   7.756   3.473   9.667  0.5242 -0.1300  0.8578
  437MOL0     C58897   7.794   3.552   9.783 -0.3368 -0.2483 -0.2549
  437MOL0     C58898   7.669   3.619   9.842 -0.3387 -0.3145  0.2459
  437MOL0     C58899   7.587   3.508   9.931  0.2035  0.0565  0.6121
  437MOL0     C58900   7.453   3.571   9.960 -0.2084  1.2787 -0.4792
  437MOL0     C58901   7.359   3.480  10.052  0.6356 -0.5010  0.2429
  437MOL0     C58902   7.227   3.560  10.065 -0.7359 -0.7149 -0.4000
  437MOL0     C58903   7.135   3.498  10.167 -0.2156 -0.8524 -0.3197
  437MOL0     C58904   7.023   3.592  10.196 -0.1253  0.2004 -0.7426
  437MOL0    Cl58905   6.916   3.511  10.307 -0.3391 -0.0812 -0.2195
  437MOL0     C58906   7.971   3.351   9.681  0.4882  0.0928 -0.6118
  437MOL0     C58907   8.043   3.234   9.652  1.1329 -0.3693 -0.2022
  437MOL0     O58908   8.265   3.048   9.590  0.1871  0.3650  0.1016
  437MOL0     C58909   8.115   2.734   9.547 -0.9298 -0.1141  1.2283
  437MOL0     C58910   8.149   2.595   9.537 -0.3461 -0.4920  0.7655
  437MOL0     N58911   8.762   2.094   9.895  0.5397  0.0566  0.5160
  437MOL0     N58912   8.876   2.059   9.940 -0.3375 -0.3407  0.2364
  437MOL0     C58913  10.052   1.866   9.638  0.2706  0.5861 -0.2989
  437MOL0     C58914  10.175   1.843   9.578  0.2378 -0.9904  0.2215
  437MOL0     C58915  10.638   1.832   9.555  0.9357 -0.4015  0.3726
  437MOL0     C58916  10.623   1.808   9.416  0.3572 -0.0560 -0.8800
  437MOL0     C58917  10.736   1.792   9.342 -0.4427  0.2745 -0.3070
  437MOL0     C58918  10.865   1.786   9.396  0.3033 -0.0003 -0.0665
  437MOL0     O58919  10.964   1.757   9.313 -1.0976 -0.2815  0.2909
  437MOL0     C58920  10.996   1.618   9.292 -0.9312  0.0977  0.4074
  437MOL0     C58921  11.138   1.609   9.220  0.6317  0.3313 -0.2494
  437MOL0     C58922  11.215   1.479   9.234 -0.0494  0.2338 -0.3602
  437MOL0     C58923  11.127   1.367   9.168  0.1278  0.7583  0.4196
  437MOL0     C58924  11.177   1.233   9.209  0.6115  0.3401 -0.3483
  437MOL0     C58925  11.192   1.122   9.237 -0.3221  0.9563  0.0019
  437MOL0     C58926  10.882   1.811   9.526 -0.7680  0.1950 -0.6070
  437MOL0     C58927  10.769   1.840   9.607 -0.0893  0.2993 -0.1252
  437MOL0     H58928  10.376   2.005   9.794  1.4170 -2.6311  1.2231
  437MOL0     H58929  10.149   2.057   9.900 -3.1315  0.4866  0.3216
  437MOL0     H58930   9.948   2.125   9.921  1.8862 -1.1643 -0.4772
  437MOL0     H58931   9.906   2.161   9.757 -0.2422  0.1727  0.1076
  437MOL0     H58932   9.700   2.189   9.896 -0.2903  0.0869 -1.7897
  437MOL0     H58933   9.678   2.068   9.777 -1.9155 -2.4490  0.6170
  437MOL0     H58934   9.678   1.899   9.931  1.1730 -0.1574 -0.0903
  437MOL0     H58935   9.775   1.991  10.046  0.2670  0.1851  1.1808
  437MOL0     H58936   9.553   1.979  10.151  0.8297  0.6659  1.2613
  437MOL0     H58937   9.578   2.139  10.085  0.0352  0.2882 -2.6914
  437MOL0     H58938   9.446   2.070   9.863 -2.4161  0.8708  0.1099
  437MOL0     H58939   9.409   1.931   9.952 -0.6416 -0.1858  0.1397
  437MOL0     H58940   9.326   2.077  10.152 -2.3183  4.6414  0.8978
  437MOL0     H58941   9.333   2.212  10.049 -0.7340  0.6031  0.8367
  437MOL0     H58942   9.175   2.006   9.900 -3.0743 -0.8117  0.7940
  437MOL0     H58943   9.124   1.986  10.053 -0.6874 -1.2390 -1.7095
  437MOL0     H58944   9.139   2.260   9.950  0.7316 -0.9113 -1.3839
  437MOL0     H58945   9.063   2.209  10.092 -0.6380 -0.2941 -1.2799
  437MOL0     H58946   8.928   2.369   9.850 -0.7691  0.7068  2.0507
  437MOL0     H58947   8.577   2.307   9.882 -0.6346 -1.6784  0.7436
  437MOL0     H58948   8.659   2.381   9.736 -0.1042  0.2466  0.4660
  437MOL0     H58949   8.556   2.091   9.737 -0.7255 -0.2390  0.5339
  437MOL0     H58950   8.628   2.179   9.602  0.2473 -2.1807  0.2228
  437MOL0     H58951   8.362   2.246   9.750  2.8319  2.3380  3.1039
  437MOL0     H58952   8.379   2.186   9.585 -1.1535  0.0506  0.8373
  437MOL0     H58953   8.499   2.412   9.533  1.0256  4.4429  0.3765
  437MOL0     H58954   8.453   2.477   9.679  1.2275 -0.2217 -0.7711
  437MOL0     H58955   8.486   2.624   9.471 -0.5641 -0.8039 -1.4526
  437MOL0     H58956   8.473   2.955   9.549 -0.5115  0.6731 -0.0374
  437MOL0     H58957   8.541   2.840   9.433 -0.7752 -0.8168  0.7540
  437MOL0     H58958   8.417   2.963   9.381  1.3768  0.9184 -0.2737
  437MOL0     H58959   7.789   3.038   9.547 -0.1269 -1.5414  2.2854
  437MOL0     H58960   7.662   3.245   9.592 -0.2473  1.3793 -1.8582
  437MOL0     H58961   7.842   3.491   9.861 -1.7092  1.6191  2.1885
  437MOL0     H58962   7.869   3.628   9.763 -2.2540  1.9180  0.3559
  437MOL0     H58963   7.701   3.700   9.908  0.0459  0.6564 -1.0633
  437MOL0     H58964   7.608   3.664   9.762  1.4056  2.5502  0.3748
  437MOL0     H58965   7.644   3.476  10.019  2.0189 -0.0563 -0.5602
  437MOL0     H58966   7.572   3.418   9.871 -4.3810  0.6922  0.4299
  437MOL0     H58967   7.473   3.673   9.995  3.8443  0.5127 -0.1077
  437MOL0     H58968   7.411   3.565   9.859 -0.7831 -2.3272 -0.1405
  437MOL0     H58969   7.406   3.465  10.149  1.4050 -1.6004 -0.2768
  437MOL0     H58970   7.344   3.379  10.014 -0.2217 -0.2387 -0.1399
  437MOL0     H58971   7.242   3.663  10.097 -1.4808 -1.1904  1.6416
  437MOL0     H58972   7.187   3.569   9.963 -1.8486  1.8549  0.1791
  437MOL0     H58973   7.197   3.485  10.256  0.7398  0.7368 -0.7224
  437MOL0     H58974   7.085   3.405  10.137 -1.1276 -0.4481 -0.0822
  437MOL0     H58975   6.969   3.632  10.109  0.2764  3.7353  0.4572
  437MOL0     H58976   7.062   3.684  10.240  1.0195 -0.7658  0.3390
  437MOL0     H58977   8.023   3.437   9.722  2.5006 -1.0771 -0.5856
  437MOL0     H58978   8.141   3.222   9.698 -0.7994  0.1309  4.6437
  437MOL0     H58979   8.015   2.755   9.583 -1.1017  0.3727  0.4960
  437MOL0     H58980   8.070   2.527   9.566 -1.5932  1.3623  1.9279
  437MOL0     H58981   9.970   1.812   9.591  1.4101 -1.0598 -0.4589
  437MOL0     H58982  10.175   1.789   9.484 -2.7337 -0.5548 -0.1390
  437MOL0     H58983  10.523   1.809   9.373 -0.9475  1.9541  1.8624
  437MOL0     H58984  10.729   1.763   9.238  1.4347  0.3656 -0.4917
  437MOL0     H58985  11.008   1.571   9.390  3.8226  0.8965  0.4536
  437MOL0     H58986  10.930   1.574   9.217  2.6068 -1.2985 -2.1816
  437MOL0     H58987  11.202   1.691   9.254  0.9558  0.1893 -0.5196
  437MOL0     H58988  11.116   1.627   9.114  0.6921  0.1449 -0.2939
  437MOL0     H58989  11.247   1.446   9.333 -0.1004 -2.4327 -1.1689
  437MOL0     H58990  11.314   1.504   9.194 -0.0957  0.2552 -0.4619
  437MOL0     H58991  11.136   1.371   9.059 -0.1553 -1.3750  0.2617
  437MOL0     H58992  11.023   1.385   9.197 -0.3752  0.5529 -1.1512
  437MOL0     H58993  11.217   1.020   9.259  2.5128  1.4284 -0.6367
  437MOL0     H58994  10.980   1.792   9.571 -1.5133 -2.4471  0.0936
  437MOL0     H58995  10.788   1.867   9.711  2.9683  1.1492 -0.7808
  438MOL0     O58996   4.099   0.685   7.189  0.1111 -0.4078 -0.8705
  438MOL0     C58997   4.070   0.804   7.204  0.7796  0.4166  0.8331
  438MOL0     O58998   4.151   0.907   7.252 -0.4259  0.4901 -0.2008
  438MOL0     C58999   4.279   0.886   7.289  0.3125  0.1613  0.3258
  438MOL0     C59000   4.356   0.763   7.269 -0.6624  0.0875  1.0152
  438MOL0     C59001   4.492   0.750   7.302  0.0689 -0.1044  0.2056
  438MOL0     C59002   4.554   0.855   7.372  0.0487  0.8828 -0.6035
  438MOL0     O59003   4.691   0.846   7.411  0.1272 -0.2773  0.3028
  438MOL0     C59004   4.753   0.936   7.507 -0.2982 -0.6673 -0.8976
  438MOL0     C59005   4.885   0.875   7.542  0.5468 -0.1393  0.8365
  438MOL0     C59006   4.966   0.948   7.660 -0.4992  0.3281 -0.1842
  438MOL0     C59007   4.898   0.945   7.796 -0.5135  0.3052  0.0218
  438MOL0     C59008   4.864   0.796   7.840 -0.1439 -0.1443  0.4140
  438MOL0     C59009   4.855   0.800   7.992  0.2589  0.0760 -0.1788
  438MOL0     C59010   4.986   0.781   8.077 -0.2732  0.5897 -0.4970
  438MOL0     C59011   4.956   0.818   8.223 -0.3000 -0.1883  0.2406
  438MOL0     N59012   5.062   0.762   8.310  0.5777 -0.5399 -0.1663
  438MOL0     C59013   5.091   0.633   8.335  0.1023  0.4532  0.3419
  438MOL0     C59014   5.165   0.631   8.452  0.3098  0.0582 -0.0033
  438MOL0     C59015   5.230   0.528   8.531 -0.1133  0.4500  0.0164
  438MOL0     C59016   5.136   0.432   8.607 -0.3862 -0.3938 -0.4261
  438MOL0     C59017   5.184   0.372   8.735 -0.9245 -0.2911  0.2835
  438MOL0     C59018   5.303   0.279   8.715  0.2160 -0.0934 -0.2430
  438MOL0     O59019   5.288   0.184   8.601  0.0414  0.1555  0.1934
  438MOL0     C59020   5.186   0.091   8.575 -0.0258  0.0706 -0.3466
  438MOL0     C59021   5.178   0.050   8.441  0.3235  0.5690 -0.1843
  438MOL0     C59022   5.073  -0.034   8.393  0.4501 -0.1760  0.0558
  438MOL0     C59023   5.072  -0.071   8.248  0.6654 -0.8459 -0.3260
  438MOL0     C59024   4.969  -0.070   8.485  0.1970 -0.7128 -0.0784
  438MOL0     C59025   4.850  -0.155   8.443 -0.2716  0.0665 -0.2835
  438MOL0     O59026   4.753  -0.158   8.546  0.5034  0.3477 -0.0479
  438MOL0     C59027   4.669  -0.263   8.549  0.4006 -0.6072 -0.4961
  438MOL0     C59028   4.592  -0.302   8.437  0.0516  1.0997  0.2723
  438MOL0     C59029   4.498  -0.408   8.441 -0.5523  0.5369 -0.0809
  438MOL0     C59030   4.472  -0.480   8.559 -0.7595 -0.9676 -0.1085
  438MOL0     O59031   4.362  -0.562   8.583 -0.1485 -0.1045 -0.2299
  438MOL0     C59032   4.273  -0.591   8.475  0.5404 -1.1194 -0.2162
  438MOL0     C59033   4.158  -0.485   8.470  0.4911 -0.3292  0.0195
  438MOL0     C59034   4.071  -0.482   8.587  0.3167  1.4352  0.2444
  438MOL0     C59035   3.929  -0.421   8.550 -0.4013  0.2572  0.3360
  438MOL0     C59036   3.827  -0.440   8.656 -0.0808 -0.2371  0.5087
  438MOL0     C59037   3.822  -0.581   8.708  1.4274  1.0849 -0.9006
  438MOL0     C59038   3.676  -0.618   8.758 -0.8574 -0.5016 -0.4348
  438MOL0     C59039   3.665  -0.761   8.801  0.0740  0.4171  0.5757
  438MOL0    Cl59040   3.495  -0.803   8.811 -0.0558 -0.1506 -0.4980
  438MOL0     C59041   4.542  -0.434   8.678  0.5095  0.4864 -0.6095
  438MOL0     C59042   4.644  -0.332   8.671  0.8417 -0.2137  0.8056
  438MOL0     O59043   4.848  -0.218   8.335  0.0156  0.4512 -0.2069
  438MOL0     C59044   4.971  -0.029   8.618  0.0390 -1.1466  0.2160
  438MOL0     C59045   5.090   0.045   8.670  0.2162  0.6484 -0.9394
  438MOL0     N59046   5.180   0.771   8.490 -0.6684 -0.2210  0.0090
  438MOL0     N59047   5.125   0.834   8.397  0.7393 -1.1160  1.0671
  438MOL0     C59048   4.472   0.966   7.405  0.5480  0.0649  0.4879
  438MOL0     C59049   4.344   0.979   7.364  0.5489  0.5153 -0.1237
  438MOL0     C59050   3.940   0.849   7.142 -0.1483 -0.5143  0.4989
  438MOL0     C59051   3.864   0.759   7.068  0.4979 -0.5524  0.0581
  438MOL0     C59052   3.748   0.817   7.007 -0.1926 -0.1505 -0.0289
  438MOL0     C59053   3.705   0.949   7.026  0.1297 -0.0653  0.2013
  438MOL0     O59054   3.598   0.989   6.957  0.3643  0.0646 -0.4867
  438MOL0     C59055   3.476   0.944   7.019  0.1283 -0.8290  0.1763
  438MOL0     C59056   3.445   0.998   7.159  0.0243  1.0951 -0.3568
  438MOL0     C59057   3.327   0.930   7.210  0.0143  0.5617 -0.0163
  438MOL0     C59058   3.289   0.965   7.355 -0.3080 -0.5364 -0.7354
  438MOL0     C59059   3.238   0.848   7.427  0.1364 -0.5205  0.2738
  438MOL0     C59060   3.185   0.747   7.467 -0.1261  0.1177  1.0089
  438MOL0     C59061   3.783   1.036   7.107  0.6037  0.5510 -0.5749
  438MOL0     C59062   3.898   0.983   7.167  0.0943  0.4331  0.2745
  438MOL0     H59063   4.329   0.679   7.205 -0.1499  0.7331 -0.0755
  438MOL0     H59064   4.551   0.664   7.272 -3.8361 -2.0171 -3.0630
  438MOL0     H59065   4.755   1.038   7.466 -0.8759 -0.6089 -0.7936
  438MOL0     H59066   4.682   0.939   7.590 -0.5331 -1.3663 -1.0715
  438MOL0     H59067   4.870   0.773   7.579  1.1066  0.2245  2.1321
  438MOL0     H59068   4.946   0.884   7.452  2.5499  0.0551  2.1550
  438MOL0     H59069   5.064   0.901   7.667 -1.8934 -2.6979  0.7307
  438MOL0     H59070   4.981   1.051   7.629  1.2509  0.5794  1.3725
  438MOL0     H59071   4.966   0.982   7.873 -0.4316 -4.8368  2.8528
  438MOL0     H59072   4.806   1.004   7.788 -0.7793  0.2779  2.3038
  438MOL0     H59073   4.773   0.766   7.787 -0.0361  2.3070 -1.3501
  438MOL0     H59074   4.938   0.720   7.815 -2.0298 -1.8502 -0.2430
  438MOL0     H59075   4.805   0.889   8.031 -1.7558 -0.1816 -2.0298
  438MOL0     H59076   4.793   0.717   8.028  2.1689 -0.9669  0.8622
  438MOL0     H59077   5.024   0.680   8.061 -0.0204  0.9887 -2.6853
  438MOL0     H59078   5.064   0.844   8.033 -1.8840  1.3776 -2.3886
  438MOL0     H59079   4.859   0.771   8.243 -0.6598 -0.3612 -1.7122
  438MOL0     H59080   4.957   0.927   8.230  0.6797 -0.2482  1.1905
  438MOL0     H59081   5.083   0.543   8.276 -1.4239  0.1303  1.0097
  438MOL0     H59082   5.276   0.467   8.452 -1.3043  2.2733 -2.1970
  438MOL0     H59083   5.299   0.579   8.598 -0.7676  0.1206  0.9623
  438MOL0     H59084   5.097   0.352   8.543 -3.9442  2.2186 -1.8758
  438MOL0     H59085   5.042   0.483   8.634 -0.2664 -0.0131 -0.7192
  438MOL0     H59086   5.094   0.324   8.777 -1.4213 -0.8073 -1.3044
  438MOL0     H59087   5.205   0.448   8.811 -0.2486  0.4634 -0.6455
  438MOL0     H59088   5.320   0.234   8.813  0.6797 -0.6471 -0.5654
  438MOL0     H59089   5.396   0.334   8.694  0.7350 -0.2573  1.4635
  438MOL0     H59090   5.260   0.091   8.383  0.1239 -1.5901 -2.1087
  438MOL0     H59091   5.142  -0.014   8.187  0.8361  0.2230  0.8164
  438MOL0     H59092   5.101  -0.177   8.244  2.7154 -0.4592  1.7087
  438MOL0     H59093   4.972  -0.061   8.205 -0.7622 -1.7859  2.5200
  438MOL0     H59094   4.601  -0.248   8.343  3.1106  1.6598  0.8072
  438MOL0     H59095   4.435  -0.429   8.355 -3.5090 -3.2391  2.6642
  438MOL0     H59096   4.327  -0.592   8.380 -2.0002  0.8196 -1.8114
  438MOL0     H59097   4.236  -0.693   8.492  1.0292 -1.0816  1.1939
  438MOL0     H59098   4.207  -0.387   8.468 -0.2528  0.1952  2.8894
  438MOL0     H59099   4.098  -0.493   8.378 -2.0208  1.1234  1.4047
  438MOL0     H59100   4.113  -0.422   8.668 -0.1351 -0.3153  1.8497
  438MOL0     H59101   4.053  -0.582   8.626 -1.5347  0.4556 -2.7643
  438MOL0     H59102   3.933  -0.315   8.526  0.3614  0.9235  3.0597
  438MOL0     H59103   3.897  -0.472   8.459  3.1403  2.9033 -2.7149
  438MOL0     H59104   3.729  -0.404   8.621  0.1069 -1.6431 -1.6750
  438MOL0     H59105   3.860  -0.375   8.737  1.3180 -0.1754 -0.0845
  438MOL0     H59106   3.851  -0.655   8.634  0.2059  0.3176 -0.6426
  438MOL0     H59107   3.881  -0.591   8.800  0.9788  1.0407 -0.6140
  438MOL0     H59108   3.613  -0.581   8.676  1.4154  2.6110 -0.9385
  438MOL0     H59109   3.645  -0.557   8.843  3.0742  0.5982  0.4093
  438MOL0     H59110   3.712  -0.768   8.900  1.5423  2.4794  0.0751
  438MOL0     H59111   3.720  -0.831   8.738 -2.3505 -1.5146  0.4386
  438MOL0     H59112   4.513  -0.466   8.777  1.5554  0.0930 -0.4179
  438MOL0     H59113   4.701  -0.309   8.761 -0.2476  1.6986  1.0611
  438MOL0     H59114   4.889  -0.040   8.688  0.6817 -0.4394  1.1040
  438MOL0     H59115   5.091   0.076   8.775  1.6845  0.9930 -1.0353
  438MOL0     H59116   4.515   1.056   7.447  2.7968 -1.1348  0.9031
  438MOL0     H59117   4.290   1.071   7.382  0.8838  0.7200 -0.1642
  438MOL0     H59118   3.877   0.652   7.066  3.1212 -0.3438  1.8661
  438MOL0     H59119   3.683   0.748   6.954  0.2419 -2.7757  2.5866
  438MOL0     H59120   3.393   0.974   6.956  2.1802 -0.0700 -2.3380
  438MOL0     H59121   3.486   0.835   7.021  1.6711 -0.7608 -1.4531
  438MOL0     H59122   3.423   1.105   7.150 -1.5118  0.7672 -0.7830
  438MOL0     H59123   3.533   0.975   7.220  1.4620  0.6602 -2.4968
  438MOL0     H59124   3.349   0.823   7.199  0.4763  0.9396 -4.1464
  438MOL0     H59125   3.245   0.958   7.143  0.3757 -1.0428 -1.1906
  438MOL0     H59126   3.212   1.043   7.349 -0.9415 -0.7197  2.8197
  438MOL0     H59127   3.380   0.998   7.405 -0.8546 -1.3796  0.8821
  438MOL0     H59128   3.131   0.664   7.508 -0.4068  0.5280  1.4848
  438MOL0     H59129   3.753   1.140   7.111 -3.1225 -0.3315 -1.5071
  438MOL0     H59130   3.964   1.039   7.232  3.3639 -1.1187 -1.4675
  439MOL0     O59131   4.511   8.809   5.636 -0.3623 -0.3196 -0.0686
  439MOL0     C59132   4.397   8.795   5.601  0.0900  0.0520 -0.3491
  439MOL0     O59133   4.361   8.705   5.503 -0.4203 -0.0298  0.4441
  439MOL0     C59134   4.456   8.635   5.436 -1.3396  0.6673  0.3552
  439MOL0     C59135   4.423   8.629   5.299 -0.4460 -0.5671 -0.3003
  439MOL0     C59136   4.506   8.558   5.216  0.7314  0.6105 -0.5648
  439MOL0     C59137   4.623   8.499   5.263  0.3096  0.4177 -0.4997
  439MOL0     O59138   4.699   8.431   5.179  0.2542 -0.0321 -0.2382
  439MOL0     C59139   4.736   8.294   5.215  0.1651  0.2045  0.1269
  439MOL0     C59140   4.836   8.250   5.107 -0.0240 -0.3070  0.4374
  439MOL0     C59141   4.839   8.091   5.117 -1.1634  0.0009  0.1842
  439MOL0     C59142   4.929   8.039   5.006 -0.1876 -0.0084 -0.0207
  439MOL0     C59143   5.006   7.916   5.056  1.3576 -0.3972  0.3917
  439MOL0     C59144   5.027   7.802   4.959 -0.5548  0.5513 -0.5891
  439MOL0     C59145   5.115   7.847   4.838  0.4390 -0.1529 -0.1877
  439MOL0     C59146   5.132   7.735   4.736 -1.0161  0.1812 -0.4114
  439MOL0     N59147   5.023   7.710   4.638 -0.2955 -0.8471  0.1359
  439MOL0     C59148   4.914   7.630   4.662  0.4975 -0.2227 -0.0661
  439MOL0     C59149   4.834   7.653   4.560  0.3052  0.0765 -0.1597
  439MOL0     C59150   4.690   7.602   4.558  0.7008 -2.0358 -0.3404
  439MOL0     C59151   4.673   7.450   4.572 -1.0139 -0.2485  0.0542
  439MOL0     C59152   4.530   7.390   4.588  0.3232 -0.2486  0.3961
  439MOL0     C59153   4.442   7.408   4.457 -1.1828 -0.0144 -0.5353
  439MOL0     O59154   4.321   7.340   4.463  0.1893  1.6711  0.2603
  439MOL0     C59155   4.304   7.226   4.386 -0.5815 -0.0183 -0.0780
  439MOL0     C59156   4.174   7.215   4.342 -0.7724  0.7234  0.2571
  439MOL0     C59157   4.142   7.109   4.257 -0.9959 -0.4546  0.2496
  439MOL0     C59158   3.997   7.095   4.233  0.5598 -0.3109  0.3642
  439MOL0     C59159   4.239   7.028   4.202 -0.3535  0.8760 -0.3661
  439MOL0     C59160   4.219   6.914   4.108  0.0681 -0.1956 -0.2142
  439MOL0     O59161   4.309   6.809   4.116 -0.4690 -0.9341 -0.1500
  439MOL0     C59162   4.280   6.697   4.042  0.1916  0.4383 -0.0569
  439MOL0     C59163   4.221   6.586   4.113  0.0741  0.0108 -0.0641
  439MOL0     C59164   4.201   6.467   4.036 -0.2203 -0.0811 -0.0560
  439MOL0     C59165   4.228   6.459   3.899 -0.2174 -0.2315  0.5369
  439MOL0     O59166   4.213   6.355   3.820  0.0221  1.4672 -0.2220
  439MOL0     C59167   4.135   6.236   3.867 -0.4851  0.6388 -0.1171
  439MOL0     C59168   4.120   6.128   3.756 -0.3366  0.1953 -0.2004
  439MOL0     C59169   4.005   6.034   3.789 -0.6047  0.0032  0.7820
  439MOL0     C59170   4.021   5.962   3.921 -0.4624  0.5522 -0.3460
  439MOL0     C59171   3.896   5.869   3.943 -0.3678 -0.4241  0.9699
  439MOL0     C59172   3.881   5.811   4.082 -0.3985 -0.0100  0.1611
  439MOL0     C59173   3.802   5.679   4.090  0.3596  0.3367  1.2942
  439MOL0     C59174   3.827   5.609   4.222 -0.0704  0.0197  0.1807
  439MOL0    Cl59175   3.751   5.734   4.340  0.2390  0.2075  0.0841
  439MOL0     C59176   4.275   6.573   3.832 -0.0626 -0.2634  0.6316
  439MOL0     C59177   4.307   6.687   3.906  0.6989 -0.0997  0.0884
  439MOL0     O59178   4.137   6.929   4.022  0.9048 -0.7014 -0.0347
  439MOL0     C59179   4.374   7.043   4.253  0.5349  0.0130  1.0319
  439MOL0     C59180   4.408   7.140   4.352  0.3576  0.0557  0.5618
  439MOL0     N59181   4.898   7.728   4.462 -0.2195  0.4002  0.5169
  439MOL0     N59182   5.014   7.759   4.517 -0.8286  0.4764 -0.1229
  439MOL0     C59183   4.655   8.503   5.402 -0.0236  1.0021  0.7279
  439MOL0     C59184   4.569   8.573   5.491 -0.1866 -0.2503  0.3061
  439MOL0     C59185   4.295   8.881   5.654  1.0371  0.1836 -0.8166
  439MOL0     C59186   4.317   8.985   5.750 -0.9345  1.4643  0.1309
  439MOL0     C59187   4.209   9.065   5.798 -0.0867  0.4897  0.7751
  439MOL0     C59188   4.074   9.047   5.751  0.1068 -0.1239  0.2562
  439MOL0     O59189   3.973   9.113   5.813  0.1480  0.6021 -0.4708
  439MOL0     C59190   3.843   9.100   5.765  0.5830 -0.6139 -0.5886
  439MOL0     C59191   3.760   9.229   5.792  0.4952 -0.4301 -0.2050
  439MOL0     C59192   3.717   9.212   5.939  0.6392  0.4139 -0.2983
  439MOL0     C59193   3.625   9.329   5.964  0.0661  0.1203  0.0726
  439MOL0     C59194   3.566   9.304   6.099 -0.6387  0.2420 -1.0728
  439MOL0     C59195   3.515   9.282   6.204 -0.0637 -0.1545  0.6100
  439MOL0     C59196   4.054   8.949   5.656 -0.0600  0.3480  0.4542
  439MOL0     C59197   4.161   8.879   5.601 -0.1857 -0.1158  0.8034
  439MOL0     H59198   4.330   8.676   5.267 -1.1024 -2.3857 -1.1872
  439MOL0     H59199   4.488   8.550   5.110 -2.0487  0.2386 -0.1363
  439MOL0     H59200   4.773   8.270   5.315 -0.5530 -4.3801 -0.5084
  439MOL0     H59201   4.643   8.237   5.212 -0.8604  1.3981  3.5592
  439MOL0     H59202   4.791   8.280   5.012 -3.0046  2.2420  2.4309
  439MOL0     H59203   4.931   8.302   5.119 -0.8910  1.7910 -1.1822
  439MOL0     H59204   4.870   8.055   5.216 -2.5863 -0.2678  0.5583
  439MOL0     H59205   4.739   8.048   5.106 -0.5907 -0.9666 -1.6669
  439MOL0     H59206   4.863   8.003   4.926  1.2053 -2.8799 -0.0335
  439MOL0     H59207   5.012   8.100   4.970 -0.9614  1.3395  0.4388
  439MOL0     H59208   5.092   7.965   5.103  1.8996  3.0708 -3.6126
  439MOL0     H59209   4.943   7.866   5.130  1.5974  0.5685  1.2749
  439MOL0     H59210   5.080   7.730   5.022 -0.4196  0.1299 -1.1761
  439MOL0     H59211   4.934   7.763   4.918  0.3169 -1.8059 -0.4976
  439MOL0     H59212   5.064   7.931   4.789  1.3956  0.6260  0.1057
  439MOL0     H59213   5.209   7.889   4.875  2.5801 -1.0369 -4.1507
  439MOL0     H59214   5.141   7.646   4.799  0.5055 -1.1347 -2.3554
  439MOL0     H59215   5.223   7.762   4.681 -1.0116  0.2221 -0.3836
  439MOL0     H59216   4.880   7.583   4.753  4.4201 -2.1688  0.6042
  439MOL0     H59217   4.640   7.650   4.642  1.6071 -0.8663 -0.4494
  439MOL0     H59218   4.635   7.625   4.467 -0.2483  0.6294  0.8025
  439MOL0     H59219   4.732   7.417   4.658 -2.2266  0.5776  1.2475
  439MOL0     H59220   4.718   7.402   4.484  0.3525 -1.1403  1.1935
  439MOL0     H59221   4.474   7.439   4.669 -1.7932  0.2565 -1.2777
  439MOL0     H59222   4.528   7.284   4.611 -3.5737 -0.1171  1.3400
  439MOL0     H59223   4.500   7.381   4.368  1.3092  0.8506  0.7252
  439MOL0     H59224   4.415   7.514   4.459 -3.8047 -0.6013  1.5335
  439MOL0     H59225   4.092   7.277   4.374 -1.4688 -1.9593  4.5438
  439MOL0     H59226   3.967   6.990   4.227  1.3284 -0.5087 -0.2376
  439MOL0     H59227   3.935   7.132   4.315 -0.3875  2.3122 -1.3636
  439MOL0     H59228   3.970   7.135   4.134 -3.8491 -0.9804  1.1060
  439MOL0     H59229   4.185   6.597   4.215  1.8216  1.5112  0.4542
  439MOL0     H59230   4.148   6.380   4.074 -1.2420  1.9439  3.6339
  439MOL0     H59231   4.191   6.189   3.949 -0.4542 -0.4697 -0.7582
  439MOL0     H59232   4.033   6.262   3.896 -0.5619  0.1057  0.1115
  439MOL0     H59233   4.101   6.185   3.665  0.8795  1.9247  0.5643
  439MOL0     H59234   4.212   6.073   3.736 -0.3460 -0.1244  0.5771
  439MOL0     H59235   4.004   5.956   3.714  0.2890  1.7166 -1.1068
  439MOL0     H59236   3.911   6.088   3.774  0.7919  1.5639 -4.6457
  439MOL0     H59237   4.116   5.907   3.921 -0.8030 -0.0676  0.6919
  439MOL0     H59238   4.031   6.037   4.000  0.7708 -0.4345  0.4747
  439MOL0     H59239   3.897   5.788   3.871  1.7502  0.1063  0.3436
  439MOL0     H59240   3.802   5.923   3.924 -0.4505 -1.5451 -2.2466
  439MOL0     H59241   3.982   5.789   4.118 -1.0537  0.6256  2.5513
  439MOL0     H59242   3.838   5.891   4.142  0.6898  2.3494 -2.0282
  439MOL0     H59243   3.833   5.620   4.004 -3.4880  0.9511 -0.7669
  439MOL0     H59244   3.696   5.704   4.075  0.6838  1.9909  1.5814
  439MOL0     H59245   3.933   5.593   4.244 -0.1160  0.0507  0.4268
  439MOL0     H59246   3.771   5.518   4.247 -1.1738  1.6663  4.5627
  439MOL0     H59247   4.298   6.565   3.727 -1.8708 -1.9350  0.3096
  439MOL0     H59248   4.359   6.772   3.864 -0.5554  1.1152  0.9052
  439MOL0     H59249   4.460   6.988   4.216  2.2401  2.6485  0.8060
  439MOL0     H59250   4.510   7.148   4.389  0.3851  1.6605  0.1840
  439MOL0     H59251   4.750   8.454   5.418  0.0021 -0.3218 -2.7205
  439MOL0     H59252   4.616   8.579   5.588 -0.3483  2.4159  0.2746
  439MOL0     H59253   4.417   9.020   5.776  0.0814 -0.6508 -0.6689
  439MOL0     H59254   4.223   9.144   5.870 -3.1876  2.5685 -0.6739
  439MOL0     H59255   3.844   9.086   5.656  1.1988 -1.2393 -0.5109
  439MOL0     H59256   3.793   9.012   5.808 -1.0153  1.1190  1.2851
  439MOL0     H59257   3.668   9.237   5.734 -0.3179  1.8580  1.2245
  439MOL0     H59258   3.809   9.323   5.765  1.0499 -0.6253  0.1191
  439MOL0     H59259   3.798   9.227   6.011 -1.6163 -1.3143  2.8211
  439MOL0     H59260   3.666   9.117   5.956  2.2866 -0.6683 -1.0531
  439MOL0     H59261   3.545   9.332   5.889 -1.8585 -0.2155  1.9893
  439MOL0     H59262   3.677   9.424   5.979 -0.1466  0.6884 -2.3142
  439MOL0     H59263   3.471   9.281   6.302  0.5173 -1.9469  0.8811
  439MOL0     H59264   3.956   8.913   5.626  0.1094  0.1966  0.0808
  439MOL0     H59265   4.148   8.797   5.531  1.3983 -0.7605  1.2123
  440MOL0     O59266   7.980   6.454   7.552  0.0108  0.2281  0.4538
  440MOL0     C59267   8.033   6.379   7.629 -0.1553 -0.9185 -1.0120
  440MOL0     O59268   7.972   6.277   7.690  0.1169 -0.0144  0.1795
  440MOL0     C59269   7.851   6.233   7.661  0.1624  1.3361 -0.0990
  440MOL0     C59270   7.829   6.098   7.633  0.2421 -0.5201  0.4899
  440MOL0     C59271   7.707   6.056   7.583  0.5968  0.0357  0.2997
  440MOL0     C59272   7.601   6.138   7.558  0.5384 -0.1131 -0.2588
  440MOL0     O59273   7.472   6.108   7.513 -0.4366 -0.0892 -0.3602
  440MOL0     C59274   7.453   5.981   7.455 -0.5477  0.3835  0.4341
  440MOL0     C59275   7.311   5.956   7.398 -0.1922 -0.0399 -1.3819
  440MOL0     C59276   7.287   6.043   7.273  0.7338  0.0433  0.4887
  440MOL0     C59277   7.163   5.993   7.190 -0.4394 -0.4788 -0.2523
  440MOL0     C59278   7.123   6.097   7.080 -0.7499 -0.0953 -0.5697
  440MOL0     C59279   7.214   6.078   6.955  0.6453  0.2321 -0.1951
  440MOL0     C59280   7.206   6.194   6.859  0.0437 -0.7918 -0.4569
  440MOL0     C59281   7.292   6.319   6.892  0.3525  0.5638 -0.0469
  440MOL0     N59282   7.259   6.442   6.825  0.0235 -1.3252 -0.2061
  440MOL0     C59283   7.258   6.470   6.690 -0.2932  1.0055 -0.8914
  440MOL0     C59284   7.191   6.580   6.685 -0.1798 -0.2325 -0.0560
  440MOL0     C59285   7.135   6.642   6.556 -0.1623 -0.3105 -0.2605
  440MOL0     C59286   7.146   6.561   6.429  1.2696  0.2914  1.6665
  440MOL0     C59287   7.067   6.613   6.311  0.5200 -0.6584  0.3470
  440MOL0     C59288   7.084   6.540   6.173 -0.0179 -0.0630 -0.6789
  440MOL0     O59289   7.050   6.409   6.181  0.0395  0.0572 -0.9356
  440MOL0     C59290   6.917   6.361   6.182 -0.9378  0.2883  0.1114
  440MOL0     C59291   6.897   6.228   6.188  0.9847  0.1638  0.3260
  440MOL0     C59292   6.759   6.175   6.198 -0.2869 -0.2949 -0.0270
  440MOL0     C59293   6.744   6.028   6.191  0.1738  0.4966 -0.9659
  440MOL0     C59294   6.651   6.262   6.219  0.1690 -0.0717 -1.2054
  440MOL0     C59295   6.517   6.225   6.244 -0.2554 -0.3412  0.1255
  440MOL0     O59296   6.421   6.271   6.158  0.4356 -0.0455  0.3888
  440MOL0     C59297   6.295   6.233   6.186 -0.1300  0.1034  0.2124
  440MOL0     C59298   6.207   6.328   6.243  0.0244  0.1289  0.9257
  440MOL0     C59299   6.074   6.305   6.256  0.4512  0.5393 -0.2280
  440MOL0     C59300   6.023   6.182   6.206 -1.0776  0.4140 -0.3094
  440MOL0     O59301   5.888   6.136   6.219  0.5863  0.0361 -0.9309
  440MOL0     C59302   5.802   6.244   6.172 -0.2524  0.8554 -0.2583
  440MOL0     C59303   5.671   6.200   6.119  0.5418  0.2442 -0.0937
  440MOL0     C59304   5.575   6.146   6.226 -1.0308 -0.8796  0.0734
  440MOL0     C59305   5.450   6.096   6.148  0.9406 -0.1871  0.1043
  440MOL0     C59306   5.316   6.163   6.200 -1.0746 -0.0921 -0.2170
  440MOL0     C59307   5.186   6.096   6.149  0.3834 -1.0680  0.2661
  440MOL0     C59308   5.071   6.169   6.221 -0.5887 -0.2384  0.3694
  440MOL0     C59309   4.948   6.104   6.170  0.4106 -0.4273  0.5404
  440MOL0    Cl59310   4.803   6.158   6.271 -0.1722 -0.3145  0.0761
  440MOL0     C59311   6.104   6.093   6.141  0.2621  0.3653 -0.6638
  440MOL0     C59312   6.240   6.108   6.138 -0.5556 -0.0683  0.6872
  440MOL0     O59313   6.491   6.146   6.334  0.8726 -0.0259 -0.1441
  440MOL0     C59314   6.674   6.397   6.200  0.7725  0.3147  0.0341
  440MOL0     C59315   6.800   6.440   6.177 -0.0836 -0.3289  0.3157
  440MOL0     N59316   7.160   6.623   6.814  0.7316 -1.3889 -0.0286
  440MOL0     N59317   7.197   6.542   6.903 -0.3242  0.7262 -0.2129
  440MOL0     C59318   7.621   6.276   7.583 -0.1873 -0.6586 -1.0998
  440MOL0     C59319   7.745   6.321   7.642 -0.1589  0.2978 -1.4300
  440MOL0     C59320   8.164   6.413   7.677 -0.3525  0.3205  0.4098
  440MOL0     C59321   8.244   6.320   7.746 -0.0750 -0.1271  0.3036
  440MOL0     C59322   8.375   6.355   7.783  0.0765 -0.5650  0.3234
  440MOL0     C59323   8.436   6.484   7.770 -0.3458  0.2608 -0.2098
  440MOL0     O59324   8.568   6.498   7.818  0.2282  0.3250  0.0915
  440MOL0     C59325   8.619   6.632   7.821 -0.2848 -0.8769  0.4853
  440MOL0     C59326   8.543   6.732   7.917  0.9627  0.3738 -0.1318
  440MOL0     C59327   8.590   6.709   8.062  0.2944 -0.2389  0.5300
  440MOL0     C59328   8.547   6.819   8.159  0.4882  0.5667 -0.0708
  440MOL0     C59329   8.409   6.869   8.146 -0.0970  0.4849  0.2839
  440MOL0     C59330   8.293   6.918   8.140 -0.0871  0.3321  0.5517
  440MOL0     C59331   8.352   6.581   7.703  0.9078 -0.2685  0.0235
  440MOL0     C59332   8.216   6.546   7.666  0.6693 -0.2964 -0.5997
  440MOL0     H59333   7.910   6.026   7.622  0.0625 -0.6014 -0.3922
  440MOL0     H59334   7.704   5.959   7.535 -1.4567  1.6456 -3.2437
  440MOL0     H59335   7.529   5.963   7.378  1.7278 -0.0106  2.6338
  440MOL0     H59336   7.485   5.921   7.541  2.1847 -0.0335 -0.7599
  440MOL0     H59337   7.304   5.849   7.378 -0.7105  0.4859 -4.5301
  440MOL0     H59338   7.227   5.972   7.467  1.7744 -2.8440  2.0178
  440MOL0     H59339   7.274   6.148   7.301 -1.0403 -0.2911  1.0696
  440MOL0     H59340   7.366   6.034   7.198  0.4480  4.1231 -0.5060
  440MOL0     H59341   7.164   5.894   7.142 -0.2093  0.1640 -1.6322
  440MOL0     H59342   7.078   5.994   7.259  0.3876  1.3436  0.7921
  440MOL0     H59343   7.019   6.093   7.047 -0.7158  0.7719 -0.8189
  440MOL0     H59344   7.131   6.193   7.132 -0.1555  0.8194 -2.2772
  440MOL0     H59345   7.319   6.071   6.985  0.5983  2.2939  0.6258
  440MOL0     H59346   7.172   5.989   6.908 -0.1650 -0.1553  1.2039
  440MOL0     H59347   7.247   6.159   6.764  1.9727 -0.3274  0.1727
  440MOL0     H59348   7.100   6.223   6.853  0.1027 -0.0503  1.5506
  440MOL0     H59349   7.393   6.284   6.872 -0.2144 -1.4750  0.4106
  440MOL0     H59350   7.283   6.345   6.998 -2.0877  0.3213 -0.1281
  440MOL0     H59351   7.288   6.406   6.608  1.2334  0.4624  0.0332
  440MOL0     H59352   7.028   6.651   6.579 -0.9124 -1.4374 -2.9177
  440MOL0     H59353   7.175   6.741   6.533  1.1024 -0.8882 -0.6383
  440MOL0     H59354   7.108   6.460   6.449  0.2783  0.4634  0.7444
  440MOL0     H59355   7.251   6.548   6.401  1.5248  1.7510  1.8641
  440MOL0     H59356   7.098   6.717   6.296  2.7414 -1.1799  0.9880
  440MOL0     H59357   6.963   6.605   6.344  0.3352  2.0067  0.6332
  440MOL0     H59358   7.186   6.561   6.139 -0.0548  1.7395  0.1998
  440MOL0     H59359   7.020   6.587   6.098  0.2558  1.3857 -0.0356
  440MOL0     H59360   6.985   6.166   6.174  1.1254  0.7141 -1.4144
  440MOL0     H59361   6.672   6.004   6.112  0.0794  0.1726 -0.7811
  440MOL0     H59362   6.842   5.988   6.163  0.2654 -0.0306  0.0793
  440MOL0     H59363   6.711   5.978   6.282  2.2545 -4.0412 -2.4080
  440MOL0     H59364   6.244   6.430   6.253  0.4273  0.1302 -0.4265
  440MOL0     H59365   6.004   6.376   6.299  3.3405  3.1203  0.5701
  440MOL0     H59366   5.785   6.309   6.258 -0.4671  0.3571  0.0786
  440MOL0     H59367   5.849   6.311   6.099  0.1312  3.5110  2.2251
  440MOL0     H59368   5.634   6.290   6.069  1.5346  0.3498 -0.6777
  440MOL0     H59369   5.686   6.125   6.040 -0.3458  0.4609 -0.4819
  440MOL0     H59370   5.545   6.218   6.302  0.6681 -0.8060  0.7239
  440MOL0     H59371   5.618   6.059   6.275  0.3773 -0.5912 -0.5987
  440MOL0     H59372   5.455   6.128   6.044 -2.9329 -1.0254 -0.5177
  440MOL0     H59373   5.442   5.987   6.142 -0.2401 -0.0929 -0.3638
  440MOL0     H59374   5.320   6.271   6.182  1.0634  0.7832  4.0726
  440MOL0     H59375   5.315   6.141   6.307  0.2553 -1.6096 -0.4680
  440MOL0     H59376   5.179   6.109   6.041  1.9823  4.8753  0.5625
  440MOL0     H59377   5.189   5.992   6.184 -1.2762 -0.0573  3.9039
  440MOL0     H59378   5.079   6.274   6.191  0.2501 -1.2574 -3.4694
  440MOL0     H59379   5.083   6.156   6.329 -0.4466  0.0041  0.3835
  440MOL0     H59380   4.964   5.996   6.168 -3.7217 -1.1726 -0.2333
  440MOL0     H59381   4.936   6.149   6.071  0.3578 -0.6629  0.4404
  440MOL0     H59382   6.057   6.004   6.099 -0.3267  0.2224  0.2586
  440MOL0     H59383   6.302   6.038   6.082 -2.3979 -0.9942 -0.3042
  440MOL0     H59384   6.600   6.476   6.197 -1.5431 -1.5678  2.5241
  440MOL0     H59385   6.801   6.548   6.166 -1.3038 -0.5764 -4.1152
  440MOL0     H59386   7.545   6.351   7.563 -0.4579  0.1783  2.3806
  440MOL0     H59387   7.760   6.427   7.656 -3.7652  0.8317 -0.7147
  440MOL0     H59388   8.209   6.220   7.766  1.4679 -1.3552 -2.5396
  440MOL0     H59389   8.442   6.279   7.820 -0.0027 -1.5525 -1.4538
  440MOL0     H59390   8.727   6.632   7.840  0.2935 -0.3081 -2.3537
  440MOL0     H59391   8.609   6.663   7.717  0.9314 -1.3040  0.2226
  440MOL0     H59392   8.434   6.725   7.907  0.9829  0.8926 -0.7683
  440MOL0     H59393   8.566   6.835   7.891 -1.6375  1.2727  0.7570
  440MOL0     H59394   8.699   6.701   8.068  0.5538  1.8216 -0.5103
  440MOL0     H59395   8.549   6.616   8.102 -2.1208 -1.4461 -4.0574
  440MOL0     H59396   8.612   6.903   8.130 -0.7093  1.5499  0.0028
  440MOL0     H59397   8.573   6.787   8.260  4.4550  4.1599  0.3253
  440MOL0     H59398   8.194   6.952   8.119 -0.2702 -0.0363  0.8177
  440MOL0     H59399   8.393   6.680   7.682 -2.0044  0.8086 -1.0886
  440MOL0     H59400   8.146   6.622   7.634  2.1050  2.7209  2.6825
  441MOL0     O59401   0.163   5.546   8.450 -1.0275 -0.0694  0.3029
  441MOL0     C59402   0.187   5.441   8.502  0.8013  0.5672 -0.3258
  441MOL0     O59403   0.099   5.362   8.575 -0.2861 -0.8017  0.0876
  441MOL0     C59404  -0.039   5.378   8.558 -0.7812  0.3180  0.9005
  441MOL0     C59405  -0.123   5.363   8.660  0.5044  0.9042 -0.7556
  441MOL0     C59406  -0.263   5.373   8.644 -0.0480 -0.1371 -0.0336
  441MOL0     C59407  -0.320   5.395   8.523 -0.1301 -0.8162 -0.0483
  441MOL0     O59408  -0.450   5.421   8.502 -0.1743  0.2278  0.1307
  441MOL0     C59409  -0.553   5.344   8.565 -0.0353 -0.2106 -0.6628
  441MOL0     C59410  -0.553   5.205   8.505  0.7885 -0.9212  0.0084
  441MOL0     C59411  -0.633   5.205   8.373 -0.2237  0.2799 -0.1859
  441MOL0     C59412  -0.781   5.253   8.377 -0.7149 -0.1293  0.5098
  441MOL0     C59413  -0.842   5.240   8.235  0.7100 -0.7748 -0.4284
  441MOL0     C59414  -0.798   5.351   8.129  0.4304  0.0369  0.7528
  441MOL0     C59415  -0.899   5.350   7.998 -1.0685 -0.6578  0.0793
  441MOL0     C59416  -0.890   5.474   7.905  0.4171  0.3459 -0.2522
  441MOL0     N59417  -1.012   5.481   7.824 -0.5440 -0.4275 -0.2006
  441MOL0     C59418  -1.131   5.527   7.869  1.2506 -0.0614  0.4360
  441MOL0     C59419  -1.218   5.509   7.764 -0.3652  1.0806 -0.0396
  441MOL0     C59420  -1.375   5.528   7.756 -0.5420 -0.1830 -0.6286
  441MOL0     C59421  -1.417   5.640   7.848  0.6441 -0.3081 -0.6804
  441MOL0     C59422  -1.568   5.670   7.846  0.0797 -0.5844 -0.0293
  441MOL0     C59423  -1.586   5.808   7.890  0.1227 -1.0745  0.1032
  441MOL0     O59424  -1.551   5.802   8.026  0.0738 -0.3964  0.0694
  441MOL0     C59425  -1.625   5.896   8.097 -0.7112  0.4128 -0.1352
  441MOL0     C59426  -1.565   6.022   8.135  0.0014 -0.2260  0.4295
  441MOL0     C59427  -1.634   6.103   8.221  0.8700  0.2767  0.8551
  441MOL0     C59428  -1.549   6.211   8.282  0.0365  0.4493  0.5813
  441MOL0     C59429  -1.770   6.071   8.257  0.1879 -0.6602  0.4224
  441MOL0     C59430  -1.855   6.143   8.365  0.5768 -0.6248  0.6843
  441MOL0     O59431  -1.942   6.071   8.443  0.1245  0.5829 -0.1520
  441MOL0     C59432  -2.053   6.134   8.493 -0.7355 -0.0197 -0.2615
  441MOL0     C59433  -2.047   6.200   8.618 -0.2276  0.0377 -0.1678
  441MOL0     C59434  -2.158   6.253   8.680 -0.7442  0.6767 -0.2105
  441MOL0     C59435  -2.286   6.234   8.620 -0.2268  0.6538  0.7919
  441MOL0     O59436  -2.403   6.256   8.685 -0.3575 -0.0633  0.2201
  441MOL0     C59437  -2.406   6.328   8.810 -0.4018 -0.3601  0.2501
  441MOL0     C59438  -2.550   6.328   8.854  0.4038  0.0051 -0.0045
  441MOL0     C59439  -2.643   6.406   8.756 -0.1485 -0.7569  0.4657
  441MOL0     C59440  -2.642   6.552   8.792  0.1960  0.1289  0.3618
  441MOL0     C59441  -2.770   6.629   8.753 -0.3027 -0.2012  0.0821
  441MOL0     C59442  -2.805   6.629   8.611 -0.9808  0.5927  0.2075
  441MOL0     C59443  -2.901   6.733   8.567 -0.5586 -0.6453  0.3063
  441MOL0     C59444  -3.038   6.676   8.538 -0.1099  0.3983 -0.2911
  441MOL0    Cl59445  -3.047   6.618   8.372  0.1971  0.2832  0.2161
  441MOL0     C59446  -2.298   6.167   8.499  0.0649  0.2668  0.3028
  441MOL0     C59447  -2.179   6.115   8.445 -0.1106  0.4193 -0.5794
  441MOL0     O59448  -1.856   6.265   8.348 -0.2415  0.3571 -0.3998
  441MOL0     C59449  -1.827   5.946   8.214  0.6822  0.4239 -0.6211
  441MOL0     C59450  -1.745   5.856   8.148  0.1575 -0.5336  0.1875
  441MOL0     N59451  -1.149   5.447   7.655 -0.1160 -0.2110 -0.0670
  441MOL0     N59452  -1.023   5.452   7.694  0.5039  0.3479  0.4226
  441MOL0     C59453  -0.231   5.405   8.416 -0.3832 -0.4501 -0.4179
  441MOL0     C59454  -0.093   5.402   8.432 -1.0815  0.0785  0.7550
  441MOL0     C59455   0.327   5.397   8.511  0.7165  0.5232 -0.4642
  441MOL0     C59456   0.425   5.497   8.505 -0.0677 -1.0662  0.2257
  441MOL0     C59457   0.559   5.472   8.525 -0.3278  0.6614 -0.6340
  441MOL0     C59458   0.596   5.336   8.543 -0.4394 -0.2788 -0.5928
  441MOL0     O59459   0.730   5.314   8.573  0.0071  0.5954  0.4562
  441MOL0     C59460   0.792   5.173   8.565  0.2999 -0.3501 -1.5819
  441MOL0     C59461   0.797   5.125   8.428  0.1217  0.3180  0.5851
  441MOL0     C59462   0.907   5.016   8.414  0.0896 -0.5061 -0.4451
  441MOL0     C59463   1.051   5.072   8.404  0.3538 -0.2033 -0.7857
  441MOL0     C59464   1.107   5.101   8.538  0.8316  0.1054  0.6402
  441MOL0     C59465   1.161   5.107   8.647  0.6981 -1.1501 -0.4997
  441MOL0     C59466   0.504   5.230   8.533  0.4017  0.5832  0.3949
  441MOL0     C59467   0.363   5.264   8.523 -0.2321  0.1637 -1.0300
  441MOL0     H59468  -0.088   5.318   8.752  0.0206 -0.0630 -1.0313
  441MOL0     H59469  -0.339   5.353   8.719  0.9334 -0.8082  0.8164
  441MOL0     H59470  -0.540   5.330   8.673  2.1660  3.2687 -0.3511
  441MOL0     H59471  -0.649   5.396   8.551 -0.1860 -0.7216 -1.6711
  441MOL0     H59472  -0.452   5.162   8.502  1.5592  0.2233  3.9203
  441MOL0     H59473  -0.600   5.143   8.583  0.8082 -1.7502 -0.6234
  441MOL0     H59474  -0.570   5.249   8.295  1.5141  0.5244  1.2683
  441MOL0     H59475  -0.635   5.098   8.350 -0.5870  0.3427 -0.4447
  441MOL0     H59476  -0.853   5.206   8.444 -1.9326  0.9351 -0.0037
  441MOL0     H59477  -0.776   5.359   8.405  1.3481 -0.2958  0.9213
  441MOL0     H59478  -0.818   5.140   8.197  1.7084 -1.6506  2.2552
  441MOL0     H59479  -0.951   5.243   8.244  0.6562 -0.2189 -1.2460
  441MOL0     H59480  -0.808   5.446   8.182 -0.0291  0.9426 -0.9072
  441MOL0     H59481  -0.693   5.334   8.106  0.1021 -1.0154 -0.0427
  441MOL0     H59482  -0.888   5.264   7.932 -1.0967  1.6300 -3.1518
  441MOL0     H59483  -0.999   5.340   8.041 -0.5776 -0.2184  1.3927
  441MOL0     H59484  -0.802   5.467   7.840  0.2137  1.5378 -0.6805
  441MOL0     H59485  -0.876   5.566   7.963 -0.6414  0.7564 -0.6253
  441MOL0     H59486  -1.156   5.564   7.968 -3.4628 -2.0166  0.2207
  441MOL0     H59487  -1.397   5.533   7.649  1.8770 -2.8838 -1.4007
  441MOL0     H59488  -1.425   5.440   7.798  0.0399 -0.3213 -0.2033
  441MOL0     H59489  -1.352   5.719   7.810  2.1042 -2.2221 -2.4135
  441MOL0     H59490  -1.397   5.617   7.953  0.0199 -1.6620 -0.8384
  441MOL0     H59491  -1.625   5.594   7.900  2.9912 -1.9219  1.4234
  441MOL0     H59492  -1.609   5.661   7.745 -1.0172 -1.0528  0.4386
  441MOL0     H59493  -1.692   5.830   7.876  0.5051  0.1898 -1.1067
  441MOL0     H59494  -1.529   5.880   7.831  0.2487 -2.5247 -1.6262
  441MOL0     H59495  -1.465   6.042   8.099 -0.7100  1.8030 -0.5486
  441MOL0     H59496  -1.449   6.167   8.274 -1.3804 -3.3647  1.7307
  441MOL0     H59497  -1.552   6.311   8.238  0.3146  0.0878 -0.2795
  441MOL0     H59498  -1.575   6.211   8.389 -0.0665 -0.6398  0.5671
  441MOL0     H59499  -1.946   6.211   8.657  0.3722 -0.5596 -1.5095
  441MOL0     H59500  -2.145   6.300   8.777  0.1423 -2.3607  1.2933
  441MOL0     H59501  -2.353   6.271   8.887  0.4438 -1.2789 -0.9848
  441MOL0     H59502  -2.377   6.433   8.806 -3.2289  0.5040  0.1734
  441MOL0     H59503  -2.592   6.229   8.869  0.5688 -0.0193  0.3123
  441MOL0     H59504  -2.555   6.372   8.954  0.5838 -2.2177  1.0261
  441MOL0     H59505  -2.743   6.362   8.757 -0.5089  0.0448  0.6295
  441MOL0     H59506  -2.610   6.401   8.652 -0.5644  1.8781  0.1398
  441MOL0     H59507  -2.620   6.570   8.897  2.2897 -0.8557  0.1360
  441MOL0     H59508  -2.552   6.591   8.743  0.2072  1.0276  1.0680
  441MOL0     H59509  -2.761   6.730   8.796  0.9202 -0.1731 -0.1962
  441MOL0     H59510  -2.859   6.587   8.799  0.2114 -0.9558  0.4099
  441MOL0     H59511  -2.712   6.639   8.555 -2.1199 -2.0950 -2.4997
  441MOL0     H59512  -2.838   6.532   8.572  1.8735  0.0430 -1.0695
  441MOL0     H59513  -2.870   6.788   8.478 -0.7462  1.3274  1.3956
  441MOL0     H59514  -2.912   6.813   8.642  1.4354 -1.2800  1.3542
  441MOL0     H59515  -3.113   6.755   8.542 -0.9303 -0.3002 -1.3934
  441MOL0     H59516  -3.059   6.593   8.607  1.2160 -0.6893 -1.1250
  441MOL0     H59517  -2.386   6.138   8.444 -1.6973  2.9831  1.4830
  441MOL0     H59518  -2.179   6.052   8.357  1.5417 -0.6122  0.1129
  441MOL0     H59519  -1.926   5.918   8.248  0.6953  0.7030 -0.3523
  441MOL0     H59520  -1.789   5.761   8.119 -0.4605  0.0544 -0.8680
  441MOL0     H59521  -0.268   5.421   8.315  1.8872  1.0172 -1.0894
  441MOL0     H59522  -0.039   5.426   8.341  0.6398  1.6670  2.1087
  441MOL0     H59523   0.400   5.602   8.491  0.0878 -0.6775  2.4941
  441MOL0     H59524   0.617   5.563   8.541 -1.1480  1.0439  0.2601
  441MOL0     H59525   0.884   5.169   8.625  0.6525  2.1113 -1.8289
  441MOL0     H59526   0.730   5.104   8.622  2.4181  1.2008  3.1111
  441MOL0     H59527   0.819   5.204   8.355 -0.2271 -1.4818 -1.5621
  441MOL0     H59528   0.701   5.083   8.399  0.2441 -1.8679  3.0517
  441MOL0     H59529   0.884   4.947   8.332  1.0065 -1.9088  0.4383
  441MOL0     H59530   0.918   4.951   8.502 -0.4838 -1.6453 -1.1823
  441MOL0     H59531   1.060   5.162   8.342  1.9046 -0.6518 -1.2723
  441MOL0     H59532   1.125   5.006   8.359  1.6527  1.6585 -1.5324
  441MOL0     H59533   1.190   5.109   8.750 -2.8721  0.5934  0.6263
  441MOL0     H59534   0.527   5.125   8.548 -4.7098 -0.8713  0.0190
  441MOL0     H59535   0.290   5.186   8.537  2.5847 -2.4406  0.3394
  442MOL0     O59536   4.601   3.921   8.559 -0.1070 -0.3631 -0.2250
  442MOL0     C59537   4.658   3.856   8.473  0.2052 -0.3013 -0.4904
  442MOL0     O59538   4.602   3.795   8.380  0.9392  0.1804  0.6428
  442MOL0     C59539   4.461   3.786   8.388  0.1491 -0.6323 -0.3356
  442MOL0     C59540   4.389   3.903   8.393 -0.9300  0.3383  0.5073
  442MOL0     C59541   4.244   3.893   8.385  0.4786 -0.1652 -0.5599
  442MOL0     C59542   4.183   3.766   8.366 -0.0418 -1.1158  0.0182
  442MOL0     O59543   4.044   3.749   8.356 -0.1528 -1.0637  0.7507
  442MOL0     C59544   4.005   3.793   8.229 -0.8745 -0.4101  0.3177
  442MOL0     C59545   3.849   3.795   8.223 -0.1166  0.1931  0.9032
  442MOL0     C59546   3.792   3.927   8.284 -0.1174  0.0752  0.2765
  442MOL0     C59547   3.632   3.916   8.301  0.3131  0.6917 -0.6645
  442MOL0     C59548   3.579   4.019   8.406  0.3384  0.1449  0.5174
  442MOL0     C59549   3.615   4.167   8.389  0.0923  0.2167 -0.3235
  442MOL0     C59550   3.586   4.223   8.248 -0.1142  1.0281 -0.1454
  442MOL0     C59551   3.654   4.359   8.229  0.7983 -0.6921 -0.1166
  442MOL0     N59552   3.634   4.397   8.095  0.2543  0.0200  0.1946
  442MOL0     C59553   3.533   4.387   8.007 -0.8623 -1.0951 -0.2199
  442MOL0     C59554   3.560   4.474   7.905 -0.3426  0.4808 -0.1836
  442MOL0     C59555   3.462   4.502   7.796  0.0734  0.8104 -1.7021
  442MOL0     C59556   3.412   4.634   7.827  0.0069 -0.0492  0.0696
  442MOL0     C59557   3.274   4.651   7.771 -0.4079 -0.5574  0.2885
  442MOL0     C59558   3.174   4.587   7.860  0.6460  0.4589 -0.2452
  442MOL0     O59559   3.049   4.597   7.793  0.2691 -0.1921 -0.1759
  442MOL0     C59560   2.944   4.531   7.856 -0.5611 -1.1229 -0.5443
  442MOL0     C59561   2.927   4.533   7.996  0.9950  1.3416 -0.5966
  442MOL0     C59562   2.823   4.457   8.048 -0.1493  0.4660 -0.5652
  442MOL0     C59563   2.805   4.464   8.199 -0.1404  0.0724  0.1876
  442MOL0     C59564   2.735   4.378   7.970 -0.2058 -0.0158 -0.2635
  442MOL0     C59565   2.621   4.295   8.022  0.2493  0.2723  0.0323
  442MOL0     O59566   2.577   4.191   7.939  0.0420 -0.5575 -0.2198
  442MOL0     C59567   2.475   4.112   7.998 -0.1191  0.5295  0.3398
  442MOL0     C59568   2.503   3.991   8.054 -0.3878  0.4067 -0.0141
  442MOL0     C59569   2.402   3.912   8.115 -0.5095 -1.6630  0.9037
  442MOL0     C59570   2.275   3.959   8.116  0.5808  0.3619  0.5733
  442MOL0     O59571   2.175   3.883   8.168 -0.6315  1.0710  0.7240
  442MOL0     C59572   2.141   3.769   8.091  0.9248 -0.2639  0.2266
  442MOL0     C59573   2.002   3.781   8.018 -0.3755 -0.3189  0.2698
  442MOL0     C59574   1.885   3.779   8.123 -0.8288 -0.8975 -0.6385
  442MOL0     C59575   1.866   3.644   8.193  0.0093  0.0798 -0.1952
  442MOL0     C59576   1.764   3.639   8.313  0.2553 -0.0825  0.0187
  442MOL0     C59577   1.621   3.633   8.281  0.1978  0.8815  0.2513
  442MOL0     C59578   1.561   3.486   8.308 -0.4213  0.3637  0.8201
  442MOL0     C59579   1.423   3.482   8.249 -0.0390  0.2609 -0.3822
  442MOL0    Cl59580   1.316   3.533   8.381  0.1876 -0.3311  0.1611
  442MOL0     C59581   2.241   4.086   8.052 -0.3345 -0.4889 -1.4012
  442MOL0     C59582   2.339   4.160   7.998  0.5668  0.1513  0.4195
  442MOL0     O59583   2.560   4.327   8.125 -0.2340 -0.2501 -0.4783
  442MOL0     C59584   2.748   4.402   7.836 -0.2020  0.7525  0.1201
  442MOL0     C59585   2.848   4.480   7.777 -0.6500  0.7173  0.7249
  442MOL0     N59586   3.690   4.517   7.920 -0.8167 -0.2050 -0.4887
  442MOL0     N59587   3.727   4.470   8.037 -0.7373  0.2414  0.3648
  442MOL0     C59588   4.254   3.649   8.377  0.1885 -0.4931 -0.0324
  442MOL0     C59589   4.393   3.665   8.380  0.0068  0.0770  1.2030
  442MOL0     C59590   4.807   3.856   8.471 -0.1088  0.3169 -0.0918
  442MOL0     C59591   4.878   3.766   8.392 -0.9028 -0.1419 -0.1875
  442MOL0     C59592   5.018   3.760   8.386  0.2787 -0.4620 -0.3738
  442MOL0     C59593   5.088   3.853   8.459  0.2135 -1.0392 -0.6876
  442MOL0     O59594   5.225   3.871   8.468  0.0187  1.0224  0.1354
  442MOL0     C59595   5.294   3.756   8.419 -0.4384  0.6980 -0.7197
  442MOL0     C59596   5.421   3.737   8.478  0.4275  0.4050 -0.7174
  442MOL0     C59597   5.526   3.832   8.416  0.1416 -0.5606  0.6354
  442MOL0     C59598   5.664   3.852   8.490  0.8793  0.1434 -0.2799
  442MOL0     C59599   5.712   3.731   8.562  1.2125  0.0601  0.2964
  442MOL0     C59600   5.757   3.631   8.617  0.3222 -0.1672  0.7004
  442MOL0     C59601   5.020   3.946   8.541  0.5510  0.4513 -0.1985
  442MOL0     C59602   4.887   3.943   8.545  0.4863 -0.2394 -0.7558
  442MOL0     H59603   4.429   4.004   8.391 -0.8970  0.3725  1.9903
  442MOL0     H59604   4.184   3.983   8.396  0.7841  0.0352 -0.5383
  442MOL0     H59605   4.041   3.892   8.201 -0.1985 -1.3869 -2.6679
  442MOL0     H59606   4.041   3.724   8.151  0.6548  0.8525 -0.1408
  442MOL0     H59607   3.802   3.785   8.125  1.1562 -0.8288  0.3643
  442MOL0     H59608   3.817   3.707   8.280 -2.2099  1.3212  1.5776
  442MOL0     H59609   3.836   3.937   8.384  1.3824 -1.4409 -0.1811
  442MOL0     H59610   3.819   4.013   8.223 -0.0837  0.8088  1.2934
  442MOL0     H59611   3.597   3.928   8.198  1.2554  1.0781 -0.9502
  442MOL0     H59612   3.600   3.816   8.334 -1.8373  0.2234 -3.7845
  442MOL0     H59613   3.470   4.017   8.400  0.4041 -0.4947 -0.8225
  442MOL0     H59614   3.616   3.985   8.503 -0.5810 -1.6175  0.3015
  442MOL0     H59615   3.560   4.216   8.471  0.9292  0.4891  0.0863
  442MOL0     H59616   3.720   4.184   8.412 -0.0765  0.9380 -0.0740
  442MOL0     H59617   3.631   4.154   8.176  2.7236  1.3377  1.2065
  442MOL0     H59618   3.479   4.224   8.224  0.0227 -0.5336 -0.9849
  442MOL0     H59619   3.761   4.356   8.253  0.6253 -2.1972  0.5775
  442MOL0     H59620   3.614   4.441   8.291  2.2443  0.8043 -1.0706
  442MOL0     H59621   3.438   4.334   8.007 -2.6768  1.9011 -0.2346
  442MOL0     H59622   3.513   4.509   7.699  1.3431 -0.3880 -1.1677
  442MOL0     H59623   3.383   4.426   7.796  0.4655  0.3822 -0.6416
  442MOL0     H59624   3.475   4.712   7.781 -1.9172  1.6313  0.1130
  442MOL0     H59625   3.411   4.652   7.935 -1.4855  0.1689  0.0485
  442MOL0     H59626   3.252   4.602   7.676  1.0169 -1.7188  0.5127
  442MOL0     H59627   3.250   4.756   7.753  0.2328 -0.3280  0.7198
  442MOL0     H59628   3.184   4.631   7.960  1.8711 -2.4976  1.0426
  442MOL0     H59629   3.194   4.481   7.876 -0.4207  0.4015  0.8648
  442MOL0     H59630   2.982   4.607   8.054 -0.0196  1.9909 -0.4471
  442MOL0     H59631   2.703   4.490   8.229  0.0146  1.3571 -0.3277
  442MOL0     H59632   2.827   4.363   8.233 -0.6049 -0.2748 -0.5265
  442MOL0     H59633   2.883   4.535   8.228  1.4506  0.4885 -4.3048
  442MOL0     H59634   2.602   3.948   8.052 -1.2504 -1.8787  1.7442
  442MOL0     H59635   2.411   3.818   8.167  3.1292 -2.6690 -1.2096
  442MOL0     H59636   2.206   3.751   8.005  1.1554  0.3105  0.2806
  442MOL0     H59637   2.157   3.688   8.164 -0.5141 -0.6853  0.1062
  442MOL0     H59638   2.009   3.878   7.967 -0.2703 -0.2441  0.4235
  442MOL0     H59639   1.987   3.704   7.943 -0.6578 -1.1464  1.1519
  442MOL0     H59640   1.786   3.806   8.087  0.3348  3.1584 -1.2833
  442MOL0     H59641   1.909   3.857   8.196  1.4022 -0.8203 -1.3794
  442MOL0     H59642   1.830   3.573   8.117  0.3753 -1.9331  1.4462
  442MOL0     H59643   1.965   3.617   8.230  0.8512  0.7897 -1.7961
  442MOL0     H59644   1.787   3.732   8.366  0.5750  0.0067 -0.2722
  442MOL0     H59645   1.789   3.553   8.376  2.7925  2.1018  2.2524
  442MOL0     H59646   1.570   3.704   8.346  1.2726  1.6488  0.2632
  442MOL0     H59647   1.605   3.665   8.177  0.9063 -0.3311 -0.2515
  442MOL0     H59648   1.560   3.458   8.413  1.0111 -0.2636  0.6931
  442MOL0     H59649   1.621   3.415   8.249  0.7656  2.3639 -0.4992
  442MOL0     H59650   1.394   3.379   8.226  2.0925  0.2793 -4.0451
  442MOL0     H59651   1.409   3.542   8.158 -4.3584  2.0397  1.1862
  442MOL0     H59652   2.141   4.127   8.062 -1.4096 -3.0905 -0.5264
  442MOL0     H59653   2.310   4.260   7.969 -0.7824  0.0575  1.3776
  442MOL0     H59654   2.678   4.355   7.767 -1.2915  1.1644  0.9286
  442MOL0     H59655   2.869   4.483   7.671  2.0007  1.6838  1.1932
  442MOL0     H59656   4.199   3.559   8.400 -0.1966 -0.1483  0.4126
  442MOL0     H59657   4.446   3.571   8.389 -1.2334 -0.6227  1.5146
  442MOL0     H59658   4.821   3.698   8.328 -1.4847 -0.9305  1.1254
  442MOL0     H59659   5.064   3.688   8.319  2.3039  1.2145 -0.8847
  442MOL0     H59660   5.236   3.669   8.449  2.1892 -1.7828 -2.3091
  442MOL0     H59661   5.295   3.746   8.310 -0.3194 -2.6042 -0.4971
  442MOL0     H59662   5.467   3.638   8.467  2.4657  1.2244 -0.2205
  442MOL0     H59663   5.408   3.756   8.585  0.7996 -0.2374 -0.5502
  442MOL0     H59664   5.483   3.932   8.425  0.4571 -0.5392  2.3070
  442MOL0     H59665   5.542   3.793   8.315  1.5040 -1.6421  1.2354
  442MOL0     H59666   5.652   3.927   8.569  0.0077  0.7058 -0.9157
  442MOL0     H59667   5.748   3.889   8.430  2.6361 -1.0876  1.3208
  442MOL0     H59668   5.788   3.548   8.677  0.5465 -0.5462  0.0633
  442MOL0     H59669   5.082   4.015   8.597 -0.7178 -0.3055  2.2722
  442MOL0     H59670   4.831   4.009   8.610 -0.6760 -1.4584 -0.4602
  443MOL0     O59671   3.728   0.201   0.280  0.1920  0.2056 -0.1997
  443MOL0     C59672   3.776   0.089   0.268 -0.0091  0.3317 -0.0382
  443MOL0     O59673   3.709  -0.032   0.276 -0.5009 -0.2552 -0.1045
  443MOL0     C59674   3.571  -0.021   0.300  0.8536 -0.3199 -0.6324
  443MOL0     C59675   3.521  -0.092   0.405  0.2505 -0.2322  0.4349
  443MOL0     C59676   3.386  -0.088   0.431  0.2433  0.2419 -0.2243
  443MOL0     C59677   3.294  -0.019   0.347  1.2710 -0.1317 -0.2206
  443MOL0     O59678   3.160  -0.035   0.381 -0.0776 -0.0822 -1.0545
  443MOL0     C59679   3.068   0.036   0.296 -0.5802  0.0793 -0.2269
  443MOL0     C59680   2.929   0.051   0.359 -0.1844  0.0434 -0.5795
  443MOL0     C59681   2.853  -0.075   0.394  0.4971 -0.1973 -0.4580
  443MOL0     C59682   2.760  -0.051   0.515  0.3787 -0.3260  0.4952
  443MOL0     C59683   2.660  -0.160   0.531  0.3431 -0.8565  0.0286
  443MOL0     C59684   2.581  -0.125   0.662 -0.7179 -0.5735 -0.2855
  443MOL0     C59685   2.515  -0.259   0.695 -0.1954 -0.3621  0.6595
  443MOL0     C59686   2.417  -0.262   0.806  0.3515  0.1335  0.0884
  443MOL0     N59687   2.284  -0.202   0.778  0.0674 -0.2725  0.2983
  443MOL0     C59688   2.189  -0.259   0.697  0.0328  0.6367  0.8018
  443MOL0     C59689   2.104  -0.169   0.667  0.6755  1.3813  0.3310
  443MOL0     C59690   1.974  -0.182   0.583 -0.0726 -1.1264 -0.4342
  443MOL0     C59691   1.858  -0.160   0.680  0.3988 -0.0321  0.2424
  443MOL0     C59692   1.736  -0.246   0.642 -0.2192 -0.0039 -0.4941
  443MOL0     C59693   1.606  -0.202   0.715  0.3204  1.6818 -0.1893
  443MOL0     O59694   1.554  -0.077   0.660 -1.0488  0.2694 -0.3036
  443MOL0     C59695   1.458  -0.022   0.741 -0.1253 -0.0643  0.0558
  443MOL0     C59696   1.334  -0.076   0.742  0.4579  0.3692  0.1463
  443MOL0     C59697   1.231  -0.031   0.827 -0.5180  0.8287 -0.1890
  443MOL0     C59698   1.107  -0.119   0.827  0.0359 -0.1494 -0.1305
  443MOL0     C59699   1.245   0.091   0.896  1.2393 -0.3577  0.6471
  443MOL0     C59700   1.133   0.156   0.981  0.0512  0.8227  0.1658
  443MOL0     O59701   1.004   0.162   0.933 -0.1751  0.0487  0.4678
  443MOL0     C59702   0.898   0.232   0.986 -0.5563  0.1029  0.4344
  443MOL0     C59703   0.780   0.172   0.970 -0.3519  0.3511  0.9947
  443MOL0     C59704   0.665   0.232   1.022 -0.8942 -0.6109  0.2843
  443MOL0     C59705   0.669   0.364   1.060 -0.7860  0.9304 -0.6827
  443MOL0     O59706   0.557   0.435   1.089 -0.6834  0.0515  0.5125
  443MOL0     C59707   0.428   0.380   1.084  0.8827  0.5162  0.3590
  443MOL0     C59708   0.313   0.480   1.124 -0.3175  0.6008 -0.1268
  443MOL0     C59709   0.175   0.414   1.148 -0.2705 -0.3806  0.7220
  443MOL0     C59710   0.090   0.523   1.226 -0.3281  0.2415 -0.3304
  443MOL0     C59711  -0.054   0.483   1.193  0.6770  0.8182  0.0640
  443MOL0     C59712  -0.140   0.551   1.293  0.7539 -0.2024 -0.8430
  443MOL0     C59713  -0.292   0.560   1.259  0.5297  0.0177  0.1190
  443MOL0     C59714  -0.376   0.615   1.380 -0.1399 -0.0888  0.0395
  443MOL0    Cl59715  -0.334   0.794   1.398  0.1757 -0.1326  0.0259
  443MOL0     C59716   0.793   0.430   1.080 -0.2181  0.1178 -0.4272
  443MOL0     C59717   0.913   0.365   1.040 -0.1508 -0.0529 -0.8746
  443MOL0     O59718   1.175   0.218   1.079 -0.4257 -0.3811 -0.1743
  443MOL0     C59719   1.368   0.158   0.881  0.2575  0.4625 -0.0213
  443MOL0     C59720   1.477   0.098   0.812  0.4173 -0.3004 -0.9330
  443MOL0     N59721   2.128  -0.053   0.728 -1.2244 -0.5664 -0.4038
  443MOL0     N59722   2.235  -0.074   0.796 -0.5153 -0.7747 -0.1978
  443MOL0     C59723   3.344   0.045   0.238  1.5317 -0.3638  0.0832
  443MOL0     C59724   3.485   0.051   0.222  1.6761  0.5264  0.9376
  443MOL0     C59725   3.924   0.083   0.255  0.7703 -0.3503  0.9730
  443MOL0     C59726   3.990  -0.036   0.218  0.3454  0.3844  0.2931
  443MOL0     C59727   4.124  -0.032   0.187 -0.2687 -0.2994  0.0856
  443MOL0     C59728   4.202   0.083   0.194  0.2987  0.5500  0.0011
  443MOL0     O59729   4.336   0.067   0.163  0.0622 -0.3937  0.6985
  443MOL0     C59730   4.421   0.152   0.247 -0.1680 -0.4627  0.3576
  443MOL0     C59731   4.552   0.088   0.269 -0.2339  0.4809  0.0078
  443MOL0     C59732   4.612   0.050   0.130 -0.4347  0.6056  0.4001
  443MOL0     C59733   4.762   0.025   0.127  0.5684  0.1143 -0.6206
  443MOL0     C59734   4.814   0.028  -0.010 -0.0134  0.3310  0.0484
  443MOL0     C59735   4.855   0.043  -0.126 -0.4057 -0.5079 -0.4246
  443MOL0     C59736   4.136   0.201   0.233 -0.2723  0.3889  0.1013
  443MOL0     C59737   4.002   0.204   0.270 -0.1900 -0.7146  0.6973
  443MOL0     H59738   3.587  -0.155   0.464 -1.3009 -2.3397  0.0280
  443MOL0     H59739   3.348  -0.148   0.514 -0.4130  1.7078  0.5877
  443MOL0     H59740   3.097   0.140   0.278 -4.4983  1.2534 -0.6282
  443MOL0     H59741   3.051  -0.019   0.203  1.6651 -0.1361 -0.5648
  443MOL0     H59742   2.935   0.106   0.453 -0.4664 -0.6699 -0.1416
  443MOL0     H59743   2.872   0.114   0.290  1.4034 -0.8525 -2.8682
  443MOL0     H59744   2.790  -0.102   0.308  1.2308 -1.1967 -0.6946
  443MOL0     H59745   2.919  -0.158   0.418 -1.4687 -1.8169 -0.3947
  443MOL0     H59746   2.823  -0.039   0.603  3.2101 -1.0122 -1.2975
  443MOL0     H59747   2.702   0.036   0.482  1.6957 -0.3248 -2.0578
  443MOL0     H59748   2.595  -0.175   0.444  0.4916  3.7342 -1.1358
  443MOL0     H59749   2.716  -0.252   0.553 -0.4850 -0.8371  2.5230
  443MOL0     H59750   2.651  -0.076   0.730  0.6506  0.3831 -2.2688
  443MOL0     H59751   2.499  -0.055   0.646 -0.1117  0.2372  0.0821
  443MOL0     H59752   2.469  -0.301   0.605  0.7483  1.1879 -0.5863
  443MOL0     H59753   2.600  -0.320   0.728 -0.0718 -0.1788  0.6800
  443MOL0     H59754   2.443  -0.207   0.897 -2.9667 -0.4197  1.5330
  443MOL0     H59755   2.401  -0.367   0.831  0.7296 -0.6360 -2.5703
  443MOL0     H59756   2.183  -0.360   0.658  1.3571  0.9730 -0.3781
  443MOL0     H59757   1.985  -0.103   0.508 -0.1283  0.9367  1.6374
  443MOL0     H59758   1.971  -0.278   0.531  2.2297 -2.2279  1.2926
  443MOL0     H59759   1.829  -0.055   0.680 -1.6757 -0.5650 -0.6887
  443MOL0     H59760   1.899  -0.186   0.778  2.7951 -0.4937 -0.8079
  443MOL0     H59761   1.763  -0.350   0.663  1.9531  1.2505  4.0900
  443MOL0     H59762   1.715  -0.232   0.535 -3.2023  4.2360  0.3943
  443MOL0     H59763   1.630  -0.192   0.821  1.2778  1.0312 -0.3262
  443MOL0     H59764   1.532  -0.280   0.697  2.4496 -0.9968  1.7550
  443MOL0     H59765   1.317  -0.160   0.676  0.0173  0.1053  0.5872
  443MOL0     H59766   1.075  -0.131   0.931 -1.1089 -1.4039 -0.6041
  443MOL0     H59767   1.023  -0.072   0.774 -0.2365 -2.8509 -2.3181
  443MOL0     H59768   1.125  -0.215   0.778 -1.6380 -0.8900  0.6094
  443MOL0     H59769   0.761   0.072   0.932  1.8882 -1.7571  4.8295
  443MOL0     H59770   0.575   0.173   1.021  0.7126 -3.2443  0.9838
  443MOL0     H59771   0.407   0.362   0.978  3.4403 -2.1131  0.1695
  443MOL0     H59772   0.421   0.288   1.143  0.8808  1.8126  2.4770
  443MOL0     H59773   0.354   0.524   1.216  2.1380 -0.5993 -0.5725
  443MOL0     H59774   0.314   0.561   1.051 -0.7197  0.8294  0.1141
  443MOL0     H59775   0.184   0.322   1.207 -0.2519  0.0952  1.4756
  443MOL0     H59776   0.129   0.395   1.051 -0.7836 -1.2151  1.1089
  443MOL0     H59777   0.123   0.521   1.330  1.1475 -0.9430 -0.7929
  443MOL0     H59778   0.107   0.627   1.198  0.8309 -0.3995 -2.2074
  443MOL0     H59779  -0.076   0.377   1.207  3.4009 -0.1620 -2.2232
  443MOL0     H59780  -0.079   0.513   1.091  1.3303  1.4552  0.0804
  443MOL0     H59781  -0.130   0.514   1.396 -0.5981  0.8742 -0.2753
  443MOL0     H59782  -0.110   0.656   1.299 -2.3773  0.7239  1.2999
  443MOL0     H59783  -0.332   0.461   1.233  0.2613 -0.1053  0.9706
  443MOL0     H59784  -0.300   0.627   1.173 -1.0876  1.1834  1.1286
  443MOL0     H59785  -0.356   0.563   1.474  2.4666  0.6065 -0.0617
  443MOL0     H59786  -0.482   0.601   1.354 -0.4663  1.4614  0.4714
  443MOL0     H59787   0.793   0.529   1.124  1.8979  0.6550 -1.4997
  443MOL0     H59788   1.013   0.407   1.044 -0.7806  1.4358  0.1846
  443MOL0     H59789   1.370   0.262   0.913  1.9449  0.3810  0.2027
  443MOL0     H59790   1.576   0.140   0.797 -0.1421  1.1213 -0.7398
  443MOL0     H59791   3.286   0.101   0.165 -0.3512  0.1355  1.8388
  443MOL0     H59792   3.527   0.108   0.139 -0.0829  0.1344 -0.2913
  443MOL0     H59793   3.945  -0.135   0.220  0.9604  0.1205  2.1910
  443MOL0     H59794   4.180  -0.125   0.179  1.3231  0.5365  1.0056
  443MOL0     H59795   4.429   0.254   0.209 -0.3888 -0.5012  0.2055
  443MOL0     H59796   4.368   0.166   0.341 -1.1142 -0.1200 -0.2078
  443MOL0     H59797   4.550   0.008   0.344 -0.2533 -0.2913 -0.8015
  443MOL0     H59798   4.618   0.162   0.317  2.2500 -0.4249 -1.7717
  443MOL0     H59799   4.589   0.130   0.059  0.7393 -1.3743 -2.4274
  443MOL0     H59800   4.558  -0.041   0.100  0.3394  0.3058 -0.1224
  443MOL0     H59801   4.784  -0.075   0.168 -2.3282 -0.1312  0.5805
  443MOL0     H59802   4.825   0.098   0.179 -0.0873  1.2522 -1.3764
  443MOL0     H59803   4.887   0.084  -0.220  1.3877 -1.7988 -0.4206
  443MOL0     H59804   4.194   0.292   0.224  1.0053 -0.4810 -0.8794
  443MOL0     H59805   3.948   0.294   0.299  3.4028  1.4900  1.2251
  444MOL0     O59806  10.545   2.480  10.753  0.4338  0.1840 -0.4386
  444MOL0     C59807  10.519   2.557  10.661  0.4586  0.1663  0.3688
  444MOL0     O59808  10.391   2.604  10.619  0.8979  0.3415 -0.3920
  444MOL0     C59809  10.263   2.569  10.668 -0.5332 -0.0310 -0.3154
  444MOL0     C59810  10.236   2.513  10.790  0.7411  0.3429  0.4643
  444MOL0     C59811  10.104   2.470  10.821 -0.6051  0.3418  0.4471
  444MOL0     C59812   9.998   2.502  10.733 -0.5676 -0.5742  0.0303
  444MOL0     O59813   9.873   2.471  10.788  0.8537  0.3862  0.4964
  444MOL0     C59814   9.762   2.536  10.721 -0.0012  0.7314  0.2068
  444MOL0     C59815   9.655   2.549  10.836  0.7837  0.4654  0.0494
  444MOL0     C59816   9.515   2.579  10.786  0.1648 -1.2493 -0.3367
  444MOL0     C59817   9.457   2.696  10.879 -0.4878  0.4047  0.1115
  444MOL0     C59818   9.340   2.766  10.832  0.3914  0.2397  0.4467
  444MOL0     C59819   9.297   2.886  10.932 -0.4395 -0.4224  0.1404
  444MOL0     C59820   9.196   2.977  10.864  1.1612 -0.3959 -0.1732
  444MOL0     C59821   9.145   3.102  10.950 -0.1281  0.0247  0.0131
  444MOL0     N59822   9.023   3.077  11.032 -0.0133  0.1962 -0.6422
  444MOL0     C59823   8.902   3.143  11.007  1.1801  0.5661  0.0325
  444MOL0     C59824   8.813   3.078  11.093  0.0843 -0.4452 -0.3905
  444MOL0     C59825   8.663   3.109  11.117  0.4255 -0.5808  0.5607
  444MOL0     C59826   8.573   3.051  11.003 -0.4535 -0.0907 -0.0685
  444MOL0     C59827   8.603   2.899  10.976 -0.0682 -0.2396  0.5677
  444MOL0     C59828   8.474   2.829  10.948  0.5879 -0.0486  0.5719
  444MOL0     O59829   8.430   2.875  10.818 -0.0252  0.5241  0.7559
  444MOL0     C59830   8.315   2.830  10.774  0.7048  0.4012 -0.8511
  444MOL0     C59831   8.273   2.889  10.658  0.3438 -0.4479  0.4127
  444MOL0     C59832   8.141   2.859  10.610 -0.5548  0.8577  0.7416
  444MOL0     C59833   8.102   2.914  10.477 -0.1898  0.0778 -0.6057
  444MOL0     C59834   8.058   2.763  10.670 -0.2297  0.0744 -0.2628
  444MOL0     C59835   7.922   2.717  10.617  0.4458 -1.0721  0.1257
  444MOL0     O59836   7.828   2.702  10.718  0.1407  1.3080  0.7409
  444MOL0     C59837   7.724   2.635  10.664  0.7841  0.0981 -0.0389
  444MOL0     C59838   7.700   2.501  10.707 -0.6942 -0.4404 -0.5083
  444MOL0     C59839   7.589   2.439  10.652 -0.0304  0.0101  0.2298
  444MOL0     C59840   7.489   2.508  10.584  0.2781  0.1915 -0.8064
  444MOL0     O59841   7.383   2.428  10.548 -0.3448  0.1012  0.6033
  444MOL0     C59842   7.299   2.449  10.438  0.6854 -0.2703  0.3981
  444MOL0     C59843   7.148   2.436  10.463 -1.5466 -0.3270 -0.1904
  444MOL0     C59844   7.066   2.536  10.393  0.2988  1.2074  0.3908
  444MOL0     C59845   6.913   2.503  10.401 -0.1078 -0.3085 -0.1774
  444MOL0     C59846   6.845   2.548  10.274 -0.0645  0.0553  0.4317
  444MOL0     C59847   6.699   2.487  10.267 -0.0878 -0.4783  0.1713
  444MOL0     C59848   6.597   2.550  10.352  0.5243 -0.4438 -0.1801
  444MOL0     C59849   6.460   2.493  10.310  0.1966 -0.1927  0.1043
  444MOL0    Cl59850   6.446   2.322  10.337  0.0215  0.1983  0.2011
  444MOL0     C59851   7.500   2.637  10.553  0.0550 -0.2532  0.3262
  444MOL0     C59852   7.623   2.702  10.592  0.7444 -0.4034 -0.4865
  444MOL0     O59853   7.904   2.702  10.495  0.3443  0.1002  0.0051
  444MOL0     C59854   8.111   2.698  10.774  1.1489 -0.3448 -0.2984
  444MOL0     C59855   8.232   2.731  10.828 -0.2528  0.7159 -0.0845
  444MOL0     N59856   8.886   2.983  11.162  0.2004 -0.3331 -0.6599
  444MOL0     N59857   9.011   2.969  11.118  0.3572 -1.0451  0.9411
  444MOL0     C59858  10.032   2.569  10.610  0.3609  0.3969  0.0907
  444MOL0     C59859  10.163   2.597  10.579 -0.2170  0.8618 -0.2346
  444MOL0     C59860  10.632   2.601  10.582 -0.0494  0.0197  0.1039
  444MOL0     C59861  10.755   2.540  10.596 -0.2066  0.0590 -0.4065
  444MOL0     C59862  10.861   2.597  10.527  0.2472 -0.8634 -0.2658
  444MOL0     C59863  10.845   2.718  10.452 -0.6482 -0.1929  0.8358
  444MOL0     O59864  10.942   2.786  10.389  0.0530  0.4008 -0.1473
  444MOL0     C59865  11.084   2.761  10.406 -1.0572  0.5894 -0.1781
  444MOL0     C59866  11.172   2.877  10.341 -0.1093 -0.5700  0.1109
  444MOL0     C59867  11.323   2.839  10.332  0.2793  0.0002 -0.0682
  444MOL0     C59868  11.402   2.977  10.301  0.2574  0.6276  0.9066
  444MOL0     C59869  11.544   2.944  10.291 -0.4632  1.1164  0.3749
  444MOL0     C59870  11.665   2.931  10.258  0.8125 -0.1539 -0.9066
  444MOL0     C59871  10.724   2.763  10.425 -0.0297 -0.7727 -0.1083
  444MOL0     C59872  10.612   2.716  10.497 -0.2012  0.0501  0.2957
  444MOL0     H59873  10.307   2.487  10.867  0.7886 -0.4334  0.1641
  444MOL0     H59874  10.088   2.406  10.907  1.8672 -0.9173  0.0621
  444MOL0     H59875   9.782   2.640  10.692 -0.2844  0.8466  0.4206
  444MOL0     H59876   9.704   2.485  10.644  1.1652  0.7335 -0.7041
  444MOL0     H59877   9.643   2.455  10.891  0.2224  0.5387  0.0560
  444MOL0     H59878   9.703   2.615  10.910  1.6403 -0.4099  0.2937
  444MOL0     H59879   9.516   2.620  10.685  1.2105  0.1482  0.2045
  444MOL0     H59880   9.440   2.502  10.805 -3.0893  2.2050  2.3300
  444MOL0     H59881   9.436   2.646  10.974 -2.1211 -0.5050 -0.6723
  444MOL0     H59882   9.534   2.773  10.886  0.9726 -0.6453 -2.8369
  444MOL0     H59883   9.359   2.820  10.739  0.9616  2.1674  1.6231
  444MOL0     H59884   9.254   2.699  10.826  0.4320 -0.0026  1.9641
  444MOL0     H59885   9.262   2.847  11.028  2.8191 -0.9412  1.2376
  444MOL0     H59886   9.383   2.944  10.966 -0.8722 -0.3801  1.1909
  444MOL0     H59887   9.249   3.026  10.782  1.5412 -0.2978  0.1262
  444MOL0     H59888   9.112   2.919  10.827  0.1573  1.2894 -0.6354
  444MOL0     H59889   9.125   3.183  10.880 -1.4195  0.7122  1.1305
  444MOL0     H59890   9.223   3.125  11.024  1.1090 -1.0969 -0.8909
  444MOL0     H59891   8.867   3.203  10.923  0.1891 -0.8840 -0.6407
  444MOL0     H59892   8.644   3.060  11.213  1.3147 -0.3705  0.8531
  444MOL0     H59893   8.662   3.218  11.121  1.6359 -0.4958 -0.7654
  444MOL0     H59894   8.567   3.113  10.913 -1.1486  0.9869  0.7082
  444MOL0     H59895   8.476   3.051  11.053 -0.2264 -0.6310  0.3746
  444MOL0     H59896   8.648   2.856  11.066 -1.9140  1.9887  2.6606
  444MOL0     H59897   8.684   2.879  10.904 -0.6330 -0.1974 -0.0903
  444MOL0     H59898   8.399   2.860  11.022  0.0973  0.2738 -0.0487
  444MOL0     H59899   8.478   2.720  10.954  0.0262 -0.1687 -0.7564
  444MOL0     H59900   8.318   2.972  10.604 -0.1576 -1.7190 -2.1120
  444MOL0     H59901   8.176   2.988  10.444  0.3937  1.1395  2.7255
  444MOL0     H59902   8.091   2.843  10.394  0.0198  1.8386 -2.2123
  444MOL0     H59903   8.004   2.961  10.487  0.1104  0.1747  3.4372
  444MOL0     H59904   7.759   2.445  10.779 -0.2302  1.7941  0.9437
  444MOL0     H59905   7.565   2.335  10.670  1.2091  0.0167  2.3086
  444MOL0     H59906   7.308   2.545  10.386 -1.5875  0.3480  1.0473
  444MOL0     H59907   7.328   2.369  10.369  1.4378  0.4743 -0.1592
  444MOL0     H59908   7.112   2.337  10.434 -2.4768 -0.2378  0.6177
  444MOL0     H59909   7.132   2.457  10.569  4.8563 -1.5603  1.4673
  444MOL0     H59910   7.091   2.538  10.287 -1.4957 -1.3473 -0.1576
  444MOL0     H59911   7.089   2.633  10.439 -1.1073  1.9006 -0.2822
  444MOL0     H59912   6.891   2.400  10.430  0.0830  0.0288  1.2934
  444MOL0     H59913   6.882   2.575  10.477  0.0402  1.7720 -2.0000
  444MOL0     H59914   6.896   2.514  10.184  0.7485 -0.6226  1.1253
  444MOL0     H59915   6.848   2.657  10.270 -0.9803  0.2732  3.3676
  444MOL0     H59916   6.674   2.497  10.161 -1.0664 -1.2296  0.3194
  444MOL0     H59917   6.701   2.384  10.303  0.1595  0.0737  1.8172
  444MOL0     H59918   6.596   2.657  10.329 -3.9947 -0.4596 -0.8591
  444MOL0     H59919   6.606   2.541  10.461 -1.9141  0.9092  0.2129
  444MOL0     H59920   6.447   2.504  10.202  1.1095  0.6250  0.0679
  444MOL0     H59921   6.379   2.551  10.354 -1.1710 -0.9673 -1.2704
  444MOL0     H59922   7.425   2.685  10.492  1.8883  0.2719 -1.6199
  444MOL0     H59923   7.637   2.808  10.571 -2.7662  0.2017 -0.3166
  444MOL0     H59924   8.058   2.609  10.808 -0.7871 -0.7410 -3.8926
  444MOL0     H59925   8.269   2.669  10.908 -0.2235 -2.2948 -2.2489
  444MOL0     H59926   9.950   2.596  10.545 -0.2779 -2.4539 -0.4437
  444MOL0     H59927  10.191   2.636  10.481  1.0629 -1.2171 -0.7573
  444MOL0     H59928  10.776   2.464  10.671  4.7181  1.3600 -0.1084
  444MOL0     H59929  10.967   2.572  10.527 -0.2689 -3.3743 -1.7217
  444MOL0     H59930  11.110   2.757  10.512 -0.2018  0.6422 -0.3814
  444MOL0     H59931  11.093   2.665  10.354 -1.7229  0.6312 -0.3834
  444MOL0     H59932  11.164   2.968  10.401  1.5273  0.5942 -1.3242
  444MOL0     H59933  11.143   2.900  10.238  0.3807 -0.6027 -0.0368
  444MOL0     H59934  11.342   2.768  10.250  2.1130  1.1636 -0.6941
  444MOL0     H59935  11.358   2.786  10.421 -0.5111  1.0553  0.8892
  444MOL0     H59936  11.387   3.057  10.374  1.0163  3.0924 -1.5067
  444MOL0     H59937  11.377   3.018  10.203  0.7617  0.0165  0.5191
  444MOL0     H59938  11.769   2.918  10.233  1.6074 -0.3260  2.0997
  444MOL0     H59939  10.707   2.847  10.358 -3.2133  0.2441  1.7486
  444MOL0     H59940  10.516   2.765  10.485  1.1259  3.9230  3.1813
  445MOL0     O59941   5.321   3.740   9.186  0.1465  0.0976  0.1570
  445MOL0     C59942   5.361   3.763   9.072  0.6570 -0.3185 -0.5478
  445MOL0     O59943   5.290   3.745   8.958 -0.1230 -0.3954  0.4139
  445MOL0     C59944   5.158   3.705   8.958  0.0742 -0.4673  1.2246
  445MOL0     C59945   5.107   3.597   9.025  0.1348  0.0220 -0.2367
  445MOL0     C59946   4.971   3.557   9.009 -0.2184  0.2949  0.2096
  445MOL0     C59947   4.888   3.618   8.913  0.4891  0.4575 -1.0991
  445MOL0     O59948   4.759   3.574   8.904 -0.1352  0.2969  0.0185
  445MOL0     C59949   4.674   3.656   8.829  0.3779 -0.2371 -0.7338
  445MOL0     C59950   4.535   3.590   8.846 -0.0985  0.5046  0.3326
  445MOL0     C59951   4.438   3.689   8.788  0.4396 -0.0363  0.6045
  445MOL0     C59952   4.296   3.634   8.785 -0.1193  0.6509  0.2402
  445MOL0     C59953   4.192   3.737   8.751  0.8917  0.0239 -0.1424
  445MOL0     C59954   4.067   3.666   8.688  0.6375 -0.1809 -0.4958
  445MOL0     C59955   3.945   3.757   8.645 -0.5383  0.2795 -0.1290
  445MOL0     C59956   3.833   3.690   8.565 -0.5946  0.0562  0.0274
  445MOL0     N59957   3.777   3.574   8.627 -0.2698 -0.2731  0.2647
  445MOL0     C59958   3.722   3.471   8.557  0.1639  0.8310 -0.3237
  445MOL0     C59959   3.657   3.405   8.652  0.7493 -0.3276  0.4800
  445MOL0     C59960   3.594   3.271   8.618 -0.3120 -0.1079  0.1923
  445MOL0     C59961   3.447   3.285   8.569  0.7738  0.2084 -0.2616
  445MOL0     C59962   3.371   3.148   8.582 -0.9083  0.5093  0.1224
  445MOL0     C59963   3.272   3.104   8.476  0.6364 -0.6638  0.5738
  445MOL0     O59964   3.154   3.186   8.455  0.1621  0.4397  0.9416
  445MOL0     C59965   3.038   3.125   8.476 -0.3314  0.4594 -1.6807
  445MOL0     C59966   2.949   3.113   8.377  0.9321  0.0193  0.3654
  445MOL0     C59967   2.822   3.056   8.395  0.0144  0.4744  0.3468
  445MOL0     C59968   2.718   3.063   8.287 -0.0242 -0.4161  0.8144
  445MOL0     C59969   2.783   3.001   8.525 -1.2585  0.0232  0.1662
  445MOL0     C59970   2.655   2.924   8.549 -0.2315  0.8713 -0.4342
  445MOL0     O59971   2.660   2.814   8.633 -0.1317  0.8316 -0.2364
  445MOL0     C59972   2.555   2.736   8.675  0.2090 -0.2449  0.3870
  445MOL0     C59973   2.557   2.594   8.680 -0.2746  0.4743  0.3286
  445MOL0     C59974   2.448   2.512   8.722 -0.9194  0.6797 -0.3647
  445MOL0     C59975   2.327   2.569   8.762  0.3555  0.7468 -0.3130
  445MOL0     O59976   2.214   2.487   8.794 -0.1476 -0.4484  0.3240
  445MOL0     C59977   2.092   2.551   8.846 -0.0520  0.7749 -0.9194
  445MOL0     C59978   2.024   2.456   8.943  0.4635 -0.1804  0.3216
  445MOL0     C59979   1.883   2.502   8.994 -0.1163  0.5771 -0.3652
  445MOL0     C59980   1.777   2.523   8.883 -1.0739  0.0663 -0.7234
  445MOL0     C59981   1.721   2.404   8.806  0.2061  0.7176  0.5733
  445MOL0     C59982   1.616   2.325   8.883  1.4031  0.3125 -0.0173
  445MOL0     C59983   1.498   2.411   8.935 -0.3789  0.1837  0.9626
  445MOL0     C59984   1.373   2.319   8.971  0.2996 -0.5822  0.4414
  445MOL0    Cl59985   1.306   2.247   8.814  0.3376 -0.0051  0.1374
  445MOL0     C59986   2.319   2.708   8.750  0.2073 -0.4158 -0.0426
  445MOL0     C59987   2.439   2.782   8.719 -0.1391 -0.2928  0.4191
  445MOL0     O59988   2.555   2.965   8.500 -0.1824  0.2461  0.6347
  445MOL0     C59989   2.882   3.012   8.629  1.4248  1.4964 -0.1635
  445MOL0     C59990   3.001   3.084   8.605 -0.1366 -0.2987  0.0950
  445MOL0     N59991   3.668   3.462   8.771  0.8611 -0.1112  0.5676
  445MOL0     N59992   3.735   3.568   8.755 -0.0784 -0.3506 -1.5691
  445MOL0     C59993   4.945   3.718   8.838  0.0154 -0.7445  0.1693
  445MOL0     C59994   5.072   3.765   8.861 -0.0479  0.0193 -0.5694
  445MOL0     C59995   5.503   3.816   9.058  0.2520  0.3033  1.0069
  445MOL0     C59996   5.562   3.829   8.929  0.2197  0.0974  0.3817
  445MOL0     C59997   5.683   3.895   8.918 -0.6569 -0.4215 -0.7003
  445MOL0     C59998   5.755   3.943   9.020 -0.2788 -0.7305 -0.5980
  445MOL0     O59999   5.868   4.010   8.990 -0.2590 -0.1162  0.3297
  445MOL0     C60000   5.978   3.994   9.087 -0.3934  0.3626  0.6166
  445MOL0     C60001   6.011   3.849   9.132 -0.3616 -0.7285  0.2425
  445MOL0     C60002   6.152   3.839   9.193  0.1177  0.5151  0.3251
  445MOL0     C60003   6.156   3.869   9.348 -0.7425  0.5626 -0.5554
  445MOL0     C60004   6.126   4.012   9.382 -0.5069  0.0715  0.0067
  445MOL0     C60005   6.097   4.119   9.417 -0.8601  0.2694  0.5917
  445MOL0     C60006   5.698   3.923   9.153 -0.2618  0.2041 -0.5763
  445MOL0     C60007   5.572   3.867   9.167  0.7336 -0.3281 -0.4065
  445MOL0     H60008   5.170   3.555   9.102 -0.1464 -0.5233 -0.2982
  445MOL0     H60009   4.927   3.488   9.080 -1.6788 -0.2227 -1.1231
  445MOL0     H60010   4.668   3.751   8.882  0.8907 -2.3727  3.5800
  445MOL0     H60011   4.700   3.673   8.724 -0.4520  1.1060 -0.7447
  445MOL0     H60012   4.549   3.501   8.785 -1.1633  1.1785 -0.9414
  445MOL0     H60013   4.508   3.559   8.948 -0.9619  1.1453  0.3092
  445MOL0     H60014   4.437   3.780   8.849 -0.9209  0.2174  0.2269
  445MOL0     H60015   4.474   3.707   8.686  3.7532 -3.2468  0.9662
  445MOL0     H60016   4.308   3.556   8.710 -2.4344  0.8208 -0.4047
  445MOL0     H60017   4.259   3.579   8.872  1.2646  0.6611  0.8589
  445MOL0     H60018   4.152   3.777   8.844 -4.5322 -0.6280 -1.8066
  445MOL0     H60019   4.210   3.824   8.688  0.0428  0.6358  0.4380
  445MOL0     H60020   4.113   3.622   8.598 -0.1277  2.5905 -2.4072
  445MOL0     H60021   4.037   3.592   8.762 -1.7771  1.5357  0.3737
  445MOL0     H60022   3.903   3.802   8.736 -1.3166  2.5398 -1.5404
  445MOL0     H60023   3.991   3.838   8.588 -1.0912  0.1129 -0.8276
  445MOL0     H60024   3.874   3.653   8.471  0.3276  0.3876  0.2839
  445MOL0     H60025   3.755   3.763   8.540  0.5510  1.2295 -0.2905
  445MOL0     H60026   3.724   3.468   8.449  0.0245  1.4373 -0.3454
  445MOL0     H60027   3.661   3.232   8.540  0.1790 -0.0907  0.5961
  445MOL0     H60028   3.613   3.193   8.692 -0.7794 -0.9518 -0.5584
  445MOL0     H60029   3.448   3.318   8.464 -0.5190 -1.8196 -0.9781
  445MOL0     H60030   3.393   3.361   8.627  0.7168  0.1698 -0.2636
  445MOL0     H60031   3.327   3.131   8.681  0.1112 -1.5946  0.2583
  445MOL0     H60032   3.449   3.071   8.579 -1.9380 -0.5725  0.2083
  445MOL0     H60033   3.235   3.006   8.506 -0.2883 -0.3803  0.3874
  445MOL0     H60034   3.320   3.099   8.377  0.2446  1.0394  0.2691
  445MOL0     H60035   2.980   3.162   8.286 -1.8626  0.2694 -0.5558
  445MOL0     H60036   2.678   2.967   8.254 -0.9549  0.0933  0.4093
  445MOL0     H60037   2.626   3.118   8.311 -0.1686 -0.2576 -0.0742
  445MOL0     H60038   2.773   3.100   8.200 -0.0037  0.6058  1.2483
  445MOL0     H60039   2.640   2.545   8.630  0.5053  2.2999 -0.2431
  445MOL0     H60040   2.465   2.406   8.733  1.3619  1.0292 -0.0030
  445MOL0     H60041   2.116   2.642   8.902 -1.3220 -0.3446  1.5987
  445MOL0     H60042   2.031   2.575   8.758 -0.2991  0.1452 -0.9223
  445MOL0     H60043   2.017   2.360   8.891  0.3705  0.4376 -0.8548
  445MOL0     H60044   2.074   2.453   9.040 -2.0199 -5.8698  1.8535
  445MOL0     H60045   1.900   2.592   9.054 -0.9062  0.2544  0.3683
  445MOL0     H60046   1.849   2.421   9.059 -1.7265  1.6461  0.2043
  445MOL0     H60047   1.689   2.572   8.926  0.1816  1.3062  0.5739
  445MOL0     H60048   1.824   2.578   8.801 -1.0552 -1.9137 -2.0967
  445MOL0     H60049   1.796   2.331   8.774  0.6216  0.6449  1.6544
  445MOL0     H60050   1.682   2.438   8.710  1.0411 -0.0994 -0.0761
  445MOL0     H60051   1.584   2.239   8.824  0.9148 -1.2244  2.3493
  445MOL0     H60052   1.646   2.289   8.981 -3.6335 -1.7732  1.0650
  445MOL0     H60053   1.474   2.473   8.848 -1.2250 -0.8205  0.4557
  445MOL0     H60054   1.516   2.483   9.015  1.7565  0.1515  0.5666
  445MOL0     H60055   1.291   2.380   9.011  0.2705 -0.3913  0.0964
  445MOL0     H60056   1.398   2.244   9.046 -2.1110  0.3496  2.3037
  445MOL0     H60057   2.226   2.762   8.762 -0.8020 -2.4044  1.7821
  445MOL0     H60058   2.421   2.889   8.723  1.1314 -0.0813  0.8046
  445MOL0     H60059   2.860   2.969   8.726  0.9453  1.9384 -0.0686
  445MOL0     H60060   3.076   3.094   8.684 -1.1215  0.2270  0.9988
  445MOL0     H60061   4.895   3.762   8.753 -0.8683  0.5663  1.3156
  445MOL0     H60062   5.102   3.856   8.809 -0.1444  0.6038  0.3758
  445MOL0     H60063   5.512   3.803   8.835  0.4722  2.8129 -0.6003
  445MOL0     H60064   5.724   3.900   8.818 -1.5532  0.2263 -1.0477
  445MOL0     H60065   6.064   4.043   9.042  1.2824 -2.9265 -0.0716
  445MOL0     H60066   5.953   4.053   9.176 -0.4860  1.6631 -0.2488
  445MOL0     H60067   6.011   3.781   9.046 -1.0331 -0.0030 -0.3435
  445MOL0     H60068   5.937   3.812   9.204 -0.2717 -3.7461 -1.0456
  445MOL0     H60069   6.224   3.888   9.126  0.9308  1.1654  1.6315
  445MOL0     H60070   6.183   3.735   9.187  1.3731  0.9484 -2.1779
  445MOL0     H60071   6.252   3.840   9.390 -1.8783 -1.8015  0.5966
  445MOL0     H60072   6.084   3.800   9.393  2.4977 -2.5552  0.2797
  445MOL0     H60073   6.059   4.215   9.444 -3.4412 -0.3599 -0.5334
  445MOL0     H60074   5.757   3.974   9.228  0.8261 -3.7411  1.5360
  445MOL0     H60075   5.513   3.859   9.258  1.4094 -0.7491 -0.0031
  446MOL0     O60076  10.731  10.030   0.457  0.2974  0.2846 -0.7079
  446MOL0     C60077  10.823  10.017   0.381 -0.2367 -0.0667  0.6251
  446MOL0     O60078  10.847  10.091   0.272  0.0963 -0.3685  0.1772
  446MOL0     C60079  10.766  10.205   0.244  0.5236  0.3466  0.3588
  446MOL0     C60080  10.806  10.288   0.133 -0.0154 -0.6802  0.7694
  446MOL0     C60081  10.752  10.417   0.116  0.4931 -0.3667  0.1541
  446MOL0     C60082  10.653  10.468   0.197  1.2414  0.2313 -0.3369
  446MOL0     O60083  10.610  10.599   0.189  0.4603  0.3616 -0.0186
  446MOL0     C60084  10.623  10.685   0.300 -0.9517  0.1469  0.5386
  446MOL0     C60085  10.756  10.680   0.377  0.0091 -0.7195  0.1112
  446MOL0     C60086  10.767  10.785   0.490  0.1093 -0.5141 -0.6777
  446MOL0     C60087  10.767  10.925   0.435 -0.2453 -0.2534  0.2256
  446MOL0     C60088  10.629  11.000   0.439 -0.1402  0.5967 -0.6905
  446MOL0     C60089  10.631  11.149   0.417  0.6948  0.4245  0.5328
  446MOL0     C60090  10.498  11.222   0.392  0.3480 -0.0106  1.0079
  446MOL0     C60091  10.398  11.212   0.504  0.1091 -0.3731 -0.5859
  446MOL0     N60092  10.273  11.285   0.478  0.2066  0.3934  1.1896
  446MOL0     C60093  10.208  11.358   0.567  0.2022  0.1710 -0.2904
  446MOL0     C60094  10.080  11.352   0.517 -0.3050  0.7401 -0.0608
  446MOL0     C60095   9.976  11.443   0.576  0.6972  0.3554  0.8375
  446MOL0     C60096   9.869  11.384   0.668  0.4685  0.8791  0.1142
  446MOL0     C60097   9.771  11.280   0.603  0.5115  0.0827 -0.0154
  446MOL0     C60098   9.684  11.233   0.711  1.0846 -0.2923 -0.4542
  446MOL0     O60099   9.570  11.147   0.660  0.4902 -0.1062 -0.6201
  446MOL0     C60100   9.468  11.220   0.610 -0.0076  0.1261 -0.3088
  446MOL0     C60101   9.465  11.250   0.475  0.0479 -0.1968 -0.2994
  446MOL0     C60102   9.359  11.319   0.410 -0.7151 -0.0616 -0.4359
  446MOL0     C60103   9.358  11.351   0.264 -0.3798  0.2548 -0.4276
  446MOL0     C60104   9.248  11.356   0.489  0.1630  0.9222  0.7207
  446MOL0     C60105   9.126  11.418   0.435 -0.0716 -0.1475  0.2579
  446MOL0     O60106   9.141  11.529   0.365  0.1357 -0.2219  0.4873
  446MOL0     C60107   9.039  11.594   0.323  0.4391 -0.4639 -0.6470
  446MOL0     C60108   9.053  11.731   0.313  0.4138 -0.2770 -0.6669
  446MOL0     C60109   8.955  11.812   0.257  0.0953 -0.4374 -0.2719
  446MOL0     C60110   8.837  11.758   0.196 -0.1076 -0.1281  0.1252
  446MOL0     O60111   8.735  11.841   0.161  0.5472  0.0979 -0.4167
  446MOL0     C60112   8.706  11.965   0.230 -0.1611  0.2984 -0.7501
  446MOL0     C60113   8.600  12.053   0.168 -0.4178  0.1917 -0.4711
  446MOL0     C60114   8.466  11.983   0.133  0.4478  0.0178 -0.4836
  446MOL0     C60115   8.364  12.050   0.050 -0.9136 -0.1730 -0.3346
  446MOL0     C60116   8.336  12.194   0.105 -0.2650  0.3275 -0.4140
  446MOL0     C60117   8.238  12.257   0.021 -0.0051 -0.1007 -0.8138
  446MOL0     C60118   8.169  12.377   0.088 -0.6172 -0.2702  0.0573
  446MOL0     C60119   8.080  12.454  -0.012 -0.2627  0.0792 -0.4712
  446MOL0    Cl60120   7.947  12.347  -0.091  0.1588  0.2317  0.0211
  446MOL0     C60121   8.822  11.622   0.183  0.2683 -0.3834 -0.5147
  446MOL0     C60122   8.934  11.544   0.236  0.3791  1.0447  0.1968
  446MOL0     O60123   9.024  11.371   0.489  0.3714  0.2080 -0.6075
  446MOL0     C60124   9.254  11.338   0.627 -1.0049  0.3850 -0.0204
  446MOL0     C60125   9.359  11.268   0.693  0.1657  0.1944  0.1662
  446MOL0     N60126  10.067  11.293   0.398 -0.4200  0.3862  0.4168
  446MOL0     N60127  10.187  11.242   0.376 -0.3485  0.4170 -0.9847
  446MOL0     C60128  10.594  10.375   0.283 -0.3652  0.4209  0.7922
  446MOL0     C60129  10.645  10.246   0.310 -0.3910 -0.1794  0.1637
  446MOL0     C60130  10.903   9.901   0.409  0.9159 -0.0753 -0.3674
  446MOL0     C60131  10.995   9.862   0.315  0.5857  0.4355 -0.0753
  446MOL0     C60132  11.060   9.744   0.335 -0.6991  0.2285  0.0943
  446MOL0     C60133  11.049   9.661   0.450  0.1216 -0.1259 -0.4798
  446MOL0     O60134  11.102   9.537   0.469 -0.6223 -0.4763  0.4912
  446MOL0     C60135  11.140   9.468   0.350 -0.4795 -0.3552 -0.4316
  446MOL0     C60136  11.212   9.338   0.397 -0.2151 -0.4521  0.3740
  446MOL0     C60137  11.117   9.235   0.432  1.2073  0.1021 -0.3630
  446MOL0     C60138  11.150   9.082   0.411  1.2518 -0.3932 -0.0381
  446MOL0     C60139  11.252   9.026   0.504  0.3635 -0.9582 -0.0142
  446MOL0     C60140  11.333   8.973   0.573 -0.5403 -0.1472 -0.0319
  446MOL0     C60141  10.964   9.706   0.546  0.8200 -0.6334  0.4234
  446MOL0     C60142  10.883   9.823   0.527 -0.3702 -0.1626 -0.1464
  446MOL0     H60143  10.894  10.269   0.073  1.5565  1.8801  2.0687
  446MOL0     H60144  10.797  10.479   0.039  1.1846 -3.1106 -1.8102
  446MOL0     H60145  10.598  10.779   0.250  0.7136  0.8779  0.9948
  446MOL0     H60146  10.540  10.674   0.370 -1.2536 -2.3030 -0.1157
  446MOL0     H60147  10.769  10.578   0.416  1.9003 -1.0186 -1.1302
  446MOL0     H60148  10.846  10.693   0.315 -0.1931 -2.9722 -0.7742
  446MOL0     H60149  10.683  10.759   0.556 -0.2139  0.3360 -0.7477
  446MOL0     H60150  10.868  10.773   0.529  0.1724 -3.3164 -1.4504
  446MOL0     H60151  10.835  10.990   0.491  0.9549 -0.0542 -1.3988
  446MOL0     H60152  10.792  10.921   0.328  0.2757  1.6462  0.2387
  446MOL0     H60153  10.561  10.966   0.360 -2.0319  0.0114  1.1108
  446MOL0     H60154  10.581  10.988   0.536  1.2228  0.6856  0.0168
  446MOL0     H60155  10.688  11.208   0.490  0.4999  1.4494 -0.1139
  446MOL0     H60156  10.697  11.161   0.331  0.3887 -1.7639 -0.0425
  446MOL0     H60157  10.531  11.322   0.363  2.1999 -0.8852 -0.0592
  446MOL0     H60158  10.450  11.173   0.307  1.6750 -2.6130  1.6562
  446MOL0     H60159  10.441  11.239   0.600  1.8718 -2.9873 -0.5318
  446MOL0     H60160  10.385  11.104   0.512  4.4282 -0.9264  3.5900
  446MOL0     H60161  10.246  11.413   0.652 -3.0725  2.2757 -0.0459
  446MOL0     H60162  10.032  11.521   0.629  1.6600 -0.0408  0.4378
  446MOL0     H60163   9.925  11.489   0.491 -0.2240  0.2894  1.3459
  446MOL0     H60164   9.807  11.462   0.713 -0.4733  0.5216 -0.5241
  446MOL0     H60165   9.922  11.341   0.753 -1.4153  3.0282  2.5567
  446MOL0     H60166   9.823  11.193   0.561 -1.8454 -0.7393 -1.4304
  446MOL0     H60167   9.710  11.328   0.527 -2.3954 -2.3604  0.5827
  446MOL0     H60168   9.653  11.327   0.758  3.1892  0.7867 -1.0930
  446MOL0     H60169   9.738  11.184   0.792  1.6937  0.3591 -0.4572
  446MOL0     H60170   9.546  11.206   0.416  0.2996 -0.3101  0.1246
  446MOL0     H60171   9.350  11.460   0.252  0.0906  0.1176 -2.3815
  446MOL0     H60172   9.449  11.329   0.208  1.8390  0.7593  2.7121
  446MOL0     H60173   9.278  11.298   0.212 -0.7589  0.5777 -0.1795
  446MOL0     H60174   9.148  11.766   0.351  0.9307 -1.1973 -1.1018
  446MOL0     H60175   8.976  11.918   0.261 -0.8177 -0.2834  2.5055
  446MOL0     H60176   8.675  11.949   0.334  0.7862  1.4479 -0.2709
  446MOL0     H60177   8.793  12.025   0.256 -0.4960  1.1801 -1.6135
  446MOL0     H60178   8.582  12.133   0.241  3.6733 -1.7076  3.0846
  446MOL0     H60179   8.638  12.096   0.074 -0.3118 -2.0672 -1.5112
  446MOL0     H60180   8.419  11.969   0.231  1.7307  0.2052  0.1855
  446MOL0     H60181   8.481  11.880   0.100 -0.2276 -0.5905  0.9945
  446MOL0     H60182   8.403  12.055  -0.052  0.5178  2.7146  0.2704
  446MOL0     H60183   8.277  11.983   0.054  0.1504 -1.5285  1.3297
  446MOL0     H60184   8.429  12.251   0.104 -1.0287  1.6243 -0.1466
  446MOL0     H60185   8.302  12.189   0.209  0.1706  0.5386 -0.2589
  446MOL0     H60186   8.297  12.303  -0.058  1.7104  0.3128  0.6429
  446MOL0     H60187   8.168  12.185  -0.024 -0.4345 -0.3238  0.1808
  446MOL0     H60188   8.239  12.452   0.128  0.0082  0.3785 -2.1030
  446MOL0     H60189   8.108  12.335   0.168  1.9182  0.0678  2.2980
  446MOL0     H60190   8.147  12.494  -0.088  0.8286 -0.9244 -0.0519
  446MOL0     H60191   8.030  12.541   0.034 -3.4367 -0.2979 -2.8929
  446MOL0     H60192   8.755  11.577   0.110 -1.8189 -0.4062  1.3432
  446MOL0     H60193   8.927  11.446   0.189 -1.1778  0.8225  0.8095
  446MOL0     H60194   9.172  11.368   0.692 -1.0336 -2.2884  1.3118
  446MOL0     H60195   9.364  11.256   0.801 -2.2522  3.5123  0.8052
  446MOL0     H60196  10.517  10.413   0.349  1.6106  2.0764  2.2650
  446MOL0     H60197  10.600  10.199   0.396  1.3778 -1.0698  0.6590
  446MOL0     H60198  11.014   9.916   0.223  0.9958 -1.9491 -1.4889
  446MOL0     H60199  11.131   9.709   0.260 -0.1294 -0.4031  0.9056
  446MOL0     H60200  11.056   9.460   0.280 -0.1490  4.2526 -1.6673
  446MOL0     H60201  11.217   9.527   0.299  0.7004 -0.8639  0.7063
  446MOL0     H60202  11.278   9.362   0.480 -1.8907  1.0607  1.3578
  446MOL0     H60203  11.269   9.310   0.308  1.3094  1.8357  0.5491
  446MOL0     H60204  11.046   9.241   0.349  0.0582 -2.9716  0.2541
  446MOL0     H60205  11.066   9.267   0.524 -0.9052 -0.2911 -1.3599
  446MOL0     H60206  11.192   9.077   0.310  1.4356 -2.2330  0.1017
  446MOL0     H60207  11.058   9.024   0.411  0.4985  0.5065  3.7890
  446MOL0     H60208  11.401   8.930   0.643 -1.5935 -3.7914 -1.0481
  446MOL0     H60209  10.941   9.643   0.631 -0.6825 -0.1889  0.3673
  446MOL0     H60210  10.807   9.841   0.603 -2.3939  0.9488 -2.2882
  447MOL0     O60211   5.609   7.928   8.340 -0.2073 -0.0561 -0.5534
  447MOL0     C60212   5.581   7.948   8.219  0.2539 -0.2294  0.0053
  447MOL0     O60213   5.463   7.969   8.164  0.5410  0.0416  0.3718
  447MOL0     C60214   5.345   7.981   8.231  0.8287  0.5099  1.0453
  447MOL0     C60215   5.330   7.976   8.370 -0.5530  0.0661 -0.3641
  447MOL0     C60216   5.212   8.012   8.433 -0.4679  0.7483  0.1268
  447MOL0     C60217   5.103   8.036   8.361 -0.0756 -0.3851 -0.2227
  447MOL0     O60218   4.984   8.064   8.418  0.5369  0.0189  0.5970
  447MOL0     C60219   4.914   7.945   8.462  0.1911  0.3394  0.8802
  447MOL0     C60220   4.770   7.977   8.491 -0.9462 -0.4523  0.0331
  447MOL0     C60221   4.686   7.851   8.531  1.0601  0.4497  0.3108
  447MOL0     C60222   4.534   7.867   8.524  0.3835  0.2861  0.1237
  447MOL0     C60223   4.478   7.850   8.379  0.2674  0.6675 -0.0157
  447MOL0     C60224   4.329   7.884   8.387 -0.6899 -0.1408 -0.1633
  447MOL0     C60225   4.281   7.861   8.240  0.1111 -0.3067 -0.0011
  447MOL0     C60226   4.137   7.904   8.215  0.1918  0.1832 -0.2932
  447MOL0     N60227   4.043   7.830   8.295  1.0348 -0.2900 -0.4771
  447MOL0     C60228   3.978   7.714   8.266 -0.1257 -0.4105 -0.6694
  447MOL0     C60229   3.909   7.681   8.380  0.1685 -0.5859  1.0593
  447MOL0     C60230   3.801   7.573   8.389 -0.2147 -0.1423 -0.2790
  447MOL0     C60231   3.680   7.630   8.466  0.3077  0.4205  0.7614
  447MOL0     C60232   3.623   7.759   8.399 -0.4462  0.0775 -0.5187
  447MOL0     C60233   3.481   7.772   8.423 -0.8992 -0.8605  0.6703
  447MOL0     O60234   3.432   7.881   8.350 -0.1281 -0.6773 -0.6072
  447MOL0     C60235   3.301   7.909   8.340  0.0480  0.7595  0.2491
  447MOL0     C60236   3.272   8.028   8.279  0.6733  0.7832 -0.4950
  447MOL0     C60237   3.142   8.081   8.263  0.7744  0.1031 -0.4913
  447MOL0     C60238   3.123   8.200   8.172 -0.2039 -0.1935  0.1637
  447MOL0     C60239   3.041   8.022   8.342  1.4573 -0.4162 -0.5824
  447MOL0     C60240   2.901   8.067   8.349  0.6839  0.2283 -0.3304
  447MOL0     O60241   2.807   7.986   8.391  0.3437  0.4285 -0.6295
  447MOL0     C60242   2.673   8.020   8.383 -0.2884  0.4297  0.2542
  447MOL0     C60243   2.619   8.140   8.434 -0.1061  0.5059 -0.3648
  447MOL0     C60244   2.485   8.169   8.439  0.2109 -0.0573  0.2599
  447MOL0     C60245   2.392   8.084   8.375 -0.1929  0.7720  0.0295
  447MOL0     O60246   2.256   8.110   8.366  0.5290 -0.2875  0.3175
  447MOL0     C60247   2.199   8.226   8.432  0.1222  0.2338 -0.3925
  447MOL0     C60248   2.059   8.238   8.391 -0.1314  0.0375 -0.1583
  447MOL0     C60249   2.038   8.293   8.248 -0.1958 -0.5030 -0.0330
  447MOL0     C60250   1.880   8.305   8.217  0.3574  0.6593  0.2850
  447MOL0     C60251   1.861   8.360   8.077  0.2348 -0.4380  0.0132
  447MOL0     C60252   1.720   8.422   8.053 -0.2620  0.2126 -0.1000
  447MOL0     C60253   1.603   8.318   8.073 -1.2427  0.7351 -0.1161
  447MOL0     C60254   1.467   8.337   8.003 -0.1481  0.1301  0.6411
  447MOL0    Cl60255   1.441   8.515   7.981  0.3104  0.4316  0.3778
  447MOL0     C60256   2.433   7.956   8.332  0.4220  1.4986  0.3779
  447MOL0     C60257   2.575   7.936   8.324 -0.3626  0.1883 -0.5507
  447MOL0     O60258   2.874   8.176   8.308  0.0271  0.1347  0.3985
  447MOL0     C60259   3.067   7.898   8.397 -0.3576  0.1073 -0.7908
  447MOL0     C60260   3.197   7.841   8.397 -0.0198 -0.1809  0.5074
  447MOL0     N60261   3.926   7.779   8.474 -0.2477  0.4137  0.3694
  447MOL0     N60262   4.027   7.854   8.431  0.3917 -0.3581  1.1665
  447MOL0     C60263   5.105   8.040   8.219  0.3172 -0.6106 -0.0720
  447MOL0     C60264   5.228   8.014   8.156 -0.2147 -0.4419  0.8555
  447MOL0     C60265   5.689   7.940   8.115 -0.8774 -0.0039 -0.3258
  447MOL0     C60266   5.813   7.880   8.155 -1.1141 -0.2296  0.1101
  447MOL0     C60267   5.908   7.856   8.057 -0.0344 -1.0438 -0.4538
  447MOL0     C60268   5.884   7.895   7.927  0.2316 -0.2160  0.5458
  447MOL0     O60269   5.970   7.871   7.823 -0.1059  0.1060  0.2101
  447MOL0     C60270   6.071   7.771   7.839  0.5032  0.6854 -0.4047
  447MOL0     C60271   5.991   7.643   7.793 -0.1261 -0.1506  0.1217
  447MOL0     C60272   5.979   7.633   7.636  0.2478 -0.2144 -0.1886
  447MOL0     C60273   5.900   7.507   7.582 -0.8832  0.2138  0.1230
  447MOL0     C60274   5.761   7.513   7.626  1.3235 -0.6949 -0.3975
  447MOL0     C60275   5.652   7.527   7.661  0.1519  0.2169 -0.1010
  447MOL0     C60276   5.764   7.949   7.885  0.7267 -0.3666 -0.1731
  447MOL0     C60277   5.659   7.978   7.978  0.0757  0.4960 -0.3508
  447MOL0     H60278   5.409   7.935   8.431 -1.8944 -2.5988 -0.2807
  447MOL0     H60279   5.192   8.016   8.540 -2.7038  0.8714 -0.2608
  447MOL0     H60280   4.910   7.871   8.381  3.7245  0.0533  0.8380
  447MOL0     H60281   4.965   7.891   8.543  1.3580 -2.2855 -1.4384
  447MOL0     H60282   4.787   8.044   8.576  2.9132 -1.0678 -0.1109
  447MOL0     H60283   4.724   8.012   8.398  0.5726 -0.8499 -0.8817
  447MOL0     H60284   4.702   7.768   8.461  1.1126 -0.2485  1.1376
  447MOL0     H60285   4.715   7.829   8.634  1.0791  0.9405  0.4146
  447MOL0     H60286   4.493   7.789   8.589 -1.1073  0.0784 -1.0166
  447MOL0     H60287   4.519   7.962   8.575  0.2963 -0.8391  2.3462
  447MOL0     H60288   4.530   7.916   8.310 -1.3650  1.7139 -0.2894
  447MOL0     H60289   4.483   7.745   8.350 -0.2104  0.4124  0.7847
  447MOL0     H60290   4.283   7.820   8.464  1.5480 -2.2509 -0.4438
  447MOL0     H60291   4.324   7.989   8.419 -4.0813 -0.7918  1.9832
  447MOL0     H60292   4.332   7.921   8.164 -1.4071 -0.0746 -0.8650
  447MOL0     H60293   4.290   7.756   8.212 -0.0544  0.3444 -2.7285
  447MOL0     H60294   4.120   7.893   8.108  2.5980 -0.4883 -0.6703
  447MOL0     H60295   4.122   8.009   8.245  0.2895 -0.3992  2.0349
  447MOL0     H60296   3.977   7.666   8.169  0.7311 -0.1552 -0.8112
  447MOL0     H60297   3.773   7.527   8.293 -1.8090  1.4292 -0.6239
  447MOL0     H60298   3.837   7.492   8.454 -3.2858 -1.1786  0.3057
  447MOL0     H60299   3.701   7.647   8.572  1.8547 -2.1609  0.9370
  447MOL0     H60300   3.601   7.554   8.464 -0.0168  0.7387 -1.8420
  447MOL0     H60301   3.643   7.769   8.292 -0.1761  1.1599 -0.3761
  447MOL0     H60302   3.671   7.833   8.465  2.2226 -1.6728 -0.3103
  447MOL0     H60303   3.474   7.796   8.529  1.0026 -2.7564  1.3036
  447MOL0     H60304   3.427   7.679   8.405 -1.7754 -0.1084 -0.8151
  447MOL0     H60305   3.365   8.077   8.251  0.7495  1.8441  1.4556
  447MOL0     H60306   3.053   8.170   8.094  0.4280  1.4863 -1.1028
  447MOL0     H60307   3.077   8.281   8.230  0.7428  1.0509 -0.7628
  447MOL0     H60308   3.213   8.233   8.120 -0.2626 -0.3549 -0.0384
  447MOL0     H60309   2.693   8.202   8.483  0.6737 -1.9104  1.7193
  447MOL0     H60310   2.449   8.259   8.488  1.4748 -0.8376  2.7758
  447MOL0     H60311   2.202   8.223   8.541 -6.0167  1.2965  0.1682
  447MOL0     H60312   2.261   8.313   8.407  2.5283 -1.1938  0.3622
  447MOL0     H60313   2.018   8.137   8.393 -1.5977  0.6099  1.2690
  447MOL0     H60314   2.004   8.292   8.469  1.5287  0.7513  0.5583
  447MOL0     H60315   2.068   8.214   8.178 -0.1667 -1.1592  0.7010
  447MOL0     H60316   2.082   8.391   8.226 -1.0219  0.0144  0.5575
  447MOL0     H60317   1.836   8.205   8.221 -0.4843  0.8915 -1.9010
  447MOL0     H60318   1.830   8.363   8.294 -4.2445 -1.6060 -0.6748
  447MOL0     H60319   1.896   8.292   7.999 -2.1494  1.7974 -3.2791
  447MOL0     H60320   1.922   8.451   8.077 -1.0013  0.4990  2.6494
  447MOL0     H60321   1.712   8.516   8.109  1.7475  1.0144 -1.0528
  447MOL0     H60322   1.723   8.452   7.948 -0.4950 -1.1245 -0.5081
  447MOL0     H60323   1.580   8.314   8.180  3.1791 -2.3993  0.9859
  447MOL0     H60324   1.637   8.218   8.045 -1.1293  1.3977 -2.6102
  447MOL0     H60325   1.396   8.285   8.068  1.3891 -2.9444  0.0412
  447MOL0     H60326   1.461   8.296   7.901 -1.3611  1.0456  0.3144
  447MOL0     H60327   2.362   7.897   8.275  1.3925 -1.4942  2.0519
  447MOL0     H60328   2.616   7.851   8.271  1.2933  0.1247  0.7519
  447MOL0     H60329   2.997   7.835   8.452  0.8147 -0.3222  0.2774
  447MOL0     H60330   3.206   7.749   8.454  1.6563 -1.1595 -1.2391
  447MOL0     H60331   5.011   8.075   8.177 -0.8348 -3.6820 -0.3342
  447MOL0     H60332   5.229   8.045   8.052 -0.7266  1.3643  1.3355
  447MOL0     H60333   5.819   7.838   8.255 -1.3216 -2.6498 -0.8391
  447MOL0     H60334   5.989   7.797   8.100 -1.9354 -0.5517  4.3662
  447MOL0     H60335   6.146   7.787   7.761 -0.4180  0.7247 -1.3055
  447MOL0     H60336   6.114   7.760   7.938  0.7784  0.7012 -0.5227
  447MOL0     H60337   5.892   7.637   7.840 -0.6257 -0.9004 -0.9881
  447MOL0     H60338   6.039   7.552   7.831  0.0739 -0.6716 -1.3068
  447MOL0     H60339   6.081   7.627   7.596 -0.0430 -1.2197 -0.8000
  447MOL0     H60340   5.924   7.721   7.601 -0.9051  0.2682  2.5565
  447MOL0     H60341   5.942   7.415   7.624  0.1939 -1.9758 -5.0587
  447MOL0     H60342   5.909   7.491   7.475  1.7614 -0.8851  0.4201
  447MOL0     H60343   5.554   7.554   7.693 -0.4951 -0.4376 -1.4641
  447MOL0     H60344   5.752   7.980   7.782  2.8221 -1.1369 -0.6900
  447MOL0     H60345   5.573   8.037   7.947 -0.7223  1.1411  2.7446
  448MOL0     O60346   8.598   2.545   1.454  0.7713 -0.2819 -0.6368
  448MOL0     C60347   8.589   2.667   1.465 -0.0325  0.3320  0.4701
  448MOL0     O60348   8.505   2.752   1.394  0.2864 -0.2503 -0.4693
  448MOL0     C60349   8.384   2.714   1.336  1.3563 -0.0739  0.3265
  448MOL0     C60350   8.332   2.580   1.319 -1.4395  0.3664 -0.6422
  448MOL0     C60351   8.209   2.556   1.255 -0.8192  0.5671  0.1411
  448MOL0     C60352   8.139   2.661   1.195 -0.1962  0.6901  0.3918
  448MOL0     O60353   8.017   2.638   1.129 -0.4166 -0.5145 -0.6178
  448MOL0     C60354   8.024   2.561   1.006  0.3036  0.2617 -0.1576
  448MOL0     C60355   7.891   2.527   0.944 -0.1764  0.2296 -0.0095
  448MOL0     C60356   7.836   2.391   1.004 -0.5784 -0.0936 -0.5375
  448MOL0     C60357   7.725   2.314   0.919  0.2904 -0.8273 -0.4063
  448MOL0     C60358   7.610   2.251   1.010  0.6571 -0.8781 -0.3797
  448MOL0     C60359   7.482   2.228   0.932  0.4999 -0.2553 -0.4554
  448MOL0     C60360   7.380   2.168   1.027  0.0571 -0.0342  0.6167
  448MOL0     C60361   7.234   2.223   0.988 -0.5345 -0.1715  0.4541
  448MOL0     N60362   7.134   2.165   1.075 -0.9171 -0.4777 -0.0640
  448MOL0     C60363   7.100   2.033   1.060  0.0106 -0.7980  0.2450
  448MOL0     C60364   7.040   1.994   1.178 -0.7210  0.3329  0.2686
  448MOL0     C60365   6.964   1.872   1.211  0.5791 -0.8368  0.8022
  448MOL0     C60366   6.840   1.867   1.109  0.7639 -0.1805 -0.5773
  448MOL0     C60367   6.732   1.775   1.169  0.4877  0.2890  0.5416
  448MOL0     C60368   6.597   1.813   1.100 -0.0154  0.5842 -0.3191
  448MOL0     O60369   6.546   1.947   1.133 -0.2228  0.3177  0.4081
  448MOL0     C60370   6.430   1.944   1.205  0.0548 -0.5876 -0.2251
  448MOL0     C60371   6.435   1.984   1.340  0.4702  0.4771  0.1815
  448MOL0     C60372   6.317   1.975   1.416 -0.4730 -0.2899 -0.1511
  448MOL0     C60373   6.324   2.036   1.559  0.5427  0.0223 -0.1027
  448MOL0     C60374   6.193   1.945   1.359  0.3093  0.3382 -0.7561
  448MOL0     C60375   6.061   1.955   1.440  0.0722  0.5677 -0.4505
  448MOL0     O60376   5.938   1.967   1.364  0.8935 -0.3964  0.2183
  448MOL0     C60377   5.815   1.960   1.437 -0.4162  0.4079  0.6197
  448MOL0     C60378   5.783   1.862   1.538 -0.2996 -0.9427 -0.1094
  448MOL0     C60379   5.668   1.870   1.604 -0.5655  0.1899  1.4990
  448MOL0     C60380   5.572   1.971   1.567  0.2235 -0.0919 -0.4512
  448MOL0     O60381   5.444   1.976   1.623  0.1709 -0.3238  0.4509
  448MOL0     C60382   5.339   1.942   1.535 -0.4610  0.1125  0.2896
  448MOL0     C60383   5.207   1.952   1.609  1.0180  0.4484 -0.7963
  448MOL0     C60384   5.154   2.098   1.609 -1.0501  0.0063  0.2116
  448MOL0     C60385   5.034   2.104   1.694 -0.1962 -0.2782 -1.2807
  448MOL0     C60386   4.909   2.070   1.612  0.6580 -0.4886 -0.6941
  448MOL0     C60387   4.860   2.207   1.557  1.3399  0.2668 -0.5728
  448MOL0     C60388   4.731   2.183   1.475 -0.0037  0.8463 -0.2999
  448MOL0     C60389   4.602   2.157   1.559  0.4723 -0.2723 -0.1588
  448MOL0    Cl60390   4.526   2.314   1.623 -0.0204  0.3086 -0.0779
  448MOL0     C60391   5.605   2.057   1.459 -0.3762  0.3364 -0.4987
  448MOL0     C60392   5.732   2.058   1.407 -0.4703  0.7088 -0.0023
  448MOL0     O60393   6.064   1.928   1.562 -0.0751  0.1719  0.4180
  448MOL0     C60394   6.193   1.909   1.224  0.0582 -0.1522 -0.2531
  448MOL0     C60395   6.310   1.905   1.154  0.7734  0.1892  0.1741
  448MOL0     N60396   7.049   2.104   1.267 -0.3643  0.0725  0.0961
  448MOL0     N60397   7.108   2.199   1.202  0.2832  0.4715  0.0608
  448MOL0     C60398   8.191   2.788   1.194  0.1607 -0.5133 -0.1133
  448MOL0     C60399   8.303   2.810   1.274 -0.3276 -0.5176  0.5439
  448MOL0     C60400   8.706   2.728   1.542  0.9913 -0.3291 -0.3352
  448MOL0     C60401   8.782   2.659   1.635  0.2529  0.4087 -0.9006
  448MOL0     C60402   8.877   2.721   1.710  0.0954 -0.0904  0.6030
  448MOL0     C60403   8.903   2.856   1.693  0.1478  0.7309  1.1915
  448MOL0     O60404   8.992   2.927   1.766  0.2105 -0.0203 -0.5853
  448MOL0     C60405   9.111   2.860   1.808  0.0989 -0.0807 -0.4568
  448MOL0     C60406   9.120   2.872   1.959 -0.7896  0.0107 -0.9198
  448MOL0     C60407   9.262   2.908   1.999  0.3007 -0.9236  0.4105
  448MOL0     C60408   9.271   2.918   2.151 -0.3317 -0.0789 -0.6091
  448MOL0     C60409   9.409   2.952   2.199 -1.1301  0.1485  0.1568
  448MOL0     C60410   9.527   2.951   2.223  0.3579  0.1639  0.8043
  448MOL0     C60411   8.839   2.927   1.590 -0.0749 -0.1914  0.8148
  448MOL0     C60412   8.732   2.869   1.518 -0.5203  0.6952  0.3985
  448MOL0     H60413   8.371   2.492   1.368 -2.0542 -0.2949 -1.3060
  448MOL0     H60414   8.172   2.455   1.247 -2.8428  1.3160 -0.8073
  448MOL0     H60415   8.093   2.609   0.935  0.4521  1.2348  0.6216
  448MOL0     H60416   8.066   2.463   1.030  0.6457 -1.1114 -5.1494
  448MOL0     H60417   7.825   2.613   0.962  0.4954  0.6147  0.6602
  448MOL0     H60418   7.890   2.510   0.836 -0.1759 -1.8744  0.2866
  448MOL0     H60419   7.922   2.325   1.018 -0.2762  0.4096  0.0352
  448MOL0     H60420   7.789   2.413   1.101 -2.0652  0.2387 -1.3051
  448MOL0     H60421   7.676   2.386   0.854 -1.4883  0.5348  2.2274
  448MOL0     H60422   7.780   2.237   0.866  3.0796 -0.3337  1.5434
  448MOL0     H60423   7.634   2.167   1.075 -1.9613  1.4225  4.0409
  448MOL0     H60424   7.581   2.331   1.079  4.0440  0.5191 -0.3817
  448MOL0     H60425   7.438   2.321   0.893 -3.1259 -1.3237  0.7446
  448MOL0     H60426   7.500   2.159   0.849 -1.5823 -1.1186 -0.2217
  448MOL0     H60427   7.378   2.060   1.014 -1.7706  0.0718 -0.3887
  448MOL0     H60428   7.407   2.190   1.130 -1.2815  2.4316  0.5218
  448MOL0     H60429   7.220   2.212   0.881  2.0978  1.0186 -0.1077
  448MOL0     H60430   7.220   2.331   1.001 -1.0452  0.2686 -3.0068
  448MOL0     H60431   7.109   1.986   0.963  0.1863  0.3567 -0.3076
  448MOL0     H60432   7.031   1.786   1.200  2.0384  0.1594  1.6372
  448MOL0     H60433   6.934   1.888   1.315 -3.8541  1.4861 -0.5838
  448MOL0     H60434   6.867   1.816   1.016  0.7547 -0.5118 -0.4005
  448MOL0     H60435   6.801   1.967   1.088  0.6860  0.6225  2.8201
  448MOL0     H60436   6.711   1.805   1.272 -2.3285 -1.3369  0.5125
  448MOL0     H60437   6.743   1.667   1.161 -0.3025  0.1852  0.8198
  448MOL0     H60438   6.522   1.739   1.129 -2.4421  2.5396 -1.2011
  448MOL0     H60439   6.613   1.794   0.994 -0.0224  2.0358 -0.6051
  448MOL0     H60440   6.527   2.023   1.383  1.3725 -1.9719  0.6351
  448MOL0     H60441   6.250   2.115   1.575 -1.9392 -2.2701  0.5255
  448MOL0     H60442   6.302   1.959   1.634  1.6874 -0.5783 -0.3686
  448MOL0     H60443   6.427   2.064   1.582  0.5918  2.2693 -2.6388
  448MOL0     H60444   5.857   1.786   1.558  2.6519  0.9188 -2.9723
  448MOL0     H60445   5.648   1.810   1.691 -1.8913  0.4245  1.3815
  448MOL0     H60446   5.334   2.013   1.452  2.0872  1.2608  0.9925
  448MOL0     H60447   5.339   1.837   1.504  1.3652 -0.2677  1.4236
  448MOL0     H60448   5.142   1.878   1.561 -0.4788  0.4696  1.0314
  448MOL0     H60449   5.208   1.917   1.713  2.1497 -0.7837 -1.2096
  448MOL0     H60450   5.133   2.123   1.505 -1.2194 -3.2066 -0.6358
  448MOL0     H60451   5.234   2.164   1.642 -0.4536 -0.3292 -0.5123
  448MOL0     H60452   5.045   2.039   1.782 -2.2766  0.3407 -0.4902
  448MOL0     H60453   5.020   2.206   1.731 -1.0868 -1.1775  1.0508
  448MOL0     H60454   4.831   2.033   1.679  0.4659  1.7246  0.4223
  448MOL0     H60455   4.934   2.001   1.531  0.2706  0.8418 -1.9940
  448MOL0     H60456   4.837   2.271   1.643  1.5573 -0.6584  0.1987
  448MOL0     H60457   4.942   2.250   1.500 -0.1098  1.9055 -1.4919
  448MOL0     H60458   4.739   2.101   1.403 -2.6880  0.6301 -0.4885
  448MOL0     H60459   4.722   2.270   1.409  0.6224  0.5657 -0.7611
  448MOL0     H60460   4.615   2.096   1.649  0.5653  2.6753  2.0008
  448MOL0     H60461   4.522   2.112   1.499  0.1089  1.2460 -0.8625
  448MOL0     H60462   5.542   2.142   1.438  1.5766  1.7191 -1.0033
  448MOL0     H60463   5.772   2.134   1.341  0.7165 -1.2586 -1.6543
  448MOL0     H60464   6.103   1.884   1.169 -0.5887 -1.1483  1.1829
  448MOL0     H60465   6.310   1.897   1.046  1.9396 -0.9521  0.2354
  448MOL0     H60466   8.147   2.880   1.156  0.0872 -0.5251 -0.0575
  448MOL0     H60467   8.331   2.914   1.289  1.8195 -0.5978 -2.0617
  448MOL0     H60468   8.752   2.557   1.654 -1.4185  1.1605  0.9443
  448MOL0     H60469   8.925   2.678   1.797  1.6664 -0.5184 -0.4310
  448MOL0     H60470   9.126   2.758   1.774  2.5320  0.8530 -2.4645
  448MOL0     H60471   9.198   2.912   1.767 -0.7675  0.6908 -1.3797
  448MOL0     H60472   9.088   2.781   2.010  1.1639 -0.1204  0.1762
  448MOL0     H60473   9.054   2.953   1.990 -2.5422 -2.3401  2.1259
  448MOL0     H60474   9.300   3.000   1.953 -3.2277  0.3282 -0.3527
  448MOL0     H60475   9.334   2.831   1.972  3.2977  0.4815  3.6632
  448MOL0     H60476   9.236   2.821   2.188  1.4606  0.4509  2.8846
  448MOL0     H60477   9.211   2.994   2.201 -0.1002 -2.1071  3.1268
  448MOL0     H60478   9.632   2.960   2.238  0.5119  4.6276 -1.1325
  448MOL0     H60479   8.865   3.030   1.567 -1.1350  0.0221  0.5000
  448MOL0     H60480   8.682   2.927   1.440 -3.5651  0.0925  1.7755
  449MOL0     O60481   2.505  10.688   2.164  0.9093 -0.3963 -0.5435
  449MOL0     C60482   2.578  10.612   2.233 -0.2625 -0.1756 -0.3769
  449MOL0     O60483   2.556  10.577   2.364 -0.4235 -0.5066  0.4089
  449MOL0     C60484   2.438  10.608   2.425  0.3710  1.0605  0.8353
  449MOL0     C60485   2.401  10.733   2.475 -0.2349  0.4364 -0.3003
  449MOL0     C60486   2.277  10.759   2.527 -0.3610 -0.6222  0.0821
  449MOL0     C60487   2.188  10.656   2.562  0.2661 -0.0046  0.0657
  449MOL0     O60488   2.070  10.676   2.626  0.3911 -0.3860  0.4081
  449MOL0     C60489   2.012  10.806   2.628 -0.3460  0.5644  0.2290
  449MOL0     C60490   1.863  10.802   2.622  0.8734 -0.3553  0.4635
  449MOL0     C60491   1.810  10.753   2.752 -0.1126  1.0061 -0.1061
  449MOL0     C60492   1.662  10.753   2.728 -0.0585 -0.0873 -0.5177
  449MOL0     C60493   1.584  10.693   2.844 -0.2205 -0.1928 -0.2252
  449MOL0     C60494   1.430  10.689   2.826 -0.5877  0.9231  0.2379
  449MOL0     C60495   1.343  10.664   2.952 -0.9812 -0.5690 -0.2697
  449MOL0     C60496   1.374  10.535   3.019 -0.5491  0.2339  0.7899
  449MOL0     N60497   1.276  10.515   3.131  0.3231  0.2277  0.2615
  449MOL0     C60498   1.297  10.567   3.258  0.4596  0.1508  0.1830
  449MOL0     C60499   1.199  10.509   3.330 -0.6747  0.6889 -0.0104
  449MOL0     C60500   1.177  10.531   3.468  0.6901 -0.4529 -0.7853
  449MOL0     C60501   1.079  10.651   3.483 -0.6213 -0.2747  0.8122
  449MOL0     C60502   0.946  10.621   3.413 -0.6654  0.2444  0.7195
  449MOL0     C60503   0.827  10.712   3.458  0.9493 -0.0656 -0.5468
  449MOL0     O60504   0.706  10.672   3.393  0.2157  0.4207 -0.2293
  449MOL0     C60505   0.588  10.731   3.417 -1.1423 -0.4252 -0.4416
  449MOL0     C60506   0.474  10.679   3.355  0.6962  0.2928 -0.1939
  449MOL0     C60507   0.346  10.732   3.383  1.5730  0.5172  0.2435
  449MOL0     C60508   0.228  10.658   3.316  0.3580  0.5632 -0.5159
  449MOL0     C60509   0.333  10.835   3.487  0.8037  0.0714 -0.1778
  449MOL0     C60510   0.199  10.890   3.542 -0.4901 -0.5773 -0.3096
  449MOL0     O60511   0.206  11.018   3.607  0.7278  0.2949 -0.3053
  449MOL0     C60512   0.082  11.059   3.657 -0.5580  0.6318  0.5452
  449MOL0     C60513   0.045  11.021   3.787  0.5989 -1.1430  0.4303
  449MOL0     C60514  -0.082  11.069   3.831 -0.5597  0.6471  0.1017
  449MOL0     C60515  -0.164  11.139   3.743  1.3802  0.2105 -0.4677
  449MOL0     O60516  -0.297  11.177   3.765  0.1424 -0.5534  0.2170
  449MOL0     C60517  -0.355  11.124   3.885  0.1734  0.3393 -0.4818
  449MOL0     C60518  -0.359  11.232   3.993 -0.4581 -1.9340  0.5984
  449MOL0     C60519  -0.383  11.190   4.137  0.1814 -0.2436  0.2241
  449MOL0     C60520  -0.379  11.311   4.229  0.2606 -0.6150 -0.0180
  449MOL0     C60521  -0.405  11.260   4.362  0.5144 -0.3358 -0.6966
  449MOL0     C60522  -0.394  11.362   4.471 -1.3867  0.1607  0.1991
  449MOL0     C60523  -0.372  11.308   4.613  0.4368 -0.7897 -0.9943
  449MOL0     C60524  -0.482  11.222   4.690  0.0132  0.0785 -0.6099
  449MOL0    Cl60525  -0.444  11.232   4.858 -0.3584 -0.0864 -0.0950
  449MOL0     C60526  -0.123  11.165   3.616  0.3736 -0.6688  0.0324
  449MOL0     C60527  -0.002  11.127   3.572 -0.2092  0.2589  0.0204
  449MOL0     O60528   0.105  10.813   3.556  0.0966 -0.1521  0.1691
  449MOL0     C60529   0.451  10.889   3.544  0.9654  0.0411  0.6649
  449MOL0     C60530   0.574  10.842   3.508  0.0350  0.3944 -0.4546
  449MOL0     N60531   1.130  10.421   3.249  0.2834 -0.3061  0.2408
  449MOL0     N60532   1.173  10.431   3.132  0.1756 -0.7905 -0.1161
  449MOL0     C60533   2.215  10.516   2.524 -0.6228 -0.2395 -0.0348
  449MOL0     C60534   2.345  10.501   2.449  0.1795 -0.2725 -0.9804
  449MOL0     C60535   2.711  10.578   2.177 -0.3116 -0.1947 -0.0551
  449MOL0     C60536   2.828  10.561   2.256  0.2997  0.0537  0.1972
  449MOL0     C60537   2.948  10.528   2.187  0.1768  0.3562 -0.0287
  449MOL0     C60538   2.960  10.509   2.048  0.3688 -0.0203 -0.1064
  449MOL0     O60539   3.087  10.475   2.001  0.2206 -0.0362  0.5097
  449MOL0     C60540   3.091  10.447   1.865  0.6859  0.1654  0.0144
  449MOL0     C60541   3.232  10.428   1.832  0.7984 -0.1285 -0.1565
  449MOL0     C60542   3.259  10.396   1.679  0.5522  0.2537 -0.4857
  449MOL0     C60543   3.409  10.382   1.643  0.3436 -0.5914 -0.2210
  449MOL0     C60544   3.448  10.291   1.532  0.7270 -0.2196  0.0548
  449MOL0     C60545   3.466  10.218   1.434 -0.8381 -0.6100 -0.0688
  449MOL0     C60546   2.839  10.523   1.976 -1.4338  0.0132  0.2907
  449MOL0     C60547   2.721  10.555   2.035 -0.2887 -0.0598  0.1177
  449MOL0     H60548   2.471  10.814   2.459  0.1314  0.1399 -0.2090
  449MOL0     H60549   2.254  10.857   2.566 -2.0776 -2.8499  5.7350
  449MOL0     H60550   2.036  10.859   2.720 -4.8364  2.3074  0.6252
  449MOL0     H60551   2.043  10.864   2.541  0.5539  0.2208  0.3082
  449MOL0     H60552   1.824  10.899   2.593  0.3953 -0.8595 -0.6339
  449MOL0     H60553   1.838  10.734   2.540  0.0375 -0.8858  1.1388
  449MOL0     H60554   1.825  10.646   2.769 -2.0438  1.0125  2.2462
  449MOL0     H60555   1.846  10.808   2.839  3.3140 -0.5243 -0.4016
  449MOL0     H60556   1.642  10.860   2.713 -2.0191 -0.4196 -0.4714
  449MOL0     H60557   1.640  10.689   2.643  0.6982 -0.4738 -0.4311
  449MOL0     H60558   1.627  10.596   2.872  0.8094  0.5772  1.0153
  449MOL0     H60559   1.601  10.765   2.925 -3.3958  3.1208 -2.2366
  449MOL0     H60560   1.395  10.786   2.790 -0.2929  2.1683  3.0537
  449MOL0     H60561   1.409  10.611   2.752  0.9765 -1.7744  2.4438
  449MOL0     H60562   1.367  10.743   3.024 -2.6834 -0.2465 -0.0092
  449MOL0     H60563   1.241  10.676   2.915 -0.4388  0.8060 -1.4084
  449MOL0     H60564   1.479  10.542   3.047  0.1876 -2.1181 -1.0364
  449MOL0     H60565   1.371  10.452   2.947 -0.1341  0.2755  0.7216
  449MOL0     H60566   1.368  10.636   3.302  1.0065 -1.5486  2.0973
  449MOL0     H60567   1.136  10.446   3.524 -0.0943  2.2078  3.0423
  449MOL0     H60568   1.270  10.558   3.520 -0.7285  0.2382  1.5547
  449MOL0     H60569   1.124  10.741   3.441  0.7338 -1.5744 -0.6896
  449MOL0     H60570   1.059  10.679   3.586 -0.0593  4.9264 -0.2454
  449MOL0     H60571   0.921  10.516   3.429  2.8369 -0.4651  2.5948
  449MOL0     H60572   0.943  10.628   3.304 -0.2925  2.4473  0.7986
  449MOL0     H60573   0.850  10.815   3.430  1.0727 -0.4662 -2.0201
  449MOL0     H60574   0.819  10.702   3.567 -2.8277  1.9171 -0.4943
  449MOL0     H60575   0.472  10.591   3.292 -1.8462  0.3987 -0.3617
  449MOL0     H60576   0.224  10.668   3.207 -1.4292 -0.2507 -0.5588
  449MOL0     H60577   0.240  10.551   3.336 -0.0907  0.5153 -0.4993
  449MOL0     H60578   0.130  10.690   3.352  0.6667  0.2792  0.6117
  449MOL0     H60579   0.117  10.965   3.845  0.4644 -2.9485 -1.0691
  449MOL0     H60580  -0.128  11.043   3.926  0.4054 -0.2820  0.3346
  449MOL0     H60581  -0.462  11.104   3.870 -1.0768  2.7848  3.4298
  449MOL0     H60582  -0.314  11.031   3.925 -0.8719  1.4661  3.8378
  449MOL0     H60583  -0.261  11.280   3.988 -1.4689  0.1322 -0.9897
  449MOL0     H60584  -0.437  11.306   3.972  0.6159 -0.6160  1.0361
  449MOL0     H60585  -0.310  11.112   4.163 -1.7860 -2.4918 -0.5438
  449MOL0     H60586  -0.474  11.128   4.141  1.4282 -2.1757  0.1617
  449MOL0     H60587  -0.282  11.362   4.222 -0.1625  0.1964 -0.1021
  449MOL0     H60588  -0.455  11.385   4.202  1.0692  0.1619 -0.2515
  449MOL0     H60589  -0.336  11.179   4.388 -1.6661 -2.5257 -1.2923
  449MOL0     H60590  -0.498  11.202   4.372  2.0877 -2.9670 -0.2700
  449MOL0     H60591  -0.315  11.433   4.443 -4.0754  3.1881 -0.4109
  449MOL0     H60592  -0.481  11.429   4.478 -1.1404  0.3560  1.7482
  449MOL0     H60593  -0.343  11.397   4.669 -1.2918 -0.7941 -0.0300
  449MOL0     H60594  -0.282  11.246   4.612  0.0824 -1.3044 -1.2765
  449MOL0     H60595  -0.482  11.115   4.668  0.8624  0.0009 -0.2942
  449MOL0     H60596  -0.581  11.264   4.671 -0.7994  0.2654  3.2513
  449MOL0     H60597  -0.194  11.205   3.544  0.1313 -1.4037 -0.1363
  449MOL0     H60598   0.022  11.151   3.469 -0.6469  0.6777  0.0142
  449MOL0     H60599   0.460  10.963   3.623 -0.4382  1.2046 -0.2168
  449MOL0     H60600   0.659  10.894   3.549  1.1471 -0.9502 -0.9678
  449MOL0     H60601   2.160  10.428   2.554  0.3163 -1.2981 -1.3006
  449MOL0     H60602   2.380  10.401   2.425  0.5068 -1.2473  2.8887
  449MOL0     H60603   2.814  10.585   2.361 -4.0974  1.8582 -0.5736
  449MOL0     H60604   3.039  10.511   2.243  0.2874 -1.2831 -0.6507
  449MOL0     H60605   3.035  10.357   1.837  3.1586 -1.6688  0.6800
  449MOL0     H60606   3.055  10.532   1.807  1.7779  1.2674  0.9046
  449MOL0     H60607   3.271  10.358   1.906 -2.3767  0.4566  2.2889
  449MOL0     H60608   3.286  10.518   1.863  3.1287 -0.6525 -2.3177
  449MOL0     H60609   3.206  10.475   1.626 -3.9006 -0.9928  1.5403
  449MOL0     H60610   3.201  10.304   1.661 -4.2153  2.1646  2.8690
  449MOL0     H60611   3.460  10.341   1.730 -0.3698  1.0187  1.0108
  449MOL0     H60612   3.439  10.486   1.623 -2.0894  0.3705  0.6431
  449MOL0     H60613   3.483  10.161   1.345  1.2130  0.8949 -0.6997
  449MOL0     H60614   2.847  10.520   1.868  0.9871  2.2708  0.3007
  449MOL0     H60615   2.630  10.573   1.979  1.0658  2.6751 -1.4135
  450MOL0     O60616   3.481   5.365   4.036 -0.0406  0.1633  0.8797
  450MOL0     C60617   3.502   5.357   4.160 -0.8163 -0.1716 -0.1533
  450MOL0     O60618   3.446   5.434   4.264  0.2314 -0.2080  0.3382
  450MOL0     C60619   3.353   5.521   4.212 -0.6618 -0.0745 -0.1501
  450MOL0     C60620   3.382   5.655   4.198 -0.0982 -0.5620  0.1562
  450MOL0     C60621   3.306   5.747   4.126  0.0255  0.1618 -0.2098
  450MOL0     C60622   3.192   5.700   4.078  0.6056  0.2081  0.1450
  450MOL0     O60623   3.107   5.776   4.004 -0.4157  0.7610  0.2686
  450MOL0     C60624   3.108   5.740   3.862 -0.8312  1.0342  1.1135
  450MOL0     C60625   3.036   5.835   3.771  0.3436 -0.0503  0.2889
  450MOL0     C60626   2.880   5.807   3.791  0.8029  0.8969  0.7627
  450MOL0     C60627   2.808   5.834   3.662  0.6925  0.7671 -0.0217
  450MOL0     C60628   2.657   5.770   3.664  0.3335  0.4694  0.2220
  450MOL0     C60629   2.632   5.658   3.765  0.2149 -0.5990 -0.0036
  450MOL0     C60630   2.501   5.582   3.756  0.0595 -0.2076  0.1890
  450MOL0     C60631   2.391   5.681   3.784 -0.1060 -0.3307 -0.0008
  450MOL0     N60632   2.267   5.605   3.808 -0.0580  0.8811 -0.2977
  450MOL0     C60633   2.194   5.527   3.715 -0.9421 -0.5782  0.6201
  450MOL0     C60634   2.083   5.498   3.786 -0.0120  0.3255  0.3219
  450MOL0     C60635   1.964   5.426   3.743  0.3447  0.2363  0.1203
  450MOL0     C60636   1.910   5.471   3.600  0.0602 -0.1837 -1.0620
  450MOL0     C60637   1.760   5.439   3.581 -0.1295 -0.0675 -0.2777
  450MOL0     C60638   1.701   5.462   3.444  0.3688 -0.2874  0.6383
  450MOL0     O60639   1.576   5.543   3.436  0.0311  0.7377 -0.1120
  450MOL0     C60640   1.469   5.494   3.513  0.3404 -0.6202 -0.2796
  450MOL0     C60641   1.371   5.581   3.568  0.4913 -0.0549  0.3381
  450MOL0     C60642   1.256   5.533   3.637  0.3790  0.7765  0.0651
  450MOL0     C60643   1.173   5.639   3.707 -0.0198 -0.1316 -0.3366
  450MOL0     C60644   1.240   5.395   3.669  0.4894  0.1874 -0.0322
  450MOL0     C60645   1.119   5.334   3.736  0.3368 -0.5727 -0.2589
  450MOL0     O60646   1.121   5.194   3.754  0.4388  0.8773 -0.3253
  450MOL0     C60647   0.999   5.141   3.788 -0.4512  0.6254 -0.3816
  450MOL0     C60648   0.959   5.144   3.919  0.3439 -1.1058 -0.4153
  450MOL0     C60649   0.827   5.093   3.948 -0.9693 -0.0319  0.1212
  450MOL0     C60650   0.744   5.040   3.849  0.0359  0.0129  0.2722
  450MOL0     O60651   0.614   5.013   3.867  0.6157  0.0858 -0.2812
  450MOL0     C60652   0.573   4.920   3.964 -0.4704 -0.1429 -0.5929
  450MOL0     C60653   0.427   4.873   3.929 -0.5062  0.2690 -0.6000
  450MOL0     C60654   0.326   4.973   3.984  0.4432 -0.5191  0.0632
  450MOL0     C60655   0.187   4.913   4.002  0.9578  0.4489  0.2868
  450MOL0     C60656   0.115   4.875   3.872  0.2497  0.2480 -0.0758
  450MOL0     C60657  -0.031   4.835   3.902  0.4926 -1.3123 -0.3263
  450MOL0     C60658  -0.120   4.956   3.875  0.2903 -1.1474  0.2935
  450MOL0     C60659  -0.259   4.937   3.931  0.7513 -0.3071  0.4093
  450MOL0    Cl60660  -0.250   4.978   4.097 -0.1197 -0.1244  1.0099
  450MOL0     C60661   0.789   5.028   3.720 -0.9359 -0.7859  0.0272
  450MOL0     C60662   0.917   5.073   3.692 -0.8137 -0.5925 -0.5324
  450MOL0     O60663   1.019   5.406   3.741  0.4440 -0.1765  0.4710
  450MOL0     C60664   1.334   5.318   3.611 -0.3427 -0.5274  0.2913
  450MOL0     C60665   1.436   5.358   3.531 -0.4502 -0.8164  0.9641
  450MOL0     N60666   2.101   5.531   3.917  0.8259 -0.1655 -0.7264
  450MOL0     N60667   2.209   5.599   3.930  0.2186 -0.7063  0.6241
  450MOL0     C60668   3.147   5.565   4.103 -0.7122 -0.3068 -0.1909
  450MOL0     C60669   3.232   5.473   4.161 -0.0666  0.5371 -0.2410
  450MOL0     C60670   3.596   5.266   4.221  0.2304 -0.7743 -0.1213
  450MOL0     C60671   3.593   5.229   4.356 -0.8007 -0.1299  0.0188
  450MOL0     C60672   3.690   5.130   4.403 -0.3430  0.0965 -0.1443
  450MOL0     C60673   3.792   5.083   4.321 -0.1443  0.8815 -0.0670
  450MOL0     O60674   3.882   4.981   4.350  0.4560 -0.0403  0.4171
  450MOL0     C60675   3.915   4.962   4.486 -0.0082 -0.3778  0.0474
  450MOL0     C60676   4.031   4.870   4.515 -0.3875  0.3414 -0.6745
  450MOL0     C60677   4.157   4.945   4.553  0.2845 -0.2335 -0.5843
  450MOL0     C60678   4.252   4.943   4.446 -0.9200  0.0363  0.5633
  450MOL0     C60679   4.227   5.040   4.334 -0.0566  0.2635  0.4655
  450MOL0     C60680   4.205   5.092   4.229 -0.7728 -0.5946 -0.6989
  450MOL0     C60681   3.790   5.122   4.187  0.5435  0.1812  0.1551
  450MOL0     C60682   3.688   5.210   4.140 -0.5125 -0.1510 -0.7692
  450MOL0     H60683   3.480   5.684   4.234  1.1916 -3.0328 -1.1234
  450MOL0     H60684   3.322   5.853   4.115  0.1290  0.1481 -0.1901
  450MOL0     H60685   3.209   5.720   3.826 -1.9316 -3.8162 -0.1517
  450MOL0     H60686   3.071   5.638   3.842  0.8269  0.5466  0.3653
  450MOL0     H60687   3.042   5.940   3.802  0.2286  0.0510 -0.0216
  450MOL0     H60688   3.074   5.812   3.671 -0.2144 -1.8969  0.4672
  450MOL0     H60689   2.869   5.705   3.828 -2.3427  1.4256  1.5493
  450MOL0     H60690   2.843   5.872   3.871 -1.4430 -2.1233  2.3686
  450MOL0     H60691   2.807   5.942   3.644 -2.3228  1.0677  1.3218
  450MOL0     H60692   2.856   5.796   3.572 -1.2089  1.3717 -1.3657
  450MOL0     H60693   2.604   5.862   3.691  0.6863  0.0709  2.5286
  450MOL0     H60694   2.639   5.739   3.561  1.2708  0.1481  0.1408
  450MOL0     H60695   2.696   5.570   3.752  1.4400  0.4299 -1.2475
  450MOL0     H60696   2.636   5.699   3.866  0.2467 -0.9687  0.1493
  450MOL0     H60697   2.487   5.529   3.661  0.4063  0.5814 -0.3060
  450MOL0     H60698   2.492   5.495   3.822 -2.4871 -0.2506 -0.1266
  450MOL0     H60699   2.371   5.742   3.695 -1.3057 -1.4619 -0.5337
  450MOL0     H60700   2.403   5.746   3.871  0.0611 -1.3875  0.7745
  450MOL0     H60701   2.220   5.497   3.614 -1.0597 -1.4837  0.8514
  450MOL0     H60702   1.986   5.319   3.733  1.3188  0.5798 -2.4011
  450MOL0     H60703   1.885   5.443   3.816  0.4599 -2.7438  1.0773
  450MOL0     H60704   1.978   5.436   3.521 -3.5152 -0.6989 -4.1788
  450MOL0     H60705   1.920   5.580   3.603  0.2678 -0.2192 -0.3225
  450MOL0     H60706   1.699   5.499   3.650 -1.4863 -0.9272 -0.6979
  450MOL0     H60707   1.739   5.336   3.609 -0.0896 -0.4525 -1.6141
  450MOL0     H60708   1.685   5.370   3.387  0.6188  0.4856 -0.7264
  450MOL0     H60709   1.775   5.519   3.386  1.4769 -1.6136  0.6991
  450MOL0     H60710   1.393   5.686   3.551  2.9760 -0.9500 -2.9436
  450MOL0     H60711   1.205   5.742   3.685 -1.6471  1.0236  2.1681
  450MOL0     H60712   1.066   5.634   3.687 -0.1115  1.5734 -0.4747
  450MOL0     H60713   1.186   5.622   3.815 -2.7956 -0.7384 -0.0233
  450MOL0     H60714   1.007   5.199   3.999 -3.9911  2.2852  0.2695
  450MOL0     H60715   0.776   5.103   4.043  1.2155 -1.4721  1.5342
  450MOL0     H60716   0.636   4.831   3.958 -1.5488 -1.2168  2.1704
  450MOL0     H60717   0.578   4.968   4.063  2.7437 -1.4359  0.0172
  450MOL0     H60718   0.414   4.872   3.820 -0.8072  4.2514 -0.7396
  450MOL0     H60719   0.411   4.774   3.972 -0.9702 -0.9156 -3.3212
  450MOL0     H60720   0.312   5.060   3.920 -1.7687 -0.5134  0.4852
  450MOL0     H60721   0.355   5.019   4.079 -2.5869  1.7970  0.0073
  450MOL0     H60722   0.186   4.835   4.078  0.6204  0.6937  0.5338
  450MOL0     H60723   0.125   4.991   4.047 -0.4526 -0.2212 -0.4147
  450MOL0     H60724   0.162   4.786   3.830  0.3699 -0.1773  0.9270
  450MOL0     H60725   0.120   4.956   3.798 -1.1756  0.8934  0.4871
  450MOL0     H60726  -0.070   4.749   3.846 -1.3951 -0.5306 -0.2892
  450MOL0     H60727  -0.042   4.794   4.003 -0.2540 -2.7432 -0.9549
  450MOL0     H60728  -0.139   4.968   3.768 -1.9011 -2.6118  0.4643
  450MOL0     H60729  -0.083   5.055   3.903 -1.4781 -0.2930 -0.2384
  450MOL0     H60730  -0.300   4.838   3.908 -0.6140  0.9657 -3.5192
  450MOL0     H60731  -0.332   5.002   3.883 -1.2047 -2.6660  0.0013
  450MOL0     H60732   0.725   4.985   3.643 -1.4802  0.1467 -0.0517
  450MOL0     H60733   0.958   5.048   3.594  0.3993 -3.4686  0.5832
  450MOL0     H60734   1.333   5.214   3.642  1.2693 -2.1443 -4.2816
  450MOL0     H60735   1.492   5.283   3.476  0.3240 -1.3802  2.4675
  450MOL0     H60736   3.053   5.538   4.055 -0.2812  0.3366 -1.4358
  450MOL0     H60737   3.201   5.369   4.163 -0.5029  0.6306 -1.3925
  450MOL0     H60738   3.519   5.276   4.421  0.1911 -1.3413  2.1224
  450MOL0     H60739   3.682   5.093   4.504 -2.2271 -0.2892 -0.3954
  450MOL0     H60740   3.942   5.051   4.544 -1.2098 -1.1826  1.9299
  450MOL0     H60741   3.826   4.923   4.537 -0.5067 -1.1472 -1.3556
  450MOL0     H60742   4.031   4.799   4.432 -0.3200 -3.5136  2.3162
  450MOL0     H60743   4.002   4.804   4.597  1.1909  0.2983 -0.1116
  450MOL0     H60744   4.204   4.900   4.642 -0.8094 -1.4620 -0.6051
  450MOL0     H60745   4.132   5.048   4.580 -1.1551  0.4480 -4.0133
  450MOL0     H60746   4.263   4.838   4.419  1.0526  0.2442  0.3629
  450MOL0     H60747   4.347   4.974   4.491 -0.8674 -3.0349  2.8637
  450MOL0     H60748   4.184   5.147   4.140 -3.2727 -0.0110  0.1874
  450MOL0     H60749   3.863   5.092   4.112 -0.0131  0.6187 -0.5697
  450MOL0     H60750   3.692   5.233   4.034 -2.4731  0.9693 -0.6394
  451MOL0     O60751   7.759  10.923   6.215  0.5365 -0.0692 -0.4921
  451MOL0     C60752   7.850  10.959   6.142  0.0796 -0.0185  0.3534
  451MOL0     O60753   7.838  11.026   6.019 -0.3264 -0.6996  0.2130
  451MOL0     C60754   7.728  11.087   5.969  0.6620  0.6617 -0.4489
  451MOL0     C60755   7.748  11.200   5.891 -0.3787  0.0329 -0.0071
  451MOL0     C60756   7.636  11.280   5.849  0.5574 -0.0562  0.2688
  451MOL0     C60757   7.505  11.221   5.867 -0.5429 -0.1146  0.1005
  451MOL0     O60758   7.384  11.277   5.834  0.3507  0.2243 -0.0043
  451MOL0     C60759   7.377  11.422   5.839  0.0452 -0.3145  0.2798
  451MOL0     C60760   7.235  11.467   5.881  0.2674 -0.7893 -0.2994
  451MOL0     C60761   7.242  11.617   5.891  0.0905  0.4386  0.1603
  451MOL0     C60762   7.104  11.669   5.919 -0.0325 -0.0055  0.1530
  451MOL0     C60763   7.018  11.710   5.794 -0.3754 -0.1479 -0.8256
  451MOL0     C60764   6.871  11.734   5.840  0.2818  0.0251 -0.6045
  451MOL0     C60765   6.778  11.812   5.745 -0.2528  0.3594 -0.9882
  451MOL0     C60766   6.815  11.959   5.773  0.1995  0.4039  0.0778
  451MOL0     N60767   6.726  12.037   5.686 -0.4048  0.5394 -0.2883
  451MOL0     C60768   6.627  12.116   5.733  0.6298 -0.1328  0.2167
  451MOL0     C60769   6.597  12.206   5.636  0.4274  0.1527  0.5221
  451MOL0     C60770   6.496  12.321   5.625  0.3613  0.4902  0.4475
  451MOL0     C60771   6.557  12.451   5.557 -0.6743 -0.5854  0.8141
  451MOL0     C60772   6.676  12.520   5.627  0.1825  1.3751 -0.7564
  451MOL0     C60773   6.660  12.548   5.783 -0.4395 -0.0185 -0.2109
  451MOL0     O60774   6.526  12.611   5.825  0.0060 -0.5151 -0.4233
  451MOL0     C60775   6.516  12.745   5.799 -0.6332  0.6840 -0.0633
  451MOL0     C60776   6.597  12.834   5.720 -0.6574  0.6648  0.8617
  451MOL0     C60777   6.570  12.967   5.709  0.2330  0.6078 -0.5926
  451MOL0     C60778   6.672  13.049   5.632  0.0659  1.0116  0.0085
  451MOL0     C60779   6.447  13.020   5.754 -0.4810  0.3553  0.0314
  451MOL0     C60780   6.396  13.157   5.722  0.0036 -0.6248  0.3151
  451MOL0     O60781   6.312  13.203   5.807  0.2859 -0.5004 -0.0435
  451MOL0     C60782   6.245  13.324   5.789  0.1762  0.4647  0.4466
  451MOL0     C60783   6.217  13.388   5.913  0.6193  0.1026  0.4345
  451MOL0     C60784   6.129  13.495   5.920 -0.0560 -0.2693  0.3601
  451MOL0     C60785   6.064  13.538   5.801 -0.5333  0.5772  0.6531
  451MOL0     O60786   5.949  13.620   5.812  0.3307  0.0679 -0.2583
  451MOL0     C60787   5.863  13.626   5.701 -0.2435 -1.1168 -0.0364
  451MOL0     C60788   5.737  13.712   5.719 -0.4082 -0.4213  0.9971
  451MOL0     C60789   5.626  13.653   5.806  0.0721  0.7101  0.4843
  451MOL0     C60790   5.508  13.748   5.813 -0.2681  0.1503  0.4986
  451MOL0     C60791   5.398  13.690   5.897  0.2653 -0.8042 -0.1049
  451MOL0     C60792   5.267  13.698   5.827  0.4203 -0.2104  0.3454
  451MOL0     C60793   5.157  13.648   5.922 -0.6523  0.2182 -0.1068
  451MOL0     C60794   5.026  13.643   5.851 -0.3637 -0.0175  0.1660
  451MOL0    Cl60795   4.906  13.550   5.959 -0.0011  0.0068  0.1664
  451MOL0     C60796   6.105  13.481   5.675  1.1144 -0.0017 -0.0852
  451MOL0     C60797   6.191  13.374   5.673 -0.0399  0.5853  0.8233
  451MOL0     O60798   6.441  13.214   5.621 -0.7797  0.0246  1.3731
  451MOL0     C60799   6.375  12.942   5.839 -0.2384  0.3020 -0.2738
  451MOL0     C60800   6.406  12.804   5.867  0.2572 -0.6383  0.2981
  451MOL0     N60801   6.692  12.179   5.531 -0.1048 -0.2117 -0.3496
  451MOL0     N60802   6.772  12.077   5.568 -0.1076 -0.0190  0.4515
  451MOL0     C60803   7.496  11.091   5.923  1.0523 -0.4949 -0.8312
  451MOL0     C60804   7.598  11.033   5.991 -0.6467 -0.2414  0.7511
  451MOL0     C60805   7.989  10.907   6.176  0.2953  0.0104  0.3907
  451MOL0     C60806   8.010  10.794   6.251 -0.5542  0.6280 -0.5739
  451MOL0     C60807   8.132  10.742   6.287 -0.1167  0.4632 -0.3854
  451MOL0     C60808   8.251  10.807   6.235  1.0588 -0.0463  0.4683
  451MOL0     O60809   8.364  10.735   6.258 -0.2180  0.0265 -0.3165
  451MOL0     C60810   8.496  10.771   6.219 -0.2043  0.0413 -0.5415
  451MOL0     C60811   8.587  10.651   6.228  0.2090  1.0205  1.0600
  451MOL0     C60812   8.666  10.659   6.351 -0.6855  0.6424  0.1027
  451MOL0     C60813   8.774  10.550   6.361  0.7618 -0.5333  0.0854
  451MOL0     C60814   8.730  10.410   6.348  0.1649 -0.1867 -0.3977
  451MOL0     C60815   8.703  10.293   6.339 -0.6181  0.3573  0.0326
  451MOL0     C60816   8.240  10.916   6.152 -0.9276 -0.3882 -0.3219
  451MOL0     C60817   8.107  10.966   6.129 -1.0360  0.3802  0.1449
  451MOL0     H60818   7.842  11.248   5.866 -1.4011  1.3320 -1.6049
  451MOL0     H60819   7.663  11.380   5.817  2.3232 -0.3124  0.8725
  451MOL0     H60820   7.447  11.454   5.916  0.5471 -1.1703  0.1890
  451MOL0     H60821   7.399  11.457   5.738 -1.3817  0.2048  0.1171
  451MOL0     H60822   7.150  11.432   5.822  0.7373  1.0468 -2.1759
  451MOL0     H60823   7.222  11.432   5.983 -0.0118  0.4949  0.1230
  451MOL0     H60824   7.312  11.649   5.969 -0.2532  0.9747  0.2536
  451MOL0     H60825   7.281  11.666   5.801 -1.5764  0.9038 -0.3411
  451MOL0     H60826   7.040  11.598   5.974 -3.5332  1.8745 -1.1668
  451MOL0     H60827   7.123  11.758   5.980 -0.1885  0.7661 -0.8974
  451MOL0     H60828   7.068  11.797   5.749 -1.0118  1.5390  1.5516
  451MOL0     H60829   7.020  11.634   5.715 -1.8842 -1.0544 -0.0319
  451MOL0     H60830   6.829  11.636   5.863 -1.6019  0.9267  0.0581
  451MOL0     H60831   6.873  11.780   5.940  4.2274  0.8927 -0.9153
  451MOL0     H60832   6.793  11.791   5.638 -1.5188 -0.9291 -0.9483
  451MOL0     H60833   6.675  11.803   5.779 -0.5673  1.1066 -1.7015
  451MOL0     H60834   6.917  11.978   5.739 -0.4299 -0.9776 -2.9899
  451MOL0     H60835   6.801  11.993   5.876 -0.4364 -2.1035  0.8969
  451MOL0     H60836   6.575  12.110   5.828 -0.1111 -0.5045 -0.2080
  451MOL0     H60837   6.409  12.291   5.566  0.8794 -0.0917 -0.0218
  451MOL0     H60838   6.466  12.329   5.730  1.6984 -1.4139  1.0218
  451MOL0     H60839   6.480  12.529   5.551  1.3744  1.4611 -1.5747
  451MOL0     H60840   6.583  12.427   5.453  1.3950  2.4173  0.4844
  451MOL0     H60841   6.701  12.611   5.571  0.2914  0.4794 -2.1937
  451MOL0     H60842   6.760  12.450   5.616 -1.5313 -1.1854  1.1556
  451MOL0     H60843   6.741  12.611   5.821  0.5134 -2.0974  1.4777
  451MOL0     H60844   6.672  12.449   5.829  4.5975  0.3876 -0.0248
  451MOL0     H60845   6.691  12.806   5.673 -1.2429  2.1309 -1.3124
  451MOL0     H60846   6.773  13.009   5.622  0.0276  0.6764  0.8562
  451MOL0     H60847   6.640  13.058   5.528  1.4632  0.4127 -0.4971
  451MOL0     H60848   6.686  13.141   5.689  0.6768  0.1217  1.3564
  451MOL0     H60849   6.253  13.342   6.004  0.0712 -0.9312  0.1368
  451MOL0     H60850   6.092  13.538   6.013 -0.1257  2.8750 -1.0224
  451MOL0     H60851   5.915  13.659   5.611 -2.2018  0.9879 -0.5019
  451MOL0     H60852   5.823  13.525   5.684 -3.0375 -0.1488  0.2429
  451MOL0     H60853   5.778  13.806   5.758  0.5380 -0.4492  0.1116
  451MOL0     H60854   5.709  13.732   5.615 -0.8937 -2.0387  0.7931
  451MOL0     H60855   5.681  13.636   5.899  0.0956  1.7372  0.6735
  451MOL0     H60856   5.587  13.561   5.762 -0.1057 -0.1217  2.2864
  451MOL0     H60857   5.536  13.846   5.850 -1.9197  0.3982  1.1970
  451MOL0     H60858   5.484  13.766   5.708  6.2339  1.7682 -1.1455
  451MOL0     H60859   5.383  13.759   5.980 -1.5301 -0.1891 -0.8906
  451MOL0     H60860   5.426  13.591   5.936  2.5944 -0.8302 -1.6127
  451MOL0     H60861   5.255  13.806   5.812 -0.3007 -0.2967  0.2825
  451MOL0     H60862   5.288  13.647   5.733  3.5439  0.2742  0.6807
  451MOL0     H60863   5.144  13.720   6.004  2.2577  4.0835 -2.6649
  451MOL0     H60864   5.184  13.548   5.957  1.3605  0.1985 -1.5630
  451MOL0     H60865   5.034  13.588   5.757 -0.3875  0.9870 -0.4331
  451MOL0     H60866   4.996  13.742   5.817 -1.8894 -0.3620  0.4015
  451MOL0     H60867   6.068  13.508   5.576 -0.0170  2.6850  0.9712
  451MOL0     H60868   6.225  13.333   5.579 -0.1484  1.5163  0.3652
  451MOL0     H60869   6.279  12.980   5.872 -0.9096 -1.6797  0.1696
  451MOL0     H60870   6.342  12.739   5.925  2.2069 -1.1885  1.9290
  451MOL0     H60871   7.400  11.042   5.913 -0.0508  0.7054  2.6210
  451MOL0     H60872   7.595  10.943   6.050  3.8933 -2.1500 -1.4448
  451MOL0     H60873   7.926  10.739   6.292  0.8049  0.5404  2.3489
  451MOL0     H60874   8.150  10.655   6.349 -1.2128  0.1627 -0.4686
  451MOL0     H60875   8.498  10.811   6.117 -0.7842 -1.5443 -1.2000
  451MOL0     H60876   8.528  10.854   6.283 -1.6688  2.5561 -2.8389
  451MOL0     H60877   8.650  10.668   6.141 -0.0599 -0.9551  0.4206
  451MOL0     H60878   8.541  10.552   6.216  0.5284  1.1859 -2.5242
  451MOL0     H60879   8.593  10.649   6.432 -0.2819  1.4820  0.5850
  451MOL0     H60880   8.713  10.757   6.359 -0.0402  0.2392  1.5003
  451MOL0     H60881   8.822  10.559   6.459  4.9201 -0.3327 -1.7618
  451MOL0     H60882   8.848  10.574   6.283 -0.6328 -3.2103 -2.2516
  451MOL0     H60883   8.705  10.190   6.311  2.4485 -0.0653  1.4443
  451MOL0     H60884   8.328  10.963   6.109  0.6605 -1.9924  1.0155
  451MOL0     H60885   8.118  11.053   6.064  0.1514 -0.8724 -1.4197
  452MOL0     O60886   8.884   5.110   6.453  0.4193 -0.0796  0.0454
  452MOL0     C60887   8.859   5.011   6.384  0.4352 -0.4832 -0.4502
  452MOL0     O60888   8.729   4.982   6.354 -0.3185  0.5371  0.2018
  452MOL0     C60889   8.618   5.041   6.402  0.5241  1.1048 -0.7351
  452MOL0     C60890   8.606   5.166   6.455 -0.3247 -0.0167  0.1191
  452MOL0     C60891   8.473   5.198   6.489 -0.1919  0.9630 -0.4605
  452MOL0     C60892   8.359   5.111   6.480  0.0665 -1.1761  0.1834
  452MOL0     O60893   8.230   5.148   6.522  0.4378 -0.4932  0.1058
  452MOL0     C60894   8.195   5.095   6.646 -0.3770  0.1202 -1.3710
  452MOL0     C60895   8.046   5.120   6.685 -0.2572  0.8361  0.5006
  452MOL0     C60896   8.036   5.275   6.709 -0.7096  0.0211 -0.6667
  452MOL0     C60897   7.889   5.313   6.759 -0.1289  0.3847  0.2999
  452MOL0     C60898   7.853   5.454   6.766  0.7697 -0.5271  0.0844
  452MOL0     C60899   7.705   5.491   6.807  0.2859  0.9879  0.4874
  452MOL0     C60900   7.613   5.543   6.695 -1.0605 -0.2139  0.3665
  452MOL0     C60901   7.463   5.535   6.732  0.2653 -0.2416 -1.0367
  452MOL0     N60902   7.400   5.405   6.699  0.3643 -0.7774  0.1325
  452MOL0     C60903   7.447   5.277   6.726 -0.9369  0.1188 -0.4016
  452MOL0     C60904   7.341   5.194   6.708  0.6361  0.4094 -0.6768
  452MOL0     C60905   7.338   5.043   6.730  0.2571  0.8022  0.9061
  452MOL0     C60906   7.227   4.972   6.639  0.0660 -0.5415 -0.4848
  452MOL0     C60907   7.085   4.977   6.688 -0.0837  0.2426 -0.4860
  452MOL0     C60908   7.066   4.898   6.817  0.8105 -0.5083 -0.1865
  452MOL0     O60909   7.015   4.979   6.921  0.1541  0.0865 -0.2400
  452MOL0     C60910   6.880   4.996   6.939  0.3637  0.1112 -1.1361
  452MOL0     C60911   6.784   4.958   6.848  0.4451 -0.1014  0.0349
  452MOL0     C60912   6.643   4.968   6.880  0.7672 -0.5082  0.2242
  452MOL0     C60913   6.539   4.922   6.777  0.9962 -0.1115 -0.5548
  452MOL0     C60914   6.605   5.009   7.010  0.1325  0.1623 -0.1209
  452MOL0     C60915   6.470   5.031   7.058 -0.2469  0.4854 -0.3516
  452MOL0     O60916   6.454   5.061   7.191  0.0659 -0.4868  0.0021
  452MOL0     C60917   6.332   5.099   7.226 -0.3291 -0.4747 -0.7181
  452MOL0     C60918   6.243   5.018   7.297  0.4119 -0.3437  0.2999
  452MOL0     C60919   6.111   5.066   7.326 -0.1273 -0.2689 -0.2496
  452MOL0     C60920   6.065   5.189   7.278 -0.2143  0.0628 -0.0823
  452MOL0     O60921   5.931   5.219   7.300 -0.9444 -0.5580 -0.1099
  452MOL0     C60922   5.878   5.335   7.247 -0.1830  0.2042  1.0623
  452MOL0     C60923   5.742   5.353   7.299  0.0015  0.9046  0.4912
  452MOL0     C60924   5.702   5.498   7.274  0.3178 -0.0555  0.6196
  452MOL0     C60925   5.549   5.504   7.241  0.4927  0.5913 -0.8306
  452MOL0     C60926   5.456   5.434   7.347 -0.1767  0.5903 -0.2583
  452MOL0     C60927   5.306   5.486   7.334 -0.8537  0.6407  0.3515
  452MOL0     C60928   5.239   5.444   7.199  1.1452 -0.2634 -0.4487
  452MOL0     C60929   5.223   5.294   7.169 -0.4174 -0.0756 -0.1447
  452MOL0    Cl60930   5.084   5.280   7.054  0.0728  0.4578 -0.3004
  452MOL0     C60931   6.153   5.268   7.209 -0.5984  0.2105  0.3870
  452MOL0     C60932   6.289   5.222   7.191  0.4201 -0.6816 -0.8261
  452MOL0     O60933   6.379   5.035   6.974  0.2730  0.5426 -0.0332
  452MOL0     C60934   6.709   5.033   7.105  0.0136 -0.1964  0.0618
  452MOL0     C60935   6.843   5.027   7.068  0.3485  0.5949 -0.6169
  452MOL0     N60936   7.232   5.271   6.670  0.1384  0.1902  0.2005
  452MOL0     N60937   7.269   5.391   6.657  0.9248  0.2699 -0.5351
  452MOL0     C60938   8.388   4.983   6.429 -0.1441  0.6344  0.4882
  452MOL0     C60939   8.516   4.948   6.396 -0.9447 -0.8069 -0.4005
  452MOL0     C60940   8.978   4.943   6.333 -0.7023  0.5983 -0.1687
  452MOL0     C60941   9.113   4.983   6.361  0.0955 -0.0745  0.8540
  452MOL0     C60942   9.232   4.913   6.326 -0.3678 -0.5520 -0.2632
  452MOL0     C60943   9.215   4.799   6.245  0.5707 -0.0385  0.4036
  452MOL0     O60944   9.329   4.732   6.209  0.6819  0.5181  0.3388
  452MOL0     C60945   9.312   4.595   6.157 -0.5045  0.7101 -0.3637
  452MOL0     C60946   9.448   4.532   6.124  0.5000 -0.2117  0.6765
  452MOL0     C60947   9.559   4.559   6.233  0.8425 -1.4528  0.0681
  452MOL0     C60948   9.697   4.529   6.179  0.1066 -0.5457 -0.7289
  452MOL0     C60949   9.741   4.637   6.088 -0.4911  0.3677 -0.6586
  452MOL0     C60950   9.758   4.731   6.019  0.8200  0.6911  0.2055
  452MOL0     C60951   9.088   4.756   6.218 -0.7353  0.2000  0.1948
  452MOL0     C60952   8.971   4.824   6.258 -0.5648  1.2142  0.0956
  452MOL0     H60953   8.691   5.233   6.466 -1.3281  1.6587 -1.6867
  452MOL0     H60954   8.446   5.294   6.531  0.1444  0.4338  1.0411
  452MOL0     H60955   8.208   4.987   6.640 -1.2513 -0.0886  0.0811
  452MOL0     H60956   8.262   5.118   6.730 -0.0899 -1.3725 -1.1710
  452MOL0     H60957   7.988   5.100   6.594  3.4110 -1.7707 -1.5246
  452MOL0     H60958   8.010   5.058   6.768 -1.6686 -0.3720 -0.9351
  452MOL0     H60959   8.110   5.298   6.786 -0.2680 -2.0982 -0.4070
  452MOL0     H60960   8.053   5.325   6.613  2.2909 -0.5611 -0.5505
  452MOL0     H60961   7.820   5.259   6.694  0.4754 -0.2277  0.1491
  452MOL0     H60962   7.869   5.274   6.859  1.5430  0.7877  0.8192
  452MOL0     H60963   7.917   5.502   6.841  0.7927 -0.4502  0.0162
  452MOL0     H60964   7.883   5.509   6.677  1.2406 -2.6173 -1.1108
  452MOL0     H60965   7.656   5.408   6.858  0.1605  0.8792  0.1964
  452MOL0     H60966   7.708   5.571   6.881 -0.2157  0.2216  1.3491
  452MOL0     H60967   7.637   5.649   6.682 -0.7722 -0.1628  1.2358
  452MOL0     H60968   7.622   5.486   6.602 -2.5636  0.0913  0.0082
  452MOL0     H60969   7.407   5.614   6.682  1.6405  1.0030 -0.6853
  452MOL0     H60970   7.456   5.542   6.841 -2.1435  1.1316 -1.2241
  452MOL0     H60971   7.540   5.251   6.777 -2.5637 -2.5626  1.4508
  452MOL0     H60972   7.432   5.002   6.694 -0.8399  0.8953 -2.3782
  452MOL0     H60973   7.328   5.020   6.837 -4.3216  0.7060  0.6571
  452MOL0     H60974   7.243   4.864   6.632 -2.9867 -1.0502 -1.3107
  452MOL0     H60975   7.239   5.009   6.537 -1.5192 -0.1514 -0.5627
  452MOL0     H60976   7.021   4.924   6.616  0.3089  0.2340 -0.8330
  452MOL0     H60977   7.053   5.076   6.721  1.5990  0.3773  0.8745
  452MOL0     H60978   7.159   4.859   6.860  1.3058  1.3744  0.5105
  452MOL0     H60979   6.999   4.812   6.804 -0.7458  0.5254  0.6853
  452MOL0     H60980   6.814   4.924   6.750 -0.3246 -2.5306  0.5888
  452MOL0     H60981   6.485   5.007   6.733 -1.9589 -1.4956  0.1464
  452MOL0     H60982   6.589   4.872   6.693 -0.5028 -0.1554 -1.4575
  452MOL0     H60983   6.471   4.848   6.820  1.2296 -0.0910 -0.1486
  452MOL0     H60984   6.285   4.922   7.326  1.5705  0.2623  0.6564
  452MOL0     H60985   6.036   5.000   7.368  2.4322 -4.2545 -1.4427
  452MOL0     H60986   5.948   5.414   7.278 -0.5953  0.5707  1.0741
  452MOL0     H60987   5.880   5.329   7.138  1.0945 -0.1689  1.0925
  452MOL0     H60988   5.677   5.288   7.241  1.0561  0.6434 -0.4462
  452MOL0     H60989   5.739   5.338   7.407  2.4722  2.6222  0.8849
  452MOL0     H60990   5.762   5.549   7.198 -1.1122 -1.6896 -1.7167
  452MOL0     H60991   5.724   5.554   7.366  3.3876  1.8052 -1.0650
  452MOL0     H60992   5.519   5.608   7.225  0.4575  0.3746 -2.3382
  452MOL0     H60993   5.533   5.459   7.142 -0.4338 -1.2917  0.1261
  452MOL0     H60994   5.501   5.458   7.444 -0.6360  0.8229 -0.0977
  452MOL0     H60995   5.453   5.325   7.340  2.1125  0.5584 -2.1503
  452MOL0     H60996   5.244   5.448   7.415 -0.2296  0.0571  0.5651
  452MOL0     H60997   5.304   5.595   7.340  0.5340  0.6592  1.0110
  452MOL0     H60998   5.293   5.487   7.115  3.4443 -0.2811  0.9500
  452MOL0     H60999   5.142   5.495   7.209 -1.1657 -3.6631 -3.0441
  452MOL0     H61000   5.206   5.243   7.264  1.0385  2.1770  1.4214
  452MOL0     H61001   5.317   5.264   7.121 -1.1719 -2.9115 -0.0268
  452MOL0     H61002   6.141   5.370   7.174 -1.5290  0.3123  0.9805
  452MOL0     H61003   6.340   5.288   7.122 -0.5119  1.4342  0.4183
  452MOL0     H61004   6.683   5.049   7.209 -0.7620  0.0526 -0.1655
  452MOL0     H61005   6.909   5.058   7.148 -1.3926 -0.0282  1.1535
  452MOL0     H61006   8.303   4.916   6.423  1.8587 -2.2862  2.1538
  452MOL0     H61007   8.545   4.847   6.371 -0.6900 -0.8172 -0.0740
  452MOL0     H61008   9.115   5.082   6.407 -3.1415 -0.8487  2.9681
  452MOL0     H61009   9.333   4.943   6.352  0.3346 -2.8000 -0.1374
  452MOL0     H61010   9.257   4.540   6.234  0.8111 -1.1313 -0.6904
  452MOL0     H61011   9.257   4.589   6.063  0.6232 -1.5003 -0.9398
  452MOL0     H61012   9.476   4.566   6.024  0.2857 -4.6625 -1.1715
  452MOL0     H61013   9.430   4.425   6.109  0.4009 -0.2555  1.1058
  452MOL0     H61014   9.545   4.491   6.318 -2.8992 -1.7205 -0.6125
  452MOL0     H61015   9.563   4.662   6.269 -1.3918 -0.1625 -2.9844
  452MOL0     H61016   9.704   4.434   6.125  2.0112 -0.6402 -0.4126
  452MOL0     H61017   9.776   4.515   6.254 -0.2407  0.6233 -0.1133
  452MOL0     H61018   9.784   4.814   5.957 -0.2752  0.3955 -0.6815
  452MOL0     H61019   9.073   4.664   6.161  1.2252  0.6377 -1.1130
  452MOL0     H61020   8.880   4.782   6.216 -1.1261  0.6968  1.7363
  453MOL0     O61021   2.567   7.243   3.013  0.4069 -0.3887 -0.1200
  453MOL0     C61022   2.642   7.282   3.103  0.5091 -0.1963 -0.0139
  453MOL0     O61023   2.624   7.246   3.232  0.3365 -0.4589 -0.7615
  453MOL0     C61024   2.504   7.187   3.261  0.4483  0.3255 -0.0297
  453MOL0     C61025   2.488   7.048   3.241  0.0906 -0.5710  0.2469
  453MOL0     C61026   2.365   6.992   3.261 -0.5286 -0.3054  0.8377
  453MOL0     C61027   2.246   7.061   3.295  0.2870 -0.3341 -0.5088
  453MOL0     O61028   2.123   7.005   3.300 -0.2511 -0.5229 -1.0008
  453MOL0     C61029   2.010   7.082   3.335  0.0769 -0.1042  0.1653
  453MOL0     C61030   1.883   7.004   3.291  0.3405  1.1167 -1.0402
  453MOL0     C61031   1.761   7.040   3.382 -0.7806  0.5143 -0.1709
  453MOL0     C61032   1.636   6.971   3.330  0.3047 -0.4678  1.0683
  453MOL0     C61033   1.512   7.017   3.410 -0.1860 -0.5286  0.4958
  453MOL0     C61034   1.383   6.971   3.344 -0.0011 -0.5879 -0.2587
  453MOL0     C61035   1.259   7.034   3.407 -0.1688 -0.1847 -0.2106
  453MOL0     C61036   1.123   6.997   3.343 -0.1346 -0.0146  0.2360
  453MOL0     N61037   1.100   6.854   3.334 -0.1686  0.0734 -0.7230
  453MOL0     C61038   1.020   6.790   3.430  0.7538  0.5131  0.4947
  453MOL0     C61039   0.980   6.671   3.372  0.3152 -0.6337  0.3621
  453MOL0     C61040   0.888   6.573   3.440  0.2612 -0.0838 -0.1620
  453MOL0     C61041   0.746   6.603   3.391 -0.9653  0.0419  0.2387
  453MOL0     C61042   0.720   6.580   3.245 -0.1754 -0.2269 -0.3192
  453MOL0     C61043   0.581   6.611   3.202  0.5848  0.0244  0.2331
  453MOL0     O61044   0.488   6.513   3.247 -0.8033  0.3889 -0.0448
  453MOL0     C61045   0.366   6.502   3.185  0.0537  0.0370  0.5924
  453MOL0     C61046   0.311   6.612   3.108  0.7014 -0.5169  0.1872
  453MOL0     C61047   0.187   6.602   3.038  0.6721  0.6020  0.0371
  453MOL0     C61048   0.129   6.731   2.961 -0.2742  1.0983  0.0366
  453MOL0     C61049   0.119   6.475   3.040 -0.3743 -0.2419  0.6629
  453MOL0     C61050  -0.007   6.468   2.957 -0.3292 -0.3376  0.3770
  453MOL0     O61051  -0.108   6.531   3.008  0.0003  0.7132  0.6354
  453MOL0     C61052  -0.220   6.545   2.920 -0.8065 -0.6681 -0.2030
  453MOL0     C61053  -0.234   6.673   2.854  0.6895 -0.4435 -0.4681
  453MOL0     C61054  -0.351   6.692   2.775 -0.3203  0.1811 -0.3656
  453MOL0     C61055  -0.440   6.584   2.745 -0.4344  0.6080  0.2679
  453MOL0     O61056  -0.566   6.597   2.696  0.2639 -0.3177  0.1165
  453MOL0     C61057  -0.598   6.718   2.627  0.6545  0.1787 -0.0982
  453MOL0     C61058  -0.751   6.721   2.587 -0.4984  0.7284  0.3483
  453MOL0     C61059  -0.808   6.600   2.514  0.6566 -0.0007 -0.7904
  453MOL0     C61060  -0.955   6.598   2.490  0.1589 -0.8241 -0.7264
  453MOL0     C61061  -0.987   6.471   2.414  0.2092  0.0571 -0.1124
  453MOL0     C61062  -1.133   6.456   2.378  0.7682  0.7641  0.0787
  453MOL0     C61063  -1.174   6.304   2.386  0.0577 -0.2130 -0.7286
  453MOL0     C61064  -1.317   6.284   2.319 -0.2018 -0.1774  0.5087
  453MOL0    Cl61065  -1.446   6.388   2.386 -0.1266 -0.5300 -0.0603
  453MOL0     C61066  -0.408   6.457   2.802  0.1503 -0.4139 -0.1790
  453MOL0     C61067  -0.299   6.441   2.884 -0.0943  0.0744  0.0254
  453MOL0     O61068  -0.002   6.413   2.849  0.2797  0.0119  0.0859
  453MOL0     C61069   0.160   6.373   3.123 -0.4529 -0.0127  0.6437
  453MOL0     C61070   0.283   6.390   3.194 -0.1149 -0.3871  0.6094
  453MOL0     N61071   1.054   6.643   3.258 -0.1064 -0.8551 -0.0040
  453MOL0     N61072   1.122   6.759   3.234 -0.6747 -0.7084 -0.2940
  453MOL0     C61073   2.275   7.208   3.317 -0.0027 -0.3833  0.8793
  453MOL0     C61074   2.397   7.261   3.300 -1.5175  0.2125  0.5349
  453MOL0     C61075   2.740   7.387   3.070  0.1000 -0.4367  0.4668
  453MOL0     C61076   2.790   7.482   3.161  0.0246 -0.5528 -0.0342
  453MOL0     C61077   2.890   7.577   3.123  0.3653 -0.2967  0.5375
  453MOL0     C61078   2.936   7.592   2.987 -0.0372  0.3283  0.3701
  453MOL0     O61079   3.046   7.671   2.970  0.0032  1.0593 -0.3859
  453MOL0     C61080   3.049   7.735   2.844  0.1594 -0.1521 -0.2249
  453MOL0     C61081   3.093   7.882   2.860  0.2753  0.9267 -0.2278
  453MOL0     C61082   2.967   7.951   2.916 -0.7154  0.4383  0.7654
  453MOL0     C61083   2.979   8.101   2.895 -0.0419 -0.3169 -0.3524
  453MOL0     C61084   2.863   8.162   2.962 -0.5927 -0.1645 -0.3105
  453MOL0     C61085   2.774   8.219   3.019  0.5749 -0.6396  0.6785
  453MOL0     C61086   2.892   7.490   2.895  0.4060  0.2370 -0.1058
  453MOL0     C61087   2.797   7.397   2.938  0.0444 -0.3652 -0.3693
  453MOL0     H61088   2.569   6.987   3.202 -0.3982 -2.4963  2.0220
  453MOL0     H61089   2.365   6.895   3.214 -1.3056  0.2762 -0.4135
  453MOL0     H61090   2.017   7.103   3.442  1.7538  3.0216 -0.4470
  453MOL0     H61091   2.004   7.181   3.288  0.4176 -0.8228 -1.4680
  453MOL0     H61092   1.876   7.028   3.184 -1.1039  1.8148 -0.8069
  453MOL0     H61093   1.903   6.896   3.299 -0.8848  0.9792  0.8845
  453MOL0     H61094   1.785   7.015   3.485 -1.5058 -2.1405 -0.5732
  453MOL0     H61095   1.748   7.149   3.379 -0.2838  0.5661 -0.9010
  453MOL0     H61096   1.619   7.000   3.227 -0.9418 -1.5387  0.9370
  453MOL0     H61097   1.647   6.862   3.337 -2.8699 -1.0391 -0.9431
  453MOL0     H61098   1.511   6.971   3.509 -3.3234 -2.4160 -0.2722
  453MOL0     H61099   1.507   7.126   3.414 -2.7372 -0.5817  0.1693
  453MOL0     H61100   1.381   7.001   3.239 -3.9535  0.0010 -0.1782
  453MOL0     H61101   1.381   6.861   3.348  0.1232 -0.5824  3.4037
  453MOL0     H61102   1.268   7.009   3.513 -0.1249  1.2070  0.1349
  453MOL0     H61103   1.263   7.142   3.386  0.3534 -0.7655 -3.6393
  453MOL0     H61104   1.125   7.016   3.235  0.3820 -1.0506  0.0520
  453MOL0     H61105   1.043   7.057   3.389 -1.3790 -0.6951 -0.9643
  453MOL0     H61106   0.970   6.831   3.517  0.7234  2.4412 -0.3737
  453MOL0     H61107   0.907   6.468   3.416 -0.4392 -0.4332  0.7517
  453MOL0     H61108   0.886   6.587   3.548 -2.2643  1.8052 -0.3497
  453MOL0     H61109   0.709   6.705   3.408  3.6548  1.7449  1.5720
  453MOL0     H61110   0.674   6.540   3.445  0.5487 -2.9804 -1.0484
  453MOL0     H61111   0.738   6.477   3.215  0.0110  0.2142 -1.7903
  453MOL0     H61112   0.791   6.638   3.186  0.8610 -0.2883  0.8211
  453MOL0     H61113   0.583   6.622   3.093  1.0004  0.9103  0.3280
  453MOL0     H61114   0.553   6.710   3.238  2.7647  0.4481  0.8589
  453MOL0     H61115   0.362   6.708   3.106  0.4196 -0.3478  0.8079
  453MOL0     H61116   0.022   6.747   2.974 -0.1363  2.8130 -0.6495
  453MOL0     H61117   0.175   6.822   3.001  1.4078  0.7304 -0.9690
  453MOL0     H61118   0.150   6.707   2.856  0.9132 -2.9520  1.0281
  453MOL0     H61119  -0.166   6.750   2.888  2.4726 -2.0485 -0.2197
  453MOL0     H61120  -0.377   6.795   2.751 -0.9138 -0.2638 -1.7475
  453MOL0     H61121  -0.569   6.805   2.686  2.3749  0.1192 -0.7956
  453MOL0     H61122  -0.539   6.717   2.534  0.9890  0.6508  0.1066
  453MOL0     H61123  -0.812   6.722   2.678 -0.3463  2.0498  0.4488
  453MOL0     H61124  -0.776   6.816   2.539 -1.4834  0.6234  0.6331
  453MOL0     H61125  -0.801   6.507   2.572  0.7510 -0.9802 -2.3059
  453MOL0     H61126  -0.754   6.591   2.419 -2.7811  0.9814 -2.9884
  453MOL0     H61127  -1.010   6.619   2.582 -2.1458 -0.6100 -2.0689
  453MOL0     H61128  -0.973   6.689   2.433 -2.0168 -0.1717  0.8648
  453MOL0     H61129  -0.956   6.390   2.481 -0.9633 -0.2056  0.1287
  453MOL0     H61130  -0.925   6.455   2.325  2.1331 -1.3317  1.3842
  453MOL0     H61131  -1.195   6.513   2.449  0.6630 -0.6298  1.1455
  453MOL0     H61132  -1.141   6.497   2.277 -1.9126 -0.1158 -0.1410
  453MOL0     H61133  -1.163   6.261   2.486 -0.6129  0.7833 -0.2154
  453MOL0     H61134  -1.104   6.254   2.318  3.0144 -0.2491  2.0939
  453MOL0     H61135  -1.351   6.181   2.314 -0.0482 -0.5399  4.0971
  453MOL0     H61136  -1.303   6.320   2.217 -2.2308 -0.4386  0.1139
  453MOL0     H61137  -0.475   6.372   2.788 -3.1524  1.7898  1.0271
  453MOL0     H61138  -0.273   6.345   2.927  2.7425  1.1036  0.8339
  453MOL0     H61139   0.101   6.282   3.119 -3.3843  1.8128 -0.7896
  453MOL0     H61140   0.320   6.310   3.257 -0.6909 -1.3168 -0.2119
  453MOL0     H61141   2.192   7.273   3.345 -1.2251 -2.7499  3.2116
  453MOL0     H61142   2.419   7.367   3.310  2.4156 -0.4615  0.5840
  453MOL0     H61143   2.757   7.490   3.264 -1.9664  3.4722 -0.8031
  453MOL0     H61144   2.929   7.651   3.192 -0.0349  1.1586 -0.7464
  453MOL0     H61145   3.134   7.690   2.793 -0.6463 -3.4663  1.0808
  453MOL0     H61146   2.955   7.736   2.788 -0.6550  0.0479  1.1033
  453MOL0     H61147   3.126   7.919   2.762  0.2669 -0.6131 -0.8296
  453MOL0     H61148   3.185   7.888   2.920 -0.7395  0.0914  1.4792
  453MOL0     H61149   2.976   7.924   3.022  2.7018 -2.0502  0.0097
  453MOL0     H61150   2.870   7.917   2.878 -0.9265  2.7976 -1.0217
  453MOL0     H61151   2.975   8.131   2.790  2.4604  1.0316 -0.1287
  453MOL0     H61152   3.075   8.143   2.925 -0.4401  1.1345 -0.9991
  453MOL0     H61153   2.695   8.270   3.070 -1.6662 -2.8998 -0.3116
  453MOL0     H61154   2.928   7.492   2.793  1.9271  2.9909  0.3621
  453MOL0     H61155   2.764   7.325   2.865  0.2929  0.7723 -1.6468
  454MOL0     O61156   9.731   6.574   3.304  0.6904 -1.0627  0.0330
  454MOL0     C61157   9.819   6.517   3.244  0.9620  0.1770 -0.3063
  454MOL0     O61158   9.804   6.444   3.127  0.5548 -0.1928  0.1520
  454MOL0     C61159   9.671   6.447   3.076  0.6875 -0.5492 -0.0109
  454MOL0     C61160   9.595   6.336   3.083  1.1582 -0.3417 -0.0327
  454MOL0     C61161   9.471   6.332   3.019  0.1145 -0.3723 -0.0092
  454MOL0     C61162   9.421   6.443   2.953 -0.3355 -0.8178  0.6463
  454MOL0     O61163   9.304   6.445   2.880  0.2906  0.0165 -0.0066
  454MOL0     C61164   9.248   6.319   2.845  0.2056  0.3123  0.0019
  454MOL0     C61165   9.159   6.331   2.727  0.2068 -0.3894 -0.5744
  454MOL0     C61166   9.041   6.412   2.758  0.7117 -0.1631  0.0466
  454MOL0     C61167   8.950   6.345   2.860  0.8865 -0.8836 -0.5801
  454MOL0     C61168   8.912   6.203   2.829 -0.3302 -0.8679 -0.9001
  454MOL0     C61169   8.782   6.138   2.883  0.1020 -0.3410  0.2343
  454MOL0     C61170   8.657   6.189   2.806  0.8512  0.4858 -0.1905
  454MOL0     C61171   8.551   6.091   2.853 -0.3994 -0.2153 -0.1926
  454MOL0     N61172   8.409   6.120   2.826  0.6198 -1.0922 -0.6042
  454MOL0     C61173   8.357   6.249   2.837  0.7309  0.1654 -0.3009
  454MOL0     C61174   8.227   6.232   2.800 -0.0783 -0.1236 -0.6239
  454MOL0     C61175   8.138   6.358   2.807  0.4322 -0.4586  0.0399
  454MOL0     C61176   7.996   6.346   2.744  0.2951  0.4964 -0.7830
  454MOL0     C61177   7.988   6.362   2.596  0.2083 -0.9010  0.2463
  454MOL0     C61178   8.086   6.284   2.511  0.2469  0.8109 -0.1854
  454MOL0     O61179   8.195   6.371   2.479  0.1465  0.1592 -0.4432
  454MOL0     C61180   8.283   6.335   2.377 -0.0521  0.4753 -1.0507
  454MOL0     C61181   8.269   6.224   2.285 -0.1190 -0.2265 -0.3629
  454MOL0     C61182   8.361   6.186   2.187 -0.8059 -0.0162  1.2669
  454MOL0     C61183   8.342   6.055   2.112 -0.3138 -0.0912  0.5830
  454MOL0     C61184   8.476   6.268   2.172 -0.4725 -0.2715  0.3500
  454MOL0     C61185   8.581   6.248   2.063 -0.1849  0.4495 -0.3041
  454MOL0     O61186   8.705   6.309   2.091  0.2172 -0.6000 -0.0426
  454MOL0     C61187   8.816   6.293   2.005 -0.2699 -0.1834 -0.6703
  454MOL0     C61188   8.940   6.357   2.039 -0.0746  0.2242  0.5050
  454MOL0     C61189   9.061   6.338   1.975 -0.1675  0.5852 -0.5253
  454MOL0     C61190   9.073   6.227   1.885 -0.1973 -0.4229  0.1493
  454MOL0     O61191   9.190   6.185   1.825 -0.2972  0.2656 -0.4653
  454MOL0     C61192   9.309   6.201   1.905  0.3887  0.9526 -0.3540
  454MOL0     C61193   9.320   6.095   2.020  0.7312  0.2008 -0.2619
  454MOL0     C61194   9.293   5.955   1.974 -0.8167 -0.1163 -0.0801
  454MOL0     C61195   9.313   5.848   2.085 -0.3835  0.3124  0.0600
  454MOL0     C61196   9.210   5.736   2.072 -0.3703 -0.7132 -0.0603
  454MOL0     C61197   9.218   5.647   1.952  0.2117  0.3269  0.6392
  454MOL0     C61198   9.118   5.529   1.963  0.3185 -0.1579 -0.1205
  454MOL0     C61199   8.976   5.583   1.992 -0.0156 -0.1664  0.9154
  454MOL0    Cl61200   8.915   5.719   1.895  0.1342 -0.1925 -0.0289
  454MOL0     C61201   8.953   6.152   1.854  0.2451  0.2583 -0.6548
  454MOL0     C61202   8.825   6.188   1.909  0.8877 -0.6472  0.1218
  454MOL0     O61203   8.545   6.200   1.956  0.2670  0.0779 -0.5962
  454MOL0     C61204   8.497   6.381   2.262  0.8129 -1.2642 -0.3001
  454MOL0     C61205   8.399   6.411   2.355  0.8205 -0.5227 -0.9974
  454MOL0     N61206   8.204   6.094   2.786 -0.0197 -0.2461 -0.7244
  454MOL0     N61207   8.309   6.033   2.803 -0.1619 -0.6550  0.0470
  454MOL0     C61208   9.508   6.561   2.952  0.4008 -0.2112 -0.0133
  454MOL0     C61209   9.633   6.567   3.013  0.9576  0.2817 -0.5852
  454MOL0     C61210   9.956   6.515   3.299 -0.4142 -1.0290 -0.7877
  454MOL0     C61211   9.978   6.547   3.431  0.2926  0.6719 -0.4109
  454MOL0     C61212  10.109   6.536   3.490  0.0649  0.1854  0.2381
  454MOL0     C61213  10.213   6.485   3.408 -0.0377 -0.0619  0.0012
  454MOL0     O61214  10.338   6.473   3.469  0.3908 -0.2798 -0.0641
  454MOL0     C61215  10.424   6.366   3.431 -0.4574  0.6644 -0.4060
  454MOL0     C61216  10.454   6.296   3.568  1.0883  0.0373 -0.5176
  454MOL0     C61217  10.316   6.248   3.638  0.4666 -0.3648  0.3107
  454MOL0     C61218  10.342   6.165   3.752 -0.2883  0.5614 -0.5316
  454MOL0     C61219  10.253   6.190   3.856  0.6170  0.4638  0.3872
  454MOL0     C61220  10.159   6.204   3.938  0.0870 -0.1535  0.2745
  454MOL0     C61221  10.191   6.450   3.275 -0.1366 -0.2507 -0.3343
  454MOL0     C61222  10.064   6.470   3.214 -0.1825  0.3160 -1.1301
  454MOL0     H61223   9.636   6.257   3.145 -1.2149 -0.7404  1.1794
  454MOL0     H61224   9.421   6.236   3.015  0.6795 -0.7885  1.8272
  454MOL0     H61225   9.335   6.256   2.826  0.5657  0.9216 -0.4180
  454MOL0     H61226   9.202   6.273   2.933  0.9570 -1.1829 -0.3492
  454MOL0     H61227   9.202   6.378   2.638 -0.7644  2.8088  0.5019
  454MOL0     H61228   9.144   6.233   2.679  0.1799 -0.2149 -0.9256
  454MOL0     H61229   9.070   6.509   2.800 -0.4992  1.4748 -2.6462
  454MOL0     H61230   8.984   6.414   2.664  2.1448  1.9944 -0.8379
  454MOL0     H61231   8.991   6.356   2.960 -0.3783  1.8963 -0.2634
  454MOL0     H61232   8.862   6.410   2.867  1.9663  0.5673 -0.1978
  454MOL0     H61233   8.914   6.196   2.720  0.6744  0.5641 -0.9967
  454MOL0     H61234   8.992   6.133   2.853  0.9129 -0.0326 -2.4059
  454MOL0     H61235   8.798   6.031   2.870 -0.1297 -0.2747 -0.6217
  454MOL0     H61236   8.784   6.164   2.990 -0.2222  1.0994 -0.0863
  454MOL0     H61237   8.634   6.296   2.813  2.7170  0.8419  1.4625
  454MOL0     H61238   8.667   6.168   2.700  2.1873 -2.2511  0.3932
  454MOL0     H61239   8.564   6.078   2.961  0.6671  1.9652 -0.0114
  454MOL0     H61240   8.576   6.002   2.794 -0.7179  0.8921 -2.1005
  454MOL0     H61241   8.393   6.351   2.845 -1.5658  0.9521  1.2703
  454MOL0     H61242   8.122   6.377   2.914 -0.2567 -0.3779 -0.0733
  454MOL0     H61243   8.180   6.449   2.764  1.2631  1.9321  5.2083
  454MOL0     H61244   7.945   6.431   2.790  2.6629  1.9188 -0.6302
  454MOL0     H61245   7.953   6.251   2.777 -0.2131  0.6181 -1.0870
  454MOL0     H61246   8.003   6.470   2.583  0.0442 -0.7527  1.2344
  454MOL0     H61247   7.884   6.353   2.563  0.1913 -1.1933  0.3781
  454MOL0     H61248   8.028   6.242   2.428 -1.6755 -3.2434  2.8445
  454MOL0     H61249   8.123   6.195   2.564  0.0447 -0.6414 -2.3509
  454MOL0     H61250   8.192   6.147   2.282  1.0168 -1.3687 -1.3857
  454MOL0     H61251   8.295   5.983   2.180  1.0499 -1.0782  0.5187
  454MOL0     H61252   8.275   6.062   2.025 -0.5964  0.1062  0.8132
  454MOL0     H61253   8.437   6.015   2.076  1.1842  3.1548  0.6701
  454MOL0     H61254   8.941   6.430   2.119  0.0861 -0.2569  0.9532
  454MOL0     H61255   9.150   6.382   2.020  1.6108 -2.5407 -0.7078
  454MOL0     H61256   9.390   6.184   1.833  0.0167 -1.0697 -0.3733
  454MOL0     H61257   9.336   6.299   1.944 -0.3054 -0.4607  4.3822
  454MOL0     H61258   9.413   6.099   2.077 -1.6532  2.0713  4.0426
  454MOL0     H61259   9.241   6.109   2.094  0.2756 -0.9314 -0.5163
  454MOL0     H61260   9.365   5.926   1.896  0.3290  0.6901  0.6385
  454MOL0     H61261   9.190   5.952   1.939 -0.3769  0.7693 -1.5575
  454MOL0     H61262   9.418   5.817   2.080  0.2478  1.7569  2.6393
  454MOL0     H61263   9.291   5.888   2.184 -1.6302  2.1478 -0.9088
  454MOL0     H61264   9.114   5.790   2.075 -0.0166 -0.1236  1.0888
  454MOL0     H61265   9.217   5.678   2.165 -0.8470  0.0142  0.4433
  454MOL0     H61266   9.188   5.704   1.863 -1.2599 -2.7059 -0.9700
  454MOL0     H61267   9.321   5.619   1.930 -0.3964 -0.2008 -1.8165
  454MOL0     H61268   9.150   5.458   2.039  0.6637  1.1544  0.9961
  454MOL0     H61269   9.129   5.477   1.867  4.4768  3.5089 -1.9627
  454MOL0     H61270   8.970   5.613   2.098  1.4434 -2.7844  1.8254
  454MOL0     H61271   8.907   5.500   1.976 -1.3279  0.9610  0.5135
  454MOL0     H61272   8.956   6.056   1.804 -0.8845 -0.4704  0.6130
  454MOL0     H61273   8.748   6.112   1.896 -0.0680  0.0912  1.2664
  454MOL0     H61274   8.577   6.452   2.244 -2.1164  2.5933  0.6610
  454MOL0     H61275   8.415   6.491   2.426 -1.4860 -2.7006  2.2885
  454MOL0     H61276   9.477   6.648   2.896 -0.1205  0.5171  1.3731
  454MOL0     H61277   9.702   6.650   3.005  1.0499  0.0730 -2.4037
  454MOL0     H61278   9.892   6.591   3.481 -1.2902 -2.1759 -0.4146
  454MOL0     H61279  10.131   6.561   3.594 -1.3487  0.0107  0.6012
  454MOL0     H61280  10.385   6.292   3.360  1.5821  1.3217 -2.3040
  454MOL0     H61281  10.517   6.407   3.391  1.3266 -1.1261  1.6948
  454MOL0     H61282  10.508   6.359   3.639  0.9496  0.3028 -0.6472
  454MOL0     H61283  10.519   6.210   3.548  1.2762 -0.5135  2.0724
  454MOL0     H61284  10.255   6.197   3.562  0.1722  2.3870 -1.4523
  454MOL0     H61285  10.274   6.345   3.663 -2.6965 -1.8773  1.3076
  454MOL0     H61286  10.440   6.177   3.799 -0.2144  2.6616 -1.1208
  454MOL0     H61287  10.330   6.059   3.726  1.2209  0.4368 -0.7772
  454MOL0     H61288  10.076   6.214   4.005  0.2003 -1.0264  0.5561
  454MOL0     H61289  10.258   6.410   3.199 -1.7974 -1.0566 -1.4324
  454MOL0     H61290  10.048   6.432   3.114  0.6422  0.7749 -1.4459
  455MOL0     O61291   5.149   6.345   1.957 -0.1839 -0.5093  0.0310
  455MOL0     C61292   5.200   6.455   1.962 -0.4835 -0.7224 -0.0085
  455MOL0     O61293   5.138   6.581   1.952  0.6107  1.0406 -0.5145
  455MOL0     C61294   5.000   6.587   1.925  0.3003 -0.1473  0.8766
  455MOL0     C61295   4.943   6.517   1.812  0.2759 -0.8204 -0.2978
  455MOL0     C61296   4.806   6.516   1.797  0.2252  0.3340 -0.2032
  455MOL0     C61297   4.721   6.580   1.883 -0.1947  0.0823 -1.0780
  455MOL0     O61298   4.586   6.587   1.871  0.0820  0.2440  0.2833
  455MOL0     C61299   4.518   6.495   1.785 -0.3567 -1.0568  0.1761
  455MOL0     C61300   4.362   6.502   1.811 -0.0702 -0.4322  0.0051
  455MOL0     C61301   4.317   6.412   1.926  0.1592 -0.6011  0.0066
  455MOL0     C61302   4.166   6.398   1.946 -0.9560 -0.1104  0.5612
  455MOL0     C61303   4.131   6.298   2.054 -0.5298  0.5623  0.2297
  455MOL0     C61304   3.980   6.321   2.085  0.2149 -0.1495  0.2465
  455MOL0     C61305   3.950   6.214   2.188  0.9523  0.3736 -0.4353
  455MOL0     C61306   3.799   6.180   2.199 -0.3318  0.6563 -0.1888
  455MOL0     N61307   3.758   6.084   2.306 -0.1056 -0.8071  0.4028
  455MOL0     C61308   3.836   6.051   2.418  0.2383  0.3754  0.4521
  455MOL0     C61309   3.754   5.967   2.485 -0.2759 -0.4831  0.5820
  455MOL0     C61310   3.779   5.889   2.606  0.1682 -0.1335 -0.3573
  455MOL0     C61311   3.657   5.847   2.696 -0.6188 -0.4361  0.5112
  455MOL0     C61312   3.589   5.976   2.747 -0.8295  0.1808  0.3933
  455MOL0     C61313   3.510   5.950   2.881 -0.4134  0.1551 -0.4969
  455MOL0     O61314   3.422   6.057   2.927 -0.5981  0.0772 -0.4114
  455MOL0     C61315   3.310   6.020   3.004  0.3423 -0.5058  0.0894
  455MOL0     C61316   3.320   5.926   3.105  0.0839 -0.1338 -0.8716
  455MOL0     C61317   3.206   5.889   3.192 -0.1440 -0.7615 -0.1014
  455MOL0     C61318   3.233   5.803   3.314 -0.1388 -0.4638 -0.4911
  455MOL0     C61319   3.082   5.957   3.159  0.9413  0.6508 -0.4572
  455MOL0     C61320   2.960   5.967   3.251 -1.3205 -0.2303 -0.0811
  455MOL0     O61321   2.840   5.978   3.194  0.1227 -0.5715  0.1249
  455MOL0     C61322   2.731   5.995   3.281  0.5145 -0.5925 -0.5503
  455MOL0     C61323   2.710   6.115   3.348  0.0396  0.1832 -0.0229
  455MOL0     C61324   2.604   6.124   3.434 -0.5904 -0.1950 -0.7362
  455MOL0     C61325   2.504   6.025   3.436 -0.8065 -0.0025 -0.6310
  455MOL0     O61326   2.391   6.036   3.510  0.0916 -0.0349 -0.0443
  455MOL0     C61327   2.363   6.145   3.599 -0.1441 -0.3222  0.1277
  455MOL0     C61328   2.220   6.138   3.643 -0.8193 -0.7880  0.7904
  455MOL0     C61329   2.192   6.223   3.763  0.2706 -0.6729 -0.3110
  455MOL0     C61330   2.055   6.193   3.835 -0.2916  0.7436  0.5207
  455MOL0     C61331   1.916   6.241   3.764  0.1964  0.4717  0.0856
  455MOL0     C61332   1.793   6.218   3.865 -0.6136  0.4561 -0.3169
  455MOL0     C61333   1.663   6.237   3.789 -0.5637 -0.5720  0.0998
  455MOL0     C61334   1.619   6.390   3.783 -0.1154  0.5216  0.4265
  455MOL0    Cl61335   1.574   6.449   3.950  0.4460  0.1930 -0.4174
  455MOL0     C61336   2.528   5.903   3.369  0.5654  0.1699  0.1070
  455MOL0     C61337   2.629   5.892   3.280 -0.1091  0.2694 -0.2146
  455MOL0     O61338   2.982   5.961   3.371 -0.3091 -0.7865 -0.6834
  455MOL0     C61339   3.077   6.037   3.044 -0.0425 -0.2945  0.0639
  455MOL0     C61340   3.185   6.075   2.972 -0.7244 -0.3573 -0.6030
  455MOL0     N61341   3.634   5.949   2.409 -0.4443 -0.0635 -0.2409
  455MOL0     N61342   3.643   6.023   2.309  0.1324 -0.0816 -0.1671
  455MOL0     C61343   4.777   6.654   1.986 -0.2509 -0.1258  0.2134
  455MOL0     C61344   4.911   6.662   2.018  0.6270 -0.4891  0.2542
  455MOL0     C61345   5.346   6.466   1.963  0.0838 -0.0548 -0.2592
  455MOL0     C61346   5.412   6.590   1.963 -0.1125 -0.4736  0.4938
  455MOL0     C61347   5.556   6.594   1.951  0.0480 -0.0155 -0.3722
  455MOL0     C61348   5.630   6.478   1.957 -0.3822  0.6113  1.5971
  455MOL0     O61349   5.765   6.491   1.925  0.0381 -0.3165 -0.8759
  455MOL0     C61350   5.843   6.375   1.965  0.2894 -0.8100 -0.1074
  455MOL0     C61351   5.986   6.410   1.946 -0.0348 -0.4486 -0.3463
  455MOL0     C61352   6.085   6.299   1.994 -0.7736  0.2699 -0.9009
  455MOL0     C61353   6.221   6.299   1.917  0.4050  0.0685 -0.2598
  455MOL0     C61354   6.204   6.250   1.776  0.0269 -0.9650 -0.0674
  455MOL0     C61355   6.168   6.203   1.664  0.2705  0.2326 -0.3588
  455MOL0     C61356   5.561   6.356   1.972  0.6060  0.7344  0.3230
  455MOL0     C61357   5.430   6.355   1.972  0.1791  0.4204 -0.7767
  455MOL0     H61358   5.001   6.449   1.750  0.0850  0.7253 -2.2794
  455MOL0     H61359   4.754   6.462   1.719 -1.2640 -0.6105  1.3781
  455MOL0     H61360   4.530   6.542   1.687 -2.6258 -0.1290  0.2642
  455MOL0     H61361   4.560   6.394   1.783 -2.4921 -1.9894 -0.7162
  455MOL0     H61362   4.336   6.606   1.834 -2.0391 -0.7780 -0.5082
  455MOL0     H61363   4.306   6.485   1.719  1.7656 -3.8043 -0.6769
  455MOL0     H61364   4.354   6.309   1.919  1.8211 -0.1074  0.9552
  455MOL0     H61365   4.351   6.459   2.019 -2.0837 -1.1800  1.2009
  455MOL0     H61366   4.126   6.497   1.970 -0.4858 -0.0371  1.0590
  455MOL0     H61367   4.123   6.364   1.851  0.1231  2.4703 -0.9575
  455MOL0     H61368   4.139   6.203   2.001 -0.8202  1.3695 -1.3227
  455MOL0     H61369   4.199   6.304   2.140  3.1875  1.6004 -2.5230
  455MOL0     H61370   3.970   6.416   2.138  3.6273  0.6243 -0.2706
  455MOL0     H61371   3.914   6.331   1.998 -1.8363  2.1176  1.9051
  455MOL0     H61372   4.000   6.119   2.167  0.4115  0.0280 -0.1782
  455MOL0     H61373   3.989   6.246   2.285  2.6213 -0.3452 -0.8346
  455MOL0     H61374   3.756   6.142   2.105 -0.0500 -0.0483 -0.0433
  455MOL0     H61375   3.748   6.272   2.227 -3.7086 -1.8730  3.1175
  455MOL0     H61376   3.925   6.095   2.462 -2.4111  5.1737  1.6613
  455MOL0     H61377   3.841   5.803   2.579  0.8179 -0.8496  3.0045
  455MOL0     H61378   3.857   5.942   2.662 -0.7407 -0.8036  1.6433
  455MOL0     H61379   3.689   5.784   2.780  0.0114 -1.5875 -0.5506
  455MOL0     H61380   3.583   5.804   2.627  0.2290  1.2754 -1.5859
  455MOL0     H61381   3.525   6.026   2.674 -1.5968  0.0207  0.9452
  455MOL0     H61382   3.673   6.039   2.777  0.9335 -1.3178 -1.1191
  455MOL0     H61383   3.580   5.924   2.960 -0.6538  2.2351  0.4586
  455MOL0     H61384   3.439   5.867   2.869 -2.4580  1.2483  2.7617
  455MOL0     H61385   3.422   5.894   3.124  0.1943  0.0848 -1.0852
  455MOL0     H61386   3.141   5.757   3.352  1.8024 -2.8595  1.7105
  455MOL0     H61387   3.299   5.719   3.291 -0.6795 -0.7615 -0.9930
  455MOL0     H61388   3.269   5.870   3.392 -2.8201 -0.5894  0.9884
  455MOL0     H61389   2.789   6.189   3.338 -1.7775  2.4329  1.2434
  455MOL0     H61390   2.600   6.212   3.497 -3.1961 -0.3215 -0.5979
  455MOL0     H61391   2.434   6.135   3.682  0.4763 -1.5336 -0.5193
  455MOL0     H61392   2.379   6.240   3.548  0.9755 -0.0159  0.9924
  455MOL0     H61393   2.169   6.172   3.553  2.2755  2.3625  0.0194
  455MOL0     H61394   2.194   6.034   3.665 -1.9348 -0.2939  1.9431
  455MOL0     H61395   2.196   6.330   3.743 -2.7861  0.1612  2.6889
  455MOL0     H61396   2.281   6.208   3.826 -1.0185  1.6476  2.2318
  455MOL0     H61397   2.049   6.086   3.859  1.2191  0.3271 -0.8104
  455MOL0     H61398   2.063   6.250   3.928 -0.1770 -0.9840  1.6228
  455MOL0     H61399   1.905   6.179   3.675  2.0925  1.4107 -0.8784
  455MOL0     H61400   1.926   6.345   3.732  1.4328  0.1851 -0.5197
  455MOL0     H61401   1.791   6.114   3.898  2.0753  0.0511 -1.2023
  455MOL0     H61402   1.801   6.280   3.955 -0.6530 -0.0302  0.0246
  455MOL0     H61403   1.578   6.183   3.831 -0.7101 -0.9722 -0.7018
  455MOL0     H61404   1.671   6.202   3.686  0.4238 -1.7188  0.5419
  455MOL0     H61405   1.533   6.395   3.716  0.3015  0.6289 -0.1075
  455MOL0     H61406   1.701   6.454   3.748  1.0541 -0.2985  1.5551
  455MOL0     H61407   2.453   5.825   3.380 -0.9476  1.0916 -2.5873
  455MOL0     H61408   2.667   5.807   3.225 -1.4889 -0.3263 -0.2767
  455MOL0     H61409   2.983   6.089   3.026  0.0811 -0.0721  0.0668
  455MOL0     H61410   3.173   6.140   2.885  2.1893  1.5527  0.2556
  455MOL0     H61411   4.701   6.704   2.045 -1.4487 -2.4134  0.7622
  455MOL0     H61412   4.940   6.733   2.095  0.4325 -0.9744  0.7791
  455MOL0     H61413   5.358   6.684   1.954  3.0806  1.3228 -3.2097
  455MOL0     H61414   5.605   6.687   1.928 -0.9398  0.4881 -0.5088
  455MOL0     H61415   5.816   6.347   2.067  2.3020 -0.2780  0.6313
  455MOL0     H61416   5.815   6.284   1.912 -1.2171 -0.0441 -0.6928
  455MOL0     H61417   6.014   6.496   2.008  1.7195 -2.1312  1.3736
  455MOL0     H61418   6.010   6.430   1.841 -2.4378  0.0575 -0.8446
  455MOL0     H61419   6.039   6.200   1.996  1.6042 -0.9383  2.2996
  455MOL0     H61420   6.113   6.323   2.097 -0.5957 -0.9098 -0.6618
  455MOL0     H61421   6.285   6.221   1.959  0.4147  0.5531  0.6521
  455MOL0     H61422   6.269   6.398   1.920  3.0532 -1.1246 -0.3731
  455MOL0     H61423   6.145   6.165   1.567  0.4692  0.8312 -0.6454
  455MOL0     H61424   5.609   6.260   1.985 -1.6882 -0.3670  1.0116
  455MOL0     H61425   5.385   6.257   1.981 -2.1498  1.4988  0.4144
  456MOL0     O61426   9.873   3.846   4.364 -0.4617 -0.2746 -0.2558
  456MOL0     C61427   9.788   3.835   4.456 -0.3623  0.1063  0.3310
  456MOL0     O61428   9.812   3.790   4.581  0.6022 -0.4764  0.6066
  456MOL0     C61429   9.946   3.781   4.618 -0.1419 -1.0892  0.2227
  456MOL0     C61430  10.028   3.685   4.565  0.2381 -0.0446  0.0490
  456MOL0     C61431  10.159   3.666   4.605 -0.1794 -0.1148  0.7231
  456MOL0     C61432  10.217   3.765   4.695 -0.3809  0.5927 -0.6445
  456MOL0     O61433  10.346   3.763   4.750 -0.3281 -0.8865 -0.3990
  456MOL0     C61434  10.417   3.642   4.734 -0.3292  0.4403 -0.3466
  456MOL0     C61435  10.556   3.646   4.781 -0.3080 -0.7677 -0.3830
  456MOL0     C61436  10.583   3.717   4.919  0.6811 -0.3408 -0.3857
  456MOL0     C61437  10.734   3.703   4.958 -0.7932  0.6050  0.1139
  456MOL0     C61438  10.796   3.801   5.054 -0.6679 -0.1022 -0.5533
  456MOL0     C61439  10.694   3.800   5.176  0.4431 -0.0596  0.1042
  456MOL0     C61440  10.728   3.898   5.283 -0.4089  0.2677 -0.0774
  456MOL0     C61441  10.619   3.878   5.394  0.4157  0.3933  0.9020
  456MOL0     N61442  10.625   3.756   5.475 -0.6901  0.7242  0.2641
  456MOL0     C61443  10.732   3.712   5.546 -0.7371  0.5106 -0.9213
  456MOL0     C61444  10.690   3.581   5.589 -0.8479  0.1598  0.5066
  456MOL0     C61445  10.774   3.478   5.654  0.3892  0.2257  0.2311
  456MOL0     C61446  10.842   3.392   5.544  0.2658  0.2994  0.0078
  456MOL0     C61447  10.969   3.459   5.484 -0.5029  0.2762  0.3208
  456MOL0     C61448  11.029   3.383   5.358  0.4052  0.0128 -0.4444
  456MOL0     O61449  11.097   3.256   5.394  0.4229 -0.1377  0.1903
  456MOL0     C61450  11.224   3.263   5.441  0.0193  1.5621  0.3462
  456MOL0     C61451  11.280   3.139   5.473  0.3926  1.2377  0.0491
  456MOL0     C61452  11.411   3.117   5.512  0.7865 -0.6826 -0.1321
  456MOL0     C61453  11.446   2.977   5.544  0.6941 -0.9708 -0.6132
  456MOL0     C61454  11.493   3.227   5.512 -0.0359 -0.0947 -0.3836
  456MOL0     C61455  11.640   3.220   5.541  0.5863 -0.0861 -0.5992
  456MOL0     O61456  11.704   3.104   5.505  0.7238  0.0300 -0.7619
  456MOL0     C61457  11.839   3.098   5.511 -0.0137  0.5885 -0.7796
  456MOL0     C61458  11.928   3.156   5.420 -0.2196  0.4617 -0.4363
  456MOL0     C61459  12.068   3.147   5.445  0.7403 -0.4132  0.0245
  456MOL0     C61460  12.117   3.063   5.554  0.0755 -0.6297  0.1965
  456MOL0     O61461  12.253   3.039   5.577 -0.1218  0.0839  0.0360
  456MOL0     C61462  12.335   3.151   5.560 -0.6583  0.2310  0.4782
  456MOL0     C61463  12.486   3.125   5.603 -0.2351  0.6348 -0.0366
  456MOL0     C61464  12.492   3.094   5.759  0.8595  0.6161  0.2681
  456MOL0     C61465  12.632   3.058   5.787 -0.4678  0.2115  1.2078
  456MOL0     C61466  12.647   2.955   5.886  0.0250  0.0055 -0.7804
  456MOL0     C61467  12.800   2.927   5.893  0.1839  0.3052 -0.0122
  456MOL0     C61468  12.821   2.837   6.012 -0.0356 -1.0524 -0.0687
  456MOL0     C61469  12.954   2.786   6.035 -0.2818 -0.0237 -0.8238
  456MOL0    Cl61470  13.074   2.930   6.018 -0.0319  0.0765  0.0004
  456MOL0     C61471  12.026   2.996   5.622 -0.7195  0.5708 -0.3796
  456MOL0     C61472  11.888   3.011   5.613 -0.1155  0.1293  0.1244
  456MOL0     O61473  11.705   3.327   5.568  0.1807 -0.2518  0.7457
  456MOL0     C61474  11.440   3.355   5.477 -0.4859  0.4084 -0.3193
  456MOL0     C61475  11.309   3.369   5.437 -0.5341 -0.3823  0.3300
  456MOL0     N61476  10.556   3.568   5.561  1.5314  0.2005  0.5015
  456MOL0     N61477  10.519   3.664   5.478 -0.3795 -0.1282 -0.4799
  456MOL0     C61478  10.135   3.865   4.749 -0.3213  0.5466 -0.2042
  456MOL0     C61479  10.003   3.877   4.708 -0.1832 -0.2975  0.5543
  456MOL0     C61480   9.648   3.875   4.430 -0.9673 -0.1560 -0.1769
  456MOL0     C61481   9.617   3.912   4.298  0.2823  0.2487 -0.2497
  456MOL0     C61482   9.489   3.935   4.254  0.4418  0.7451  0.3457
  456MOL0     C61483   9.379   3.947   4.342 -0.4903 -1.1574 -0.9793
  456MOL0     O61484   9.253   3.980   4.314 -0.1273 -0.2212  0.7815
  456MOL0     C61485   9.233   4.048   4.192 -0.4882 -0.2690  0.5478
  456MOL0     C61486   9.085   4.096   4.176  0.0165 -0.4385 -0.4113
  456MOL0     C61487   9.059   4.120   4.034 -0.2749 -1.2097  0.3734
  456MOL0     C61488   8.929   4.185   3.999 -0.0999 -0.7644  0.3472
  456MOL0     C61489   8.880   4.294   4.092  0.4831  0.7554  0.0719
  456MOL0     C61490   8.838   4.391   4.152  1.0448 -0.3052 -0.3454
  456MOL0     C61491   9.407   3.907   4.475 -0.2373 -0.8413  0.0332
  456MOL0     C61492   9.541   3.881   4.518 -0.6363 -0.0919  0.2659
  456MOL0     H61493   9.999   3.613   4.489  1.9731 -1.9831  1.1068
  456MOL0     H61494  10.227   3.590   4.569 -1.8770 -0.8349 -1.0590
  456MOL0     H61495  10.366   3.560   4.786  0.9170  0.1968  0.5312
  456MOL0     H61496  10.424   3.624   4.626 -0.2856 -0.8030 -0.1488
  456MOL0     H61497  10.602   3.547   4.770 -2.8601 -2.0297 -0.4213
  456MOL0     H61498  10.606   3.710   4.708 -0.6009  0.7854  0.7348
  456MOL0     H61499  10.555   3.823   4.925 -1.0735 -0.8433  1.9329
  456MOL0     H61500  10.512   3.675   4.991 -1.6024  2.5395 -0.7973
  456MOL0     H61501  10.739   3.604   5.005  1.9948 -0.0071 -1.2286
  456MOL0     H61502  10.794   3.709   4.866  2.1913 -0.7426  1.8083
  456MOL0     H61503  10.895   3.762   5.076 -1.0939 -0.6111  0.5555
  456MOL0     H61504  10.799   3.898   5.004  0.5094 -0.7799 -1.8321
  456MOL0     H61505  10.588   3.809   5.151  0.5308 -1.4119 -0.8393
  456MOL0     H61506  10.695   3.696   5.208  3.1508 -0.0806  0.1331
  456MOL0     H61507  10.834   3.891   5.312  0.2222  0.5002 -2.1468
  456MOL0     H61508  10.715   4.005   5.264  1.7697  1.6159  4.4277
  456MOL0     H61509  10.520   3.885   5.350 -0.2544 -0.9167  2.1236
  456MOL0     H61510  10.621   3.958   5.469 -0.1214  0.0892  1.2470
  456MOL0     H61511  10.829   3.758   5.564 -1.0642  0.7439  0.2852
  456MOL0     H61512  10.844   3.525   5.724  1.1422 -0.0213 -0.3472
  456MOL0     H61513  10.701   3.416   5.707  1.9614 -1.3562  0.6010
  456MOL0     H61514  10.774   3.356   5.467  0.9308 -1.5503  0.2290
  456MOL0     H61515  10.875   3.301   5.595 -2.1682  0.0763  1.3209
  456MOL0     H61516  11.045   3.455   5.562 -1.7312  1.0239  1.6187
  456MOL0     H61517  10.954   3.566   5.466  1.3267  0.1164 -2.7219
  456MOL0     H61518  11.099   3.457   5.316  1.2004  0.6236  1.8276
  456MOL0     H61519  10.955   3.373   5.278  0.0953  2.2392 -0.4968
  456MOL0     H61520  11.225   3.045   5.467  1.7140  0.5203 -1.8307
  456MOL0     H61521  11.518   2.980   5.627  1.6616  4.8320 -1.2157
  456MOL0     H61522  11.365   2.907   5.566  1.0713 -0.9548  0.9920
  456MOL0     H61523  11.503   2.923   5.469  1.2446 -1.4307  0.1177
  456MOL0     H61524  11.882   3.224   5.350  1.4583  1.5111 -0.5730
  456MOL0     H61525  12.142   3.191   5.380 -1.5859  1.6304 -1.4450
  456MOL0     H61526  12.348   3.177   5.454 -3.5582 -0.1823 -0.0751
  456MOL0     H61527  12.290   3.232   5.619  0.0944  1.4130 -0.5245
  456MOL0     H61528  12.527   3.044   5.542 -0.8877  0.2253  0.0567
  456MOL0     H61529  12.537   3.217   5.573  1.4835 -0.7048 -1.4745
  456MOL0     H61530  12.427   3.009   5.775 -0.2323  0.6867 -2.9723
  456MOL0     H61531  12.462   3.179   5.821 -1.1372 -0.0594  0.2927
  456MOL0     H61532  12.681   3.014   5.699  1.1167  0.9086  1.6955
  456MOL0     H61533  12.695   3.148   5.796 -2.1899  1.2758  4.1581
  456MOL0     H61534  12.607   2.863   5.842  2.5517 -0.4224 -2.3504
  456MOL0     H61535  12.608   2.986   5.984 -0.5463 -0.9235 -0.6990
  456MOL0     H61536  12.838   2.883   5.801 -0.8065  1.6945 -1.1416
  456MOL0     H61537  12.843   3.026   5.913 -0.7083 -0.0004  4.3770
  456MOL0     H61538  12.747   2.758   6.001 -1.9812  0.9252 -2.4556
  456MOL0     H61539  12.794   2.889   6.105  3.4969  0.4269  0.2898
  456MOL0     H61540  12.966   2.712   5.956 -0.0896  1.5618 -2.3269
  456MOL0     H61541  12.951   2.747   6.137  2.9537 -0.2594 -0.6997
  456MOL0     H61542  12.063   2.923   5.693 -1.4519 -0.4251 -0.9865
  456MOL0     H61543  11.819   2.954   5.674  1.4726 -2.0315 -0.0073
  456MOL0     H61544  11.512   3.434   5.491  1.7646 -1.6457  0.3866
  456MOL0     H61545  11.265   3.467   5.418 -2.6318 -1.0549  1.3577
  456MOL0     H61546  10.160   3.927   4.835 -0.0202 -0.1063  0.1890
  456MOL0     H61547   9.929   3.952   4.734 -0.8653 -0.9177  0.4310
  456MOL0     H61548   9.697   3.915   4.224 -0.8006  1.9817 -1.4352
  456MOL0     H61549   9.482   3.956   4.148  2.1965 -0.6439 -0.0912
  456MOL0     H61550   9.306   4.129   4.190 -1.0005  0.1871 -0.2584
  456MOL0     H61551   9.248   3.976   4.110 -1.8754 -0.1156  0.1312
  456MOL0     H61552   9.063   4.190   4.228 -0.3332  0.0700 -1.4639
  456MOL0     H61553   9.024   4.010   4.206 -2.4437  0.2399 -3.0134
  456MOL0     H61554   9.074   4.025   3.980  1.0169 -0.5492 -0.4903
  456MOL0     H61555   9.134   4.193   4.002 -2.2986 -0.5041 -3.3073
  456MOL0     H61556   8.857   4.104   3.992  0.6010 -1.2457 -2.5760
  456MOL0     H61557   8.925   4.232   3.900  0.2047 -0.9886  0.2266
  456MOL0     H61558   8.812   4.478   4.208  2.0044  0.0857 -0.4872
  456MOL0     H61559   9.330   3.914   4.551 -0.2296  5.8309  0.0587
  456MOL0     H61560   9.552   3.842   4.619 -1.7228 -0.5270  0.2323
  457MOL0     O61561  10.411  11.254   1.942 -0.3692 -0.6187  0.5627
  457MOL0     C61562  10.407  11.355   2.012  0.7170 -1.1010 -1.0266
  457MOL0     O61563  10.288  11.419   2.050  0.1552  0.0380  0.0655
  457MOL0     C61564  10.179  11.332   2.089 -0.5898 -0.3121 -0.3503
  457MOL0     C61565  10.182  11.197   2.140 -0.8508 -0.7904  0.9129
  457MOL0     C61566  10.070  11.153   2.200  0.5158  0.0541  0.5225
  457MOL0     C61567   9.953  11.214   2.208 -0.0445 -0.0447  0.0903
  457MOL0     O61568   9.847  11.151   2.272  0.4488  0.2666  0.8289
  457MOL0     C61569   9.706  11.190   2.263 -0.9352 -0.0892  0.7804
  457MOL0     C61570   9.621  11.104   2.347 -0.8272 -0.5254 -0.2853
  457MOL0     C61571   9.473  11.129   2.326 -0.4113 -0.5109  0.4079
  457MOL0     C61572   9.389  11.041   2.415 -0.0591  0.1625 -0.5690
  457MOL0     C61573   9.235  11.044   2.395 -0.1679  0.0862  0.0079
  457MOL0     C61574   9.166  10.950   2.501 -0.4587  0.4464 -1.1307
  457MOL0     C61575   9.017  10.946   2.478  0.5851 -0.6280 -0.4613
  457MOL0     C61576   8.949  10.835   2.576 -0.3348  0.0327 -0.3228
  457MOL0     N61577   8.803  10.846   2.582  1.0954  0.1852 -0.4646
  457MOL0     C61578   8.730  10.847   2.699 -0.2942 -0.1072 -0.1837
  457MOL0     C61579   8.602  10.863   2.667  0.1512  0.2182  0.6863
  457MOL0     C61580   8.493  10.880   2.771  0.8627  0.3324 -0.5437
  457MOL0     C61581   8.361  10.813   2.737 -0.2156  0.0857 -0.5548
  457MOL0     C61582   8.270  10.823   2.856 -0.5135  0.6889  0.0780
  457MOL0     C61583   8.223  10.959   2.883 -0.2769 -0.5094  0.1035
  457MOL0     O61584   8.098  10.973   2.962  0.2568 -0.0566 -0.3658
  457MOL0     C61585   8.028  11.093   2.951  1.0696  0.3923  0.2552
  457MOL0     C61586   8.090  11.218   2.940 -0.1352  0.2240  0.4901
  457MOL0     C61587   8.005  11.332   2.936  0.6460 -0.4977 -0.1184
  457MOL0     C61588   8.073  11.467   2.929 -0.1031  0.7096 -0.4303
  457MOL0     C61589   7.870  11.318   2.907  0.6936 -0.2757 -1.4453
  457MOL0     C61590   7.764  11.426   2.895 -0.6337 -0.3676 -0.1264
  457MOL0     O61591   7.644  11.390   2.835 -0.3963  0.3632 -1.0203
  457MOL0     C61592   7.535  11.480   2.813 -0.2489  0.7182  0.1646
  457MOL0     C61593   7.549  11.620   2.802 -0.9267  0.0677 -0.5792
  457MOL0     C61594   7.439  11.699   2.760 -0.3315  0.5516 -0.2992
  457MOL0     C61595   7.313  11.642   2.726  0.1014  0.3334  0.7708
  457MOL0     O61596   7.223  11.724   2.668  0.0626  0.1968 -0.1146
  457MOL0     C61597   7.088  11.718   2.723  0.1021  0.0212  0.6001
  457MOL0     C61598   7.007  11.835   2.656 -0.1248  0.8935 -0.0636
  457MOL0     C61599   6.855  11.815   2.697  0.7811 -0.0934  0.2785
  457MOL0     C61600   6.822  11.858   2.843  0.9155 -0.7510  0.3214
  457MOL0     C61601   6.685  11.908   2.841 -1.0787  0.2679 -0.1380
  457MOL0     C61602   6.669  12.041   2.767  0.2073 -1.2584  0.7323
  457MOL0     C61603   6.567  12.139   2.825 -0.0151  0.6063  0.5620
  457MOL0     C61604   6.630  12.209   2.933 -0.0842 -0.0918 -0.2185
  457MOL0    Cl61605   6.523  12.336   2.990  0.1024 -0.4105 -0.3664
  457MOL0     C61606   7.307  11.502   2.726 -0.2772  0.6849  0.1204
  457MOL0     C61607   7.414  11.421   2.771 -0.5461 -0.0122 -0.1876
  457MOL0     O61608   7.799  11.537   2.932 -0.5862  0.1727 -0.5224
  457MOL0     C61609   7.812  11.187   2.916 -0.3456  0.0051  0.2402
  457MOL0     C61610   7.888  11.076   2.940 -0.6729 -0.3352  0.4134
  457MOL0     N61611   8.598  10.877   2.526  0.2549  0.2278 -0.4579
  457MOL0     N61612   8.717  10.887   2.485 -0.3359 -0.1513  0.1562
  457MOL0     C61613   9.948  11.339   2.145 -0.2971 -0.6862  0.7315
  457MOL0     C61614  10.053  11.399   2.084  0.7182 -0.3092 -0.4684
  457MOL0     C61615  10.531  11.400   2.096  0.2446  0.6229 -0.1995
  457MOL0     C61616  10.648  11.321   2.102 -0.6387  0.6875 -0.0986
  457MOL0     C61617  10.755  11.342   2.197 -0.0828 -0.1027 -0.8860
  457MOL0     C61618  10.734  11.446   2.288 -0.4020 -0.1954 -0.7870
  457MOL0     O61619  10.829  11.489   2.382 -0.6378  0.4276  0.1693
  457MOL0     C61620  10.968  11.449   2.381 -0.2285 -0.1690 -0.3071
  457MOL0     C61621  11.048  11.483   2.502  0.5919 -0.1376  0.1090
  457MOL0     C61622  11.037  11.623   2.556 -0.5500 -0.2468  0.9607
  457MOL0     C61623  11.143  11.660   2.670 -0.9165 -0.4360 -0.5137
  457MOL0     C61624  11.145  11.567   2.788 -0.1644 -1.1912 -0.5170
  457MOL0     C61625  11.136  11.489   2.879 -0.9252 -0.1019 -0.0343
  457MOL0     C61626  10.621  11.527   2.283  0.0926 -0.6520  0.7736
  457MOL0     C61627  10.529  11.518   2.179 -0.0900  0.0031 -0.1821
  457MOL0     H61628  10.276  11.145   2.125  0.1715  1.2622 -0.3333
  457MOL0     H61629  10.080  11.055   2.245 -0.1000  0.7354  2.2480
  457MOL0     H61630   9.696  11.292   2.301 -1.6496  0.7559 -1.4997
  457MOL0     H61631   9.685  11.178   2.156 -1.1843 -0.9252  0.9125
  457MOL0     H61632   9.647  11.001   2.320 -2.3516 -0.0815 -4.0969
  457MOL0     H61633   9.656  11.125   2.448  0.2437  0.1218 -0.7828
  457MOL0     H61634   9.450  11.235   2.344 -1.7059 -0.7043  0.0007
  457MOL0     H61635   9.437  11.104   2.226 -2.2544 -0.9444  1.1383
  457MOL0     H61636   9.419  10.937   2.404 -0.3961  0.2128 -2.1774
  457MOL0     H61637   9.414  11.075   2.516  2.7753  1.7868 -1.7213
  457MOL0     H61638   9.196  11.145   2.407 -2.5108 -1.0259  2.7152
  457MOL0     H61639   9.224  10.997   2.296  1.9917 -1.9155  0.6203
  457MOL0     H61640   9.205  10.851   2.480  0.2744  0.3413  0.5682
  457MOL0     H61641   9.194  10.989   2.599  1.6278 -0.8608 -1.1694
  457MOL0     H61642   8.976  11.044   2.505  1.7893 -0.6070  1.5473
  457MOL0     H61643   8.996  10.939   2.371  0.0539  0.1891 -0.4210
  457MOL0     H61644   8.988  10.852   2.677 -1.8714 -2.4738  0.7897
  457MOL0     H61645   8.968  10.731   2.550  1.4667 -0.1320  1.3809
  457MOL0     H61646   8.779  10.814   2.791  0.1842 -2.4326 -1.1830
  457MOL0     H61647   8.536  10.833   2.860  3.4745  3.0072 -0.2421
  457MOL0     H61648   8.474  10.985   2.792  4.0079  0.6684  1.2393
  457MOL0     H61649   8.371  10.706   2.718 -2.4608 -0.1014 -0.9784
  457MOL0     H61650   8.331  10.861   2.644 -2.4143  1.3553  0.7035
  457MOL0     H61651   8.323  10.781   2.942  1.7314  1.8720 -0.6277
  457MOL0     H61652   8.185  10.757   2.839  1.2056 -1.0924 -2.4289
  457MOL0     H61653   8.216  11.015   2.789 -1.7999 -0.6902  0.0883
  457MOL0     H61654   8.300  11.013   2.939 -0.5932 -0.2508  0.2917
  457MOL0     H61655   8.197  11.235   2.937 -0.2412  1.2391  1.6636
  457MOL0     H61656   8.180  11.448   2.938 -0.1697 -0.2329 -1.4881
  457MOL0     H61657   8.058  11.520   2.835  0.1615  0.0335 -0.8602
  457MOL0     H61658   8.050  11.527   3.018 -1.0170 -1.2924  0.7691
  457MOL0     H61659   7.643  11.669   2.827 -1.0611  1.5261 -2.7175
  457MOL0     H61660   7.446  11.806   2.743 -1.1531  0.7604  0.5647
  457MOL0     H61661   7.051  11.618   2.698  2.8984 -0.9929  0.1830
  457MOL0     H61662   7.103  11.734   2.830  3.1647  3.6027 -0.1301
  457MOL0     H61663   7.047  11.934   2.678  2.1629 -0.1013  0.5614
  457MOL0     H61664   7.017  11.809   2.551 -0.6762 -1.2762  0.3574
  457MOL0     H61665   6.817  11.714   2.678  1.7454 -0.3176 -0.5768
  457MOL0     H61666   6.811  11.882   2.623  1.6377  3.6096  2.8114
  457MOL0     H61667   6.836  11.772   2.909  0.9005 -0.7334  0.3474
  457MOL0     H61668   6.887  11.940   2.874  1.0215 -0.0813 -1.5551
  457MOL0     H61669   6.657  11.910   2.947  1.5289  2.3712  0.6074
  457MOL0     H61670   6.627  11.827   2.795  1.4437 -0.6612 -1.9415
  457MOL0     H61671   6.760  12.101   2.770 -1.9999  2.4711  4.0668
  457MOL0     H61672   6.630  12.021   2.667  0.1866 -1.8977  0.8648
  457MOL0     H61673   6.484  12.076   2.857  3.3049 -2.9376  3.2967
  457MOL0     H61674   6.543  12.213   2.748 -0.7043 -1.4982 -1.3617
  457MOL0     H61675   6.717  12.263   2.897 -1.2307  2.8885  1.1451
  457MOL0     H61676   6.660  12.141   3.014  0.8478  0.1367 -0.3652
  457MOL0     H61677   7.226  11.446   2.680  2.6031 -0.9616 -3.5741
  457MOL0     H61678   7.399  11.314   2.767 -1.5121  0.1427 -1.3650
  457MOL0     H61679   7.704  11.171   2.915 -0.5591  1.0100 -3.0108
  457MOL0     H61680   7.854  10.973   2.941 -1.2031 -0.2536  3.8615
  457MOL0     H61681   9.859  11.400   2.141  0.5535  0.6125  0.7941
  457MOL0     H61682  10.050  11.497   2.039 -0.9568  0.1632  0.5930
  457MOL0     H61683  10.658  11.232   2.041 -1.0626 -0.6976  1.7413
  457MOL0     H61684  10.840  11.275   2.203  0.5319  0.5831 -1.6008
  457MOL0     H61685  10.969  11.340   2.371  1.7855 -0.2653  0.4922
  457MOL0     H61686  11.008  11.496   2.291 -4.6016  1.4079 -1.7139
  457MOL0     H61687  11.155  11.472   2.482  0.4495 -1.6606  0.1281
  457MOL0     H61688  11.023  11.411   2.581  1.0374  0.5920  0.9450
  457MOL0     H61689  10.934  11.625   2.592 -0.3291 -0.1909  1.6082
  457MOL0     H61690  11.045  11.691   2.470  0.4713  0.1763  1.3782
  457MOL0     H61691  11.118  11.759   2.708 -0.9010 -0.8949  0.7361
  457MOL0     H61692  11.244  11.654   2.627 -0.6469 -0.7954  0.1523
  457MOL0     H61693  11.118  11.418   2.957 -1.8062  0.2088  0.0479
  457MOL0     H61694  10.608  11.618   2.342 -2.0138  1.2338 -2.3358
  457MOL0     H61695  10.445  11.587   2.168 -0.1356  0.3312  1.7853
  458MOL0     O61696   8.785   0.751  11.248  0.2190  0.3913 -0.0484
  458MOL0     C61697   8.868   0.814  11.318  0.1603 -0.6822  0.0746
  458MOL0     O61698   8.851   0.942  11.367  0.4801 -0.0600  0.2107
  458MOL0     C61699   8.746   1.020  11.322  0.2922  0.2031  0.3225
  458MOL0     C61700   8.639   1.051  11.406  0.4737  0.4085  0.5733
  458MOL0     C61701   8.516   1.103  11.359 -0.0149 -0.1062  0.3561
  458MOL0     C61702   8.501   1.117  11.218 -0.2936 -0.6032  0.5471
  458MOL0     O61703   8.378   1.135  11.162  0.7522  0.0624 -0.3376
  458MOL0     C61704   8.358   1.166  11.025 -0.0453  0.2017  1.0433
  458MOL0     C61705   8.210   1.200  11.003 -0.1722  0.6956  1.1876
  458MOL0     C61706   8.153   1.166  10.856  0.2389 -1.0631 -0.2314
  458MOL0     C61707   7.998   1.187  10.870 -0.2204  0.7600 -0.1275
  458MOL0     C61708   7.917   1.156  10.740  0.2601  0.5394  0.2969
  458MOL0     C61709   7.953   1.212  10.604 -0.3595 -0.1157 -0.4999
  458MOL0     C61710   7.844   1.181  10.500  0.6206  0.0092 -0.2405
  458MOL0     C61711   7.897   1.247  10.368  0.1901  0.7471  0.0029
  458MOL0     N61712   7.809   1.250  10.247 -0.7138 -0.1349 -0.5665
  458MOL0     C61713   7.737   1.148  10.203 -0.4456  0.1310 -0.0007
  458MOL0     C61714   7.658   1.198  10.104  0.5229  0.3119  0.0503
  458MOL0     C61715   7.554   1.110  10.038  0.3091  0.8622  0.6573
  458MOL0     C61716   7.604   1.037   9.907 -0.2072  0.2307 -1.2001
  458MOL0     C61717   7.560   1.115   9.778  0.1567  0.4042 -0.4289
  458MOL0     C61718   7.412   1.103   9.738 -0.2668 -0.3437  0.4508
  458MOL0     O61719   7.372   1.226   9.679  0.3388  0.0860  0.3347
  458MOL0     C61720   7.237   1.243   9.691 -0.5327  0.2155  0.5032
  458MOL0     C61721   7.150   1.191   9.595  1.4160  0.0828  0.2639
  458MOL0     C61722   7.014   1.197   9.604  0.3514 -0.8230  0.1371
  458MOL0     C61723   6.917   1.133   9.504  0.9237  0.8509  0.0018
  458MOL0     C61724   6.953   1.269   9.718 -0.4881 -0.1109  0.1671
  458MOL0     C61725   6.812   1.281   9.748  0.1663  0.6396  0.8053
  458MOL0     O61726   6.782   1.371   9.847 -1.1223 -0.5017 -0.2115
  458MOL0     C61727   6.653   1.388   9.883 -0.1326  0.7720  0.4711
  458MOL0     C61728   6.556   1.282   9.904 -0.1312 -0.5239 -0.3011
  458MOL0     C61729   6.441   1.308   9.975  0.8568 -0.6296 -0.1187
  458MOL0     C61730   6.426   1.426  10.051  0.0958 -0.4106  0.2323
  458MOL0     O61731   6.318   1.427  10.131 -0.5512  0.0876  0.4732
  458MOL0     C61732   6.306   1.532  10.230 -0.2645 -1.4550  0.4368
  458MOL0     C61733   6.183   1.508  10.320 -0.1656 -0.0924  0.1701
  458MOL0     C61734   6.059   1.540  10.258  0.5214 -0.1223 -0.3630
  458MOL0     C61735   6.040   1.691  10.194 -0.2297 -0.4066 -0.0282
  458MOL0     C61736   5.908   1.694  10.112  0.5937 -0.1324  0.4381
  458MOL0     C61737   5.934   1.640   9.974  0.3972 -0.1197 -1.1090
  458MOL0     C61738   5.810   1.604   9.897  1.1785 -0.3197 -0.3236
  458MOL0     C61739   5.706   1.711   9.860  0.2606 -1.0881  0.1412
  458MOL0    Cl61740   5.760   1.805   9.712  0.0226 -0.0685 -0.1910
  458MOL0     C61741   6.518   1.525  10.039  0.2653 -0.1839  0.8679
  458MOL0     C61742   6.627   1.511   9.952  0.0377 -0.3341  0.4639
  458MOL0     O61743   6.733   1.196   9.706  0.2293 -0.4572  0.3269
  458MOL0     C61744   7.050   1.333   9.806  0.0709 -0.0761  0.3688
  458MOL0     C61745   7.189   1.318   9.789 -0.1449  0.3082 -0.1008
  458MOL0     N61746   7.682   1.337  10.096  0.7841  0.6804 -0.4785
  458MOL0     N61747   7.777   1.369  10.180  0.5998 -0.2459 -0.4400
  458MOL0     C61748   8.611   1.097  11.135 -0.3924 -0.7232  0.4752
  458MOL0     C61749   8.726   1.036  11.184 -0.0266  1.0104  0.1254
  458MOL0     C61750   8.991   0.756  11.347 -0.3196  0.7799 -0.3963
  458MOL0     C61751   9.095   0.823  11.406  0.5871 -0.6397 -0.1709
  458MOL0     C61752   9.223   0.759  11.424  0.9248 -0.1364 -0.7190
  458MOL0     C61753   9.242   0.629  11.385 -1.1617  0.1330  1.0057
  458MOL0     O61754   9.376   0.604  11.389  0.3950  0.4050  0.2289
  458MOL0     C61755   9.431   0.465  11.385 -0.5430 -0.1260  0.2585
  458MOL0     C61756   9.439   0.414  11.525  0.1995  0.3230 -0.0312
  458MOL0     C61757   9.517   0.496  11.619  0.1014  0.2776  0.1010
  458MOL0     C61758   9.659   0.451  11.635 -0.6020 -0.3454  0.4543
  458MOL0     C61759   9.744   0.489  11.512 -0.0245  0.4677 -1.0289
  458MOL0     C61760   9.798   0.514  11.414  0.3031  0.5177 -0.7647
  458MOL0     C61761   9.131   0.552  11.336 -0.4813  0.0080  1.2702
  458MOL0     C61762   9.001   0.615  11.323 -0.9186  0.1167 -0.4813
  458MOL0     H61763   8.660   1.018  11.508  0.4496 -0.5492  0.2853
  458MOL0     H61764   8.436   1.122  11.430  0.5825  2.5868  0.4150
  458MOL0     H61765   8.415   1.252  10.987  1.9215 -2.1839 -1.9104
  458MOL0     H61766   8.385   1.077  10.967 -3.4638 -0.8980  0.8827
  458MOL0     H61767   8.145   1.149  11.076 -0.7655  1.3061  1.0925
  458MOL0     H61768   8.179   1.303  11.022 -1.8809 -0.0372  2.6357
  458MOL0     H61769   8.189   1.249  10.794 -3.5442  1.8850  1.0610
  458MOL0     H61770   8.175   1.068  10.814  0.2224 -0.8223 -0.8233
  458MOL0     H61771   7.962   1.103  10.931  0.2334 -0.5040 -1.5337
  458MOL0     H61772   7.963   1.284  10.907 -0.7399  1.8129 -3.1239
  458MOL0     H61773   7.915   1.047  10.732 -1.8667 -0.0767  5.5512
  458MOL0     H61774   7.810   1.171  10.756  0.5344  2.5113  0.5621
  458MOL0     H61775   7.965   1.320  10.619  0.8706 -0.6046  3.1192
  458MOL0     H61776   8.054   1.179  10.580  0.2092  1.7230 -0.8493
  458MOL0     H61777   7.839   1.075  10.474  1.1331  0.4284 -2.2041
  458MOL0     H61778   7.751   1.222  10.540  0.6387 -0.7386  0.6008
  458MOL0     H61779   7.993   1.200  10.344  0.7429  0.7946  1.9567
  458MOL0     H61780   7.922   1.351  10.390  0.8788  0.5773  0.0556
  458MOL0     H61781   7.737   1.046  10.242  0.5594  0.2502  0.3359
  458MOL0     H61782   7.528   1.033  10.112 -2.9890  0.8798 -0.3236
  458MOL0     H61783   7.461   1.165  10.024 -0.0265  0.3250  0.7219
  458MOL0     H61784   7.576   0.932   9.909  1.4397 -0.3446  3.9138
  458MOL0     H61785   7.713   1.038   9.916  0.1267  0.7571 -4.1417
  458MOL0     H61786   7.626   1.076   9.700  2.1803 -2.3289  2.3675
  458MOL0     H61787   7.581   1.221   9.790  1.9414  0.0007  0.3806
  458MOL0     H61788   7.345   1.079   9.821 -1.9380  2.8963  0.1811
  458MOL0     H61789   7.399   1.022   9.667  5.0737 -0.8536 -0.4044
  458MOL0     H61790   7.186   1.139   9.507  0.3755 -1.2965  0.6101
  458MOL0     H61791   6.978   1.095   9.422  2.7757 -1.3518  2.2318
  458MOL0     H61792   6.856   1.049   9.540 -1.4677  1.6843 -1.8212
  458MOL0     H61793   6.843   1.206   9.468 -1.2660 -2.0197 -1.7615
  458MOL0     H61794   6.572   1.178   9.877 -1.8999 -1.1536  0.9247
  458MOL0     H61795   6.368   1.227   9.980 -0.2759  0.2979 -1.0775
  458MOL0     H61796   6.395   1.519  10.293  0.4631 -0.2895 -0.3081
  458MOL0     H61797   6.314   1.636  10.199  2.8344 -2.3216 -2.2634
  458MOL0     H61798   6.190   1.403  10.352  1.0979 -1.0608 -2.9183
  458MOL0     H61799   6.172   1.554  10.418 -0.1122 -3.0585  1.7027
  458MOL0     H61800   5.978   1.527  10.330 -0.5351 -1.1327 -1.6775
  458MOL0     H61801   6.058   1.459  10.184 -2.1534 -1.0433  0.5609
  458MOL0     H61802   6.040   1.770  10.270  0.4006  1.1580 -1.5891
  458MOL0     H61803   6.118   1.720  10.124  0.2055  0.9990  0.9875
  458MOL0     H61804   5.875   1.797  10.098  0.8056 -0.0589  0.4721
  458MOL0     H61805   5.827   1.642  10.164 -1.7227  1.5736 -1.2528
  458MOL0     H61806   5.995   1.699   9.905 -0.6490 -1.7777 -3.5984
  458MOL0     H61807   5.989   1.546   9.981  1.5964  0.6040 -0.6108
  458MOL0     H61808   5.754   1.543   9.968 -1.0889 -0.4351 -2.1105
  458MOL0     H61809   5.834   1.538   9.814  1.4934 -2.4816  1.3934
  458MOL0     H61810   5.688   1.780   9.943  0.5290  0.5452 -1.1055
  458MOL0     H61811   5.606   1.671   9.840  0.2323 -0.0208 -2.3344
  458MOL0     H61812   6.513   1.623  10.087  1.0548 -1.6756  4.2898
  458MOL0     H61813   6.704   1.586   9.935  1.1259 -1.2630  1.1780
  458MOL0     H61814   7.029   1.398   9.891  0.0801  1.7995 -0.9968
  458MOL0     H61815   7.258   1.355   9.864  0.5799  2.7251 -1.8167
  458MOL0     H61816   8.598   1.107  11.028  0.1252  0.1615  0.4858
  458MOL0     H61817   8.803   1.003  11.115 -0.8949  0.9627 -0.8557
  458MOL0     H61818   9.096   0.928  11.432 -0.4014 -0.8984  0.9914
  458MOL0     H61819   9.306   0.818  11.461  0.6009  0.4089 -0.8490
  458MOL0     H61820   9.372   0.395  11.324  0.2710  0.0455 -0.7455
  458MOL0     H61821   9.530   0.462  11.340  0.6856 -1.0177  2.8699
  458MOL0     H61822   9.482   0.313  11.517  2.3865  1.2863 -1.4511
  458MOL0     H61823   9.341   0.396  11.570  0.4425 -1.8996 -0.2449
  458MOL0     H61824   9.474   0.490  11.719  1.8412 -3.4324  0.8137
  458MOL0     H61825   9.518   0.599  11.584 -0.1437 -0.1049 -1.0797
  458MOL0     H61826   9.678   0.345  11.657  1.0833 -0.2007 -0.1275
  458MOL0     H61827   9.691   0.503  11.725  0.4867 -0.2477  0.0303
  458MOL0     H61828   9.832   0.554  11.320  0.6437 -0.0814 -0.8984
  458MOL0     H61829   9.134   0.448  11.305 -0.9711 -0.2779  2.1326
  458MOL0     H61830   8.918   0.553  11.291 -0.2227 -1.6400  0.9689
  459MOL0     O61831   4.680   5.494   2.065  0.3481 -0.0015 -0.1621
  459MOL0     C61832   4.674   5.568   1.965 -0.2314 -0.4211 -1.0593
  459MOL0     O61833   4.567   5.582   1.875 -0.6499  0.5051 -1.0145
  459MOL0     C61834   4.446   5.515   1.882 -0.9323 -0.5611 -0.7401
  459MOL0     C61835   4.413   5.410   1.965  0.1134  0.1901  1.0531
  459MOL0     C61836   4.292   5.337   1.949 -0.2088 -0.3139 -0.3868
  459MOL0     C61837   4.195   5.386   1.856 -0.2394  0.1405  0.0611
  459MOL0     O61838   4.075   5.320   1.853  0.4528 -0.0498  0.1278
  459MOL0     C61839   3.970   5.353   1.762 -0.5465  0.4557 -1.1791
  459MOL0     C61840   3.867   5.246   1.750  0.2919  0.4881  0.1823
  459MOL0     C61841   3.820   5.172   1.875 -0.2265 -0.6829 -0.1217
  459MOL0     C61842   3.705   5.078   1.856 -0.8161 -1.1209  0.1798
  459MOL0     C61843   3.700   4.980   1.973 -0.1884 -0.1121  0.0911
  459MOL0     C61844   3.588   4.881   1.960 -0.0430 -0.4120  0.2065
  459MOL0     C61845   3.610   4.781   2.075  0.3052 -0.5565  0.6294
  459MOL0     C61846   3.493   4.675   2.076 -0.5464 -0.5348 -0.2492
  459MOL0     N61847   3.368   4.729   2.127 -0.5660 -0.7239 -0.6152
  459MOL0     C61848   3.266   4.793   2.056  1.4145  0.1533  0.8073
  459MOL0     C61849   3.173   4.820   2.152 -0.5843 -0.0522  0.3163
  459MOL0     C61850   3.045   4.895   2.127 -0.1484  0.4401 -0.3675
  459MOL0     C61851   2.934   4.806   2.177 -0.0943  0.4504 -0.0795
  459MOL0     C61852   2.802   4.883   2.193 -0.1626  0.4041  0.4031
  459MOL0     C61853   2.704   4.781   2.240  0.3195  0.0456 -0.5980
  459MOL0     O61854   2.579   4.857   2.259  0.2050  0.4784  0.3364
  459MOL0     C61855   2.476   4.815   2.337  0.0573 -0.5936 -0.3367
  459MOL0     C61856   2.364   4.888   2.344  0.5631 -0.5354  0.2320
  459MOL0     C61857   2.253   4.854   2.425 -0.8584 -0.1926  0.6141
  459MOL0     C61858   2.143   4.953   2.438 -0.0714 -0.3882 -0.5412
  459MOL0     C61859   2.264   4.733   2.503  0.8092 -0.2366  0.3625
  459MOL0     C61860   2.157   4.683   2.596  0.2059 -0.2555  1.1685
  459MOL0     O61861   2.032   4.736   2.589 -0.2362 -0.1085 -0.0333
  459MOL0     C61862   1.923   4.699   2.659 -0.2049  0.1400  0.7511
  459MOL0     C61863   1.894   4.567   2.698 -0.0362 -0.1851 -0.0780
  459MOL0     C61864   1.763   4.541   2.757  0.0961  0.3025 -0.4244
  459MOL0     C61865   1.668   4.644   2.776 -0.2718  0.5947  0.0849
  459MOL0     O61866   1.550   4.602   2.828  0.4031 -0.4488 -0.0989
  459MOL0     C61867   1.451   4.711   2.824 -0.1042  0.0755  0.4319
  459MOL0     C61868   1.309   4.664   2.855  0.0634  0.0840 -0.8887
  459MOL0     C61869   1.215   4.789   2.883 -0.2040  0.9349 -0.0006
  459MOL0     C61870   1.086   4.754   2.950 -0.5342 -0.0504  1.0947
  459MOL0     C61871   0.969   4.738   2.849 -0.3424  0.3023  0.4126
  459MOL0     C61872   0.835   4.725   2.933  0.7522  1.4132 -0.1251
  459MOL0     C61873   0.810   4.839   3.022 -0.6449  0.6591  0.6231
  459MOL0     C61874   0.664   4.846   3.058 -0.5575 -0.4843 -0.3600
  459MOL0    Cl61875   0.558   4.904   2.924  0.1213  0.4417 -0.2286
  459MOL0     C61876   1.717   4.774   2.761 -0.5620  0.4224 -0.5045
  459MOL0     C61877   1.841   4.801   2.696  1.1201 -0.0660 -0.4463
  459MOL0     O61878   2.187   4.588   2.659  0.2601 -0.3439 -0.2272
  459MOL0     C61879   2.377   4.660   2.496 -0.0780  0.1861 -0.3827
  459MOL0     C61880   2.476   4.694   2.400  0.8821  0.4598 -0.4531
  459MOL0     N61881   3.228   4.796   2.274  0.2030 -0.7100  0.0102
  459MOL0     N61882   3.347   4.744   2.266 -0.2054  0.0510  1.2740
  459MOL0     C61883   4.228   5.502   1.779 -0.1408 -0.2290  0.4834
  459MOL0     C61884   4.351   5.565   1.792  0.1787  0.1557 -0.6126
  459MOL0     C61885   4.783   5.658   1.944  0.1453 -0.3935 -0.3843
  459MOL0     C61886   4.897   5.665   2.037 -0.3920  0.4713  0.1628
  459MOL0     C61887   5.009   5.739   2.016  0.1369 -0.3779  0.8363
  459MOL0     C61888   5.021   5.821   1.899  0.3903  0.1556 -0.0751
  459MOL0     O61889   5.128   5.905   1.879 -0.2947  0.6841  0.0653
  459MOL0     C61890   5.207   5.848   1.775  0.8510 -0.7747  0.8092
  459MOL0     C61891   5.357   5.900   1.782  0.2581  0.4473  0.2949
  459MOL0     C61892   5.428   5.861   1.901 -0.1430  0.1746  0.2229
  459MOL0     C61893   5.567   5.934   1.918 -0.0230  0.0979  0.1251
  459MOL0     C61894   5.664   5.925   1.812 -1.4768 -0.6255  0.4344
  459MOL0     C61895   5.750   5.916   1.725  0.4328  0.4555 -0.2481
  459MOL0     C61896   4.915   5.821   1.814  0.3934 -0.7546  0.1375
  459MOL0     C61897   4.798   5.741   1.829 -0.3590 -0.2094  0.0395
  459MOL0     H61898   4.482   5.363   2.034  1.4140 -0.8968 -0.8919
  459MOL0     H61899   4.272   5.248   2.006  0.9214 -1.1916 -1.3128
  459MOL0     H61900   3.929   5.444   1.807  0.2467 -0.1021  0.8146
  459MOL0     H61901   4.014   5.375   1.665  0.4082 -2.2461 -1.4527
  459MOL0     H61902   3.783   5.298   1.702 -0.6970 -1.9516 -0.9114
  459MOL0     H61903   3.901   5.172   1.677 -0.3442  3.1688 -3.0942
  459MOL0     H61904   3.911   5.134   1.923  0.4052  1.6299  0.6382
  459MOL0     H61905   3.795   5.256   1.940  0.3559 -1.5336  1.2396
  459MOL0     H61906   3.612   5.136   1.850  0.5712  1.1367 -0.8940
  459MOL0     H61907   3.711   5.035   1.756  2.3585  1.0687 -0.7343
  459MOL0     H61908   3.784   4.910   1.964  1.0312  1.3371 -0.3272
  459MOL0     H61909   3.695   5.039   2.065 -1.2099  3.1859 -1.9129
  459MOL0     H61910   3.499   4.944   1.968  0.8245  1.6581 -3.7429
  459MOL0     H61911   3.578   4.830   1.863 -2.1333 -1.5461  0.9441
  459MOL0     H61912   3.708   4.733   2.066  1.0999  1.0499  0.3226
  459MOL0     H61913   3.603   4.839   2.167 -1.2070  1.4227 -0.6372
  459MOL0     H61914   3.527   4.590   2.137 -2.6842 -1.8025 -0.7179
  459MOL0     H61915   3.473   4.646   1.972 -2.3611  1.6723 -0.5930
  459MOL0     H61916   3.252   4.804   1.949 -2.4121 -0.3063  1.1463
  459MOL0     H61917   3.039   4.989   2.184 -2.6233 -0.3512  0.7973
  459MOL0     H61918   3.027   4.912   2.021 -0.6614 -1.1720 -0.5513
  459MOL0     H61919   2.949   4.767   2.278 -2.1295  2.0808  0.9240
  459MOL0     H61920   2.930   4.718   2.113 -1.8613 -0.3981  1.1088
  459MOL0     H61921   2.754   4.926   2.105 -2.9149  1.5826  2.2908
  459MOL0     H61922   2.829   4.954   2.272  3.8720 -2.9390  2.4251
  459MOL0     H61923   2.744   4.726   2.325 -2.1788 -0.2349  0.4596
  459MOL0     H61924   2.672   4.709   2.164  2.1916  1.2822 -2.6853
  459MOL0     H61925   2.366   4.993   2.316  1.3951 -0.4179  0.7021
  459MOL0     H61926   2.042   4.920   2.415 -1.2836  0.5707  2.7528
  459MOL0     H61927   2.134   4.979   2.544 -1.6688 -1.1066 -0.4742
  459MOL0     H61928   2.153   5.045   2.379  1.7002 -1.0363 -1.3377
  459MOL0     H61929   1.962   4.484   2.683  0.7907  0.6272 -1.0297
  459MOL0     H61930   1.737   4.436   2.770 -3.8927  0.7959 -2.7400
  459MOL0     H61931   1.483   4.791   2.891  1.0587 -0.0271  0.0235
  459MOL0     H61932   1.462   4.753   2.724 -0.0056 -0.5257  0.1840
  459MOL0     H61933   1.267   4.605   2.774 -2.2133 -2.8235  2.1088
  459MOL0     H61934   1.302   4.598   2.943 -1.0640 -1.4266 -2.0572
  459MOL0     H61935   1.191   4.850   2.795 -1.9415  1.7178  0.9526
  459MOL0     H61936   1.272   4.855   2.949  1.5897 -2.4405  2.1210
  459MOL0     H61937   1.084   4.661   3.009 -1.3811  1.4231  3.5371
  459MOL0     H61938   1.067   4.830   3.026 -3.9200 -0.6889  1.0176
  459MOL0     H61939   0.985   4.648   2.789 -3.2883 -0.8011  1.0834
  459MOL0     H61940   0.969   4.819   2.775  2.7980 -0.8915 -1.0396
  459MOL0     H61941   0.749   4.702   2.870 -0.6265 -1.8169  2.5852
  459MOL0     H61942   0.841   4.634   2.994 -0.0622  0.4415 -1.4470
  459MOL0     H61943   0.840   4.924   2.960 -0.2627  0.0623 -0.0241
  459MOL0     H61944   0.877   4.838   3.109  0.5350  4.6512 -0.0452
  459MOL0     H61945   0.660   4.920   3.139 -0.6891 -1.8178  0.9016
  459MOL0     H61946   0.626   4.756   3.106 -1.0491 -0.5177 -0.8027
  459MOL0     H61947   1.651   4.857   2.783  0.9540  1.5736 -0.1709
  459MOL0     H61948   1.870   4.903   2.678 -1.7552  0.7062 -1.2487
  459MOL0     H61949   2.385   4.569   2.554  1.4497  2.1543  2.7392
  459MOL0     H61950   2.551   4.617   2.386  0.1506 -0.1789 -0.9688
  459MOL0     H61951   4.150   5.548   1.719 -0.1659  0.1904  0.8338
  459MOL0     H61952   4.380   5.659   1.747 -2.4796  0.8516 -1.0178
  459MOL0     H61953   4.887   5.598   2.122  0.1648 -0.6439 -0.6286
  459MOL0     H61954   5.086   5.737   2.092  1.2393 -0.1996 -0.2406
  459MOL0     H61955   5.201   5.740   1.791 -5.0223 -0.6428  1.9704
  459MOL0     H61956   5.159   5.861   1.678  0.6939 -0.7563  0.8873
  459MOL0     H61957   5.359   6.010   1.787 -0.7601  0.4277  1.6021
  459MOL0     H61958   5.412   5.859   1.697  1.2083 -1.2386  1.6557
  459MOL0     H61959   5.440   5.753   1.885  0.5433  0.6421 -3.3018
  459MOL0     H61960   5.373   5.888   1.991  0.3424  1.8460  0.0427
  459MOL0     H61961   5.619   5.900   2.009 -1.6191  1.1255  1.4902
  459MOL0     H61962   5.538   6.039   1.930 -0.7765  0.2129 -2.2789
  459MOL0     H61963   5.832   5.923   1.657  0.6991  2.1646  0.2076
  459MOL0     H61964   4.916   5.899   1.738 -2.1427  1.1859  1.9420
  459MOL0     H61965   4.729   5.736   1.746  0.7454  1.6444 -1.0437
  460MOL0     O61966   7.910   8.615   9.706 -0.0707  0.2093  0.7288
  460MOL0     C61967   7.996   8.576   9.783 -0.0525  1.2133  0.1463
  460MOL0     O61968   7.977   8.471   9.867 -0.1748  0.2180  0.5463
  460MOL0     C61969   7.860   8.409   9.856  0.7207 -0.0667  0.2723
  460MOL0     C61970   7.738   8.468   9.905 -0.5623 -1.0156 -0.1733
  460MOL0     C61971   7.628   8.400   9.895  0.0980 -0.5388 -0.2173
  460MOL0     C61972   7.626   8.273   9.837 -0.2856  0.6147  0.0859
  460MOL0     O61973   7.504   8.207   9.818 -0.9405 -0.3799  0.8821
  460MOL0     C61974   7.496   8.077   9.750  0.1326 -0.1831 -0.3189
  460MOL0     C61975   7.356   8.062   9.690  0.3376  0.2093 -0.5153
  460MOL0     C61976   7.240   8.014   9.790 -0.6312  0.2522 -0.3921
  460MOL0     C61977   7.128   7.940   9.715 -0.4572  0.2882  0.0775
  460MOL0     C61978   6.994   7.941   9.795  0.7063  0.0629  1.2954
  460MOL0     C61979   6.929   8.083   9.806 -0.1738  0.0768  0.5742
  460MOL0     C61980   6.937   8.178   9.680 -0.3187  0.6849  0.4018
  460MOL0     C61981   6.853   8.128   9.557  0.8060 -0.1481  0.8498
  460MOL0     N61982   6.714   8.103   9.609 -0.4263  0.1126 -0.1851
  460MOL0     C61983   6.639   8.199   9.678 -0.0054 -0.1563 -0.0472
  460MOL0     C61984   6.532   8.140   9.722 -0.1982  0.8344 -0.0699
  460MOL0     C61985   6.410   8.193   9.792 -0.3057 -0.1831 -0.0323
  460MOL0     C61986   6.427   8.189   9.944  0.2570  1.1636 -0.4714
  460MOL0     C61987   6.310   8.132  10.016  0.1779 -1.1013 -0.3037
  460MOL0     C61988   6.203   8.237  10.016 -0.3934  0.9671 -0.2580
  460MOL0     O61989   6.079   8.168  10.019 -0.2274  0.0644 -0.4347
  460MOL0     C61990   6.038   8.107  10.134  0.5393  0.3645 -0.1178
  460MOL0     C61991   6.098   8.118  10.264 -0.0769  0.7069  0.3805
  460MOL0     C61992   6.050   8.041  10.371  0.3923 -0.4459 -0.7168
  460MOL0     C61993   6.116   8.053  10.506  0.1453 -0.2742 -0.7986
  460MOL0     C61994   5.920   7.973  10.354 -0.0467  0.0299  0.2011
  460MOL0     C61995   5.844   7.913  10.466 -0.8721 -0.9003  0.2267
  460MOL0     O61996   5.746   7.817  10.431  0.3022 -0.9716 -0.6494
  460MOL0     C61997   5.662   7.781  10.540 -0.0270 -0.7958  0.7134
  460MOL0     C61998   5.527   7.836  10.561  0.5972  0.4341 -0.3580
  460MOL0     C61999   5.449   7.791  10.669 -0.1811  0.2167  0.2451
  460MOL0     C62000   5.508   7.694  10.758 -0.0545  0.0874  0.1287
  460MOL0     O62001   5.430   7.642  10.858  0.4588  0.0388 -0.1895
  460MOL0     C62002   5.323   7.559  10.807 -0.6729 -1.0180  0.3097
  460MOL0     C62003   5.320   7.411  10.857  0.3080  0.5557 -0.6067
  460MOL0     C62004   5.219   7.331  10.768  0.9595  0.4988 -0.4203
  460MOL0     C62005   5.220   7.179  10.783 -0.0306 -0.9738  0.8477
  460MOL0     C62006   5.166   7.115  10.657 -0.2233 -0.0995 -0.2600
  460MOL0     C62007   5.013   7.133  10.638 -0.4332 -0.2609  0.1544
  460MOL0     C62008   4.978   7.077  10.498  0.4538  0.2259  0.3671
  460MOL0     C62009   4.834   7.070  10.479  0.3411 -0.3086  0.6447
  460MOL0    Cl62010   4.744   7.219  10.530 -0.3400  0.0156 -0.1688
  460MOL0     C62011   5.637   7.650  10.739  0.2501  0.9200  0.1414
  460MOL0     C62012   5.720   7.689  10.631  0.1167 -0.0048 -0.4605
  460MOL0     O62013   5.856   7.961  10.578  1.1878  0.5703 -0.0789
  460MOL0     C62014   5.862   7.971  10.227  0.3325  0.0969  0.2076
  460MOL0     C62015   5.919   8.028  10.120  0.4842 -0.6253  0.5321
  460MOL0     N62016   6.546   8.002   9.688 -0.0921  0.6205  0.1864
  460MOL0     N62017   6.651   7.986   9.611  0.1773 -1.4459  0.1339
  460MOL0     C62018   7.746   8.215   9.791  0.5520  0.4698 -0.3836
  460MOL0     C62019   7.861   8.288   9.793  0.4050 -0.1615  0.4471
  460MOL0     C62020   8.120   8.639   9.789 -1.1851 -0.3013 -0.4019
  460MOL0     C62021   8.146   8.766   9.716  0.1555 -0.4155  0.7132
  460MOL0     C62022   8.273   8.830   9.721 -0.5605  0.0369  0.3670
  460MOL0     C62023   8.375   8.773   9.795  0.5085 -0.1124 -0.0271
  460MOL0     O62024   8.504   8.838   9.800  0.2333 -0.5071  0.0519
  460MOL0     C62025   8.611   8.771   9.861  0.0224 -0.4468  0.4231
  460MOL0     C62026   8.682   8.671   9.765  1.2332  0.0421  0.7393
  460MOL0     C62027   8.809   8.605   9.803  0.2694 -0.0296  0.3229
  460MOL0     C62028   8.812   8.544   9.947  0.3831  0.1143  1.0708
  460MOL0     C62029   8.946   8.524   9.992 -0.0708 -0.3740 -0.0392
  460MOL0     C62030   9.059   8.502  10.028 -0.8606  0.3825 -0.5596
  460MOL0     C62031   8.350   8.649   9.860  0.2001 -0.4340  0.1294
  460MOL0     C62032   8.224   8.592   9.866  0.5739  0.0280  1.6478
  460MOL0     H62033   7.736   8.564   9.957 -0.8869 -0.1515 -1.7235
  460MOL0     H62034   7.537   8.445   9.932  2.6303  2.5143  3.0072
  460MOL0     H62035   7.564   8.072   9.665  1.5614  2.6318  0.5327
  460MOL0     H62036   7.517   7.990   9.813  3.0304  0.5582 -0.1210
  460MOL0     H62037   7.329   8.149   9.629 -0.4238  0.0781 -0.3752
  460MOL0     H62038   7.367   7.980   9.618 -1.1808 -0.6512  0.1906
  460MOL0     H62039   7.269   7.942   9.868  1.2399  1.2897 -0.0660
  460MOL0     H62040   7.202   8.106   9.835  2.4119  0.8127  1.2817
  460MOL0     H62041   7.105   7.976   9.614 -3.7414 -2.8269 -0.4981
  460MOL0     H62042   7.162   7.838   9.696 -0.4590  0.4688 -1.0025
  460MOL0     H62043   6.928   7.867   9.749 -0.5665  0.1286  2.8711
  460MOL0     H62044   7.016   7.900   9.894  1.4920  0.5976  1.3505
  460MOL0     H62045   6.826   8.077   9.842 -0.3572 -1.6798 -0.1359
  460MOL0     H62046   6.975   8.140   9.887 -0.0854  0.5769  0.1777
  460MOL0     H62047   6.908   8.282   9.697 -2.2257  0.7619 -2.5724
  460MOL0     H62048   7.039   8.175   9.641 -1.2528  0.0957 -2.2002
  460MOL0     H62049   6.886   8.029   9.524 -3.6267 -2.0347  1.4318
  460MOL0     H62050   6.863   8.207   9.483 -0.1760 -1.7486 -1.0838
  460MOL0     H62051   6.664   8.304   9.692  0.8270 -0.5141  1.3925
  460MOL0     H62052   6.395   8.300   9.773  1.7579 -0.0149 -0.9515
  460MOL0     H62053   6.331   8.126   9.754 -1.1393  0.6631  0.1650
  460MOL0     H62054   6.455   8.288   9.980  2.0490  1.0827 -1.5175
  460MOL0     H62055   6.510   8.124   9.972  0.0805  1.5780  1.0770
  460MOL0     H62056   6.343   8.104  10.117  0.2506  2.2632  0.7118
  460MOL0     H62057   6.271   8.045   9.963  1.3773 -1.2044 -1.0520
  460MOL0     H62058   6.208   8.298   9.926  0.0233 -0.3748 -1.1737
  460MOL0     H62059   6.215   8.306  10.100 -1.0056  2.8240 -1.6366
  460MOL0     H62060   6.190   8.175  10.278  0.9582 -1.0093  0.8216
  460MOL0     H62061   6.109   7.963  10.568  0.1093  0.5105  0.3627
  460MOL0     H62062   6.221   8.083  10.520  0.1935 -1.0103  0.5573
  460MOL0     H62063   6.062   8.132  10.558  2.5794  1.5056 -0.7912
  460MOL0     H62064   5.486   7.907  10.490 -3.2297 -0.9133  0.2662
  460MOL0     H62065   5.356   7.844  10.687 -0.1661  0.3751 -0.1417
  460MOL0     H62066   5.228   7.605  10.836 -0.4618  0.3059 -0.9659
  460MOL0     H62067   5.308   7.558  10.699  0.0358 -1.2179  0.2112
  460MOL0     H62068   5.417   7.360  10.862 -0.8530 -1.9305 -1.6159
  460MOL0     H62069   5.286   7.396  10.960  1.2120 -1.4049 -0.5552
  460MOL0     H62070   5.255   7.351  10.666  0.0856  1.2208 -0.6024
  460MOL0     H62071   5.116   7.366  10.769  1.3583  1.7904 -1.1100
  460MOL0     H62072   5.320   7.140  10.805  0.2647  0.0473  1.3963
  460MOL0     H62073   5.169   7.141  10.872  0.8503 -1.4849  1.1505
  460MOL0     H62074   5.178   7.007  10.667 -2.1114 -0.1053  5.1258
  460MOL0     H62075   5.220   7.135  10.564 -0.3959 -0.9941 -0.5629
  460MOL0     H62076   4.974   7.070  10.719 -1.3204 -0.0902 -0.1337
  460MOL0     H62077   4.976   7.235  10.650 -0.2016  0.2486 -2.7844
  460MOL0     H62078   5.028   6.980  10.486 -0.7027 -0.1038 -2.6848
  460MOL0     H62079   5.008   7.137  10.412 -2.3220  1.3924  0.1456
  460MOL0     H62080   4.790   6.998  10.549  2.6210 -1.6257  0.8114
  460MOL0     H62081   4.809   7.033  10.379  1.0092 -0.3692  0.4965
  460MOL0     H62082   5.669   7.573  10.808  2.1357 -0.4964 -2.1657
  460MOL0     H62083   5.819   7.649  10.614 -0.0439 -0.9136  0.5882
  460MOL0     H62084   5.781   7.898  10.220 -0.3087  0.7432  0.7756
  460MOL0     H62085   5.857   8.034  10.030 -2.9271 -0.1164  2.7149
  460MOL0     H62086   7.764   8.123   9.738  1.3390  0.6263 -0.4119
  460MOL0     H62087   7.958   8.245   9.767 -0.6854 -2.0927 -0.6468
  460MOL0     H62088   8.068   8.812   9.658 -0.7492 -1.5514  0.9907
  460MOL0     H62089   8.295   8.923   9.671  2.4554  0.8690  2.9559
  460MOL0     H62090   8.688   8.845   9.887  1.1850 -1.9152  1.3215
  460MOL0     H62091   8.591   8.719   9.955 -1.8211 -0.4379  0.0720
  460MOL0     H62092   8.705   8.740   9.684  0.9666 -0.2644  0.4037
  460MOL0     H62093   8.605   8.602   9.732  2.1002 -1.7025  2.1533
  460MOL0     H62094   8.884   8.681   9.781  1.4139 -1.6501 -1.7178
  460MOL0     H62095   8.832   8.537   9.721  0.2555  1.8391 -1.2967
  460MOL0     H62096   8.750   8.454   9.954 -2.1075  1.6562  0.1269
  460MOL0     H62097   8.779   8.615  10.023  0.7906  0.8100  0.6094
  460MOL0     H62098   9.161   8.486  10.054 -1.0545  0.6877  0.4341
  460MOL0     H62099   8.425   8.596   9.918  0.2094 -0.7979 -0.2136
  460MOL0     H62100   8.200   8.511   9.934 -3.7560 -0.8065 -0.5457
  461MOL0     O62101   4.516   9.983   1.404 -0.2793 -0.4093  0.0948
  461MOL0     C62102   4.490   9.969   1.288 -0.1657 -0.6100 -0.3325
  461MOL0     O62103   4.576   9.915   1.200 -0.3532  0.3873 -0.3445
  461MOL0     C62104   4.698   9.861   1.256  0.5649 -0.4843 -0.4136
  461MOL0     C62105   4.823   9.912   1.233 -0.6956 -0.1853  0.4846
  461MOL0     C62106   4.941   9.859   1.294 -0.1989 -0.7634  0.3581
  461MOL0     C62107   4.934   9.759   1.385 -0.2380 -1.0759  0.5989
  461MOL0     O62108   5.054   9.720   1.444  0.2413  0.6842 -0.7998
  461MOL0     C62109   5.051   9.619   1.553  0.3271 -0.0996 -0.0555
  461MOL0     C62110   5.055   9.699   1.683 -1.1019  1.1735 -0.5961
  461MOL0     C62111   5.045   9.613   1.805 -0.1706  0.0247 -0.2032
  461MOL0     C62112   5.052   9.706   1.923 -0.2025 -0.1432  0.6826
  461MOL0     C62113   5.007   9.633   2.058 -0.3848  0.3481  0.2909
  461MOL0     C62114   4.851   9.601   2.076 -0.3235 -0.0218 -0.0520
  461MOL0     C62115   4.839   9.565   2.227  0.4711  0.1998  0.3048
  461MOL0     C62116   4.898   9.431   2.264  0.5785  1.1480  0.2771
  461MOL0     N62117   4.886   9.396   2.407  0.0144  0.6224 -0.6138
  461MOL0     C62118   4.968   9.434   2.512  0.8549 -0.0502  0.0263
  461MOL0     C62119   4.909   9.363   2.616  0.4341  0.1324 -0.2230
  461MOL0     C62120   4.946   9.363   2.768  0.3367  0.4197 -0.1661
  461MOL0     C62121   4.920   9.505   2.832  0.3015 -0.0789 -0.0174
  461MOL0     C62122   4.776   9.540   2.807  0.1249  0.4828  0.0346
  461MOL0     C62123   4.753   9.679   2.866 -0.1166  0.2732  0.4143
  461MOL0     O62124   4.627   9.733   2.812  0.2253 -0.5185 -0.0650
  461MOL0     C62125   4.594   9.860   2.849 -1.1968 -0.3614  0.4595
  461MOL0     C62126   4.656   9.940   2.951  0.5181 -0.0868  0.0755
  461MOL0     C62127   4.605  10.059   2.998 -1.0132 -0.0858 -0.9334
  461MOL0     C62128   4.689  10.116   3.119 -0.4124 -0.8317  0.1707
  461MOL0     C62129   4.488  10.111   2.947 -0.0204  0.4706  0.0257
  461MOL0     C62130   4.416  10.221   3.012  0.5119  0.0080 -0.3463
  461MOL0     O62131   4.313  10.278   2.935 -0.8210 -0.2448 -1.4212
  461MOL0     C62132   4.227  10.358   3.005 -0.2788  0.2387  0.0995
  461MOL0     C62133   4.138  10.297   3.094  1.4480 -0.0969 -0.3481
  461MOL0     C62134   4.064  10.382   3.169  0.6943 -0.6724 -0.0332
  461MOL0     C62135   4.060  10.524   3.147 -0.0207 -0.9091 -0.6904
  461MOL0     O62136   3.981  10.612   3.220  0.6271 -0.1765  0.1226
  461MOL0     C62137   3.949  10.573   3.352 -0.7573  0.0416  0.0469
  461MOL0     C62138   3.928  10.696   3.446  0.2318  0.3240  0.4461
  461MOL0     C62139   3.913  10.667   3.597 -0.3572 -0.4548  0.8149
  461MOL0     C62140   3.839  10.779   3.671  0.0053 -0.3547  0.1053
  461MOL0     C62141   3.845  10.750   3.820 -0.0039 -1.2006 -0.0735
  461MOL0     C62142   3.751  10.636   3.847 -0.7716 -0.3010 -0.5857
  461MOL0     C62143   3.750  10.611   3.997  0.7448 -0.6897 -0.4333
  461MOL0     C62144   3.637  10.521   4.038  0.8305 -0.5739  1.0385
  461MOL0    Cl62145   3.478  10.580   3.976 -0.2751  0.0931 -0.0234
  461MOL0     C62146   4.148  10.576   3.046 -0.7602  0.2497 -0.1454
  461MOL0     C62147   4.233  10.490   2.975 -0.0597  0.5623  0.2060
  461MOL0     O62148   4.440  10.252   3.130  0.7567 -0.4816 -0.6557
  461MOL0     C62149   4.428  10.045   2.837 -0.9131 -0.6532  1.0061
  461MOL0     C62150   4.477   9.917   2.800  0.5895  0.3579  0.8735
  461MOL0     N62151   4.798   9.289   2.565 -0.2266  0.0529 -0.3550
  461MOL0     N62152   4.791   9.305   2.443 -0.2506 -0.6727 -0.5147
  461MOL0     C62153   4.810   9.695   1.403 -0.6258 -0.3070 -1.0363
  461MOL0     C62154   4.696   9.765   1.357  0.7570  0.6320  1.5213
  461MOL0     C62155   4.366  10.021   1.244  0.8085 -0.2728 -0.2056
  461MOL0     C62156   4.250  10.040   1.329  0.2255 -0.0980  0.8315
  461MOL0     C62157   4.121  10.048   1.274  0.2445 -0.2257 -0.9480
  461MOL0     C62158   4.105  10.092   1.139  0.7309 -0.2567  0.2863
  461MOL0     O62159   3.980  10.118   1.080  0.8978  0.3722 -0.5717
  461MOL0     C62160   3.858  10.094   1.154  0.3247 -0.2273  0.3016
  461MOL0     C62161   3.830   9.939   1.176 -0.6566 -0.6498 -0.4190
  461MOL0     C62162   3.858   9.858   1.049  0.3785 -0.1971 -0.5940
  461MOL0     C62163   3.802   9.719   1.044  0.1064  0.7357 -0.0510
  461MOL0     C62164   3.832   9.651   0.913  0.1461 -1.0065  0.1018
  461MOL0     C62165   3.860   9.594   0.809 -1.1260  0.2136  0.0230
  461MOL0     C62166   4.214  10.080   1.051  0.6574  0.1732 -0.3035
  461MOL0     C62167   4.344  10.047   1.105  0.2982  0.6693  0.2391
  461MOL0     H62168   4.838  10.004   1.177 -1.6690  0.9239  1.9733
  461MOL0     H62169   5.040   9.902   1.278 -1.6163  1.5836 -3.3824
  461MOL0     H62170   4.965   9.551   1.554  0.7705 -0.6910 -0.7377
  461MOL0     H62171   5.139   9.556   1.542  1.2586  1.3018 -1.0948
  461MOL0     H62172   5.144   9.763   1.681 -1.4330  1.6260 -1.3381
  461MOL0     H62173   4.971   9.769   1.684 -2.2156  0.0832  3.6402
  461MOL0     H62174   4.952   9.556   1.792  0.1560 -0.3973 -0.7596
  461MOL0     H62175   5.125   9.539   1.812 -0.4102 -0.2735 -0.5778
  461MOL0     H62176   5.157   9.736   1.922 -0.1960  0.0536  2.5582
  461MOL0     H62177   4.993   9.797   1.908  0.1665 -0.0183 -0.0380
  461MOL0     H62178   5.061   9.538   2.061  0.2535  0.5747 -1.8028
  461MOL0     H62179   5.050   9.687   2.142  2.4913 -3.2054  1.3937
  461MOL0     H62180   4.797   9.688   2.040  0.8158  0.6949 -0.0668
  461MOL0     H62181   4.819   9.521   2.009 -2.0726  2.2918 -2.1653
  461MOL0     H62182   4.871   9.640   2.299 -2.7869  2.5243 -0.4461
  461MOL0     H62183   4.732   9.548   2.240  0.1282  2.6604  1.2371
  461MOL0     H62184   5.004   9.426   2.238  0.9475  0.6020  1.7704
  461MOL0     H62185   4.849   9.362   2.195 -2.4973  4.7957 -1.5868
  461MOL0     H62186   5.047   9.508   2.505  1.3916 -0.4462  1.4142
  461MOL0     H62187   4.876   9.294   2.817 -0.5132  0.2955 -1.5138
  461MOL0     H62188   5.051   9.333   2.776  0.9736  1.0730 -4.0409
  461MOL0     H62189   4.980   9.571   2.769 -0.7161  0.7848 -0.1109
  461MOL0     H62190   4.939   9.518   2.939 -1.2425  0.5877  0.2014
  461MOL0     H62191   4.708   9.468   2.854 -2.5555  2.0342 -1.2089
  461MOL0     H62192   4.755   9.554   2.700  1.2291 -1.4461 -0.4931
  461MOL0     H62193   4.834   9.750   2.845  1.1529 -1.1388  0.3735
  461MOL0     H62194   4.747   9.666   2.975  2.3320  0.7961  0.6753
  461MOL0     H62195   4.754   9.909   2.987 -0.0820  0.5320  2.4195
  461MOL0     H62196   4.713  10.219   3.093 -0.7167 -0.7008  0.4116
  461MOL0     H62197   4.639  10.126   3.215  0.4759 -0.0866  0.5641
  461MOL0     H62198   4.775  10.053   3.141  1.6618  2.4915  2.3924
  461MOL0     H62199   4.140  10.190   3.114  2.6749 -0.1912 -0.8310
  461MOL0     H62200   4.007  10.322   3.238 -1.5885 -0.1130 -1.3223
  461MOL0     H62201   3.859  10.512   3.342 -2.9066  3.1107 -0.6624
  461MOL0     H62202   4.037  10.526   3.397 -0.5816  1.6632  1.5335
  461MOL0     H62203   4.017  10.758   3.429  0.4444  0.1239  0.8317
  461MOL0     H62204   3.840  10.754   3.415 -0.6860 -0.9083  0.6952
  461MOL0     H62205   4.013  10.667   3.643  0.6658  0.6973 -1.2501
  461MOL0     H62206   3.869  10.568   3.610  0.2209 -0.6629  1.2848
  461MOL0     H62207   3.882  10.877   3.645  0.2411  0.2197  2.4234
  461MOL0     H62208   3.738  10.795   3.633  0.2904 -1.2747 -1.1262
  461MOL0     H62209   3.817  10.837   3.879 -4.0700 -1.4066 -1.3650
  461MOL0     H62210   3.951  10.735   3.841  0.4764  0.3301 -1.1752
  461MOL0     H62211   3.654  10.675   3.815 -1.6629 -1.7181  0.2512
  461MOL0     H62212   3.773  10.542   3.794 -0.3834 -0.0722 -0.8413
  461MOL0     H62213   3.748  10.710   4.045  3.6472  0.3844 -2.2464
  461MOL0     H62214   3.844  10.568   4.032  1.0715 -1.2887 -1.9659
  461MOL0     H62215   3.629  10.516   4.147  2.5178 -3.2881  1.1320
  461MOL0     H62216   3.644  10.419   3.999  0.3396  0.7322 -3.0101
  461MOL0     H62217   4.159  10.683   3.030  0.6623  0.3201  1.0859
  461MOL0     H62218   4.309  10.528   2.908  2.1457  0.8171  2.7114
  461MOL0     H62219   4.339  10.095   2.802 -0.4262 -0.2829  0.2806
  461MOL0     H62220   4.427   9.875   2.713  0.9919  0.7577  0.4394
  461MOL0     H62221   4.789   9.603   1.456  1.2646 -0.8247 -1.1361
  461MOL0     H62222   4.594   9.740   1.387  0.5951  0.2702  0.7006
  461MOL0     H62223   4.258  10.031   1.437 -3.1896 -0.3017  1.1612
  461MOL0     H62224   4.048  10.054   1.354  2.4432  1.6001  1.1346
  461MOL0     H62225   3.852  10.152   1.247 -1.4607  0.3421 -0.1286
  461MOL0     H62226   3.775  10.128   1.092  0.3570 -1.0549 -0.2183
  461MOL0     H62227   3.725   9.933   1.203 -0.7234 -1.9038 -0.8730
  461MOL0     H62228   3.892   9.917   1.264 -5.1698  1.1753  3.6652
  461MOL0     H62229   3.964   9.863   1.023  0.3396 -3.1145 -1.5760
  461MOL0     H62230   3.804   9.907   0.967 -3.1963  0.5116  1.9261
  461MOL0     H62231   3.693   9.720   1.056 -0.0952  2.2534 -1.6114
  461MOL0     H62232   3.848   9.654   1.119 -0.0413  0.0617 -0.5332
  461MOL0     H62233   3.915   9.548   0.728 -0.0074  0.3318  0.6892
  461MOL0     H62234   4.200  10.093   0.944 -0.4475  2.4100  0.0466
  461MOL0     H62235   4.436  10.044   1.047  0.7494  0.5294  0.9553
  462MOL0     O62236   8.246   6.911   9.270  0.1292  0.2064 -0.6867
  462MOL0     C62237   8.279   7.029   9.260 -0.7205  1.0827  0.2190
  462MOL0     O62238   8.194   7.129   9.220  0.6581 -0.2247 -0.0941
  462MOL0     C62239   8.070   7.092   9.179  0.0686  0.2998 -0.3709
  462MOL0     C62240   7.986   7.018   9.253 -1.0206  0.9809  0.1423
  462MOL0     C62241   7.859   6.985   9.196 -0.1028 -0.2320  0.2914
  462MOL0     C62242   7.807   7.058   9.088  0.6045  0.7029 -0.4224
  462MOL0     O62243   7.672   7.031   9.059 -0.0782  0.3035 -0.0787
  462MOL0     C62244   7.606   7.118   8.965  0.5999 -0.3730 -1.7347
  462MOL0     C62245   7.591   7.059   8.822 -0.8041 -0.0674 -1.1835
  462MOL0     C62246   7.479   7.140   8.746 -0.2243  0.3633  1.0857
  462MOL0     C62247   7.495   7.114   8.597 -0.5096 -0.1778  0.2086
  462MOL0     C62248   7.359   7.126   8.537  0.6672 -0.5030 -0.3751
  462MOL0     C62249   7.291   7.263   8.550  0.7376  0.5814 -0.2828
  462MOL0     C62250   7.160   7.265   8.483  0.7068  0.6023  0.7929
  462MOL0     C62251   7.058   7.365   8.547 -0.5732 -0.3442 -0.2390
  462MOL0     N62252   7.091   7.499   8.511 -0.4290 -0.5156 -0.0399
  462MOL0     C62253   7.170   7.584   8.592  1.1633  0.7639 -0.0488
  462MOL0     C62254   7.161   7.703   8.533 -0.1547 -0.2293 -0.2593
  462MOL0     C62255   7.230   7.832   8.566  0.3987  0.9304  1.2067
  462MOL0     C62256   7.370   7.802   8.629  1.4988 -0.3314  0.1403
  462MOL0     C62257   7.450   7.928   8.651  0.8057  1.0387  0.1141
  462MOL0     C62258   7.591   7.898   8.707  0.2708 -0.5577 -0.1608
  462MOL0     O62259   7.687   8.006   8.693 -0.1333 -0.0882  0.3110
  462MOL0     C62260   7.797   7.986   8.775 -0.7748 -0.0422  0.1742
  462MOL0     C62261   7.860   8.104   8.812  0.1113 -0.9556  0.5844
  462MOL0     C62262   7.969   8.109   8.904 -0.1254 -0.0286 -0.0908
  462MOL0     C62263   7.994   8.249   8.960  0.3129  0.1016 -0.3277
  462MOL0     C62264   8.036   7.989   8.935 -0.7356 -0.1816 -0.1680
  462MOL0     C62265   8.166   7.994   9.010  0.5330  0.1027  0.7286
  462MOL0     O62266   8.227   7.873   9.032 -0.1307  0.3489  0.0401
  462MOL0     C62267   8.342   7.876   9.113 -1.2065 -0.3893  0.2208
  462MOL0     C62268   8.471   7.878   9.056 -0.2239 -0.5751 -0.4187
  462MOL0     C62269   8.588   7.872   9.135 -0.1968  0.4577  0.0740
  462MOL0     C62270   8.573   7.877   9.270 -0.4024 -0.2630 -0.0889
  462MOL0     O62271   8.691   7.878   9.331 -0.4734 -0.1436 -1.5207
  462MOL0     C62272   8.683   7.849   9.469 -0.9442  0.3760  0.2546
  462MOL0     C62273   8.829   7.810   9.506 -0.6061 -0.3860 -0.7679
  462MOL0     C62274   8.883   7.682   9.441 -0.6953 -0.6713  0.0057
  462MOL0     C62275   9.010   7.635   9.516 -0.2322  0.0498 -0.1934
  462MOL0     C62276   9.134   7.726   9.484  0.0142 -0.6487  0.3820
  462MOL0     C62277   9.184   7.744   9.342  0.2324 -0.3460  0.4712
  462MOL0     C62278   9.324   7.700   9.310  1.2184  0.0728 -0.5420
  462MOL0     C62279   9.326   7.552   9.319 -0.3076  1.1867 -0.4287
  462MOL0    Cl62280   9.427   7.506   9.465 -0.0694 -0.0572  0.7799
  462MOL0     C62281   8.444   7.876   9.328  0.4852  0.2314 -0.0453
  462MOL0     C62282   8.330   7.870   9.250 -0.7664  0.3597 -0.2312
  462MOL0     O62283   8.205   8.099   9.058 -0.3463  0.1365 -0.4707
  462MOL0     C62284   7.980   7.861   8.892 -0.0426 -0.6956  0.8900
  462MOL0     C62285   7.858   7.869   8.819  0.3672  0.2703 -1.2791
  462MOL0     N62286   7.086   7.692   8.420  0.1292  0.4113 -0.1755
  462MOL0     N62287   7.038   7.576   8.415 -0.4798  0.9074  0.1901
  462MOL0     C62288   7.897   7.150   9.031  0.7837  0.8235  0.1692
  462MOL0     C62289   8.024   7.162   9.072 -0.6779  0.4512  0.4133
  462MOL0     C62290   8.411   7.064   9.297 -0.6125 -0.8660  0.0357
  462MOL0     C62291   8.490   6.986   9.379 -0.1126  0.6118  0.6421
  462MOL0     C62292   8.611   7.026   9.427  0.2066 -0.7452 -0.1133
  462MOL0     C62293   8.667   7.150   9.376  0.6643 -0.3777 -0.0392
  462MOL0     O62294   8.796   7.189   9.421 -0.0909  0.1962  0.3094
  462MOL0     C62295   8.846   7.151   9.549  1.5665  0.6657 -0.1791
  462MOL0     C62296   8.982   7.216   9.563  0.2820  0.4627 -0.6109
  462MOL0     C62297   9.075   7.161   9.685 -0.1234 -0.6760  0.1802
  462MOL0     C62298   9.215   7.214   9.685 -0.1405 -0.2295  0.6674
  462MOL0     C62299   9.302   7.147   9.782 -0.1567  0.3764  0.2594
  462MOL0     C62300   9.372   7.092   9.862 -0.2105  0.0280 -0.0868
  462MOL0     C62301   8.587   7.231   9.291  0.1293 -0.3090  0.4001
  462MOL0     C62302   8.459   7.189   9.259 -0.0122  0.1015  0.3461
  462MOL0     H62303   8.006   6.973   9.350 -1.1548 -0.1529 -0.3413
  462MOL0     H62304   7.801   6.912   9.252  1.5790 -1.6993  0.2230
  462MOL0     H62305   7.502   7.128   8.998  0.3700  1.5789 -2.8727
  462MOL0     H62306   7.639   7.222   8.970 -1.3996  0.2551  1.0152
  462MOL0     H62307   7.684   7.063   8.764 -1.3990  1.8408 -2.0745
  462MOL0     H62308   7.561   6.953   8.819 -0.8235 -0.6393  5.2489
  462MOL0     H62309   7.379   7.116   8.783  0.8564 -0.7084  3.4500
  462MOL0     H62310   7.496   7.246   8.769 -2.2336  1.4220 -1.6649
  462MOL0     H62311   7.569   7.180   8.551 -1.0543 -0.9266 -1.8150
  462MOL0     H62312   7.518   7.011   8.568  1.1809  0.9281 -2.8655
  462MOL0     H62313   7.372   7.101   8.431  2.2412 -1.0844 -0.0745
  462MOL0     H62314   7.286   7.055   8.576 -1.3046  0.6185 -1.8055
  462MOL0     H62315   7.274   7.291   8.654 -0.2385  1.6795 -0.7189
  462MOL0     H62316   7.352   7.343   8.507  3.2674 -1.7734 -1.3803
  462MOL0     H62317   7.179   7.286   8.377 -1.9371  1.3286  0.3888
  462MOL0     H62318   7.116   7.165   8.485 -0.1481  0.9809  1.4252
  462MOL0     H62319   7.065   7.340   8.654  2.4272 -0.4766 -0.3623
  462MOL0     H62320   6.958   7.342   8.509 -1.1420  0.3588  0.7839
  462MOL0     H62321   7.229   7.556   8.679 -0.3113 -1.5454  0.2749
  462MOL0     H62322   7.234   7.886   8.471 -3.2991 -0.1021  0.2811
  462MOL0     H62323   7.162   7.883   8.636 -0.3228 -0.0886  1.2759
  462MOL0     H62324   7.427   7.745   8.555  1.0248  1.6169 -1.8233
  462MOL0     H62325   7.363   7.737   8.717  0.2087 -1.6489 -0.8777
  462MOL0     H62326   7.400   7.989   8.726  1.3648 -0.2283  1.5588
  462MOL0     H62327   7.449   7.976   8.552 -0.8602 -0.2183 -0.5343
  462MOL0     H62328   7.639   7.813   8.658  0.4796  0.8240 -2.5324
  462MOL0     H62329   7.582   7.871   8.813  2.7749  2.0848  0.8865
  462MOL0     H62330   7.832   8.196   8.762 -0.9123 -1.3943  0.3228
  462MOL0     H62331   8.094   8.275   8.925 -0.0699  2.0108 -0.1185
  462MOL0     H62332   7.922   8.323   8.923  0.0159 -1.1024 -2.3103
  462MOL0     H62333   7.981   8.243   9.068 -1.4300 -0.4989 -0.5396
  462MOL0     H62334   8.493   7.879   8.950  2.5323  1.0104  0.0792
  462MOL0     H62335   8.680   7.866   9.078 -0.7658  1.4381 -0.9977
  462MOL0     H62336   8.632   7.929   9.524 -0.2784 -1.2752  3.5196
  462MOL0     H62337   8.626   7.757   9.484  1.0728 -0.8869  0.5807
  462MOL0     H62338   8.897   7.894   9.494 -0.4624 -0.4112 -0.1338
  462MOL0     H62339   8.822   7.786   9.612 -1.2501 -1.7689 -1.1016
  462MOL0     H62340   8.911   7.703   9.338 -1.4081 -1.5266 -0.3710
  462MOL0     H62341   8.799   7.612   9.446 -1.1501 -0.2571 -1.4683
  462MOL0     H62342   8.984   7.647   9.622 -0.3294 -1.9926  0.0450
  462MOL0     H62343   9.029   7.531   9.489  1.7883  0.7170 -1.5264
  462MOL0     H62344   9.218   7.699   9.548  0.0563  1.2434  1.1726
  462MOL0     H62345   9.093   7.822   9.516  2.2384  0.3655  0.3829
  462MOL0     H62346   9.111   7.702   9.273  0.0970 -2.3825  1.7726
  462MOL0     H62347   9.181   7.853   9.330  1.1327 -0.0858  2.1570
  462MOL0     H62348   9.389   7.752   9.381  0.2849  2.4193 -1.3063
  462MOL0     H62349   9.348   7.730   9.207  0.0346  0.7379 -0.6490
  462MOL0     H62350   9.362   7.517   9.222 -2.4449  2.1361 -1.6477
  462MOL0     H62351   9.224   7.514   9.323 -0.8547  2.4813 -1.3639
  462MOL0     H62352   8.426   7.877   9.435  0.5388 -0.2818 -0.0270
  462MOL0     H62353   8.227   7.853   9.281 -0.4130 -1.0685  0.2467
  462MOL0     H62354   8.020   7.767   8.927 -0.4556 -0.7001  1.3754
  462MOL0     H62355   7.818   7.775   8.782 -0.0288 -1.1353  2.2808
  462MOL0     H62356   7.860   7.228   8.965 -0.9069  2.2215  2.5797
  462MOL0     H62357   8.094   7.231   9.027 -1.9998  0.5437 -1.6431
  462MOL0     H62358   8.451   6.889   9.409 -3.8148  1.6749 -0.2014
  462MOL0     H62359   8.670   6.957   9.487  2.0575  0.2346 -0.6927
  462MOL0     H62360   8.774   7.180   9.626 -0.3028  1.4898 -2.1529
  462MOL0     H62361   8.853   7.042   9.554 -0.9404  0.4686  0.2708
  462MOL0     H62362   8.976   7.326   9.561  0.7875  0.4848 -1.1470
  462MOL0     H62363   9.025   7.188   9.466  1.3422  0.0527 -0.0419
  462MOL0     H62364   9.089   7.053   9.688 -0.2130 -0.7612 -1.4493
  462MOL0     H62365   9.026   7.199   9.775 -1.4231  0.4311 -0.9460
  462MOL0     H62366   9.210   7.322   9.698  1.7010 -0.0185 -0.1569
  462MOL0     H62367   9.250   7.205   9.582 -2.1504  3.5587 -0.5160
  462MOL0     H62368   9.427   7.026   9.925 -1.5794 -1.5361 -0.4582
  462MOL0     H62369   8.631   7.328   9.272 -0.9982  0.3796  1.1996
  462MOL0     H62370   8.393   7.252   9.200 -1.8494 -2.4541 -0.5230
  463MOL0     O62371   7.816   5.245   1.739  0.1921 -0.4107 -0.0473
  463MOL0     C62372   7.839   5.140   1.791  0.0989  0.6220  0.1367
  463MOL0     O62373   7.749   5.041   1.805 -0.3520  0.4796 -0.5238
  463MOL0     C62374   7.634   5.030   1.734  0.6120 -0.1737  0.5735
  463MOL0     C62375   7.590   4.903   1.704  0.0007  0.0547  0.7391
  463MOL0     C62376   7.461   4.878   1.656 -0.5226 -0.1802 -0.3399
  463MOL0     C62377   7.382   4.984   1.627 -0.4813  0.8235 -0.0143
  463MOL0     O62378   7.269   4.979   1.548  0.3765 -0.3719  0.2444
  463MOL0     C62379   7.197   4.849   1.552  0.6496 -0.3310 -0.3451
  463MOL0     C62380   7.059   4.871   1.475  0.3056 -0.7152 -0.2425
  463MOL0     C62381   6.952   4.913   1.567  0.4161  0.1641 -0.1703
  463MOL0     C62382   6.816   4.925   1.498 -0.4295  0.7006  0.2652
  463MOL0     C62383   6.712   5.007   1.579 -0.4281 -0.1166 -0.5430
  463MOL0     C62384   6.572   4.980   1.526  0.0323  0.0597 -0.1327
  463MOL0     C62385   6.459   4.985   1.622  0.3930 -0.4956  0.9028
  463MOL0     C62386   6.427   5.125   1.663  0.3299  1.0485 -0.7824
  463MOL0     N62387   6.318   5.184   1.584 -0.0470 -0.7957  0.4348
  463MOL0     C62388   6.185   5.178   1.614 -0.5207 -0.1767 -0.2448
  463MOL0     C62389   6.126   5.267   1.540  0.3275 -0.3425  0.3956
  463MOL0     C62390   5.977   5.308   1.546  0.3546  0.3209 -1.2236
  463MOL0     C62391   5.903   5.175   1.538 -0.7688  0.3886  0.4785
  463MOL0     C62392   5.756   5.179   1.554 -0.1435 -0.0493 -0.4282
  463MOL0     C62393   5.690   5.073   1.463  0.0708  0.7315 -0.0577
  463MOL0     O62394   5.550   5.092   1.488  0.4924  0.0380  0.1418
  463MOL0     C62395   5.471   4.980   1.487  0.6136  0.5007 -0.7038
  463MOL0     C62396   5.490   4.860   1.421  0.2796 -0.0661  0.2438
  463MOL0     C62397   5.398   4.756   1.425  0.5283 -0.3678 -0.3809
  463MOL0     C62398   5.408   4.644   1.317  0.0832 -0.7482 -0.0677
  463MOL0     C62399   5.283   4.769   1.507  0.1845 -0.3190 -0.1596
  463MOL0     C62400   5.173   4.660   1.537 -0.5261 -0.3849 -0.3088
  463MOL0     O62401   5.051   4.705   1.565  0.1564  0.3813  0.3705
  463MOL0     C62402   4.940   4.632   1.597 -0.0708  0.2910  0.4402
  463MOL0     C62403   4.845   4.708   1.669 -0.3701 -0.3403  0.2832
  463MOL0     C62404   4.735   4.642   1.728 -0.2031  0.1527  0.7600
  463MOL0     C62405   4.712   4.505   1.705  0.7693 -1.2596  1.1066
  463MOL0     O62406   4.602   4.448   1.755  0.3739  0.1689 -0.5460
  463MOL0     C62407   4.522   4.365   1.669 -1.1238 -0.4122  0.5372
  463MOL0     C62408   4.431   4.432   1.573  0.5357 -0.0346 -0.0211
  463MOL0     C62409   4.336   4.339   1.496 -0.1741  0.3122 -0.4317
  463MOL0     C62410   4.261   4.411   1.386 -0.1783  0.3351  0.0163
  463MOL0     C62411   4.203   4.329   1.275  0.7710  0.3698 -0.3634
  463MOL0     C62412   4.074   4.244   1.299  0.3048  0.4134  0.5648
  463MOL0     C62413   3.965   4.309   1.396  1.2289 -0.4762  0.8489
  463MOL0     C62414   3.830   4.224   1.390  0.0593 -0.5497 -0.2120
  463MOL0    Cl62415   3.717   4.262   1.247  0.3621 -0.5228 -0.0442
  463MOL0     C62416   4.803   4.441   1.615 -0.2011  0.2241  0.1571
  463MOL0     C62417   4.920   4.503   1.568  1.1511  0.4718  0.3192
  463MOL0     O62418   5.213   4.541   1.551 -0.2989  0.2502  0.1861
  463MOL0     C62419   5.278   4.883   1.592  0.2457 -0.3187  0.2836
  463MOL0     C62420   5.370   4.986   1.582 -0.0855  0.3256  0.5784
  463MOL0     N62421   6.224   5.343   1.473  0.6839 -0.6922 -0.0323
  463MOL0     N62422   6.339   5.288   1.497  0.5270  0.1003 -0.4842
  463MOL0     C62423   7.416   5.110   1.673  0.2014  0.3424  0.4275
  463MOL0     C62424   7.544   5.132   1.717 -0.1070  0.1518 -0.3163
  463MOL0     C62425   7.972   5.120   1.832 -0.1648  0.0349 -0.6303
  463MOL0     C62426   8.029   4.994   1.822 -0.7176 -0.4379 -0.2148
  463MOL0     C62427   8.158   4.972   1.859  0.2967 -0.1478  0.0685
  463MOL0     C62428   8.226   5.070   1.926 -0.5036 -0.8201  0.1492
  463MOL0     O62429   8.347   5.049   1.993 -0.1096 -0.2716 -0.1313
  463MOL0     C62430   8.397   4.913   2.013 -0.4273 -0.1974  0.3919
  463MOL0     C62431   8.486   4.869   1.901 -0.4876 -0.5096 -0.0419
  463MOL0     C62432   8.496   4.723   1.872  0.4533  0.7321  0.2549
  463MOL0     C62433   8.595   4.653   1.968 -0.0071  0.5050 -0.2312
  463MOL0     C62434   8.730   4.674   1.908  0.2398  0.1384  0.0899
  463MOL0     C62435   8.845   4.702   1.867 -0.7543 -0.5611  0.3351
  463MOL0     C62436   8.174   5.198   1.937 -0.2635 -0.6541 -1.0231
  463MOL0     C62437   8.048   5.228   1.882 -0.2044  0.0063 -0.2585
  463MOL0     H62438   7.658   4.826   1.739  1.7248  1.5928  0.9177
  463MOL0     H62439   7.431   4.774   1.646  0.5431 -0.3458 -2.2252
  463MOL0     H62440   7.264   4.778   1.502  0.3051 -1.0068  0.1278
  463MOL0     H62441   7.177   4.799   1.648 -5.8822 -1.7276 -1.9515
  463MOL0     H62442   7.075   4.947   1.398 -2.2712  0.3374  0.1611
  463MOL0     H62443   7.022   4.784   1.420 -2.0460 -1.0319  1.6767
  463MOL0     H62444   6.931   4.828   1.634 -1.0740 -0.3936 -1.2955
  463MOL0     H62445   6.964   5.008   1.620 -4.1859 -0.2549  2.2076
  463MOL0     H62446   6.823   4.977   1.402 -1.9951  1.2081  0.3865
  463MOL0     H62447   6.780   4.822   1.486  0.6015  0.3616  0.0206
  463MOL0     H62448   6.712   4.979   1.685  3.7570 -0.4851 -0.4752
  463MOL0     H62449   6.743   5.112   1.570  1.1781 -0.6154 -1.0189
  463MOL0     H62450   6.550   5.056   1.450  0.4656 -0.7330 -1.0878
  463MOL0     H62451   6.576   4.882   1.477  1.1512 -0.9053  1.7913
  463MOL0     H62452   6.368   4.949   1.573  0.6056 -0.3588  0.4122
  463MOL0     H62453   6.485   4.917   1.705  0.5813 -1.1712  0.2997
  463MOL0     H62454   6.517   5.187   1.662  0.1082  1.6421  2.7434
  463MOL0     H62455   6.404   5.128   1.770 -0.1406 -1.9243 -0.7244
  463MOL0     H62456   6.139   5.113   1.688  1.2375  2.9375  4.0027
  463MOL0     H62457   5.950   5.355   1.641  0.4875  0.1784 -1.1145
  463MOL0     H62458   5.941   5.378   1.470 -2.9220  1.6454  1.3147
  463MOL0     H62459   5.926   5.108   1.622  0.5695  2.2050  1.6299
  463MOL0     H62460   5.934   5.126   1.446  1.1079  1.3010  0.5773
  463MOL0     H62461   5.717   5.280   1.537 -0.9175  0.5835  3.8961
  463MOL0     H62462   5.716   5.146   1.650 -1.9489  0.7082 -0.8783
  463MOL0     H62463   5.728   4.975   1.493 -0.2453 -0.1845 -2.4513
  463MOL0     H62464   5.704   5.086   1.356 -0.0712 -0.3892 -0.2181
  463MOL0     H62465   5.574   4.857   1.352 -1.4909  1.5619 -2.1475
  463MOL0     H62466   5.422   4.549   1.371  0.0550  0.8044  2.8747
  463MOL0     H62467   5.315   4.637   1.260  0.6151 -1.4557 -0.8708
  463MOL0     H62468   5.487   4.666   1.246 -0.9339 -1.6773 -1.5523
  463MOL0     H62469   4.867   4.814   1.683  1.4092 -0.1919 -2.8545
  463MOL0     H62470   4.666   4.689   1.797 -1.6566 -2.1701  0.9837
  463MOL0     H62471   4.594   4.295   1.625  0.7412  1.5091  0.3091
  463MOL0     H62472   4.466   4.301   1.737 -0.1447 -2.9623 -0.9244
  463MOL0     H62473   4.379   4.519   1.614  0.0576  0.6404 -1.9679
  463MOL0     H62474   4.490   4.470   1.489 -1.6624 -0.1896 -1.7192
  463MOL0     H62475   4.266   4.286   1.561 -0.3993  2.4946  1.2329
  463MOL0     H62476   4.403   4.273   1.439 -0.8158  0.7042 -1.6711
  463MOL0     H62477   4.183   4.466   1.440  1.5958  0.3690  2.7261
  463MOL0     H62478   4.321   4.487   1.336 -1.6080  1.2605 -0.3385
  463MOL0     H62479   4.277   4.260   1.234  1.4437  0.6687  0.3142
  463MOL0     H62480   4.176   4.397   1.192 -0.8005  1.1048  0.6996
  463MOL0     H62481   4.019   4.228   1.206  1.1584  3.4553 -0.5740
  463MOL0     H62482   4.109   4.149   1.340  0.1095  0.5136  0.9688
  463MOL0     H62483   3.950   4.409   1.355  6.2487  1.0836  1.9785
  463MOL0     H62484   4.015   4.331   1.491  3.3887 -0.5868 -0.1862
  463MOL0     H62485   3.775   4.248   1.482 -0.6164 -1.5609 -0.3344
  463MOL0     H62486   3.850   4.118   1.400  0.4538 -0.8451 -3.2574
  463MOL0     H62487   4.797   4.334   1.594  1.2224 -0.4783  2.8442
  463MOL0     H62488   4.992   4.450   1.506  1.7503  1.0162  0.5380
  463MOL0     H62489   5.204   4.887   1.671  0.9743 -3.5292  1.2466
  463MOL0     H62490   5.353   5.078   1.637 -0.2856  1.7109 -1.6623
  463MOL0     H62491   7.355   5.191   1.635 -0.3031  0.3858  1.3190
  463MOL0     H62492   7.568   5.233   1.748  1.0981  0.0122 -0.7297
  463MOL0     H62493   7.975   4.904   1.794 -1.4576  0.3043 -1.2405
  463MOL0     H62494   8.199   4.872   1.850  0.3082 -0.1172 -0.2201
  463MOL0     H62495   8.461   4.918   2.102 -0.5941  1.2012  0.4496
  463MOL0     H62496   8.317   4.840   2.027 -0.6768 -0.7063 -2.9680
  463MOL0     H62497   8.583   4.914   1.922 -1.9297  2.0426  1.6097
  463MOL0     H62498   8.448   4.923   1.813  0.3981 -5.2673 -3.7827
  463MOL0     H62499   8.516   4.695   1.769  1.6441  3.0861 -0.2226
  463MOL0     H62500   8.397   4.681   1.892 -0.6230  1.0937 -3.5468
  463MOL0     H62501   8.570   4.547   1.970  0.6116  0.3394 -0.8230
  463MOL0     H62502   8.601   4.689   2.071  2.7881  0.4747 -0.3039
  463MOL0     H62503   8.943   4.720   1.829 -0.8620 -1.1255 -0.2293
  463MOL0     H62504   8.223   5.274   1.996 -4.1492  0.4529  1.0938
  463MOL0     H62505   8.005   5.327   1.889 -2.6744 -1.0090 -0.0921
  464MOL0     O62506   0.559   3.164   1.090 -0.0753  0.1144  0.5295
  464MOL0     C62507   0.585   3.081   0.998  0.1017  0.7405 -0.4846
  464MOL0     O62508   0.501   3.006   0.922 -0.5058  0.5408  0.0144
  464MOL0     C62509   0.363   3.027   0.930  0.0611 -0.9076 -0.2025
  464MOL0     C62510   0.296   3.137   0.988  1.1811 -0.2583  0.2051
  464MOL0     C62511   0.161   3.145   0.980  0.8441 -0.2721 -0.2149
  464MOL0     C62512   0.087   3.061   0.901 -0.0390  0.0428 -1.5093
  464MOL0     O62513  -0.044   3.086   0.929  0.3839 -0.6724  0.1789
  464MOL0     C62514  -0.143   2.993   0.876  0.3012  0.4968  0.2956
  464MOL0     C62515  -0.260   3.001   0.962  0.3018 -0.0955  0.1286
  464MOL0     C62516  -0.353   3.130   0.953  0.1515  0.3816  0.1156
  464MOL0     C62517  -0.475   3.099   1.032 -0.6845 -0.7128  0.0473
  464MOL0     C62518  -0.576   3.215   1.017  0.6667  0.1359  0.2646
  464MOL0     C62519  -0.718   3.173   1.076  0.1397 -0.5712  0.9078
  464MOL0     C62520  -0.721   3.111   1.222 -0.2424  0.1062  0.3967
  464MOL0     C62521  -0.851   3.029   1.244  0.3448  0.6592  0.4208
  464MOL0     N62522  -0.972   3.104   1.278  0.4005  0.6157 -0.0784
  464MOL0     C62523  -1.037   3.196   1.197  0.8900 -0.1919 -0.2916
  464MOL0     C62524  -1.119   3.272   1.277  0.7123  0.5282 -0.3756
  464MOL0     C62525  -1.217   3.367   1.229  0.8001 -0.1005  0.3741
  464MOL0     C62526  -1.308   3.433   1.327 -0.5125 -0.1193 -1.1172
  464MOL0     C62527  -1.408   3.529   1.265 -0.2739 -0.7567 -0.0833
  464MOL0     C62528  -1.510   3.470   1.178  0.1780 -0.0157 -0.8505
  464MOL0     O62529  -1.594   3.392   1.260 -0.2006  0.1957  0.4607
  464MOL0     C62530  -1.708   3.340   1.203  1.2527  0.4012  0.1803
  464MOL0     C62531  -1.739   3.336   1.065  0.2506  0.2925  0.4515
  464MOL0     C62532  -1.849   3.257   1.024  0.0586 -0.0612 -0.3962
  464MOL0     C62533  -1.861   3.238   0.882 -0.4249  0.5453  0.6278
  464MOL0     C62534  -1.921   3.182   1.115  0.3098  0.4662  0.0613
  464MOL0     C62535  -2.047   3.113   1.079 -0.1420  0.6334  0.1086
  464MOL0     O62536  -2.138   3.185   1.022 -0.1820  0.1384 -0.6838
  464MOL0     C62537  -2.248   3.134   0.951 -0.1762  0.8106  0.2114
  464MOL0     C62538  -2.344   3.233   0.905  0.0221 -0.4793 -0.1819
  464MOL0     C62539  -2.454   3.196   0.830 -0.4346 -0.5299  0.2204
  464MOL0     C62540  -2.475   3.067   0.797  0.8656  0.2571 -1.3810
  464MOL0     O62541  -2.568   3.020   0.708  0.0155 -0.6180 -0.2449
  464MOL0     C62542  -2.676   3.110   0.675  0.4259  0.0266  0.2633
  464MOL0     C62543  -2.784   3.045   0.584  1.0150 -0.1990  0.5727
  464MOL0     C62544  -2.737   3.005   0.441 -0.0220 -0.2497 -0.0581
  464MOL0     C62545  -2.689   2.863   0.445 -0.4999 -0.3553 -0.0930
  464MOL0     C62546  -2.634   2.820   0.302 -0.5327  0.4282 -0.3538
  464MOL0     C62547  -2.586   2.673   0.312 -0.4985  0.1117 -0.8273
  464MOL0     C62548  -2.501   2.635   0.188 -0.6920  0.3567 -0.3309
  464MOL0     C62549  -2.358   2.697   0.194  0.4856  0.0418 -0.1390
  464MOL0    Cl62550  -2.272   2.638   0.343  0.5607  0.1639  0.1163
  464MOL0     C62551  -2.390   2.966   0.848  0.1610 -0.5917  0.1088
  464MOL0     C62552  -2.274   2.998   0.912 -1.1668 -0.6532  0.2894
  464MOL0     O62553  -2.064   2.998   1.113  0.1780  0.4827 -0.3197
  464MOL0     C62554  -1.893   3.190   1.255  0.9028 -0.3394  0.2541
  464MOL0     C62555  -1.774   3.256   1.297  0.2119 -0.2071 -0.5036
  464MOL0     N62556  -1.086   3.229   1.410 -0.3429 -0.1022  0.5234
  464MOL0     N62557  -1.000   3.138   1.403 -0.4363  0.1337 -0.9580
  464MOL0     C62558   0.155   2.960   0.833 -0.1256 -0.5288 -0.4592
  464MOL0     C62559   0.291   2.953   0.845  0.5875  0.8030 -0.2772
  464MOL0     C62560   0.728   3.057   0.982  0.5511  0.8448 -0.0873
  464MOL0     C62561   0.779   2.982   0.874  0.5470  0.1900  0.3371
  464MOL0     C62562   0.913   2.944   0.860  0.1861  0.6883 -0.4798
  464MOL0     C62563   1.001   2.988   0.960  0.0813 -0.1318 -0.2087
  464MOL0     O62564   1.133   2.951   0.969  0.7391  0.0478 -0.0115
  464MOL0     C62565   1.195   2.899   0.854 -0.1628 -0.5235  0.3076
  464MOL0     C62566   1.337   2.941   0.839  0.3112 -0.0612 -0.7323
  464MOL0     C62567   1.352   3.087   0.795 -0.0494  0.1762  1.3057
  464MOL0     C62568   1.498   3.134   0.797  0.3250 -0.8981 -0.3550
  464MOL0     C62569   1.565   3.091   0.924 -0.6418 -0.4536 -0.5133
  464MOL0     C62570   1.614   3.045   1.023 -0.2988  0.8099 -0.8656
  464MOL0     C62571   0.942   3.067   1.065  0.8660 -0.3406 -1.2166
  464MOL0     C62572   0.815   3.107   1.081 -1.0313  1.2593  0.1675
  464MOL0     H62573   0.337   3.204   1.064  2.1121 -0.8423  0.2306
  464MOL0     H62574   0.129   3.221   1.050  1.7744 -1.5157  1.6429
  464MOL0     H62575  -0.174   3.030   0.778  3.1092 -1.0677 -1.3075
  464MOL0     H62576  -0.110   2.889   0.866  1.8213  1.0393 -0.6881
  464MOL0     H62577  -0.324   2.917   0.934  2.3054 -1.2296 -1.2975
  464MOL0     H62578  -0.225   2.987   1.064 -2.4492  0.3572  1.2143
  464MOL0     H62579  -0.303   3.216   1.000 -1.3116  1.0983  0.4133
  464MOL0     H62580  -0.372   3.149   0.847  1.2281  0.2218 -0.1245
  464MOL0     H62581  -0.519   3.008   0.991 -1.6749  0.2501 -1.1116
  464MOL0     H62582  -0.444   3.095   1.137 -1.6428 -1.4810  0.3074
  464MOL0     H62583  -0.527   3.304   1.057 -0.3281  0.1372  1.5578
  464MOL0     H62584  -0.592   3.247   0.914  0.0558 -0.4543  0.1713
  464MOL0     H62585  -0.779   3.263   1.067  1.8145  0.4692 -0.8423
  464MOL0     H62586  -0.749   3.103   0.997  1.0452  0.4399 -0.3977
  464MOL0     H62587  -0.641   3.040   1.243  2.3671  2.0411 -2.1981
  464MOL0     H62588  -0.707   3.194   1.292 -1.1110  0.3753  0.2691
  464MOL0     H62589  -0.834   2.974   1.337 -2.2124  0.3365  0.7675
  464MOL0     H62590  -0.879   2.966   1.159 -1.0528 -0.7461  1.8440
  464MOL0     H62591  -1.038   3.210   1.090  1.2132  0.7579 -0.1788
  464MOL0     H62592  -1.157   3.443   1.178 -1.5133  2.7140  1.5518
  464MOL0     H62593  -1.276   3.330   1.145 -0.5256 -0.4619  1.4232
  464MOL0     H62594  -1.248   3.487   1.400 -0.6920 -1.2136 -0.1301
  464MOL0     H62595  -1.360   3.359   1.389  2.5514 -0.3888  1.3760
  464MOL0     H62596  -1.357   3.600   1.199 -0.7704 -0.8535 -0.5804
  464MOL0     H62597  -1.463   3.583   1.343  1.1824 -1.1371  1.2695
  464MOL0     H62598  -1.463   3.418   1.094 -0.6875 -0.0605 -1.3172
  464MOL0     H62599  -1.571   3.542   1.123 -1.2027 -1.9571 -1.9712
  464MOL0     H62600  -1.688   3.387   0.984 -1.0989  1.3176  0.2045
  464MOL0     H62601  -1.851   3.335   0.830  2.5451  0.0145 -0.0145
  464MOL0     H62602  -1.781   3.172   0.846  2.1534  2.6121  2.1788
  464MOL0     H62603  -1.953   3.191   0.848 -0.3112 -0.8480  2.1580
  464MOL0     H62604  -2.333   3.329   0.954  0.6134 -0.1002 -1.0448
  464MOL0     H62605  -2.519   3.275   0.795  2.6195  0.4479 -3.9557
  464MOL0     H62606  -2.714   3.150   0.769 -0.0425  4.5805 -1.5871
  464MOL0     H62607  -2.639   3.194   0.615  1.6379 -0.0869  0.8210
  464MOL0     H62608  -2.818   2.954   0.636  0.7867 -1.2071 -1.2723
  464MOL0     H62609  -2.876   3.103   0.571  1.6332  0.3918 -1.3314
  464MOL0     H62610  -2.656   3.073   0.414  0.8870 -0.2870  2.3875
  464MOL0     H62611  -2.823   3.016   0.374 -1.1131  0.7724  1.4445
  464MOL0     H62612  -2.606   2.864   0.517 -0.5678  0.2193 -0.0138
  464MOL0     H62613  -2.773   2.807   0.486 -0.8694  0.8163  0.8098
  464MOL0     H62614  -2.551   2.886   0.277  0.4465 -0.4216  0.5837
  464MOL0     H62615  -2.706   2.829   0.220 -2.7132 -1.6826  1.1917
  464MOL0     H62616  -2.530   2.656   0.405 -0.8329  1.0643 -0.4329
  464MOL0     H62617  -2.674   2.608   0.308 -0.0054 -0.6132 -0.2620
  464MOL0     H62618  -2.543   2.662   0.091 -2.3437 -2.4503 -0.5056
  464MOL0     H62619  -2.505   2.526   0.181  1.9600  0.1671  0.0327
  464MOL0     H62620  -2.366   2.805   0.202  0.6125 -0.0909  3.2070
  464MOL0     H62621  -2.299   2.661   0.109  1.3533 -4.4277  2.0220
  464MOL0     H62622  -2.409   2.863   0.822 -0.2736 -1.2921  2.9044
  464MOL0     H62623  -2.204   2.920   0.940  2.3766  1.3966 -2.1052
  464MOL0     H62624  -1.960   3.142   1.325  0.8569 -1.2131 -0.3668
  464MOL0     H62625  -1.734   3.253   1.398  0.9608  0.3643 -0.7753
  464MOL0     H62626   0.103   2.892   0.767  0.1412  0.6432 -1.9422
  464MOL0     H62627   0.339   2.876   0.785  0.4478 -1.1778  1.9782
  464MOL0     H62628   0.720   2.943   0.792  1.9775 -4.4706  1.2486
  464MOL0     H62629   0.936   2.883   0.773 -0.2760 -2.3600  1.4023
  464MOL0     H62630   1.178   2.791   0.860 -1.7183 -0.3862 -1.0122
  464MOL0     H62631   1.152   2.943   0.763  0.7128  1.9154  0.9879
  464MOL0     H62632   1.386   2.880   0.762 -1.8473 -2.2388 -0.5276
  464MOL0     H62633   1.374   2.931   0.942 -1.0595  0.5847 -0.1439
  464MOL0     H62634   1.286   3.152   0.853 -2.1938 -1.3655  0.7349
  464MOL0     H62635   1.304   3.103   0.697  0.9243  0.7017  0.9006
  464MOL0     H62636   1.502   3.241   0.776  0.2495 -0.8523 -0.1436
  464MOL0     H62637   1.554   3.088   0.716 -0.4860 -0.7108 -1.0321
  464MOL0     H62638   1.653   3.003   1.113 -3.8085 -3.1212 -0.9069
  464MOL0     H62639   1.013   3.096   1.141 -0.2689  0.2131 -0.3339
  464MOL0     H62640   0.786   3.174   1.160 -1.4302  0.4938  0.6821
  465MOL0     O62641   2.408   0.015   7.596 -0.2916 -0.2334  0.0609
  465MOL0     C62642   2.469  -0.074   7.651 -0.7359 -0.6707 -0.4629
  465MOL0     O62643   2.441  -0.208   7.640 -0.3197  0.4230  0.5720
  465MOL0     C62644   2.333  -0.247   7.569 -0.6529  0.8583  0.4607
  465MOL0     C62645   2.352  -0.267   7.436  1.2793 -0.0952 -0.1632
  465MOL0     C62646   2.246  -0.324   7.363  0.1744  0.2379 -0.5174
  465MOL0     C62647   2.120  -0.346   7.422  0.4753 -0.6998  0.5272
  465MOL0     O62648   2.033  -0.425   7.356 -0.1289  0.1994 -0.1323
  465MOL0     C62649   1.965  -0.528   7.428  0.4940 -0.2713 -0.5954
  465MOL0     C62650   1.879  -0.606   7.331 -0.4368  0.2368  0.0348
  465MOL0     C62651   1.793  -0.518   7.249 -0.1665  0.5538 -0.1141
  465MOL0     C62652   1.742  -0.579   7.117 -0.0711 -0.7341 -0.0208
  465MOL0     C62653   1.624  -0.491   7.062  0.7109 -0.1429  0.6825
  465MOL0     C62654   1.604  -0.500   6.907 -0.1621  0.1358 -0.4106
  465MOL0     C62655   1.483  -0.429   6.847  0.0084  0.1728 -0.2489
  465MOL0     C62656   1.473  -0.277   6.870 -0.4838 -0.7983  0.5683
  465MOL0     N62657   1.399  -0.202   6.762  0.2103 -0.6349 -0.4675
  465MOL0     C62658   1.271  -0.234   6.723  0.7779 -0.9406 -0.0468
  465MOL0     C62659   1.260  -0.167   6.606 -0.9674  0.0075  0.0042
  465MOL0     C62660   1.150  -0.185   6.506 -0.1869 -0.8987 -0.2429
  465MOL0     C62661   1.008  -0.126   6.543 -0.0383 -0.6696 -0.3768
  465MOL0     C62662   1.014   0.027   6.523  0.4879  0.7974 -0.2025
  465MOL0     C62663   0.876   0.080   6.557  0.1070  0.1393 -0.0884
  465MOL0     O62664   0.781   0.042   6.449  0.4135  0.3239  0.6785
  465MOL0     C62665   0.673   0.120   6.427  0.0866 -0.6508  0.5514
  465MOL0     C62666   0.580   0.080   6.329 -0.5669 -0.1224  0.1801
  465MOL0     C62667   0.468   0.158   6.286 -0.3091  0.1039  0.4619
  465MOL0     C62668   0.379   0.094   6.187 -0.2306 -1.1079  0.0941
  465MOL0     C62669   0.440   0.277   6.353 -0.5841  0.6003 -0.7404
  465MOL0     C62670   0.317   0.363   6.335  0.3582  0.2088 -0.1130
  465MOL0     O62671   0.322   0.488   6.396 -0.5514  0.0924  0.7614
  465MOL0     C62672   0.211   0.566   6.421 -0.3409  0.7525 -0.0186
  465MOL0     C62673   0.228   0.699   6.426  0.3932  0.0403  0.3118
  465MOL0     C62674   0.125   0.793   6.460 -0.1106  0.2894 -0.1266
  465MOL0     C62675  -0.003   0.731   6.489  1.0322 -0.1497  0.1568
  465MOL0     O62676  -0.108   0.800   6.538 -0.0957 -0.2360  0.7788
  465MOL0     C62677  -0.134   0.930   6.469  0.1211  1.4584 -0.3547
  465MOL0     C62678  -0.272   0.972   6.522  0.0381 -0.7167 -0.0670
  465MOL0     C62679  -0.305   1.120   6.477 -0.7899  0.9154 -0.2925
  465MOL0     C62680  -0.433   1.163   6.549  1.2738  0.1493 -0.9165
  465MOL0     C62681  -0.472   1.309   6.512 -0.1776  0.0872  0.1874
  465MOL0     C62682  -0.546   1.381   6.629  0.4734  0.0013 -0.8482
  465MOL0     C62683  -0.655   1.284   6.687  0.4239  0.0826 -0.0123
  465MOL0     C62684  -0.757   1.360   6.765 -0.1565  0.3484 -0.3242
  465MOL0    Cl62685  -0.873   1.451   6.656 -0.2695  0.2394  0.1536
  465MOL0     C62686  -0.023   0.595   6.489  0.0382  0.3954 -0.2895
  465MOL0     C62687   0.082   0.509   6.451 -0.3433 -0.2249  0.7510
  465MOL0     O62688   0.227   0.333   6.255 -0.0747  0.3104 -0.0803
  465MOL0     C62689   0.534   0.322   6.450 -0.3944  1.0250 -0.9076
  465MOL0     C62690   0.650   0.244   6.483  0.8802 -0.2698  0.5421
  465MOL0     N62691   1.360  -0.078   6.589 -0.2739  0.3085  0.1676
  465MOL0     N62692   1.440  -0.096   6.682 -0.4057 -0.8361  0.1219
  465MOL0     C62693   2.097  -0.307   7.555 -0.2090 -0.1302  0.2168
  465MOL0     C62694   2.202  -0.249   7.620  0.5250 -0.1199  0.0729
  465MOL0     C62695   2.585  -0.036   7.735 -0.4031  0.1749  0.0699
  465MOL0     C62696   2.605   0.098   7.774  1.3111 -0.4321 -0.6773
  465MOL0     C62697   2.721   0.136   7.852 -0.9081  0.0361  0.0164
  465MOL0     C62698   2.826   0.044   7.877 -0.8844 -0.0404  0.8630
  465MOL0     O62699   2.937   0.085   7.951  0.0632  0.6115 -0.1360
  465MOL0     C62700   2.988   0.214   7.921 -0.3128  0.2217  0.2895
  465MOL0     C62701   3.130   0.222   7.991 -0.3531  0.2711 -0.0944
  465MOL0     C62702   3.232   0.143   7.909 -0.0122  0.1037  0.3140
  465MOL0     C62703   3.362   0.117   7.984  0.8464 -0.2945  0.8553
  465MOL0     C62704   3.413   0.239   8.046 -0.6102  0.2619  0.1654
  465MOL0     C62705   3.469   0.339   8.080  0.0358  0.0615  0.3926
  465MOL0     C62706   2.809  -0.091   7.840  1.0163  0.3936  0.1548
  465MOL0     C62707   2.694  -0.128   7.770 -0.4991  0.1374  0.3533
  465MOL0     H62708   2.455  -0.260   7.402  1.4329 -0.2711  0.2446
  465MOL0     H62709   2.281  -0.370   7.271  1.0680 -1.7951  0.7682
  465MOL0     H62710   2.034  -0.595   7.480 -2.1254 -1.9855  0.9315
  465MOL0     H62711   1.904  -0.480   7.505  1.3763  0.3837 -0.2915
  465MOL0     H62712   1.949  -0.667   7.273  0.5334 -2.8797  3.9982
  465MOL0     H62713   1.824  -0.688   7.379  0.7410 -0.8913 -0.4736
  465MOL0     H62714   1.709  -0.487   7.311  1.9919  3.4544  1.6296
  465MOL0     H62715   1.842  -0.425   7.218 -1.4556  1.1398 -0.4584
  465MOL0     H62716   1.824  -0.596   7.048  0.2372  0.2551  0.0884
  465MOL0     H62717   1.705  -0.680   7.137 -0.8546 -0.0999  2.1068
  465MOL0     H62718   1.531  -0.520   7.113 -0.7383  1.5172 -0.8820
  465MOL0     H62719   1.628  -0.385   7.085 -5.3121  0.6941 -0.4517
  465MOL0     H62720   1.692  -0.464   6.853  1.7970 -2.7014  0.6801
  465MOL0     H62721   1.602  -0.607   6.884  2.5723 -0.9188  3.3933
  465MOL0     H62722   1.484  -0.451   6.740  2.3402  0.6000 -0.3668
  465MOL0     H62723   1.393  -0.474   6.890  0.4812 -0.9894 -0.4482
  465MOL0     H62724   1.566  -0.225   6.897 -2.2962  1.2128  3.4753
  465MOL0     H62725   1.416  -0.259   6.961  0.5918  1.6003  0.8464
  465MOL0     H62726   1.205  -0.307   6.769  0.2716 -1.5954 -1.7051
  465MOL0     H62727   1.179  -0.158   6.404 -0.6158 -1.3692 -0.4959
  465MOL0     H62728   1.144  -0.293   6.492 -1.8862 -0.9243  0.4330
  465MOL0     H62729   0.998  -0.146   6.651  5.8289 -0.3315  0.5858
  465MOL0     H62730   0.929  -0.169   6.481  1.2133 -4.3694  0.3300
  465MOL0     H62731   1.034   0.047   6.417  2.5492 -0.9047 -0.1995
  465MOL0     H62732   1.090   0.072   6.588 -0.9978 -0.0829  2.2402
  465MOL0     H62733   0.891   0.189   6.562  0.5714  0.3416 -3.7458
  465MOL0     H62734   0.835   0.044   6.652  2.3055  2.6879  2.0445
  465MOL0     H62735   0.584  -0.021   6.290  2.7139  0.3573 -1.0888
  465MOL0     H62736   0.370   0.160   6.100 -2.7960 -2.7657 -0.9958
  465MOL0     H62737   0.412  -0.007   6.159  1.9775 -1.2224  2.5965
  465MOL0     H62738   0.278   0.070   6.221  0.1723 -2.0208  0.7245
  465MOL0     H62739   0.324   0.744   6.401 -1.1182  3.0423 -0.6009
  465MOL0     H62740   0.134   0.900   6.469 -0.4282  0.4153 -1.1734
  465MOL0     H62741  -0.063   1.010   6.493  1.0765  1.0562 -1.7657
  465MOL0     H62742  -0.136   0.919   6.361 -1.9988 -0.9674 -0.1552
  465MOL0     H62743  -0.351   0.906   6.487 -0.5122  0.9122 -2.1187
  465MOL0     H62744  -0.280   0.968   6.632  0.3305  2.2225  0.1514
  465MOL0     H62745  -0.327   1.121   6.370 -2.1736 -0.6014 -0.0545
  465MOL0     H62746  -0.220   1.187   6.493  1.3699 -0.8370 -3.4283
  465MOL0     H62747  -0.511   1.095   6.514 -1.2521  1.7334  1.1907
  465MOL0     H62748  -0.419   1.136   6.654  2.1658 -0.1117 -1.0990
  465MOL0     H62749  -0.532   1.309   6.420  0.1601  0.6608 -0.0335
  465MOL0     H62750  -0.389   1.377   6.492 -0.4258  0.7992  1.4787
  465MOL0     H62751  -0.472   1.397   6.708  0.5390  1.0374 -1.1084
  465MOL0     H62752  -0.590   1.473   6.589  1.4479  0.6142 -0.5549
  465MOL0     H62753  -0.601   1.211   6.748  2.2599  1.2004 -0.2377
  465MOL0     H62754  -0.714   1.236   6.608 -1.6706  0.4640  1.2276
  465MOL0     H62755  -0.702   1.427   6.831  1.9870 -1.3222 -0.2905
  465MOL0     H62756  -0.815   1.284   6.819  2.4074 -1.1838  0.4326
  465MOL0     H62757  -0.121   0.557   6.513 -1.1685  2.2926 -1.8870
  465MOL0     H62758   0.071   0.402   6.457 -2.1296  0.0161  4.5189
  465MOL0     H62759   0.517   0.414   6.505 -1.8622  0.1401  0.1989
  465MOL0     H62760   0.706   0.283   6.568 -0.2179  2.9909 -0.1064
  465MOL0     H62761   2.003  -0.322   7.608 -1.3844  2.4741 -0.9419
  465MOL0     H62762   2.183  -0.222   7.724 -2.1901  0.4501 -0.4854
  465MOL0     H62763   2.536   0.181   7.765  0.1032 -1.5707 -2.8411
  465MOL0     H62764   2.731   0.239   7.886  0.7847 -0.2654  0.5191
  465MOL0     H62765   2.987   0.233   7.814 -0.4793  2.0834  0.5832
  465MOL0     H62766   2.930   0.298   7.963  2.2748  1.8513  0.8383
  465MOL0     H62767   3.128   0.182   8.093  0.0563 -1.0536 -0.5774
  465MOL0     H62768   3.167   0.325   7.991  2.5546 -0.6746  0.0688
  465MOL0     H62769   3.260   0.196   7.817  2.1098 -0.1508  0.7768
  465MOL0     H62770   3.184   0.052   7.871  3.5336 -0.1870 -4.4957
  465MOL0     H62771   3.421   0.068   7.906 -0.1191  2.5297 -1.8477
  465MOL0     H62772   3.330   0.044   8.060 -0.1137 -1.9255 -1.0243
  465MOL0     H62773   3.516   0.432   8.106 -1.3391  0.4295  1.7005
  465MOL0     H62774   2.883  -0.164   7.869  0.9343 -0.0839 -0.8154
  465MOL0     H62775   2.675  -0.228   7.731  0.8886 -0.0131  0.0284
  466MOL0     O62776   5.224   4.166   7.229  0.1542  0.3280 -0.0788
  466MOL0     C62777   5.250   4.049   7.234  0.0286  0.2858 -0.0411
  466MOL0     O62778   5.155   3.946   7.222 -0.4647 -0.4521  0.6449
  466MOL0     C62779   5.019   3.968   7.225  0.3198 -0.1919 -0.0538
  466MOL0     C62780   4.950   4.069   7.295 -0.6345 -0.5511  0.8891
  466MOL0     C62781   4.814   4.082   7.276 -0.4154  0.0347 -0.1260
  466MOL0     C62782   4.740   3.988   7.209 -0.5039  0.2441  0.8276
  466MOL0     O62783   4.604   3.988   7.213  0.0794  0.3250 -0.2414
  466MOL0     C62784   4.552   4.091   7.134  0.0778  1.1199 -0.3867
  466MOL0     C62785   4.400   4.104   7.134  0.2865 -0.1653 -0.7295
  466MOL0     C62786   4.350   4.008   7.035 -0.8086  0.1919  0.4576
  466MOL0     C62787   4.200   4.015   7.014 -0.5386 -0.1930 -0.3942
  466MOL0     C62788   4.146   3.902   6.929  0.5324  0.0230 -0.2393
  466MOL0     C62789   3.992   3.905   6.902  0.0367  0.9877 -0.0673
  466MOL0     C62790   3.940   4.026   6.833 -1.1694  0.2498  0.4034
  466MOL0     C62791   3.792   4.010   6.815 -0.0197 -1.0577  1.5011
  466MOL0     N62792   3.762   3.930   6.699 -0.8102  0.5313  0.3166
  466MOL0     C62793   3.716   3.970   6.579 -0.7708 -0.1057 -0.4660
  466MOL0     C62794   3.686   3.849   6.519  0.1447 -0.1003 -0.4038
  466MOL0     C62795   3.624   3.821   6.385  0.2772 -0.0537  0.6016
  466MOL0     C62796   3.480   3.856   6.395  0.0377 -0.4165 -0.1695
  466MOL0     C62797   3.441   3.999   6.398  0.5477  0.0634 -0.2692
  466MOL0     C62798   3.499   4.085   6.284  0.0418  1.2344  0.2275
  466MOL0     O62799   3.425   4.204   6.265  0.2259  0.0635  0.4866
  466MOL0     C62800   3.292   4.196   6.232  0.4354 -0.7492  0.5268
  466MOL0     C62801   3.221   4.095   6.164 -0.0828 -0.0915  0.0510
  466MOL0     C62802   3.081   4.099   6.135 -0.7782 -0.0668 -0.2566
  466MOL0     C62803   3.021   3.996   6.045  0.1612 -0.4377  0.8756
  466MOL0     C62804   3.003   4.200   6.201 -0.2899  0.1111 -0.0377
  466MOL0     C62805   2.849   4.188   6.204 -0.2312 -0.2469 -0.4532
  466MOL0     O62806   2.793   4.069   6.213 -0.9035 -0.7147  0.5502
  466MOL0     C62807   2.653   4.058   6.222  0.3285 -0.2517  0.1897
  466MOL0     C62808   2.598   3.946   6.156  0.4659 -0.3984  0.7235
  466MOL0     C62809   2.457   3.917   6.172 -1.0001  0.3395 -0.3841
  466MOL0     C62810   2.379   3.996   6.252  0.1157 -0.3640 -0.2818
  466MOL0     O62811   2.248   3.969   6.277  0.0491 -0.2315  0.9759
  466MOL0     C62812   2.212   3.877   6.378 -0.2417  0.6328 -0.1233
  466MOL0     C62813   2.273   3.734   6.365 -0.6364  0.1848 -0.4461
  466MOL0     C62814   2.396   3.726   6.442  0.1211 -0.3221 -0.7752
  466MOL0     C62815   2.370   3.694   6.598 -0.3275  0.1895  0.1205
  466MOL0     C62816   2.492   3.730   6.687 -0.2234 -0.8868 -0.0822
  466MOL0     C62817   2.613   3.637   6.670  0.6665  0.0036 -0.9786
  466MOL0     C62818   2.725   3.695   6.747 -1.3201 -0.7393  0.2576
  466MOL0     C62819   2.846   3.612   6.729 -0.4502 -0.0872  0.2482
  466MOL0    Cl62820   2.988   3.676   6.831 -0.0357  0.2600  0.1124
  466MOL0     C62821   2.429   4.101   6.322  0.6832 -0.6481 -0.0527
  466MOL0     C62822   2.566   4.132   6.310 -0.2561 -0.0461  0.4545
  466MOL0     O62823   2.788   4.299   6.199  0.4517  0.1701  0.7328
  466MOL0     C62824   3.073   4.304   6.251 -0.1928 -0.0669  0.1042
  466MOL0     C62825   3.210   4.305   6.266  0.9708 -0.0349 -0.1371
  466MOL0     N62826   3.715   3.742   6.604 -0.3362  0.3982 -0.2920
  466MOL0     N62827   3.760   3.793   6.707  0.5427 -0.0146  0.1028
  466MOL0     C62828   4.804   3.877   7.154  1.1380  0.2962  0.1225
  466MOL0     C62829   4.945   3.864   7.159  0.9398 -0.2012  1.2275
  466MOL0     C62830   5.386   4.022   7.246 -0.7785  0.1423 -0.2727
  466MOL0     C62831   5.446   3.895   7.264  0.0651 -0.1158  0.0669
  466MOL0     C62832   5.588   3.883   7.294  0.4215  0.3268  0.3345
  466MOL0     C62833   5.678   3.994   7.298  0.8904  0.0022  1.0910
  466MOL0     O62834   5.815   3.984   7.320  0.3410  0.0901  0.0344
  466MOL0     C62835   5.872   3.857   7.298  1.3116  0.8512 -0.1685
  466MOL0     C62836   6.023   3.866   7.331  0.6657  0.2770 -0.3805
  466MOL0     C62837   6.087   3.730   7.331 -0.2473  0.1972  0.2761
  466MOL0     C62838   6.240   3.742   7.321 -0.4524 -1.1024 -0.0935
  466MOL0     C62839   6.311   3.768   7.447  0.9248 -0.0701 -0.3513
  466MOL0     C62840   6.368   3.793   7.545 -0.4569  0.6122 -0.3741
  466MOL0     C62841   5.619   4.117   7.278  0.2949  0.1461  0.1633
  466MOL0     C62842   5.477   4.134   7.258  0.1983 -0.0267  0.4620
  466MOL0     H62843   5.003   4.148   7.347 -0.4948 -1.8749  2.8677
  466MOL0     H62844   4.754   4.161   7.320 -1.0061  0.5211 -1.7427
  466MOL0     H62845   4.585   4.182   7.187  1.0003 -1.3580  3.7783
  466MOL0     H62846   4.594   4.098   7.033 -1.9649  1.4383 -1.2455
  466MOL0     H62847   4.359   4.087   7.234 -0.0085 -0.4353 -0.8984
  466MOL0     H62848   4.373   4.204   7.099 -0.1363  0.1526  0.4457
  466MOL0     H62849   4.386   4.027   6.934  1.5340  1.1351  1.4126
  466MOL0     H62850   4.387   3.908   7.060  0.0977  0.0023 -1.4539
  466MOL0     H62851   4.160   4.015   7.116  1.1496  1.1886  0.3223
  466MOL0     H62852   4.181   4.113   6.970 -0.1377 -0.3107 -0.8431
  466MOL0     H62853   4.196   3.913   6.833  3.2795  3.4178  1.3617
  466MOL0     H62854   4.163   3.809   6.983  0.9530 -0.2475 -0.8325
  466MOL0     H62855   3.962   3.813   6.850 -1.0645  1.9696 -1.2474
  466MOL0     H62856   3.940   3.891   6.997  0.4291 -1.4147 -0.1447
  466MOL0     H62857   3.966   4.112   6.895  1.8967  0.8586 -1.5414
  466MOL0     H62858   3.982   4.032   6.732 -1.3799 -1.7986  0.1526
  466MOL0     H62859   3.741   4.107   6.813 -0.6897 -1.4020  1.3343
  466MOL0     H62860   3.744   3.966   6.902 -0.9140 -2.3567  0.3971
  466MOL0     H62861   3.698   4.073   6.551 -1.5473  0.1603  0.9181
  466MOL0     H62862   3.668   3.873   6.299 -0.8282  0.9140  0.5963
  466MOL0     H62863   3.637   3.714   6.368 -0.5539 -0.0232 -0.2764
  466MOL0     H62864   3.438   3.792   6.473  0.5119  0.1767  0.5870
  466MOL0     H62865   3.421   3.822   6.309  0.7417  2.9541 -2.1694
  466MOL0     H62866   3.460   4.050   6.493 -1.0590  2.4141 -1.1202
  466MOL0     H62867   3.332   3.997   6.387  0.7475 -3.7820 -5.1339
  466MOL0     H62868   3.491   4.031   6.189  0.5634  1.6848 -0.0796
  466MOL0     H62869   3.605   4.103   6.301  0.4595  1.3259 -2.1119
  466MOL0     H62870   3.278   4.009   6.130  1.3411 -1.3419  4.8449
  466MOL0     H62871   2.939   4.032   5.981 -0.7912 -0.9104  1.7865
  466MOL0     H62872   3.095   3.950   5.980 -0.2055  0.9829 -0.6255
  466MOL0     H62873   2.973   3.914   6.099  1.5359 -3.0371 -1.5907
  466MOL0     H62874   2.656   3.897   6.078 -2.3483 -1.0623 -1.0886
  466MOL0     H62875   2.395   3.853   6.110 -2.0596  2.5325 -1.7084
  466MOL0     H62876   2.235   3.914   6.479 -3.0233 -3.1100  2.1888
  466MOL0     H62877   2.102   3.871   6.379 -0.2965  0.9946  2.2644
  466MOL0     H62878   2.208   3.653   6.398  1.5514 -2.2941 -1.8816
  466MOL0     H62879   2.287   3.718   6.258 -0.8002  0.0703 -0.4498
  466MOL0     H62880   2.449   3.821   6.439 -0.3396 -0.0800 -1.6941
  466MOL0     H62881   2.462   3.657   6.389  0.8455 -0.2470  0.0106
  466MOL0     H62882   2.280   3.747   6.629 -0.2443  1.4156 -1.6285
  466MOL0     H62883   2.353   3.586   6.610  2.7336 -0.2958  1.3135
  466MOL0     H62884   2.459   3.721   6.791 -1.7034 -0.6082 -0.5023
  466MOL0     H62885   2.522   3.834   6.671  0.5493 -0.5054  3.0435
  466MOL0     H62886   2.589   3.538   6.710  0.9969 -0.0536 -0.9144
  466MOL0     H62887   2.631   3.625   6.563 -0.1347 -1.1816 -1.0055
  466MOL0     H62888   2.702   3.682   6.853 -0.1707  1.8848  0.9237
  466MOL0     H62889   2.746   3.800   6.721 -1.5374 -0.7929 -0.1327
  466MOL0     H62890   2.876   3.627   6.625  1.5654 -3.4045  0.1745
  466MOL0     H62891   2.830   3.504   6.742 -4.7165  0.5475  1.7626
  466MOL0     H62892   2.365   4.163   6.383  0.1073  1.7057 -2.8433
  466MOL0     H62893   2.606   4.217   6.365 -1.3265 -0.0416  1.2746
  466MOL0     H62894   3.013   4.379   6.301 -0.7388 -0.6520  0.3416
  466MOL0     H62895   3.258   4.380   6.328  3.4862 -1.2653 -0.4264
  466MOL0     H62896   4.749   3.803   7.098  0.5993  1.1027 -0.4257
  466MOL0     H62897   4.992   3.781   7.107  0.0384 -0.0830  0.1750
  466MOL0     H62898   5.391   3.802   7.261 -0.8360  0.4122 -2.0281
  466MOL0     H62899   5.610   3.781   7.321 -0.5491  0.6607  2.5988
  466MOL0     H62900   5.832   3.788   7.373  2.1405  0.0005 -0.4866
  466MOL0     H62901   5.846   3.808   7.204 -1.1114  1.6589  0.0204
  466MOL0     H62902   6.045   3.905   7.431  1.4734  0.6461 -0.6969
  466MOL0     H62903   6.072   3.933   7.260  2.0381  0.8932  1.0886
  466MOL0     H62904   6.042   3.674   7.249 -0.9718 -0.4513  1.0943
  466MOL0     H62905   6.045   3.686   7.422 -2.2097  0.2934 -0.5173
  466MOL0     H62906   6.265   3.813   7.242  2.2577 -1.2956  0.5066
  466MOL0     H62907   6.296   3.656   7.283 -1.9371 -1.1348 -2.4049
  466MOL0     H62908   6.438   3.802   7.626 -0.6637 -2.6916  0.2984
  466MOL0     H62909   5.688   4.201   7.273 -0.6054  1.3029  3.9355
  466MOL0     H62910   5.453   4.240   7.255  1.9039  0.4346  1.4721
  467MOL0     O62911   0.763   8.805   3.396 -0.2550  0.1379 -0.2626
  467MOL0     C62912   0.653   8.751   3.395 -0.7982  0.2386 -0.2843
  467MOL0     O62913   0.627   8.631   3.345 -0.1373 -0.0388 -0.2276
  467MOL0     C62914   0.720   8.551   3.286 -0.4964  0.9012  0.1153
  467MOL0     C62915   0.846   8.522   3.353  0.0134  0.0790  0.3458
  467MOL0     C62916   0.937   8.439   3.285  0.6445 -0.1456  0.1152
  467MOL0     C62917   0.903   8.379   3.163 -0.5483  0.2152 -0.0960
  467MOL0     O62918   0.991   8.301   3.087  0.5677 -0.1839  1.0529
  467MOL0     C62919   1.109   8.376   3.042 -0.0317  0.5237  1.2735
  467MOL0     C62920   1.203   8.296   2.941  1.2506 -0.2508 -0.9258
  467MOL0     C62921   1.344   8.348   2.947  0.8785 -0.0135  0.3794
  467MOL0     C62922   1.424   8.268   3.052 -0.0171 -0.2652 -0.3033
  467MOL0     C62923   1.579   8.267   3.009 -0.1954 -0.0317 -0.5501
  467MOL0     C62924   1.596   8.181   2.877 -1.2440  0.7326  0.6745
  467MOL0     C62925   1.745   8.180   2.835  1.1262 -0.4538 -0.2443
  467MOL0     C62926   1.819   8.065   2.900  0.0627 -0.2821 -0.4967
  467MOL0     N62927   1.952   8.047   2.844 -0.6795 -0.6651  0.5424
  467MOL0     C62928   2.072   8.032   2.914  0.1485  0.4262 -0.3771
  467MOL0     C62929   2.175   8.017   2.825  0.5921 -1.2308 -0.1812
  467MOL0     C62930   2.321   8.002   2.839 -0.7269 -0.6578 -0.2904
  467MOL0     C62931   2.397   8.132   2.790  0.7703  0.7592  0.0650
  467MOL0     C62932   2.384   8.232   2.907 -0.3735  0.1758  0.3456
  467MOL0     C62933   2.447   8.365   2.862  0.2904  0.4086  0.1241
  467MOL0     O62934   2.403   8.478   2.934 -0.2519  0.9687  0.8812
  467MOL0     C62935   2.264   8.505   2.926  0.2629 -0.5227  0.0345
  467MOL0     C62936   2.180   8.461   2.827 -0.3390  0.4678  0.0919
  467MOL0     C62937   2.050   8.508   2.803  0.2862 -0.0019 -0.4546
  467MOL0     C62938   1.981   8.441   2.678  0.6897  0.2599  0.2327
  467MOL0     C62939   1.997   8.598   2.904  0.2296 -0.2799  0.4008
  467MOL0     C62940   1.858   8.652   2.899 -0.2317  0.0906 -0.2505
  467MOL0     O62941   1.763   8.586   2.823 -0.5121  0.3918 -0.3692
  467MOL0     C62942   1.657   8.665   2.784 -0.1766  0.6855 -0.6139
  467MOL0     C62943   1.665   8.731   2.664  1.3349  0.3590  0.3438
  467MOL0     C62944   1.558   8.812   2.622  0.0734  0.9175 -0.6029
  467MOL0     C62945   1.439   8.814   2.696  0.6178 -0.3226  0.3421
  467MOL0     O62946   1.325   8.883   2.655  0.3552  0.0371 -0.3404
  467MOL0     C62947   1.301   8.891   2.514 -0.0436 -0.0397  0.7779
  467MOL0     C62948   1.170   8.974   2.515 -0.6098  0.2554 -0.0576
  467MOL0     C62949   1.050   8.888   2.554 -0.0106 -0.9001 -0.0523
  467MOL0     C62950   0.916   8.971   2.552 -0.3440  0.3644 -0.4762
  467MOL0     C62951   0.803   8.892   2.610  0.6546  0.1597 -0.3224
  467MOL0     C62952   0.672   8.971   2.620 -0.0400  0.5971 -0.3363
  467MOL0     C62953   0.552   8.883   2.654  0.3184 -0.0426 -0.0665
  467MOL0     C62954   0.444   8.956   2.736 -0.0842  0.3200  0.0871
  467MOL0    Cl62955   0.391   9.110   2.672 -0.1901  0.0109  0.2990
  467MOL0     C62956   1.430   8.732   2.817 -0.1693  0.9588  1.0487
  467MOL0     C62957   1.544   8.661   2.865  0.3986  0.0176 -0.1632
  467MOL0     O62958   1.839   8.757   2.957  0.5793 -0.0976 -0.4033
  467MOL0     C62959   2.079   8.642   3.007 -0.2946  0.1523  0.5836
  467MOL0     C62960   2.212   8.594   3.015 -1.6407 -0.1814  0.0815
  467MOL0     N62961   2.116   8.024   2.704  0.2941  0.6122 -0.4826
  467MOL0     N62962   1.986   8.042   2.715 -0.5179  0.5161 -0.1271
  467MOL0     C62963   0.777   8.389   3.114  0.4954 -0.0339 -0.0163
  467MOL0     C62964   0.685   8.479   3.173  0.4287  0.6474  0.2101
  467MOL0     C62965   0.548   8.820   3.460 -0.2658  0.0462 -0.3660
  467MOL0     C62966   0.578   8.948   3.521  0.4041 -0.0881 -0.2786
  467MOL0     C62967   0.473   9.008   3.593 -0.3766  0.1447  0.3458
  467MOL0     C62968   0.344   8.944   3.615  0.1921 -0.2490  0.4045
  467MOL0     O62969   0.228   8.998   3.687 -0.2361  0.5203 -1.0131
  467MOL0     C62970   0.247   9.066   3.815  0.0916 -0.4690 -0.8563
  467MOL0     C62971   0.239   8.974   3.933 -0.0938  0.5586  0.3434
  467MOL0     C62972   0.211   9.037   4.065 -0.0790 -0.1741 -0.1560
  467MOL0     C62973   0.062   9.067   4.085 -0.1753 -0.3754 -0.2069
  467MOL0     C62974  -0.032   8.959   4.080  0.6543 -0.1841 -0.1984
  467MOL0     C62975  -0.107   8.870   4.076 -0.4126 -0.5061 -0.5371
  467MOL0     C62976   0.320   8.821   3.543  0.5641  0.9448 -0.4615
  467MOL0     C62977   0.422   8.764   3.469  0.6627 -0.1864  0.0547
  467MOL0     H62978   0.886   8.566   3.444 -1.3348 -1.4216  1.7386
  467MOL0     H62979   1.039   8.420   3.317  0.0669 -1.4594  1.2886
  467MOL0     H62980   1.082   8.473   2.999  2.5235  0.9101  0.3650
  467MOL0     H62981   1.166   8.400   3.132  3.6686  2.0164 -1.2372
  467MOL0     H62982   1.200   8.188   2.955  1.9782 -0.0335  1.3576
  467MOL0     H62983   1.155   8.306   2.844 -4.0483  2.4202  1.5591
  467MOL0     H62984   1.389   8.340   2.847  0.7155 -0.3283  0.3299
  467MOL0     H62985   1.344   8.456   2.964 -5.5075  0.7653 -1.8543
  467MOL0     H62986   1.406   8.325   3.143 -2.0082  0.1546 -0.9200
  467MOL0     H62987   1.398   8.162   3.057 -0.8991 -0.0043  2.1926
  467MOL0     H62988   1.617   8.367   2.985  0.4046  0.4674  2.1359
  467MOL0     H62989   1.629   8.214   3.091 -0.7454 -0.1626 -0.2902
  467MOL0     H62990   1.549   8.084   2.896  1.4090 -0.4438  1.7267
  467MOL0     H62991   1.534   8.224   2.798 -0.1381 -1.9043 -1.7598
  467MOL0     H62992   1.749   8.177   2.726 -0.2675  1.3167 -0.3804
  467MOL0     H62993   1.793   8.276   2.857 -2.0693  1.7851 -2.2227
  467MOL0     H62994   1.762   7.974   2.881  0.9058 -1.1690  1.0726
  467MOL0     H62995   1.822   8.084   3.007 -0.6326  0.3646 -0.5846
  467MOL0     H62996   2.074   8.036   3.023 -0.0384 -0.4188 -0.3385
  467MOL0     H62997   2.365   7.974   2.935  2.1143  2.8613 -0.3453
  467MOL0     H62998   2.345   7.917   2.774 -0.0842 -2.4437  2.1380
  467MOL0     H62999   2.344   8.188   2.712 -0.6571 -2.5485 -1.5597
  467MOL0     H63000   2.501   8.102   2.777  1.6291  1.4076  4.0939
  467MOL0     H63001   2.448   8.194   2.986  1.9257  0.7268 -1.1432
  467MOL0     H63002   2.280   8.244   2.937 -0.3321 -1.2617  1.1600
  467MOL0     H63003   2.415   8.382   2.759 -2.4855 -0.9864  0.6493
  467MOL0     H63004   2.556   8.353   2.861  0.1095 -2.6672  1.9311
  467MOL0     H63005   2.212   8.381   2.761 -1.4048  0.4860 -0.4634
  467MOL0     H63006   1.900   8.505   2.641 -0.6574 -1.5627 -0.1304
  467MOL0     H63007   2.047   8.430   2.592  0.6493  1.8576 -0.0254
  467MOL0     H63008   1.944   8.339   2.693  1.2898  0.2841  2.1006
  467MOL0     H63009   1.757   8.725   2.606  0.0527 -4.0726 -1.6601
  467MOL0     H63010   1.567   8.869   2.529  3.2767  0.5500 -0.6454
  467MOL0     H63011   1.380   8.949   2.465  0.2837  0.7050  2.1397
  467MOL0     H63012   1.296   8.791   2.471  0.4789  1.5976 -3.5230
  467MOL0     H63013   1.189   9.056   2.584  1.1406  0.0376 -0.2194
  467MOL0     H63014   1.151   9.019   2.417  2.0529 -1.5543 -1.5518
  467MOL0     H63015   1.070   8.844   2.652 -1.3510 -1.0173  0.1878
  467MOL0     H63016   1.047   8.798   2.492  3.5622 -1.9012  0.9641
  467MOL0     H63017   0.925   9.059   2.617 -1.4184 -0.9864  1.6161
  467MOL0     H63018   0.894   9.006   2.451  0.1154  3.4241  0.3774
  467MOL0     H63019   0.836   8.859   2.709 -0.0588  0.4457  0.0194
  467MOL0     H63020   0.777   8.805   2.550  0.1825  0.0570  0.0290
  467MOL0     H63021   0.683   9.049   2.695 -2.7687 -1.0260  1.9674
  467MOL0     H63022   0.649   9.021   2.525 -1.0270 -2.7391 -2.0525
  467MOL0     H63023   0.594   8.799   2.711 -0.6171 -2.3737 -2.6043
  467MOL0     H63024   0.514   8.840   2.561 -1.9907 -0.5969  1.0677
  467MOL0     H63025   0.478   8.962   2.839 -0.0920  4.0199 -0.0024
  467MOL0     H63026   0.363   8.882   2.738 -1.0661  1.3371 -0.7341
  467MOL0     H63027   1.343   8.721   2.881 -2.6715  0.8185 -2.0929
  467MOL0     H63028   1.545   8.608   2.960 -1.5755 -3.0170 -1.6540
  467MOL0     H63029   2.030   8.707   3.078 -1.8004  0.3954 -0.6285
  467MOL0     H63030   2.290   8.635   3.077 -1.8048 -2.0210  1.5869
  467MOL0     H63031   0.738   8.328   3.033  0.2920 -2.2830  1.6795
  467MOL0     H63032   0.583   8.487   3.138 -0.4188 -2.2108  1.7487
  467MOL0     H63033   0.680   8.985   3.521  1.1202 -1.9604 -0.7863
  467MOL0     H63034   0.490   9.107   3.633  3.7755 -0.0977 -0.4121
  467MOL0     H63035   0.336   9.130   3.817 -0.5193  0.4843  2.4512
  467MOL0     H63036   0.163   9.137   3.815 -0.8017 -1.4869 -0.2034
  467MOL0     H63037   0.340   8.933   3.940 -0.4803 -0.8739 -1.7539
  467MOL0     H63038   0.172   8.889   3.920  0.9563 -0.4337  1.1769
  467MOL0     H63039   0.251   9.138   4.072 -3.4498  1.3684 -0.8362
  467MOL0     H63040   0.238   8.977   4.152  0.9129 -2.1156 -1.7358
  467MOL0     H63041   0.035   9.135   4.004  0.0480  1.6345  1.3428
  467MOL0     H63042   0.032   9.120   4.176 -0.4987  2.3272 -1.7924
  467MOL0     H63043  -0.176   8.789   4.065 -1.0739 -0.1224  0.6672
  467MOL0     H63044   0.223   8.773   3.552 -0.3306  2.6083 -0.7388
  467MOL0     H63045   0.393   8.672   3.419 -2.0457  0.1889  0.7593
  468MOL0     O63046   4.460   2.615  10.096 -0.3194 -0.4058  0.6376
  468MOL0     C63047   4.523   2.523  10.050 -0.0312  0.2689  0.5075
  468MOL0     O63048   4.467   2.413   9.994 -0.0266 -0.0003  1.2825
  468MOL0     C63049   4.342   2.379  10.028  0.6991 -0.5359  0.3999
  468MOL0     C63050   4.263   2.341   9.925 -0.6453 -0.1251  0.5489
  468MOL0     C63051   4.141   2.283   9.933  1.0500  0.3586  0.8760
  468MOL0     C63052   4.089   2.278  10.060 -0.9781  0.2511 -0.1248
  468MOL0     O63053   3.977   2.208  10.087 -0.5457 -0.3812  0.4072
  468MOL0     C63054   3.876   2.181   9.988 -0.7602 -0.8994  0.5232
  468MOL0     C63055   3.736   2.196  10.053 -0.5222 -0.4636  0.1490
  468MOL0     C63056   3.631   2.103   9.987 -0.4534  0.8154 -0.4520
  468MOL0     C63057   3.504   2.104  10.069  0.5941 -0.1275  0.8024
  468MOL0     C63058   3.409   2.020   9.995 -0.0255 -0.0332 -0.2901
  468MOL0     C63059   3.265   2.019  10.055 -0.4007 -0.0014  0.7745
  468MOL0     C63060   3.151   1.994   9.948  0.0211 -0.3198 -0.4242
  468MOL0     C63061   3.158   1.863   9.880 -1.2431 -1.2373 -0.1002
  468MOL0     N63062   3.057   1.859   9.768  0.4616  0.6476 -0.1848
  468MOL0     C63063   2.926   1.815   9.777  0.0160  0.3479 -0.9975
  468MOL0     C63064   2.881   1.776   9.653 -0.5676  0.8178  0.4909
  468MOL0     C63065   2.745   1.734   9.622  1.2197 -0.2408  0.6747
  468MOL0     C63066   2.633   1.727   9.736 -0.1573 -0.0507 -0.3019
  468MOL0     C63067   2.509   1.647   9.695 -0.6550 -0.1992 -0.4653
  468MOL0     C63068   2.390   1.687   9.781 -1.1434  0.3226  0.0430
  468MOL0     O63069   2.415   1.612   9.898  0.9383 -0.6838 -0.1137
  468MOL0     C63070   2.304   1.596   9.986  1.0205 -0.1505  0.1942
  468MOL0     C63071   2.321   1.504  10.087  0.2445  0.5793  0.9629
  468MOL0     C63072   2.229   1.461  10.174  1.3186  0.9086  0.0776
  468MOL0     C63073   2.272   1.366  10.282  0.4961  0.1704 -0.8471
  468MOL0     C63074   2.094   1.518  10.159  0.2852 -0.0041  0.2867
  468MOL0     C63075   1.973   1.476  10.241 -1.1113 -0.5893  0.3191
  468MOL0     O63076   1.868   1.560  10.242 -0.0700  0.0630  0.3013
  468MOL0     C63077   1.746   1.537  10.303  0.1892  0.2180 -0.9776
  468MOL0     C63078   1.646   1.634  10.276 -0.7279 -0.5285  0.4658
  468MOL0     C63079   1.523   1.622  10.338  0.0525 -0.3235 -0.2263
  468MOL0     C63080   1.489   1.510  10.419 -0.0097  0.4075  0.0297
  468MOL0     O63081   1.366   1.496  10.477 -0.1174 -0.4755 -0.5257
  468MOL0     C63082   1.305   1.362  10.478  0.3695 -0.5127  0.7986
  468MOL0     C63083   1.206   1.342  10.586  0.8787 -0.1676 -0.5925
  468MOL0     C63084   1.267   1.314  10.728 -0.6262  0.5832 -0.0861
  468MOL0     C63085   1.159   1.297  10.840 -0.6916 -1.1001  0.7815
  468MOL0     C63086   1.088   1.426  10.873 -0.6737 -0.3108 -0.0541
  468MOL0     C63087   0.980   1.393  10.979 -0.4614 -0.2256 -0.6632
  468MOL0     C63088   0.862   1.485  10.954 -0.3766 -0.0778 -0.3164
  468MOL0     C63089   0.785   1.503  11.091  0.6269  0.1360  0.2767
  468MOL0    Cl63090   0.689   1.656  11.077  0.3391 -0.0118  0.1795
  468MOL0     C63091   1.593   1.421  10.451 -0.7059 -0.5542 -0.5639
  468MOL0     C63092   1.711   1.425  10.386 -0.8453 -0.1566 -0.9244
  468MOL0     O63093   1.980   1.362  10.289  0.1379  0.2566  0.1692
  468MOL0     C63094   2.082   1.623  10.063  0.9133 -0.3590  0.6672
  468MOL0     C63095   2.181   1.656   9.971  0.8387 -0.4390 -0.5230
  468MOL0     N63096   2.992   1.798   9.564 -0.2669 -0.0541 -0.4946
  468MOL0     N63097   3.088   1.852   9.635 -0.7205 -0.1608  0.8401
  468MOL0     C63098   4.165   2.323  10.175 -0.1484 -1.2004 -0.1260
  468MOL0     C63099   4.299   2.371  10.164 -0.5572  0.0996  0.8470
  468MOL0     C63100   4.661   2.547  10.046  0.2503  0.0210 -0.1614
  468MOL0     C63101   4.754   2.447  10.021  0.0457 -0.7123 -0.1535
  468MOL0     C63102   4.888   2.474   9.993 -0.4124  0.1663 -0.0326
  468MOL0     C63103   4.936   2.603   9.993  0.0998 -0.1974 -0.7315
  468MOL0     O63104   5.060   2.647   9.965  0.0375 -0.3880 -0.7141
  468MOL0     C63105   5.135   2.577   9.865 -0.6216  0.1188  0.4074
  468MOL0     C63106   5.214   2.448   9.911 -0.6607  0.8474 -0.5242
  468MOL0     C63107   5.316   2.483  10.024  0.1818  0.6789  0.5942
  468MOL0     C63108   5.410   2.605   9.987 -0.8931  1.0235  0.0242
  468MOL0     C63109   5.544   2.596  10.040 -0.0175 -0.0123 -0.4386
  468MOL0     C63110   5.656   2.588  10.079 -0.1068 -0.3883 -0.4526
  468MOL0     C63111   4.840   2.697  10.031 -0.0354 -0.0605  0.2423
  468MOL0     C63112   4.712   2.676  10.066  0.2025  0.4825 -0.4295
  468MOL0     H63113   4.315   2.323   9.832  2.2965 -2.2846  2.4154
  468MOL0     H63114   4.090   2.237   9.849  0.0521 -2.0591  2.6991
  468MOL0     H63115   3.877   2.260   9.913 -0.9981 -0.7507  0.6734
  468MOL0     H63116   3.890   2.081   9.946  0.9217 -0.1802 -0.7314
  468MOL0     H63117   3.748   2.171  10.158 -1.5279 -0.4565  0.2773
  468MOL0     H63118   3.701   2.299  10.042  2.2262  0.7387  1.6212
  468MOL0     H63119   3.607   2.153   9.893 -0.0456  1.2294 -0.3392
  468MOL0     H63120   3.675   2.003   9.981 -2.4987 -0.3629  2.1582
  468MOL0     H63121   3.511   2.065  10.171 -0.6553 -3.5176 -0.2529
  468MOL0     H63122   3.465   2.206  10.064 -0.9997 -0.7001  0.7502
  468MOL0     H63123   3.397   2.056   9.892  0.5847  0.2484 -0.2667
  468MOL0     H63124   3.444   1.917   9.996  1.4621  0.3831 -2.1853
  468MOL0     H63125   3.263   1.937  10.128 -1.1965 -0.5507  0.1481
  468MOL0     H63126   3.247   2.114  10.107 -3.9932 -0.7074  1.0917
  468MOL0     H63127   3.056   1.983  10.002  0.4047  0.1567  0.3630
  468MOL0     H63128   3.141   2.086   9.890 -0.0171 -0.5534 -0.7938
  468MOL0     H63129   3.134   1.782   9.949 -3.1744 -2.4521 -2.0633
  468MOL0     H63130   3.259   1.842   9.844 -2.2129 -2.3876 -2.4319
  468MOL0     H63131   2.863   1.818   9.866 -1.9263  1.4814 -2.3280
  468MOL0     H63132   2.714   1.800   9.541  1.7229 -4.1691 -3.1062
  468MOL0     H63133   2.752   1.638   9.570 -2.8037  1.1296 -3.0368
  468MOL0     H63134   2.586   1.825   9.752 -0.7240 -0.5163  1.0343
  468MOL0     H63135   2.664   1.684   9.832 -0.0316 -1.8854 -1.1337
  468MOL0     H63136   2.528   1.540   9.707 -0.8666 -0.1453  0.3866
  468MOL0     H63137   2.492   1.665   9.589  1.1718 -1.4411 -1.0301
  468MOL0     H63138   2.294   1.647   9.746 -1.4353  0.4003  0.7333
  468MOL0     H63139   2.391   1.795   9.800  1.8704  0.3950 -0.0789
  468MOL0     H63140   2.422   1.464  10.089 -0.3104 -0.9771 -0.0515
  468MOL0     H63141   2.252   1.421  10.374 -1.3180 -1.3693 -0.2627
  468MOL0     H63142   2.214   1.274  10.269 -1.3410  1.3718 -1.5475
  468MOL0     H63143   2.379   1.345  10.273  0.3820 -1.3196  0.7932
  468MOL0     H63144   1.677   1.720  10.217  2.4479 -1.2031  0.9785
  468MOL0     H63145   1.448   1.699  10.318  2.2436  1.7757 -0.8140
  468MOL0     H63146   1.261   1.358  10.378  0.4000  4.7729  0.3135
  468MOL0     H63147   1.369   1.273  10.484 -0.9284 -1.3898  2.3114
  468MOL0     H63148   1.150   1.436  10.590  0.4360 -0.4432  2.8679
  468MOL0     H63149   1.128   1.267  10.566 -3.2172  3.1902  1.2382
  468MOL0     H63150   1.338   1.390  10.762  0.1204 -0.2629  0.3080
  468MOL0     H63151   1.319   1.218  10.731 -2.5190 -0.4829  0.7376
  468MOL0     H63152   1.095   1.214  10.809  3.0776 -3.6120 -1.1035
  468MOL0     H63153   1.207   1.258  10.930  0.8485 -0.6018  0.2074
  468MOL0     H63154   1.043   1.477  10.788  0.4770  2.9552  1.1403
  468MOL0     H63155   1.159   1.502  10.906 -0.2196  0.0863 -1.8721
  468MOL0     H63156   0.946   1.289  10.974 -0.7386 -0.1958  0.3963
  468MOL0     H63157   1.021   1.402  11.079  0.2331  0.6152 -1.0133
  468MOL0     H63158   0.808   1.436  10.873 -1.4752  0.8532 -0.1678
  468MOL0     H63159   0.887   1.588  10.926 -1.5605 -0.1302 -1.6443
  468MOL0     H63160   0.864   1.517  11.165  0.9799 -0.1841 -0.0359
  468MOL0     H63161   0.719   1.424  11.127 -0.6701  1.7759  1.6767
  468MOL0     H63162   1.565   1.351  10.529  1.0768 -1.4717 -0.6766
  468MOL0     H63163   1.786   1.354  10.419 -1.1519  0.1670  0.5590
  468MOL0     H63164   1.984   1.663  10.040  0.8166 -2.2519 -3.0230
  468MOL0     H63165   2.156   1.725   9.891  0.6270  0.8542  0.6294
  468MOL0     H63166   4.118   2.319  10.273  3.0431 -1.7087  1.5275
  468MOL0     H63167   4.358   2.412  10.245  0.2028  0.2270  0.2411
  468MOL0     H63168   4.716   2.346  10.008 -1.0832 -0.0920 -1.8808
  468MOL0     H63169   4.947   2.390   9.958 -0.3318 -0.4685  1.5471
  468MOL0     H63170   5.060   2.557   9.789 -2.2749  3.6226  0.8931
  468MOL0     H63171   5.206   2.648   9.821  0.6555  0.2491  2.5416
  468MOL0     H63172   5.265   2.410   9.822 -1.4660  2.8242 -1.8921
  468MOL0     H63173   5.154   2.364   9.948 -0.3603  0.9531  0.2199
  468MOL0     H63174   5.370   2.393  10.057 -0.8442  0.2427  1.1524
  468MOL0     H63175   5.261   2.512  10.114 -1.5050  2.6419 -0.9894
  468MOL0     H63176   5.378   2.706  10.014 -0.9736  1.7521 -2.5032
  468MOL0     H63177   5.417   2.624   9.879  1.7592  1.5850  0.2256
  468MOL0     H63178   5.760   2.579  10.103  0.1826  0.8814 -1.1999
  468MOL0     H63179   4.878   2.799  10.030  2.9129 -1.0680 -0.4023
  468MOL0     H63180   4.669   2.772  10.094  0.4771  0.5012 -0.0596
  469MOL0     O63181   9.510   1.345   7.701 -0.5579 -0.1221  0.2597
  469MOL0     C63182   9.468   1.426   7.622 -0.1715  0.3755  0.2710
  469MOL0     O63183   9.500   1.436   7.490  0.1149  0.1789  0.5623
  469MOL0     C63184   9.580   1.337   7.445  0.7109  0.8231 -0.0245
  469MOL0     C63185   9.711   1.341   7.472 -0.0929 -0.7437 -0.3014
  469MOL0     C63186   9.792   1.230   7.439  0.3280  0.3138  0.3024
  469MOL0     C63187   9.731   1.111   7.376  0.4564  1.1366  0.2941
  469MOL0     O63188   9.791   0.997   7.334 -0.0944  0.2594 -0.4478
  469MOL0     C63189   9.929   0.994   7.348 -0.5170  0.6614  0.6255
  469MOL0     C63190   9.972   0.873   7.260  0.0791  0.0163  0.8846
  469MOL0     C63191  10.125   0.861   7.255 -0.0846  0.0962 -0.2973
  469MOL0     C63192  10.167   0.790   7.130 -0.3565  0.8464 -1.0053
  469MOL0     C63193  10.318   0.754   7.141 -0.1372  0.0428  0.2761
  469MOL0     C63194  10.390   0.860   7.073  0.1697 -0.1602  0.1931
  469MOL0     C63195  10.548   0.845   7.075  0.4180  0.2005  0.6965
  469MOL0     C63196  10.625   0.942   6.974  0.8532 -0.2858 -0.3503
  469MOL0     N63197  10.769   0.916   6.973 -0.6261  0.5602 -0.1831
  469MOL0     C63198  10.830   0.805   7.018  0.3740 -0.9258  0.6361
  469MOL0     C63199  10.960   0.825   6.983  1.0754 -0.5100  0.8740
  469MOL0     C63200  11.063   0.719   6.985 -0.6373  0.6426 -0.6679
  469MOL0     C63201  11.134   0.688   7.122 -0.2130  0.6056  0.0940
  469MOL0     C63202  11.150   0.806   7.210 -0.6695 -0.4105 -0.0338
  469MOL0     C63203  11.241   0.916   7.141  0.6724  0.3669  0.3759
  469MOL0     O63204  11.261   1.034   7.212  0.0917  0.2527  0.2239
  469MOL0     C63205  11.136   1.080   7.259  0.8480  0.4182 -0.5841
  469MOL0     C63206  11.121   1.071   7.401  0.4050  0.2742 -0.2375
  469MOL0     C63207  10.992   1.086   7.451 -1.0675  0.1513  0.2044
  469MOL0     C63208  10.966   1.056   7.597 -0.1185 -0.3023  0.4599
  469MOL0     C63209  10.880   1.129   7.362 -0.7490  0.2552 -0.5290
  469MOL0     C63210  10.745   1.140   7.422 -0.9566  0.0578  0.5356
  469MOL0     O63211  10.639   1.070   7.368  0.3115  0.3747  0.0858
  469MOL0     C63212  10.529   1.055   7.447 -0.1501  0.6784  0.3842
  469MOL0     C63213  10.539   0.985   7.573 -0.1603 -1.0972  0.2298
  469MOL0     C63214  10.424   0.947   7.645  0.3444 -0.4660 -0.1477
  469MOL0     C63215  10.301   0.979   7.588 -0.2961 -0.3570 -0.0209
  469MOL0     O63216  10.179   0.976   7.654  0.1541  0.4877  0.5406
  469MOL0     C63217  10.174   0.981   7.795 -0.0602 -0.0424  0.7304
  469MOL0     C63218  10.039   1.049   7.847  0.8112  0.2018 -0.3112
  469MOL0     C63219  10.040   1.204   7.825  0.2005  0.3001 -0.0087
  469MOL0     C63220   9.911   1.265   7.879 -0.2522 -0.4691  0.4638
  469MOL0     C63221   9.891   1.421   7.851 -0.4826 -0.3788 -0.0268
  469MOL0     C63222   9.767   1.464   7.924  0.3511 -0.1259  0.4109
  469MOL0     C63223   9.715   1.596   7.868  0.2881  0.3274  0.1915
  469MOL0     C63224   9.595   1.646   7.941 -0.1212  0.3026  0.2791
  469MOL0    Cl63225   9.611   1.724   8.102  0.1715  0.0091  0.0921
  469MOL0     C63226  10.287   1.053   7.471 -0.5218 -0.0896  0.0487
  469MOL0     C63227  10.403   1.102   7.405  0.0810 -0.5500 -1.0793
  469MOL0     O63228  10.741   1.211   7.523  0.6040  0.4171  0.6328
  469MOL0     C63229  10.902   1.155   7.228 -0.1440  0.0648 -0.3026
  469MOL0     C63230  11.030   1.129   7.182  0.2061  0.8324  0.8278
  469MOL0     N63231  10.967   0.944   6.907 -0.4321 -0.0174  0.6352
  469MOL0     N63232  10.860   1.005   6.922  0.1935 -0.0744  0.2644
  469MOL0     C63233   9.592   1.103   7.347  1.2011 -0.0038 -0.6032
  469MOL0     C63234   9.514   1.214   7.396  0.7616 -1.2595  0.2915
  469MOL0     C63235   9.362   1.523   7.676 -0.0002 -1.6270  0.0024
  469MOL0     C63236   9.302   1.615   7.589  0.3538 -0.1953 -0.6320
  469MOL0     C63237   9.195   1.698   7.637 -0.2194 -0.6161 -0.2589
  469MOL0     C63238   9.150   1.688   7.775  0.0519  1.0080  0.1518
  469MOL0     O63239   9.035   1.758   7.808 -0.1088 -0.7231 -0.4979
  469MOL0     C63240   8.985   1.766   7.947 -0.0394  0.5696  0.4152
  469MOL0     C63241   9.098   1.836   8.037 -0.1139  0.4640  0.5858
  469MOL0     C63242   9.107   1.774   8.179 -0.6246  0.3981  0.7288
  469MOL0     C63243   8.993   1.821   8.266 -0.2161 -0.6288  0.3608
  469MOL0     C63244   8.861   1.768   8.231  0.3130 -0.0602  0.4141
  469MOL0     C63245   8.754   1.718   8.196 -0.6768 -0.0084 -0.3488
  469MOL0     C63246   9.206   1.596   7.856  0.3982 -0.4990 -0.6673
  469MOL0     C63247   9.317   1.518   7.807  0.3303  0.3479 -0.5354
  469MOL0     H63248   9.758   1.432   7.508  1.9772 -2.1156  0.6558
  469MOL0     H63249   9.899   1.246   7.445  0.0352  2.9625 -0.5592
  469MOL0     H63250   9.988   1.082   7.325 -2.4925  2.0057  0.4706
  469MOL0     H63251   9.959   0.959   7.448  1.4646 -0.2517 -0.2318
  469MOL0     H63252   9.934   0.776   7.292 -0.6862 -1.3492 -3.5826
  469MOL0     H63253   9.923   0.898   7.166  0.1078  2.7202  1.4796
  469MOL0     H63254  10.165   0.963   7.252 -0.4844  0.2338 -1.1902
  469MOL0     H63255  10.164   0.812   7.345  0.7488  0.9623 -0.1682
  469MOL0     H63256  10.105   0.701   7.112  0.0779  0.4739 -0.6983
  469MOL0     H63257  10.143   0.846   7.039 -1.3064  1.0144 -0.6586
  469MOL0     H63258  10.352   0.749   7.245 -0.7635  2.3111  0.6530
  469MOL0     H63259  10.342   0.662   7.087 -2.2723  0.5802 -1.7489
  469MOL0     H63260  10.346   0.875   6.974 -2.7610  2.0069  1.6843
  469MOL0     H63261  10.373   0.952   7.131  2.3218  0.0672  0.5442
  469MOL0     H63262  10.575   0.868   7.178 -2.9733  2.1808  1.3027
  469MOL0     H63263  10.580   0.742   7.057 -0.9639 -0.3027  0.9953
  469MOL0     H63264  10.609   1.039   7.022  1.4905 -1.2826  2.0318
  469MOL0     H63265  10.587   0.944   6.871  0.0345  0.5334 -0.0465
  469MOL0     H63266  10.786   0.711   7.050  2.2854 -1.8412  0.7301
  469MOL0     H63267  11.012   0.629   6.951  0.6021 -1.2281  2.0479
  469MOL0     H63268  11.139   0.741   6.910 -0.5604 -2.3999 -1.5884
  469MOL0     H63269  11.231   0.640   7.103 -0.3449 -0.2557  1.4622
  469MOL0     H63270  11.071   0.613   7.170 -0.1617  0.3681 -0.2039
  469MOL0     H63271  11.207   0.771   7.296  0.3407  2.6051  0.6703
  469MOL0     H63272  11.050   0.845   7.232 -0.5124  0.5129 -0.8590
  469MOL0     H63273  11.198   0.938   7.043 -0.9457  0.4750  1.0771
  469MOL0     H63274  11.336   0.866   7.118 -1.5763 -3.7239 -1.0578
  469MOL0     H63275  11.213   1.046   7.453  1.3287  0.5988 -1.6612
  469MOL0     H63276  10.927   1.136   7.660  0.5616 -0.7731  1.4885
  469MOL0     H63277  10.897   0.971   7.604 -0.0964 -0.5112 -1.3403
  469MOL0     H63278  11.058   1.023   7.646 -0.3041  0.4310  1.3233
  469MOL0     H63279  10.632   0.948   7.615 -0.4457 -1.9858  0.1030
  469MOL0     H63280  10.432   0.898   7.741 -0.8923  1.4923  1.0134
  469MOL0     H63281  10.176   0.875   7.823  2.5703 -1.2889 -3.2681
  469MOL0     H63282  10.264   1.029   7.836  0.0494  0.5044 -0.1105
  469MOL0     H63283   9.952   0.995   7.808  0.8921 -1.2845  1.4380
  469MOL0     H63284  10.032   1.038   7.955 -0.8644 -0.7027 -0.4762
  469MOL0     H63285  10.036   1.227   7.718  2.6422 -0.4447 -0.3078
  469MOL0     H63286  10.135   1.240   7.864  0.8396 -2.7590  1.5652
  469MOL0     H63287   9.830   1.207   7.834 -2.0605 -0.2340  3.1809
  469MOL0     H63288   9.895   1.245   7.985  1.8693  3.4513  1.7355
  469MOL0     H63289   9.885   1.436   7.743 -2.2423  0.7822  0.1996
  469MOL0     H63290   9.973   1.486   7.883 -1.9969 -0.1952  4.0825
  469MOL0     H63291   9.690   1.388   7.913  0.2812  0.0321 -0.2737
  469MOL0     H63292   9.787   1.465   8.032 -0.3088  0.5760  0.5343
  469MOL0     H63293   9.693   1.594   7.761  0.3657 -1.2941  0.1724
  469MOL0     H63294   9.786   1.678   7.883  1.9961 -1.3971  2.4274
  469MOL0     H63295   9.523   1.566   7.959  0.4590 -0.6140 -1.2324
  469MOL0     H63296   9.553   1.728   7.882 -0.6956  2.1039  3.0035
  469MOL0     H63297  10.185   1.082   7.447 -0.0164  1.4306 -0.3960
  469MOL0     H63298  10.386   1.164   7.318  0.0835 -0.0350 -0.7148
  469MOL0     H63299  10.821   1.189   7.163  2.0855 -0.0362 -3.3538
  469MOL0     H63300  11.055   1.143   7.077 -1.3647 -1.2233  0.1087
  469MOL0     H63301   9.550   1.014   7.300  1.6669 -0.9615  0.7307
  469MOL0     H63302   9.407   1.200   7.398  0.7471 -1.3347 -0.7287
  469MOL0     H63303   9.340   1.620   7.487 -0.5018 -0.1749 -0.9570
  469MOL0     H63304   9.165   1.783   7.576  0.3342  0.7619  1.2811
  469MOL0     H63305   8.892   1.823   7.949  0.0521  0.6981  2.3609
  469MOL0     H63306   8.955   1.672   7.994 -0.6998 -0.3862 -1.7780
  469MOL0     H63307   9.086   1.944   8.033  0.3709  0.4945 -2.5496
  469MOL0     H63308   9.200   1.822   8.000  0.1558  0.7021  1.2354
  469MOL0     H63309   9.209   1.796   8.210 -0.6672  3.6638 -1.0273
  469MOL0     H63310   9.107   1.665   8.171 -0.3130  0.2110  2.7364
  469MOL0     H63311   8.996   1.930   8.279  0.9917 -0.7895  1.6430
  469MOL0     H63312   9.018   1.780   8.364  2.7354  0.4605  0.1627
  469MOL0     H63313   8.661   1.680   8.159  0.4531 -1.7620 -1.5280
  469MOL0     H63314   9.181   1.574   7.959 -1.7850  1.5461 -0.6894
  469MOL0     H63315   9.345   1.438   7.875 -2.1659  0.2598  0.5212
  470MOL0     O63316   6.782   5.250   2.372 -0.7638 -0.3334  0.5344
  470MOL0     C63317   6.756   5.133   2.354  1.2099 -0.3398 -0.3798
  470MOL0     O63318   6.628   5.080   2.367 -0.4411  0.3590 -0.2909
  470MOL0     C63319   6.523   5.147   2.425  0.5194 -0.3950  0.1262
  470MOL0     C63320   6.526   5.271   2.499 -0.0046 -0.1121  0.6252
  470MOL0     C63321   6.404   5.320   2.544  0.7891  0.3302  0.0904
  470MOL0     C63322   6.281   5.251   2.523  0.4121 -0.3922 -0.0558
  470MOL0     O63323   6.160   5.312   2.567 -0.6003  0.0795 -0.1734
  470MOL0     C63324   6.158   5.451   2.585  0.6385  0.0880 -0.0035
  470MOL0     C63325   6.017   5.492   2.538  0.1343  0.0946 -0.4046
  470MOL0     C63326   6.005   5.643   2.502 -0.3795  0.4508  0.2249
  470MOL0     C63327   5.873   5.672   2.428 -1.0633  0.3516 -0.7580
  470MOL0     C63328   5.746   5.624   2.494 -1.0104  1.1137 -0.5397
  470MOL0     C63329   5.614   5.666   2.435  0.1785 -0.7841  0.6854
  470MOL0     C63330   5.593   5.566   2.322 -0.3475 -0.7693 -0.2507
  470MOL0     C63331   5.481   5.605   2.230  0.4258  0.7222  0.2798
  470MOL0     N63332   5.345   5.622   2.291 -0.1917 -0.2753  0.0955
  470MOL0     C63333   5.255   5.521   2.304  0.7913 -0.8672 -0.3582
  470MOL0     C63334   5.140   5.583   2.347 -0.3252 -0.3296  0.1326
  470MOL0     C63335   5.002   5.520   2.372 -0.6783 -0.4200  0.8009
  470MOL0     C63336   5.014   5.452   2.510  0.1501  0.8014 -0.4754
  470MOL0     C63337   4.994   5.552   2.623 -0.1389  0.1723  0.6778
  470MOL0     C63338   4.848   5.547   2.673 -0.2940 -0.2041 -0.2766
  470MOL0     O63339   4.847   5.640   2.773  0.6872  0.1389  0.4246
  470MOL0     C63340   4.734   5.721   2.801 -0.3949 -0.4275  0.4586
  470MOL0     C63341   4.748   5.773   2.926  0.4224  1.3487  0.2012
  470MOL0     C63342   4.647   5.848   2.989  0.2157  0.5498 -0.1692
  470MOL0     C63343   4.666   5.877   3.136 -0.1055 -0.0951  1.0322
  470MOL0     C63344   4.526   5.868   2.915 -0.9225 -0.0892  0.4754
  470MOL0     C63345   4.408   5.938   2.967  0.7609  0.2514  1.1282
  470MOL0     O63346   4.290   5.921   2.893  0.0767 -1.0549  0.2003
  470MOL0     C63347   4.165   5.987   2.929 -1.6178  0.1934  0.1252
  470MOL0     C63348   4.151   6.109   3.008  0.4320 -0.1563 -0.6171
  470MOL0     C63349   4.027   6.160   3.040  0.0254  0.7661 -0.1106
  470MOL0     C63350   3.903   6.084   3.012 -0.7224 -0.4348 -1.0513
  470MOL0     O63351   3.779   6.120   3.049 -0.5042 -0.9655 -0.1690
  470MOL0     C63352   3.764   6.187   3.171 -0.2907 -0.4295  0.7676
  470MOL0     C63353   3.619   6.229   3.182 -0.4409 -0.4340  1.0648
  470MOL0     C63354   3.603   6.368   3.126  0.4101 -0.3737 -0.1685
  470MOL0     C63355   3.460   6.380   3.070  0.3173 -0.5929  0.6750
  470MOL0     C63356   3.449   6.502   2.979  0.6262 -0.6448  0.2623
  470MOL0     C63357   3.304   6.556   2.971  0.1912 -0.1925 -0.5075
  470MOL0     C63358   3.294   6.684   2.885 -0.6233  0.0275 -0.9368
  470MOL0     C63359   3.176   6.767   2.932  0.6884 -0.3204  0.5722
  470MOL0    Cl63360   3.022   6.675   2.910 -0.1978  0.3199  0.0379
  470MOL0     C63361   3.917   5.974   2.928  0.3218 -0.7004  0.7996
  470MOL0     C63362   4.042   5.927   2.896 -0.6586 -0.1190 -0.4561
  470MOL0     O63363   4.416   6.003   3.073  0.2921 -0.2624 -0.7744
  470MOL0     C63364   4.517   5.827   2.774 -0.5562  0.4321  0.0557
  470MOL0     C63365   4.619   5.745   2.726  0.5255 -0.3374  0.5567
  470MOL0     N63366   5.164   5.718   2.357 -0.3317 -0.6323  0.7792
  470MOL0     N63367   5.285   5.737   2.314  0.0832 -0.7571 -0.7587
  470MOL0     C63368   6.284   5.125   2.461  0.5094  0.4969  0.3352
  470MOL0     C63369   6.405   5.068   2.412  0.2735  0.0563  0.3000
  470MOL0     C63370   6.857   5.032   2.338  0.1102 -0.3459 -0.7833
  470MOL0     C63371   6.818   4.900   2.310 -0.3987 -0.5375  0.5322
  470MOL0     C63372   6.922   4.805   2.304  0.8600 -1.0400  0.5701
  470MOL0     C63373   7.060   4.842   2.294  0.0645  0.4711  0.4799
  470MOL0     O63374   7.164   4.754   2.274  0.2559 -0.1220  0.7542
  470MOL0     C63375   7.154   4.618   2.321  0.1286  0.6681  0.2809
  470MOL0     C63376   7.179   4.606   2.476 -0.1479 -0.3665  0.0680
  470MOL0     C63377   7.268   4.714   2.531  0.1608 -0.0894 -0.0919
  470MOL0     C63378   7.239   4.735   2.680  0.2840 -0.3758 -0.2184
  470MOL0     C63379   7.114   4.814   2.685 -0.1404 -0.5522 -0.4715
  470MOL0     C63380   7.019   4.884   2.647 -0.4576  0.5129  0.1188
  470MOL0     C63381   7.097   4.977   2.325  0.2386 -0.3978  0.6183
  470MOL0     C63382   6.994   5.066   2.347  0.8893 -0.0312 -0.0077
  470MOL0     H63383   6.618   5.326   2.513  0.0252  0.9676 -2.8342
  470MOL0     H63384   6.399   5.402   2.615 -0.7083 -0.7682  1.3221
  470MOL0     H63385   6.165   5.482   2.690  1.4530  0.8212 -0.2610
  470MOL0     H63386   6.246   5.502   2.545  0.6888  1.6661  1.9578
  470MOL0     H63387   5.999   5.427   2.452 -1.0783 -0.9137  0.5694
  470MOL0     H63388   5.942   5.467   2.614  1.1619  1.7251  1.2233
  470MOL0     H63389   6.016   5.702   2.592 -2.5466 -0.7624  1.3677
  470MOL0     H63390   6.084   5.673   2.432 -1.4186  0.0500 -1.1809
  470MOL0     H63391   5.873   5.779   2.404 -2.1460  0.8703  1.2443
  470MOL0     H63392   5.876   5.638   2.325 -2.1085 -1.1889 -0.3165
  470MOL0     H63393   5.751   5.515   2.497  2.3186  1.1626 -0.4059
  470MOL0     H63394   5.745   5.660   2.597 -0.8559  3.3768 -1.2678
  470MOL0     H63395   5.528   5.659   2.501 -0.3463  1.4508  0.3062
  470MOL0     H63396   5.616   5.771   2.404 -0.6540 -1.3554 -1.4897
  470MOL0     H63397   5.680   5.552   2.257  1.6894 -1.2503  2.3927
  470MOL0     H63398   5.570   5.466   2.359  0.4814 -1.2485 -0.9926
  470MOL0     H63399   5.475   5.519   2.164  1.9029  0.2230  0.7655
  470MOL0     H63400   5.505   5.697   2.175  1.7066  1.9751  2.7671
  470MOL0     H63401   5.269   5.416   2.281  3.7867 -0.6333 -0.0317
  470MOL0     H63402   4.918   5.590   2.369 -1.0815 -0.8758  1.3259
  470MOL0     H63403   4.973   5.439   2.304 -1.3561 -2.0099  2.9092
  470MOL0     H63404   5.110   5.401   2.520 -0.5590 -0.1423  2.7302
  470MOL0     H63405   4.940   5.372   2.523  3.2767 -2.2322  0.3131
  470MOL0     H63406   5.031   5.650   2.591  2.9579 -0.7462  1.1919
  470MOL0     H63407   5.060   5.515   2.701 -0.9839 -0.6900  1.0077
  470MOL0     H63408   4.817   5.447   2.704 -0.8885 -0.2826 -1.0795
  470MOL0     H63409   4.792   5.582   2.585  0.6608  3.1028  0.3021
  470MOL0     H63410   4.839   5.749   2.980 -1.1055  0.7037  2.6234
  470MOL0     H63411   4.647   5.981   3.164 -1.5369 -0.2056  0.5793
  470MOL0     H63412   4.603   5.813   3.199  3.1262 -2.2107  2.3277
  470MOL0     H63413   4.771   5.856   3.156  0.1331  0.5974  0.5322
  470MOL0     H63414   4.239   6.168   3.029 -0.5372  1.1752 -0.2081
  470MOL0     H63415   4.009   6.254   3.091 -0.9534 -0.7114  2.4436
  470MOL0     H63416   3.800   6.123   3.252  1.0770 -0.2926  0.2809
  470MOL0     H63417   3.825   6.277   3.180 -1.3713  0.1246  3.8520
  470MOL0     H63418   3.559   6.157   3.125  2.5774 -3.6757  1.6181
  470MOL0     H63419   3.591   6.227   3.288  0.6337  1.1870  1.4145
  470MOL0     H63420   3.674   6.375   3.043 -0.5511 -3.7138 -1.4369
  470MOL0     H63421   3.631   6.441   3.203 -1.1857  0.3987 -0.2936
  470MOL0     H63422   3.432   6.289   3.015  2.7916 -0.5481 -0.8523
  470MOL0     H63423   3.388   6.378   3.152 -2.0330 -1.5969 -1.2614
  470MOL0     H63424   3.476   6.480   2.875 -1.0671 -2.1156  0.0924
  470MOL0     H63425   3.516   6.579   3.019 -1.2134  1.4948 -0.5284
  470MOL0     H63426   3.237   6.478   2.932  0.0331 -0.6618  0.6672
  470MOL0     H63427   3.271   6.580   3.072  0.1599 -0.0587 -0.5490
  470MOL0     H63428   3.271   6.656   2.782 -2.8294  0.9011 -0.7512
  470MOL0     H63429   3.385   6.744   2.893 -0.4949 -0.2349 -0.3823
  470MOL0     H63430   3.154   6.852   2.867 -1.6107 -0.1619  1.4568
  470MOL0     H63431   3.188   6.800   3.035 -0.2110  1.5014  0.1277
  470MOL0     H63432   3.824   5.923   2.906 -1.2028  1.7042  1.2628
  470MOL0     H63433   4.052   5.833   2.842 -0.3358 -1.3822  1.6918
  470MOL0     H63434   4.427   5.829   2.714 -0.0357 -2.2968 -0.9908
  470MOL0     H63435   4.614   5.692   2.632  2.4108 -0.0788  0.2694
  470MOL0     H63436   6.199   5.058   2.446 -1.1210  2.8257 -1.7195
  470MOL0     H63437   6.402   4.975   2.356  4.4974 -0.3527  0.4766
  470MOL0     H63438   6.716   4.865   2.302 -0.8360  0.9375 -1.0236
  470MOL0     H63439   6.898   4.702   2.278  0.1214 -0.1752 -2.7096
  470MOL0     H63440   7.059   4.569   2.300  0.7644 -0.5438  0.1147
  470MOL0     H63441   7.230   4.557   2.270  0.4360 -0.2035  1.7180
  470MOL0     H63442   7.219   4.513   2.518  0.5420  1.0914  2.8953
  470MOL0     H63443   7.084   4.619   2.530  1.3184  2.9785  2.2019
  470MOL0     H63444   7.260   4.810   2.480 -1.8417 -0.5225 -0.6936
  470MOL0     H63445   7.373   4.686   2.519 -0.0201 -0.0267 -2.1168
  470MOL0     H63446   7.319   4.782   2.739 -1.5600  1.3280  1.0715
  470MOL0     H63447   7.217   4.639   2.727 -1.3773 -0.0680 -0.3061
  470MOL0     H63448   6.933   4.934   2.607 -1.2236  2.4158  3.7658
  470MOL0     H63449   7.198   5.008   2.347  0.0380 -0.7049  2.0638
  470MOL0     H63450   7.022   5.170   2.353 -1.0945  0.5504 -0.1606
  471MOL0     O63451   2.651   7.055  11.184  0.0944 -0.4425  0.3322
  471MOL0     C63452   2.625   7.168  11.214 -0.0750 -0.0554 -0.1556
  471MOL0     O63453   2.492   7.209  11.244 -0.1360 -0.1004 -0.4517
  471MOL0     C63454   2.379   7.147  11.193  0.2363 -0.3264 -0.0876
  471MOL0     C63455   2.259   7.168  11.257 -0.3320 -0.1848 -0.7779
  471MOL0     C63456   2.154   7.095  11.210 -0.0255 -0.0757 -0.2532
  471MOL0     C63457   2.162   7.008  11.095 -0.1491 -0.9509  0.0068
  471MOL0     O63458   2.046   6.960  11.049 -0.1148 -0.1166  0.1971
  471MOL0     C63459   2.061   6.891  10.925 -0.0333  0.0408 -0.4336
  471MOL0     C63460   1.950   6.820  10.865  0.8244  0.0517 -0.5411
  471MOL0     C63461   1.904   6.690  10.948 -0.0320 -0.1853  0.3821
  471MOL0     C63462   1.818   6.612  10.833 -0.3712 -0.3290 -0.0050
  471MOL0     C63463   1.711   6.525  10.884  0.6473  0.3966 -0.3022
  471MOL0     C63464   1.606   6.583  10.979  0.1054  0.0099 -0.0992
  471MOL0     C63465   1.508   6.472  11.034 -0.5917 -0.2874  0.5268
  471MOL0     C63466   1.384   6.524  11.108 -0.0307  0.3247  0.3707
  471MOL0     N63467   1.415   6.607  11.231  0.6446 -0.2783 -0.1895
  471MOL0     C63468   1.468   6.731  11.232  0.3903 -0.7325  0.7265
  471MOL0     C63469   1.519   6.746  11.352  0.5467  0.6991  0.1388
  471MOL0     C63470   1.584   6.889  11.387 -0.3987  0.4284 -0.0818
  471MOL0     C63471   1.732   6.912  11.368  0.0378 -0.3522 -0.5725
  471MOL0     C63472   1.826   6.831  11.463  1.0396  0.1733  0.1919
  471MOL0     C63473   1.973   6.845  11.471  0.7252 -0.1334  0.0067
  471MOL0     O63474   2.005   6.953  11.558  0.7671  0.2186 -0.0326
  471MOL0     C63475   2.134   6.995  11.576 -0.4839  0.6206 -0.0120
  471MOL0     C63476   2.156   7.093  11.665  0.2055  0.7005  0.4643
  471MOL0     C63477   2.283   7.142  11.691  0.2152  0.6634 -0.7640
  471MOL0     C63478   2.306   7.255  11.788  0.0921 -0.1824 -0.1177
  471MOL0     C63479   2.400   7.090  11.630 -0.0307 -0.4774 -0.3358
  471MOL0     C63480   2.537   7.136  11.649  0.5541 -0.3000  1.1460
  471MOL0     O63481   2.629   7.040  11.644 -0.6302 -0.1073 -0.3440
  471MOL0     C63482   2.768   7.060  11.654 -0.3398 -0.8933  0.1085
  471MOL0     C63483   2.843   7.134  11.748 -0.3680  0.7625 -0.4059
  471MOL0     C63484   2.981   7.153  11.747 -0.5371 -0.0954 -0.3787
  471MOL0     C63485   3.052   7.087  11.646 -0.3269 -1.3291  0.0327
  471MOL0     O63486   3.188   7.088  11.642  0.2256 -0.0911 -0.5461
  471MOL0     C63487   3.238   7.134  11.514 -0.6118  0.1881  1.0082
  471MOL0     C63488   3.369   7.195  11.531 -1.1298 -1.4918  0.2985
  471MOL0     C63489   3.434   7.252  11.395 -0.3601  0.3188 -0.5700
  471MOL0     C63490   3.593   7.244  11.396 -0.3179  0.4015 -1.1311
  471MOL0     C63491   3.649   7.108  11.355  0.3253 -0.0971  0.4487
  471MOL0     C63492   3.801   7.111  11.356  0.4299 -0.4854 -0.4395
  471MOL0     C63493   3.870   7.002  11.438  0.1484 -0.0146 -0.0810
  471MOL0     C63494   3.827   6.993  11.584  0.6148 -0.5612  0.9224
  471MOL0    Cl63495   3.792   7.132  11.687  0.1673  0.3161  0.4283
  471MOL0     C63496   2.973   7.016  11.551 -0.0022 -0.4785  0.0077
  471MOL0     C63497   2.835   7.001  11.558  0.8978 -0.5886  0.2642
  471MOL0     O63498   2.559   7.259  11.641  0.0183  0.5089  0.6772
  471MOL0     C63499   2.374   6.984  11.545 -0.3167 -0.3190  0.1764
  471MOL0     C63500   2.245   6.940  11.507 -0.2967 -0.0316  0.0612
  471MOL0     N63501   1.490   6.638  11.436 -0.0304 -0.6451  1.0233
  471MOL0     N63502   1.432   6.560  11.357 -0.2615 -0.1862  0.6493
  471MOL0     C63503   2.278   7.009  11.034 -0.3838 -0.4695 -0.1143
  471MOL0     C63504   2.387   7.073  11.077 -0.6746  0.0391  0.1231
  471MOL0     C63505   2.729   7.276  11.203 -1.2361 -0.5952 -0.4043
  471MOL0     C63506   2.863   7.258  11.241  0.5290 -0.2936  0.0534
  471MOL0     C63507   2.952   7.364  11.231 -0.5697  0.5557 -0.1279
  471MOL0     C63508   2.913   7.488  11.177 -0.2507 -0.1993 -0.3833
  471MOL0     O63509   2.995   7.597  11.155 -0.1311  0.1849 -0.1502
  471MOL0     C63510   3.118   7.604  11.235 -0.8747  0.9798  0.0200
  471MOL0     C63511   3.087   7.696  11.354  0.0609 -0.9898 -0.5160
  471MOL0     C63512   3.211   7.703  11.432 -0.1204  0.6077 -0.7821
  471MOL0     C63513   3.200   7.597  11.539 -0.3102 -0.5520  0.0066
  471MOL0     C63514   3.336   7.586  11.593 -0.4143  0.0189 -0.3983
  471MOL0     C63515   3.447   7.582  11.637  0.1053  0.8289 -0.2893
  471MOL0     C63516   2.783   7.505  11.149  0.4932 -1.0521  0.2422
  471MOL0     C63517   2.683   7.399  11.157  0.1510  0.0751 -0.1166
  471MOL0     H63518   2.259   7.229  11.347  1.2602 -1.6066  0.2509
  471MOL0     H63519   2.063   7.108  11.268  0.1124  2.3737 -0.4929
  471MOL0     H63520   2.087   6.971  10.855 -2.8385  0.7153 -0.8212
  471MOL0     H63521   2.142   6.819  10.940  0.8111  1.3130  1.5254
  471MOL0     H63522   1.867   6.889  10.852  0.5877  0.2940  1.8298
  471MOL0     H63523   1.989   6.786  10.768  1.5039 -0.6752 -0.0315
  471MOL0     H63524   1.992   6.639  10.988 -0.5719 -0.8411  0.7646
  471MOL0     H63525   1.839   6.722  11.030  1.6786  0.4455  1.5315
  471MOL0     H63526   1.762   6.689  10.779 -0.6149 -0.1064  0.5565
  471MOL0     H63527   1.885   6.562  10.763  0.3942  1.6351 -0.7702
  471MOL0     H63528   1.642   6.503  10.803 -2.5350  1.8715  1.8178
  471MOL0     H63529   1.742   6.433  10.934 -0.2319  0.2811  0.0371
  471MOL0     H63530   1.648   6.632  11.067 -1.6525 -0.4563  1.0565
  471MOL0     H63531   1.545   6.656  10.925 -0.1163 -1.1043 -1.3992
  471MOL0     H63532   1.466   6.434  10.940 -1.2419  1.7848 -0.0873
  471MOL0     H63533   1.565   6.397  11.089 -0.2642 -0.0950  0.4493
  471MOL0     H63534   1.333   6.436  11.148 -3.5625  1.5542 -0.9899
  471MOL0     H63535   1.313   6.567  11.036  1.5929  2.4925 -0.0753
  471MOL0     H63536   1.457   6.797  11.147 -0.5141 -2.2627 -0.3953
  471MOL0     H63537   1.534   6.966  11.328 -2.1540 -0.1744  0.5510
  471MOL0     H63538   1.561   6.908  11.492 -0.2182 -2.2704  0.5167
  471MOL0     H63539   1.748   7.020  11.382 -4.2591  0.3100  0.4841
  471MOL0     H63540   1.763   6.891  11.265 -1.4423  0.9781 -1.3317
  471MOL0     H63541   1.818   6.725  11.437 -2.7661 -0.3536  2.6878
  471MOL0     H63542   1.784   6.847  11.563  0.6751 -4.3868  0.9723
  471MOL0     H63543   2.012   6.858  11.370  1.0702  0.1151  0.1698
  471MOL0     H63544   2.009   6.754  11.521 -0.2485 -1.9566 -2.4066
  471MOL0     H63545   2.068   7.134  11.715  1.3972  1.7435  1.8002
  471MOL0     H63546   2.398   7.237  11.844  2.0510 -0.6647 -3.2599
  471MOL0     H63547   2.312   7.347  11.729 -1.4880 -1.5212 -2.4915
  471MOL0     H63548   2.223   7.272  11.857  0.1786 -0.1726 -0.0153
  471MOL0     H63549   2.781   7.179  11.825 -1.2678  1.6974 -1.6312
  471MOL0     H63550   3.047   7.200  11.819  1.3338 -0.8344 -1.5190
  471MOL0     H63551   3.243   7.060  11.434  1.8784  2.6615 -1.3667
  471MOL0     H63552   3.171   7.210  11.473 -1.3123 -1.0388 -0.1866
  471MOL0     H63553   3.369   7.267  11.614 -1.6696 -1.8597  0.6223
  471MOL0     H63554   3.437   7.119  11.572  4.8569  3.7063  1.7031
  471MOL0     H63555   3.409   7.355  11.368 -1.5884  0.4319  0.8899
  471MOL0     H63556   3.386   7.206  11.307 -1.4965  5.7497 -3.2360
  471MOL0     H63557   3.616   7.324  11.325 -1.4369  1.7451 -0.0523
  471MOL0     H63558   3.625   7.267  11.498 -2.6580  0.7434 -0.4319
  471MOL0     H63559   3.610   7.078  11.257  1.8925 -0.8062  0.0076
  471MOL0     H63560   3.620   7.026  11.421  0.3150 -0.9110 -0.5372
  471MOL0     H63561   3.834   7.105  11.252 -0.0457 -0.6589 -0.5841
  471MOL0     H63562   3.833   7.202  11.407 -3.3489 -0.3427  2.0746
  471MOL0     H63563   3.977   7.020  11.445 -0.1117  1.2431  1.1049
  471MOL0     H63564   3.863   6.908  11.383  1.2319  0.4009 -0.9720
  471MOL0     H63565   3.903   6.944  11.647  1.2749 -0.6209  0.0906
  471MOL0     H63566   3.735   6.937  11.600 -0.1908  0.1565 -1.0098
  471MOL0     H63567   3.035   6.963  11.479  2.1648  2.1308 -0.2119
  471MOL0     H63568   2.785   6.958  11.472  0.0598 -2.1049  1.4510
  471MOL0     H63569   2.463   6.940  11.501 -0.6936  0.6898 -1.7009
  471MOL0     H63570   2.223   6.866  11.431 -0.3338  3.2550 -3.4227
  471MOL0     H63571   2.293   6.956  10.941 -2.3906  1.3543 -1.5675
  471MOL0     H63572   2.482   7.057  11.026 -0.9132  0.5590 -0.5006
  471MOL0     H63573   2.885   7.158  11.276 -1.3793 -1.8538 -2.8497
  471MOL0     H63574   3.056   7.332  11.240 -1.5333 -3.0016 -0.1821
  471MOL0     H63575   3.150   7.505  11.267  0.1362  0.8376 -1.3301
  471MOL0     H63576   3.201   7.642  11.173 -0.9845  0.1367 -0.6563
  471MOL0     H63577   3.003   7.654  11.411  1.7846 -0.7602  2.4323
  471MOL0     H63578   3.062   7.794  11.313 -1.1491 -2.1290 -2.6425
  471MOL0     H63579   3.219   7.801  11.480 -0.9477 -0.4627  1.6932
  471MOL0     H63580   3.298   7.692  11.366 -0.4128  0.9779 -1.2298
  471MOL0     H63581   3.172   7.499  11.499  1.3572 -0.9056 -0.3398
  471MOL0     H63582   3.131   7.634  11.615 -3.6758 -3.9377 -1.0712
  471MOL0     H63583   3.547   7.572  11.674 -1.4140 -3.3270  3.7867
  471MOL0     H63584   2.757   7.604  11.114  2.4403 -1.1613 -1.6830
  471MOL0     H63585   2.578   7.425  11.144  0.7355  1.9831 -1.4289
  472MOL0     O63586   4.425   1.929   4.684 -0.4454 -0.1161 -0.0143
  472MOL0     C63587   4.440   1.851   4.776  0.4173 -0.9564  0.6606
  472MOL0     O63588   4.335   1.819   4.863  0.2705  0.0031 -0.2807
  472MOL0     C63589   4.206   1.864   4.838  0.4361 -0.4219  0.5107
  472MOL0     C63590   4.123   1.780   4.757 -0.1473 -0.0692 -0.7293
  472MOL0     C63591   3.987   1.812   4.753  0.0793  0.2265  0.3801
  472MOL0     C63592   3.925   1.919   4.813  0.9081  0.4623 -0.7706
  472MOL0     O63593   3.789   1.934   4.809  0.7174 -0.7558 -0.3536
  472MOL0     C63594   3.742   2.072   4.813  0.2901 -0.3893  0.2070
  472MOL0     C63595   3.600   2.097   4.776  0.2228 -0.4169  0.2301
  472MOL0     C63596   3.574   2.067   4.626  0.8204 -0.6470  0.0262
  472MOL0     C63597   3.428   2.096   4.593  0.1187  0.4536  0.6301
  472MOL0     C63598   3.315   2.009   4.643  0.1007  0.5065 -0.2423
  472MOL0     C63599   3.174   2.061   4.590 -0.1249 -1.2347 -0.1679
  472MOL0     C63600   3.143   2.024   4.438 -0.4659 -0.5621  0.0692
  472MOL0     C63601   3.050   2.116   4.375 -0.1137 -0.0542 -0.4980
  472MOL0     N63602   2.911   2.104   4.435 -0.4638 -0.2467 -0.2799
  472MOL0     C63603   2.863   2.184   4.539  0.2970 -0.2273  0.2995
  472MOL0     C63604   2.757   2.128   4.596 -0.4117  0.6242 -0.7978
  472MOL0     C63605   2.652   2.194   4.686 -0.5997  0.5184  0.0518
  472MOL0     C63606   2.592   2.318   4.610  0.4014  0.5218  0.8747
  472MOL0     C63607   2.493   2.399   4.689 -0.5670 -0.0563  0.1276
  472MOL0     C63608   2.538   2.439   4.832  0.9329  0.1304 -1.4367
  472MOL0     O63609   2.657   2.507   4.833  0.7531  0.1754 -0.9371
  472MOL0     C63610   2.692   2.562   4.947 -0.1923 -0.3387  0.9889
  472MOL0     C63611   2.611   2.594   5.060  0.0634  0.2620 -0.2982
  472MOL0     C63612   2.679   2.649   5.173 -0.2104 -0.4234 -0.0021
  472MOL0     C63613   2.594   2.680   5.290 -0.4461 -1.1868 -1.1861
  472MOL0     C63614   2.823   2.663   5.179  0.0391  0.7106 -0.3073
  472MOL0     C63615   2.892   2.725   5.298  0.0134  0.0001 -0.1594
  472MOL0     O63616   2.825   2.784   5.404  0.2678 -0.2895  0.6869
  472MOL0     C63617   2.902   2.800   5.518  0.6318 -0.5378 -0.4728
  472MOL0     C63618   2.938   2.690   5.600 -0.9533 -0.2081  0.0354
  472MOL0     C63619   3.019   2.724   5.710 -0.1578  0.0984  0.4380
  472MOL0     C63620   3.050   2.846   5.754 -0.3103 -0.1525 -0.6389
  472MOL0     O63621   3.126   2.850   5.868 -0.2165 -0.4004  0.3143
  472MOL0     C63622   3.197   2.967   5.894 -0.7071 -0.0239 -0.5550
  472MOL0     C63623   3.313   2.979   5.794 -0.7404  0.2793  0.1419
  472MOL0     C63624   3.413   3.089   5.825 -0.0866 -0.1212  0.1601
  472MOL0     C63625   3.527   3.044   5.920  0.3143  1.1293  0.6026
  472MOL0     C63626   3.634   3.152   5.945  0.4322 -0.1324 -0.1522
  472MOL0     C63627   3.739   3.166   5.831  0.5864  0.9401 -0.9507
  472MOL0     C63628   3.826   3.294   5.857  0.8580  0.0392  0.5926
  472MOL0     C63629   3.955   3.296   5.765 -0.7409 -0.2544 -1.1032
  472MOL0    Cl63630   4.066   3.424   5.813 -0.0747  0.2300 -0.5385
  472MOL0     C63631   3.001   2.954   5.681 -0.0479  0.3224  0.4207
  472MOL0     C63632   2.924   2.933   5.564 -0.3183 -0.3835  0.2656
  472MOL0     O63633   3.019   2.703   5.294 -0.3258  0.0429  0.1394
  472MOL0     C63634   2.895   2.622   5.060  0.2646  0.3541  0.0636
  472MOL0     C63635   2.834   2.588   4.943 -0.4830  0.3098  0.1571
  472MOL0     N63636   2.742   2.000   4.530 -0.4699 -0.4468  0.8628
  472MOL0     N63637   2.836   1.992   4.437 -0.5965  0.3552 -0.6098
  472MOL0     C63638   4.006   1.999   4.896  1.0843 -0.3043  0.5189
  472MOL0     C63639   4.144   1.967   4.904 -0.0722 -0.5881  0.6585
  472MOL0     C63640   4.574   1.776   4.796  0.8523  0.9832  1.0987
  472MOL0     C63641   4.689   1.808   4.723 -0.3295  0.2022  0.0804
  472MOL0     C63642   4.809   1.734   4.744  0.5028 -0.2993  0.8230
  472MOL0     C63643   4.810   1.622   4.822  0.0573 -0.5189 -0.0523
  472MOL0     O63644   4.932   1.566   4.847  0.2384 -0.0831  0.0514
  472MOL0     C63645   4.940   1.450   4.931  1.1747  0.1192  0.2038
  472MOL0     C63646   5.077   1.386   4.929 -0.7703  0.2080 -0.4833
  472MOL0     C63647   5.183   1.454   5.011 -0.1188  0.1370 -0.4408
  472MOL0     C63648   5.322   1.443   4.957 -0.3263  0.6459 -0.2071
  472MOL0     C63649   5.356   1.301   4.931  0.6848 -0.5559  0.0432
  472MOL0     C63650   5.387   1.185   4.901 -0.1826 -0.1564 -0.1329
  472MOL0     C63651   4.691   1.584   4.890 -0.3010 -0.2574  0.0029
  472MOL0     C63652   4.576   1.654   4.877 -0.1564  0.4342  0.2548
  472MOL0     H63653   4.170   1.703   4.696 -0.8493 -1.7315  0.7270
  472MOL0     H63654   3.925   1.747   4.693  0.1582 -1.9338  2.4891
  472MOL0     H63655   3.743   2.092   4.920  2.0910 -2.7606  0.7254
  472MOL0     H63656   3.805   2.132   4.747  1.1292  0.2149  1.5252
  472MOL0     H63657   3.538   2.024   4.829  0.2131 -0.3890  0.2564
  472MOL0     H63658   3.576   2.200   4.804  4.3191  1.2298 -1.5608
  472MOL0     H63659   3.642   2.135   4.575 -0.7111  1.2028  0.3554
  472MOL0     H63660   3.601   1.963   4.605  4.5986  0.0825  0.5549
  472MOL0     H63661   3.397   2.195   4.628 -2.3731  0.2912 -0.8383
  472MOL0     H63662   3.425   2.098   4.483 -3.2798 -1.8318  0.5087
  472MOL0     H63663   3.330   1.904   4.617 -1.7879  0.2390 -0.4462
  472MOL0     H63664   3.317   2.013   4.752  1.0016 -0.7155 -0.1867
  472MOL0     H63665   3.100   2.000   4.644 -0.2587 -1.5872 -0.7477
  472MOL0     H63666   3.149   2.165   4.614 -1.6683 -0.8626 -2.9593
  472MOL0     H63667   3.230   2.045   4.376 -0.8937  1.1565 -0.0094
  472MOL0     H63668   3.102   1.925   4.415 -1.3494 -0.6400  1.7749
  472MOL0     H63669   3.041   2.085   4.270 -3.6174 -1.9519  0.2175
  472MOL0     H63670   3.081   2.221   4.385  1.7102 -0.7824  2.7613
  472MOL0     H63671   2.900   2.283   4.563  0.2967  1.4103 -5.1121
  472MOL0     H63672   2.582   2.115   4.715  1.1460 -1.1973 -0.1446
  472MOL0     H63673   2.705   2.230   4.774  1.0026 -1.3044 -0.0835
  472MOL0     H63674   2.539   2.287   4.520 -2.9910  1.8553  2.2288
  472MOL0     H63675   2.669   2.388   4.574 -2.7101  6.1299  3.6778
  472MOL0     H63676   2.398   2.345   4.698 -1.0461  0.6558 -0.5084
  472MOL0     H63677   2.466   2.486   4.628 -3.4694 -0.9994 -0.0682
  472MOL0     H63678   2.548   2.346   4.889  0.6997 -0.2859 -2.0759
  472MOL0     H63679   2.458   2.497   4.879  1.1361  0.1503 -1.1139
  472MOL0     H63680   2.504   2.583   5.052  0.0883  0.7401 -1.6425
  472MOL0     H63681   2.493   2.647   5.268 -0.3169 -3.3888  1.1323
  472MOL0     H63682   2.625   2.620   5.376 -3.1118 -0.2439  0.5393
  472MOL0     H63683   2.601   2.787   5.314  0.2614 -1.2519 -1.0583
  472MOL0     H63684   2.921   2.584   5.582  1.6206 -1.1900  2.6243
  472MOL0     H63685   3.060   2.647   5.776 -3.2482 -0.7076  1.5854
  472MOL0     H63686   3.141   3.060   5.896 -1.1651 -0.3074 -0.0357
  472MOL0     H63687   3.238   2.944   5.993 -1.0875  2.1071  0.1388
  472MOL0     H63688   3.362   2.881   5.800 -2.3954 -0.6370 -0.8033
  472MOL0     H63689   3.265   3.001   5.699  0.6148 -0.6639 -0.7994
  472MOL0     H63690   3.352   3.171   5.865  0.2755 -0.7008  2.0011
  472MOL0     H63691   3.469   3.122   5.737  1.9326 -1.0793  1.0249
  472MOL0     H63692   3.482   3.031   6.019 -1.1059  1.0745 -0.0216
  472MOL0     H63693   3.582   2.960   5.878 -1.0213  0.5276  0.0129
  472MOL0     H63694   3.686   3.122   6.037  0.8684 -1.3165 -0.7536
  472MOL0     H63695   3.577   3.241   5.969  2.8801  1.4909  0.0426
  472MOL0     H63696   3.811   3.084   5.834 -1.2767 -0.8849 -3.0210
  472MOL0     H63697   3.683   3.149   5.739 -4.4366 -1.5476  2.1187
  472MOL0     H63698   3.854   3.303   5.962 -0.4191 -0.9125  1.0412
  472MOL0     H63699   3.764   3.383   5.841  1.0234 -0.1513 -1.3095
  472MOL0     H63700   3.929   3.307   5.659  3.8941  3.3012 -2.1980
  472MOL0     H63701   3.999   3.196   5.775 -0.2365  0.0714  0.0202
  472MOL0     H63702   3.010   3.055   5.720 -0.8398 -0.5509  3.1159
  472MOL0     H63703   2.867   3.004   5.505 -1.3079 -0.7657  0.7480
  472MOL0     H63704   3.003   2.625   5.064  0.4944 -0.5539 -3.1430
  472MOL0     H63705   2.896   2.554   4.860 -1.1036  1.0613 -0.6247
  472MOL0     H63706   3.954   2.068   4.963 -1.0290 -3.3789  2.2857
  472MOL0     H63707   4.207   2.022   4.974 -0.9169 -1.1485  1.9040
  472MOL0     H63708   4.687   1.875   4.637  1.3186 -2.4662 -2.2304
  472MOL0     H63709   4.891   1.771   4.683 -0.1729  1.0906  0.7083
  472MOL0     H63710   4.913   1.471   5.035  3.0789 -1.8049  1.1763
  472MOL0     H63711   4.869   1.374   4.898 -1.8815  3.0244 -0.4183
  472MOL0     H63712   5.122   1.379   4.829 -0.7392 -1.2376 -0.3908
  472MOL0     H63713   5.073   1.282   4.963 -2.1722  0.4058  0.0265
  472MOL0     H63714   5.173   1.420   5.115 -1.2624 -0.4591 -0.7332
  472MOL0     H63715   5.156   1.560   5.015 -1.5948 -0.1155 -2.3937
  472MOL0     H63716   5.399   1.483   5.024 -0.8509 -2.5655  2.6544
  472MOL0     H63717   5.318   1.511   4.872 -1.4878  0.8109 -0.0292
  472MOL0     H63718   5.387   1.079   4.886 -1.3077  0.0987 -2.3829
  472MOL0     H63719   4.694   1.496   4.954  3.2580 -0.4984 -0.2751
  472MOL0     H63720   4.495   1.623   4.943  0.0668  2.3964  1.5355
  473MOL0     O63721   0.495   7.775   6.656  0.4968 -0.5091  0.3802
  473MOL0     C63722   0.551   7.714   6.564 -0.9826 -0.2049 -0.1105
  473MOL0     O63723   0.499   7.673   6.442 -0.2920 -1.3025  0.1313
  473MOL0     C63724   0.363   7.696   6.418 -0.0759 -0.5645 -0.1663
  473MOL0     C63725   0.271   7.632   6.491 -0.7895 -0.0975  0.2307
  473MOL0     C63726   0.142   7.677   6.469  0.3250 -0.0576 -0.2762
  473MOL0     C63727   0.113   7.780   6.377 -0.1566 -0.0998 -0.3113
  473MOL0     O63728  -0.009   7.828   6.367  1.3203  1.0746 -0.2398
  473MOL0     C63729  -0.025   7.971   6.387 -0.2269  0.2300  0.0317
  473MOL0     C63730  -0.150   8.007   6.469  0.1720  0.7413  0.5646
  473MOL0     C63731  -0.263   7.912   6.444 -1.0624 -0.3795  0.1519
  473MOL0     C63732  -0.403   7.982   6.466 -0.1790  0.5795  0.2476
  473MOL0     C63733  -0.521   7.886   6.495  0.0849  0.0326 -0.6987
  473MOL0     C63734  -0.642   7.972   6.476 -1.1978 -0.3742  0.3606
  473MOL0     C63735  -0.767   7.893   6.501  0.1348 -0.5043 -0.2359
  473MOL0     C63736  -0.801   7.792   6.397  1.0862  0.2534  0.6135
  473MOL0     N63737  -0.945   7.750   6.419  0.1254 -0.0933 -0.6051
  473MOL0     C63738  -0.995   7.673   6.517  0.8970 -0.5060  0.8061
  473MOL0     C63739  -1.117   7.634   6.478  0.4163  0.7200 -0.3735
  473MOL0     C63740  -1.218   7.546   6.563  0.4905 -1.2550  0.1541
  473MOL0     C63741  -1.359   7.592   6.549  0.8164 -0.4994 -0.6507
  473MOL0     C63742  -1.457   7.497   6.617  0.8131  0.6532 -0.0948
  473MOL0     C63743  -1.605   7.514   6.578  0.7696  0.8271  0.4842
  473MOL0     O63744  -1.668   7.457   6.697 -0.3166  0.5840  0.1192
  473MOL0     C63745  -1.805   7.442   6.706 -0.2161  0.2422 -0.2963
  473MOL0     C63746  -1.888   7.468   6.592 -0.5683  0.7247  0.6427
  473MOL0     C63747  -2.021   7.477   6.600  0.4927  0.3030 -0.2475
  473MOL0     C63748  -2.083   7.499   6.471  0.1183  0.2181  0.1714
  473MOL0     C63749  -2.078   7.451   6.732 -0.1124 -0.0528 -0.5685
  473MOL0     C63750  -2.225   7.448   6.757  0.3794 -0.3918  0.4976
  473MOL0     O63751  -2.291   7.337   6.715  0.3792  0.2652 -0.4878
  473MOL0     C63752  -2.432   7.311   6.735  0.0733 -0.7927 -0.7203
  473MOL0     C63753  -2.504   7.374   6.841  0.4496 -0.4029 -1.2824
  473MOL0     C63754  -2.633   7.333   6.867  0.3259 -0.1075  0.0308
  473MOL0     C63755  -2.703   7.249   6.777  0.0846  0.7184  0.1031
  473MOL0     O63756  -2.841   7.225   6.788 -0.4960 -0.3532 -0.0627
  473MOL0     C63757  -2.875   7.142   6.895 -0.6449 -0.5423  1.0475
  473MOL0     C63758  -3.026   7.151   6.938  0.1114 -0.1323  0.3016
  473MOL0     C63759  -3.123   7.091   6.822 -0.4134  0.7224 -0.2673
  473MOL0     C63760  -3.146   6.941   6.853 -0.8087 -0.5703 -0.3423
  473MOL0     C63761  -3.251   6.887   6.755  0.6089 -0.3926 -1.2033
  473MOL0     C63762  -3.266   6.739   6.780  0.2976 -0.3826  0.1891
  473MOL0     C63763  -3.356   6.657   6.680  1.2090 -0.5378  0.0675
  473MOL0     C63764  -3.374   6.511   6.731  0.4330  0.1083  0.4928
  473MOL0    Cl63765  -3.217   6.427   6.731  0.0854 -0.0812 -0.1933
  473MOL0     C63766  -2.631   7.198   6.671 -0.0584  0.2575  0.1003
  473MOL0     C63767  -2.501   7.221   6.654 -0.3482  0.2145 -0.4094
  473MOL0     O63768  -2.274   7.549   6.814 -0.3504  0.2010  0.7688
  473MOL0     C63769  -1.997   7.418   6.848  0.0657  0.0779 -0.6105
  473MOL0     C63770  -1.861   7.413   6.825  0.9039  0.0090  0.1039
  473MOL0     N63771  -1.135   7.685   6.347  0.2836  0.2560  0.0821
  473MOL0     N63772  -1.029   7.745   6.313  0.8787  0.8450  0.0522
  473MOL0     C63773   0.214   7.845   6.306  1.2562 -1.3465  0.0202
  473MOL0     C63774   0.342   7.799   6.327 -0.0253 -0.2174 -0.3394
  473MOL0     C63775   0.701   7.689   6.588  0.0877  0.7364  0.0498
  473MOL0     C63776   0.752   7.734   6.710 -0.0411 -1.3958  0.1311
  473MOL0     C63777   0.886   7.723   6.732 -0.2219 -0.7726 -0.4354
  473MOL0     C63778   0.965   7.660   6.638  0.4607 -0.0554 -0.8175
  473MOL0     O63779   1.100   7.661   6.665 -0.8172 -0.3505 -0.3574
  473MOL0     C63780   1.186   7.767   6.613  0.6815 -0.3312  0.2678
  473MOL0     C63781   1.257   7.726   6.481  1.0350 -0.8101 -1.0122
  473MOL0     C63782   1.398   7.798   6.459  0.2042 -0.0231 -0.1699
  473MOL0     C63783   1.460   7.754   6.323  0.5724 -0.4344 -0.1268
  473MOL0     C63784   1.605   7.762   6.317  0.3638  0.2906  0.3838
  473MOL0     C63785   1.727   7.756   6.307 -0.4562  0.0824  1.1646
  473MOL0     C63786   0.910   7.606   6.526 -0.6341  0.9463  0.3795
  473MOL0     C63787   0.784   7.618   6.498  0.4739  0.3276  0.0037
  473MOL0     H63788   0.280   7.554   6.566  1.3795 -1.5501 -1.4401
  473MOL0     H63789   0.064   7.636   6.532 -1.3223 -0.2946 -2.3501
  473MOL0     H63790   0.057   8.017   6.443 -2.7980  4.2065  0.9890
  473MOL0     H63791  -0.019   8.010   6.285  1.6570 -3.8626 -1.6351
  473MOL0     H63792  -0.139   8.002   6.578 -1.1550  1.3725  0.7496
  473MOL0     H63793  -0.180   8.110   6.446  2.5582  1.3040 -0.2902
  473MOL0     H63794  -0.263   7.877   6.340 -2.0868 -1.0126  0.3517
  473MOL0     H63795  -0.244   7.824   6.505 -0.1880 -1.2364 -1.3144
  473MOL0     H63796  -0.382   8.050   6.549  0.5226  1.4862 -0.6402
  473MOL0     H63797  -0.416   8.046   6.378  4.9918  3.0966  0.9458
  473MOL0     H63798  -0.516   7.805   6.422  1.1682 -0.0961 -0.4956
  473MOL0     H63799  -0.512   7.842   6.594 -0.2559  0.6032 -0.4064
  473MOL0     H63800  -0.633   8.049   6.554  1.0406 -2.2524  2.1242
  473MOL0     H63801  -0.639   8.011   6.375  3.9638  0.8612  0.7376
  473MOL0     H63802  -0.758   7.839   6.595  1.1050 -3.7371 -2.0549
  473MOL0     H63803  -0.847   7.966   6.521  1.9158  0.7490  3.0679
  473MOL0     H63804  -0.744   7.699   6.402 -0.3979 -0.6953  0.5331
  473MOL0     H63805  -0.786   7.833   6.297  1.9093 -1.6530 -0.0898
  473MOL0     H63806  -0.940   7.659   6.610 -0.4961  1.7590  2.0653
  473MOL0     H63807  -1.197   7.443   6.531  2.6395 -1.4166  1.8366
  473MOL0     H63808  -1.199   7.555   6.670 -0.7712 -0.2399  0.3189
  473MOL0     H63809  -1.385   7.597   6.443  1.2045  0.0116 -0.7284
  473MOL0     H63810  -1.373   7.692   6.590 -2.6714 -1.2796  0.4097
  473MOL0     H63811  -1.445   7.506   6.725  0.9110 -0.5787  0.0132
  473MOL0     H63812  -1.433   7.391   6.602 -1.6652 -0.0943  0.7626
  473MOL0     H63813  -1.644   7.480   6.481 -1.0980  5.0377 -0.4533
  473MOL0     H63814  -1.631   7.619   6.560 -0.5759  0.2034 -1.5943
  473MOL0     H63815  -1.847   7.472   6.492 -2.9303 -0.9292 -0.4928
  473MOL0     H63816  -2.192   7.500   6.487  0.2576 -0.5325  1.3268
  473MOL0     H63817  -2.048   7.592   6.425  1.2764 -0.7380 -0.9219
  473MOL0     H63818  -2.065   7.414   6.405  0.3038 -0.3591  0.9496
  473MOL0     H63819  -2.468   7.451   6.909 -3.3751 -0.5618  1.2619
  473MOL0     H63820  -2.692   7.376   6.947 -1.2877 -3.5798  0.9235
  473MOL0     H63821  -2.849   7.038   6.870 -0.8465 -0.4308  0.3420
  473MOL0     H63822  -2.819   7.164   6.986 -0.8508  2.3928  0.5464
  473MOL0     H63823  -3.045   7.096   7.031  0.0230 -0.9143 -0.1677
  473MOL0     H63824  -3.059   7.255   6.947  3.0687  0.7927  1.8028
  473MOL0     H63825  -3.064   7.104   6.730  0.2063  4.7308  0.5025
  473MOL0     H63826  -3.215   7.150   6.817  0.2247  1.8301  0.6233
  473MOL0     H63827  -3.051   6.887   6.857 -0.4177 -0.3306 -3.7720
  473MOL0     H63828  -3.201   6.938   6.948 -0.1212  3.4216  0.3785
  473MOL0     H63829  -3.217   6.903   6.653  1.9922  1.5462 -0.5009
  473MOL0     H63830  -3.348   6.937   6.765  0.2595 -1.4414  1.9027
  473MOL0     H63831  -3.170   6.687   6.783 -1.4081 -3.8612 -0.1690
  473MOL0     H63832  -3.312   6.720   6.877  1.1933 -0.9874  0.5086
  473MOL0     H63833  -3.313   6.666   6.580  0.4500  1.1941 -0.1371
  473MOL0     H63834  -3.455   6.699   6.665  0.6597 -1.7767  0.0660
  473MOL0     H63835  -3.438   6.455   6.662  0.1231 -2.4823  2.7088
  473MOL0     H63836  -3.429   6.510   6.825 -3.5694 -0.0731 -1.6237
  473MOL0     H63837  -2.672   7.127   6.600 -2.5685  2.5378 -0.8735
  473MOL0     H63838  -2.455   7.190   6.561  2.1184  2.9559 -0.2666
  473MOL0     H63839  -2.031   7.408   6.950  4.0642 -1.4972  0.7436
  473MOL0     H63840  -1.802   7.382   6.911  1.6299  2.1017  0.4208
  473MOL0     H63841   0.183   7.914   6.228  0.6344 -0.9533  0.6058
  473MOL0     H63842   0.423   7.845   6.271  1.5611 -0.5886  1.5715
  473MOL0     H63843   0.688   7.788   6.779 -1.7613 -2.5834 -0.4523
  473MOL0     H63844   0.934   7.770   6.818 -0.6637 -0.6471 -0.2543
  473MOL0     H63845   1.124   7.852   6.583 -0.8290 -1.5767 -0.2695
  473MOL0     H63846   1.256   7.794   6.693 -0.2159 -1.1604  1.3730
  473MOL0     H63847   1.192   7.757   6.399  0.3250  4.1409  1.0728
  473MOL0     H63848   1.271   7.617   6.487 -0.4550 -0.9535  1.0270
  473MOL0     H63849   1.473   7.764   6.531  0.7526 -3.6823 -2.2262
  473MOL0     H63850   1.396   7.907   6.472  0.1193 -0.0958  0.4849
  473MOL0     H63851   1.425   7.819   6.242 -1.1132  1.6022  2.1067
  473MOL0     H63852   1.440   7.649   6.299 -0.1914 -0.5399  0.9156
  473MOL0     H63853   1.831   7.740   6.288 -0.9156 -0.0047 -1.8235
  473MOL0     H63854   0.971   7.558   6.449  1.3945  3.9016 -0.0010
  473MOL0     H63855   0.730   7.582   6.411 -1.0338  0.3264  0.8972
  474MOL0     O63856   6.394   8.829   7.893  0.7532  0.8518  0.3324
  474MOL0     C63857   6.395   8.948   7.888  0.1893  0.2185  0.6419
  474MOL0     O63858   6.282   9.032   7.851  0.5494  0.2782 -0.1329
  474MOL0     C63859   6.163   8.981   7.823  0.6991 -0.0988  0.2880
  474MOL0     C63860   6.108   8.864   7.882 -0.5217  0.8425  0.0573
  474MOL0     C63861   5.982   8.827   7.855  0.5910 -0.1182 -1.0014
  474MOL0     C63862   5.904   8.899   7.758  0.0170  0.7633 -0.4224
  474MOL0     O63863   5.775   8.867   7.723  0.1950  0.0945  0.9077
  474MOL0     C63864   5.728   8.748   7.781  0.4526  0.1674 -0.2270
  474MOL0     C63865   5.579   8.721   7.746 -0.7332 -0.4798 -0.4868
  474MOL0     C63866   5.477   8.786   7.842  1.1030  0.0273 -0.4265
  474MOL0     C63867   5.333   8.763   7.801  0.1510  0.0349  0.7677
  474MOL0     C63868   5.225   8.829   7.876  0.1193  0.1425 -0.6537
  474MOL0     C63869   5.089   8.798   7.817  0.4863  0.2227  0.2182
  474MOL0     C63870   5.065   8.873   7.676 -0.7959  0.0744  0.0627
  474MOL0     C63871   4.941   8.800   7.610 -0.3385 -0.6915  0.0550
  474MOL0     N63872   4.831   8.795   7.705 -0.1564  0.0140  0.6850
  474MOL0     C63873   4.787   8.669   7.740  0.0817 -0.6596 -0.8854
  474MOL0     C63874   4.693   8.703   7.832  0.0525 -0.0021 -0.8227
  474MOL0     C63875   4.617   8.607   7.931 -0.0071  0.1203 -0.1968
  474MOL0     C63876   4.459   8.613   7.923  0.1834  0.5717  0.5018
  474MOL0     C63877   4.399   8.585   7.777  0.5228  0.6051  0.1370
  474MOL0     C63878   4.449   8.456   7.700 -0.4313  0.0766  0.6014
  474MOL0     O63879   4.398   8.466   7.568  0.4075  0.3511 -0.0268
  474MOL0     C63880   4.272   8.432   7.532  1.0225 -0.5521 -0.3341
  474MOL0     C63881   4.203   8.326   7.586  0.7754  0.1458  0.1690
  474MOL0     C63882   4.077   8.280   7.537  0.0791 -0.3300 -0.2747
  474MOL0     C63883   4.020   8.148   7.598  0.5291  0.5131  0.1971
  474MOL0     C63884   4.014   8.347   7.429 -0.4015  0.7189  0.0896
  474MOL0     C63885   3.889   8.302   7.355  0.1203 -1.0328 -0.2236
  474MOL0     O63886   3.837   8.380   7.265  0.0216  0.1122 -0.2907
  474MOL0     C63887   3.758   8.324   7.161 -0.7607 -0.0378  0.8633
  474MOL0     C63888   3.644   8.390   7.126 -0.2743 -0.3296 -0.2532
  474MOL0     C63889   3.572   8.335   7.021  0.5566  0.0865  0.3151
  474MOL0     C63890   3.609   8.220   6.952  0.7204  0.6661  0.1266
  474MOL0     O63891   3.522   8.177   6.852 -0.1791 -0.4154  0.7879
  474MOL0     C63892   3.586   8.127   6.730  0.0054  0.1477 -0.4152
  474MOL0     C63893   3.519   7.990   6.705  0.9456 -0.6684 -0.3318
  474MOL0     C63894   3.578   7.881   6.793 -1.0007  0.3002  0.3184
  474MOL0     C63895   3.525   7.744   6.726  0.4042  0.5966 -0.1151
  474MOL0     C63896   3.537   7.630   6.826 -0.9642 -0.2619 -0.4902
  474MOL0     C63897   3.478   7.495   6.776  0.1029 -0.5095 -0.0909
  474MOL0     C63898   3.433   7.409   6.896  0.1530 -0.1908  0.1235
  474MOL0     C63899   3.543   7.344   6.969 -0.1840  0.1487  0.2304
  474MOL0    Cl63900   3.501   7.233   7.105  0.2345 -0.3072 -0.0077
  474MOL0     C63901   3.725   8.154   6.990 -0.2933 -0.8071 -0.7799
  474MOL0     C63902   3.798   8.201   7.098  0.2493 -0.2719  0.3446
  474MOL0     O63903   3.847   8.190   7.389  0.2602  0.1878  0.2976
  474MOL0     C63904   4.091   8.456   7.373  0.5110  0.7769 -0.5487
  474MOL0     C63905   4.216   8.497   7.423  0.7125  0.2587  0.2257
  474MOL0     N63906   4.680   8.836   7.840  0.5972  0.2919 -0.9335
  474MOL0     N63907   4.762   8.895   7.761  0.4223  0.9745  0.2718
  474MOL0     C63908   5.955   9.008   7.696 -0.2603  0.0546  0.8228
  474MOL0     C63909   6.085   9.055   7.735  0.5612  0.5172 -0.6827
  474MOL0     C63910   6.526   9.026   7.898  0.0946  1.3257 -0.2326
  474MOL0     C63911   6.514   9.157   7.937  0.5281 -0.4669  0.4630
  474MOL0     C63912   6.635   9.220   7.957  0.7076 -0.4996 -0.4213
  474MOL0     C63913   6.762   9.165   7.949 -0.3054  0.3365  0.7611
  474MOL0     O63914   6.885   9.228   7.966 -0.5406  0.0900  0.2633
  474MOL0     C63915   6.897   9.376   7.981 -0.2156  0.8710 -0.4301
  474MOL0     C63916   6.866   9.458   7.860  0.4277 -0.4461 -0.4869
  474MOL0     C63917   6.940   9.405   7.741 -0.6051 -0.0919 -0.9784
  474MOL0     C63918   6.927   9.495   7.621 -1.8221  0.2621 -1.0395
  474MOL0     C63919   7.001   9.618   7.638 -0.7226  0.3730  0.2276
  474MOL0     C63920   7.078   9.710   7.648  0.4396 -0.3396  0.1481
  474MOL0     C63921   6.766   9.028   7.901  0.5300 -0.4763  0.3072
  474MOL0     C63922   6.651   8.956   7.894  0.9406  0.5848  0.0995
  474MOL0     H63923   6.165   8.805   7.955  0.6237  2.2447  0.3494
  474MOL0     H63924   5.944   8.748   7.920 -2.3776  1.0060 -1.2101
  474MOL0     H63925   5.780   8.657   7.750 -1.6473 -1.0049 -0.5579
  474MOL0     H63926   5.730   8.757   7.890 -3.0693 -1.6118  0.1269
  474MOL0     H63927   5.554   8.732   7.640  2.0556 -2.1229 -1.4206
  474MOL0     H63928   5.565   8.615   7.768 -1.3889 -0.9671 -3.0090
  474MOL0     H63929   5.497   8.739   7.939  3.5083 -1.3524 -1.4952
  474MOL0     H63930   5.483   8.894   7.855  0.0926  0.3265 -2.1696
  474MOL0     H63931   5.321   8.811   7.703 -3.6467 -0.6336  0.7462
  474MOL0     H63932   5.317   8.657   7.778  2.6723  0.2958 -3.1145
  474MOL0     H63933   5.219   8.788   7.977 -4.4816 -3.3380 -1.9919
  474MOL0     H63934   5.238   8.938   7.868 -0.0480  0.0221 -4.7487
  474MOL0     H63935   5.087   8.690   7.798 -0.0682  0.0574  1.1431
  474MOL0     H63936   5.018   8.829   7.894 -0.1907  0.2326 -0.4058
  474MOL0     H63937   5.054   8.980   7.695  2.8805  1.1100 -2.6199
  474MOL0     H63938   5.146   8.876   7.603 -0.0776 -2.3813  0.6532
  474MOL0     H63939   4.982   8.702   7.583 -1.5371 -0.1946 -4.4153
  474MOL0     H63940   4.922   8.855   7.517 -0.2016 -0.4010  0.1973
  474MOL0     H63941   4.833   8.579   7.701 -0.6652 -0.8664 -1.2957
  474MOL0     H63942   4.650   8.506   7.906 -0.3536 -0.3139  1.0348
  474MOL0     H63943   4.640   8.623   8.036 -3.2868  1.2502  0.4615
  474MOL0     H63944   4.412   8.709   7.946  0.8309  1.4368 -1.5281
  474MOL0     H63945   4.423   8.532   7.988  2.5800 -0.1687  0.9897
  474MOL0     H63946   4.425   8.678   7.724  2.1407  1.6902  2.6334
  474MOL0     H63947   4.291   8.589   7.796  0.8570  2.0713  2.0259
  474MOL0     H63948   4.409   8.368   7.753  0.8246 -1.1897 -0.4879
  474MOL0     H63949   4.557   8.445   7.711 -0.2553  0.7098 -0.4341
  474MOL0     H63950   4.255   8.258   7.653 -0.3305 -0.9139 -0.0169
  474MOL0     H63951   3.991   8.074   7.523  2.0587  1.2076 -1.1407
  474MOL0     H63952   4.100   8.091   7.647  0.3836 -1.0196 -1.2735
  474MOL0     H63953   3.944   8.174   7.673 -2.0470  0.2956 -2.1451
  474MOL0     H63954   3.613   8.479   7.180 -4.6658 -1.3586 -0.7173
  474MOL0     H63955   3.487   8.391   6.981  0.6710  1.3346  1.7286
  474MOL0     H63956   3.568   8.188   6.641 -0.2391 -0.4489 -0.7830
  474MOL0     H63957   3.694   8.120   6.738 -0.1113 -1.2695  6.5423
  474MOL0     H63958   3.413   8.000   6.729  0.8233  0.0453 -1.1210
  474MOL0     H63959   3.536   7.963   6.601 -1.5528 -2.4579 -0.3686
  474MOL0     H63960   3.546   7.898   6.896  0.5458  2.1704  0.5539
  474MOL0     H63961   3.687   7.884   6.793 -0.9303  0.9914  3.3427
  474MOL0     H63962   3.418   7.766   6.717  0.4838  1.8250  1.6105
  474MOL0     H63963   3.566   7.722   6.626 -2.1300 -1.2136 -0.8732
  474MOL0     H63964   3.485   7.649   6.920 -0.5592  1.2764 -0.5568
  474MOL0     H63965   3.644   7.613   6.841 -0.8651 -0.7400 -1.6730
  474MOL0     H63966   3.382   7.517   6.729 -1.4863 -1.7422  2.3281
  474MOL0     H63967   3.546   7.449   6.704  0.9369  0.0503  0.3228
  474MOL0     H63968   3.368   7.329   6.859 -2.3501  1.7466  0.1031
  474MOL0     H63969   3.364   7.463   6.961 -1.4479 -2.3246  0.3047
  474MOL0     H63970   3.617   7.420   6.999 -0.2886  0.8356 -1.1710
  474MOL0     H63971   3.601   7.281   6.901 -0.6416 -1.3136  1.1646
  474MOL0     H63972   3.753   8.060   6.943 -0.4976 -1.9406  1.2416
  474MOL0     H63973   3.886   8.151   7.136 -0.5215 -0.1330  2.4793
  474MOL0     H63974   4.053   8.506   7.285 -0.4489 -1.7680 -1.6693
  474MOL0     H63975   4.276   8.573   7.374  0.9550 -1.7419 -2.8119
  474MOL0     H63976   5.898   9.072   7.630 -1.2221  0.2272  1.7832
  474MOL0     H63977   6.124   9.148   7.694 -1.6838  0.5853 -2.9213
  474MOL0     H63978   6.421   9.214   7.942  0.3144 -0.5766 -1.3800
  474MOL0     H63979   6.639   9.326   7.978  2.4473 -0.5187 -0.4928
  474MOL0     H63980   6.835   9.402   8.068  0.5476  1.3843 -0.0317
  474MOL0     H63981   7.002   9.400   7.999 -0.4715  0.5093  1.7730
  474MOL0     H63982   6.898   9.560   7.882 -1.6388 -0.0791  1.1517
  474MOL0     H63983   6.757   9.464   7.850  0.4861  0.9370 -0.3874
  474MOL0     H63984   6.903   9.308   7.704 -2.4113  0.0908  0.2038
  474MOL0     H63985   7.047   9.397   7.762 -0.6201  1.3279 -0.2425
  474MOL0     H63986   6.821   9.516   7.600 -2.6900  0.8941  3.1595
  474MOL0     H63987   6.960   9.431   7.539  0.6809 -0.2833  0.3066
  474MOL0     H63988   7.142   9.795   7.660  1.5618 -0.6936 -2.6099
  474MOL0     H63989   6.857   8.981   7.867  1.0996  2.0891 -2.0421
  474MOL0     H63990   6.659   8.850   7.870 -1.4437 -0.0320  1.7046
  475MOL0     O63991   5.853   3.015   1.501  0.0287 -1.0634  0.5742
  475MOL0     C63992   5.930   3.065   1.582 -0.4221  0.3458  0.4819
  475MOL0     O63993   5.918   3.068   1.712  0.8606 -0.6261 -0.2599
  475MOL0     C63994   5.808   3.034   1.777  0.2161 -0.4406  0.8741
  475MOL0     C63995   5.684   3.078   1.729 -0.5867 -0.2719 -0.5127
  475MOL0     C63996   5.566   3.034   1.785  0.3849  0.9261  0.1662
  475MOL0     C63997   5.568   2.952   1.898 -0.1168  0.4947  0.0369
  475MOL0     O63998   5.443   2.929   1.953 -0.7340  0.1870  0.0596
  475MOL0     C63999   5.433   2.813   2.036  0.5885  0.7446 -0.2483
  475MOL0     C64000   5.292   2.747   2.031  0.0527  0.0716  0.2052
  475MOL0     C64001   5.178   2.835   2.085  0.2174  0.6146  0.2811
  475MOL0     C64002   5.047   2.761   2.055  0.0233 -0.2713 -0.1963
  475MOL0     C64003   5.030   2.645   2.147 -0.9841  0.3833  0.3057
  475MOL0     C64004   4.895   2.574   2.136  0.0675 -0.0489  0.2634
  475MOL0     C64005   4.885   2.497   2.003 -0.1714 -0.1563 -0.4803
  475MOL0     C64006   4.750   2.415   2.000  0.5632  0.5808 -0.2467
  475MOL0     N64007   4.638   2.508   2.012 -0.6157  0.3150  0.2076
  475MOL0     C64008   4.627   2.625   1.947 -0.1382 -0.2296  0.1867
  475MOL0     C64009   4.542   2.701   2.023  0.8748 -0.4579  0.2923
  475MOL0     C64010   4.503   2.845   1.998  0.1239  0.5506  0.2173
  475MOL0     C64011   4.603   2.940   2.062 -1.1117 -0.9930 -0.3279
  475MOL0     C64012   4.570   3.093   2.034 -0.3426  0.1673 -0.4828
  475MOL0     C64013   4.427   3.131   2.069  0.2846  0.0940 -0.5688
  475MOL0     O64014   4.421   3.121   2.212  0.3343 -0.6504  0.1652
  475MOL0     C64015   4.317   3.179   2.279 -0.9726 -1.1543  0.0415
  475MOL0     C64016   4.313   3.158   2.416  0.1485 -0.0802 -0.8111
  475MOL0     C64017   4.205   3.182   2.503 -0.3612  0.0171  0.3334
  475MOL0     C64018   4.224   3.146   2.647  0.2612  0.8241 -0.8660
  475MOL0     C64019   4.100   3.257   2.450 -0.5818 -0.4603  0.4647
  475MOL0     C64020   3.977   3.291   2.522  0.0280 -0.5124 -0.1607
  475MOL0     O64021   3.885   3.370   2.456  0.1911 -0.1424 -0.2137
  475MOL0     C64022   3.752   3.398   2.492 -0.3345 -0.3797  0.0097
  475MOL0     C64023   3.688   3.492   2.410 -0.1038  0.1100 -0.4218
  475MOL0     C64024   3.558   3.532   2.452 -0.6732  0.1878  0.3136
  475MOL0     C64025   3.495   3.466   2.554  0.0712  0.9673  0.5407
  475MOL0     O64026   3.368   3.512   2.558 -0.2963  0.4789  0.5763
  475MOL0     C64027   3.285   3.459   2.652  0.2386 -0.2391  1.0543
  475MOL0     C64028   3.142   3.525   2.631  0.0070 -0.1788  0.2443
  475MOL0     C64029   3.065   3.494   2.499 -0.1368 -0.9277  0.3054
  475MOL0     C64030   2.930   3.579   2.481 -0.3903  0.7632 -0.5967
  475MOL0     C64031   2.860   3.516   2.361  0.2272 -0.6959  0.2526
  475MOL0     C64032   2.736   3.594   2.316  0.9685 -1.7211 -0.5048
  475MOL0     C64033   2.674   3.507   2.209  0.1907 -0.0113  0.0338
  475MOL0     C64034   2.568   3.589   2.131 -0.6778  0.1950 -0.2934
  475MOL0    Cl64035   2.458   3.675   2.244  0.1130 -0.2833  0.2295
  475MOL0     C64036   3.561   3.369   2.633 -0.0212 -0.4255  0.4054
  475MOL0     C64037   3.689   3.337   2.605  0.2612 -0.1996 -0.5875
  475MOL0     O64038   3.961   3.268   2.644 -0.1748 -0.0694 -0.5263
  475MOL0     C64039   4.110   3.296   2.310 -0.3197 -0.4459 -0.0451
  475MOL0     C64040   4.213   3.260   2.226 -0.1108  0.6995 -1.1432
  475MOL0     N64041   4.494   2.624   2.124  0.3358  0.5575 -0.6443
  475MOL0     N64042   4.552   2.509   2.116 -0.5207 -0.5721 -0.4610
  475MOL0     C64043   5.693   2.902   1.936 -0.6662  0.2355 -0.4575
  475MOL0     C64044   5.812   2.948   1.883  0.2764  0.3193 -0.3121
  475MOL0     C64045   6.057   3.110   1.529 -1.6097 -0.3918 -0.2896
  475MOL0     C64046   6.159   3.161   1.608 -0.0391 -0.6142 -0.8596
  475MOL0     C64047   6.285   3.207   1.555  0.1028 -0.4209  0.2294
  475MOL0     C64048   6.306   3.198   1.415  0.2132  0.3464 -0.3190
  475MOL0     O64049   6.412   3.229   1.342 -0.6824  0.6924 -0.2770
  475MOL0     C64050   6.529   3.268   1.411  1.0071 -0.1522  0.4605
  475MOL0     C64051   6.639   3.305   1.296  0.2500  1.0931 -0.7391
  475MOL0     C64052   6.780   3.329   1.361  0.3145  0.7791 -0.3115
  475MOL0     C64053   6.848   3.202   1.411 -0.8840  0.7862  0.1537
  475MOL0     C64054   6.992   3.228   1.430 -0.8019  0.3869  0.3578
  475MOL0     C64055   7.109   3.239   1.459 -0.1675 -0.9832  0.8052
  475MOL0     C64056   6.199   3.150   1.334 -0.4912  0.5928 -0.4148
  475MOL0     C64057   6.081   3.108   1.391 -0.1000 -0.8867 -0.0201
  475MOL0     H64058   5.682   3.148   1.646 -1.7124  0.0455 -0.2400
  475MOL0     H64059   5.480   3.083   1.739  0.8622 -0.2691 -2.1501
  475MOL0     H64060   5.502   2.736   2.001 -0.8896 -0.1513 -1.2900
  475MOL0     H64061   5.450   2.845   2.140 -2.2758 -0.3306  0.6397
  475MOL0     H64062   5.271   2.736   1.924 -1.2648  1.1161  0.3306
  475MOL0     H64063   5.293   2.647   2.074 -0.5291 -0.2422 -0.4896
  475MOL0     H64064   5.195   2.851   2.192  0.5669  2.0524  0.0283
  475MOL0     H64065   5.174   2.926   2.024  4.9305  0.7772 -0.1657
  475MOL0     H64066   4.966   2.833   2.064  1.6958  1.6193  0.6809
  475MOL0     H64067   5.048   2.724   1.952  5.2136 -0.9855 -0.1891
  475MOL0     H64068   5.111   2.575   2.129  0.0695  1.7275 -0.4216
  475MOL0     H64069   5.039   2.690   2.246 -4.5344  4.5145 -0.9154
  475MOL0     H64070   4.883   2.506   2.221 -1.3421  1.4418  1.3101
  475MOL0     H64071   4.812   2.644   2.142 -0.9912 -1.3903  2.4581
  475MOL0     H64072   4.891   2.567   1.919  0.4434 -1.9229 -1.9648
  475MOL0     H64073   4.976   2.437   1.998  2.2988  2.8053  3.2476
  475MOL0     H64074   4.733   2.345   2.082 -3.6067 -2.1867 -3.0815
  475MOL0     H64075   4.741   2.360   1.906  3.2041  0.8971 -0.7543
  475MOL0     H64076   4.687   2.658   1.863 -1.7852 -0.2254 -1.0319
  475MOL0     H64077   4.494   2.872   1.892  1.0175  3.7999  0.8355
  475MOL0     H64078   4.404   2.846   2.043 -0.8206  1.2516 -1.7458
  475MOL0     H64079   4.699   2.919   2.014 -1.3333  0.8236 -1.6926
  475MOL0     H64080   4.602   2.920   2.170 -1.4366  1.8072  0.2633
  475MOL0     H64081   4.566   3.122   1.929 -0.8823  1.1677 -0.1996
  475MOL0     H64082   4.633   3.168   2.084 -0.9498 -0.2073  0.9015
  475MOL0     H64083   4.355   3.069   2.015  0.4915  0.6013 -1.4470
  475MOL0     H64084   4.407   3.237   2.050 -5.8930 -0.6176 -0.1853
  475MOL0     H64085   4.386   3.086   2.451  0.4318 -0.4495 -2.1189
  475MOL0     H64086   4.306   3.075   2.662 -0.3911  0.3558  0.6500
  475MOL0     H64087   4.242   3.228   2.717  0.7073 -0.9118  1.1538
  475MOL0     H64088   4.128   3.102   2.674 -0.5553  0.5343 -3.8134
  475MOL0     H64089   3.743   3.535   2.328 -0.9467  2.9121  0.3664
  475MOL0     H64090   3.506   3.607   2.393  1.2556  1.4179  0.1019
  475MOL0     H64091   3.283   3.352   2.632  3.2269 -0.0721 -0.8001
  475MOL0     H64092   3.332   3.479   2.749  0.3139 -0.0370  0.9765
  475MOL0     H64093   3.068   3.486   2.701  0.7969 -0.8137  0.7365
  475MOL0     H64094   3.150   3.634   2.641 -1.6290 -0.1848  2.0002
  475MOL0     H64095   3.034   3.389   2.503 -1.3304 -0.5423  2.0057
  475MOL0     H64096   3.136   3.506   2.416 -2.2017  0.0152 -1.4170
  475MOL0     H64097   2.863   3.578   2.567  0.2505  1.5746 -0.0786
  475MOL0     H64098   2.949   3.686   2.465 -0.0366  0.8043  0.0798
  475MOL0     H64099   2.844   3.409   2.375 -1.7754 -0.6212 -1.1064
  475MOL0     H64100   2.935   3.540   2.284 -1.2621  3.2679 -0.1951
  475MOL0     H64101   2.663   3.611   2.396 -1.1030 -1.2327 -2.3791
  475MOL0     H64102   2.763   3.696   2.287 -0.5973 -0.8950  0.8039
  475MOL0     H64103   2.622   3.418   2.246 -0.2056 -0.6357 -1.8778
  475MOL0     H64104   2.751   3.481   2.136  1.3573 -1.0531  1.5738
  475MOL0     H64105   2.520   3.508   2.075  1.2972 -1.3952  0.2028
  475MOL0     H64106   2.622   3.655   2.063  2.0881 -1.4427  0.1664
  475MOL0     H64107   3.510   3.313   2.711 -0.5241 -1.8112 -0.8740
  475MOL0     H64108   3.737   3.250   2.649 -1.1694  0.0065  1.5798
  475MOL0     H64109   4.027   3.356   2.273  0.0439  0.1037  0.0180
  475MOL0     H64110   4.211   3.291   2.122  1.2398 -0.2837 -1.4963
  475MOL0     H64111   5.711   2.823   2.009  3.0595  2.0330  0.8038
  475MOL0     H64112   5.910   2.906   1.902  0.1130 -1.7270 -3.2087
  475MOL0     H64113   6.163   3.171   1.716  1.6715  2.3921 -1.0793
  475MOL0     H64114   6.364   3.242   1.620  0.7275  1.2493 -1.3165
  475MOL0     H64115   6.500   3.353   1.473 -0.2769  1.1125 -1.7494
  475MOL0     H64116   6.564   3.189   1.478  1.6452  0.6284  1.0737
  475MOL0     H64117   6.612   3.392   1.235  0.5710  1.6397 -0.1289
  475MOL0     H64118   6.637   3.215   1.235  0.3290  0.4745  0.1551
  475MOL0     H64119   6.769   3.400   1.443 -2.2777 -2.0724  2.0399
  475MOL0     H64120   6.846   3.370   1.284  0.9988 -0.3739 -0.3712
  475MOL0     H64121   6.840   3.122   1.337  3.3707 -0.6665  0.9689
  475MOL0     H64122   6.801   3.177   1.506  0.4667  0.7752  0.8376
  475MOL0     H64123   7.210   3.265   1.481 -0.7814  2.2123  0.3956
  475MOL0     H64124   6.211   3.144   1.226  3.0764 -0.2412 -0.1082
  475MOL0     H64125   5.999   3.086   1.324 -1.5076  1.9832  0.5776
  476MOL0     O64126  10.062   3.105   8.253  0.4172  0.0950 -0.5307
  476MOL0     C64127  10.079   3.073   8.369  1.1869 -0.2616 -0.1050
  476MOL0     O64128   9.984   3.016   8.452 -0.2181  0.0686  0.2552
  476MOL0     C64129   9.872   2.966   8.393  0.2260  0.4238 -0.6246
  476MOL0     C64130   9.837   2.834   8.444 -0.8906 -0.2392  0.4703
  476MOL0     C64131   9.716   2.778   8.405  0.0453  0.8497  0.0047
  476MOL0     C64132   9.624   2.858   8.341  0.4463 -0.0431 -0.6333
  476MOL0     O64133   9.502   2.793   8.332  1.1365 -0.2814  0.4728
  476MOL0     C64134   9.377   2.877   8.316 -0.0679  0.4086  0.1172
  476MOL0     C64135   9.269   2.802   8.253  0.4764 -0.0163 -0.5569
  476MOL0     C64136   9.136   2.871   8.262  1.1519  0.2829 -0.3633
  476MOL0     C64137   9.030   2.770   8.218 -0.3246  0.8029 -0.5696
  476MOL0     C64138   8.900   2.826   8.179 -0.5314 -0.1374 -0.1395
  476MOL0     C64139   8.789   2.714   8.199  0.3049 -0.4882 -0.2021
  476MOL0     C64140   8.809   2.596   8.104 -0.3396 -0.4323  0.7601
  476MOL0     C64141   8.699   2.496   8.123  0.2719 -0.4233 -0.0539
  476MOL0     N64142   8.557   2.546   8.127  0.0025 -1.0498  0.2294
  476MOL0     C64143   8.489   2.579   8.007 -0.4811 -0.4904  0.6126
  476MOL0     C64144   8.377   2.640   8.046  0.2810 -0.6372  0.4104
  476MOL0     C64145   8.264   2.683   7.955 -1.1277 -0.1437 -0.6377
  476MOL0     C64146   8.198   2.565   7.890  0.5353  0.7461  0.0394
  476MOL0     C64147   8.149   2.586   7.743 -0.6806 -0.0830  0.6195
  476MOL0     C64148   8.014   2.651   7.725  0.1854 -0.2924 -0.1947
  476MOL0     O64149   8.006   2.774   7.795  0.1999 -0.1338 -0.0493
  476MOL0     C64150   7.879   2.834   7.795 -0.1062  0.2495  0.1399
  476MOL0     C64151   7.764   2.790   7.730  0.2226  1.7351  0.5427
  476MOL0     C64152   7.642   2.840   7.749  0.9667 -0.3348  0.6928
  476MOL0     C64153   7.523   2.787   7.671 -0.1512 -0.4097 -0.6616
  476MOL0     C64154   7.628   2.942   7.836  0.7376 -0.9657 -0.0033
  476MOL0     C64155   7.500   2.990   7.878 -0.3195 -0.4677 -0.1946
  476MOL0     O64156   7.487   3.128   7.873 -0.0638 -0.1299 -1.0174
  476MOL0     C64157   7.398   3.196   7.947  0.1817 -0.4405  0.1866
  476MOL0     C64158   7.297   3.274   7.891  0.8392 -0.8899  0.1044
  476MOL0     C64159   7.186   3.318   7.959  0.9288  1.0209  0.7987
  476MOL0     C64160   7.175   3.297   8.097  0.5473  0.2790 -0.1417
  476MOL0     O64161   7.081   3.350   8.186 -0.4062  0.5565  0.1485
  476MOL0     C64162   6.952   3.378   8.142  0.7874 -0.5848 -0.1521
  476MOL0     C64163   6.864   3.420   8.263  0.5149 -1.0156  0.0073
  476MOL0     C64164   6.802   3.556   8.256  0.3674 -0.0722 -0.2544
  476MOL0     C64165   6.738   3.588   8.395  0.2861  0.1734  0.6807
  476MOL0     C64166   6.624   3.684   8.379 -0.4320 -0.6868  0.2036
  476MOL0     C64167   6.655   3.833   8.375  0.1192  0.6714 -0.0910
  476MOL0     C64168   6.532   3.923   8.367 -0.0420 -0.0753 -0.5272
  476MOL0     C64169   6.570   4.069   8.396 -0.1148 -0.4764 -0.2467
  476MOL0    Cl64170   6.634   4.143   8.248 -0.2961  0.1979  0.0654
  476MOL0     C64171   7.281   3.231   8.157 -0.6817 -0.8758  0.0018
  476MOL0     C64172   7.392   3.179   8.087 -0.3419  0.8457  1.0678
  476MOL0     O64173   7.418   2.914   7.924  0.1653 -0.0634 -0.4775
  476MOL0     C64174   7.738   2.995   7.902 -0.4199 -0.4568  0.0428
  476MOL0     C64175   7.864   2.940   7.878 -0.3495 -0.0689  0.3186
  476MOL0     N64176   8.377   2.640   8.187  0.7958  0.2028 -0.3584
  476MOL0     N64177   8.489   2.591   8.233  0.4123  0.7339 -0.4007
  476MOL0     C64178   9.656   2.991   8.302  0.3640  0.5676  1.4568
  476MOL0     C64179   9.783   3.042   8.322  0.9105  0.3316 -0.3774
  476MOL0     C64180  10.216   3.106   8.423 -0.1560  0.4002  0.3464
  476MOL0     C64181  10.237   3.106   8.560 -0.8866 -0.4694 -0.3222
  476MOL0     C64182  10.369   3.146   8.613  0.6971  0.9700  0.3755
  476MOL0     C64183  10.466   3.191   8.526 -0.6532  0.0815 -0.0761
  476MOL0     O64184  10.583   3.247   8.577 -0.0013 -0.1220 -0.1799
  476MOL0     C64185  10.684   3.294   8.489  0.2242 -0.0202 -0.0441
  476MOL0     C64186  10.815   3.308   8.562 -0.8134 -0.5472  0.0717
  476MOL0     C64187  10.938   3.309   8.469 -0.3577 -0.3503  0.2322
  476MOL0     C64188  11.065   3.335   8.555 -1.1311 -0.0867  0.5424
  476MOL0     C64189  11.194   3.338   8.477 -0.0281 -1.3193 -0.4295
  476MOL0     C64190  11.304   3.339   8.424 -0.6919 -0.1166  0.7327
  476MOL0     C64191  10.441   3.189   8.389  0.4088  0.2695  0.1415
  476MOL0     C64192  10.318   3.137   8.340  0.4207 -0.2241 -0.4683
  476MOL0     H64193   9.910   2.765   8.484 -1.9351 -0.8475  1.3740
  476MOL0     H64194   9.694   2.675   8.433  0.3404  0.9430  0.5980
  476MOL0     H64195   9.334   2.904   8.413 -0.2164  1.5950 -0.2546
  476MOL0     H64196   9.398   2.973   8.267 -1.8955  0.9693  0.3554
  476MOL0     H64197   9.305   2.797   8.150  2.3760  0.7197  0.0164
  476MOL0     H64198   9.268   2.701   8.297  1.1407  0.0512 -0.3675
  476MOL0     H64199   9.112   2.902   8.365  2.1410 -0.2019  0.0228
  476MOL0     H64200   9.124   2.960   8.200 -2.0740 -0.1892 -0.5929
  476MOL0     H64201   9.072   2.718   8.131  3.5714  1.9159  0.4471
  476MOL0     H64202   9.012   2.693   8.293 -3.2928  0.0725 -1.8831
  476MOL0     H64203   8.876   2.909   8.245 -3.2703 -1.2570  0.3820
  476MOL0     H64204   8.898   2.870   8.079 -0.6410  1.1756  0.4298
  476MOL0     H64205   8.793   2.675   8.301  0.0568  0.9022  0.3529
  476MOL0     H64206   8.691   2.763   8.200  0.8006  0.5449  1.4518
  476MOL0     H64207   8.793   2.636   8.004 -0.6725  0.3303  1.1150
  476MOL0     H64208   8.909   2.553   8.112 -0.6236 -1.1275  0.6151
  476MOL0     H64209   8.725   2.439   8.213  1.1115 -0.0326 -0.0421
  476MOL0     H64210   8.714   2.429   8.037  2.7635  0.5112 -0.4308
  476MOL0     H64211   8.528   2.563   7.907  0.8342  0.0613  1.0133
  476MOL0     H64212   8.198   2.744   8.017  1.4726  0.9727  1.2149
  476MOL0     H64213   8.314   2.743   7.878  1.8014 -0.7785  0.6357
  476MOL0     H64214   8.125   2.518   7.957 -0.6415  2.6111  0.1400
  476MOL0     H64215   8.277   2.491   7.875 -0.3171  0.0330 -1.0285
  476MOL0     H64216   8.137   2.489   7.694 -2.9062 -0.5725  2.0056
  476MOL0     H64217   8.215   2.653   7.687  1.1638 -0.5586  2.1119
  476MOL0     H64218   7.941   2.576   7.756 -1.2130  1.1685  0.1307
  476MOL0     H64219   8.004   2.670   7.618  1.1816  1.1468 -0.0582
  476MOL0     H64220   7.783   2.711   7.659  2.2199  0.2375  2.5811
  476MOL0     H64221   7.435   2.853   7.670 -1.8830 -2.6128 -0.4699
  476MOL0     H64222   7.550   2.764   7.568 -1.7146  1.4739 -1.5699
  476MOL0     H64223   7.483   2.702   7.727 -2.0625 -2.7643 -5.1129
  476MOL0     H64224   7.323   3.293   7.788 -1.0088 -2.5534 -0.7461
  476MOL0     H64225   7.108   3.377   7.911 -1.8631 -2.1195  1.0483
  476MOL0     H64226   6.954   3.458   8.067  0.5479 -0.6335 -0.2099
  476MOL0     H64227   6.915   3.289   8.089 -0.4095  1.0263 -2.2009
  476MOL0     H64228   6.781   3.350   8.280  1.4270 -1.8041  1.4443
  476MOL0     H64229   6.932   3.424   8.348  2.2248 -2.4822 -1.2157
  476MOL0     H64230   6.726   3.554   8.177 -0.7249  1.8118  0.6710
  476MOL0     H64231   6.880   3.627   8.228  1.1948 -1.0721 -0.5472
  476MOL0     H64232   6.713   3.494   8.445 -2.2971 -0.2211 -1.1528
  476MOL0     H64233   6.813   3.614   8.470  1.4784  2.5245 -1.1792
  476MOL0     H64234   6.564   3.683   8.471 -1.8839 -1.3036 -0.7168
  476MOL0     H64235   6.564   3.650   8.294 -0.4036  0.1759 -0.1682
  476MOL0     H64236   6.709   3.850   8.469  0.8176  0.1989 -0.3923
  476MOL0     H64237   6.720   3.852   8.289  3.7789 -1.2258  1.9957
  476MOL0     H64238   6.453   3.888   8.434  2.3314  2.1276  3.8240
  476MOL0     H64239   6.494   3.908   8.266 -2.1300 -2.3834  0.5077
  476MOL0     H64240   6.644   4.078   8.475 -0.6792  2.7801  0.0527
  476MOL0     H64241   6.482   4.128   8.424  0.7871 -0.1019  1.9724
  476MOL0     H64242   7.292   3.220   8.264 -2.3134  2.9993  0.7276
  476MOL0     H64243   7.475   3.132   8.139 -0.1148  0.9969  0.8389
  476MOL0     H64244   7.728   3.074   7.976  1.3501  1.0867 -1.2681
  476MOL0     H64245   7.948   2.985   7.930  0.4153  0.1657 -1.0569
  476MOL0     H64246   9.582   3.056   8.256  0.4631  0.1932  0.7557
  476MOL0     H64247   9.799   3.148   8.309 -0.1556  1.3012  4.4358
  476MOL0     H64248  10.159   3.070   8.627  0.6194 -1.1883  1.1223
  476MOL0     H64249  10.387   3.145   8.720  1.7699  1.3418  0.2077
  476MOL0     H64250  10.708   3.216   8.416 -0.7142 -2.2283  1.8849
  476MOL0     H64251  10.646   3.386   8.442 -1.6067 -1.4580 -1.5162
  476MOL0     H64252  10.825   3.225   8.634 -0.7054 -1.9375 -1.4834
  476MOL0     H64253  10.812   3.405   8.613  0.4016 -0.1272 -0.6168
  476MOL0     H64254  10.906   3.383   8.396 -2.4946 -1.8781 -0.4775
  476MOL0     H64255  10.948   3.211   8.421  0.2215  0.0012 -0.3899
  476MOL0     H64256  11.071   3.252   8.626 -0.4408  0.2726  0.9170
  476MOL0     H64257  11.072   3.420   8.623 -1.4852 -1.3755  2.2718
  476MOL0     H64258  11.399   3.360   8.380 -1.2421  1.5637  0.2767
  476MOL0     H64259  10.507   3.214   8.307 -0.8620 -1.7050 -1.5962
  476MOL0     H64260  10.307   3.131   8.232  0.7732 -0.2133 -0.5052
  477MOL0     O64261   6.163   8.780   5.405  0.0468 -0.6586  0.7762
  477MOL0     C64262   6.229   8.791   5.510  1.0480 -0.0824  0.9697
  477MOL0     O64263   6.175   8.753   5.631 -0.2551  0.1050 -0.2991
  477MOL0     C64264   6.048   8.697   5.627  1.0771 -0.3072 -0.4483
  477MOL0     C64265   6.040   8.569   5.573 -0.6294  0.8257 -0.6754
  477MOL0     C64266   5.919   8.497   5.574  0.2720  0.3848 -0.0810
  477MOL0     C64267   5.807   8.550   5.637 -0.2134 -0.1430 -0.6044
  477MOL0     O64268   5.680   8.491   5.629 -0.7036 -0.3682  0.1034
  477MOL0     C64269   5.654   8.374   5.706  0.2209  0.0716 -0.2085
  477MOL0     C64270   5.499   8.360   5.704  0.3393  0.6945  1.2787
  477MOL0     C64271   5.421   8.474   5.772 -0.3241 -0.3858 -0.1805
  477MOL0     C64272   5.463   8.498   5.921  0.5367 -0.7880 -0.6267
  477MOL0     C64273   5.363   8.592   5.991  0.2097 -0.1023 -0.0864
  477MOL0     C64274   5.233   8.521   6.035 -0.0629  0.7888  0.0861
  477MOL0     C64275   5.154   8.619   6.131 -0.2760  1.1444 -0.4603
  477MOL0     C64276   5.038   8.535   6.188  0.1759 -0.7162 -0.2299
  477MOL0     N64277   4.955   8.630   6.255  0.5396 -0.6347  0.0222
  477MOL0     C64278   4.818   8.627   6.235  0.4928  0.4187 -1.1579
  477MOL0     C64279   4.769   8.727   6.313  0.2628  0.9745 -0.1043
  477MOL0     C64280   4.621   8.748   6.329  0.1839 -0.0421  0.0331
  477MOL0     C64281   4.545   8.772   6.197 -1.0804  0.2287 -0.4705
  477MOL0     C64282   4.395   8.777   6.234 -0.5011  0.0426  0.1290
  477MOL0     C64283   4.309   8.769   6.102 -0.3436  0.2291  0.1100
  477MOL0     O64284   4.361   8.698   5.996  0.9535 -0.2618  0.4010
  477MOL0     C64285   4.266   8.635   5.909  0.0226  0.3861  0.0162
  477MOL0     C64286   4.306   8.526   5.833 -0.9287  0.9214 -0.1132
  477MOL0     C64287   4.220   8.454   5.751 -0.0332 -0.8553  0.3346
  477MOL0     C64288   4.272   8.332   5.696  0.0038  0.3316  0.8998
  477MOL0     C64289   4.084   8.500   5.750 -0.3567  0.4422 -0.2133
  477MOL0     C64290   3.990   8.433   5.656  0.0276 -0.7903 -0.5356
  477MOL0     O64291   3.996   8.298   5.649  1.0334  0.0273  0.3815
  477MOL0     C64292   3.913   8.233   5.561 -0.5485 -0.3141  0.6304
  477MOL0     C64293   3.927   8.267   5.423 -0.0836 -0.4090 -0.3044
  477MOL0     C64294   3.847   8.213   5.323 -0.6765 -0.0461  0.5972
  477MOL0     C64295   3.737   8.132   5.357 -0.3399  0.6932  0.1577
  477MOL0     O64296   3.636   8.100   5.270  0.7043 -0.3550  0.0201
  477MOL0     C64297   3.635   8.140   5.129  0.4263  0.1832 -0.6489
  477MOL0     C64298   3.483   8.158   5.090  0.4103  0.1749 -0.5072
  477MOL0     C64299   3.434   8.293   5.127 -0.1226  0.3023 -0.1253
  477MOL0     C64300   3.290   8.306   5.074 -0.8975 -0.1273 -0.3210
  477MOL0     C64301   3.243   8.449   5.113  0.4125 -0.1714  0.4809
  477MOL0     C64302   3.090   8.466   5.114  0.6968 -0.4791 -0.4853
  477MOL0     C64303   3.063   8.608   5.161  0.7198  0.6074  0.5374
  477MOL0     C64304   2.921   8.655   5.120  0.9524  0.4234  0.0858
  477MOL0    Cl64305   2.871   8.820   5.187  0.1727  0.3222 -0.6634
  477MOL0     C64306   3.724   8.089   5.492  0.1023 -0.8822  0.3834
  477MOL0     C64307   3.814   8.141   5.589 -0.2030  0.4467 -0.4690
  477MOL0     O64308   3.903   8.506   5.614  0.6191 -0.2297 -0.0892
  477MOL0     C64309   4.045   8.609   5.820  0.1930 -0.6801  0.3542
  477MOL0     C64310   4.142   8.680   5.889 -0.2473 -0.5775 -0.7452
  477MOL0     N64311   4.879   8.795   6.380  0.5226  0.7877  0.1607
  477MOL0     N64312   4.989   8.734   6.340  0.0591  0.4753  0.7362
  477MOL0     C64313   5.815   8.682   5.687  0.2866  0.8631 -0.3181
  477MOL0     C64314   5.933   8.752   5.677 -0.9373  0.0183  0.4784
  477MOL0     C64315   6.359   8.856   5.508 -0.6519 -0.3126  0.1507
  477MOL0     C64316   6.442   8.849   5.627 -0.3823 -0.3350 -0.3595
  477MOL0     C64317   6.563   8.922   5.635 -0.7811 -0.7055  0.4001
  477MOL0     C64318   6.604   9.004   5.527 -0.6203 -0.6689 -0.0084
  477MOL0     O64319   6.716   9.076   5.529 -1.3445  0.3049 -0.9334
  477MOL0     C64320   6.832   8.998   5.500  0.4313 -0.4844 -0.6676
  477MOL0     C64321   6.858   9.011   5.344 -0.6937  0.2155  0.2985
  477MOL0     C64322   6.999   8.952   5.324 -0.2108  0.5708  0.3130
  477MOL0     C64323   7.032   8.958   5.167 -0.2013 -0.1998  0.8232
  477MOL0     C64324   7.168   8.907   5.155  0.0054 -0.3323  0.4275
  477MOL0     C64325   7.279   8.864   5.149 -0.0367  0.0075 -0.3112
  477MOL0     C64326   6.509   9.020   5.429 -0.4958 -0.0730  1.1261
  477MOL0     C64327   6.392   8.952   5.406  0.5941  0.2593  0.1771
  477MOL0     H64328   6.133   8.534   5.531 -0.9333  1.6057 -2.0816
  477MOL0     H64329   5.921   8.398   5.530 -0.8382  0.8304 -1.1981
  477MOL0     H64330   5.713   8.291   5.669  1.7731  0.2765  1.6169
  477MOL0     H64331   5.674   8.384   5.813  1.4690 -2.0886 -0.1989
  477MOL0     H64332   5.453   8.350   5.606 -0.6970  1.9672  1.6137
  477MOL0     H64333   5.486   8.262   5.752  4.2640 -1.6958 -1.9575
  477MOL0     H64334   5.449   8.567   5.722  4.5952 -0.3410  2.0779
  477MOL0     H64335   5.314   8.451   5.765 -0.7382  1.8003 -2.1358
  477MOL0     H64336   5.461   8.405   5.979  0.1491 -0.4066 -0.0227
  477MOL0     H64337   5.564   8.537   5.940 -0.1300  1.0874 -0.7411
  477MOL0     H64338   5.400   8.633   6.086 -2.1669  0.8811  0.4965
  477MOL0     H64339   5.342   8.676   5.925 -0.7110 -0.4081 -0.1921
  477MOL0     H64340   5.179   8.493   5.945  1.4659  1.0931 -0.9611
  477MOL0     H64341   5.258   8.436   6.100  1.0442  1.2410  0.2837
  477MOL0     H64342   5.213   8.650   6.217 -0.2334 -1.6656  0.6076
  477MOL0     H64343   5.115   8.705   6.075 -0.3249  0.6055 -1.2735
  477MOL0     H64344   5.075   8.463   6.262 -0.1819 -1.4316 -0.7243
  477MOL0     H64345   4.975   8.485   6.114  0.6088 -0.2518 -0.9178
  477MOL0     H64346   4.762   8.557   6.174  0.5155 -1.1437  0.5076
  477MOL0     H64347   4.586   8.657   6.379  0.1223 -1.7801 -2.9293
  477MOL0     H64348   4.601   8.837   6.389  2.6026  1.9915 -1.9141
  477MOL0     H64349   4.576   8.684   6.141 -0.7882 -0.0694  0.1545
  477MOL0     H64350   4.570   8.864   6.143 -1.8964  0.6159 -0.2002
  477MOL0     H64351   4.365   8.870   6.283 -3.4801 -1.1174  0.7306
  477MOL0     H64352   4.357   8.703   6.304 -1.4376  0.5644  0.1853
  477MOL0     H64353   4.288   8.872   6.073  3.2693  0.6914 -1.3023
  477MOL0     H64354   4.217   8.722   6.141 -2.1902  2.9089 -0.7398
  477MOL0     H64355   4.409   8.491   5.826 -1.1196 -0.1452  1.7755
  477MOL0     H64356   4.255   8.249   5.766 -1.6252 -2.3134 -2.3383
  477MOL0     H64357   4.226   8.309   5.599  0.4956  1.7453  0.3077
  477MOL0     H64358   4.378   8.342   5.673 -0.9053  1.0864 -4.0592
  477MOL0     H64359   4.017   8.325   5.403 -1.9821  3.9161  2.3784
  477MOL0     H64360   3.872   8.229   5.218 -0.6969  1.1343  0.7525
  477MOL0     H64361   3.688   8.236   5.121  3.1941 -1.1162  0.7554
  477MOL0     H64362   3.685   8.064   5.067  3.1463  0.9771  0.4450
  477MOL0     H64363   3.462   8.137   4.984 -0.1260 -1.5818 -0.0968
  477MOL0     H64364   3.433   8.077   5.144  0.9419 -1.6016 -2.5368
  477MOL0     H64365   3.503   8.367   5.087 -0.6130  2.5480  2.8244
  477MOL0     H64366   3.433   8.320   5.234 -0.2857  0.4391 -0.1605
  477MOL0     H64367   3.288   8.280   4.968 -0.4488  0.2909 -0.4372
  477MOL0     H64368   3.225   8.242   5.134  1.4148  0.4073  3.0291
  477MOL0     H64369   3.282   8.519   5.038  2.5073 -1.3721  0.3518
  477MOL0     H64370   3.297   8.484   5.202  2.6299 -0.0245 -0.8470
  477MOL0     H64371   3.054   8.454   5.011  1.1091  1.4139 -0.8823
  477MOL0     H64372   3.036   8.391   5.174  1.2644 -2.2244 -2.0445
  477MOL0     H64373   3.124   8.686   5.116 -1.7978  1.9326 -0.7916
  477MOL0     H64374   3.069   8.607   5.270  0.7419 -3.3139  0.6272
  477MOL0     H64375   2.854   8.580   5.165 -0.4056  2.1457  1.0898
  477MOL0     H64376   2.908   8.634   5.014  0.2888 -5.1888  0.9206
  477MOL0     H64377   3.636   8.033   5.522 -0.3581  0.0501  0.8075
  477MOL0     H64378   3.802   8.111   5.693 -0.2754 -4.3750 -1.6339
  477MOL0     H64379   3.946   8.653   5.827  1.8938  3.6954 -0.2597
  477MOL0     H64380   4.109   8.769   5.942 -1.0820 -0.6030 -1.2045
  477MOL0     H64381   5.723   8.728   5.724 -0.3812 -0.9475  0.4292
  477MOL0     H64382   5.926   8.857   5.704  3.5083  0.4189  0.8542
  477MOL0     H64383   6.406   8.795   5.713 -0.4179 -1.2813 -0.9624
  477MOL0     H64384   6.622   8.912   5.726 -0.8453  1.0501  0.6781
  477MOL0     H64385   6.915   9.034   5.562 -0.0710 -1.2131  0.4493
  477MOL0     H64386   6.829   8.893   5.528  0.3746 -0.8747 -2.0588
  477MOL0     H64387   6.851   9.112   5.304 -0.0949  0.0775 -0.1801
  477MOL0     H64388   6.787   8.947   5.290 -1.1300 -0.8723  2.0730
  477MOL0     H64389   7.004   8.849   5.360  1.5803 -0.5778 -2.8093
  477MOL0     H64390   7.071   8.998   5.393 -0.6131  3.6075 -1.1241
  477MOL0     H64391   7.037   9.055   5.117  0.9658 -0.9768 -0.6622
  477MOL0     H64392   6.970   8.888   5.110  1.6747  0.9537 -3.0283
  477MOL0     H64393   7.383   8.842   5.133 -0.2464 -0.5359 -0.9892
  477MOL0     H64394   6.519   9.095   5.352 -1.8229 -0.8353  0.1647
  477MOL0     H64395   6.329   8.974   5.320 -2.0059 -0.2667  1.8237
  478MOL0     O64396   6.014   6.994   5.969 -0.5645  0.2405 -0.0518
  478MOL0     C64397   6.020   7.110   5.978 -0.6031  0.3632  0.1653
  478MOL0     O64398   5.949   7.179   6.074 -0.4527 -0.3700 -0.4229
  478MOL0     C64399   5.822   7.124   6.103 -0.2000 -1.2924  0.1777
  478MOL0     C64400   5.786   7.072   6.230  0.4273 -0.1917 -0.4801
  478MOL0     C64401   5.655   7.018   6.250 -0.5567 -0.7517  0.9435
  478MOL0     C64402   5.555   7.011   6.149 -0.6917  1.2024  0.9092
  478MOL0     O64403   5.428   6.975   6.170  0.0976  0.0282  0.0794
  478MOL0     C64404   5.402   6.868   6.270 -0.3252  0.2202 -1.0943
  478MOL0     C64405   5.267   6.804   6.229 -0.4344 -0.4244 -0.0826
  478MOL0     C64406   5.269   6.711   6.109  0.6406 -0.0002 -0.4534
  478MOL0     C64407   5.129   6.656   6.092 -0.6978 -0.1513  0.8342
  478MOL0     C64408   5.124   6.545   5.981 -1.2454 -0.7205 -0.5395
  478MOL0     C64409   4.980   6.526   5.923 -0.1484  0.2521  0.8213
  478MOL0     C64410   4.862   6.495   6.018  0.2712 -0.1152 -0.8578
  478MOL0     C64411   4.729   6.466   5.949 -0.3636  0.3378  0.1817
  478MOL0     N64412   4.611   6.464   6.039  0.4370  0.1028  0.7448
  478MOL0     C64413   4.582   6.558   6.136 -0.1521 -0.2858  0.7001
  478MOL0     C64414   4.453   6.522   6.169  0.1179 -0.3022 -0.6945
  478MOL0     C64415   4.367   6.597   6.270  0.1750 -0.1709 -0.2770
  478MOL0     C64416   4.401   6.576   6.418 -0.2404 -0.3509  0.3863
  478MOL0     C64417   4.429   6.433   6.462 -0.9073 -0.6164  0.0918
  478MOL0     C64418   4.315   6.337   6.438 -0.2711 -0.7767  0.3831
  478MOL0     O64419   4.190   6.378   6.492  0.2077 -0.2052  0.4378
  478MOL0     C64420   4.086   6.292   6.503  0.0499 -0.9971  0.2393
  478MOL0     C64421   3.990   6.326   6.597  0.6645  0.5061  0.2872
  478MOL0     C64422   3.878   6.239   6.619 -0.8242  0.2794 -0.1431
  478MOL0     C64423   3.767   6.309   6.683  0.9082  0.5129 -0.1449
  478MOL0     C64424   3.879   6.098   6.575 -0.9985 -0.7512 -0.1408
  478MOL0     C64425   3.780   5.998   6.634  0.0978 -0.1030 -0.6613
  478MOL0     O64426   3.710   6.031   6.743 -0.4684  0.5087 -0.3947
  478MOL0     C64427   3.582   5.983   6.768 -0.4513  0.3599  0.8064
  478MOL0     C64428   3.543   6.008   6.899 -0.4943  0.7934 -0.1087
  478MOL0     C64429   3.421   5.965   6.941  0.4309  0.5951 -0.3863
  478MOL0     C64430   3.331   5.882   6.865  0.1372 -0.7111 -0.5341
  478MOL0     O64431   3.205   5.841   6.903  0.0923  0.1359  0.1870
  478MOL0     C64432   3.113   5.944   6.950 -0.8463  0.5607 -0.1067
  478MOL0     C64433   2.984   5.867   6.978 -0.1306 -0.5260 -0.2444
  478MOL0     C64434   2.874   5.968   7.015 -0.0504 -0.1258 -0.0690
  478MOL0     C64435   2.748   5.906   7.078  0.4643  0.2960  0.5389
  478MOL0     C64436   2.632   6.007   7.074 -0.1896  0.2619 -0.1071
  478MOL0     C64437   2.518   5.970   7.170  0.4568 -0.0513 -0.4063
  478MOL0     C64438   2.401   6.068   7.181 -0.0248  0.2069  0.5322
  478MOL0     C64439   2.452   6.193   7.256  0.6080 -0.1992  0.1575
  478MOL0    Cl64440   2.312   6.308   7.252 -0.4741  0.0828  0.1764
  478MOL0     C64441   3.377   5.854   6.733 -0.1072 -0.3545  0.8705
  478MOL0     C64442   3.498   5.903   6.687 -0.1265  0.3487 -0.4791
  478MOL0     O64443   3.783   5.886   6.595 -0.3348 -0.5427 -0.2480
  478MOL0     C64444   3.982   6.072   6.485 -0.9553  0.5242  0.3651
  478MOL0     C64445   4.085   6.159   6.452 -0.2508 -0.4031  1.2511
  478MOL0     N64446   4.406   6.418   6.088 -0.1519 -0.2317 -0.8056
  478MOL0     N64447   4.503   6.388   6.008  0.4713 -0.2916 -0.6859
  478MOL0     C64448   5.595   7.055   6.018  0.6861  0.4050 -0.8975
  478MOL0     C64449   5.722   7.115   5.997  0.0002  0.4639 -0.0180
  478MOL0     C64450   6.108   7.180   5.894 -0.1262 -0.5005 -0.3170
  478MOL0     C64451   6.171   7.123   5.779  0.6137  1.2424  0.4148
  478MOL0     C64452   6.274   7.185   5.705  0.1556 -0.2960  0.6077
  478MOL0     C64453   6.301   7.313   5.739 -0.7359  0.4770  0.0913
  478MOL0     O64454   6.399   7.364   5.658  0.3205 -0.5632  0.9975
  478MOL0     C64455   6.433   7.505   5.656 -0.5389  0.7020 -0.7053
  478MOL0     C64456   6.376   7.587   5.544 -0.5532 -0.4047  0.3370
  478MOL0     C64457   6.422   7.520   5.413  1.0608  0.5147  0.9766
  478MOL0     C64458   6.569   7.537   5.359 -0.6590 -0.3706 -0.5036
  478MOL0     C64459   6.614   7.675   5.346  0.2150  0.0394 -0.1005
  478MOL0     C64460   6.648   7.792   5.349 -0.0491 -0.3109  0.0800
  478MOL0     C64461   6.235   7.378   5.845  0.1494  0.0992 -0.0939
  478MOL0     C64462   6.139   7.311   5.921  0.1190 -0.5723  0.5683
  478MOL0     H64463   5.861   7.083   6.308  0.7975 -0.1062 -0.8431
  478MOL0     H64464   5.625   6.969   6.341 -1.7746 -0.8581  0.5061
  478MOL0     H64465   5.482   6.795   6.283  0.1111  0.9614  0.6584
  478MOL0     H64466   5.397   6.918   6.367  0.4569  0.8657 -1.3811
  478MOL0     H64467   5.225   6.763   6.321  1.7835  1.1271  1.7487
  478MOL0     H64468   5.198   6.884   6.199  0.9955  1.1320  0.5910
  478MOL0     H64469   5.296   6.769   6.020 -3.0732  0.7471 -1.2514
  478MOL0     H64470   5.343   6.632   6.126  1.2938  0.3027 -1.7992
  478MOL0     H64471   5.086   6.609   6.181 -1.3636 -1.0321  0.0682
  478MOL0     H64472   5.062   6.741   6.072  0.5516  0.7846  0.4952
  478MOL0     H64473   5.199   6.560   5.903  2.5518 -0.0987  2.9035
  478MOL0     H64474   5.151   6.450   6.029 -1.0214 -0.7382 -0.6999
  478MOL0     H64475   4.961   6.609   5.853  0.9037 -2.1178 -2.5394
  478MOL0     H64476   4.996   6.446   5.850 -0.1936  2.4227 -1.7343
  478MOL0     H64477   4.880   6.398   6.065  3.0162  0.2512 -0.9857
  478MOL0     H64478   4.863   6.574   6.094  3.9448 -0.2764 -0.5495
  478MOL0     H64479   4.728   6.371   5.894 -0.0614  0.2017  0.4104
  478MOL0     H64480   4.717   6.531   5.862 -3.7419  0.2411  0.4424
  478MOL0     H64481   4.645   6.644   6.155  0.9946 -0.6195 -1.3161
  478MOL0     H64482   4.364   6.702   6.239 -2.0355  0.4493  1.7614
  478MOL0     H64483   4.261   6.570   6.271 -0.6162  2.6283  1.5806
  478MOL0     H64484   4.328   6.616   6.489  2.7730 -0.7737  4.0200
  478MOL0     H64485   4.500   6.618   6.435 -0.3524  0.2708 -0.4438
  478MOL0     H64486   4.467   6.438   6.564  3.4798  2.9072 -1.4113
  478MOL0     H64487   4.517   6.393   6.411  0.3135  1.1860  0.7178
  478MOL0     H64488   4.347   6.241   6.478  1.8337 -2.3171 -4.3032
  478MOL0     H64489   4.291   6.336   6.331  1.3289  2.7254 -0.1361
  478MOL0     H64490   3.991   6.430   6.630 -0.6390  1.1182 -1.4160
  478MOL0     H64491   3.791   6.381   6.761 -1.2661  1.6091 -0.3832
  478MOL0     H64492   3.722   6.367   6.602 -1.2183  0.0437  0.6287
  478MOL0     H64493   3.692   6.252   6.740  1.2619  1.4019  1.2468
  478MOL0     H64494   3.606   6.070   6.962 -2.9569  3.0047  0.3233
  478MOL0     H64495   3.396   5.989   7.044  1.5254 -1.9771  0.5592
  478MOL0     H64496   3.143   5.994   7.042  1.3371 -1.9937  0.6821
  478MOL0     H64497   3.101   6.027   6.879  2.9871  0.3533 -1.2159
  478MOL0     H64498   2.943   5.822   6.886 -5.1818 -1.0631  1.9586
  478MOL0     H64499   2.993   5.789   7.054 -0.1145 -0.3664 -0.0845
  478MOL0     H64500   2.839   6.021   6.925  1.1583  0.1983 -0.3766
  478MOL0     H64501   2.915   6.052   7.072 -0.6434  0.7366 -0.8832
  478MOL0     H64502   2.713   5.821   7.018 -1.0021  0.2161  1.4647
  478MOL0     H64503   2.768   5.875   7.180 -1.8209 -0.1155  0.9096
  478MOL0     H64504   2.588   6.001   6.975  0.0597 -0.8456 -0.1611
  478MOL0     H64505   2.668   6.109   7.090  0.7120 -0.0518 -0.0790
  478MOL0     H64506   2.483   5.872   7.135 -2.4532  1.0404 -0.8482
  478MOL0     H64507   2.554   5.957   7.272  1.1094  1.7315 -0.3749
  478MOL0     H64508   2.319   6.030   7.242 -2.3368  2.9901 -0.6145
  478MOL0     H64509   2.355   6.095   7.085  0.4503 -0.8208 -0.0089
  478MOL0     H64510   2.542   6.224   7.203 -0.0384  0.8834 -0.3405
  478MOL0     H64511   2.467   6.186   7.365  0.5089  3.1012  0.5073
  478MOL0     H64512   3.310   5.809   6.660  0.0456  2.8769 -1.4874
  478MOL0     H64513   3.525   5.873   6.587 -0.2000 -0.7749 -0.1778
  478MOL0     H64514   3.977   5.982   6.425 -2.2078 -0.2252  1.5353
  478MOL0     H64515   4.165   6.127   6.386 -0.2168 -1.7479  1.9046
  478MOL0     H64516   5.519   7.044   5.942 -0.6774  0.4310  0.4185
  478MOL0     H64517   5.741   7.160   5.900 -0.0581  0.6762  0.0677
  478MOL0     H64518   6.140   7.023   5.748  0.5616  1.6715 -0.9979
  478MOL0     H64519   6.332   7.134   5.629  0.1737 -1.2776  1.2615
  478MOL0     H64520   6.412   7.545   5.755  1.0937  0.9883 -0.4482
  478MOL0     H64521   6.541   7.499   5.639 -0.3261 -2.3997  0.9915
  478MOL0     H64522   6.412   7.691   5.547  2.3292 -1.3188  0.3307
  478MOL0     H64523   6.267   7.584   5.544 -0.6249 -5.6360  0.0008
  478MOL0     H64524   6.366   7.572   5.334  2.9455  1.8888  0.4623
  478MOL0     H64525   6.383   7.418   5.414 -0.6652  1.0015 -2.1357
  478MOL0     H64526   6.578   7.491   5.260 -1.6222 -0.5935 -0.4984
  478MOL0     H64527   6.640   7.491   5.429 -0.7071 -0.6462 -0.6356
  478MOL0     H64528   6.665   7.897   5.341 -1.8211 -0.0634 -1.1019
  478MOL0     H64529   6.259   7.480   5.874 -1.4401  0.4742  0.0093
  478MOL0     H64530   6.083   7.358   6.001 -1.8953  0.1316 -1.1820
  479MOL0     O64531   1.056   3.944   2.174 -0.0748  0.0537  0.2952
  479MOL0     C64532   1.145   3.937   2.266  0.4907  0.0026  0.7955
  479MOL0     O64533   1.123   3.937   2.401  0.1091 -0.4567 -1.0905
  479MOL0     C64534   1.004   3.975   2.462  0.0222 -0.6587  0.3695
  479MOL0     C64535   1.018   4.061   2.571  0.5389  0.0026 -0.1111
  479MOL0     C64536   0.905   4.078   2.656  0.3766 -1.4827  0.1540
  479MOL0     C64537   0.781   4.030   2.631 -0.2976 -0.0801  0.2265
  479MOL0     O64538   0.687   4.026   2.725  0.2350 -0.0904 -0.0366
  479MOL0     C64539   0.581   4.116   2.691 -0.1255 -0.2822  0.3830
  479MOL0     C64540   0.449   4.086   2.755  0.1295  0.1030 -1.1543
  479MOL0     C64541   0.348   4.201   2.714 -0.0055  0.8014 -0.0880
  479MOL0     C64542   0.206   4.173   2.778 -0.3825  0.0842  0.8685
  479MOL0     C64543   0.105   4.266   2.713 -0.7681  0.1000 -0.0723
  479MOL0     C64544  -0.022   4.290   2.794  0.7761  0.1563 -0.5452
  479MOL0     C64545  -0.125   4.367   2.710  0.4198  0.6763 -0.0194
  479MOL0     C64546  -0.237   4.399   2.808  0.2730  0.4363 -0.2213
  479MOL0     N64547  -0.361   4.455   2.753  0.3608  0.0317 -0.3731
  479MOL0     C64548  -0.429   4.417   2.643 -0.9699  0.3073  0.5454
  479MOL0     C64549  -0.538   4.498   2.632 -0.6593 -0.1168  0.7875
  479MOL0     C64550  -0.637   4.481   2.522  0.9449  0.2321 -0.3759
  479MOL0     C64551  -0.785   4.517   2.570 -0.1563  0.1635  0.8786
  479MOL0     C64552  -0.885   4.520   2.455  0.1689  0.3998 -0.3026
  479MOL0     C64553  -1.019   4.571   2.494  0.1823  0.5533  0.3698
  479MOL0     O64554  -1.007   4.701   2.554 -0.7981  0.2111  0.0291
  479MOL0     C64555  -1.104   4.765   2.612  0.7411 -0.4268 -0.1905
  479MOL0     C64556  -1.236   4.734   2.597 -0.7874 -0.6179 -0.3245
  479MOL0     C64557  -1.339   4.811   2.650  0.3125 -0.4615  0.4056
  479MOL0     C64558  -1.481   4.788   2.610  0.6586  0.6113 -0.8023
  479MOL0     C64559  -1.302   4.909   2.751  0.0579 -0.1196 -0.5272
  479MOL0     C64560  -1.392   4.996   2.817  0.5735 -1.3645 -0.3125
  479MOL0     O64561  -1.403   5.006   2.953 -0.0123  0.3612  0.3502
  479MOL0     C64562  -1.469   5.120   3.000  0.7422  0.2809 -0.8850
  479MOL0     C64563  -1.406   5.251   2.996  0.1059 -0.0121 -0.4599
  479MOL0     C64564  -1.481   5.367   3.014 -0.4962  0.0631 -0.6003
  479MOL0     C64565  -1.614   5.362   3.043  0.5145 -0.1046 -0.3109
  479MOL0     O64566  -1.687   5.471   3.064 -0.2127 -0.7887 -0.3167
  479MOL0     C64567  -1.701   5.560   2.952  0.1930  0.0749 -0.0689
  479MOL0     C64568  -1.788   5.512   2.836 -0.0207 -0.3549 -0.0604
  479MOL0     C64569  -1.934   5.488   2.873  0.2009 -0.0444 -0.2242
  479MOL0     C64570  -2.003   5.396   2.773 -0.1152 -0.7263 -0.5048
  479MOL0     C64571  -2.141   5.357   2.823 -0.0923 -0.2050  0.4614
  479MOL0     C64572  -2.209   5.273   2.709 -0.5009  0.1857  0.1875
  479MOL0     C64573  -2.321   5.184   2.764 -0.4372  0.1702 -0.6604
  479MOL0     C64574  -2.403   5.125   2.646 -0.1783 -0.9475  0.7352
  479MOL0    Cl64575  -2.524   5.029   2.742  0.0784 -0.0169 -0.7106
  479MOL0     C64576  -1.676   5.231   3.052  0.7489 -0.3747 -0.3323
  479MOL0     C64577  -1.610   5.113   3.030 -0.7080  0.0971  0.1332
  479MOL0     O64578  -1.468   5.068   2.743 -0.6255 -0.5747 -0.1039
  479MOL0     C64579  -1.164   4.924   2.784  0.7735  0.0889 -0.1970
  479MOL0     C64580  -1.065   4.854   2.712  0.0499 -0.8672  0.0479
  479MOL0     N64581  -0.533   4.601   2.724 -0.8968 -0.2640  0.4372
  479MOL0     N64582  -0.432   4.560   2.800  0.5188 -0.1825  0.3910
  479MOL0     C64583   0.769   3.943   2.525  0.3388 -0.3256 -0.0447
  479MOL0     C64584   0.877   3.913   2.442 -0.0922  0.6263  0.1582
  479MOL0     C64585   1.283   3.971   2.230 -0.0783  0.6377  0.5328
  479MOL0     C64586   1.384   3.953   2.323  0.2483  1.0786 -0.3385
  479MOL0     C64587   1.514   3.948   2.280 -0.5858  0.2295  0.0189
  479MOL0     C64588   1.555   3.991   2.153  0.7230 -0.5399  0.1280
  479MOL0     O64589   1.689   3.996   2.101  0.9531 -0.8916  0.3697
  479MOL0     C64590   1.790   3.935   2.186  1.5455 -0.7063 -0.0784
  479MOL0     C64591   1.919   3.910   2.109  0.2860  0.1438  0.1760
  479MOL0     C64592   1.900   3.825   1.988 -0.2980  0.2328 -0.4412
  479MOL0     C64593   2.018   3.829   1.892 -0.3486 -0.3340  0.3128
  479MOL0     C64594   2.030   3.958   1.835  0.4760 -0.5334  0.3373
  479MOL0     C64595   2.029   4.063   1.776  0.3914  0.3209 -0.0530
  479MOL0     C64596   1.457   4.034   2.068 -0.0958 -0.3819  0.0927
  479MOL0     C64597   1.326   4.023   2.107  0.6266 -0.2705 -0.3382
  479MOL0     H64598   1.115   4.105   2.593  0.0673 -0.0347  2.2861
  479MOL0     H64599   0.930   4.127   2.749  1.4267 -2.0348  0.1809
  479MOL0     H64600   0.614   4.218   2.712 -1.4597  0.3112 -0.2500
  479MOL0     H64601   0.552   4.118   2.586 -1.3722  0.1823  0.7144
  479MOL0     H64602   0.408   3.987   2.735 -0.9854 -0.3255  2.4995
  479MOL0     H64603   0.476   4.092   2.861  0.1953  0.1004 -1.1713
  479MOL0     H64604   0.385   4.302   2.733 -1.8142  0.9579  3.3032
  479MOL0     H64605   0.346   4.179   2.607  0.1370  0.7529 -0.0807
  479MOL0     H64606   0.183   4.069   2.749  1.0770  0.2246 -0.9794
  479MOL0     H64607   0.202   4.185   2.886 -0.0800 -0.6135  0.9662
  479MOL0     H64608   0.154   4.363   2.702 -3.6976  1.3444 -4.4170
  479MOL0     H64609   0.081   4.231   2.612  0.3338 -0.8897 -0.0166
  479MOL0     H64610  -0.073   4.202   2.834 -4.2320  2.7477 -0.3503
  479MOL0     H64611  -0.007   4.358   2.878  1.9858  1.2686 -1.6221
  479MOL0     H64612  -0.075   4.460   2.684  1.6376  0.3594  1.1100
  479MOL0     H64613  -0.164   4.308   2.626  0.7094 -1.1187  1.0528
  479MOL0     H64614  -0.193   4.482   2.864 -0.2006  1.0683 -0.7881
  479MOL0     H64615  -0.257   4.308   2.867 -0.3217 -1.5531 -3.2606
  479MOL0     H64616  -0.392   4.328   2.593  1.4265 -2.0593  5.7776
  479MOL0     H64617  -0.595   4.542   2.441  1.5184 -0.4650 -0.6086
  479MOL0     H64618  -0.646   4.380   2.482  1.2177  1.8515 -5.2914
  479MOL0     H64619  -0.777   4.618   2.611  2.8212  1.2087 -1.8540
  479MOL0     H64620  -0.815   4.450   2.652 -0.2961 -1.3052 -0.3269
  479MOL0     H64621  -0.882   4.419   2.413 -2.1507 -0.5853  1.6529
  479MOL0     H64622  -0.848   4.582   2.372  0.8550 -1.4979 -1.4989
  479MOL0     H64623  -1.065   4.496   2.559 -2.0000 -2.0106 -3.6813
  479MOL0     H64624  -1.083   4.573   2.405 -1.1401 -2.2216  1.1590
  479MOL0     H64625  -1.272   4.656   2.530  0.1675 -2.6293  1.3888
  479MOL0     H64626  -1.479   4.766   2.503  1.6832  3.4624 -1.4581
  479MOL0     H64627  -1.512   4.694   2.657  1.3950  0.5505 -0.4123
  479MOL0     H64628  -1.554   4.866   2.633  1.5018  1.5270 -1.1600
  479MOL0     H64629  -1.299   5.259   2.977  0.4516  1.3192  1.6973
  479MOL0     H64630  -1.422   5.457   3.000 -0.3451  0.2688  1.1340
  479MOL0     H64631  -1.736   5.655   2.994  1.2542  0.1511  0.6619
  479MOL0     H64632  -1.602   5.576   2.910  0.2583 -0.9816 -0.3400
  479MOL0     H64633  -1.790   5.593   2.763 -3.7898  1.5714  1.8936
  479MOL0     H64634  -1.746   5.418   2.800 -0.8792 -1.0421  0.6564
  479MOL0     H64635  -2.000   5.574   2.888 -2.0952 -1.5085 -1.3280
  479MOL0     H64636  -1.928   5.424   2.961 -1.1824 -1.1902 -0.9179
  479MOL0     H64637  -2.012   5.439   2.673 -1.8894 -2.5479 -1.2203
  479MOL0     H64638  -1.949   5.301   2.762 -0.4723 -1.2665  1.8260
  479MOL0     H64639  -2.213   5.435   2.847 -1.1399 -0.4036 -1.7507
  479MOL0     H64640  -2.132   5.294   2.912 -2.1410 -0.8247  0.2808
  479MOL0     H64641  -2.247   5.337   2.629 -0.9721  1.0547  1.0767
  479MOL0     H64642  -2.131   5.205   2.674  1.5536  1.0507  2.7332
  479MOL0     H64643  -2.384   5.244   2.831 -0.5869  0.8037 -1.3486
  479MOL0     H64644  -2.286   5.095   2.817  2.9575  1.3786 -0.6523
  479MOL0     H64645  -2.336   5.064   2.584  1.4343  2.7057 -1.4909
  479MOL0     H64646  -2.442   5.205   2.582 -0.8708 -2.3138 -0.5997
  479MOL0     H64647  -1.782   5.245   3.072 -0.1583  2.3378 -5.3206
  479MOL0     H64648  -1.663   5.018   3.036  2.7102 -2.0296  0.0421
  479MOL0     H64649  -1.132   4.994   2.860  1.8454  1.0191 -1.4523
  479MOL0     H64650  -0.962   4.886   2.717  0.5205 -2.3080 -0.1119
  479MOL0     H64651   0.677   3.895   2.492 -1.3684  2.9723 -0.4678
  479MOL0     H64652   0.864   3.846   2.358  0.7077  3.0973 -2.0495
  479MOL0     H64653   1.354   3.928   2.425  2.2290  0.9818  0.2713
  479MOL0     H64654   1.591   3.907   2.345  0.2760  0.5743 -0.7663
  479MOL0     H64655   1.803   4.010   2.264  1.0683  1.4261 -1.9531
  479MOL0     H64656   1.753   3.840   2.227  0.4200  0.0009  0.5889
  479MOL0     H64657   1.988   3.863   2.180  1.2146  3.2557  1.5317
  479MOL0     H64658   1.959   4.011   2.093  0.1533 -0.0836 -1.7897
  479MOL0     H64659   1.801   3.842   1.945 -1.4880 -0.0758  2.0480
  479MOL0     H64660   1.888   3.719   2.015 -1.4101 -0.0246 -1.7932
  479MOL0     H64661   2.012   3.745   1.822  0.7659 -1.4363  1.4890
  479MOL0     H64662   2.105   3.817   1.957  1.7557  0.1282 -2.2634
  479MOL0     H64663   2.029   4.155   1.720  0.4545  1.2948  1.4928
  479MOL0     H64664   1.493   4.066   1.971 -1.3111 -0.7717 -0.5048
  479MOL0     H64665   1.251   4.026   2.028 -2.4899 -4.4044  2.0481
  480MOL0     O64666   7.093   2.524   8.761 -0.4705 -0.6484  0.4219
  480MOL0     C64667   7.041   2.475   8.862 -0.6619  0.2104  0.3629
  480MOL0     O64668   6.918   2.487   8.915  0.1209 -0.0141  0.4963
  480MOL0     C64669   6.820   2.572   8.863 -0.1326  0.0872  0.4437
  480MOL0     C64670   6.826   2.645   8.742 -0.0441  0.5402 -0.4127
  480MOL0     C64671   6.718   2.714   8.701  0.2566  0.0751 -1.2967
  480MOL0     C64672   6.595   2.710   8.776 -0.6801 -0.5127 -0.0467
  480MOL0     O64673   6.488   2.779   8.734 -0.0840 -0.5993  0.4856
  480MOL0     C64674   6.484   2.853   8.609 -0.7605 -0.0505  0.0271
  480MOL0     C64675   6.345   2.914   8.594 -0.3862 -0.0168 -0.1503
  480MOL0     C64676   6.238   2.822   8.529 -0.4324 -0.3182 -0.2567
  480MOL0     C64677   6.107   2.904   8.498 -0.1853 -0.7088  0.4626
  480MOL0     C64678   6.035   2.850   8.372  0.3522  0.8747  0.1730
  480MOL0     C64679   6.103   2.894   8.251 -0.3540 -0.1765  0.0147
  480MOL0     C64680   6.075   2.855   8.111  0.8799 -0.1455  0.4053
  480MOL0     C64681   5.928   2.887   8.074  0.1377  0.5873 -0.1501
  480MOL0     N64682   5.878   3.023   8.071  0.9074 -0.5318 -0.6133
  480MOL0     C64683   5.745   3.051   8.056 -0.7022  0.1479 -0.7825
  480MOL0     C64684   5.739   3.186   8.036 -1.0543  0.0000  0.3764
  480MOL0     C64685   5.614   3.260   8.030 -0.8084 -1.3969  0.4421
  480MOL0     C64686   5.633   3.393   7.956  0.0166  0.3638  0.2323
  480MOL0     C64687   5.526   3.487   7.955  0.4702  0.4744 -0.1963
  480MOL0     C64688   5.473   3.540   8.086 -0.0423 -0.9060  0.1544
  480MOL0     O64689   5.377   3.647   8.056  0.2480 -0.2267 -0.5802
  480MOL0     C64690   5.234   3.622   8.052 -0.0499  0.1560 -0.2546
  480MOL0     C64691   5.145   3.723   8.018  0.0716 -0.9885 -0.1589
  480MOL0     C64692   5.003   3.710   8.010  0.4643 -0.6839  1.0906
  480MOL0     C64693   4.913   3.825   7.966 -0.3465  0.0006 -0.1665
  480MOL0     C64694   4.947   3.585   8.049 -0.3430  0.2831  0.5748
  480MOL0     C64695   4.809   3.543   8.043  0.8695  0.4052  0.5837
  480MOL0     O64696   4.743   3.595   7.943  0.9387  0.2550 -0.6497
  480MOL0     C64697   4.601   3.602   7.944  1.4090  0.2721  0.9497
  480MOL0     C64698   4.543   3.521   7.846  0.3190  1.0675  0.7974
  480MOL0     C64699   4.404   3.533   7.818 -0.7748 -1.0820 -0.2335
  480MOL0     C64700   4.319   3.613   7.900  0.2140 -0.5522 -0.5802
  480MOL0     O64701   4.181   3.630   7.882  0.3666 -0.0325  0.8342
  480MOL0     C64702   4.106   3.560   7.779  0.7658 -0.6004  0.3211
  480MOL0     C64703   3.983   3.646   7.745  0.3934  0.7808  1.0163
  480MOL0     C64704   3.903   3.605   7.620  0.3135 -0.6426 -0.1143
  480MOL0     C64705   3.764   3.674   7.611 -0.6156  0.4368 -0.2538
  480MOL0     C64706   3.673   3.627   7.492  0.3631  0.4192  0.1103
  480MOL0     C64707   3.518   3.647   7.513 -0.8855  0.1336 -0.2742
  480MOL0     C64708   3.480   3.796   7.542  0.0983  0.3631 -0.2305
  480MOL0     C64709   3.333   3.829   7.498  0.3339 -0.1776  0.1354
  480MOL0    Cl64710   3.216   3.757   7.613  0.1850  0.0927 -0.0562
  480MOL0     C64711   4.382   3.685   8.004 -0.3188 -0.6693  0.1292
  480MOL0     C64712   4.522   3.688   8.022 -0.1524 -0.2943 -0.4143
  480MOL0     O64713   4.760   3.479   8.138 -1.0976  0.9669 -0.5731
  480MOL0     C64714   5.038   3.483   8.086 -0.1133  0.2149  0.0651
  480MOL0     C64715   5.177   3.501   8.082  0.2244 -0.9484 -0.9472
  480MOL0     N64716   5.867   3.229   8.009 -0.5456  0.6200  0.0734
  480MOL0     N64717   5.950   3.130   8.042  0.2631 -0.0561  0.2945
  480MOL0     C64718   6.587   2.646   8.899  0.5901 -0.8794 -0.1453
  480MOL0     C64719   6.700   2.568   8.938  0.3395  0.0390  0.1862
  480MOL0     C64720   7.137   2.401   8.943 -0.4778 -0.3276 -0.0455
  480MOL0     C64721   7.085   2.308   9.040 -0.4901 -0.8483 -0.3885
  480MOL0     C64722   7.176   2.236   9.123  0.1181 -0.7156  0.0926
  480MOL0     C64723   7.309   2.267   9.113 -1.6664  0.4752 -0.1107
  480MOL0     O64724   7.385   2.196   9.207  0.2637 -0.5278  0.8096
  480MOL0     C64725   7.520   2.177   9.175 -0.0085 -0.0395 -0.7147
  480MOL0     C64726   7.583   2.074   9.272  0.7993  0.4431  0.4733
  480MOL0     C64727   7.515   1.939   9.242  0.1610  0.3762  0.0465
  480MOL0     C64728   7.599   1.826   9.309 -0.3053  0.2101 -0.1358
  480MOL0     C64729   7.646   1.851   9.449  0.5846 -0.4767 -0.0636
  480MOL0     C64730   7.654   1.889   9.563 -0.4828  0.4489  0.3186
  480MOL0     C64731   7.360   2.349   9.015 -0.1351  0.9503 -0.6312
  480MOL0     C64732   7.276   2.413   8.918 -0.6775 -0.0516 -0.5837
  480MOL0     H64733   6.913   2.643   8.678  1.2997  0.0465  1.3474
  480MOL0     H64734   6.717   2.764   8.605 -0.3976  2.4372 -0.1239
  480MOL0     H64735   6.559   2.931   8.623  1.4722 -1.7516 -1.7293
  480MOL0     H64736   6.516   2.786   8.528 -0.8320 -1.0634  0.8074
  480MOL0     H64737   6.312   2.943   8.694  0.6179 -1.2879  0.5786
  480MOL0     H64738   6.358   3.005   8.534  2.3579  0.5058  1.0974
  480MOL0     H64739   6.288   2.783   8.440  2.6806 -0.2629  1.3403
  480MOL0     H64740   6.234   2.739   8.600  0.9803  1.0146  1.4797
  480MOL0     H64741   6.042   2.887   8.584 -1.1208 -2.7730 -0.5926
  480MOL0     H64742   6.126   3.011   8.488 -0.6687 -0.8647 -3.3319
  480MOL0     H64743   6.042   2.741   8.367  0.7145  0.8284  1.3630
  480MOL0     H64744   5.927   2.870   8.371  0.2951  0.5662 -0.7951
  480MOL0     H64745   6.103   3.003   8.262  1.0912 -0.2954  1.4873
  480MOL0     H64746   6.204   2.862   8.277 -1.0075 -0.5958  2.3529
  480MOL0     H64747   6.127   2.913   8.035 -2.4162  0.2542 -1.7671
  480MOL0     H64748   6.107   2.754   8.083 -1.0104 -0.5188 -0.5831
  480MOL0     H64749   5.864   2.821   8.133  1.1649  0.8489  1.3292
  480MOL0     H64750   5.914   2.854   7.971  0.8579 -1.4713  0.3714
  480MOL0     H64751   5.659   2.990   8.081 -0.7857  0.8561  0.7605
  480MOL0     H64752   5.538   3.198   7.982  1.0265 -1.6261 -2.3871
  480MOL0     H64753   5.599   3.287   8.135  1.1385  1.9113  0.0128
  480MOL0     H64754   5.662   3.372   7.852  1.5636 -0.1310  0.7371
  480MOL0     H64755   5.712   3.453   8.002  0.8090 -0.8712  0.5454
  480MOL0     H64756   5.434   3.454   7.906 -0.4852 -0.3328  1.9874
  480MOL0     H64757   5.555   3.568   7.888  0.7512  0.8950  0.4161
  480MOL0     H64758   5.562   3.582   8.133  0.9106 -0.7323 -1.7258
  480MOL0     H64759   5.434   3.466   8.156 -1.0440 -0.8355 -0.3089
  480MOL0     H64760   5.165   3.828   8.001 -4.4022  0.1249  0.1548
  480MOL0     H64761   4.884   3.838   7.861  0.7052  3.2474 -0.1717
  480MOL0     H64762   4.819   3.819   8.022 -0.5623 -0.2611 -0.5465
  480MOL0     H64763   4.977   3.912   7.981  0.8361 -0.8646 -0.0951
  480MOL0     H64764   4.601   3.445   7.796 -2.0238 -0.9954  1.0149
  480MOL0     H64765   4.360   3.469   7.742 -0.9413 -1.1285 -0.0990
  480MOL0     H64766   4.165   3.554   7.687  0.2805  0.4116 -0.0691
  480MOL0     H64767   4.070   3.460   7.804 -1.1894  0.2338  1.0877
  480MOL0     H64768   3.921   3.640   7.836  0.3686 -1.8024  0.8982
  480MOL0     H64769   4.012   3.751   7.743  2.3372  0.2693  0.0806
  480MOL0     H64770   3.901   3.496   7.627  2.1379 -0.6110  1.8468
  480MOL0     H64771   3.966   3.632   7.536  1.5436 -0.6870  0.7704
  480MOL0     H64772   3.716   3.659   7.709  2.2334  0.8987  1.3243
  480MOL0     H64773   3.786   3.781   7.614  2.6671 -0.1479  0.4485
  480MOL0     H64774   3.691   3.525   7.455 -0.6009 -0.2901  1.4895
  480MOL0     H64775   3.705   3.695   7.413  0.4022 -0.3814 -0.5881
  480MOL0     H64776   3.467   3.600   7.430 -0.8715 -0.8987  0.2860
  480MOL0     H64777   3.480   3.593   7.601 -0.6934  0.1657 -0.1714
  480MOL0     H64778   3.535   3.867   7.481  0.1887  3.2418  2.8738
  480MOL0     H64779   3.491   3.818   7.649  0.7442  2.7188 -0.7204
  480MOL0     H64780   3.318   3.783   7.400  3.8228  2.1602 -1.6795
  480MOL0     H64781   3.313   3.936   7.492  0.0480 -0.0302  2.5518
  480MOL0     H64782   4.330   3.752   8.071  0.2765  0.0592 -0.1205
  480MOL0     H64783   4.567   3.742   8.105 -0.0684 -0.9418 -0.0233
  480MOL0     H64784   5.005   3.381   8.103  0.1899 -0.0591 -0.8845
  480MOL0     H64785   5.239   3.414   8.101  0.3617 -0.6977 -0.2202
  480MOL0     H64786   6.498   2.644   8.961  0.7717 -2.0177  0.0998
  480MOL0     H64787   6.697   2.503   9.025 -1.4271 -2.0466 -1.3366
  480MOL0     H64788   6.980   2.291   9.061 -0.6364  2.7209  3.3117
  480MOL0     H64789   7.139   2.164   9.195 -2.8832 -0.5811 -1.1775
  480MOL0     H64790   7.529   2.142   9.072  2.0894  0.7583 -0.8552
  480MOL0     H64791   7.580   2.268   9.187  2.5664 -1.7550  0.1173
  480MOL0     H64792   7.574   2.097   9.378  1.2805  1.1305  0.3745
  480MOL0     H64793   7.686   2.077   9.236 -0.5115 -0.1175 -4.0460
  480MOL0     H64794   7.505   1.925   9.134 -1.4060  2.2659 -0.1077
  480MOL0     H64795   7.412   1.938   9.278 -0.0891  2.5017 -0.5092
  480MOL0     H64796   7.695   1.812   9.259  0.4528  3.4690  0.2287
  480MOL0     H64797   7.533   1.738   9.309 -1.1386  0.8264 -0.6636
  480MOL0     H64798   7.690   1.898   9.663 -1.2401  0.2119  0.6191
  480MOL0     H64799   7.468   2.365   9.012 -0.0850  1.0551  1.0113
  480MOL0     H64800   7.306   2.480   8.838  1.4688 -0.9030 -0.5700
  481MOL0     O64801   1.244   6.458   2.196 -0.7424 -0.6540 -0.4717
  481MOL0     C64802   1.224   6.371   2.111  0.2132  0.2434 -0.5377
  481MOL0     O64803   1.306   6.340   2.003  0.3664 -0.4642 -1.0857
  481MOL0     C64804   1.427   6.400   1.977 -0.1557  0.2243 -0.7633
  481MOL0     C64805   1.527   6.316   1.930  0.6035 -0.2920  0.0112
  481MOL0     C64806   1.646   6.369   1.887  0.1578 -0.5345  0.4629
  481MOL0     C64807   1.680   6.502   1.907  0.0183  0.0758  0.5787
  481MOL0     O64808   1.803   6.537   1.856 -0.0337  0.2992  0.0062
  481MOL0     C64809   1.856   6.662   1.849  0.5916 -0.4776  0.4637
  481MOL0     C64810   1.999   6.631   1.800  0.9772  0.4934  0.0702
  481MOL0     C64811   2.097   6.702   1.886 -0.2750 -0.4120 -0.4788
  481MOL0     C64812   2.238   6.657   1.863 -0.7129  0.0237 -0.3966
  481MOL0     C64813   2.340   6.743   1.930 -0.4452 -0.5892 -0.0470
  481MOL0     C64814   2.484   6.687   1.910 -0.5867 -0.2907 -0.3266
  481MOL0     C64815   2.590   6.767   1.983  0.6594  0.4778 -0.3138
  481MOL0     C64816   2.730   6.729   1.940  0.2456  0.5534 -0.4971
  481MOL0     N64817   2.833   6.764   2.040  0.8935  0.7662 -0.0832
  481MOL0     C64818   2.843   6.891   2.093  0.0270 -0.0727  0.9481
  481MOL0     C64819   2.911   6.871   2.206  0.8076  0.1531  0.9294
  481MOL0     C64820   2.959   6.980   2.293  0.2538 -0.5024 -0.5347
  481MOL0     C64821   2.887   6.984   2.434  0.5906  0.1496  0.8662
  481MOL0     C64822   2.901   7.123   2.501  0.3985  0.2029 -0.7592
  481MOL0     C64823   2.815   7.232   2.435  0.0857 -0.2348 -0.8304
  481MOL0     O64824   2.701   7.254   2.525 -0.1031 -0.4448  0.3292
  481MOL0     C64825   2.582   7.188   2.498 -0.4508 -0.7746  0.3778
  481MOL0     C64826   2.529   7.152   2.378 -0.2475 -0.3236  0.0996
  481MOL0     C64827   2.406   7.082   2.362 -0.0440 -0.7854 -0.5322
  481MOL0     C64828   2.355   7.056   2.227 -0.0723 -0.0641 -0.4233
  481MOL0     C64829   2.331   7.040   2.477  0.2602 -0.6043 -0.0972
  481MOL0     C64830   2.204   6.959   2.483  0.8232 -0.3056  0.4574
  481MOL0     O64831   2.146   6.948   2.605 -0.4150 -0.4295 -0.9706
  481MOL0     C64832   2.022   6.880   2.614 -0.1178 -1.5638  0.9193
  481MOL0     C64833   1.911   6.955   2.631  1.2130 -0.3141  1.5285
  481MOL0     C64834   1.786   6.911   2.624  0.4559  0.4295 -0.1935
  481MOL0     C64835   1.759   6.772   2.614 -0.0867  0.1107 -0.3359
  481MOL0     O64836   1.631   6.733   2.606  1.0536 -0.6442 -0.4082
  481MOL0     C64837   1.596   6.603   2.555  0.4143 -0.2505  0.0913
  481MOL0     C64838   1.437   6.595   2.529 -0.2501  0.3308 -0.3167
  481MOL0     C64839   1.393   6.653   2.391  0.0722  1.0890  0.8686
  481MOL0     C64840   1.382   6.803   2.390  0.1255 -0.6736  0.3580
  481MOL0     C64841   1.357   6.877   2.254  0.1921 -0.1109  0.4094
  481MOL0     C64842   1.212   6.898   2.207  0.5384 -1.0282 -0.2169
  481MOL0     C64843   1.142   6.762   2.184  1.5897  0.2522  0.3513
  481MOL0     C64844   1.006   6.766   2.105 -0.4600 -0.2318  0.0216
  481MOL0    Cl64845   0.892   6.885   2.185  0.2575  0.0430 -0.0923
  481MOL0     C64846   1.873   6.690   2.603 -0.2082 -0.1358  0.3086
  481MOL0     C64847   2.008   6.744   2.595 -0.0788  0.2154  0.8107
  481MOL0     O64848   2.161   6.911   2.379  0.3430  0.2085  0.1709
  481MOL0     C64849   2.390   7.077   2.607  0.4255 -0.0845  0.3119
  481MOL0     C64850   2.507   7.152   2.609  0.0887  0.6021  0.2635
  481MOL0     N64851   2.932   6.733   2.238 -0.0779  0.1134  0.1055
  481MOL0     N64852   2.877   6.678   2.136  0.1731 -0.1245 -0.1838
  481MOL0     C64853   1.577   6.587   1.962  0.6911 -0.2215 -0.5037
  481MOL0     C64854   1.457   6.534   2.000 -0.4662 -0.1234 -0.2922
  481MOL0     C64855   1.103   6.292   2.145  0.7969  0.0647 -0.2155
  481MOL0     C64856   1.050   6.190   2.062  0.5717  0.5714  0.9344
  481MOL0     C64857   0.925   6.134   2.075 -0.3671  1.2572  0.2994
  481MOL0     C64858   0.837   6.176   2.172  0.1811 -0.1492 -0.2947
  481MOL0     O64859   0.709   6.107   2.180 -0.5348 -0.0706  0.5213
  481MOL0     C64860   0.626   6.126   2.293  0.9423  0.0949  0.2890
  481MOL0     C64861   0.686   6.074   2.423  0.2109  0.3660 -0.1830
  481MOL0     C64862   0.667   5.915   2.434 -0.3113 -0.1269 -0.3461
  481MOL0     C64863   0.784   5.863   2.522 -0.4438  0.2488  0.8281
  481MOL0     C64864   0.921   5.883   2.477  0.3994 -0.0528  0.3183
  481MOL0     C64865   1.040   5.904   2.449 -0.0199  0.9937 -0.8654
  481MOL0     C64866   0.881   6.284   2.254  0.2996 -0.1517 -0.2141
  481MOL0     C64867   1.008   6.344   2.243 -0.0565  0.1972  0.8262
  481MOL0     H64868   1.521   6.207   1.933  0.9743 -0.2987  1.1314
  481MOL0     H64869   1.726   6.301   1.858  1.2423  1.4946 -1.5680
  481MOL0     H64870   1.808   6.727   1.774 -1.2143 -1.9423  0.2819
  481MOL0     H64871   1.856   6.713   1.945 -2.4346  0.4949  0.0614
  481MOL0     H64872   2.025   6.525   1.802  0.0395  0.2507 -0.1787
  481MOL0     H64873   2.006   6.666   1.697  3.4191  1.5351  0.5163
  481MOL0     H64874   2.087   6.807   1.855 -1.0215 -0.5459 -0.6996
  481MOL0     H64875   2.066   6.697   1.991 -0.1244 -0.4657 -0.4370
  481MOL0     H64876   2.249   6.556   1.904  0.7315  0.6806  0.9334
  481MOL0     H64877   2.256   6.669   1.756 -2.1433  2.5810 -0.4271
  481MOL0     H64878   2.325   6.846   1.896 -1.4079  1.0588  4.6978
  481MOL0     H64879   2.308   6.758   2.033 -0.6451  2.7600 -0.4872
  481MOL0     H64880   2.490   6.583   1.941  1.6267 -0.6738 -1.8230
  481MOL0     H64881   2.517   6.693   1.806 -1.3718  1.8240 -0.4980
  481MOL0     H64882   2.573   6.875   1.970 -3.2604 -0.1427 -1.5905
  481MOL0     H64883   2.578   6.744   2.090 -4.1973  3.6082  0.1001
  481MOL0     H64884   2.755   6.767   1.841 -1.5609 -0.7030 -1.4941
  481MOL0     H64885   2.731   6.620   1.940 -0.8118  0.5301 -0.7862
  481MOL0     H64886   2.829   6.991   2.051  0.7240  0.3691  1.7566
  481MOL0     H64887   3.068   6.966   2.299  0.3333 -0.1655 -1.1196
  481MOL0     H64888   2.929   7.065   2.232 -2.3730 -1.0195 -0.0875
  481MOL0     H64889   2.933   6.900   2.487 -0.4512 -1.4168 -0.6553
  481MOL0     H64890   2.781   6.958   2.427  0.6972  0.2786 -2.6908
  481MOL0     H64891   3.006   7.155   2.504  1.2659 -2.4752  0.3942
  481MOL0     H64892   2.866   7.114   2.604 -0.6196  4.1475 -0.5941
  481MOL0     H64893   2.773   7.203   2.339 -0.3778 -0.3126 -0.6077
  481MOL0     H64894   2.861   7.330   2.421  0.0176  0.1933  1.4404
  481MOL0     H64895   2.584   7.183   2.290 -1.2287 -1.3043 -0.8949
  481MOL0     H64896   2.327   6.950   2.222 -3.2885  0.7339 -1.2902
  481MOL0     H64897   2.267   7.115   2.202 -0.1797  0.6410  1.4654
  481MOL0     H64898   2.433   7.070   2.151 -0.5102 -3.6936 -1.7418
  481MOL0     H64899   1.917   7.063   2.638 -1.6374 -0.0054  0.4389
  481MOL0     H64900   1.716   6.993   2.638 -0.6071 -0.7006  1.3722
  481MOL0     H64901   1.652   6.573   2.465  1.7005  0.8818  0.4762
  481MOL0     H64902   1.615   6.520   2.625  1.9736  1.4143  1.7556
  481MOL0     H64903   1.408   6.489   2.536  0.4387  0.1492 -0.1737
  481MOL0     H64904   1.367   6.639   2.600  0.0558 -0.6020  0.5768
  481MOL0     H64905   1.294   6.614   2.367  0.7923  1.0577 -2.6414
  481MOL0     H64906   1.452   6.610   2.309 -0.9936  0.5548  0.3599
  481MOL0     H64907   1.316   6.848   2.465  2.3090  0.9941  1.3999
  481MOL0     H64908   1.485   6.834   2.411 -1.2310  2.7395  2.9795
  481MOL0     H64909   1.398   6.820   2.171  0.1881 -0.8062  0.8809
  481MOL0     H64910   1.405   6.976   2.252 -0.1795  0.0808 -2.2481
  481MOL0     H64911   1.162   6.947   2.290  2.1864 -1.1756  0.9013
  481MOL0     H64912   1.201   6.957   2.115 -1.5890  0.4716  0.9188
  481MOL0     H64913   1.117   6.702   2.272  1.6489 -1.7583 -0.9175
  481MOL0     H64914   1.215   6.695   2.136  2.9143  1.0677  1.1490
  481MOL0     H64915   0.954   6.673   2.079 -0.6921  0.9159 -4.3408
  481MOL0     H64916   1.027   6.806   2.005 -1.5869 -1.0442 -0.5591
  481MOL0     H64917   1.855   6.583   2.595  2.3685 -0.7925  2.2209
  481MOL0     H64918   2.092   6.676   2.586 -0.3978  0.0049 -0.8197
  481MOL0     H64919   2.344   7.052   2.702  2.4716 -0.2570  1.3117
  481MOL0     H64920   2.564   7.163   2.701 -1.1315 -1.3433  1.3252
  481MOL0     H64921   1.604   6.692   1.958  0.8825 -0.1807  1.0937
  481MOL0     H64922   1.378   6.598   2.040  0.4191  0.4444  0.5895
  481MOL0     H64923   1.103   6.155   1.974 -0.6078 -0.2524  0.5388
  481MOL0     H64924   0.898   6.046   2.017  0.8981  0.2833  1.1088
  481MOL0     H64925   0.620   6.234   2.309  1.0253  0.0031  0.9354
  481MOL0     H64926   0.527   6.085   2.268  0.9526 -0.2723  0.8443
  481MOL0     H64927   0.626   6.118   2.503 -0.0050  1.6872 -1.0486
  481MOL0     H64928   0.789   6.106   2.443 -0.3966  2.3999 -0.1571
  481MOL0     H64929   0.672   5.869   2.335 -2.1061 -1.8284  0.2918
  481MOL0     H64930   0.571   5.891   2.480 -0.9854  1.4633 -0.8460
  481MOL0     H64931   0.772   5.758   2.547  2.0915 -0.7492 -1.5404
  481MOL0     H64932   0.787   5.913   2.619 -1.6609  0.8453  0.5770
  481MOL0     H64933   1.137   5.927   2.409 -0.3394  1.4347 -1.4108
  481MOL0     H64934   0.817   6.342   2.319  3.0350  0.3051  2.2990
  481MOL0     H64935   1.027   6.437   2.296  1.1565  0.7090 -0.4654
  482MOL0     O64936   6.977   0.208  10.559 -0.8848 -0.1615  0.2147
  482MOL0     C64937   7.006   0.146  10.662  0.3880 -0.0742  0.2564
  482MOL0     O64938   6.948   0.171  10.787 -0.1489  0.4983  0.2320
  482MOL0     C64939   6.845   0.264  10.808 -0.2203  0.0444 -1.0050
  482MOL0     C64940   6.725   0.259  10.725  0.4017 -0.3540  0.5105
  482MOL0     C64941   6.615   0.352  10.757 -0.2600 -0.3982  0.2123
  482MOL0     C64942   6.624   0.434  10.863  0.1439 -0.4161 -0.1232
  482MOL0     O64943   6.521   0.513  10.893  0.7430 -0.8708  0.4039
  482MOL0     C64944   6.506   0.613  10.793  0.3639  0.2405 -0.7954
  482MOL0     C64945   6.395   0.705  10.830  0.9858 -0.5398  0.2681
  482MOL0     C64946   6.357   0.802  10.713  0.0559  0.2493 -0.9600
  482MOL0     C64947   6.480   0.895  10.673  0.2260 -0.2402 -0.1763
  482MOL0     C64948   6.427   1.004  10.580 -0.0084  0.1425 -0.8096
  482MOL0     C64949   6.549   1.086  10.529  0.2599 -0.1360  0.5036
  482MOL0     C64950   6.509   1.200  10.433  0.5099 -0.1611  0.4708
  482MOL0     C64951   6.492   1.140  10.296  0.1057  0.1799  0.1000
  482MOL0     N64952   6.616   1.107  10.219  0.9438  0.8282 -0.4416
  482MOL0     C64953   6.736   1.168  10.226  0.0325 -0.1616  0.6821
  482MOL0     C64954   6.809   1.099  10.128  1.2915 -0.3704  1.4552
  482MOL0     C64955   6.954   1.126  10.104  0.2933  0.0664 -0.3452
  482MOL0     C64956   7.016   1.022  10.010 -0.1557 -0.5672  0.5049
  482MOL0     C64957   7.160   0.997  10.035 -0.4063  0.0234  0.3557
  482MOL0     C64958   7.173   0.887  10.147  0.0572  0.0079 -0.8498
  482MOL0     O64959   7.171   0.751  10.096  0.5471 -0.0168  0.1627
  482MOL0     C64960   7.057   0.680  10.086 -1.0412  0.0296  0.0810
  482MOL0     C64961   6.935   0.707  10.146 -0.2427  1.3340 -0.5308
  482MOL0     C64962   6.827   0.627  10.117  0.2344 -0.1208 -0.3097
  482MOL0     C64963   6.687   0.672  10.175 -0.3532 -0.8645 -0.4268
  482MOL0     C64964   6.840   0.525  10.018  0.8500 -0.0042 -0.1287
  482MOL0     C64965   6.731   0.438   9.990  0.5013  0.2793 -0.0562
  482MOL0     O64966   6.669   0.448   9.863  0.3129 -0.2261 -0.5549
  482MOL0     C64967   6.536   0.420   9.844 -0.1528 -0.0387 -0.3731
  482MOL0     C64968   6.492   0.406   9.714  0.2306 -0.5460 -0.2458
  482MOL0     C64969   6.357   0.395   9.680  0.9474  0.2921 -0.8082
  482MOL0     C64970   6.257   0.391   9.783  0.4555  0.0666 -0.1628
  482MOL0     O64971   6.122   0.374   9.754  0.1763 -0.0396 -0.3037
  482MOL0     C64972   6.084   0.332   9.622  0.2983  0.4519  0.2303
  482MOL0     C64973   5.930   0.320   9.632 -1.2766  0.0784  0.5959
  482MOL0     C64974   5.856   0.458   9.638  0.2316 -0.1880 -0.0326
  482MOL0     C64975   5.841   0.502   9.778 -0.4556  0.3703  0.5252
  482MOL0     C64976   5.779   0.642   9.786 -0.5278  0.7788  1.0537
  482MOL0     C64977   5.740   0.676   9.935 -0.7530 -1.2611 -0.5276
  482MOL0     C64978   5.734   0.834   9.962 -0.5563  1.2063 -0.2752
  482MOL0     C64979   5.688   0.862  10.099  0.7734  0.2451  0.0545
  482MOL0    Cl64980   5.825   0.882  10.214  0.0234  0.4233  0.1496
  482MOL0     C64981   6.305   0.413   9.912  0.3661  0.3818  0.6351
  482MOL0     C64982   6.439   0.407   9.948 -0.6447 -0.6885 -0.4079
  482MOL0     O64983   6.695   0.361  10.078 -0.2883  0.1603 -0.2890
  482MOL0     C64984   6.958   0.507   9.951 -0.2896  0.1967  0.4423
  482MOL0     C64985   7.073   0.580   9.985  0.0030  0.7387  0.3753
  482MOL0     N64986   6.723   0.991  10.077  0.1778 -0.4878 -0.0251
  482MOL0     N64987   6.614   0.997  10.135 -0.5115  0.0219 -0.6091
  482MOL0     C64988   6.742   0.441  10.942 -0.2470 -0.0321 -0.5010
  482MOL0     C64989   6.850   0.352  10.914  0.1659 -0.2325  0.8473
  482MOL0     C64990   7.114   0.040  10.653 -0.1265 -0.6824 -0.0696
  482MOL0     C64991   7.162  -0.039  10.762  0.4721  0.3626 -0.0392
  482MOL0     C64992   7.252  -0.143  10.735 -0.4265 -0.3053  0.7492
  482MOL0     C64993   7.275  -0.182  10.604 -0.2072 -0.4222 -0.2348
  482MOL0     O64994   7.364  -0.291  10.592 -0.2611 -0.1541  0.4181
  482MOL0     C64995   7.326  -0.400  10.508  0.8289 -0.6020 -0.1576
  482MOL0     C64996   7.443  -0.496  10.490 -0.0304 -0.4933 -0.6131
  482MOL0     C64997   7.534  -0.521  10.613 -0.4822  0.1251  0.0612
  482MOL0     C64998   7.620  -0.644  10.604  1.1321  0.8862 -0.0537
  482MOL0     C64999   7.743  -0.614  10.536  0.5748 -0.7683 -0.5826
  482MOL0     C65000   7.843  -0.572  10.483 -0.0996  0.9416 -0.4642
  482MOL0     C65001   7.260  -0.081  10.504 -0.3363 -0.1979  0.2370
  482MOL0     C65002   7.166   0.018  10.526  0.1166  0.2020  0.0272
  482MOL0     H65003   6.710   0.198  10.637 -1.7308  0.1419  0.4648
  482MOL0     H65004   6.531   0.364  10.689  0.2091  2.0827 -0.0185
  482MOL0     H65005   6.593   0.678  10.781 -1.1444  2.6476  0.6384
  482MOL0     H65006   6.491   0.560  10.698  2.4591 -1.0166 -0.4946
  482MOL0     H65007   6.304   0.644  10.841  1.6925 -1.7640 -0.5537
  482MOL0     H65008   6.408   0.767  10.920  0.8135 -1.9996  1.3328
  482MOL0     H65009   6.329   0.738  10.629 -1.3885 -2.1115  1.1916
  482MOL0     H65010   6.268   0.862  10.734 -2.7842 -1.6022 -5.8323
  482MOL0     H65011   6.527   0.936  10.763  2.6010 -0.5126 -1.2308
  482MOL0     H65012   6.553   0.838  10.615 -2.3313 -3.2145 -0.8158
  482MOL0     H65013   6.379   0.954  10.496 -0.6017 -0.2794 -0.2226
  482MOL0     H65014   6.357   1.060  10.642 -1.2506 -1.6696 -0.4987
  482MOL0     H65015   6.600   1.142  10.608 -0.9352  2.4512 -0.4328
  482MOL0     H65016   6.626   1.024  10.483 -1.1997 -0.5380 -1.5560
  482MOL0     H65017   6.420   1.253  10.468  2.1478  2.4994  0.8814
  482MOL0     H65018   6.579   1.284  10.431 -0.6331  0.7910 -0.6211
  482MOL0     H65019   6.440   1.210  10.229 -2.3463 -1.0892  0.5592
  482MOL0     H65020   6.424   1.054  10.291 -2.1636  1.8876 -4.3137
  482MOL0     H65021   6.770   1.247  10.292  0.6725 -0.4830  0.7513
  482MOL0     H65022   6.960   1.227  10.061 -0.5986  0.6743  0.8794
  482MOL0     H65023   7.000   1.146  10.202  1.9429  1.4397 -1.3367
  482MOL0     H65024   7.022   1.077   9.915  1.6450  1.2053  1.5454
  482MOL0     H65025   6.962   0.929   9.992  0.3011 -0.5316 -1.2813
  482MOL0     H65026   7.206   1.090  10.068  0.6834  0.0417 -1.1519
  482MOL0     H65027   7.210   0.961   9.945 -3.4288 -0.6452 -1.1763
  482MOL0     H65028   7.092   0.903  10.218 -1.2035 -0.4175 -2.1371
  482MOL0     H65029   7.267   0.891  10.202 -0.6629  1.4180  0.3472
  482MOL0     H65030   6.918   0.795  10.207  0.1401 -0.4924  2.3685
  482MOL0     H65031   6.704   0.752  10.247  0.9238 -0.8464 -0.7228
  482MOL0     H65032   6.621   0.704  10.094  1.3644 -0.7627 -1.8416
  482MOL0     H65033   6.648   0.585  10.229 -0.1170  0.3399  1.7912
  482MOL0     H65034   6.568   0.407   9.637 -0.0273  0.9385 -0.5013
  482MOL0     H65035   6.329   0.395   9.575 -0.3943  4.8920 -0.6720
  482MOL0     H65036   6.097   0.408   9.544  0.8908  1.5120  1.3380
  482MOL0     H65037   6.132   0.239   9.588 -0.6758  0.1778 -0.4629
  482MOL0     H65038   5.901   0.266   9.541  1.1778  0.7054 -0.6412
  482MOL0     H65039   5.903   0.250   9.712 -0.4997  1.6779  2.3240
  482MOL0     H65040   5.765   0.450   9.580  1.4373  0.1532 -2.0759
  482MOL0     H65041   5.912   0.544   9.598  2.3585 -0.6717  1.6829
  482MOL0     H65042   5.769   0.432   9.820 -0.0015 -0.8092 -0.5638
  482MOL0     H65043   5.935   0.503   9.834  1.1013  2.0132 -1.8943
  482MOL0     H65044   5.692   0.655   9.720 -0.7476 -0.0311  1.1704
  482MOL0     H65045   5.858   0.709   9.750  0.1161  1.4008  3.4446
  482MOL0     H65046   5.645   0.630   9.966 -0.6023 -1.7135 -0.7184
  482MOL0     H65047   5.819   0.630   9.995 -1.0082 -1.8579 -0.6369
  482MOL0     H65048   5.663   0.884   9.895  0.7042  0.2644 -2.4337
  482MOL0     H65049   5.828   0.885   9.941 -0.4277  1.4432  0.8253
  482MOL0     H65050   5.617   0.788  10.138  2.3520 -1.2620  0.2089
  482MOL0     H65051   5.635   0.958  10.091 -0.6708 -0.6070 -1.2824
  482MOL0     H65052   6.228   0.418   9.988  1.1561 -0.8578  1.5596
  482MOL0     H65053   6.457   0.422  10.054  1.6996  2.3058 -1.0612
  482MOL0     H65054   6.981   0.432   9.876  1.2526  0.2421  0.8370
  482MOL0     H65055   7.168   0.564   9.935 -0.1155 -2.2588  0.8992
  482MOL0     H65056   6.746   0.506  11.029 -0.8879  2.3263 -2.1320
  482MOL0     H65057   6.936   0.349  10.981  1.1451  1.8632 -0.2045
  482MOL0     H65058   7.122  -0.026  10.862  2.4500 -0.3306  0.8896
  482MOL0     H65059   7.312  -0.201  10.805  0.5905 -0.7124 -0.4170
  482MOL0     H65060   7.249  -0.457  10.562  0.3059  0.7594  0.5781
  482MOL0     H65061   7.278  -0.361  10.418 -1.5261 -0.0294  1.2541
  482MOL0     H65062   7.509  -0.457  10.412  1.3083 -0.7993  0.3393
  482MOL0     H65063   7.399  -0.592  10.461 -0.7814 -0.2889 -0.1583
  482MOL0     H65064   7.480  -0.523  10.708 -0.0435 -0.1024  0.3090
  482MOL0     H65065   7.609  -0.442  10.625 -0.9242  0.2320  2.6111
  482MOL0     H65066   7.572  -0.734  10.564  2.5959 -0.2457  0.6220
  482MOL0     H65067   7.638  -0.684  10.704 -0.5984 -3.1276 -1.1309
  482MOL0     H65068   7.929  -0.530  10.437  2.4879 -2.8904  0.3975
  482MOL0     H65069   7.307  -0.092  10.407 -0.7529 -0.5791  0.0711
  482MOL0     H65070   7.129   0.082  10.446 -2.7561 -0.3054  0.8206
  483MOL0     O65071  11.200   4.429   0.401  0.8916 -0.0510  0.0168
  483MOL0     C65072  11.292   4.455   0.326 -0.0455 -0.7021 -0.9107
  483MOL0     O65073  11.290   4.568   0.250  0.0232  0.2162  0.1743
  483MOL0     C65074  11.182   4.651   0.248 -0.7089 -0.7314  0.2344
  483MOL0     C65075  11.139   4.726   0.357  0.1559 -0.5156  0.3393
  483MOL0     C65076  11.035   4.824   0.350 -0.3704 -0.0271 -0.0854
  483MOL0     C65077  10.973   4.836   0.221  0.9339  0.1455 -0.6739
  483MOL0     O65078  10.858   4.915   0.221  0.2588  0.3901  0.3761
  483MOL0     C65079  10.872   5.041   0.285  0.4056 -0.7026  0.5679
  483MOL0     C65080  10.794   5.159   0.211 -0.5165  0.6151  0.4937
  483MOL0     C65081  10.646   5.130   0.192  0.0272  0.8867  0.1846
  483MOL0     C65082  10.563   5.254   0.160 -0.5605 -0.4344  0.1136
  483MOL0     C65083  10.428   5.220   0.099  0.6488 -0.3255  1.0003
  483MOL0     C65084  10.347   5.352   0.073 -0.1686  0.7705  0.0739
  483MOL0     C65085  10.200   5.333   0.031  0.0585 -0.4160 -0.4303
  483MOL0     C65086  10.129   5.469   0.021 -0.5097 -0.3362 -0.3498
  483MOL0     N65087   9.982   5.442   0.013  0.1233 -0.4701 -1.7478
  483MOL0     C65088   9.902   5.419   0.123 -0.5058  0.6968 -0.0554
  483MOL0     C65089   9.789   5.361   0.071  0.4169 -0.2043 -0.1372
  483MOL0     C65090   9.663   5.332   0.147 -0.0530 -0.7770  0.1641
  483MOL0     C65091   9.537   5.369   0.072  0.2473 -0.4757 -0.2662
  483MOL0     C65092   9.404   5.348   0.136 -0.0503 -0.4038 -0.1915
  483MOL0     C65093   9.289   5.401   0.059 -0.4486  0.0445 -0.4976
  483MOL0     O65094   9.173   5.363   0.134 -0.5164 -0.6436 -0.7005
  483MOL0     C65095   9.048   5.365   0.067 -0.0855 -0.2730 -0.6385
  483MOL0     C65096   9.023   5.443  -0.043 -1.0195 -1.0767 -0.6413
  483MOL0     C65097   8.901   5.446  -0.109  0.7643  0.0295 -0.7233
  483MOL0     C65098   8.882   5.534  -0.228 -0.5561 -0.1601  0.0352
  483MOL0     C65099   8.796   5.371  -0.048  0.4586 -0.5842 -0.2494
  483MOL0     C65100   8.661   5.372  -0.092  0.9536  0.7984  0.4755
  483MOL0     O65101   8.581   5.257  -0.067 -0.2042  0.3100 -0.0819
  483MOL0     C65102   8.452   5.276  -0.080 -0.4642 -0.3418 -0.4824
  483MOL0     C65103   8.378   5.351   0.022  0.4063  0.7064 -0.3300
  483MOL0     C65104   8.241   5.345   0.019  0.4786 -0.5184 -0.7665
  483MOL0     C65105   8.168   5.277  -0.076  0.3001 -0.4060  0.0286
  483MOL0     O65106   8.027   5.289  -0.095 -0.9281  0.2182 -0.1592
  483MOL0     C65107   7.951   5.349   0.009  0.2486  0.0814 -0.2659
  483MOL0     C65108   7.813   5.324  -0.041  0.3147 -0.0071 -0.3475
  483MOL0     C65109   7.701   5.371   0.059 -0.4575 -0.5671  0.4032
  483MOL0     C65110   7.561   5.354   0.016  0.4101 -0.0829 -0.6220
  483MOL0     C65111   7.452   5.415   0.097  0.0245  0.0890  0.5092
  483MOL0     C65112   7.325   5.332   0.116  0.1892 -0.0883 -0.2271
  483MOL0     C65113   7.270   5.284  -0.019 -0.7435 -0.4662  0.2557
  483MOL0     C65114   7.125   5.240  -0.005  0.5301  0.0369  0.7718
  483MOL0    Cl65115   7.035   5.271  -0.159  0.4238 -0.0650 -0.0699
  483MOL0     C65116   8.237   5.209  -0.176  0.0101  0.2626  0.4166
  483MOL0     C65117   8.380   5.200  -0.178  0.3030  0.2622  0.0103
  483MOL0     O65118   8.614   5.478  -0.142 -0.8658  0.3263 -0.3390
  483MOL0     C65119   8.824   5.301   0.067 -0.3725 -0.6061 -0.0855
  483MOL0     C65120   8.948   5.284   0.116 -0.8211 -1.2287 -0.0638
  483MOL0     N65121   9.802   5.335  -0.061  0.0323  0.9728 -0.1619
  483MOL0     N65122   9.914   5.384  -0.086 -0.3019 -0.7130  0.0217
  483MOL0     C65123  11.020   4.772   0.106  0.6216 -0.4294 -0.3522
  483MOL0     C65124  11.128   4.681   0.120  0.2041  0.2201  0.1265
  483MOL0     C65125  11.411   4.378   0.314  0.1169  0.9868  0.0025
  483MOL0     C65126  11.528   4.435   0.266 -0.6335 -0.1232 -0.2684
  483MOL0     C65127  11.638   4.361   0.260  0.3754 -0.1273  0.0287
  483MOL0     C65128  11.640   4.222   0.284 -0.3187 -0.0115  0.1888
  483MOL0     O65129  11.758   4.144   0.277  0.1892  0.3045 -0.6774
  483MOL0     C65130  11.858   4.189   0.180  0.5103 -0.0892 -0.8147
  483MOL0     C65131  11.941   4.080   0.131 -0.7783  0.6143 -0.4994
  483MOL0     C65132  12.018   4.003   0.247  0.6432  0.0780  0.5732
  483MOL0     C65133  12.119   3.904   0.197 -0.0972  0.4396  0.4885
  483MOL0     C65134  12.054   3.793   0.128 -0.2184 -0.4845  0.0900
  483MOL0     C65135  11.989   3.708   0.070  0.6455 -0.1976  0.3159
  483MOL0     C65136  11.527   4.169   0.342 -0.3190  0.2802 -1.3323
  483MOL0     C65137  11.412   4.246   0.348 -0.2946  0.1993  0.1340
  483MOL0     H65138  11.204   4.711   0.443 -0.3066 -1.0865  0.5898
  483MOL0     H65139  11.014   4.875   0.443 -0.0401 -3.2201  1.8764
  483MOL0     H65140  10.832   5.033   0.387 -0.5706 -3.8779  0.0464
  483MOL0     H65141  10.973   5.079   0.303  1.7370 -3.0175 -1.4403
  483MOL0     H65142  10.796   5.247   0.276  0.0904  0.4833  0.6573
  483MOL0     H65143  10.845   5.194   0.121  1.0467  2.1130  1.8761
  483MOL0     H65144  10.637   5.067   0.103 -0.3170  0.9535  0.1695
  483MOL0     H65145  10.617   5.078   0.284 -0.5803 -0.5552 -0.7828
  483MOL0     H65146  10.542   5.309   0.252  0.5624 -0.8214  0.6123
  483MOL0     H65147  10.618   5.324   0.096 -0.2928 -0.8651 -0.1296
  483MOL0     H65148  10.451   5.168   0.006  0.4006 -2.5785  2.1163
  483MOL0     H65149  10.366   5.155   0.162 -0.8494  0.8826  0.8303
  483MOL0     H65150  10.344   5.408   0.167  0.1727 -2.2833  2.0437
  483MOL0     H65151  10.399   5.406  -0.006  0.3330  2.9975  1.8177
  483MOL0     H65152  10.191   5.285  -0.067 -1.5176 -1.5664  0.2360
  483MOL0     H65153  10.150   5.270   0.105 -1.0691  1.2099  0.2489
  483MOL0     H65154  10.168   5.525  -0.065  3.1361  2.0195  2.4936
  483MOL0     H65155  10.145   5.531   0.110 -0.2529 -2.4730  1.1692
  483MOL0     H65156   9.901   5.435   0.230 -2.6296  2.5959 -0.2811
  483MOL0     H65157   9.651   5.227   0.175  0.7673 -0.6256  1.1685
  483MOL0     H65158   9.657   5.393   0.237 -1.0956 -2.4489  1.2810
  483MOL0     H65159   9.538   5.314  -0.022 -0.4678 -2.4799  0.8451
  483MOL0     H65160   9.548   5.475   0.049 -0.0451 -0.4730 -0.3940
  483MOL0     H65161   9.410   5.400   0.232  2.3762 -3.5257  1.5391
  483MOL0     H65162   9.406   5.243   0.165 -2.4628  0.4214  3.5856
  483MOL0     H65163   9.285   5.357  -0.041 -1.0974  1.8893 -1.3247
  483MOL0     H65164   9.295   5.509   0.043  2.4990 -0.2326 -1.8330
  483MOL0     H65165   9.101   5.507  -0.084 -0.8157 -1.2882 -0.5813
  483MOL0     H65166   8.814   5.616  -0.205  1.8908  1.3043  2.6434
  483MOL0     H65167   8.977   5.575  -0.265  0.1453 -1.8880 -0.1708
  483MOL0     H65168   8.841   5.473  -0.309  2.9295  1.1649 -3.0472
  483MOL0     H65169   8.429   5.419   0.090 -0.4378  1.3302 -0.3107
  483MOL0     H65170   8.184   5.389   0.099 -2.2338 -0.5393 -2.5565
  483MOL0     H65171   7.970   5.296   0.103 -0.7597  0.0219 -0.0908
  483MOL0     H65172   7.966   5.456   0.027  0.8367  0.1417 -1.0377
  483MOL0     H65173   7.810   5.379  -0.136 -2.0707  3.1240  1.3668
  483MOL0     H65174   7.800   5.217  -0.061  1.2713  0.0359 -1.2984
  483MOL0     H65175   7.719   5.475   0.086  3.1809 -0.9428  0.0023
  483MOL0     H65176   7.711   5.321   0.155 -0.3227 -1.0243  0.1584
  483MOL0     H65177   7.550   5.391  -0.086  3.1948 -0.5170 -1.1646
  483MOL0     H65178   7.537   5.247   0.010  1.0915 -0.3873  1.4620
  483MOL0     H65179   7.420   5.511   0.055 -0.5416 -0.4039 -0.2245
  483MOL0     H65180   7.503   5.424   0.193  2.4689 -3.7459 -0.2140
  483MOL0     H65181   7.337   5.239   0.171  0.6099 -0.5144 -1.0307
  483MOL0     H65182   7.241   5.388   0.160  0.1522 -0.6603  0.4456
  483MOL0     H65183   7.324   5.198  -0.058  1.3651 -0.4767  2.9247
  483MOL0     H65184   7.279   5.363  -0.095 -0.8071 -0.3782  0.3384
  483MOL0     H65185   7.076   5.296   0.076 -0.0796  0.4467  0.1342
  483MOL0     H65186   7.112   5.142   0.042  1.7098 -0.6708 -0.3350
  483MOL0     H65187   8.180   5.157  -0.252 -0.4174 -0.2130  1.0496
  483MOL0     H65188   8.434   5.138  -0.249 -1.0958 -2.3815  1.1176
  483MOL0     H65189   8.755   5.228   0.107  0.8744 -1.1498  1.1799
  483MOL0     H65190   8.969   5.228   0.206 -1.8669 -1.8181 -0.1619
  483MOL0     H65191  10.980   4.781   0.005 -0.1594 -0.8473 -0.0919
  483MOL0     H65192  11.181   4.637   0.036  0.2163 -1.7379  1.1117
  483MOL0     H65193  11.524   4.542   0.247 -0.0285 -0.2054 -0.8896
  483MOL0     H65194  11.734   4.406   0.236  0.4600  1.0977  2.4110
  483MOL0     H65195  11.808   4.236   0.095 -0.6793 -0.9832 -0.6363
  483MOL0     H65196  11.923   4.261   0.230  0.8749 -2.5652  2.6095
  483MOL0     H65197  12.027   4.124   0.079 -1.2379  0.5263 -1.3351
  483MOL0     H65198  11.891   4.012   0.061  2.0562 -1.5480 -0.6232
  483MOL0     H65199  11.942   3.961   0.314 -0.8894 -0.7897 -1.5835
  483MOL0     H65200  12.082   4.068   0.308  2.1137 -0.1605 -0.6754
  483MOL0     H65201  12.178   3.868   0.282  2.0251 -1.9433 -1.7957
  483MOL0     H65202  12.192   3.950   0.130 -0.3664  0.4327  0.1911
  483MOL0     H65203  11.924   3.629   0.039 -0.3472  1.1830 -1.2965
  483MOL0     H65204  11.528   4.062   0.361  2.1719  0.0139 -2.4590
  483MOL0     H65205  11.317   4.202   0.377 -0.8567  0.4421 -1.2536
  484MOL0     O65206  10.770   0.353   4.285  0.0339 -0.2712 -0.2000
  484MOL0     C65207  10.816   0.325   4.174  0.5932 -0.1551  0.6671
  484MOL0     O65208  10.739   0.319   4.052 -0.5142 -0.5421 -0.0452
  484MOL0     C65209  10.604   0.329   4.051 -0.3480  0.0899  1.1716
  484MOL0     C65210  10.551   0.386   3.940 -0.1151 -0.1810 -0.4993
  484MOL0     C65211  10.409   0.395   3.930 -0.2120  0.1527  0.5365
  484MOL0     C65212  10.326   0.361   4.038 -0.2191  0.2558 -0.2734
  484MOL0     O65213  10.185   0.373   4.044 -0.2499 -0.1597 -0.5205
  484MOL0     C65214  10.128   0.425   3.928 -0.4717 -0.4302  0.3117
  484MOL0     C65215   9.981   0.393   3.918 -1.0044 -0.7792  0.4152
  484MOL0     C65216   9.951   0.240   3.921 -0.5311 -1.5997 -0.5589
  484MOL0     C65217   9.798   0.224   3.947 -0.0583 -0.3091 -0.0200
  484MOL0     C65218   9.773   0.075   3.969  0.7130  0.1423 -0.0433
  484MOL0     C65219   9.622   0.053   4.002 -0.6594 -0.0527  0.4240
  484MOL0     C65220   9.559   0.120   4.126 -0.0989 -0.4690 -0.5137
  484MOL0     C65221   9.417   0.075   4.161 -0.4798  0.1345  0.3903
  484MOL0     N65222   9.326   0.125   4.051 -0.1721  0.3861  0.4064
  484MOL0     C65223   9.313   0.077   3.920 -0.2503  1.0976 -1.0315
  484MOL0     C65224   9.212   0.151   3.859  0.2714  1.2205  0.3579
  484MOL0     C65225   9.164   0.120   3.723  0.3125  0.3936  0.0403
  484MOL0     C65226   9.026   0.188   3.701  0.4547 -0.0422 -0.6649
  484MOL0     C65227   8.949   0.155   3.569 -0.4618 -0.5623 -0.3720
  484MOL0     C65228   8.883   0.015   3.571  0.4502 -1.0782 -0.1156
  484MOL0     O65229   8.835  -0.029   3.438 -0.4839  0.9166  0.1517
  484MOL0     C65230   8.916  -0.110   3.362 -0.7495  0.5818  0.6452
  484MOL0     C65231   8.857  -0.172   3.244 -0.1451  0.8348  0.2097
  484MOL0     C65232   8.928  -0.256   3.163  0.3420  0.3232  0.3860
  484MOL0     C65233   8.862  -0.321   3.040 -1.3550 -0.0315 -0.0727
  484MOL0     C65234   9.062  -0.289   3.195  0.2278 -0.9622 -0.1506
  484MOL0     C65235   9.158  -0.371   3.114  0.1214 -0.6933  0.6975
  484MOL0     O65236   9.278  -0.321   3.082  0.0571 -0.4380  0.3222
  484MOL0     C65237   9.358  -0.381   2.981 -0.7879  0.0258 -0.4973
  484MOL0     C65238   9.308  -0.434   2.856 -0.1768  0.7298  0.5855
  484MOL0     C65239   9.393  -0.501   2.766 -0.1128 -0.0758  0.4209
  484MOL0     C65240   9.532  -0.522   2.792 -0.3623 -0.5821 -0.3078
  484MOL0     O65241   9.619  -0.592   2.715  0.1649 -0.6212 -0.9463
  484MOL0     C65242   9.635  -0.524   2.591  0.3056  0.6574 -0.7203
  484MOL0     C65243   9.774  -0.538   2.537  0.4333 -0.5250 -0.5476
  484MOL0     C65244   9.876  -0.438   2.605  0.8101  0.4330  0.0716
  484MOL0     C65245  10.020  -0.483   2.599 -1.3863  0.8847 -0.4057
  484MOL0     C65246  10.063  -0.528   2.457  0.6893  1.2754  0.9336
  484MOL0     C65247  10.212  -0.547   2.469  0.5398 -0.6800  0.6264
  484MOL0     C65248  10.279  -0.581   2.332  0.6364  0.5092 -0.4566
  484MOL0     C65249  10.432  -0.566   2.345 -0.2108  0.5307 -0.9880
  484MOL0    Cl65250  10.492  -0.403   2.353  0.2927  0.0418  0.1871
  484MOL0     C65251   9.577  -0.457   2.910 -0.2145  0.1829 -1.0981
  484MOL0     C65252   9.492  -0.392   3.002 -0.1305 -0.4082  0.2347
  484MOL0     O65253   9.121  -0.481   3.087  0.8493  0.0115  0.0811
  484MOL0     C65254   9.121  -0.225   3.303  0.9289 -0.6598 -0.0419
  484MOL0     C65255   9.048  -0.139   3.390 -0.8536  0.1973 -0.9852
  484MOL0     N65256   9.163   0.245   3.954  0.2476  0.4471  0.7574
  484MOL0     N65257   9.244   0.230   4.055 -0.0339  0.2803 -0.1429
  484MOL0     C65258  10.379   0.287   4.146 -0.0146  0.0957  0.6461
  484MOL0     C65259  10.517   0.282   4.153 -0.6187  0.8040  0.1922
  484MOL0     C65260  10.962   0.330   4.157  1.0583  0.4484 -0.1847
  484MOL0     C65261  11.022   0.324   4.029  0.3656 -0.0222 -0.4127
  484MOL0     C65262  11.157   0.342   4.017  0.1183 -0.5138  0.4879
  484MOL0     C65263  11.246   0.361   4.118 -0.1208 -0.3477  0.5856
  484MOL0     O65264  11.380   0.376   4.114 -0.2304 -0.3062  0.0811
  484MOL0     C65265  11.450   0.419   3.994  0.1075 -0.4025 -0.1963
  484MOL0     C65266  11.455   0.573   3.990 -0.1119 -0.2717  0.2036
  484MOL0     C65267  11.538   0.628   4.108  0.2278 -0.2085  0.9172
  484MOL0     C65268  11.685   0.583   4.100 -0.1743 -0.4540  0.7958
  484MOL0     C65269  11.760   0.655   4.203  0.1441  0.2959  0.5490
  484MOL0     C65270  11.784   0.734   4.290 -0.0587 -0.3958  0.3821
  484MOL0     C65271  11.186   0.357   4.245 -0.0065 -0.6632 -0.6384
  484MOL0     C65272  11.045   0.343   4.268 -0.1217 -1.0557  0.0935
  484MOL0     H65273  10.622   0.421   3.866 -1.0889 -1.4669 -2.1134
  484MOL0     H65274  10.373   0.447   3.842  3.0100  1.3021 -0.2586
  484MOL0     H65275  10.139   0.534   3.924 -0.9340 -0.4181 -1.3903
  484MOL0     H65276  10.180   0.388   3.839 -0.4218 -0.0878  0.1936
  484MOL0     H65277   9.934   0.436   4.007 -0.1021 -3.0957  2.1128
  484MOL0     H65278   9.948   0.443   3.827  2.5743  0.7963 -0.2168
  484MOL0     H65279   9.966   0.188   3.826 -1.9397 -0.1974 -1.5986
  484MOL0     H65280  10.013   0.190   3.996 -0.1842 -1.8085 -0.9767
  484MOL0     H65281   9.778   0.279   4.040  2.8854  0.0542  0.5176
  484MOL0     H65282   9.737   0.259   3.863  2.6214 -0.5545 -2.2114
  484MOL0     H65283   9.788   0.026   3.872 -2.7004 -0.4687 -0.3964
  484MOL0     H65284   9.839   0.023   4.039 -0.1644 -2.2258 -0.8486
  484MOL0     H65285   9.571   0.091   3.913 -0.6533  0.3463  0.5870
  484MOL0     H65286   9.608  -0.055   4.011  0.9515 -0.2930  0.2046
  484MOL0     H65287   9.625   0.093   4.209 -1.0470  0.6587  0.6328
  484MOL0     H65288   9.550   0.228   4.121 -0.2313 -0.5031 -1.1032
  484MOL0     H65289   9.394   0.108   4.262 -1.3172  0.5310  0.0874
  484MOL0     H65290   9.414  -0.034   4.157 -3.5457  0.1666 -2.4409
  484MOL0     H65291   9.355  -0.010   3.873  0.3413  0.7927  0.0210
  484MOL0     H65292   9.238   0.143   3.645  1.2781 -0.3727  0.7090
  484MOL0     H65293   9.147   0.012   3.726 -1.8967  0.7230  1.6387
  484MOL0     H65294   9.060   0.292   3.695  1.1965 -0.0588  2.0180
  484MOL0     H65295   8.960   0.193   3.788 -0.6876  2.4569 -1.5588
  484MOL0     H65296   9.020   0.170   3.487 -3.2707  1.1832 -2.7221
  484MOL0     H65297   8.862   0.219   3.550  0.9940  1.4315 -0.6847
  484MOL0     H65298   8.799   0.022   3.640  0.8245 -1.4286  0.3893
  484MOL0     H65299   8.948  -0.052   3.629  0.1315 -0.3842  1.0804
  484MOL0     H65300   8.751  -0.154   3.235  0.1932  2.0615 -1.8933
  484MOL0     H65301   8.753  -0.305   3.044 -1.2721  0.3092  2.7339
  484MOL0     H65302   8.907  -0.276   2.951 -0.4176 -1.4653 -0.3499
  484MOL0     H65303   8.879  -0.429   3.041 -2.1225 -0.1640 -0.0506
  484MOL0     H65304   9.200  -0.431   2.850 -0.2037  4.3612  0.6555
  484MOL0     H65305   9.352  -0.530   2.669 -4.7291  2.2602  1.3905
  484MOL0     H65306   9.563  -0.568   2.520 -1.3040  1.1604  0.5291
  484MOL0     H65307   9.619  -0.416   2.595  1.0932  0.7662 -0.4837
  484MOL0     H65308   9.802  -0.641   2.564  0.5577 -0.5152 -0.6380
  484MOL0     H65309   9.772  -0.521   2.429 -1.4275 -2.9397 -1.0023
  484MOL0     H65310   9.850  -0.425   2.710  0.8842  1.3390 -0.0180
  484MOL0     H65311   9.873  -0.344   2.550 -0.3597  0.0665 -0.5195
  484MOL0     H65312  10.081  -0.395   2.622 -0.0261  0.5494 -2.4165
  484MOL0     H65313  10.019  -0.566   2.669 -2.2347  0.8698 -0.4286
  484MOL0     H65314  10.035  -0.448   2.388  2.7726  0.2676 -1.2345
  484MOL0     H65315  10.023  -0.617   2.408  1.4342  1.7882 -0.6988
  484MOL0     H65316  10.254  -0.454   2.509  0.4891 -0.5201  0.3131
  484MOL0     H65317  10.240  -0.616   2.548 -1.1122  0.7219  2.5498
  484MOL0     H65318  10.239  -0.530   2.244 -2.8735 -3.6757 -1.6829
  484MOL0     H65319  10.265  -0.688   2.312  2.0835  0.2735 -0.3351
  484MOL0     H65320  10.490  -0.617   2.268 -0.2984 -1.0536 -0.0345
  484MOL0     H65321  10.454  -0.623   2.435 -0.4945 -0.5109 -1.5690
  484MOL0     H65322   9.681  -0.461   2.941 -0.4762  4.1903  0.9497
  484MOL0     H65323   9.543  -0.355   3.090 -1.6064 -0.0588  0.9778
  484MOL0     H65324   9.219  -0.258   3.336 -0.3923 -2.2910  2.6230
  484MOL0     H65325   9.103  -0.097   3.473 -0.0754 -1.5569 -0.5616
  484MOL0     H65326  10.317   0.251   4.228  0.9132  1.6077  2.0837
  484MOL0     H65327  10.555   0.236   4.244  0.2122  3.1861  1.1552
  484MOL0     H65328  10.960   0.300   3.944 -2.7668  1.8110  1.1829
  484MOL0     H65329  11.200   0.316   3.921 -0.6781 -4.7675  1.0556
  484MOL0     H65330  11.549   0.374   3.985  0.4099  0.1802  0.0898
  484MOL0     H65331  11.396   0.390   3.904  2.4031  2.1450 -2.5879
  484MOL0     H65332  11.350   0.604   3.983 -0.1798 -0.5698 -0.1655
  484MOL0     H65333  11.503   0.606   3.898  0.3364 -1.7750 -0.1393
  484MOL0     H65334  11.502   0.589   4.204 -0.6707 -1.5197  0.0736
  484MOL0     H65335  11.517   0.735   4.108 -1.7188 -0.4911 -1.6116
  484MOL0     H65336  11.725   0.597   3.999 -2.6320  0.0893 -0.1699
  484MOL0     H65337  11.685   0.475   4.118  0.1210 -0.6305 -0.1865
  484MOL0     H65338  11.803   0.813   4.360  2.3515  0.6642 -1.3660
  484MOL0     H65339  11.247   0.360   4.335 -1.3598  1.6184  0.2817
  484MOL0     H65340  11.015   0.364   4.370 -1.1088  1.4682 -0.6307
  485MOL0     O65341   3.465   4.883  10.735  0.1492 -0.2006  0.8436
  485MOL0     C65342   3.478   4.766  10.708  1.1468 -0.3441 -0.5910
  485MOL0     O65343   3.396   4.668  10.767  0.2007  0.4306 -0.1953
  485MOL0     C65344   3.282   4.707  10.837 -0.1892  0.0582 -0.0634
  485MOL0     C65345   3.292   4.716  10.974  0.1936  0.2310  0.2588
  485MOL0     C65346   3.181   4.760  11.043  1.1886  0.9577  0.6545
  485MOL0     C65347   3.062   4.805  10.977 -0.5880  0.7100 -0.2667
  485MOL0     O65348   2.957   4.857  11.047  0.6769  0.0083  0.3570
  485MOL0     C65349   2.985   4.943  11.155  0.0778 -0.2736  0.1249
  485MOL0     C65350   2.870   5.048  11.162 -0.0991  0.5067  0.1164
  485MOL0     C65351   2.735   4.981  11.209  0.1937 -0.5636 -0.0206
  485MOL0     C65352   2.649   5.092  11.268 -0.7797  0.8138 -0.1038
  485MOL0     C65353   2.540   5.035  11.353  0.9270  0.4647 -0.7810
  485MOL0     C65354   2.489   5.167  11.433 -0.5302  0.4543  0.8993
  485MOL0     C65355   2.408   5.134  11.560 -0.2932  0.0007  0.0291
  485MOL0     C65356   2.496   5.067  11.671  0.6984  0.4538  0.3907
  485MOL0     N65357   2.418   5.033  11.788 -0.4809  0.7155  0.1034
  485MOL0     C65358   2.329   5.114  11.865 -0.9247 -0.8072  0.5732
  485MOL0     C65359   2.285   5.037  11.966  0.0148  0.9196 -0.4684
  485MOL0     C65360   2.169   5.044  12.056  0.0690 -0.3688 -0.6577
  485MOL0     C65361   2.037   4.967  12.009 -0.7034 -0.1849  0.6809
  485MOL0     C65362   2.042   4.818  12.029 -0.8061 -0.0260 -0.2101
  485MOL0     C65363   1.900   4.754  12.018  0.2336 -1.0946 -0.3260
  485MOL0     O65364   1.799   4.812  12.105 -0.3398 -0.6640 -0.2828
  485MOL0     C65365   1.683   4.750  12.121  1.0238  0.0453 -0.0458
  485MOL0     C65366   1.639   4.635  12.051  0.0831 -0.8152 -0.9576
  485MOL0     C65367   1.529   4.566  12.085  0.5073  0.3272  0.3168
  485MOL0     C65368   1.492   4.445  11.995  0.3543 -0.8441  0.5085
  485MOL0     C65369   1.433   4.626  12.174 -0.3156 -0.1583  0.2061
  485MOL0     C65370   1.306   4.565  12.214 -0.1579 -0.1536  0.0597
  485MOL0     O65371   1.274   4.444  12.167 -0.1951 -0.2094 -0.3129
  485MOL0     C65372   1.170   4.364  12.227  0.3516 -0.5612  0.3578
  485MOL0     C65373   1.086   4.293  12.142 -0.2697 -0.6901  0.7693
  485MOL0     C65374   0.969   4.238  12.189  0.6102 -0.6078  0.6619
  485MOL0     C65375   0.940   4.235  12.324 -0.1346  0.3431 -0.3430
  485MOL0     O65376   0.819   4.167  12.351  0.0392  0.3517 -0.8048
  485MOL0     C65377   0.737   4.216  12.461  0.1129  0.2381 -0.1002
  485MOL0     C65378   0.592   4.260  12.428  0.4392 -0.0831  0.8289
  485MOL0     C65379   0.514   4.315  12.544 -0.7741  0.5730  0.5759
  485MOL0     C65380   0.364   4.325  12.504 -0.2530 -0.3265 -0.4030
  485MOL0     C65381   0.269   4.334  12.622  0.0992  0.9886  0.1063
  485MOL0     C65382   0.116   4.312  12.592 -0.7003 -0.7807  0.2243
  485MOL0     C65383   0.099   4.160  12.551 -0.7692  0.3441 -0.9983
  485MOL0     C65384  -0.041   4.144  12.498  0.2911 -0.0126  0.4531
  485MOL0    Cl65385  -0.055   3.980  12.440  0.0710  0.2345 -0.2144
  485MOL0     C65386   1.029   4.297  12.410  0.7787 -0.2813 -0.5271
  485MOL0     C65387   1.144   4.355  12.361 -0.1736 -0.6711 -0.2085
  485MOL0     O65388   1.236   4.620  12.298  0.2789  0.2077 -0.6696
  485MOL0     C65389   1.461   4.747  12.223 -0.0916 -0.1049 -0.2289
  485MOL0     C65390   1.586   4.810  12.197  0.1479  1.2815  0.2979
  485MOL0     N65391   2.362   4.921  11.959  0.5726  0.0213 -0.4251
  485MOL0     N65392   2.428   4.914  11.850 -0.4021 -0.1337 -0.2342
  485MOL0     C65393   3.057   4.792  10.835 -0.2940  0.2552 -0.6172
  485MOL0     C65394   3.165   4.736  10.770 -0.3257 -0.4632  0.6507
  485MOL0     C65395   3.581   4.710  10.628  0.0956  0.1283 -0.6086
  485MOL0     C65396   3.684   4.800  10.586  0.2799  0.6040  0.1499
  485MOL0     C65397   3.799   4.764  10.516  0.1648 -0.4792 -0.4464
  485MOL0     C65398   3.815   4.634  10.485  0.2991  0.1710 -0.1213
  485MOL0     O65399   3.935   4.599  10.428  0.2737 -0.6193  0.4987
  485MOL0     C65400   3.972   4.460  10.413 -0.3262 -0.4508 -0.0713
  485MOL0     C65401   4.035   4.403  10.539 -0.3273 -0.6730 -0.2912
  485MOL0     C65402   4.118   4.275  10.499  0.0087  0.6953  0.1567
  485MOL0     C65403   4.160   4.191  10.628  0.7771 -0.0079 -0.3994
  485MOL0     C65404   4.037   4.138  10.683 -0.3476  0.0676  0.0036
  485MOL0     C65405   3.942   4.078  10.728  1.0018 -0.0937  0.4248
  485MOL0     C65406   3.710   4.543  10.521 -0.0857 -0.1210 -0.7702
  485MOL0     C65407   3.594   4.585  10.582  0.0746  0.2760 -0.0417
  485MOL0     H65408   3.385   4.685  11.021  0.8674  1.4909 -0.2002
  485MOL0     H65409   3.188   4.754  11.152  0.4192 -0.9124  0.6473
  485MOL0     H65410   2.990   4.876  11.242  1.5913 -0.9115 -0.4346
  485MOL0     H65411   3.084   4.989  11.151 -0.0181 -0.1156 -0.4593
  485MOL0     H65412   2.893   5.115  11.246 -4.3855 -1.3684  3.1332
  485MOL0     H65413   2.858   5.088  11.061 -0.2091 -0.4258 -0.2474
  485MOL0     H65414   2.686   4.924  11.129 -1.9826 -2.1301  2.2606
  485MOL0     H65415   2.755   4.906  11.286 -0.5818 -1.4785 -0.6675
  485MOL0     H65416   2.708   5.152  11.338 -0.1278 -0.7164  0.7121
  485MOL0     H65417   2.621   5.164  11.190  3.4975  0.6712 -2.0792
  485MOL0     H65418   2.454   4.990  11.302  0.2067  2.8287 -1.8020
  485MOL0     H65419   2.581   4.971  11.432 -0.5503  2.2307  1.5418
  485MOL0     H65420   2.569   5.236  11.460  0.0126 -0.2509  1.1565
  485MOL0     H65421   2.421   5.212  11.360  0.7898  0.7469 -0.1687
  485MOL0     H65422   2.375   5.227  11.606  1.5551  0.3404  0.7950
  485MOL0     H65423   2.321   5.073  11.534 -0.8464  1.1868 -0.9962
  485MOL0     H65424   2.586   5.123  11.698 -0.8624  2.3853  1.8336
  485MOL0     H65425   2.545   4.980  11.624  0.4266  0.3859  0.2327
  485MOL0     H65426   2.279   5.208  11.843 -0.7716 -0.5665  1.2333
  485MOL0     H65427   2.190   5.003  12.154 -0.6268  1.5765  0.3696
  485MOL0     H65428   2.155   5.152  12.068 -0.6317 -0.6166  0.9100
  485MOL0     H65429   2.019   4.988  11.903 -0.6676  0.7117  0.8456
  485MOL0     H65430   1.949   5.006  12.061  0.4044 -1.0420  3.3342
  485MOL0     H65431   2.072   4.787  12.130 -0.6913 -1.7604 -0.7410
  485MOL0     H65432   2.118   4.777  11.961  1.1849  1.6998  0.8352
  485MOL0     H65433   1.903   4.648  12.043 -0.6351 -0.9771  0.3156
  485MOL0     H65434   1.862   4.769  11.916 -0.7018 -0.3395  0.1131
  485MOL0     H65435   1.707   4.597  11.975 -0.4141 -3.4405 -0.1932
  485MOL0     H65436   1.471   4.350  12.045 -1.3526 -2.8667 -3.5470
  485MOL0     H65437   1.401   4.461  11.937 -0.0353 -0.3157  1.2558
  485MOL0     H65438   1.575   4.423  11.927 -0.1938 -2.2878  0.2653
  485MOL0     H65439   1.117   4.286  12.038  0.7071 -1.4630  1.0913
  485MOL0     H65440   0.906   4.179  12.123  1.1715 -1.2723  0.7020
  485MOL0     H65441   0.728   4.144  12.542 -3.5866  0.2918 -0.2712
  485MOL0     H65442   0.783   4.309  12.496 -3.1632  2.4934 -1.2861
  485MOL0     H65443   0.595   4.344  12.358  1.3229 -0.5869  0.2432
  485MOL0     H65444   0.537   4.180  12.378 -1.6996  1.7992  0.0265
  485MOL0     H65445   0.550   4.415  12.569 -1.9519  2.1078 -3.2065
  485MOL0     H65446   0.538   4.248  12.628 -0.3912 -1.6195 -1.1789
  485MOL0     H65447   0.339   4.408  12.439  0.0562  1.5386  1.7219
  485MOL0     H65448   0.328   4.241  12.444 -1.8504 -1.1113  1.5086
  485MOL0     H65449   0.284   4.427  12.678  0.9457  0.9705 -0.0650
  485MOL0     H65450   0.307   4.260  12.693 -1.8050 -0.7308 -0.5605
  485MOL0     H65451   0.064   4.341  12.684 -2.5329  4.6754 -2.1213
  485MOL0     H65452   0.080   4.382  12.516 -1.4024 -0.6201  0.6937
  485MOL0     H65453   0.108   4.089  12.634 -1.4393  2.4378  0.9570
  485MOL0     H65454   0.174   4.131  12.478 -0.3592 -1.5691  0.1038
  485MOL0     H65455  -0.062   4.207  12.411 -2.9847 -1.0646  0.3465
  485MOL0     H65456  -0.117   4.157  12.575 -2.0948 -0.6271 -1.6307
  485MOL0     H65457   1.021   4.308  12.518  2.0052 -0.2735 -0.4181
  485MOL0     H65458   1.213   4.403  12.430  1.0892  0.3040 -2.0546
  485MOL0     H65459   1.383   4.797  12.279  0.9691  0.5689  0.6773
  485MOL0     H65460   1.616   4.904  12.241 -1.2483  2.7389 -1.6756
  485MOL0     H65461   2.963   4.821  10.790 -2.5002 -1.9024  2.2515
  485MOL0     H65462   3.158   4.714  10.664 -1.1279 -1.6516  0.9349
  485MOL0     H65463   3.675   4.905  10.612 -3.1896  0.8189 -1.3683
  485MOL0     H65464   3.873   4.840  10.493  0.2911 -1.0620 -2.1564
  485MOL0     H65465   3.891   4.400  10.371  3.6656 -4.1035 -3.3236
  485MOL0     H65466   4.048   4.460  10.335 -1.1734 -3.3547 -0.9938
  485MOL0     H65467   3.963   4.381  10.618 -0.8718  2.5079  0.2591
  485MOL0     H65468   4.098   4.482  10.581 -0.6705 -0.8806  0.6370
  485MOL0     H65469   4.211   4.306  10.451 -1.1196  3.4327 -0.4573
  485MOL0     H65470   4.059   4.212  10.432  0.4159  0.2218  0.2421
  485MOL0     H65471   4.213   4.247  10.705  1.6621 -0.8728 -0.3669
  485MOL0     H65472   4.229   4.113  10.595 -0.8707 -2.0247  0.7150
  485MOL0     H65473   3.859   4.017  10.759  1.1195 -1.0648 -1.0720
  485MOL0     H65474   3.715   4.435  10.511  1.8486 -0.2912  1.3440
  485MOL0     H65475   3.517   4.513  10.605  0.6718 -0.2160  0.4788
  486MOL0     O65476  10.553   2.005   4.510  0.4671 -0.4696 -0.7231
  486MOL0     C65477  10.526   1.956   4.621  0.4020 -0.1096  0.1861
  486MOL0     O65478  10.402   1.968   4.681 -0.5685 -0.0395  0.2674
  486MOL0     C65479  10.300   2.046   4.622  0.5595 -0.1339 -1.0155
  486MOL0     C65480  10.316   2.174   4.569 -0.5508  0.6494 -0.3284
  486MOL0     C65481  10.213   2.245   4.511 -0.0117  0.4111  0.5794
  486MOL0     C65482  10.078   2.195   4.522  0.5167 -0.3242  0.1972
  486MOL0     O65483   9.983   2.271   4.459 -0.2181 -0.0710 -0.6400
  486MOL0     C65484   9.848   2.231   4.465 -0.8171 -0.0648  0.1572
  486MOL0     C65485   9.772   2.305   4.348  0.0408 -0.1224  0.0785
  486MOL0     C65486   9.624   2.284   4.365 -0.0032  0.1605 -0.5295
  486MOL0     C65487   9.577   2.137   4.360  0.4331  0.7849  0.0223
  486MOL0     C65488   9.424   2.129   4.336 -0.0850  0.5584  0.2181
  486MOL0     C65489   9.379   1.983   4.327 -0.2779 -0.5869  0.5234
  486MOL0     C65490   9.225   1.977   4.293  0.2268  0.0728  0.4254
  486MOL0     C65491   9.147   2.015   4.417  0.3576  0.6137 -0.1830
  486MOL0     N65492   9.008   2.063   4.396  0.1144  0.7720 -0.9408
  486MOL0     C65493   8.936   2.039   4.280 -0.4265 -0.3493 -0.9238
  486MOL0     C65494   8.804   2.065   4.306 -0.9747 -0.3374 -0.8645
  486MOL0     C65495   8.682   2.030   4.225 -0.0023  0.1605 -0.3654
  486MOL0     C65496   8.631   1.896   4.259  1.2744  0.6596 -0.3740
  486MOL0     C65497   8.593   1.886   4.406  0.1986  0.4521  0.0687
  486MOL0     C65498   8.488   1.782   4.412  0.2261  0.5652 -0.0930
  486MOL0     O65499   8.356   1.842   4.426  0.6532  0.4647  0.5424
  486MOL0     C65500   8.234   1.780   4.448  0.2819 -0.6551 -0.5290
  486MOL0     C65501   8.223   1.640   4.448 -0.6842 -0.1240  0.1869
  486MOL0     C65502   8.095   1.584   4.456  0.7039 -0.5036 -0.5243
  486MOL0     C65503   8.082   1.436   4.455 -0.7827  0.4724 -0.2280
  486MOL0     C65504   7.974   1.666   4.466  0.5121  0.9452  0.4239
  486MOL0     C65505   7.833   1.630   4.482 -0.8890  0.6637 -0.1833
  486MOL0     O65506   7.788   1.507   4.437 -0.5326  0.2443  0.4226
  486MOL0     C65507   7.657   1.472   4.422  0.1803  0.0602 -0.6299
  486MOL0     C65508   7.556   1.558   4.399  0.4466  0.0140  0.2159
  486MOL0     C65509   7.422   1.521   4.373 -0.2023  0.2315 -0.7913
  486MOL0     C65510   7.385   1.391   4.403 -0.2979  0.9071  0.6285
  486MOL0     O65511   7.254   1.344   4.400 -0.1076  0.2197 -0.3850
  486MOL0     C65512   7.144   1.424   4.376  1.0128 -0.8621 -0.8081
  486MOL0     C65513   7.114   1.513   4.491  0.2839  0.2200  0.2794
  486MOL0     C65514   6.993   1.604   4.463 -0.3414  0.2401  1.0285
  486MOL0     C65515   6.858   1.529   4.461 -0.0049 -1.4015  0.2921
  486MOL0     C65516   6.747   1.636   4.453  0.3121 -0.0974  0.8699
  486MOL0     C65517   6.614   1.568   4.429  0.7461  0.0951 -0.3460
  486MOL0     C65518   6.510   1.675   4.379 -0.2370 -1.1230  0.4007
  486MOL0     C65519   6.364   1.617   4.368 -0.5367 -0.0341 -1.1568
  486MOL0    Cl65520   6.333   1.551   4.205  0.0635 -0.5791 -0.3339
  486MOL0     C65521   7.489   1.298   4.436 -0.1109  0.3927 -0.0887
  486MOL0     C65522   7.622   1.343   4.438  0.0838  0.0108  1.0180
  486MOL0     O65523   7.767   1.709   4.552  0.1994  0.1887 -0.2666
  486MOL0     C65524   7.995   1.802   4.469  0.0531 -0.6088 -0.0392
  486MOL0     C65525   8.123   1.859   4.465  0.2709  0.0663 -0.5430
  486MOL0     N65526   8.807   2.121   4.436 -0.7787  0.0775  0.0298
  486MOL0     N65527   8.927   2.114   4.486 -0.0412 -0.2388 -0.2685
  486MOL0     C65528  10.064   2.066   4.568  0.9134  0.1718 -0.5602
  486MOL0     C65529  10.172   1.991   4.623  0.5041 -0.5459 -0.8322
  486MOL0     C65530  10.629   1.864   4.678  0.3674  0.4523  0.3949
  486MOL0     C65531  10.723   1.812   4.594 -0.4044  1.1187 -0.6081
  486MOL0     C65532  10.813   1.720   4.646 -0.5579  0.4635 -0.4898
  486MOL0     C65533  10.817   1.684   4.781  0.7724  0.6779  1.0913
  486MOL0     O65534  10.907   1.585   4.818 -0.2264  0.7460  0.2169
  486MOL0     C65535  10.875   1.491   4.924  0.5774 -1.6370 -0.6665
  486MOL0     C65536  10.958   1.369   4.891 -0.3863  0.0206  0.2502
  486MOL0     C65537  11.120   1.391   4.909  0.4071  0.3989 -0.3216
  486MOL0     C65538  11.222   1.323   4.810 -0.1373  0.3564 -0.8109
  486MOL0     C65539  11.230   1.174   4.823 -0.4376 -0.6163 -0.2202
  486MOL0     C65540  11.238   1.058   4.825 -1.0061  0.9319  0.6732
  486MOL0     C65541  10.720   1.741   4.861  0.3412 -0.0071 -0.0489
  486MOL0     C65542  10.617   1.818   4.811  0.0754  0.3138  0.0692
  486MOL0     H65543  10.421   2.202   4.576 -0.4526 -0.1449  2.8015
  486MOL0     H65544  10.240   2.343   4.473 -2.2931  2.0089  2.7413
  486MOL0     H65545   9.842   2.122   4.463  0.2779 -0.1549  0.8181
  486MOL0     H65546   9.800   2.275   4.553 -1.2887  0.5845 -0.4029
  486MOL0     H65547   9.786   2.411   4.372  0.5249 -0.4358  1.2828
  486MOL0     H65548   9.810   2.289   4.247 -0.1723 -0.4865  0.0540
  486MOL0     H65549   9.584   2.351   4.442 -0.2888  2.1950 -2.3481
  486MOL0     H65550   9.581   2.339   4.281 -3.2248  0.4027  1.0998
  486MOL0     H65551   9.623   2.086   4.275 -0.5389 -3.2255  1.6709
  486MOL0     H65552   9.607   2.086   4.453 -0.7578 -0.0936 -0.0596
  486MOL0     H65553   9.375   2.186   4.415 -0.7710  0.7981 -0.3635
  486MOL0     H65554   9.396   2.180   4.244 -1.0385 -1.5754 -0.7511
  486MOL0     H65555   9.446   1.938   4.254  0.9076  1.1963  0.4498
  486MOL0     H65556   9.407   1.939   4.423  1.7769  0.2834  0.3751
  486MOL0     H65557   9.209   2.034   4.201 -1.6368 -0.0890  0.6094
  486MOL0     H65558   9.192   1.873   4.280 -3.8304  1.0902  0.9360
  486MOL0     H65559   9.205   2.084   4.479  0.7254 -0.9678  1.3066
  486MOL0     H65560   9.135   1.926   4.478  2.1624 -0.6871 -1.6193
  486MOL0     H65561   8.968   1.989   4.189 -1.1253 -0.3442 -1.1791
  486MOL0     H65562   8.607   2.105   4.251  0.1160 -0.1436  0.9494
  486MOL0     H65563   8.683   2.028   4.116  0.3512 -4.8899 -0.5100
  486MOL0     H65564   8.714   1.826   4.246  0.6404 -0.2666  0.3807
  486MOL0     H65565   8.545   1.872   4.195  1.1091 -1.4153  0.5388
  486MOL0     H65566   8.542   1.980   4.430 -0.3099  0.9531 -2.6728
  486MOL0     H65567   8.671   1.869   4.480  1.2343  0.6883 -0.9495
  486MOL0     H65568   8.520   1.736   4.506  2.1335 -0.8579 -1.3322
  486MOL0     H65569   8.493   1.714   4.326  1.6726 -2.4916  2.2241
  486MOL0     H65570   8.305   1.571   4.433 -0.4803 -0.0501  0.9113
  486MOL0     H65571   8.086   1.404   4.560 -0.7794  3.2022  0.6893
  486MOL0     H65572   8.004   1.409   4.383  2.0148  0.8423 -3.6401
  486MOL0     H65573   8.171   1.396   4.407 -1.5420  0.0659 -1.3378
  486MOL0     H65574   7.570   1.664   4.377  0.5234  0.3978  1.9972
  486MOL0     H65575   7.355   1.600   4.340  3.1878  2.5752 -2.6734
  486MOL0     H65576   7.162   1.493   4.293 -1.4534 -0.4645 -1.0734
  486MOL0     H65577   7.055   1.364   4.359  0.1745  0.3466 -0.7825
  486MOL0     H65578   7.092   1.451   4.578  1.0633  1.3317  1.3115
  486MOL0     H65579   7.203   1.573   4.516 -0.9405  1.8557  0.8736
  486MOL0     H65580   6.995   1.647   4.363 -0.4552  2.3217  1.8641
  486MOL0     H65581   6.986   1.691   4.529 -0.1308  0.0621  1.2909
  486MOL0     H65582   6.856   1.477   4.365 -3.6970  3.3869 -2.7234
  486MOL0     H65583   6.841   1.469   4.551 -1.2052  0.7804  1.6257
  486MOL0     H65584   6.771   1.709   4.376  3.4051 -2.0395 -0.2238
  486MOL0     H65585   6.737   1.695   4.545  0.2588 -0.3080  1.0017
  486MOL0     H65586   6.624   1.500   4.344  2.4999  2.1401 -1.8725
  486MOL0     H65587   6.594   1.515   4.523 -2.1921  2.1977  0.3421
  486MOL0     H65588   6.540   1.720   4.284  0.5406  1.0241  1.5761
  486MOL0     H65589   6.503   1.763   4.444 -1.7577 -0.3489 -0.7333
  486MOL0     H65590   6.298   1.703   4.381 -1.1512 -0.3194 -2.2902
  486MOL0     H65591   6.353   1.546   4.451 -0.5155  2.0824  0.7773
  486MOL0     H65592   7.463   1.196   4.460 -1.5622  1.0147  1.1998
  486MOL0     H65593   7.706   1.275   4.448  0.6719  0.4935 -0.3984
  486MOL0     H65594   7.917   1.877   4.480  0.1342 -0.6802  1.2891
  486MOL0     H65595   8.138   1.966   4.479 -0.3671  0.4168 -2.2923
  486MOL0     H65596   9.970   2.011   4.569  2.4490 -2.6478 -1.2793
  486MOL0     H65597  10.154   1.891   4.660 -0.7898 -0.5208 -1.3341
  486MOL0     H65598  10.722   1.826   4.486 -0.0374 -0.4200 -0.8428
  486MOL0     H65599  10.878   1.666   4.578 -1.5800  0.7767 -1.7692
  486MOL0     H65600  10.911   1.531   5.019  1.8304  1.0350 -2.1542
  486MOL0     H65601  10.767   1.474   4.920 -0.1457  2.1857 -2.2121
  486MOL0     H65602  10.954   1.334   4.787  1.8829  1.1189 -0.2762
  486MOL0     H65603  10.911   1.297   4.958  1.1410  0.8127  2.2590
  486MOL0     H65604  11.158   1.338   4.997 -1.3611 -0.7193 -0.1620
  486MOL0     H65605  11.146   1.496   4.924 -0.3816  0.8456 -1.8971
  486MOL0     H65606  11.326   1.346   4.836  0.2256 -2.1609  0.2274
  486MOL0     H65607  11.196   1.348   4.706  1.1924  0.5781 -1.1078
  486MOL0     H65608  11.242   0.952   4.840  0.5349  1.1289  1.8506
  486MOL0     H65609  10.718   1.717   4.967 -1.4186 -1.0124 -0.2688
  486MOL0     H65610  10.537   1.848   4.878  0.2531  0.7262  0.1023
  487MOL0     O65611   6.522  10.971   3.615  0.2593  0.1656 -0.3474
  487MOL0     C65612   6.624  11.009   3.662  0.5649  0.4189 -0.1464
  487MOL0     O65613   6.642  11.143   3.691 -0.2389  0.0510  0.2164
  487MOL0     C65614   6.534  11.225   3.693  0.6830  0.0070  0.8368
  487MOL0     C65615   6.547  11.343   3.621 -0.5528  0.1886  0.5617
  487MOL0     C65616   6.444  11.436   3.610  0.0350 -0.4659 -0.5422
  487MOL0     C65617   6.326  11.418   3.677  0.5981  0.8763  0.3606
  487MOL0     O65618   6.236  11.522   3.678  0.4588  0.5764 -0.3520
  487MOL0     C65619   6.106  11.492   3.738  1.2511 -0.2537  0.5058
  487MOL0     C65620   6.020  11.615   3.717 -0.5197  0.4819 -0.2764
  487MOL0     C65621   5.878  11.609   3.771 -0.9136 -0.0348  0.3990
  487MOL0     C65622   5.791  11.733   3.760  0.6119 -0.1501 -0.8788
  487MOL0     C65623   5.642  11.693   3.796 -0.0482 -0.2999 -0.4867
  487MOL0     C65624   5.608  11.664   3.942 -0.2360  0.8013 -0.4595
  487MOL0     C65625   5.463  11.614   3.952  0.4568 -1.1832  0.5917
  487MOL0     C65626   5.424  11.620   4.097 -0.4720  0.2964  0.0807
  487MOL0     N65627   5.279  11.587   4.096  0.2627 -0.5335 -0.6752
  487MOL0     C65628   5.217  11.466   4.103  0.7753  0.1348  0.5673
  487MOL0     C65629   5.087  11.494   4.124  0.2726  0.8217  0.4722
  487MOL0     C65630   4.980  11.388   4.129 -0.9747 -0.9697 -0.2944
  487MOL0     C65631   5.001  11.294   4.246  0.0172  0.1211  0.0791
  487MOL0     C65632   4.890  11.187   4.268  0.9523 -0.4728 -0.4134
  487MOL0     C65633   4.894  11.069   4.161 -0.1548  0.0557  0.1031
  487MOL0     O65634   5.011  10.985   4.191 -0.2692  0.5161  0.6050
  487MOL0     C65635   5.050  10.897   4.091  0.0299  0.2677 -1.0911
  487MOL0     C65636   4.961  10.848   4.005 -0.5396  0.2483  0.5387
  487MOL0     C65637   5.004  10.757   3.909  0.3268 -0.7082 -0.1838
  487MOL0     C65638   4.900  10.709   3.818 -0.2935  0.2627  0.2551
  487MOL0     C65639   5.128  10.687   3.925 -0.2276  0.5820 -0.0608
  487MOL0     C65640   5.170  10.571   3.844  0.8244 -0.1625 -0.1968
  487MOL0     O65641   5.293  10.525   3.875  0.0443 -0.4416  0.7258
  487MOL0     C65642   5.341  10.433   3.785 -0.6677 -0.5566  0.5941
  487MOL0     C65643   5.333  10.294   3.820  0.1065  0.0345 -0.4552
  487MOL0     C65644   5.383  10.203   3.728  0.7521 -0.8753 -0.4290
  487MOL0     C65645   5.453  10.245   3.614  0.0876 -0.0147  0.5790
  487MOL0     O65646   5.496  10.153   3.518 -0.4121  0.3597  0.1874
  487MOL0     C65647   5.496  10.011   3.555  0.2386 -0.4833 -0.5416
  487MOL0     C65648   5.573   9.929   3.450 -0.4686  1.5986  1.0771
  487MOL0     C65649   5.525   9.921   3.303 -0.2882 -0.1772  0.4619
  487MOL0     C65650   5.395   9.843   3.295 -0.0043  0.5331  0.1126
  487MOL0     C65651   5.351   9.845   3.146  0.3685  0.6802  1.3511
  487MOL0     C65652   5.254   9.735   3.127 -0.2061  0.6624 -0.0164
  487MOL0     C65653   5.213   9.695   2.978 -0.2182  1.0771  0.3956
  487MOL0     C65654   5.320   9.717   2.869 -0.5126  0.5761 -0.7130
  487MOL0    Cl65655   5.488   9.657   2.910  0.3405  0.4399 -0.1342
  487MOL0     C65656   5.479  10.381   3.588 -0.4618  0.0301  0.5654
  487MOL0     C65657   5.417  10.473   3.674  0.8861  0.6316  0.5606
  487MOL0     O65658   5.101  10.530   3.753  0.4853  0.8233  0.9686
  487MOL0     C65659   5.217  10.731   4.032 -1.0435  0.2491 -0.3698
  487MOL0     C65660   5.176  10.831   4.106 -0.1104 -0.4631  1.0031
  487MOL0     N65661   5.069  11.631   4.122  0.0750 -0.4921 -0.1844
  487MOL0     N65662   5.186  11.683   4.105 -0.1772 -0.3959 -0.3693
  487MOL0     C65663   6.305  11.294   3.736  0.2402  0.4870  1.0634
  487MOL0     C65664   6.406  11.193   3.747 -0.5233  0.0647  0.0316
  487MOL0     C65665   6.733  10.916   3.689  0.5094 -0.8563 -0.6854
  487MOL0     C65666   6.806  10.927   3.811 -0.7104  0.2829  0.5420
  487MOL0     C65667   6.917  10.836   3.839  0.5028  0.7720 -0.4338
  487MOL0     C65668   6.960  10.745   3.735  0.2811 -0.1304  0.4614
  487MOL0     O65669   7.074  10.675   3.762 -0.1497  0.5752 -0.3451
  487MOL0     C65670   7.098  10.545   3.707  0.2719 -0.0598 -0.3215
  487MOL0     C65671   7.204  10.526   3.604 -1.0869  0.1970  0.6092
  487MOL0     C65672   7.228  10.378   3.554  0.6766 -0.5685  0.0372
  487MOL0     C65673   7.136  10.328   3.440  0.6638  0.4426 -0.5617
  487MOL0     C65674   6.991  10.327   3.480 -0.5742  0.3545  0.7453
  487MOL0     C65675   6.880  10.323   3.526  0.9250 -0.4593 -0.6331
  487MOL0     C65676   6.878  10.726   3.615 -0.1650  0.3996 -1.0076
  487MOL0     C65677   6.771  10.818   3.595 -0.1540 -0.4194  0.5672
  487MOL0     H65678   6.644  11.367   3.580 -1.1842 -0.5684 -1.5085
  487MOL0     H65679   6.460  11.534   3.567  0.2177 -0.3804 -0.2811
  487MOL0     H65680   6.050  11.406   3.701  1.4723 -0.5606  0.8688
  487MOL0     H65681   6.113  11.452   3.840 -0.6504 -2.1301 -0.0364
  487MOL0     H65682   6.070  11.693   3.775 -1.3079  0.0229  1.0835
  487MOL0     H65683   6.020  11.628   3.609  2.0602 -2.3140 -0.7419
  487MOL0     H65684   5.837  11.517   3.726  2.0544 -2.0692  1.5400
  487MOL0     H65685   5.897  11.592   3.877 -1.3704  1.2739  0.7072
  487MOL0     H65686   5.829  11.803   3.835  1.6272 -2.5195  0.9286
  487MOL0     H65687   5.793  11.780   3.661  0.1804 -0.1080 -0.8684
  487MOL0     H65688   5.580  11.777   3.765  0.9020  0.3679 -0.6424
  487MOL0     H65689   5.619  11.612   3.726  1.7775 -0.3871 -1.0337
  487MOL0     H65690   5.679  11.587   3.973  1.7634  1.8476 -2.2117
  487MOL0     H65691   5.626  11.747   4.010  2.7053  0.4467 -0.6779
  487MOL0     H65692   5.400  11.678   3.889  0.5923 -1.2147  0.4219
  487MOL0     H65693   5.454  11.509   3.924 -0.2139 -1.6925  2.5636
  487MOL0     H65694   5.453  11.716   4.141 -0.9608  0.9386 -0.9505
  487MOL0     H65695   5.488  11.545   4.145  1.8357  2.0969 -0.0073
  487MOL0     H65696   5.264  11.370   4.088  1.4470  0.4940  0.3630
  487MOL0     H65697   4.887  11.437   4.158 -1.3438 -2.1272  0.5224
  487MOL0     H65698   4.980  11.348   4.027 -0.6430  1.7142 -1.4532
  487MOL0     H65699   4.994  11.348   4.341 -0.4621  0.7002 -0.2789
  487MOL0     H65700   5.093  11.236   4.233 -1.1267 -1.5461 -0.9400
  487MOL0     H65701   4.790  11.232   4.272 -0.3798 -3.2856 -0.1108
  487MOL0     H65702   4.911  11.145   4.366  1.1832  2.7571  1.0643
  487MOL0     H65703   4.897  11.112   4.060 -0.3465  2.3382  1.0015
  487MOL0     H65704   4.808  11.002   4.169  1.7819 -2.4085  1.8166
  487MOL0     H65705   4.859  10.884   3.994  0.3287  2.6110 -0.6573
  487MOL0     H65706   4.953  10.717   3.723  1.6154  1.1351  1.3552
  487MOL0     H65707   4.878  10.602   3.825 -0.8678  0.3698  0.2173
  487MOL0     H65708   4.808  10.769   3.815  1.7584  3.7286  1.3371
  487MOL0     H65709   5.302  10.254   3.916  0.1879  1.0219  0.0004
  487MOL0     H65710   5.356  10.104   3.763  1.3401 -0.5442  1.0145
  487MOL0     H65711   5.551   9.996   3.649 -2.7266 -1.3602  1.1945
  487MOL0     H65712   5.394   9.973   3.546 -0.4757  1.6198 -2.1365
  487MOL0     H65713   5.677   9.963   3.438  0.6029 -1.7880 -0.6100
  487MOL0     H65714   5.591   9.826   3.479  0.4925  0.4013 -3.0286
  487MOL0     H65715   5.601   9.880   3.236  0.7694  0.9739  0.9271
  487MOL0     H65716   5.499  10.019   3.261 -0.1899 -0.8888 -1.3633
  487MOL0     H65717   5.413   9.743   3.334  0.8102  0.6142 -0.0411
  487MOL0     H65718   5.316   9.904   3.340 -0.7410  1.1109 -1.8699
  487MOL0     H65719   5.446   9.823   3.095  2.4090  1.8232  4.3676
  487MOL0     H65720   5.307   9.941   3.119 -1.2948 -0.3293  0.3199
  487MOL0     H65721   5.289   9.643   3.176 -0.2794 -0.3262 -1.7206
  487MOL0     H65722   5.163   9.766   3.180  0.2824  2.1512  0.0037
  487MOL0     H65723   5.125   9.747   2.938 -1.1242 -0.0580  0.8586
  487MOL0     H65724   5.187   9.589   2.973  1.6218  0.6224 -0.4246
  487MOL0     H65725   5.332   9.820   2.835  0.7199  1.3167  1.7300
  487MOL0     H65726   5.278   9.668   2.781  0.2541  0.8733 -1.2572
  487MOL0     H65727   5.536  10.408   3.500  2.0028 -2.0229  1.3989
  487MOL0     H65728   5.432  10.578   3.653 -0.8218  1.0972  1.5166
  487MOL0     H65729   5.314  10.686   4.048 -0.4645  1.7994  0.7109
  487MOL0     H65730   5.246  10.862   4.183 -1.2614  1.6342  1.2792
  487MOL0     H65731   6.214  11.252   3.778 -0.4751 -0.7175 -1.4962
  487MOL0     H65732   6.387  11.106   3.808  0.3631  0.6230  1.1446
  487MOL0     H65733   6.779  10.998   3.888  0.0753 -1.9491  3.0207
  487MOL0     H65734   6.973  10.848   3.931 -0.5454  0.1677  0.3072
  487MOL0     H65735   7.136  10.483   3.788  2.2958 -0.2276 -1.3373
  487MOL0     H65736   7.011  10.496   3.661  1.8078 -1.3195 -2.0267
  487MOL0     H65737   7.298  10.556   3.651 -0.4462  0.4436 -0.7988
  487MOL0     H65738   7.188  10.589   3.516  1.4639 -0.3550 -0.3292
  487MOL0     H65739   7.221  10.308   3.638  0.2632 -2.6711 -1.6705
  487MOL0     H65740   7.331  10.378   3.516  0.1083  2.9622 -1.9649
  487MOL0     H65741   7.170  10.227   3.416  2.1056 -0.0454  2.9040
  487MOL0     H65742   7.144  10.392   3.352  1.2786  2.1322  0.6549
  487MOL0     H65743   6.791  10.311   3.585  0.4865 -0.1628 -1.2140
  487MOL0     H65744   6.894  10.651   3.539 -0.5901 -1.0296  0.2670
  487MOL0     H65745   6.711  10.802   3.506  1.3388  0.7007 -0.6950
  488MOL0     O65746   9.743   2.967   9.516 -0.8141  0.5651 -0.1804
  488MOL0     C65747   9.685   2.877   9.456  0.9585  0.1611 -0.7875
  488MOL0     O65748   9.548   2.867   9.454 -0.0601  0.3875 -0.1611
  488MOL0     C65749   9.470   2.943   9.537  0.8737 -0.6579  0.2530
  488MOL0     C65750   9.502   2.985   9.667 -0.1015  0.3048  0.1974
  488MOL0     C65751   9.420   3.071   9.729 -0.1091  0.6632 -0.6529
  488MOL0     C65752   9.306   3.124   9.680 -0.6258 -0.4159  0.6196
  488MOL0     O65753   9.229   3.223   9.744 -0.4365  0.6986  0.2295
  488MOL0     C65754   9.215   3.217   9.884 -0.2650  0.7196 -0.2647
  488MOL0     C65755   9.228   3.357   9.948 -0.2407  0.8207  0.8516
  488MOL0     C65756   9.361   3.415   9.909  0.3500 -0.4146 -0.2108
  488MOL0     C65757   9.411   3.518  10.008 -0.1519  0.1024  0.3791
  488MOL0     C65758   9.299   3.601  10.070  0.0169  0.5545 -0.3025
  488MOL0     C65759   9.360   3.717  10.150  0.1043  0.2057  0.0638
  488MOL0     C65760   9.253   3.808  10.214 -0.1996  0.3144 -1.1673
  488MOL0     C65761   9.312   3.903  10.328  0.7139  0.5169 -0.8226
  488MOL0     N65762   9.324   3.838  10.456  1.3137  0.1392 -0.8724
  488MOL0     C65763   9.221   3.755  10.517 -1.1394 -0.5379  0.1263
  488MOL0     C65764   9.271   3.715  10.635 -0.5700 -0.0638 -0.3068
  488MOL0     C65765   9.213   3.643  10.753  0.0913  0.0965 -1.2749
  488MOL0     C65766   9.070   3.591  10.734  0.1188  0.2536 -0.1023
  488MOL0     C65767   9.011   3.565  10.877 -0.1158  0.0399  0.4675
  488MOL0     C65768   8.886   3.488  10.867  0.3828 -0.1817 -0.5227
  488MOL0     O65769   8.784   3.568  10.806  0.0973  0.4350  0.2129
  488MOL0     C65770   8.654   3.529  10.849  0.5661 -0.6137 -0.0447
  488MOL0     C65771   8.591   3.567  10.970 -0.0828  0.0244 -0.6239
  488MOL0     C65772   8.470   3.529  11.014 -0.0225  0.2325  0.3695
  488MOL0     C65773   8.423   3.592  11.142 -0.4145 -0.5348  1.0114
  488MOL0     C65774   8.401   3.428  10.947  0.0596 -0.1310  0.9314
  488MOL0     C65775   8.276   3.378  10.980  0.3731 -0.3010 -1.1837
  488MOL0     O65776   8.231   3.269  10.917  0.2372  0.5594 -0.5542
  488MOL0     C65777   8.100   3.227  10.922  0.5238  0.6349  0.1204
  488MOL0     C65778   7.984   3.310  10.911 -0.6812 -1.1201  0.0051
  488MOL0     C65779   7.863   3.254  10.927 -0.1641 -0.2897 -0.0973
  488MOL0     C65780   7.838   3.116  10.930 -0.4025  0.6681 -0.9807
  488MOL0     O65781   7.701   3.078  10.939  0.3140  0.7761 -0.8355
  488MOL0     C65782   7.664   2.933  10.933 -0.0225 -0.4679 -0.1950
  488MOL0     C65783   7.517   2.911  10.968 -0.7740 -0.0579  0.5086
  488MOL0     C65784   7.414   3.007  10.900 -0.3749 -0.1710 -0.6142
  488MOL0     C65785   7.399   2.968  10.752 -0.3534  0.5051  0.0754
  488MOL0     C65786   7.311   3.052  10.669  0.2787  0.6629  0.2317
  488MOL0     C65787   7.157   3.023  10.677 -1.2752 -0.4869  0.7474
  488MOL0     C65788   7.068   3.068  10.561 -0.4598  0.4151 -1.0675
  488MOL0     C65789   7.082   2.955  10.461 -0.0720  0.3254 -0.4997
  488MOL0    Cl65790   6.987   3.011  10.329  0.1136  0.4101  0.5415
  488MOL0     C65791   7.948   3.034  10.920  0.1049  0.5848  0.2305
  488MOL0     C65792   8.078   3.093  10.921 -0.4696  0.4698 -0.0435
  488MOL0     O65793   8.206   3.440  11.063 -0.4385 -0.0389  0.2514
  488MOL0     C65794   8.456   3.381  10.825  0.4165  0.7861 -0.1906
  488MOL0     C65795   8.579   3.436  10.777  0.9607  0.7141  0.2039
  488MOL0     N65796   9.404   3.768  10.645 -0.9707 -0.3079  0.6231
  488MOL0     N65797   9.432   3.836  10.542 -0.2330 -0.5352  0.5227
  488MOL0     C65798   9.265   3.076   9.555 -0.1653 -1.2436  0.6656
  488MOL0     C65799   9.345   2.978   9.480  0.2801  0.4248  0.0351
  488MOL0     C65800   9.766   2.769   9.400  0.0080  0.2525  0.0865
  488MOL0     C65801   9.703   2.645   9.354 -0.6292  0.4845  0.2662
  488MOL0     C65802   9.788   2.535   9.312 -0.0232 -0.3607  0.4990
  488MOL0     C65803   9.924   2.554   9.316 -0.2718  1.1153 -0.3695
  488MOL0     O65804   9.988   2.438   9.275  0.0803  0.0746 -0.2434
  488MOL0     C65805  10.129   2.418   9.301 -0.2783 -0.3118  0.3437
  488MOL0     C65806  10.177   2.424   9.450 -0.2812  0.3238  0.0852
  488MOL0     C65807  10.128   2.310   9.533  0.0031  1.0152  0.2112
  488MOL0     C65808  10.152   2.336   9.678  0.8675 -0.3285 -0.3373
  488MOL0     C65809  10.288   2.360   9.728  0.1362 -0.2126  0.3507
  488MOL0     C65810  10.403   2.383   9.759 -0.7577  0.1819 -0.0579
  488MOL0     C65811   9.985   2.671   9.342 -0.5594 -0.3813 -0.2408
  488MOL0     C65812   9.904   2.781   9.386  0.1068 -0.5097 -0.8005
  488MOL0     H65813   9.594   2.961   9.718  1.7497  2.2724 -1.9562
  488MOL0     H65814   9.446   3.109   9.828  0.5678 -0.7360 -0.2708
  488MOL0     H65815   9.114   3.176   9.897 -0.0104  0.5426  1.4092
  488MOL0     H65816   9.283   3.146   9.932  2.9750  2.2497 -2.2628
  488MOL0     H65817   9.145   3.419   9.913  0.3511  1.2865  0.2567
  488MOL0     H65818   9.222   3.339  10.056  3.4603  1.0949  1.2474
  488MOL0     H65819   9.441   3.340   9.903 -2.7815 -3.9302 -2.8309
  488MOL0     H65820   9.354   3.443   9.803 -1.0706 -0.5684 -0.1747
  488MOL0     H65821   9.457   3.461  10.089  0.4587 -1.8193 -1.2365
  488MOL0     H65822   9.493   3.576   9.967 -0.3033  0.5183  0.6566
  488MOL0     H65823   9.223   3.643  10.003 -0.8412 -1.4569 -0.6503
  488MOL0     H65824   9.244   3.551  10.149 -0.9030  1.0462 -0.6129
  488MOL0     H65825   9.426   3.680  10.229  0.9922  2.1927  0.2994
  488MOL0     H65826   9.430   3.772  10.086  1.3361 -1.6564 -0.2771
  488MOL0     H65827   9.200   3.867  10.139  2.1004  2.7339 -1.0469
  488MOL0     H65828   9.173   3.745  10.253 -1.1931  2.0550 -0.2309
  488MOL0     H65829   9.249   3.991  10.346  1.2421  0.5980  0.7146
  488MOL0     H65830   9.410   3.948  10.308  0.0498  2.4618  0.0344
  488MOL0     H65831   9.119   3.737  10.484 -1.8697  0.5943  1.6390
  488MOL0     H65832   9.278   3.562  10.786 -0.5813  0.2387  0.4904
  488MOL0     H65833   9.212   3.718  10.833 -2.8578  0.5896 -1.6575
  488MOL0     H65834   9.078   3.504  10.668  2.5977 -2.3446  3.2403
  488MOL0     H65835   9.004   3.657  10.677  0.6912 -2.1940 -3.8890
  488MOL0     H65836   8.990   3.660  10.927  1.5419  1.0784 -0.7104
  488MOL0     H65837   9.085   3.511  10.936  0.0584  3.8185  4.1834
  488MOL0     H65838   8.858   3.451  10.965 -0.5270  2.2207  0.1936
  488MOL0     H65839   8.913   3.402  10.805 -1.6812 -0.6143 -0.8904
  488MOL0     H65840   8.653   3.638  11.025  3.4330 -3.0668 -0.2146
  488MOL0     H65841   8.337   3.658  11.129 -0.2578 -0.7021 -1.2568
  488MOL0     H65842   8.396   3.505  11.202 -2.9511 -0.1297  0.5512
  488MOL0     H65843   8.503   3.657  11.179  0.7246 -1.4625  0.2209
  488MOL0     H65844   8.001   3.417  10.916 -4.1064 -0.4980  0.5886
  488MOL0     H65845   7.771   3.311  10.934 -1.2245 -1.7162 -1.5564
  488MOL0     H65846   7.686   2.902  10.831  0.8201 -4.8534  1.1083
  488MOL0     H65847   7.720   2.877  11.008  1.1630  0.8971 -0.0118
  488MOL0     H65848   7.487   2.807  10.950  1.3450 -0.4222 -1.4691
  488MOL0     H65849   7.527   2.945  11.071  2.7746  0.3257  0.1697
  488MOL0     H65850   7.443   3.111  10.915  4.4769 -0.9451 -2.7939
  488MOL0     H65851   7.322   2.992  10.958  0.6135 -1.1497  0.7573
  488MOL0     H65852   7.494   2.970  10.698  0.0931 -0.2642  0.8018
  488MOL0     H65853   7.356   2.869  10.738 -0.8160  0.9225 -1.8324
  488MOL0     H65854   7.346   3.058  10.566 -0.5844 -0.0618 -0.1182
  488MOL0     H65855   7.331   3.149  10.715 -1.9175  0.3024  2.1306
  488MOL0     H65856   7.124   2.920  10.688 -2.1339 -0.2062  0.8544
  488MOL0     H65857   7.124   3.079  10.765  1.8491  0.7024  1.2928
  488MOL0     H65858   7.097   3.169  10.531 -1.0466  1.3604  1.3854
  488MOL0     H65859   6.966   3.071  10.600  1.0198  1.3671  3.3047
  488MOL0     H65860   7.038   2.865  10.504  0.5908  0.8203  1.2841
  488MOL0     H65861   7.184   2.944  10.421 -0.2795  0.4785 -1.0847
  488MOL0     H65862   7.933   2.927  10.916  2.7190  0.1161  1.0774
  488MOL0     H65863   8.161   3.024  10.935  0.0289  1.1804  0.5911
  488MOL0     H65864   8.409   3.296  10.776  1.0795  0.5182 -0.3740
  488MOL0     H65865   8.622   3.394  10.687 -1.9848 -1.2242 -0.4639
  488MOL0     H65866   9.173   3.116   9.514  1.3137  4.0919  1.7644
  488MOL0     H65867   9.308   2.959   9.379 -2.0771  0.7683  0.7628
  488MOL0     H65868   9.596   2.631   9.360 -0.6440 -1.4765 -2.3443
  488MOL0     H65869   9.749   2.437   9.286 -0.5925 -0.4602  1.6345
  488MOL0     H65870  10.160   2.320   9.262  1.6660  0.1579  0.6058
  488MOL0     H65871  10.191   2.487   9.243  1.4545  0.0592  2.5149
  488MOL0     H65872  10.137   2.515   9.495 -1.7259 -0.0975 -0.2984
  488MOL0     H65873  10.286   2.427   9.453 -0.2620  2.7008 -0.9482
  488MOL0     H65874  10.183   2.220   9.505  2.5606  2.0606  1.4915
  488MOL0     H65875  10.021   2.292   9.518  0.5071 -3.0440  0.4209
  488MOL0     H65876  10.113   2.252   9.737  1.9223 -1.6794 -1.5164
  488MOL0     H65877  10.094   2.423   9.709 -0.2614 -0.2068 -2.5783
  488MOL0     H65878  10.503   2.411   9.782  0.0274 -0.5514 -2.2814
  488MOL0     H65879  10.093   2.675   9.337 -0.6176  1.9124 -0.7361
  488MOL0     H65880   9.950   2.870   9.429 -1.9008 -0.7863  2.1579
  489MOL0     O65881   4.700  10.507   9.815 -0.3412  0.5623 -0.1899
  489MOL0     C65882   4.737  10.599   9.892  0.2275  0.3176  0.0965
  489MOL0     O65883   4.663  10.637   9.996 -0.0575 -0.1079  0.4764
  489MOL0     C65884   4.540  10.584  10.011  0.2830  0.1135 -0.6749
  489MOL0     C65885   4.506  10.549  10.148 -0.7000 -0.0095  0.3138
  489MOL0     C65886   4.383  10.489  10.173 -0.5308  0.7082  0.6852
  489MOL0     C65887   4.295  10.458  10.068 -1.6951 -0.2435  0.3754
  489MOL0     O65888   4.160  10.427  10.080  1.2062 -0.1253  0.0738
  489MOL0     C65889   4.090  10.434  10.207 -0.1784 -0.2641 -0.3751
  489MOL0     C65890   4.035  10.573  10.238  1.1609 -0.6878  0.2055
  489MOL0     C65891   3.963  10.589  10.376 -0.7143  0.5083 -0.3613
  489MOL0     C65892   4.060  10.575  10.489  0.4808 -0.9582  0.1008
  489MOL0     C65893   4.004  10.607  10.625  0.7808  0.5546  0.2155
  489MOL0     C65894   3.900  10.505  10.683  0.2440 -0.8325  0.4487
  489MOL0     C65895   3.863  10.563  10.820  0.3845  0.3898 -0.5627
  489MOL0     C65896   3.767  10.472  10.898  0.0797  0.4264 -0.1198
  489MOL0     N65897   3.669  10.406  10.821  0.2326 -0.2961  0.3223
  489MOL0     C65898   3.677  10.273  10.774  0.0053 -0.8125 -0.1042
  489MOL0     C65899   3.559  10.251  10.716 -0.3945 -0.4050  0.1430
  489MOL0     C65900   3.518  10.138  10.635 -0.0669  0.1997 -0.0228
  489MOL0     C65901   3.369  10.128  10.576 -0.1303 -0.0075  0.0027
  489MOL0     C65902   3.261  10.155  10.678  0.8238  0.0393  0.2244
  489MOL0     C65903   3.270  10.060  10.809  0.2797  0.0528  0.4215
  489MOL0     O65904   3.174  10.101  10.912  0.4392 -0.5469 -0.2321
  489MOL0     C65905   3.036  10.088  10.887 -0.2543  0.4798 -0.1308
  489MOL0     C65906   2.967  10.023  10.784 -0.1084  0.1224 -0.0829
  489MOL0     C65907   2.829  10.050  10.750 -0.1776 -0.6884 -1.3308
  489MOL0     C65908   2.785   9.998  10.618 -0.1609 -0.1606 -0.9433
  489MOL0     C65909   2.749  10.121  10.839  0.0026  0.4175  0.4710
  489MOL0     C65910   2.604  10.141  10.832  0.9430  0.0974  0.6253
  489MOL0     O65911   2.533  10.175  10.945  0.4773 -0.4542  0.2366
  489MOL0     C65912   2.393  10.186  10.937 -0.8201 -0.1109 -1.2279
  489MOL0     C65913   2.327  10.304  10.994  0.6124  0.6257 -0.3545
  489MOL0     C65914   2.187  10.311  10.994 -0.6223  0.0911 -0.0379
  489MOL0     C65915   2.111  10.212  10.930  0.6237 -0.5853  0.2886
  489MOL0     O65916   1.974  10.238  10.922  0.3633  0.4720  0.4928
  489MOL0     C65917   1.919  10.211  10.786 -0.7589 -0.2200 -0.4508
  489MOL0     C65918   1.772  10.240  10.776  0.9752 -0.1250 -0.5723
  489MOL0     C65919   1.708  10.131  10.861  0.3419 -0.1745 -1.3554
  489MOL0     C65920   1.570  10.178  10.906 -0.3139  0.1287  0.0650
  489MOL0     C65921   1.494  10.069  10.968  0.7484  0.1046 -0.5620
  489MOL0     C65922   1.348  10.091  11.009 -0.6318 -1.1290  0.0249
  489MOL0     C65923   1.291   9.970  11.089 -0.7858 -0.7068  0.8645
  489MOL0     C65924   1.183  10.011  11.181 -0.3725  0.1593  1.3573
  489MOL0    Cl65925   1.048  10.051  11.085 -0.2243 -0.1824  0.3721
  489MOL0     C65926   2.177  10.102  10.875 -0.6710 -0.2666  0.2350
  489MOL0     C65927   2.317  10.089  10.871 -0.3916 -0.8580 -0.5265
  489MOL0     O65928   2.562  10.149  10.718  0.1484  0.4783  0.1093
  489MOL0     C65929   2.814  10.196  10.941  0.0722  0.6714  0.0564
  489MOL0     C65930   2.953  10.170  10.958  0.2612 -0.0879 -0.0243
  489MOL0     N65931   3.483  10.359  10.733 -0.7242 -0.3009 -0.0149
  489MOL0     N65932   3.549  10.455  10.794  0.0868 -0.6665  0.1612
  489MOL0     C65933   4.323  10.509   9.944 -0.1809  0.0872  1.3621
  489MOL0     C65934   4.444  10.564   9.911  0.1177  0.4599  0.1853
  489MOL0     C65935   4.864  10.658   9.870 -0.1519 -0.6719  0.5780
  489MOL0     C65936   4.958  10.604   9.792  0.1530  0.1145 -0.9029
  489MOL0     C65937   5.092  10.659   9.785  0.1134  0.2189 -0.4676
  489MOL0     C65938   5.127  10.776   9.863 -0.5369  0.1356  0.3593
  489MOL0     O65939   5.253  10.835   9.844  0.4874 -0.3776 -0.5505
  489MOL0     C65940   5.357  10.752   9.793 -0.4771  0.7857 -0.6925
  489MOL0     C65941   5.501  10.814   9.816  0.2978  0.0999 -0.6439
  489MOL0     C65942   5.622  10.775   9.731  0.0595 -0.0997 -0.0403
  489MOL0     C65943   5.601  10.807   9.576 -1.0512  0.2776 -0.5094
  489MOL0     C65944   5.724  10.772   9.504  0.1546 -0.3040 -0.3893
  489MOL0     C65945   5.814  10.738   9.427 -0.4376 -0.4646 -0.3766
  489MOL0     C65946   5.036  10.821   9.955 -0.4158 -1.6808 -0.1484
  489MOL0     C65947   4.905  10.775   9.946 -0.5852 -0.3969 -0.2175
  489MOL0     H65948   4.573  10.563  10.231 -2.2504 -2.5283  2.1301
  489MOL0     H65949   4.365  10.453  10.274  1.8631 -1.1039  0.5563
  489MOL0     H65950   4.003  10.367  10.207 -1.1090  0.9207 -0.2158
  489MOL0     H65951   4.157  10.405  10.288 -0.3515  1.9177  0.6142
  489MOL0     H65952   4.114  10.648  10.233 -1.5719  2.3628  0.0624
  489MOL0     H65953   3.968  10.600  10.156  2.9519  1.2357 -0.7053
  489MOL0     H65954   3.923  10.691  10.374  0.5278  1.1738  2.7473
  489MOL0     H65955   3.880  10.518  10.391 -1.8617  2.1021  1.2440
  489MOL0     H65956   4.108  10.476  10.487 -0.1025 -1.2488 -1.3750
  489MOL0     H65957   4.143  10.645  10.478 -1.8532  1.7247 -1.7672
  489MOL0     H65958   4.089  10.615  10.694 -0.9286  0.6360  2.3994
  489MOL0     H65959   3.964  10.709  10.618  1.0500  0.6418 -0.0564
  489MOL0     H65960   3.814  10.505  10.614 -0.2848  2.2258  0.9719
  489MOL0     H65961   3.932  10.400  10.689  0.4900 -0.7148  1.2221
  489MOL0     H65962   3.955  10.578  10.877  0.3532  0.5808 -0.5607
  489MOL0     H65963   3.804  10.654  10.805 -0.5531  0.0261  0.7048
  489MOL0     H65964   3.706  10.526  10.972  0.9437 -0.0599  0.9708
  489MOL0     H65965   3.824  10.394  10.949 -2.0747 -0.7660  0.6164
  489MOL0     H65966   3.768  10.213  10.774  0.5306 -0.0461  0.8531
  489MOL0     H65967   3.592  10.124  10.555  0.0868  0.1155  0.1320
  489MOL0     H65968   3.529  10.065  10.716 -1.2691 -0.0421 -0.0645
  489MOL0     H65969   3.336  10.030  10.542  2.7678 -1.8772  2.0641
  489MOL0     H65970   3.363  10.195  10.489 -3.1267  1.5400  1.2418
  489MOL0     H65971   3.165  10.127  10.634  0.0356  1.0288  1.2445
  489MOL0     H65972   3.258  10.256  10.720 -1.2070 -0.2721  0.9898
  489MOL0     H65973   3.370  10.062  10.853  0.7853 -0.0601 -0.7064
  489MOL0     H65974   3.252   9.959  10.770  2.6702 -0.4231  0.4494
  489MOL0     H65975   3.032   9.955  10.730  2.4684  1.6142  0.9469
  489MOL0     H65976   2.698   9.933  10.615 -0.0253 -0.3106 -1.8140
  489MOL0     H65977   2.741  10.082  10.563 -1.3341  1.5761  2.3546
  489MOL0     H65978   2.862   9.939  10.567 -1.9751 -2.5367 -1.0828
  489MOL0     H65979   2.379  10.385  11.044 -4.3178  2.5969  2.2306
  489MOL0     H65980   2.136  10.400  11.031 -2.1740 -0.8745  0.1994
  489MOL0     H65981   1.976  10.271  10.714 -2.2309  0.5742 -1.0102
  489MOL0     H65982   1.942  10.106  10.764  2.7106  0.2522  0.4570
  489MOL0     H65983   1.741  10.341  10.806 -0.4949 -1.0518  1.2458
  489MOL0     H65984   1.735  10.225  10.674 -0.7486  2.0106 -0.3396
  489MOL0     H65985   1.765  10.113  10.952 -1.4578 -2.5882 -0.6075
  489MOL0     H65986   1.699  10.034  10.812  2.2032 -2.0194  1.6718
  489MOL0     H65987   1.587  10.263  10.973  6.9860  1.1230 -2.2091
  489MOL0     H65988   1.510  10.210  10.821 -0.8317 -1.1573 -0.0768
  489MOL0     H65989   1.549  10.039  11.058 -0.3109  2.4319  0.9450
  489MOL0     H65990   1.498   9.976  10.910  1.7880 -1.8216  2.3515
  489MOL0     H65991   1.345  10.187  11.062  1.8491  0.1516 -1.9186
  489MOL0     H65992   1.287  10.103  10.920 -0.9134  1.0784  0.4520
  489MOL0     H65993   1.368   9.924  11.152 -0.9214 -3.2633 -0.6867
  489MOL0     H65994   1.254   9.894  11.019 -1.8155 -0.0447  0.6725
  489MOL0     H65995   1.201  10.108  11.228  0.7938  0.2848  0.6798
  489MOL0     H65996   1.161   9.924  11.244 -4.5116 -1.1289 -1.4944
  489MOL0     H65997   2.116  10.037  10.813 -2.1678  1.4785 -0.2099
  489MOL0     H65998   2.362  10.012  10.808  4.0557  1.1164 -0.1363
  489MOL0     H65999   2.761  10.261  11.010 -2.7483 -0.9763 -0.4064
  489MOL0     H66000   3.008  10.230  11.030  0.6839  0.9246 -1.1467
  489MOL0     H66001   4.260  10.478   9.862  3.8462  0.0998 -2.1211
  489MOL0     H66002   4.451  10.595   9.807 -3.9264 -0.1013 -0.3988
  489MOL0     H66003   4.941  10.510   9.740  3.6001 -1.8437  1.0849
  489MOL0     H66004   5.167  10.612   9.722  0.9538  0.5010  0.3115
  489MOL0     H66005   5.350  10.655   9.845 -1.4867  1.0126 -0.3693
  489MOL0     H66006   5.340  10.735   9.687  1.5522  1.1215 -1.1048
  489MOL0     H66007   5.524  10.793   9.921 -1.3276 -1.3916 -0.5357
  489MOL0     H66008   5.490  10.923   9.810 -1.4893 -0.1261 -2.7814
  489MOL0     H66009   5.643  10.667   9.738  2.2245  0.2634 -0.3469
  489MOL0     H66010   5.714  10.825   9.761 -1.2125  0.9053  2.5166
  489MOL0     H66011   5.584  10.914   9.557 -1.6865  0.3085  0.1958
  489MOL0     H66012   5.517  10.744   9.547  0.5532 -2.8736  1.2027
  489MOL0     H66013   5.894  10.702   9.366 -0.1085  0.1994 -0.3482
  489MOL0     H66014   5.070  10.899  10.022  0.6735  0.2131 -2.7156
  489MOL0     H66015   4.826  10.813  10.010 -1.5384 -2.5293 -0.0111
  490MOL0     O66016   4.698   2.107  11.138 -0.3355  0.2446 -0.4532
  490MOL0     C66017   4.774   2.095  11.047 -0.6568  0.4774  0.8100
  490MOL0     O66018   4.751   2.118  10.913  0.1869 -0.1589 -0.0737
  490MOL0     C66019   4.625   2.147  10.861 -0.2028  0.3077 -0.0618
  490MOL0     C66020   4.558   2.268  10.865 -0.0793 -0.2161 -0.1677
  490MOL0     C66021   4.437   2.283  10.798 -0.2850 -0.1844  0.3217
  490MOL0     C66022   4.377   2.173  10.733  0.3721 -0.1886 -0.2361
  490MOL0     O66023   4.252   2.205  10.686 -0.3991 -0.5827  0.1230
  490MOL0     C66024   4.189   2.107  10.605  0.4596  0.1463  0.3657
  490MOL0     C66025   4.065   2.183  10.558 -0.4385  0.0044  0.0853
  490MOL0     C66026   3.971   2.087  10.483  0.2240 -0.4776  0.7771
  490MOL0     C66027   3.860   2.158  10.406 -0.3314  0.3565 -0.1302
  490MOL0     C66028   3.753   2.224  10.498 -0.1793 -0.3978  0.3686
  490MOL0     C66029   3.641   2.273  10.412  0.8087  0.1425 -1.2698
  490MOL0     C66030   3.518   2.334  10.491  0.1684 -0.3842 -0.2773
  490MOL0     C66031   3.391   2.373  10.402  0.1190 -0.3127  0.4268
  490MOL0     N66032   3.277   2.435  10.470 -0.5356 -0.4498  0.2169
  490MOL0     C66033   3.267   2.567  10.505 -0.2487 -0.7132  1.0838
  490MOL0     C66034   3.138   2.583  10.547 -0.1453 -0.6783 -0.1266
  490MOL0     C66035   3.080   2.720  10.582 -0.4962 -0.7255 -0.2217
  490MOL0     C66036   2.943   2.747  10.509  0.8555  0.6504  0.0369
  490MOL0     C66037   2.832   2.673  10.580 -0.0496 -0.1648 -0.1065
  490MOL0     C66038   2.705   2.711  10.515  0.4626  0.1382  0.9523
  490MOL0     O66039   2.593   2.635  10.559  0.5256  0.6050  0.2522
  490MOL0     C66040   2.480   2.702  10.574 -1.5845  0.3475 -0.0143
  490MOL0     C66041   2.400   2.651  10.678 -0.7944 -0.7470  0.2434
  490MOL0     C66042   2.283   2.717  10.721 -0.4291  0.3685  1.1174
  490MOL0     C66043   2.207   2.666  10.839  0.0511  0.6057  0.4053
  490MOL0     C66044   2.250   2.834  10.657  0.6055  0.4792  0.1327
  490MOL0     C66045   2.120   2.917  10.675  0.0962 -0.4544 -0.2465
  490MOL0     O66046   2.031   2.874  10.775  0.5435 -0.0034 -0.2455
  490MOL0     C66047   1.916   2.942  10.793 -0.3426  0.6026  0.2481
  490MOL0     C66048   1.915   3.068  10.852  0.7546  0.5278 -0.3696
  490MOL0     C66049   1.799   3.143  10.865 -0.1562  1.0001  0.1029
  490MOL0     C66050   1.677   3.093  10.817  0.2232  0.8994 -0.0901
  490MOL0     O66051   1.563   3.173  10.834 -0.0119 -0.7467  0.3584
  490MOL0     C66052   1.459   3.090  10.890  0.8604 -0.6471  0.0039
  490MOL0     C66053   1.344   3.186  10.915  0.1622  0.4267 -1.6562
  490MOL0     C66054   1.371   3.289  11.023 -0.1654  0.0578  0.4930
  490MOL0     C66055   1.332   3.242  11.170 -0.6653 -0.8152  0.5434
  490MOL0     C66056   1.443   3.260  11.270  0.1547  0.6745 -1.6388
  490MOL0     C66057   1.547   3.162  11.251 -0.9742 -0.0187  0.6540
  490MOL0     C66058   1.663   3.174  11.347  0.1336  0.8446 -0.0662
  490MOL0     C66059   1.739   3.041  11.376 -0.3841 -0.6882  0.2774
  490MOL0    Cl66060   1.817   2.991  11.220  0.2572 -0.0652 -0.0882
  490MOL0     C66061   1.677   2.965  10.759  0.2466 -0.7256 -0.6198
  490MOL0     C66062   1.793   2.889  10.754 -1.3376 -0.0158 -0.5022
  490MOL0     O66063   2.111   3.019  10.602 -0.1738 -0.2109  0.1155
  490MOL0     C66064   2.331   2.885  10.543 -0.2767  0.7240  1.2314
  490MOL0     C66065   2.450   2.821  10.506  1.0216  0.0496 -0.3976
  490MOL0     N66066   3.071   2.460  10.547  0.7943  0.4164  0.3299
  490MOL0     N66067   3.154   2.375  10.494 -0.4389 -0.3478 -0.4401
  490MOL0     C66068   4.442   2.052  10.730  0.2978 -0.3804  0.2714
  490MOL0     C66069   4.567   2.042  10.789 -0.7505 -0.6497 -0.8467
  490MOL0     C66070   4.910   2.042  11.067 -1.4325  0.4868  0.0215
  490MOL0     C66071   4.993   1.998  10.960 -0.9175 -0.2937  1.0665
  490MOL0     C66072   5.115   1.928  10.976 -1.0785 -0.2524 -0.9498
  490MOL0     C66073   5.151   1.892  11.108  0.1778  0.4513 -0.0133
  490MOL0     O66074   5.254   1.803  11.128 -0.1997  0.3691  0.5467
  490MOL0     C66075   5.363   1.857  11.200 -0.7066 -0.1643 -1.0058
  490MOL0     C66076   5.488   1.829  11.117 -0.5078  0.6511  1.1841
  490MOL0     C66077   5.471   1.847  10.960  0.2609  0.5839  0.1235
  490MOL0     C66078   5.412   1.735  10.869 -0.5249  0.1057 -0.6265
  490MOL0     C66079   5.405   1.781  10.734 -0.5810 -0.1070  1.3179
  490MOL0     C66080   5.389   1.809  10.617  0.2287  0.0987  0.1974
  490MOL0     C66081   5.069   1.930  11.216  0.3725  0.8744 -0.2524
  490MOL0     C66082   4.953   2.007  11.193 -0.6311  0.0734 -0.2787
  490MOL0     H66083   4.593   2.352  10.922 -1.4927  1.7281 -2.0089
  490MOL0     H66084   4.378   2.370  10.827 -1.6589 -1.9736  3.3255
  490MOL0     H66085   4.252   2.075  10.522 -1.8661  0.1414 -1.5090
  490MOL0     H66086   4.164   2.020  10.666  0.8447  0.3094  0.7639
  490MOL0     H66087   4.015   2.234  10.641 -1.9697  0.9309 -1.3295
  490MOL0     H66088   4.106   2.271  10.507  0.3931  0.5671  1.6707
  490MOL0     H66089   4.032   2.025  10.417  1.3980 -0.6438  1.9640
  490MOL0     H66090   3.933   2.029  10.567 -2.2592  1.7484  1.3173
  490MOL0     H66091   3.901   2.231  10.335 -1.6458  1.1737 -0.0673
  490MOL0     H66092   3.814   2.081  10.344  0.5488 -0.0159 -0.3477
  490MOL0     H66093   3.720   2.155  10.576  2.5509 -0.1204  1.8904
  490MOL0     H66094   3.815   2.303  10.540  2.0429 -0.0486 -3.1498
  490MOL0     H66095   3.680   2.343  10.338  1.2077 -0.3811 -1.5621
  490MOL0     H66096   3.589   2.192  10.360 -2.2400 -0.2385  1.9568
  490MOL0     H66097   3.478   2.272  10.572 -1.0327  0.1674 -0.4193
  490MOL0     H66098   3.550   2.426  10.540  0.7116  0.4152 -2.0289
  490MOL0     H66099   3.356   2.279  10.359 -0.3817  0.4165 -0.8224
  490MOL0     H66100   3.426   2.434  10.318  2.4447 -0.0216  1.5261
  490MOL0     H66101   3.341   2.644  10.485  0.8291 -2.3706 -1.8569
  490MOL0     H66102   3.076   2.737  10.690  0.4833  1.9955 -0.5323
  490MOL0     H66103   3.150   2.800  10.553 -3.4616  2.9227  1.8403
  490MOL0     H66104   2.948   2.723  10.403 -0.6281 -1.1688  0.3193
  490MOL0     H66105   2.915   2.853  10.506  1.4602  0.8350 -3.9021
  490MOL0     H66106   2.821   2.706  10.684  0.4637 -1.0683  0.2443
  490MOL0     H66107   2.839   2.564  10.581 -3.6693 -0.5227  0.6571
  490MOL0     H66108   2.692   2.685  10.409 -2.3304 -0.6181  1.3986
  490MOL0     H66109   2.700   2.820  10.507  1.4361  0.2258  1.3895
  490MOL0     H66110   2.433   2.570  10.742 -1.2267 -1.1212 -0.0030
  490MOL0     H66111   2.259   2.577  10.878  0.2719 -0.6625 -2.5263
  490MOL0     H66112   2.206   2.741  10.918  1.0251  4.2805 -2.7706
  490MOL0     H66113   2.109   2.629  10.808  0.9636 -1.8525  0.1918
  490MOL0     H66114   2.009   3.108  10.890 -0.5122  1.8083  1.5800
  490MOL0     H66115   1.808   3.239  10.915  4.2355  3.0488 -3.9113
  490MOL0     H66116   1.436   3.016  10.812  4.3349 -0.8528 -0.9681
  490MOL0     H66117   1.483   3.039  10.984 -1.9115 -1.0515  0.5874
  490MOL0     H66118   1.311   3.238  10.825 -0.0472  1.7147 -0.8635
  490MOL0     H66119   1.258   3.130  10.952  0.7843  0.4040 -0.1721
  490MOL0     H66120   1.316   3.381  11.002  0.6784  0.3654 -0.4049
  490MOL0     H66121   1.476   3.319  11.018  0.6541 -2.1356  2.5296
  490MOL0     H66122   1.241   3.298  11.195  1.3348  2.4095  1.1848
  490MOL0     H66123   1.296   3.138  11.172 -3.7117  0.0446 -1.5100
  490MOL0     H66124   1.400   3.256  11.371 -0.7953 -2.2932 -2.0732
  490MOL0     H66125   1.498   3.353  11.254  3.1166 -0.9969 -1.7586
  490MOL0     H66126   1.515   3.058  11.260  1.4837 -0.7623  1.3660
  490MOL0     H66127   1.579   3.170  11.147 -0.4810 -0.9724  0.7202
  490MOL0     H66128   1.621   3.217  11.438 -1.4310 -1.4405  0.3792
  490MOL0     H66129   1.741   3.245  11.318  0.0752  1.7916  1.9347
  490MOL0     H66130   1.670   2.968  11.419  1.9609 -3.3081 -0.1100
  490MOL0     H66131   1.809   3.064  11.457 -0.4612 -0.4564  0.2812
  490MOL0     H66132   1.586   2.930  10.711 -0.3570 -1.7777  1.2350
  490MOL0     H66133   1.798   2.784  10.727 -1.7499 -1.1234  3.1099
  490MOL0     H66134   2.295   2.970  10.484  1.2244  0.1087 -0.6869
  490MOL0     H66135   2.510   2.851  10.421 -0.0967 -4.3607 -3.0623
  490MOL0     H66136   4.406   1.958  10.688 -0.7094  0.0201  0.2336
  490MOL0     H66137   4.621   1.948  10.793 -1.6415 -1.1968 -1.3962
  490MOL0     H66138   4.950   2.013  10.861 -2.5566  3.1735  2.1500
  490MOL0     H66139   5.175   1.891  10.893 -1.6108 -1.0095 -1.0060
  490MOL0     H66140   5.359   1.962  11.230  2.0978 -0.6753  1.6379
  490MOL0     H66141   5.369   1.799  11.293 -0.5387  0.4857 -0.6051
  490MOL0     H66142   5.515   1.725  11.132 -0.2070  0.2235 -1.7794
  490MOL0     H66143   5.574   1.876  11.166 -1.4533  1.3321  2.2698
  490MOL0     H66144   5.569   1.864  10.915  0.5739 -0.5965  0.3383
  490MOL0     H66145   5.412   1.938  10.944  0.5396  0.8134  0.3946
  490MOL0     H66146   5.312   1.705  10.902 -0.2408  2.2547  2.6370
  490MOL0     H66147   5.471   1.642  10.869 -1.5368 -0.6728  2.5933
  490MOL0     H66148   5.369   1.834  10.515 -0.6997 -3.3203 -0.5860
  490MOL0     H66149   5.103   1.899  11.314  0.1522  0.1429 -0.4052
  490MOL0     H66150   4.889   2.051  11.269 -4.6056  1.4279 -3.9796
  491MOL0     O66151   8.189   0.130   8.495 -0.0501  0.1919  0.4171
  491MOL0     C66152   8.234   0.238   8.474 -0.8726  0.1235 -0.7896
  491MOL0     O66153   8.171   0.337   8.403  0.3520  0.9030  0.8692
  491MOL0     C66154   8.036   0.329   8.366 -0.5604  0.1416  1.0517
  491MOL0     C66155   7.990   0.242   8.264  0.0059 -0.5667 -0.2185
  491MOL0     C66156   7.853   0.240   8.230 -0.2701  0.4463 -0.1589
  491MOL0     C66157   7.766   0.332   8.287  1.1295  0.8104 -0.2861
  491MOL0     O66158   7.638   0.317   8.234  0.5303  0.2931  0.3575
  491MOL0     C66159   7.531   0.374   8.316 -0.4686 -0.0836 -0.0402
  491MOL0     C66160   7.397   0.347   8.241 -0.6393 -0.5678  0.0946
  491MOL0     C66161   7.278   0.394   8.321  0.2303 -0.2549 -0.0560
  491MOL0     C66162   7.136   0.381   8.242 -0.1835 -0.6824 -0.8711
  491MOL0     C66163   7.009   0.443   8.310  1.0640 -0.2217 -0.4435
  491MOL0     C66164   6.995   0.428   8.467 -0.7998 -0.4005  0.2181
  491MOL0     C66165   6.987   0.278   8.512  0.1980  0.3637 -0.2703
  491MOL0     C66166   6.953   0.274   8.666 -0.3843  0.6126  0.6792
  491MOL0     N66167   6.922   0.146   8.736 -0.6466  0.0538  0.3532
  491MOL0     C66168   6.895   0.033   8.667  0.3920  0.6246 -1.0314
  491MOL0     C66169   6.853  -0.053   8.767 -0.3494 -0.2779  0.7521
  491MOL0     C66170   6.841  -0.201   8.734 -0.1700  1.0743 -0.6266
  491MOL0     C66171   6.735  -0.248   8.633  0.0045  0.5072 -0.4321
  491MOL0     C66172   6.596  -0.205   8.666  0.3998 -0.1540 -1.1814
  491MOL0     C66173   6.519  -0.191   8.541 -0.7005  0.0775 -0.4661
  491MOL0     O66174   6.383  -0.181   8.585  0.2517 -0.2254 -0.0261
  491MOL0     C66175   6.304  -0.295   8.617 -0.2127 -0.9654  0.0712
  491MOL0     C66176   6.337  -0.430   8.591  0.2818  0.0877 -0.8532
  491MOL0     C66177   6.244  -0.532   8.622 -0.4922 -0.1264 -0.2445
  491MOL0     C66178   6.278  -0.680   8.608  0.1025 -0.4198  0.3419
  491MOL0     C66179   6.119  -0.503   8.674  0.5337  0.8476  0.1465
  491MOL0     C66180   6.016  -0.604   8.724 -0.5339 -0.2800  0.4068
  491MOL0     O66181   5.965  -0.588   8.853 -0.0006  0.0745  0.0015
  491MOL0     C66182   5.855  -0.655   8.899 -0.1752  0.0550 -0.3802
  491MOL0     C66183   5.743  -0.692   8.829  0.6456  0.2934  0.1255
  491MOL0     C66184   5.634  -0.748   8.891  0.1909  0.2466 -0.5437
  491MOL0     C66185   5.629  -0.773   9.027 -0.3874  0.5251 -0.4956
  491MOL0     O66186   5.520  -0.843   9.080 -0.6276  0.9256  0.2048
  491MOL0     C66187   5.405  -0.881   9.000  0.1326 -0.3423  0.4710
  491MOL0     C66188   5.291  -0.934   9.096 -0.0831 -0.3593 -0.5237
  491MOL0     C66189   5.159  -0.979   9.036  0.3651  0.2670 -0.6720
  491MOL0     C66190   5.179  -1.112   8.973 -0.2976 -0.4838  0.2780
  491MOL0     C66191   5.054  -1.172   8.904 -0.3494  0.3890  0.3802
  491MOL0     C66192   4.943  -1.192   9.009 -0.4048 -0.3854 -1.1194
  491MOL0     C66193   4.827  -1.279   8.952  0.2952  0.1549  0.3303
  491MOL0     C66194   4.749  -1.205   8.846  0.9492  1.1121  0.1594
  491MOL0    Cl66195   4.601  -1.290   8.835  0.4065  0.2517 -0.0177
  491MOL0     C66196   5.740  -0.742   9.101 -0.0438  0.3889  0.7997
  491MOL0     C66197   5.858  -0.681   9.040 -0.7584  0.5013  0.1096
  491MOL0     O66198   5.985  -0.695   8.648  0.4772 -0.1802  0.6245
  491MOL0     C66199   6.089  -0.369   8.704  1.0091  0.6378  0.6222
  491MOL0     C66200   6.179  -0.265   8.668  0.2655 -0.6623 -0.3141
  491MOL0     N66201   6.857   0.018   8.890  0.3759 -0.4448 -0.5821
  491MOL0     N66202   6.891   0.140   8.863 -0.3218 -0.2871 -0.5076
  491MOL0     C66203   7.808   0.428   8.380 -1.2391  0.4597  0.2859
  491MOL0     C66204   7.943   0.424   8.417  0.4248 -0.9178  0.5188
  491MOL0     C66205   8.367   0.270   8.524  0.0098 -0.0889 -0.2497
  491MOL0     C66206   8.417   0.195   8.638 -0.8227 -0.1838 -0.1809
  491MOL0     C66207   8.538   0.241   8.697  1.1483 -0.0600 -0.2766
  491MOL0     C66208   8.607   0.357   8.662 -0.3147 -0.0482  0.6398
  491MOL0     O66209   8.713   0.394   8.742 -0.8380  0.4691 -0.2288
  491MOL0     C66210   8.794   0.516   8.706  0.4317  0.4022 -0.9784
  491MOL0     C66211   8.929   0.523   8.783  0.6234 -0.2159  0.0028
  491MOL0     C66212   9.017   0.647   8.753  0.2598 -0.2328 -0.9476
  491MOL0     C66213   9.149   0.657   8.823 -0.4000 -0.4533 -0.3387
  491MOL0     C66214   9.137   0.674   8.962 -0.0329  0.3030 -0.8449
  491MOL0     C66215   9.118   0.649   9.084 -0.2365  0.5855  0.3460
  491MOL0     C66216   8.560   0.425   8.546 -0.0313  0.0797 -0.1558
  491MOL0     C66217   8.444   0.379   8.474 -0.0872 -0.5107 -0.2471
  491MOL0     H66218   8.067   0.177   8.225 -0.2983 -0.6745 -0.6540
  491MOL0     H66219   7.826   0.163   8.158  3.3538  0.4090 -1.6500
  491MOL0     H66220   7.533   0.337   8.419  0.6061  2.1230  0.7877
  491MOL0     H66221   7.550   0.481   8.329 -0.7223  0.0940 -1.0136
  491MOL0     H66222   7.413   0.409   8.152  0.9805  1.1467  1.4942
  491MOL0     H66223   7.384   0.245   8.206 -0.1526 -0.0170 -1.7994
  491MOL0     H66224   7.271   0.331   8.410 -0.1964  0.8712  0.7295
  491MOL0     H66225   7.299   0.496   8.354  1.9293 -1.6292  3.6569
  491MOL0     H66226   7.152   0.428   8.144  0.7094 -0.4494 -0.6186
  491MOL0     H66227   7.108   0.276   8.223 -1.0164 -0.7397  0.5566
  491MOL0     H66228   7.003   0.547   8.276 -3.3382 -0.1737 -0.0438
  491MOL0     H66229   6.921   0.403   8.258  0.6338  2.5027 -1.9773
  491MOL0     H66230   7.079   0.481   8.511 -1.0582  1.2237 -1.1414
  491MOL0     H66231   6.904   0.482   8.497 -0.3605 -1.1648  3.2896
  491MOL0     H66232   6.899   0.233   8.464  2.4537 -2.0683 -2.4666
  491MOL0     H66233   7.074   0.214   8.493  0.6082 -0.3424  3.3009
  491MOL0     H66234   6.863   0.332   8.684 -1.3868 -0.6108 -0.1675
  491MOL0     H66235   7.028   0.332   8.720 -1.2996  0.6526  1.9342
  491MOL0     H66236   6.928   0.008   8.566 -0.2909  1.2491 -1.4205
  491MOL0     H66237   6.939  -0.229   8.692  0.7822  0.4224  1.8369
  491MOL0     H66238   6.841  -0.268   8.821  0.7493 -0.4348 -1.7294
  491MOL0     H66239   6.733  -0.354   8.608  0.7847  0.9384 -2.4501
  491MOL0     H66240   6.764  -0.198   8.540 -2.0755  1.0348 -0.8437
  491MOL0     H66241   6.600  -0.109   8.719 -1.6222  0.1183 -1.4259
  491MOL0     H66242   6.567  -0.285   8.734  3.3339 -1.2782 -1.1270
  491MOL0     H66243   6.538  -0.267   8.465  3.4675  1.3217 -0.8952
  491MOL0     H66244   6.559  -0.106   8.485  0.6453 -0.6159 -0.6030
  491MOL0     H66245   6.439  -0.455   8.561  1.2974  3.1531 -0.3292
  491MOL0     H66246   6.243  -0.739   8.693 -2.0221 -1.9476 -1.5015
  491MOL0     H66247   6.228  -0.722   8.520 -0.7194 -0.3315  0.7626
  491MOL0     H66248   6.382  -0.701   8.582 -0.0724 -0.5263 -0.2935
  491MOL0     H66249   5.738  -0.672   8.723  4.8079 -1.0776 -0.5135
  491MOL0     H66250   5.540  -0.760   8.837  1.1663  0.7174 -2.4346
  491MOL0     H66251   5.360  -0.795   8.949 -0.6156 -1.9083 -1.6407
  491MOL0     H66252   5.425  -0.955   8.923  0.0551  0.1601 -0.0376
  491MOL0     H66253   5.341  -1.009   9.158  1.4789  0.8654 -0.2086
  491MOL0     H66254   5.269  -0.860   9.174 -1.9438 -1.8581  0.4641
  491MOL0     H66255   5.117  -0.915   8.958 -5.5288 -1.9534  0.1858
  491MOL0     H66256   5.097  -0.989   9.125  0.9940 -2.0095 -0.4520
  491MOL0     H66257   5.254  -1.105   8.894 -1.1034 -0.5602 -0.5114
  491MOL0     H66258   5.230  -1.170   9.050  2.1542 -1.1835 -1.7583
  491MOL0     H66259   5.078  -1.267   8.855  0.0755  1.2875 -1.2278
  491MOL0     H66260   5.021  -1.095   8.833 -1.9112  0.4487  1.1292
  491MOL0     H66261   4.990  -1.248   9.091  0.6722 -1.0399 -2.1501
  491MOL0     H66262   4.915  -1.093   9.047 -1.3340 -0.5014 -1.4781
  491MOL0     H66263   4.751  -1.304   9.028 -0.8535 -0.9508 -1.1226
  491MOL0     H66264   4.865  -1.376   8.918 -2.3143 -0.5682 -0.8172
  491MOL0     H66265   4.798  -1.203   8.748 -0.6024 -0.7922 -0.7062
  491MOL0     H66266   4.734  -1.100   8.871  3.2713  1.4188  0.4895
  491MOL0     H66267   5.740  -0.757   9.208  0.8876 -0.0612  0.7486
  491MOL0     H66268   5.948  -0.663   9.098 -0.5902  1.8187 -0.5197
  491MOL0     H66269   5.997  -0.343   8.755  0.9732  1.0941  0.3347
  491MOL0     H66270   6.142  -0.167   8.696  0.0244 -1.5598  2.8724
  491MOL0     H66271   7.758   0.508   8.434 -0.5780  1.8557 -1.1225
  491MOL0     H66272   7.971   0.499   8.490 -3.2945  1.5222 -0.2840
  491MOL0     H66273   8.380   0.100   8.676  2.0582 -1.1954  0.3592
  491MOL0     H66274   8.578   0.188   8.783  0.1118 -0.2773  0.0868
  491MOL0     H66275   8.811   0.511   8.598 -7.1831 -1.8460 -2.6955
  491MOL0     H66276   8.736   0.607   8.722 -1.8660 -1.3641  1.8345
  491MOL0     H66277   8.978   0.427   8.765  0.2144 -0.5026  0.3828
  491MOL0     H66278   8.921   0.515   8.892 -1.9294  0.2614 -0.0775
  491MOL0     H66279   8.963   0.739   8.778  0.1353 -0.5437 -0.0420
  491MOL0     H66280   9.029   0.649   8.644  0.1056  1.5689 -0.9709
  491MOL0     H66281   9.209   0.726   8.764 -0.1684 -1.2289 -1.0349
  491MOL0     H66282   9.195   0.558   8.812 -0.1660 -0.3029 -0.7141
  491MOL0     H66283   9.112   0.634   9.190  0.8962 -0.1165  0.3166
  491MOL0     H66284   8.609   0.519   8.523  4.7668 -0.5001  5.2880
  491MOL0     H66285   8.409   0.437   8.389 -2.3547  0.2168  1.1003
  492MOL0     O66286   7.879   1.439   2.763 -0.9253  0.4973 -0.0108
  492MOL0     C66287   7.922   1.325   2.752  0.1992  0.3005 -0.1013
  492MOL0     O66288   7.848   1.212   2.744  0.3595 -0.0108 -0.3054
  492MOL0     C66289   7.712   1.224   2.757  0.2546  0.0583  0.5486
  492MOL0     C66290   7.661   1.176   2.878  0.1165 -0.6026  0.4538
  492MOL0     C66291   7.526   1.203   2.915  0.5438  0.1687 -1.2630
  492MOL0     C66292   7.437   1.256   2.826  0.5649  0.5438  0.9959
  492MOL0     O66293   7.308   1.249   2.861  0.4850  0.7380 -0.3700
  492MOL0     C66294   7.210   1.333   2.798 -0.2455 -0.9776 -0.3116
  492MOL0     C66295   7.102   1.389   2.894  0.3993  0.1684 -0.0277
  492MOL0     C66296   7.177   1.416   3.027  0.5590 -0.0112 -0.8839
  492MOL0     C66297   7.089   1.500   3.127  0.6962 -0.0353 -0.3904
  492MOL0     C66298   7.152   1.507   3.265  0.4618 -0.2814 -0.0234
  492MOL0     C66299   7.253   1.623   3.264 -0.1114  1.0801 -0.1245
  492MOL0     C66300   7.326   1.655   3.396  0.2220  0.3623 -1.1338
  492MOL0     C66301   7.441   1.753   3.367  0.5804 -0.9712 -0.4600
  492MOL0     N66302   7.395   1.889   3.345  0.7139  0.1296  0.8263
  492MOL0     C66303   7.326   1.977   3.421  0.0017  0.6171 -0.5244
  492MOL0     C66304   7.317   2.087   3.348 -0.2988 -0.1877 -0.7750
  492MOL0     C66305   7.221   2.200   3.386 -1.8086 -0.5812 -0.5529
  492MOL0     C66306   7.098   2.241   3.294 -0.0379  1.0641 -0.0058
  492MOL0     C66307   7.044   2.376   3.331 -0.0381 -0.5751  0.0253
  492MOL0     C66308   6.906   2.410   3.266  0.2764 -0.3463 -0.1236
  492MOL0     O66309   6.811   2.301   3.298  0.1068  0.5131  0.3229
  492MOL0     C66310   6.691   2.296   3.222  0.2778  0.2977  0.2697
  492MOL0     C66311   6.632   2.171   3.214 -0.6988  0.5955 -0.5780
  492MOL0     C66312   6.503   2.164   3.163 -0.9882  0.1131  0.1042
  492MOL0     C66313   6.440   2.031   3.148  0.2114 -0.1409 -0.5174
  492MOL0     C66314   6.427   2.279   3.132 -0.0941  0.3874  0.1743
  492MOL0     C66315   6.278   2.274   3.101 -0.0902  0.5604 -0.3418
  492MOL0     O66316   6.198   2.223   3.195  0.7515 -0.4663  0.4776
  492MOL0     C66317   6.065   2.213   3.171 -0.9892  0.0419  0.8187
  492MOL0     C66318   5.982   2.324   3.171 -0.1494  0.0766  0.0227
  492MOL0     C66319   5.843   2.304   3.141 -0.3936  0.0891 -0.2816
  492MOL0     C66320   5.789   2.179   3.116 -0.1183  0.7645  0.3790
  492MOL0     O66321   5.665   2.151   3.061  0.3281  0.0138 -0.4610
  492MOL0     C66322   5.557   2.178   3.148  0.4174  0.2556 -0.7001
  492MOL0     C66323   5.428   2.139   3.071  0.6254  0.2995  0.6764
  492MOL0     C66324   5.293   2.128   3.152 -0.8550 -0.4210 -0.4202
  492MOL0     C66325   5.253   2.260   3.241 -0.1721  0.7531 -0.3890
  492MOL0     C66326   5.149   2.237   3.350 -0.2113  0.1649  0.6957
  492MOL0     C66327   5.196   2.157   3.467  0.7971  0.1703 -0.1422
  492MOL0     C66328   5.088   2.163   3.579  0.5496  0.8492 -0.1507
  492MOL0     C66329   5.140   2.217   3.711  0.0983  0.1072  0.0358
  492MOL0    Cl66330   5.265   2.116   3.783  0.0520  0.4933 -0.1532
  492MOL0     C66331   5.871   2.072   3.118 -1.1256  1.4942  0.8179
  492MOL0     C66332   6.006   2.085   3.147 -0.5824 -0.6976 -0.5875
  492MOL0     O66333   6.242   2.328   3.001  0.0116 -0.7972  0.0124
  492MOL0     C66334   6.502   2.397   3.135 -0.2221  0.5259 -0.2220
  492MOL0     C66335   6.629   2.411   3.173 -0.4072 -0.6829  0.5721
  492MOL0     N66336   7.386   2.077   3.229 -0.2656 -1.4204  0.2404
  492MOL0     N66337   7.440   1.958   3.239  0.2475 -0.0120  0.6189
  492MOL0     C66338   7.489   1.284   2.698  0.1632 -0.0918  0.1998
  492MOL0     C66339   7.628   1.279   2.668  0.5989  0.2228 -0.9966
  492MOL0     C66340   8.072   1.298   2.746  0.3245 -0.2656  0.4284
  492MOL0     C66341   8.121   1.162   2.736  1.2040  0.9047  0.2699
  492MOL0     C66342   8.258   1.132   2.741  0.0672 -0.1499  0.1361
  492MOL0     C66343   8.346   1.234   2.764 -0.3990 -0.0232  0.7891
  492MOL0     O66344   8.484   1.226   2.775  0.7467  1.0345  0.7776
  492MOL0     C66345   8.557   1.109   2.747  0.1103  0.2621 -0.5922
  492MOL0     C66346   8.701   1.147   2.714  0.4403  0.2540  0.6226
  492MOL0     C66347   8.795   1.158   2.835  0.5788  0.0580 -0.1861
  492MOL0     C66348   8.847   1.032   2.901  0.3057  0.0884 -0.0365
  492MOL0     C66349   8.922   0.934   2.821  0.8524 -0.4489 -0.2357
  492MOL0     C66350   8.991   0.867   2.746 -0.2413 -0.7225  0.2072
  492MOL0     C66351   8.305   1.367   2.774  0.1384  0.1126  0.2528
  492MOL0     C66352   8.170   1.401   2.760  0.2983  0.0073  0.3853
  492MOL0     H66353   7.724   1.127   2.950 -0.1008  0.0322  1.0872
  492MOL0     H66354   7.477   1.163   3.003 -3.5532 -2.5214 -4.3530
  492MOL0     H66355   7.252   1.415   2.739  1.9557 -1.6337  0.2495
  492MOL0     H66356   7.166   1.272   2.719 -1.2347  0.4503 -0.8977
  492MOL0     H66357   7.056   1.472   2.840  2.5804  0.1748 -2.0237
  492MOL0     H66358   7.021   1.317   2.910  2.5191 -2.5367 -0.6807
  492MOL0     H66359   7.201   1.322   3.078 -1.3968  0.9885  2.1388
  492MOL0     H66360   7.267   1.475   3.012 -1.4844  3.1529 -1.7588
  492MOL0     H66361   7.064   1.593   3.075 -2.6483 -0.5946 -0.0132
  492MOL0     H66362   6.994   1.450   3.148 -0.0636  1.5507  0.2044
  492MOL0     H66363   7.078   1.520   3.345 -1.5101  0.8015 -1.9368
  492MOL0     H66364   7.205   1.413   3.284  0.2393 -0.6354 -1.1149
  492MOL0     H66365   7.329   1.606   3.187 -0.5625  1.3083 -0.6283
  492MOL0     H66366   7.200   1.710   3.225 -2.3831  0.7064  1.8981
  492MOL0     H66367   7.259   1.691   3.474 -0.5370 -0.8014 -1.2140
  492MOL0     H66368   7.368   1.559   3.426  1.6110  1.1455 -0.4860
  492MOL0     H66369   7.498   1.727   3.278  0.1133 -1.2385 -0.6848
  492MOL0     H66370   7.492   1.768   3.463 -1.2996  1.7352  0.2438
  492MOL0     H66371   7.271   1.959   3.512  1.4832 -0.4765  0.2021
  492MOL0     H66372   7.176   2.165   3.480 -3.7316 -0.7397 -1.4811
  492MOL0     H66373   7.269   2.296   3.406  0.9910 -1.9587 -0.1523
  492MOL0     H66374   7.022   2.166   3.314 -0.3766  1.2959 -0.4207
  492MOL0     H66375   7.122   2.245   3.187 -0.9659  3.3589 -0.1866
  492MOL0     H66376   7.111   2.456   3.301  0.2967 -1.2475 -1.0749
  492MOL0     H66377   7.027   2.374   3.439 -0.6497 -0.8448 -0.0727
  492MOL0     H66378   6.916   2.409   3.157 -1.6515  3.0787 -0.4761
  492MOL0     H66379   6.869   2.509   3.294 -1.0482 -0.7347 -0.4472
  492MOL0     H66380   6.691   2.085   3.242 -0.9045 -0.0572 -2.0782
  492MOL0     H66381   6.507   1.961   3.097 -0.5888 -1.2125 -0.1368
  492MOL0     H66382   6.427   1.991   3.249  1.8862 -3.1397 -1.3596
  492MOL0     H66383   6.342   2.035   3.098  0.1109  0.4485 -0.2894
  492MOL0     H66384   6.026   2.423   3.182 -0.2939  0.3506 -1.5250
  492MOL0     H66385   5.762   2.376   3.135 -1.9116 -1.4387  0.8413
  492MOL0     H66386   5.569   2.122   3.241  0.5940  1.2013 -0.1347
  492MOL0     H66387   5.556   2.284   3.175  0.1580  0.5217 -1.7420
  492MOL0     H66388   5.413   2.212   2.991 -2.0892 -0.1808  0.6502
  492MOL0     H66389   5.446   2.044   3.019 -1.2527  0.1263  0.2765
  492MOL0     H66390   5.291   2.045   3.223 -0.0026 -0.2774 -0.2203
  492MOL0     H66391   5.203   2.114   3.090 -1.2743  2.3262 -0.5648
  492MOL0     H66392   5.340   2.315   3.278 -1.2502  2.2068  0.1101
  492MOL0     H66393   5.202   2.326   3.169  1.2741  1.6442 -0.6438
  492MOL0     H66394   5.065   2.185   3.303 -0.0113  0.1688  0.3359
  492MOL0     H66395   5.106   2.332   3.380 -1.5223 -0.0495 -0.3992
  492MOL0     H66396   5.214   2.053   3.439  0.4476  0.1574 -0.3222
  492MOL0     H66397   5.291   2.201   3.500  0.5481 -1.4454  3.0533
  492MOL0     H66398   5.052   2.063   3.605 -0.5308  1.2993  0.1668
  492MOL0     H66399   5.010   2.230   3.541  1.7064  0.8996 -2.6073
  492MOL0     H66400   5.061   2.231   3.784  1.7238 -1.0089  2.1147
  492MOL0     H66401   5.200   2.307   3.698  2.9651 -1.2924  2.4036
  492MOL0     H66402   5.835   1.971   3.100  3.1884  0.1671 -1.7579
  492MOL0     H66403   6.064   1.994   3.154 -0.6516 -0.6611  0.9046
  492MOL0     H66404   6.454   2.488   3.099 -1.1589  0.4176  0.7061
  492MOL0     H66405   6.674   2.509   3.187 -0.4700 -0.4847 -0.4921
  492MOL0     H66406   7.424   1.325   2.621  2.1168  0.7306 -1.0752
  492MOL0     H66407   7.668   1.300   2.570  0.1867  0.7632 -1.0509
  492MOL0     H66408   8.050   1.081   2.740  0.4567  1.4913 -0.6995
  492MOL0     H66409   8.287   1.028   2.731  2.4008  0.4675 -0.1706
  492MOL0     H66410   8.554   1.045   2.835 -0.9429  0.7199 -0.2885
  492MOL0     H66411   8.511   1.054   2.664 -0.0605  1.9570 -1.6708
  492MOL0     H66412   8.704   1.242   2.658 -0.9775 -1.1728 -2.0733
  492MOL0     H66413   8.740   1.072   2.644 -0.9029  0.3466 -0.2704
  492MOL0     H66414   8.758   1.220   2.918  0.1638  3.6528 -2.8206
  492MOL0     H66415   8.871   1.221   2.789 -1.9479  3.9065  0.3931
  492MOL0     H66416   8.762   0.968   2.927  1.5403 -3.2533 -3.2716
  492MOL0     H66417   8.915   1.051   2.984  2.6173 -1.9950 -1.3299
  492MOL0     H66418   9.047   0.812   2.673 -0.9923 -1.7330  0.3700
  492MOL0     H66419   8.374   1.449   2.793  1.2416  0.1174 -3.1049
  492MOL0     H66420   8.139   1.505   2.758 -1.8920 -0.6084 -0.0795
  493MOL0     O66421   3.054   7.284   8.464  0.4043 -0.2347  1.0738
  493MOL0     C66422   3.092   7.298   8.346  0.0976 -0.1696  0.2448
  493MOL0     O66423   3.035   7.373   8.250  0.0346 -0.4037  0.6928
  493MOL0     C66424   2.921   7.429   8.282 -0.1331 -0.5080  0.6301
  493MOL0     C66425   2.804   7.378   8.217  0.8214  0.6126  0.1109
  493MOL0     C66426   2.679   7.443   8.242  0.2405 -0.2389 -0.8609
  493MOL0     C66427   2.666   7.538   8.347  0.1561  0.6508  0.5320
  493MOL0     O66428   2.541   7.597   8.378 -0.3783 -0.5681  0.1092
  493MOL0     C66429   2.484   7.546   8.500 -1.0745 -0.3347  0.2823
  493MOL0     C66430   2.418   7.656   8.587  0.2001  0.5156  0.7578
  493MOL0     C66431   2.288   7.615   8.650 -0.4323 -0.5284  0.4688
  493MOL0     C66432   2.238   7.704   8.766 -0.1839 -0.1533  0.2454
  493MOL0     C66433   2.158   7.828   8.721 -0.7121 -0.0409 -0.5801
  493MOL0     C66434   2.025   7.808   8.667  0.1144 -0.2844 -0.0979
  493MOL0     C66435   1.945   7.929   8.620 -0.0038 -0.4639 -0.6757
  493MOL0     C66436   1.805   7.904   8.589 -0.6655  0.4038 -0.1634
  493MOL0     N66437   1.734   8.023   8.525 -0.2560  0.8300 -0.0442
  493MOL0     C66438   1.714   8.147   8.581  0.5022 -1.8202  0.4411
  493MOL0     C66439   1.630   8.213   8.493  0.0125 -0.3241  0.1551
  493MOL0     C66440   1.585   8.358   8.510  0.8431  0.8478 -0.7551
  493MOL0     C66441   1.436   8.367   8.548 -0.0591  0.0978 -0.0556
  493MOL0     C66442   1.372   8.495   8.516 -0.5973  0.2648 -0.0828
  493MOL0     C66443   1.229   8.490   8.556 -0.1933 -0.4101 -0.2753
  493MOL0     O66444   1.179   8.622   8.573  0.4444 -0.0320 -0.3050
  493MOL0     C66445   1.051   8.640   8.533 -0.2594 -0.3184 -0.5336
  493MOL0     C66446   0.948   8.542   8.536  0.0671 -0.3107  0.2780
  493MOL0     C66447   0.814   8.576   8.496 -0.4744  0.3193 -0.1541
  493MOL0     C66448   0.707   8.472   8.502  0.2364 -0.1180 -0.3226
  493MOL0     C66449   0.785   8.704   8.468 -0.5398  0.0238  0.5219
  493MOL0     C66450   0.657   8.749   8.417  0.5440  0.5510  0.6025
  493MOL0     O66451   0.593   8.669   8.333 -0.0131 -0.2975 -0.7884
  493MOL0     C66452   0.477   8.710   8.273  0.2323  0.4435 -0.3249
  493MOL0     C66453   0.480   8.781   8.149  0.5308 -0.1674  0.3318
  493MOL0     C66454   0.362   8.822   8.092  0.2784  0.3839  0.4201
  493MOL0     C66455   0.243   8.806   8.161 -0.1185 -0.1363  0.4339
  493MOL0     O66456   0.116   8.839   8.110 -0.3577 -0.6579 -0.1166
  493MOL0     C66457   0.102   8.839   7.962 -0.4856 -0.0568 -0.1995
  493MOL0     C66458  -0.030   8.888   7.911  0.1723 -0.2270  0.2070
  493MOL0     C66459  -0.148   8.796   7.956 -0.2998  0.0331 -0.2911
  493MOL0     C66460  -0.271   8.876   7.982 -0.1567  0.2421 -0.2745
  493MOL0     C66461  -0.388   8.796   8.060 -0.3450  0.4865  0.5427
  493MOL0     C66462  -0.517   8.881   8.058  0.1887 -0.2216 -0.3093
  493MOL0     C66463  -0.620   8.835   7.947  1.0627 -0.3930  0.1176
  493MOL0     C66464  -0.731   8.751   8.005 -1.5299 -0.5168 -0.0558
  493MOL0    Cl66465  -0.854   8.703   7.889  0.1808 -0.0851  0.2971
  493MOL0     C66466   0.233   8.735   8.281 -0.6405  0.1547  0.0417
  493MOL0     C66467   0.349   8.680   8.333  0.0186  0.3251  0.5193
  493MOL0     O66468   0.619   8.865   8.449 -0.8865  0.0143  0.9367
  493MOL0     C66469   0.886   8.803   8.486  0.4018  1.1459 -0.8153
  493MOL0     C66470   1.013   8.769   8.513 -0.3104 -0.9009 -0.4709
  493MOL0     N66471   1.608   8.120   8.389  0.1763 -0.3294 -0.4156
  493MOL0     N66472   1.661   8.010   8.420 -0.0781  0.4416  0.2887
  493MOL0     C66473   2.776   7.596   8.401 -0.7416  0.4865  0.2569
  493MOL0     C66474   2.908   7.538   8.367  0.3885 -0.4696  0.1466
  493MOL0     C66475   3.220   7.237   8.309  0.1188 -0.3156 -0.6653
  493MOL0     C66476   3.235   7.201   8.169 -0.7418 -0.7355 -0.0381
  493MOL0     C66477   3.344   7.128   8.127  0.1471 -0.1959 -0.1685
  493MOL0     C66478   3.448   7.091   8.223  0.0154 -0.2717 -0.8829
  493MOL0     O66479   3.571   7.034   8.186  0.7557 -0.3110  0.2228
  493MOL0     C66480   3.604   7.022   8.044  0.6667  1.1462 -0.1977
  493MOL0     C66481   3.749   6.990   8.030 -0.6080 -0.2890  0.6303
  493MOL0     C66482   3.789   6.947   7.889  0.0669 -0.3026 -0.2677
  493MOL0     C66483   3.798   7.068   7.794  0.5607  0.3423  0.2174
  493MOL0     C66484   3.846   7.031   7.664 -1.2284 -1.1256 -0.2688
  493MOL0     C66485   3.897   7.018   7.557 -0.1261 -0.1700  0.1514
  493MOL0     C66486   3.440   7.142   8.358  0.5417  0.1973 -0.8326
  493MOL0     C66487   3.322   7.198   8.402 -0.0602 -0.5922 -0.8887
  493MOL0     H66488   2.815   7.308   8.134  1.2538  2.9442 -1.9298
  493MOL0     H66489   2.591   7.399   8.197  0.1009  0.0888 -0.9144
  493MOL0     H66490   2.400   7.479   8.480 -0.6724 -1.0976  1.0649
  493MOL0     H66491   2.561   7.503   8.566  3.8071  3.1486 -2.4952
  493MOL0     H66492   2.487   7.683   8.667  0.4078 -0.5704  0.9585
  493MOL0     H66493   2.392   7.742   8.523 -1.6575  0.5386  1.4750
  493MOL0     H66494   2.199   7.595   8.588 -1.2124  0.8170  1.1119
  493MOL0     H66495   2.310   7.524   8.707 -1.0249 -0.0824  1.4309
  493MOL0     H66496   2.168   7.645   8.825 -2.4125  2.4842  0.4285
  493MOL0     H66497   2.321   7.734   8.830 -0.5497  1.0968  0.1605
  493MOL0     H66498   2.154   7.890   8.811 -2.1838 -3.3698  1.8996
  493MOL0     H66499   2.219   7.884   8.651 -1.3971  1.9667  0.3559
  493MOL0     H66500   2.028   7.746   8.577 -2.1504  0.5317 -0.8136
  493MOL0     H66501   1.965   7.754   8.741  0.3248  0.9554  1.0312
  493MOL0     H66502   1.945   7.994   8.708  2.0390  0.1081 -1.0437
  493MOL0     H66503   2.005   7.970   8.538 -0.2287 -2.7579 -2.0747
  493MOL0     H66504   1.761   7.873   8.684  0.3025 -3.8915 -0.9226
  493MOL0     H66505   1.795   7.812   8.531 -3.1658 -2.5064  4.3261
  493MOL0     H66506   1.760   8.187   8.670  0.8054  0.3838 -0.6308
  493MOL0     H66507   1.647   8.398   8.590  0.0704  2.9506 -1.1257
  493MOL0     H66508   1.605   8.403   8.412 -1.1204  0.5113 -1.3525
  493MOL0     H66509   1.428   8.345   8.654 -2.1198 -1.5090 -0.4650
  493MOL0     H66510   1.377   8.285   8.505 -1.7666  0.1232  2.0702
  493MOL0     H66511   1.373   8.511   8.407 -3.2680 -0.5353 -0.3030
  493MOL0     H66512   1.429   8.575   8.563 -0.7130 -0.3074  1.0727
  493MOL0     H66513   1.215   8.451   8.657 -2.1099 -2.9330 -1.4358
  493MOL0     H66514   1.174   8.430   8.484  0.7813 -0.8586 -0.6738
  493MOL0     H66515   0.984   8.443   8.563 -0.3402 -0.4666  0.2415
  493MOL0     H66516   0.723   8.416   8.594 -0.7044  2.3266  1.4523
  493MOL0     H66517   0.608   8.516   8.518  0.7171  1.6302 -1.7744
  493MOL0     H66518   0.709   8.407   8.414  2.6092 -1.3231  0.5468
  493MOL0     H66519   0.570   8.802   8.093  1.4795 -0.3515  1.7519
  493MOL0     H66520   0.369   8.878   7.999 -0.4834  0.6977  0.5388
  493MOL0     H66521   0.177   8.906   7.920 -1.3951  0.3011 -1.3177
  493MOL0     H66522   0.118   8.736   7.928  0.2576  0.5841 -1.8912
  493MOL0     H66523  -0.034   8.991   7.947  0.7526 -0.4388  0.9096
  493MOL0     H66524  -0.032   8.887   7.802  1.7142 -0.0081  0.1462
  493MOL0     H66525  -0.121   8.739   8.045 -2.4796  2.8753  2.3814
  493MOL0     H66526  -0.172   8.723   7.878 -2.5742 -1.3279  1.5673
  493MOL0     H66527  -0.244   8.974   8.022  0.1322 -0.1855  0.6076
  493MOL0     H66528  -0.317   8.900   7.885 -1.6708 -1.6946 -0.1074
  493MOL0     H66529  -0.366   8.787   8.167 -0.9805  0.6643  0.6966
  493MOL0     H66530  -0.410   8.697   8.019  1.8378 -1.1795  3.0841
  493MOL0     H66531  -0.560   8.876   8.159  0.8877  0.5943  0.0458
  493MOL0     H66532  -0.506   8.988   8.042 -0.1511 -0.3049 -1.1360
  493MOL0     H66533  -0.578   8.779   7.863 -1.7221  1.1342 -2.4901
  493MOL0     H66534  -0.665   8.929   7.912  4.1974  1.7896  1.4663
  493MOL0     H66535  -0.774   8.808   8.088  2.5425 -2.0346  3.4737
  493MOL0     H66536  -0.684   8.668   8.058 -0.7182  1.7178  3.0040
  493MOL0     H66537   0.132   8.721   8.319  0.2370  0.3850  2.6277
  493MOL0     H66538   0.341   8.610   8.416  0.0984 -1.8511 -1.2152
  493MOL0     H66539   0.856   8.906   8.466 -3.8624  0.2769  0.0423
  493MOL0     H66540   1.078   8.855   8.523 -1.9052  0.3991 -0.7637
  493MOL0     H66541   2.778   7.692   8.451  1.2656  0.9251 -0.5593
  493MOL0     H66542   2.999   7.594   8.389 -0.8780  1.2652  1.2176
  493MOL0     H66543   3.160   7.238   8.099  1.2048  0.7381 -1.4411
  493MOL0     H66544   3.361   7.085   8.028  2.2380 -1.1555  0.5637
  493MOL0     H66545   3.545   6.936   8.010 -0.7596  2.5094 -1.2968
  493MOL0     H66546   3.581   7.112   7.987  1.7086 -0.0883 -2.7445
  493MOL0     H66547   3.775   6.902   8.090 -0.1121 -1.6488 -1.4875
  493MOL0     H66548   3.813   7.075   8.055  1.0423 -0.8270 -1.4413
  493MOL0     H66549   3.713   6.876   7.858 -2.1652  2.0854 -0.6805
  493MOL0     H66550   3.882   6.889   7.888  1.0605  1.1922 -2.5431
  493MOL0     H66551   3.861   7.152   7.825  0.2801  1.1656 -1.3221
  493MOL0     H66552   3.699   7.103   7.761  0.6203 -0.7635 -1.2423
  493MOL0     H66553   3.940   7.038   7.461 -6.0764 -2.2626 -3.4807
  493MOL0     H66554   3.534   7.121   8.407 -0.4010  0.3213  1.1071
  493MOL0     H66555   3.311   7.202   8.510  2.2168 -0.7511 -0.5979
  494MOL0     O66556   4.073   1.395   6.590  0.3910 -0.5415  0.0348
  494MOL0     C66557   4.068   1.422   6.715  0.7205 -0.7697 -0.0966
  494MOL0     O66558   3.960   1.407   6.791 -0.3943 -0.0815  0.0845
  494MOL0     C66559   3.829   1.378   6.751 -0.0066 -0.2674 -0.8188
  494MOL0     C66560   3.778   1.420   6.628 -0.4442  0.0894 -0.8503
  494MOL0     C66561   3.651   1.376   6.587  0.4408  0.7074 -0.5887
  494MOL0     C66562   3.566   1.306   6.681 -0.2936  0.4097  0.2083
  494MOL0     O66563   3.438   1.268   6.645 -0.2056 -0.8243  0.3773
  494MOL0     C66564   3.406   1.257   6.498 -0.0705 -0.7417 -0.6948
  494MOL0     C66565   3.285   1.167   6.491  0.7710 -0.3377 -0.2953
  494MOL0     C66566   3.152   1.246   6.510  0.5755  0.3264  0.5245
  494MOL0     C66567   3.029   1.160   6.552  0.2917 -0.1964 -0.6446
  494MOL0     C66568   2.895   1.212   6.490 -0.1797 -0.6544 -0.1134
  494MOL0     C66569   2.867   1.358   6.539 -0.4728  0.6152 -0.3986
  494MOL0     C66570   2.754   1.434   6.476  0.0734  0.1795 -0.0936
  494MOL0     C66571   2.687   1.530   6.577 -0.4211 -0.5616 -0.3433
  494MOL0     N66572   2.775   1.634   6.609 -0.7656  0.7115  0.2273
  494MOL0     C66573   2.842   1.645   6.725  1.0404  0.4795  0.1476
  494MOL0     C66574   2.903   1.765   6.718  0.6706  0.4912  0.6929
  494MOL0     C66575   2.993   1.817   6.828 -1.0074 -0.0857  0.1413
  494MOL0     C66576   3.114   1.721   6.856  0.5857 -0.0881  0.0158
  494MOL0     C66577   3.182   1.666   6.731  0.3930 -0.5617  0.9848
  494MOL0     C66578   3.264   1.536   6.750  0.3837  0.1997 -0.1609
  494MOL0     O66579   3.349   1.553   6.865  0.5884 -0.0735 -0.3171
  494MOL0     C66580   3.472   1.612   6.847  0.0237  0.2644  0.0945
  494MOL0     C66581   3.568   1.585   6.944 -0.8028 -1.0897 -0.2051
  494MOL0     C66582   3.700   1.634   6.937  1.1422  0.0136  0.5346
  494MOL0     C66583   3.795   1.582   7.040  0.5614 -0.3143 -0.3396
  494MOL0     C66584   3.738   1.719   6.830  0.0020  0.4635  0.5377
  494MOL0     C66585   3.872   1.782   6.797 -0.0077  1.2827 -0.3933
  494MOL0     O66586   3.914   1.811   6.673  0.6024 -0.0938  0.3384
  494MOL0     C66587   4.053   1.820   6.649 -0.0998 -1.0308 -1.1550
  494MOL0     C66588   4.115   1.762   6.539 -0.0787  0.0406 -0.1115
  494MOL0     C66589   4.251   1.741   6.525 -0.0254  0.3421 -0.3130
  494MOL0     C66590   4.343   1.811   6.605 -1.0615 -0.3453  0.4952
  494MOL0     O66591   4.477   1.790   6.583  0.2721  1.2462  0.2576
  494MOL0     C66592   4.580   1.883   6.620 -0.0574  0.3519 -0.3561
  494MOL0     C66593   4.722   1.846   6.565 -0.3572 -0.3193  0.7955
  494MOL0     C66594   4.762   1.704   6.614 -0.0259 -0.3331  0.6991
  494MOL0     C66595   4.867   1.639   6.525  0.3189 -0.8328  0.5382
  494MOL0     C66596   4.920   1.513   6.586 -0.7034 -0.7618 -0.0953
  494MOL0     C66597   5.021   1.432   6.515 -0.2217 -0.4231 -0.0112
  494MOL0     C66598   5.153   1.514   6.493 -0.3901 -0.0321 -0.6742
  494MOL0     C66599   5.245   1.528   6.619 -0.2488  0.5748  0.6910
  494MOL0    Cl66600   5.326   1.372   6.661 -0.0989  0.4249  0.0511
  494MOL0     C66601   4.287   1.900   6.696 -1.3118  0.6073  0.1556
  494MOL0     C66602   4.151   1.900   6.724  0.4019 -0.7308 -0.1227
  494MOL0     O66603   3.929   1.814   6.896  0.8179 -0.0114  0.3524
  494MOL0     C66604   3.642   1.733   6.723  0.0100  0.3593  0.5993
  494MOL0     C66605   3.511   1.684   6.734 -0.8933 -0.9337 -0.0710
  494MOL0     N66606   2.863   1.824   6.601 -0.1843 -0.4509  0.0398
  494MOL0     N66607   2.799   1.741   6.527  0.0374 -0.1634 -0.8283
  494MOL0     C66608   3.623   1.269   6.800  0.0094 -0.1798 -0.2892
  494MOL0     C66609   3.748   1.307   6.840 -1.5898  0.0851 -0.0687
  494MOL0     C66610   4.196   1.457   6.784 -0.0084  0.2432 -0.3962
  494MOL0     C66611   4.208   1.445   6.925  0.3681 -0.1502  0.3022
  494MOL0     C66612   4.325   1.471   6.997 -0.0635 -0.8668 -0.0500
  494MOL0     C66613   4.438   1.518   6.937 -0.1968 -0.7064 -0.3428
  494MOL0     O66614   4.548   1.534   7.013 -0.2746 -0.2004 -0.6802
  494MOL0     C66615   4.672   1.550   6.947 -0.1182  0.0293  0.5161
  494MOL0     C66616   4.778   1.575   7.053 -0.2388  0.0591 -0.4628
  494MOL0     C66617   4.908   1.641   7.004  0.4379 -0.3250  0.9168
  494MOL0     C66618   4.992   1.692   7.122  0.1185 -0.7157 -0.2106
  494MOL0     C66619   5.130   1.721   7.068 -0.2121 -0.9107  0.1268
  494MOL0     C66620   5.235   1.753   7.022 -0.0520 -0.2785 -0.1198
  494MOL0     C66621   4.435   1.515   6.796 -0.2738  0.5183  0.8591
  494MOL0     C66622   4.320   1.483   6.719  1.0946 -0.8343 -0.1047
  494MOL0     H66623   3.836   1.465   6.548 -0.9823  0.3934 -1.0794
  494MOL0     H66624   3.615   1.408   6.489  0.1912  2.2523 -0.0158
  494MOL0     H66625   3.393   1.353   6.447 -0.5137  0.6261  1.8201
  494MOL0     H66626   3.484   1.200   6.446 -1.0853  0.3668 -3.5997
  494MOL0     H66627   3.280   1.121   6.391 -0.0927 -0.5296 -0.1652
  494MOL0     H66628   3.281   1.085   6.562 -2.3591 -1.9881 -2.1578
  494MOL0     H66629   3.169   1.328   6.581  0.1348  1.1208 -0.2630
  494MOL0     H66630   3.135   1.305   6.419 -0.7400  1.6729  1.5914
  494MOL0     H66631   3.044   1.066   6.498 -0.6852 -0.2109 -0.9191
  494MOL0     H66632   3.019   1.146   6.660  0.5878  1.3693 -0.3810
  494MOL0     H66633   2.909   1.217   6.381 -0.7563  0.1291 -0.1595
  494MOL0     H66634   2.816   1.140   6.516  0.7078 -1.3919  0.6051
  494MOL0     H66635   2.853   1.347   6.647  2.1098 -3.0145 -0.2427
  494MOL0     H66636   2.953   1.423   6.521 -0.3946  1.4017  2.3867
  494MOL0     H66637   2.806   1.490   6.398  0.3681  1.2209  0.8225
  494MOL0     H66638   2.672   1.383   6.424 -0.3332  2.7697 -2.1641
  494MOL0     H66639   2.663   1.478   6.669 -3.6098  0.9363 -0.1924
  494MOL0     H66640   2.601   1.568   6.521 -0.8675 -1.6245 -0.3908
  494MOL0     H66641   2.871   1.571   6.798 -0.7345 -2.4554 -1.8895
  494MOL0     H66642   3.031   1.919   6.812  0.3425 -0.2624  1.9030
  494MOL0     H66643   2.935   1.825   6.921 -0.9971  4.0082 -0.0183
  494MOL0     H66644   3.080   1.643   6.924  1.0568  0.5727  1.0208
  494MOL0     H66645   3.197   1.772   6.905  0.4773 -1.3821  1.6021
  494MOL0     H66646   3.247   1.742   6.687  1.1150 -0.1958  2.6070
  494MOL0     H66647   3.097   1.636   6.669  0.4853 -0.8987  1.0200
  494MOL0     H66648   3.322   1.522   6.658  0.5638 -1.0966  0.1336
  494MOL0     H66649   3.201   1.449   6.768 -0.5565  1.4232  3.3971
  494MOL0     H66650   3.543   1.513   7.021  2.5599 -2.1465  0.0137
  494MOL0     H66651   3.880   1.547   6.980  0.0828  0.1607 -1.2961
  494MOL0     H66652   3.815   1.667   7.106 -0.3323 -1.2964  1.2644
  494MOL0     H66653   3.766   1.497   7.104  0.0870  0.7155  0.8478
  494MOL0     H66654   4.045   1.712   6.473 -0.3714  1.8577 -1.2602
  494MOL0     H66655   4.278   1.678   6.442 -2.3252  1.6031 -2.1343
  494MOL0     H66656   4.551   1.980   6.579 -3.5477 -0.2932  0.2738
  494MOL0     H66657   4.577   1.896   6.729 -0.3891  4.1544 -0.6818
  494MOL0     H66658   4.720   1.848   6.455  0.3089 -1.4851  0.7465
  494MOL0     H66659   4.787   1.926   6.600 -0.0287 -0.0678 -0.3324
  494MOL0     H66660   4.672   1.646   6.594  0.0742 -0.2125 -0.1105
  494MOL0     H66661   4.770   1.706   6.723  0.7444  3.5915  0.7374
  494MOL0     H66662   4.835   1.622   6.422 -0.1577 -3.5631  1.0810
  494MOL0     H66663   4.947   1.713   6.512 -1.1040  0.4215 -1.8711
  494MOL0     H66664   4.823   1.461   6.588 -0.4887 -2.1302 -6.3538
  494MOL0     H66665   4.957   1.528   6.688  3.0200 -2.5008 -1.0290
  494MOL0     H66666   5.034   1.342   6.576 -2.5911  0.3423  1.7863
  494MOL0     H66667   4.992   1.392   6.417  0.5562  1.5814 -1.1219
  494MOL0     H66668   5.129   1.615   6.459  3.9067  0.8937 -1.5312
  494MOL0     H66669   5.209   1.459   6.417  2.5741 -1.4370  2.2642
  494MOL0     H66670   5.197   1.579   6.703  2.0875 -0.8065  3.0000
  494MOL0     H66671   5.328   1.594   6.593  0.9812 -1.0822  0.2626
  494MOL0     H66672   4.349   1.966   6.756  0.6290 -0.1394 -0.9374
  494MOL0     H66673   4.121   1.963   6.807  1.7390 -0.4784  0.1960
  494MOL0     H66674   3.651   1.790   6.631 -0.9650 -1.0045 -0.3704
  494MOL0     H66675   3.455   1.689   6.641  1.1134  1.5532 -1.2527
  494MOL0     H66676   3.557   1.204   6.857  0.9955 -1.8040 -0.9465
  494MOL0     H66677   3.789   1.274   6.934  1.2422  0.1707 -1.1697
  494MOL0     H66678   4.127   1.403   6.983 -0.9186 -2.2533 -2.7655
  494MOL0     H66679   4.324   1.444   7.102 -3.6701 -0.5012  0.1258
  494MOL0     H66680   4.694   1.466   6.879 -0.6820 -1.2849  1.8936
  494MOL0     H66681   4.671   1.638   6.883  0.8568 -0.1994  0.1681
  494MOL0     H66682   4.803   1.486   7.111 -1.7651 -0.3968 -0.4644
  494MOL0     H66683   4.740   1.657   7.114  0.8374 -0.3376  0.7848
  494MOL0     H66684   4.888   1.726   6.938 -0.2563  0.0561  1.6065
  494MOL0     H66685   4.957   1.564   6.943  1.2220  2.2220 -1.9465
  494MOL0     H66686   5.000   1.612   7.196 -2.3358 -1.1807 -0.3743
  494MOL0     H66687   4.948   1.784   7.163  0.4508  0.3834 -2.1706
  494MOL0     H66688   5.328   1.807   7.021  0.5271 -1.0374  2.9833
  494MOL0     H66689   4.529   1.524   6.742  0.6470 -1.6130  1.9902
  494MOL0     H66690   4.317   1.476   6.611 -0.6428 -0.9987 -0.0623
  495MOL0     O66691   9.941   2.307   2.084  0.1646 -0.6938  0.0808
  495MOL0     C66692  10.035   2.247   2.033  0.3016  0.8843 -0.7262
  495MOL0     O66693  10.023   2.165   1.922 -0.2426  0.8837  0.3606
  495MOL0     C66694   9.920   2.182   1.831  0.5804  0.7190  0.0822
  495MOL0     C66695   9.865   2.071   1.774 -0.2730  0.5978 -1.0579
  495MOL0     C66696   9.769   2.064   1.671 -0.2232  0.5302  0.0145
  495MOL0     C66697   9.701   2.184   1.648 -0.5895 -1.4951  0.5497
  495MOL0     O66698   9.590   2.173   1.570 -0.3413 -0.6826 -0.8068
  495MOL0     C66699   9.562   2.267   1.462 -0.0764  0.3564  0.8318
  495MOL0     C66700   9.442   2.214   1.370 -0.5791  0.4838 -0.1927
  495MOL0     C66701   9.315   2.259   1.423  1.0422 -0.0172 -0.7521
  495MOL0     C66702   9.276   2.183   1.548 -0.5114  0.3576 -0.8146
  495MOL0     C66703   9.137   2.233   1.595 -0.3272 -0.1126  0.2521
  495MOL0     C66704   9.093   2.179   1.735  0.0462 -0.3225 -0.2945
  495MOL0     C66705   9.002   2.274   1.820  0.8267 -0.1305 -0.2269
  495MOL0     C66706   9.047   2.417   1.845 -0.5006 -0.6739  0.4063
  495MOL0     N66707   9.146   2.428   1.953  0.0274  0.3161 -0.2228
  495MOL0     C66708   9.282   2.448   1.927 -0.5531 -0.0325 -0.6611
  495MOL0     C66709   9.339   2.452   2.052  0.1151  0.4806  0.0355
  495MOL0     C66710   9.461   2.527   2.088  0.9456  0.1441  0.5700
  495MOL0     C66711   9.562   2.446   2.176 -0.4253 -0.1609  0.1464
  495MOL0     C66712   9.524   2.449   2.332 -0.4221 -0.7120 -0.6030
  495MOL0     C66713   9.643   2.447   2.420  0.8639 -0.9280 -0.1356
  495MOL0     O66714   9.725   2.567   2.392 -0.1524 -0.4002 -0.5011
  495MOL0     C66715   9.849   2.579   2.445 -0.4501  0.1826 -0.3114
  495MOL0     C66716   9.891   2.708   2.472  0.2017 -0.1026 -0.0166
  495MOL0     C66717  10.017   2.735   2.526  0.2535 -0.5357  0.5181
  495MOL0     C66718  10.041   2.876   2.556  0.5506 -0.5746  0.5772
  495MOL0     C66719  10.109   2.631   2.548  0.3482 -0.3623 -0.9681
  495MOL0     C66720  10.235   2.645   2.622  0.5657  0.3974  0.3558
  495MOL0     O66721  10.247   2.743   2.713 -0.5289  0.4981  0.0454
  495MOL0     C66722  10.364   2.783   2.764  0.2267  0.3913 -0.5915
  495MOL0     C66723  10.359   2.835   2.888 -0.1681 -0.0987 -0.1458
  495MOL0     C66724  10.476   2.877   2.959  0.6664 -0.1927 -0.2997
  495MOL0     C66725  10.600   2.877   2.896  0.2050  0.3147 -0.2959
  495MOL0     O66726  10.702   2.915   2.978 -0.0331  0.7726  0.0922
  495MOL0     C66727  10.805   3.002   2.919 -0.2876  0.0378  0.4384
  495MOL0     C66728  10.761   3.132   2.852  0.8482 -0.3640  0.5031
  495MOL0     C66729  10.718   3.233   2.954 -0.4134  0.0839  0.0334
  495MOL0     C66730  10.694   3.371   2.901  0.5699  0.5664 -0.0656
  495MOL0     C66731  10.669   3.473   3.008 -0.1918 -0.0421 -1.0923
  495MOL0     C66732  10.661   3.615   2.956  0.3657  0.0269  0.2969
  495MOL0     C66733  10.660   3.702   3.074 -0.1888  0.0940 -0.6542
  495MOL0     C66734  10.630   3.846   3.021  0.4749  0.4042 -0.0458
  495MOL0    Cl66735  10.678   3.956   3.148 -0.0500  0.3812 -0.1986
  495MOL0     C66736  10.610   2.831   2.765  0.2880 -0.2363  0.2071
  495MOL0     C66737  10.494   2.787   2.700  0.2706 -0.1159  0.3207
  495MOL0     O66738  10.326   2.570   2.581  0.3021 -0.1512 -0.9724
  495MOL0     C66739  10.067   2.501   2.515  1.5979 -0.9161  0.2335
  495MOL0     C66740   9.942   2.477   2.461 -0.3735 -0.1600  0.1624
  495MOL0     N66741   9.246   2.411   2.144 -0.5831  0.2786  0.5204
  495MOL0     N66742   9.136   2.406   2.088  0.0638  0.0076  0.1339
  495MOL0     C66743   9.746   2.303   1.706  0.5931  0.2993 -0.3235
  495MOL0     C66744   9.852   2.300   1.795 -0.6743 -0.6506  1.6312
  495MOL0     C66745  10.169   2.268   2.099  1.2048  0.2937 -0.6198
  495MOL0     C66746  10.286   2.210   2.047  0.0447 -0.2636 -0.5487
  495MOL0     C66747  10.408   2.236   2.111  0.4580  0.7569  0.0195
  495MOL0     C66748  10.418   2.308   2.226 -0.2913 -0.5468  1.0189
  495MOL0     O66749  10.536   2.332   2.284 -0.6168  0.0775  0.5833
  495MOL0     C66750  10.534   2.380   2.421 -0.7075  1.0497 -0.1959
  495MOL0     C66751  10.671   2.357   2.479 -0.1250 -0.2191  0.2920
  495MOL0     C66752  10.770   2.480   2.467  0.1131  0.1468 -0.7148
  495MOL0     C66753  10.887   2.451   2.553 -0.1541 -0.6551 -0.2142
  495MOL0     C66754  10.963   2.563   2.596 -0.2594  0.1222  0.0822
  495MOL0     C66755  11.033   2.661   2.624 -0.4177  0.2658 -0.7535
  495MOL0     C66756  10.297   2.352   2.284 -0.2845 -0.1867  0.1810
  495MOL0     C66757  10.175   2.325   2.225 -0.1546  0.4049 -0.1698
  495MOL0     H66758   9.923   1.985   1.808  1.3975  1.5624 -1.3740
  495MOL0     H66759   9.732   1.967   1.641 -1.2834  0.0471  2.6466
  495MOL0     H66760   9.536   2.366   1.502  2.0289  2.2976 -2.1887
  495MOL0     H66761   9.652   2.268   1.402 -1.3711  1.5956 -1.2135
  495MOL0     H66762   9.460   2.248   1.267  1.5670  1.6459  0.5032
  495MOL0     H66763   9.435   2.104   1.371 -3.3569  0.5338 -2.3200
  495MOL0     H66764   9.339   2.364   1.440 -0.3248  0.1698  0.1764
  495MOL0     H66765   9.240   2.252   1.345  0.4060 -1.4172 -0.0467
  495MOL0     H66766   9.272   2.075   1.529 -4.7859  0.7714 -3.5723
  495MOL0     H66767   9.344   2.206   1.631  1.8178 -0.8167 -2.3225
  495MOL0     H66768   9.147   2.341   1.586  0.8675 -0.3450 -1.8476
  495MOL0     H66769   9.068   2.198   1.517  2.0833 -0.5618 -1.8160
  495MOL0     H66770   9.057   2.077   1.723  1.4928 -0.6792 -2.3548
  495MOL0     H66771   9.177   2.166   1.804 -1.4213  0.9232  1.8346
  495MOL0     H66772   8.904   2.286   1.771  0.9315 -1.9059 -0.9361
  495MOL0     H66773   8.989   2.226   1.918  1.1641 -0.8753 -0.5406
  495MOL0     H66774   8.962   2.485   1.858 -1.5729 -1.9787  0.4441
  495MOL0     H66775   9.100   2.455   1.757  0.1793 -0.0504  1.0726
  495MOL0     H66776   9.335   2.469   1.834  0.4944 -0.1748 -0.1149
  495MOL0     H66777   9.502   2.548   1.988 -0.1808 -2.6396 -0.5653
  495MOL0     H66778   9.427   2.608   2.153  1.1697  0.2116  0.6047
  495MOL0     H66779   9.657   2.498   2.160  0.8615 -2.7547 -1.1901
  495MOL0     H66780   9.575   2.343   2.143 -1.5766 -0.8266  1.6429
  495MOL0     H66781   9.473   2.354   2.347  0.5748 -1.0743  0.6228
  495MOL0     H66782   9.458   2.535   2.353 -1.7355 -1.5493 -1.1596
  495MOL0     H66783   9.695   2.357   2.387  3.9838  0.9527 -0.7401
  495MOL0     H66784   9.608   2.441   2.524 -0.5311  0.4772 -0.4742
  495MOL0     H66785   9.824   2.786   2.438 -1.3585 -1.2593  0.2673
  495MOL0     H66786  10.053   2.899   2.662 -2.1285 -1.2463  1.0965
  495MOL0     H66787  10.128   2.906   2.495  0.4743 -1.4007  0.0493
  495MOL0     H66788   9.963   2.945   2.523  1.9667 -0.3286 -2.7424
  495MOL0     H66789  10.270   2.836   2.951  0.7767 -2.0833  1.3406
  495MOL0     H66790  10.465   2.910   3.062  3.4623 -0.0121  0.0044
  495MOL0     H66791  10.883   3.013   2.995  0.6950 -2.7608 -0.0077
  495MOL0     H66792  10.851   2.946   2.837  0.0827  2.1398 -0.8612
  495MOL0     H66793  10.846   3.158   2.788  0.2567  1.0604  0.2590
  495MOL0     H66794  10.685   3.106   2.778  1.2940  1.4568 -0.6484
  495MOL0     H66795  10.785   3.236   3.041  1.4531 -0.9578 -1.3195
  495MOL0     H66796  10.622   3.204   2.999 -0.3829 -2.2828 -1.2912
  495MOL0     H66797  10.775   3.404   2.835  0.1398 -1.4318 -1.6751
  495MOL0     H66798  10.608   3.379   2.835  0.8801  0.1523 -0.5305
  495MOL0     H66799  10.741   3.459   3.089 -0.5751 -2.8659 -1.1329
  495MOL0     H66800  10.573   3.459   3.059  0.3184  1.1196  0.2626
  495MOL0     H66801  10.735   3.639   2.880  0.5960  0.6425  0.7054
  495MOL0     H66802  10.561   3.628   2.913 -0.1043  0.9347  1.5853
  495MOL0     H66803  10.762   3.715   3.112  0.3561  0.1955 -2.0773
  495MOL0     H66804  10.584   3.679   3.148 -0.1275  0.1825 -0.5626
  495MOL0     H66805  10.523   3.859   3.003  0.6623  0.2573 -1.3204
  495MOL0     H66806  10.674   3.860   2.922 -1.0792 -0.1955 -0.8652
  495MOL0     H66807  10.707   2.827   2.716 -1.7731  1.5590 -4.6938
  495MOL0     H66808  10.494   2.761   2.594 -0.7852 -1.8197  0.7018
  495MOL0     H66809  10.129   2.417   2.545  2.9409  0.1594  0.5637
  495MOL0     H66810   9.915   2.372   2.454  0.1954 -0.2242 -1.2256
  495MOL0     H66811   9.692   2.394   1.681 -0.3821 -0.0600  0.4099
  495MOL0     H66812   9.888   2.392   1.840 -1.4242  0.0291  0.8837
  495MOL0     H66813  10.295   2.154   1.955  2.7176 -2.5231  0.9386
  495MOL0     H66814  10.498   2.199   2.062  0.9775 -1.8544  2.6647
  495MOL0     H66815  10.509   2.485   2.435 -4.3431  0.2346  0.4648
  495MOL0     H66816  10.465   2.327   2.487  0.6909 -2.0098 -0.9659
  495MOL0     H66817  10.711   2.270   2.428 -0.1107 -0.3955  0.6018
  495MOL0     H66818  10.650   2.339   2.585 -2.6160 -1.5393 -0.3557
  495MOL0     H66819  10.720   2.572   2.499  0.1337 -0.0824 -0.0036
  495MOL0     H66820  10.799   2.493   2.363 -0.4494 -0.0178 -0.8963
  495MOL0     H66821  10.954   2.378   2.507  0.1745 -0.3859 -0.1678
  495MOL0     H66822  10.853   2.400   2.644  1.1253 -0.7651  0.2370
  495MOL0     H66823  11.086   2.750   2.652  1.1150 -1.0966  0.9185
  495MOL0     H66824  10.296   2.411   2.375  2.4262 -1.3032  1.0174
  495MOL0     H66825  10.084   2.356   2.275  0.4815  1.6729  0.2299
  496MOL0     O66826   4.241   4.366   0.163 -0.0454 -0.8742  0.5226
  496MOL0     C66827   4.207   4.459   0.081 -0.4797  0.6361 -0.6788
  496MOL0     O66828   4.085   4.507   0.058 -0.5719 -0.7072 -0.0490
  496MOL0     C66829   3.979   4.451   0.108  0.2023  0.1280 -0.1707
  496MOL0     C66830   3.956   4.312   0.093  0.0409 -0.2198 -1.0085
  496MOL0     C66831   3.833   4.256   0.133  1.0859  0.3272  0.5715
  496MOL0     C66832   3.732   4.330   0.194 -0.3222 -0.2264 -0.5832
  496MOL0     O66833   3.620   4.258   0.232 -0.3171 -0.5629 -0.2384
  496MOL0     C66834   3.506   4.316   0.173  0.1122 -1.5199 -0.0444
  496MOL0     C66835   3.387   4.225   0.179  0.6822 -0.2159  1.1325
  496MOL0     C66836   3.355   4.188   0.320  0.1245 -0.4203 -1.4608
  496MOL0     C66837   3.263   4.074   0.351 -1.0848  0.1682  0.3734
  496MOL0     C66838   3.128   4.088   0.282 -0.6790  0.6125 -0.0221
  496MOL0     C66839   3.044   4.199   0.309 -0.0255  0.8781  0.6511
  496MOL0     C66840   2.981   4.194   0.447 -0.4653  0.0633  0.8965
  496MOL0     C66841   2.853   4.269   0.428 -0.1248 -0.1480 -0.0775
  496MOL0     N66842   2.871   4.410   0.398  0.2223  0.1013  0.4692
  496MOL0     C66843   2.803   4.503   0.466  0.8648 -0.6505 -0.1979
  496MOL0     C66844   2.789   4.613   0.389 -0.0914  0.0975 -0.3895
  496MOL0     C66845   2.714   4.736   0.428  0.6738  0.3030 -0.0502
  496MOL0     C66846   2.802   4.841   0.497 -0.0541 -0.3833 -1.3736
  496MOL0     C66847   2.924   4.885   0.409  0.3148  1.0594 -1.0484
  496MOL0     C66848   2.878   4.966   0.290  0.0332  0.4699 -1.5400
  496MOL0     O66849   2.978   5.043   0.225 -0.1767 -0.3735  0.0415
  496MOL0     C66850   3.088   4.977   0.171 -0.1995 -0.0285 -0.1069
  496MOL0     C66851   3.105   4.833   0.145  0.9635  0.0990 -0.9744
  496MOL0     C66852   3.224   4.783   0.097 -0.4832  0.1572 -0.1210
  496MOL0     C66853   3.227   4.635   0.085 -0.6419 -0.3887 -0.5787
  496MOL0     C66854   3.326   4.866   0.051  0.0052 -0.5931 -0.4757
  496MOL0     C66855   3.453   4.821   0.010 -0.1157  0.2089  0.4197
  496MOL0     O66856   3.486   4.850  -0.127  0.6226 -0.3584 -0.2803
  496MOL0     C66857   3.595   4.794  -0.193  0.1714  0.2003 -0.9141
  496MOL0     C66858   3.628   4.855  -0.315 -0.6708 -0.7945 -0.6271
  496MOL0     C66859   3.732   4.798  -0.389 -0.7718  0.6061 -0.7438
  496MOL0     C66860   3.810   4.693  -0.335 -0.2996  0.8703  0.6263
  496MOL0     O66861   3.909   4.642  -0.420 -0.1433  0.4984  0.7003
  496MOL0     C66862   4.030   4.577  -0.358  0.4171 -0.0480  0.3378
  496MOL0     C66863   4.142   4.563  -0.462 -0.8632  0.8607  0.1096
  496MOL0     C66864   4.282   4.562  -0.402  0.0178  0.0112 -0.8176
  496MOL0     C66865   4.391   4.591  -0.503  0.5895  0.8995 -0.1500
  496MOL0     C66866   4.403   4.477  -0.612 -0.7508  0.3255  0.2791
  496MOL0     C66867   4.522   4.509  -0.706 -0.1174 -0.0298 -0.6397
  496MOL0     C66868   4.554   4.395  -0.795 -0.4862 -0.1072 -0.0869
  496MOL0     C66869   4.664   4.428  -0.894  0.7119  0.2487 -0.0350
  496MOL0    Cl66870   4.819   4.424  -0.802  0.4011  0.0654  0.0329
  496MOL0     C66871   3.780   4.636  -0.216 -0.5566  0.0991 -0.0191
  496MOL0     C66872   3.671   4.689  -0.143  0.5155  0.3029 -0.0484
  496MOL0     O66873   3.526   4.770   0.097 -0.1139  0.1070  0.3939
  496MOL0     C66874   3.306   5.007   0.059 -0.4561 -0.3559 -0.5578
  496MOL0     C66875   3.183   5.064   0.110  0.8396  0.0449  0.5150
  496MOL0     N66876   2.860   4.581   0.274 -0.3032 -0.0233 -0.2962
  496MOL0     N66877   2.909   4.464   0.286  0.0604  0.0562 -0.1509
  496MOL0     C66878   3.755   4.466   0.221  0.2197 -0.0377 -0.3497
  496MOL0     C66879   3.878   4.529   0.176 -0.1443 -0.1214  0.6618
  496MOL0     C66880   4.325   4.517   0.009 -0.8852 -0.0022 -0.0002
  496MOL0     C66881   4.326   4.645  -0.046  0.4667  0.6478 -0.2770
  496MOL0     C66882   4.432   4.693  -0.121  0.4634 -0.1242  0.1000
  496MOL0     C66883   4.545   4.614  -0.129 -0.5874 -0.4019 -0.3712
  496MOL0     O66884   4.663   4.658  -0.180 -0.2724  0.3348 -0.7109
  496MOL0     C66885   4.665   4.798  -0.211 -0.8185  0.9330  0.8397
  496MOL0     C66886   4.794   4.851  -0.242 -0.6434 -0.0582 -0.0667
  496MOL0     C66887   4.830   4.851  -0.395 -0.5864 -0.5851  0.1294
  496MOL0     C66888   4.894   4.719  -0.453 -1.1252 -0.3637 -0.2678
  496MOL0     C66889   4.964   4.740  -0.581  0.0552  0.4548  0.7390
  496MOL0     C66890   5.006   4.764  -0.696  0.1192 -0.4137 -0.2192
  496MOL0     C66891   4.557   4.487  -0.068 -1.0691  0.3894 -0.0121
  496MOL0     C66892   4.446   4.438  -0.002  0.9955  0.6822  0.5669
  496MOL0     H66893   4.034   4.251   0.049 -0.8094 -0.0456 -2.8682
  496MOL0     H66894   3.816   4.149   0.126  1.1826  0.2321  1.7170
  496MOL0     H66895   3.480   4.413   0.218 -0.4802 -1.9719  0.6112
  496MOL0     H66896   3.518   4.332   0.066 -0.3529  1.1935  0.2396
  496MOL0     H66897   3.314   4.275   0.115  2.1976 -1.2724 -1.5732
  496MOL0     H66898   3.414   4.132   0.128 -2.1713  0.5612 -2.2061
  496MOL0     H66899   3.447   4.164   0.374 -1.3323 -0.2445  1.2319
  496MOL0     H66900   3.307   4.270   0.373  2.3121 -1.3273  2.2645
  496MOL0     H66901   3.321   3.988   0.316 -0.1346  1.4566 -1.4050
  496MOL0     H66902   3.260   4.060   0.459 -1.3635 -5.1338 -0.0481
  496MOL0     H66903   3.148   4.079   0.175 -0.2760 -0.8174  0.1438
  496MOL0     H66904   3.084   3.992   0.309 -1.4895  0.9335 -0.1900
  496MOL0     H66905   3.100   4.289   0.282 -1.1621  0.6530 -2.9275
  496MOL0     H66906   2.961   4.188   0.238 -0.7879 -0.8614  1.7502
  496MOL0     H66907   2.959   4.088   0.467  0.1179 -0.1047  0.6670
  496MOL0     H66908   3.047   4.233   0.525 -1.3380 -1.8963  2.7100
  496MOL0     H66909   2.793   4.259   0.519 -1.6573  0.9765 -0.9155
  496MOL0     H66910   2.799   4.216   0.349 -0.5977  2.3273 -1.5185
  496MOL0     H66911   2.773   4.493   0.570 -0.1588  3.0989  0.0214
  496MOL0     H66912   2.655   4.778   0.346  1.4212  1.6208  0.0651
  496MOL0     H66913   2.641   4.699   0.501  0.8923  0.4834  0.2642
  496MOL0     H66914   2.836   4.809   0.596 -2.9642  0.3731 -0.0121
  496MOL0     H66915   2.746   4.933   0.519  2.1716  0.8085 -0.3659
  496MOL0     H66916   2.976   4.792   0.384  1.7007 -0.3041  5.2298
  496MOL0     H66917   2.994   4.933   0.477 -1.1376  0.2222  1.1544
  496MOL0     H66918   2.790   5.025   0.320  0.9016  1.3092 -0.5711
  496MOL0     H66919   2.828   4.894   0.225  2.3744 -2.0209 -0.7158
  496MOL0     H66920   3.025   4.768   0.179  1.9421 -1.2253 -1.1203
  496MOL0     H66921   3.154   4.590   0.152 -3.4066  3.3439 -0.7537
  496MOL0     H66922   3.207   4.614  -0.020  2.3862 -4.0520 -0.6299
  496MOL0     H66923   3.326   4.592   0.102 -1.5752 -1.9615  1.2004
  496MOL0     H66924   3.554   4.924  -0.355  0.3122 -0.4936 -2.0099
  496MOL0     H66925   3.757   4.827  -0.490 -1.7124 -1.7400 -1.7432
  496MOL0     H66926   4.053   4.638  -0.270 -0.8115  1.5444 -0.4025
  496MOL0     H66927   4.008   4.480  -0.313 -0.1762  0.3002  0.8107
  496MOL0     H66928   4.122   4.470  -0.516 -0.8940 -0.0241  1.5720
  496MOL0     H66929   4.149   4.641  -0.538  0.3521  0.1029 -0.5940
  496MOL0     H66930   4.309   4.473  -0.344  3.0387  2.4952  2.0312
  496MOL0     H66931   4.290   4.646  -0.333 -0.2045 -0.8881  0.3413
  496MOL0     H66932   4.375   4.687  -0.554  2.1492  1.0105 -0.4996
  496MOL0     H66933   4.484   4.593  -0.445  0.5252 -2.4355  0.2086
  496MOL0     H66934   4.314   4.481  -0.675 -1.2243  0.4875  0.9459
  496MOL0     H66935   4.412   4.379  -0.563 -2.5190  1.1389  2.3815
  496MOL0     H66936   4.490   4.603  -0.752 -4.2809  0.8494  3.3630
  496MOL0     H66937   4.608   4.536  -0.644  0.2538 -0.0708 -1.1292
  496MOL0     H66938   4.460   4.378  -0.848 -0.3314  2.7000 -1.4471
  496MOL0     H66939   4.588   4.308  -0.738  2.9396  1.0141 -0.1706
  496MOL0     H66940   4.643   4.526  -0.938 -0.8384 -0.8280 -1.8170
  496MOL0     H66941   4.672   4.355  -0.975  3.5304  0.6436 -0.2365
  496MOL0     H66942   3.834   4.551  -0.175 -2.2926 -2.1616 -2.1255
  496MOL0     H66943   3.645   4.630  -0.055  1.4811 -3.0613 -1.8526
  496MOL0     H66944   3.381   5.077   0.023 -1.1031 -0.4094 -2.0749
  496MOL0     H66945   3.164   5.170   0.105 -0.9419 -0.2421  0.5792
  496MOL0     H66946   3.677   4.523   0.271 -0.6638  0.9449 -2.7241
  496MOL0     H66947   3.894   4.636   0.185 -3.5708  0.8999 -2.8020
  496MOL0     H66948   4.237   4.706  -0.038 -0.8393 -1.1295 -0.6186
  496MOL0     H66949   4.432   4.785  -0.178  0.6070 -0.6176 -0.7241
  496MOL0     H66950   4.601   4.816  -0.299 -1.5914 -0.8150  1.0039
  496MOL0     H66951   4.631   4.860  -0.127  2.9497  3.2104  0.8834
  496MOL0     H66952   4.866   4.783  -0.196 -2.5539 -0.9551  1.7305
  496MOL0     H66953   4.807   4.954  -0.208  0.0922 -0.0428 -0.3784
  496MOL0     H66954   4.908   4.928  -0.405  0.1090 -1.2079  0.6246
  496MOL0     H66955   4.747   4.882  -0.459  0.0861  1.6244  0.2213
  496MOL0     H66956   4.817   4.641  -0.450 -1.3106 -0.1624  0.3123
  496MOL0     H66957   4.958   4.677  -0.374 -0.4775 -3.4619 -2.2554
  496MOL0     H66958   5.040   4.790  -0.794 -0.3570  2.0287  0.2154
  496MOL0     H66959   4.648   4.430  -0.084 -1.3988  0.0841 -0.9331
  496MOL0     H66960   4.452   4.339   0.042  0.0135  0.4697  0.2514
  497MOL0     O66961   6.876   7.048   4.076 -0.1289  0.1857  0.5783
  497MOL0     C66962   6.937   7.160   4.080  0.8926  0.2070  0.0738
  497MOL0     O66963   6.889   7.280   4.126 -0.2564  0.1053 -0.1258
  497MOL0     C66964   6.748   7.288   4.129 -0.0860  0.0792 -0.1830
  497MOL0     C66965   6.691   7.373   4.040  1.3793 -1.0648 -0.0889
  497MOL0     C66966   6.552   7.412   4.057  0.0469 -0.0830 -0.5678
  497MOL0     C66967   6.477   7.346   4.151  0.0726 -0.0003  0.2953
  497MOL0     O66968   6.346   7.380   4.177  0.1915 -0.3268  0.3788
  497MOL0     C66969   6.285   7.486   4.106 -0.4457  0.3034  0.5809
  497MOL0     C66970   6.137   7.472   4.141 -0.4595  0.5805 -0.1398
  497MOL0     C66971   6.039   7.572   4.079 -0.1429  0.2546  0.2291
  497MOL0     C66972   5.900   7.526   4.112 -0.2711  0.4642 -0.5209
  497MOL0     C66973   5.797   7.625   4.074  0.2322 -0.3325  0.5392
  497MOL0     C66974   5.659   7.602   4.132 -0.4232  0.8851  0.2289
  497MOL0     C66975   5.562   7.712   4.078  0.3021  0.1643 -0.0433
  497MOL0     C66976   5.429   7.690   4.138 -0.5263  1.2021 -0.4485
  497MOL0     N66977   5.335   7.798   4.112 -0.2006 -0.0421  0.4764
  497MOL0     C66978   5.208   7.813   4.167 -1.0763 -0.9204 -0.2919
  497MOL0     C66979   5.160   7.928   4.109 -0.8462 -1.1915 -0.5924
  497MOL0     C66980   5.027   7.988   4.143  0.0653  0.0550 -0.5898
  497MOL0     C66981   4.905   7.930   4.076  0.4204  0.0775  0.0062
  497MOL0     C66982   4.915   7.953   3.925 -0.6701  0.2152 -0.1662
  497MOL0     C66983   4.779   7.896   3.871  0.3194 -0.2084 -0.2883
  497MOL0     O66984   4.779   7.893   3.732  0.0667 -0.1737 -0.3471
  497MOL0     C66985   4.687   7.975   3.676 -0.1017 -0.1171 -0.0959
  497MOL0     C66986   4.564   7.917   3.649 -0.0082 -0.5596 -0.3693
  497MOL0     C66987   4.460   7.989   3.583 -0.2919 -0.7170  0.1833
  497MOL0     C66988   4.325   7.920   3.549 -0.1278  0.7055  0.2822
  497MOL0     C66989   4.482   8.123   3.562  0.1631  0.2668  1.0394
  497MOL0     C66990   4.385   8.216   3.492  0.6133  0.5462  0.0035
  497MOL0     O66991   4.281   8.160   3.425 -0.3631 -0.0103 -1.0588
  497MOL0     C66992   4.168   8.226   3.391 -0.0903  0.5414 -0.5896
  497MOL0     C66993   4.044   8.169   3.406 -0.2557 -0.1946  0.8192
  497MOL0     C66994   3.926   8.229   3.353 -0.0104 -0.3593 -0.2715
  497MOL0     C66995   3.936   8.354   3.277 -0.2904 -0.1316  0.3090
  497MOL0     O66996   3.816   8.411   3.233  0.2436  0.2699 -0.1206
  497MOL0     C66997   3.826   8.521   3.137  0.1578 -0.7497 -0.7537
  497MOL0     C66998   3.691   8.536   3.066 -0.2726  0.6117  0.0799
  497MOL0     C66999   3.713   8.653   2.966 -0.3061  0.6514  0.2982
  497MOL0     C67000   3.581   8.698   2.911 -0.4478  0.1098 -0.3863
  497MOL0     C67001   3.594   8.805   2.809  0.8420 -0.1395 -0.4200
  497MOL0     C67002   3.451   8.834   2.762 -0.3645 -0.2433  0.3988
  497MOL0     C67003   3.453   8.937   2.654 -0.0463  0.0626 -0.2662
  497MOL0     C67004   3.309   8.986   2.634  0.2593  0.0604 -1.2671
  497MOL0    Cl67005   3.201   8.843   2.633  0.3590  0.1565 -0.1703
  497MOL0     C67006   4.060   8.416   3.260 -1.5213  0.2380 -0.7606
  497MOL0     C67007   4.176   8.346   3.306 -0.9168  1.2387 -0.0788
  497MOL0     O67008   4.411   8.331   3.496  1.0206 -0.1508  0.6526
  497MOL0     C67009   4.612   8.175   3.584 -0.6093  0.4826 -0.7187
  497MOL0     C67010   4.718   8.104   3.643  0.5816  0.0689  1.2134
  497MOL0     N67011   5.255   7.989   4.028  0.1640  0.1045 -0.0087
  497MOL0     N67012   5.364   7.912   4.037  0.6563 -1.0473 -0.1199
  497MOL0     C67013   6.531   7.248   4.228 -0.1717  0.0280 -0.9603
  497MOL0     C67014   6.665   7.220   4.227  0.8201 -0.0204  0.1874
  497MOL0     C67015   7.084   7.158   4.041  0.3404 -0.2073  0.7753
  497MOL0     C67016   7.151   7.280   4.034 -0.0980 -0.3567 -0.7346
  497MOL0     C67017   7.284   7.296   3.992 -1.1146  0.1876 -0.8070
  497MOL0     C67018   7.353   7.182   3.955 -0.7790 -0.1867 -0.1956
  497MOL0     O67019   7.482   7.178   3.917  0.1276 -0.0072  0.1371
  497MOL0     C67020   7.568   7.294   3.899  0.8642 -0.1385  0.0605
  497MOL0     C67021   7.613   7.347   4.044  0.0031 -0.6525 -0.1218
  497MOL0     C67022   7.705   7.253   4.113 -0.4234 -0.1430 -0.2003
  497MOL0     C67023   7.807   7.308   4.220  1.1365 -0.5789  0.4380
  497MOL0     C67024   7.925   7.227   4.227  0.8170  0.2019  0.3213
  497MOL0     C67025   8.027   7.158   4.219  0.3243 -0.1333 -0.0367
  497MOL0     C67026   7.293   7.057   3.960 -0.2265  0.2259 -0.6502
  497MOL0     C67027   7.163   7.048   4.010  0.3478 -0.2014  0.6167
  497MOL0     H67028   6.749   7.421   3.962 -1.8454  0.4928 -1.7218
  497MOL0     H67029   6.505   7.481   3.988  0.8949 -0.3266 -1.4044
  497MOL0     H67030   6.314   7.574   4.165  0.2576 -0.9734  2.2271
  497MOL0     H67031   6.308   7.486   3.999  1.8579 -3.2323  0.9370
  497MOL0     H67032   6.112   7.371   4.107 -0.7176  0.5467  0.1369
  497MOL0     H67033   6.129   7.467   4.250  1.6831 -2.6589 -0.0143
  497MOL0     H67034   6.064   7.671   4.119  1.0536  0.5133 -1.0400
  497MOL0     H67035   6.058   7.584   3.972 -2.6488  1.5936 -0.1457
  497MOL0     H67036   5.876   7.431   4.064  0.8241  0.1137 -0.3988
  497MOL0     H67037   5.891   7.504   4.219 -0.4356  2.7174 -0.0274
  497MOL0     H67038   5.834   7.724   4.104 -1.2050 -0.2140  2.0297
  497MOL0     H67039   5.790   7.623   3.964  1.2490 -0.3260  0.4572
  497MOL0     H67040   5.619   7.504   4.106  1.7468  0.4167 -1.7052
  497MOL0     H67041   5.666   7.608   4.241  1.2907 -0.3652  0.2362
  497MOL0     H67042   5.598   7.813   4.102  0.1450  2.0769 -6.1848
  497MOL0     H67043   5.555   7.693   3.971 -0.4771 -1.9012  0.3364
  497MOL0     H67044   5.433   7.667   4.245  2.0466 -1.9782 -1.0565
  497MOL0     H67045   5.376   7.605   4.095 -0.4197  1.5016 -1.1866
  497MOL0     H67046   5.153   7.750   4.236 -2.2912 -2.5292 -2.5967
  497MOL0     H67047   5.005   7.967   4.248  1.9191 -0.0121 -0.1850
  497MOL0     H67048   5.035   8.097   4.133  1.0037 -0.0789 -1.4833
  497MOL0     H67049   4.821   7.988   4.116  1.9061  3.2416 -1.0733
  497MOL0     H67050   4.886   7.825   4.097 -0.2411  0.3701  0.9152
  497MOL0     H67051   4.999   7.899   3.880 -1.1723 -0.3452 -0.4506
  497MOL0     H67052   4.924   8.061   3.906 -1.3724  0.0980 -1.2058
  497MOL0     H67053   4.698   7.952   3.919  0.8078 -0.9985  1.5760
  497MOL0     H67054   4.769   7.796   3.915 -1.1999  0.7326  1.7001
  497MOL0     H67055   4.545   7.815   3.679  0.3913 -0.3907  0.4680
  497MOL0     H67056   4.239   7.966   3.600 -0.3378  1.4805 -0.7318
  497MOL0     H67057   4.311   7.916   3.441 -1.0884 -0.3959  0.4196
  497MOL0     H67058   4.327   7.813   3.574  1.4875  0.0294 -2.3848
  497MOL0     H67059   4.044   8.070   3.452 -1.1012 -1.1904 -1.1889
  497MOL0     H67060   3.826   8.192   3.371  0.3258 -1.1252  0.0512
  497MOL0     H67061   3.842   8.610   3.197 -0.7383 -0.7083 -0.5560
  497MOL0     H67062   3.904   8.509   3.061 -0.7707 -0.7622 -1.7338
  497MOL0     H67063   3.682   8.443   3.010 -1.0801 -0.4225  1.8638
  497MOL0     H67064   3.615   8.561   3.140  0.1575  1.2034  0.3382
  497MOL0     H67065   3.766   8.610   2.881  1.6029  0.6781  1.4310
  497MOL0     H67066   3.773   8.741   2.991 -1.3172  1.1279  1.1259
  497MOL0     H67067   3.533   8.614   2.861  2.4082 -2.4847  0.9464
  497MOL0     H67068   3.525   8.742   2.995 -0.8654  0.3242 -0.7743
  497MOL0     H67069   3.664   8.778   2.730 -0.9870 -1.0781 -1.8187
  497MOL0     H67070   3.626   8.895   2.862  1.0499 -0.4223 -0.0592
  497MOL0     H67071   3.416   8.734   2.735  2.9166 -1.9580  1.9238
  497MOL0     H67072   3.397   8.874   2.848 -0.5091  2.1534 -0.7287
  497MOL0     H67073   3.494   8.885   2.567 -2.0725 -0.7019 -0.8185
  497MOL0     H67074   3.520   9.020   2.678  0.8214 -1.0259  1.2753
  497MOL0     H67075   3.299   9.034   2.536 -0.9314 -2.1122 -2.2729
  497MOL0     H67076   3.269   9.054   2.711 -0.4781 -0.8858 -0.7939
  497MOL0     H67077   4.077   8.498   3.191  0.4625  1.8875  1.5360
  497MOL0     H67078   4.281   8.366   3.285 -0.4211  1.1683  2.0683
  497MOL0     H67079   4.633   8.281   3.576 -1.4485  0.8719  1.4747
  497MOL0     H67080   4.817   8.145   3.658 -0.5563  2.9988  1.5059
  497MOL0     H67081   6.473   7.194   4.303  0.4678  1.9650  1.0363
  497MOL0     H67082   6.697   7.155   4.307 -1.3953 -0.5622  0.6806
  497MOL0     H67083   7.099   7.373   4.054  1.8335  0.5888  0.1221
  497MOL0     H67084   7.331   7.394   3.990 -1.0533  0.2101  0.6647
  497MOL0     H67085   7.655   7.272   3.837 -0.8759  0.4561 -2.7807
  497MOL0     H67086   7.517   7.376   3.848 -3.5321 -1.5924  1.6859
  497MOL0     H67087   7.523   7.361   4.104  1.0647  2.7489  0.8731
  497MOL0     H67088   7.652   7.448   4.029 -2.5375  0.6450  1.3451
  497MOL0     H67089   7.765   7.190   4.047 -1.8523 -2.8252  0.9042
  497MOL0     H67090   7.646   7.189   4.180 -0.2495  1.6520  1.7446
  497MOL0     H67091   7.756   7.323   4.316 -1.2843  3.0064 -1.1831
  497MOL0     H67092   7.841   7.405   4.184 -1.1624 -0.5495 -1.9786
  497MOL0     H67093   8.111   7.092   4.214 -0.2233 -1.0077  1.5126
  497MOL0     H67094   7.351   6.968   3.939 -1.1530  0.2136 -3.7710
  497MOL0     H67095   7.111   6.955   4.032 -1.1745  0.3040 -0.6221
  498MOL0     O67096   6.592   1.851  10.174  0.4215  1.2491  0.3619
  498MOL0     C67097   6.628   1.776  10.261 -0.8490  0.2660 -0.6165
  498MOL0     O67098   6.565   1.749  10.379  0.0770 -0.9231 -0.3234
  498MOL0     C67099   6.446   1.815  10.416 -0.3103 -0.1430 -0.0221
  498MOL0     C67100   6.411   1.937  10.362 -0.1731 -0.0515 -0.6264
  498MOL0     C67101   6.292   1.997  10.383  0.8292 -0.0784 -0.1848
  498MOL0     C67102   6.196   1.935  10.460  1.0485 -0.1516  0.2402
  498MOL0     O67103   6.075   1.988  10.497 -0.2838 -0.2491  0.9784
  498MOL0     C67104   6.090   2.099  10.589  0.0562 -0.1963 -0.1400
  498MOL0     C67105   5.985   2.081  10.693  0.7940 -0.7334 -0.8719
  498MOL0     C67106   5.838   2.125  10.651 -0.2324 -0.6658  0.0894
  498MOL0     C67107   5.744   2.139  10.773  0.5765 -0.3330 -0.5596
  498MOL0     C67108   5.587   2.151  10.738 -0.1061 -0.0346 -0.2140
  498MOL0     C67109   5.578   2.269  10.636  0.5932 -0.4278 -0.2209
  498MOL0     C67110   5.437   2.315  10.603  0.2762  0.0556  0.1133
  498MOL0     C67111   5.376   2.212  10.502 -0.2019 -0.1347 -0.5887
  498MOL0     N67112   5.237   2.175  10.544 -0.8869 -0.4039  0.3093
  498MOL0     C67113   5.129   2.258  10.549 -0.7722  0.1844 -0.0315
  498MOL0     C67114   5.021   2.178  10.587 -0.2407 -0.1957 -0.3381
  498MOL0     C67115   4.881   2.216  10.616  0.2982 -0.2920  0.2546
  498MOL0     C67116   4.818   2.284  10.495 -0.3710 -0.1876 -1.0187
  498MOL0     C67117   4.815   2.197  10.373  0.1785 -0.4303  0.4718
  498MOL0     C67118   4.706   2.098  10.393 -0.5198  0.1103  0.4829
  498MOL0     O67119   4.663   2.050  10.265  0.0716  0.3447 -0.2240
  498MOL0     C67120   4.544   1.983  10.254 -0.4473  0.3414 -0.0230
  498MOL0     C67121   4.484   1.892  10.342 -0.4957  0.2110  0.4839
  498MOL0     C67122   4.353   1.843  10.309  0.6417 -0.1658 -0.3685
  498MOL0     C67123   4.293   1.738  10.400 -0.9184 -0.0782  0.2940
  498MOL0     C67124   4.275   1.895  10.206  0.7244 -0.3974  0.0283
  498MOL0     C67125   4.136   1.861  10.169  0.3218 -0.2342  0.7175
  498MOL0     O67126   4.058   1.828  10.277 -0.6601 -0.2608  0.8421
  498MOL0     C67127   3.928   1.776  10.258 -0.4362  0.1899  0.8514
  498MOL0     C67128   3.887   1.677  10.354  0.4546 -0.2212  0.2904
  498MOL0     C67129   3.753   1.628  10.344 -0.2451  0.2283  1.1091
  498MOL0     C67130   3.662   1.679  10.250 -0.2135  0.3297  0.5333
  498MOL0     O67131   3.525   1.641  10.256  0.1053 -0.2696  0.4121
  498MOL0     C67132   3.461   1.647  10.384  0.2124 -0.6431  0.3532
  498MOL0     C67133   3.312   1.665  10.364 -1.4373 -0.6087 -0.8363
  498MOL0     C67134   3.250   1.565  10.271  0.5364 -0.0433  0.1519
  498MOL0     C67135   3.091   1.570  10.298 -1.0195  0.3620 -0.8204
  498MOL0     C67136   3.016   1.456  10.216  0.3130 -0.0226 -0.0225
  498MOL0     C67137   2.870   1.461  10.260  0.9887 -0.1519 -0.5818
  498MOL0     C67138   2.796   1.568  10.165  0.4234 -0.5243 -0.0108
  498MOL0     C67139   2.652   1.581  10.201  0.4594 -0.8690 -0.8579
  498MOL0    Cl67140   2.640   1.657  10.359 -0.1762 -0.2162 -0.0187
  498MOL0     C67141   3.701   1.781  10.174 -0.7017 -0.2697  0.1521
  498MOL0     C67142   3.836   1.826  10.171 -0.9845 -0.3801 -0.3148
  498MOL0     O67143   4.103   1.851  10.046 -0.9429 -0.0603 -0.4744
  498MOL0     C67144   4.342   1.990  10.124  0.0538  0.5104 -0.2126
  498MOL0     C67145   4.472   2.032  10.143  0.1067 -0.3073  0.0824
  498MOL0     N67146   5.074   2.046  10.600 -1.0369 -0.1967 -0.0881
  498MOL0     N67147   5.195   2.049  10.579 -0.3091 -0.0951  0.3012
  498MOL0     C67148   6.231   1.817  10.523 -0.1948  0.5714  0.0431
  498MOL0     C67149   6.359   1.754  10.498  0.1078  0.0204 -1.0262
  498MOL0     C67150   6.747   1.709  10.228 -0.2203  0.1324  0.2510
  498MOL0     C67151   6.790   1.584  10.298  0.8750 -0.3090  0.0638
  498MOL0     C67152   6.915   1.532  10.275  0.7246  0.2137  0.8252
  498MOL0     C67153   7.012   1.581  10.190  0.3268 -0.4325  0.5463
  498MOL0     O67154   7.129   1.522  10.174  0.1131 -0.0999  0.3306
  498MOL0     C67155   7.243   1.591  10.129 -0.6475  1.0353  0.2085
  498MOL0     C67156   7.366   1.504  10.149 -0.9191  0.1044 -0.5224
  498MOL0     C67157   7.399   1.454  10.293 -0.1950 -0.3520  0.5699
  498MOL0     C67158   7.346   1.318  10.327  0.1802 -0.6798 -0.0515
  498MOL0     C67159   7.428   1.282  10.437 -0.6132  0.2203  0.4741
  498MOL0     C67160   7.488   1.249  10.537  0.0103 -0.1251 -0.1031
  498MOL0     C67161   6.965   1.694  10.116 -0.0787 -0.1853  0.3699
  498MOL0     C67162   6.839   1.755  10.134  0.0037 -0.3256  0.4866
  498MOL0     H67163   6.480   2.000  10.306 -3.3631  2.6965 -1.7720
  498MOL0     H67164   6.285   2.101  10.356  0.9646  0.4117  1.5166
  498MOL0     H67165   6.190   2.109  10.633 -0.1569  1.7102  0.0154
  498MOL0     H67166   6.073   2.193  10.536  2.1189  0.9231  1.0199
  498MOL0     H67167   5.973   1.973  10.709  0.2769 -0.9322 -2.4459
  498MOL0     H67168   6.014   2.129  10.787  0.4935 -0.1104 -1.0948
  498MOL0     H67169   5.838   2.216  10.589 -1.5557 -0.0824  0.9123
  498MOL0     H67170   5.783   2.059  10.584 -0.7542  0.8263 -1.0218
  498MOL0     H67171   5.747   2.067  10.856 -1.0129  2.2534  1.9453
  498MOL0     H67172   5.762   2.228  10.834 -4.7935  1.7343 -1.4738
  498MOL0     H67173   5.553   2.063  10.683  0.9884  0.5675 -1.9247
  498MOL0     H67174   5.522   2.160  10.826 -2.0900 -0.5734 -1.5731
  498MOL0     H67175   5.648   2.347  10.665  0.8812 -0.7424 -0.0606
  498MOL0     H67176   5.622   2.249  10.538 -0.8329  1.8375 -1.4152
  498MOL0     H67177   5.376   2.324  10.693 -1.9120 -2.0468 -1.0478
  498MOL0     H67178   5.450   2.413  10.556 -1.0759  0.6657  0.9418
  498MOL0     H67179   5.438   2.122  10.487 -1.9975 -1.5151 -0.1132
  498MOL0     H67180   5.371   2.262  10.405  1.2941  1.5646  0.1689
  498MOL0     H67181   5.131   2.366  10.538  0.4009  0.2636  0.8687
  498MOL0     H67182   4.820   2.131  10.645 -2.1631  1.1568 -0.3903
  498MOL0     H67183   4.875   2.277  10.706  1.6476 -0.0613  0.2165
  498MOL0     H67184   4.878   2.374  10.484 -2.1515  1.9557  3.7619
  498MOL0     H67185   4.720   2.313  10.532  0.4124 -0.0250  1.0907
  498MOL0     H67186   4.909   2.157  10.334  0.1462  0.5632 -0.6803
  498MOL0     H67187   4.792   2.260  10.286 -1.1539  1.3182  2.0102
  498MOL0     H67188   4.621   2.155  10.431 -1.9527  0.2166 -2.5684
  498MOL0     H67189   4.740   2.020  10.462 -0.6677  0.7814  1.3203
  498MOL0     H67190   4.543   1.861  10.428  0.1853  0.9444  0.2920
  498MOL0     H67191   4.259   1.655  10.338  0.6499 -1.6344  1.4254
  498MOL0     H67192   4.361   1.703  10.479 -1.3768  1.8308  1.6005
  498MOL0     H67193   4.208   1.782  10.453 -2.3336 -0.9922 -1.1126
  498MOL0     H67194   3.964   1.637  10.419 -1.9025 -3.1403  1.4950
  498MOL0     H67195   3.715   1.554  10.414 -2.4021 -0.2281 -0.4429
  498MOL0     H67196   3.473   1.546  10.423  2.0814 -1.0830 -1.1815
  498MOL0     H67197   3.492   1.731  10.447 -2.3411  2.3837 -2.0736
  498MOL0     H67198   3.266   1.647  10.462  2.1559 -0.3917  1.0698
  498MOL0     H67199   3.308   1.769  10.329  1.8329  0.6561  2.0105
  498MOL0     H67200   3.278   1.460  10.284  0.3171 -0.1517 -0.2246
  498MOL0     H67201   3.272   1.582  10.165 -0.9928  0.3671 -0.1268
  498MOL0     H67202   3.065   1.566  10.404  0.3145  2.2415 -0.3830
  498MOL0     H67203   3.064   1.667  10.257 -0.9796  1.4788  1.6407
  498MOL0     H67204   3.051   1.353  10.233 -0.7100 -0.2896  0.5384
  498MOL0     H67205   3.016   1.455  10.106  0.0777 -2.3952 -0.0667
  498MOL0     H67206   2.814   1.369  10.240  0.2050  0.7187 -2.6364
  498MOL0     H67207   2.866   1.482  10.367  0.1719  0.6683 -0.7650
  498MOL0     H67208   2.801   1.531  10.062 -0.1875 -0.5688 -0.0232
  498MOL0     H67209   2.840   1.668  10.157 -0.9592 -0.0351 -3.2475
  498MOL0     H67210   2.606   1.482  10.206 -0.7030 -0.2867  2.3091
  498MOL0     H67211   2.596   1.635  10.124  4.1076  1.7837 -1.9735
  498MOL0     H67212   3.632   1.828  10.106  0.0480 -2.5427 -2.3384
  498MOL0     H67213   3.859   1.910  10.106 -2.3832 -1.3326 -2.1338
  498MOL0     H67214   4.285   2.039  10.046 -0.6338  2.0717  1.2155
  498MOL0     H67215   4.513   2.107  10.076 -0.9086  1.7938  1.7021
  498MOL0     H67216   6.162   1.760  10.585  0.7070  0.5281  1.0158
  498MOL0     H67217   6.398   1.663  10.542  1.0571  1.1021  0.4659
  498MOL0     H67218   6.727   1.537  10.372 -0.1756  0.5303 -0.2659
  498MOL0     H67219   6.945   1.438  10.320 -1.4963 -2.1612 -2.1925
  498MOL0     H67220   7.230   1.611  10.022 -0.3968  0.2943  0.0334
  498MOL0     H67221   7.255   1.683  10.187  3.1349  0.8868 -0.0929
  498MOL0     H67222   7.456   1.543  10.102 -0.0007 -1.5620 -0.2509
  498MOL0     H67223   7.341   1.414  10.091  0.7905 -1.1372  0.5858
  498MOL0     H67224   7.351   1.521  10.365 -1.2528  0.6272 -0.9919
  498MOL0     H67225   7.508   1.463  10.304 -0.1527  0.0593 -0.1431
  498MOL0     H67226   7.352   1.253  10.239 -4.1370 -1.2358 -0.1062
  498MOL0     H67227   7.243   1.329  10.361  0.6388 -1.0228  1.4957
  498MOL0     H67228   7.542   1.217  10.624 -1.0888 -1.0728  0.2542
  498MOL0     H67229   7.022   1.728  10.030  0.4109  0.8332  1.0758
  498MOL0     H67230   6.823   1.847  10.080  1.4393  0.6216  1.5895
  499MOL0     O67231   9.181   0.147   2.564 -1.0623  0.0761 -0.0855
  499MOL0     C67232   9.202   0.033   2.608  0.5286  0.8208 -0.3431
  499MOL0     O67233   9.105  -0.053   2.662  0.9090 -0.2244 -0.1942
  499MOL0     C67234   8.974  -0.053   2.611  0.1215  0.9891 -0.1556
  499MOL0     C67235   8.878  -0.140   2.675 -0.8266  0.1919 -0.5984
  499MOL0     C67236   8.748  -0.130   2.639 -0.5786  0.0817 -0.0221
  499MOL0     C67237   8.697  -0.031   2.550 -0.4878  0.5371 -0.0210
  499MOL0     O67238   8.571  -0.021   2.499 -0.0422 -0.0225 -0.9344
  499MOL0     C67239   8.486   0.037   2.598  0.4414  0.3679  0.3312
  499MOL0     C67240   8.354   0.074   2.530 -0.5957  0.0983 -0.6419
  499MOL0     C67241   8.261  -0.047   2.490 -0.2828  0.1042 -0.7954
  499MOL0     C67242   8.111   0.000   2.485 -0.2071  0.7769 -0.5591
  499MOL0     C67243   8.016  -0.122   2.464  0.2692  0.2828 -0.3727
  499MOL0     C67244   7.862  -0.101   2.491  0.0383 -0.1023  0.6416
  499MOL0     C67245   7.778  -0.231   2.460 -0.1257  0.5242 -0.3366
  499MOL0     C67246   7.629  -0.211   2.472  0.5046  0.0719 -0.5430
  499MOL0     N67247   7.573  -0.103   2.388  0.1388  0.1836  0.5550
  499MOL0     C67248   7.535   0.020   2.431  1.0438  0.0674  0.5530
  499MOL0     C67249   7.447   0.066   2.332  0.3458 -0.1495 -0.4015
  499MOL0     C67250   7.371   0.194   2.343 -0.3485  1.0540 -0.5629
  499MOL0     C67251   7.224   0.160   2.313  0.1817  0.2458  0.1238
  499MOL0     C67252   7.148   0.294   2.321  1.0224  0.5512 -0.2750
  499MOL0     C67253   6.996   0.288   2.302 -0.0763 -0.3793  0.3210
  499MOL0     O67254   6.949   0.425   2.276 -0.3840  0.2603 -0.7338
  499MOL0     C67255   6.819   0.462   2.309 -0.2335  0.3291  0.6847
  499MOL0     C67256   6.729   0.378   2.387  0.4832 -0.0903 -0.3208
  499MOL0     C67257   6.605   0.425   2.427 -0.3207 -0.4383  0.0496
  499MOL0     C67258   6.522   0.329   2.509  0.5011  0.3716  0.1331
  499MOL0     C67259   6.568   0.562   2.394  0.3332  0.1957 -0.3100
  499MOL0     C67260   6.433   0.617   2.422  0.0043  0.1697 -0.0727
  499MOL0     O67261   6.380   0.598   2.547 -0.4610 -0.5157 -0.8658
  499MOL0     C67262   6.263   0.645   2.601 -0.1619 -0.5795  0.0027
  499MOL0     C67263   6.244   0.623   2.738  0.5278  0.3624 -0.2357
  499MOL0     C67264   6.124   0.668   2.804  0.4356 -0.3967  0.5382
  499MOL0     C67265   6.030   0.746   2.733 -0.1758  0.6248  0.1035
  499MOL0     O67266   5.940   0.804   2.811  0.9179  0.3252 -0.3651
  499MOL0     C67267   5.827   0.868   2.760  0.7198 -0.2843 -0.9452
  499MOL0     C67268   5.854   1.013   2.727 -0.2185 -0.1038 -0.7471
  499MOL0     C67269   5.753   1.073   2.636  1.2405 -0.6824 -0.0926
  499MOL0     C67270   5.766   1.044   2.484  0.1086 -0.4844 -0.1054
  499MOL0     C67271   5.685   1.142   2.399 -0.1945 -0.2786 -0.2689
  499MOL0     C67272   5.538   1.128   2.426  0.5129  0.7402  0.0325
  499MOL0     C67273   5.472   1.213   2.321 -1.2103  0.8293 -0.4208
  499MOL0     C67274   5.335   1.174   2.293  0.4305  0.3448  0.5002
  499MOL0    Cl67275   5.236   1.211   2.441 -0.3843  0.0871 -0.0041
  499MOL0     C67276   6.060   0.772   2.600 -0.0387  0.8024  0.0583
  499MOL0     C67277   6.174   0.737   2.535 -0.2378  1.0797  0.6744
  499MOL0     O67278   6.384   0.672   2.324  0.5816 -0.0937  0.2845
  499MOL0     C67279   6.660   0.641   2.321  0.1509 -0.0421 -0.5448
  499MOL0     C67280   6.785   0.598   2.290 -0.1044 -0.0615  0.3431
  499MOL0     N67281   7.447  -0.030   2.226 -0.0257 -0.3181  0.7381
  499MOL0     N67282   7.535  -0.129   2.261 -0.3872 -0.4794  1.0634
  499MOL0     C67283   8.788   0.043   2.483 -0.3716 -0.2572 -0.1556
  499MOL0     C67284   8.923   0.024   2.499  0.4362 -0.1906  0.0456
  499MOL0     C67285   9.339  -0.006   2.622 -0.0501 -0.2196 -0.4677
  499MOL0     C67286   9.440   0.065   2.555 -0.2053 -0.9636  0.0234
  499MOL0     C67287   9.570   0.038   2.575  0.2890 -0.3072 -0.0310
  499MOL0     C67288   9.605  -0.068   2.665  1.4332 -0.0368  0.2006
  499MOL0     O67289   9.735  -0.113   2.686 -0.1615 -0.0176  0.1342
  499MOL0     C67290   9.849  -0.028   2.669  0.2898  0.5603 -0.5449
  499MOL0     C67291   9.899  -0.025   2.532  0.2803 -0.0562  0.2783
  499MOL0     C67292  10.043   0.032   2.513 -0.9062  0.0742 -1.1646
  499MOL0     C67293  10.146  -0.079   2.545  0.2903  0.6654  0.1203
  499MOL0     C67294  10.273  -0.032   2.507 -0.4399 -0.1650  0.6180
  499MOL0     C67295  10.393   0.006   2.478  0.2697 -0.0075 -0.1004
  499MOL0     C67296   9.498  -0.144   2.722 -0.8006  0.1739  0.8388
  499MOL0     C67297   9.371  -0.113   2.700  0.4209  0.1682 -0.4008
  499MOL0     H67298   8.915  -0.212   2.747 -0.7746  2.4101  1.7440
  499MOL0     H67299   8.681  -0.201   2.686 -2.3560  1.4048 -0.4311
  499MOL0     H67300   8.492  -0.022   2.690  3.9098  1.3985  0.9297
  499MOL0     H67301   8.529   0.128   2.640  0.5587  0.0085  0.9969
  499MOL0     H67302   8.296   0.148   2.587 -2.1567 -0.5581 -1.3272
  499MOL0     H67303   8.371   0.117   2.431 -1.4354 -0.1545 -0.9014
  499MOL0     H67304   8.278  -0.091   2.391 -1.7307 -0.3845 -0.8585
  499MOL0     H67305   8.282  -0.129   2.560  0.9806  0.1327 -1.1254
  499MOL0     H67306   8.085   0.039   2.584 -0.2899 -0.9919  0.1538
  499MOL0     H67307   8.103   0.075   2.406  0.1703  2.0959  0.5973
  499MOL0     H67308   8.035  -0.153   2.361  0.9373  1.5462 -0.6432
  499MOL0     H67309   8.044  -0.190   2.545 -1.1142  0.9798  0.7381
  499MOL0     H67310   7.853  -0.064   2.593  3.1514 -0.6723  1.2434
  499MOL0     H67311   7.832  -0.027   2.416  2.0106 -0.8245 -0.9625
  499MOL0     H67312   7.800  -0.261   2.357  0.0655  0.6625 -0.3373
  499MOL0     H67313   7.810  -0.313   2.525  0.9951 -1.0508 -2.7195
  499MOL0     H67314   7.605  -0.187   2.575  0.6689  0.8810 -0.6815
  499MOL0     H67315   7.573  -0.304   2.458  0.3975  0.2110 -1.0734
  499MOL0     H67316   7.549   0.071   2.526  0.0757  0.4826  0.4933
  499MOL0     H67317   7.387   0.219   2.448  3.2923 -3.3404  0.2720
  499MOL0     H67318   7.413   0.259   2.267  0.8978 -1.0263 -1.7526
  499MOL0     H67319   7.195   0.090   2.392 -0.4446 -0.9773 -1.1583
  499MOL0     H67320   7.208   0.111   2.217  0.0955 -0.5212  0.5267
  499MOL0     H67321   7.188   0.366   2.250  0.8477  0.5536 -0.3702
  499MOL0     H67322   7.156   0.330   2.424 -0.6450  1.4907 -0.4449
  499MOL0     H67323   6.953   0.252   2.396  0.8842 -2.2678  0.0684
  499MOL0     H67324   6.961   0.226   2.219 -1.7654 -0.1636  0.8243
  499MOL0     H67325   6.757   0.278   2.417 -1.5668 -0.0993  1.8975
  499MOL0     H67326   6.420   0.348   2.475  0.1927 -2.5610 -0.8661
  499MOL0     H67327   6.541   0.226   2.478 -1.4300 -0.2692  0.9390
  499MOL0     H67328   6.548   0.345   2.614  2.2759  2.2290 -0.5167
  499MOL0     H67329   6.304   0.555   2.798 -0.5245 -0.6415 -0.2931
  499MOL0     H67330   6.101   0.655   2.909 -2.4977  1.3864  0.2342
  499MOL0     H67331   5.786   0.813   2.675 -1.2568  0.1477 -0.3141
  499MOL0     H67332   5.752   0.858   2.839  1.6714  1.9361  0.3349
  499MOL0     H67333   5.862   1.072   2.818 -0.5081 -1.7443  0.3859
  499MOL0     H67334   5.953   1.026   2.683  0.4163  0.7467  0.8531
  499MOL0     H67335   5.760   1.181   2.647 -0.9347 -0.6115  1.3623
  499MOL0     H67336   5.651   1.055   2.672 -0.6328  1.6950 -3.6534
  499MOL0     H67337   5.871   1.068   2.463 -0.5220  2.5537 -0.3763
  499MOL0     H67338   5.740   0.939   2.470  2.9283 -1.0529 -2.0612
  499MOL0     H67339   5.710   1.132   2.292 -0.4853 -0.5966 -0.3089
  499MOL0     H67340   5.717   1.245   2.414  1.0539 -0.7629  0.6135
  499MOL0     H67341   5.518   1.021   2.418  0.2273  0.7757  0.2717
  499MOL0     H67342   5.509   1.168   2.523  0.4899  1.4693 -0.2640
  499MOL0     H67343   5.520   1.201   2.224  0.0313 -1.6593  0.4348
  499MOL0     H67344   5.480   1.318   2.352  3.2179  0.1594  1.4187
  499MOL0     H67345   5.321   1.069   2.267  0.7361  0.7485 -1.4682
  499MOL0     H67346   5.298   1.246   2.220  0.1550  4.3263  4.1336
  499MOL0     H67347   5.990   0.837   2.547  2.0698  1.2329 -2.3809
  499MOL0     H67348   6.186   0.764   2.430 -0.9170 -0.4544  0.1614
  499MOL0     H67349   6.630   0.744   2.301 -2.0521 -0.1199  1.8730
  499MOL0     H67350   6.864   0.661   2.250  0.0223  0.8107  1.8943
  499MOL0     H67351   8.753   0.130   2.428  5.3094  1.1060 -2.3692
  499MOL0     H67352   8.991   0.097   2.456  1.2985 -0.2707  1.2321
  499MOL0     H67353   9.415   0.136   2.477 -1.4602 -1.8480 -0.4094
  499MOL0     H67354   9.642   0.106   2.531  0.1042  0.2998  0.5746
  499MOL0     H67355   9.816   0.071   2.703  0.8318  0.0574  1.5633
  499MOL0     H67356   9.935  -0.051   2.733 -1.1134  0.0273  1.2134
  499MOL0     H67357   9.829   0.025   2.465  0.0790  2.6830  2.3579
  499MOL0     H67358   9.905  -0.125   2.489 -0.9703 -0.0612  0.0643
  499MOL0     H67359  10.060   0.119   2.577  0.9904 -0.6379 -0.6212
  499MOL0     H67360  10.063   0.060   2.409  0.6320  0.8049 -0.7057
  499MOL0     H67361  10.118  -0.173   2.496 -2.3624 -0.2967  3.1260
  499MOL0     H67362  10.134  -0.108   2.650  1.1324 -0.5369 -0.1066
  499MOL0     H67363  10.497   0.026   2.468  0.4044  0.3078  1.6460
  499MOL0     H67364   9.528  -0.228   2.785  1.8313 -0.0571 -0.5668
  499MOL0     H67365   9.292  -0.169   2.749 -0.4281  1.5541 -0.1320
  500MOL0     O67366   1.665   8.221   7.543 -0.0992  0.8534 -0.5686
  500MOL0     C67367   1.676   8.134   7.631 -0.8955 -0.6317  0.1195
  500MOL0     O67368   1.577   8.042   7.658  0.0492  1.0583  0.1446
  500MOL0     C67369   1.468   8.011   7.566 -0.2321  0.8159 -0.4063
  500MOL0     C67370   1.352   7.957   7.614  0.7137  0.2587 -0.3799
  500MOL0     C67371   1.237   7.941   7.538  0.3726  0.2367 -0.3162
  500MOL0     C67372   1.245   7.963   7.408 -0.1065  0.6343  0.4043
  500MOL0     O67373   1.124   7.962   7.334 -0.1876  0.3633  0.2835
  500MOL0     C67374   1.128   7.935   7.194  0.1954 -0.2615  0.3868
  500MOL0     C67375   1.009   7.876   7.120  0.2500  0.8516 -0.2621
  500MOL0     C67376   0.920   8.002   7.100 -0.6932  0.0029  0.2000
  500MOL0     C67377   0.780   7.964   7.052 -0.0764  0.1332  0.3700
  500MOL0     C67378   0.706   8.086   6.992 -0.5337 -0.7075 -0.3449
  500MOL0     C67379   0.578   8.036   6.916  0.5875 -0.4545 -0.1300
  500MOL0     C67380   0.483   8.154   6.885  0.7637 -0.2724  0.2771
  500MOL0     C67381   0.418   8.136   6.747 -0.4584 -0.1742 -0.3470
  500MOL0     N67382   0.296   8.219   6.734 -0.3007  0.0616 -0.4241
  500MOL0     C67383   0.285   8.347   6.785 -0.3487 -0.5450 -0.0685
  500MOL0     C67384   0.159   8.388   6.754  1.0313  0.2449  0.2999
  500MOL0     C67385   0.103   8.522   6.788 -0.3519 -0.2341  0.0530
  500MOL0     C67386  -0.046   8.533   6.815 -0.6216 -0.8561  0.3952
  500MOL0     C67387  -0.086   8.680   6.842 -0.3334  0.6148  0.4778
  500MOL0     C67388  -0.231   8.692   6.866  0.4157 -0.8216 -0.8674
  500MOL0     O67389  -0.281   8.806   6.799  0.0430 -0.4073  0.7681
  500MOL0     C67390  -0.413   8.840   6.817 -0.0244  0.0729 -0.2335
  500MOL0     C67391  -0.511   8.759   6.865 -0.4215  0.1298 -0.0182
  500MOL0     C67392  -0.646   8.805   6.865 -0.1448 -0.9838 -0.2667
  500MOL0     C67393  -0.748   8.705   6.917 -0.9804 -0.3365  0.5334
  500MOL0     C67394  -0.679   8.936   6.819  0.2938 -0.4834  0.2689
  500MOL0     C67395  -0.812   9.003   6.832 -1.1969 -0.2623  0.8640
  500MOL0     O67396  -0.816   9.147   6.826 -0.5287 -0.2956  0.5054
  500MOL0     C67397  -0.933   9.205   6.848  0.1385  0.1225  0.0350
  500MOL0     C67398  -0.958   9.264   6.973 -0.2930 -0.1157  0.0026
  500MOL0     C67399  -1.077   9.338   6.993  0.6384 -0.4675  0.3435
  500MOL0     C67400  -1.182   9.340   6.899 -0.0198  0.5215  0.1727
  500MOL0     O67401  -1.300   9.403   6.918 -0.6021 -0.2377 -0.0001
  500MOL0     C67402  -1.377   9.366   7.035 -0.2871  0.0382  0.0808
  500MOL0     C67403  -1.512   9.433   7.038 -0.1650  0.2629  0.3338
  500MOL0     C67404  -1.514   9.586   7.042 -0.9788  0.5173  0.6581
  500MOL0     C67405  -1.420   9.644   7.145  0.4555 -0.4917 -0.2822
  500MOL0     C67406  -1.432   9.796   7.156  0.1059  0.1546  0.5337
  500MOL0     C67407  -1.324   9.865   7.245 -0.2370 -1.2447  0.6042
  500MOL0     C67408  -1.312   9.801   7.386 -0.7758 -0.1441 -0.1011
  500MOL0     C67409  -1.240   9.885   7.496  0.4971  0.0479  0.1388
  500MOL0    Cl67410  -1.064   9.900   7.453 -0.3786 -0.0858 -0.0119
  500MOL0     C67411  -1.155   9.269   6.779 -0.1107  0.6409  0.1748
  500MOL0     C67412  -1.028   9.205   6.754 -0.8537 -0.0143  1.0775
  500MOL0     O67413  -0.905   8.932   6.834  0.5832 -0.6451  0.7579
  500MOL0     C67414  -0.574   9.021   6.767  0.1534 -0.3366 -0.1343
  500MOL0     C67415  -0.445   8.973   6.770  1.2247 -0.3693 -0.3950
  500MOL0     N67416   0.084   8.289   6.693  0.0131  0.5800  0.5005
  500MOL0     N67417   0.170   8.186   6.673 -0.5868 -0.4597 -0.7117
  500MOL0     C67418   1.369   7.999   7.351  0.7524 -0.5433 -0.2976
  500MOL0     C67419   1.482   8.022   7.426  0.1329  0.7326  0.1537
  500MOL0     C67420   1.799   8.147   7.711 -1.4543 -0.2385 -0.3098
  500MOL0     C67421   1.833   8.045   7.811 -1.0839 -0.5787  0.8145
  500MOL0     C67422   1.962   8.048   7.868  0.7614  0.3138 -0.5390
  500MOL0     C67423   2.063   8.137   7.830 -0.4050  0.8142  0.3012
  500MOL0     O67424   2.184   8.132   7.888  0.0714 -0.6009 -0.1009
  500MOL0     C67425   2.299   8.203   7.844  0.0846  0.1417  0.0936
  500MOL0     C67426   2.420   8.177   7.931  0.0996 -0.0401  0.4734
  500MOL0     C67427   2.555   8.258   7.909 -0.1148 -0.0780 -0.3932
  500MOL0     C67428   2.659   8.229   8.014  0.6540 -0.1201 -0.6122
  500MOL0     C67429   2.776   8.311   7.976  0.4861  0.6372  0.2955
  500MOL0     C67430   2.862   8.384   7.939 -0.3783  0.0461  0.5956
  500MOL0     C67431   2.026   8.236   7.742 -0.1059  0.4901 -0.8201
  500MOL0     C67432   1.898   8.247   7.691  0.1308 -0.1966 -0.1145
  500MOL0     H67433   1.335   7.924   7.717 -2.6177 -1.7444 -1.4202
  500MOL0     H67434   1.141   7.914   7.581  0.7599 -0.0466  0.3928
  500MOL0     H67435   1.166   8.026   7.146  1.9195 -1.2395 -0.2043
  500MOL0     H67436   1.203   7.856   7.178 -1.0875 -0.9642 -3.1448
  500MOL0     H67437   1.041   7.837   7.024 -0.2149 -0.7245  0.1824
  500MOL0     H67438   0.957   7.797   7.176 -1.0080  2.5269  1.0362
  500MOL0     H67439   0.918   8.055   7.196  2.0406 -3.3109  2.3326
  500MOL0     H67440   0.966   8.064   7.022  0.4957 -1.3173 -0.1885
  500MOL0     H67441   0.796   7.893   6.969  2.1081 -1.2271  1.8421
  500MOL0     H67442   0.720   7.929   7.136  1.1188  0.4694  1.3930
  500MOL0     H67443   0.669   8.153   7.070 -0.6010 -1.0901 -0.0489
  500MOL0     H67444   0.773   8.150   6.934 -1.4570  0.1684 -0.4877
  500MOL0     H67445   0.602   7.983   6.824 -0.6168 -2.3841  0.6185
  500MOL0     H67446   0.528   7.955   6.970 -1.9066 -0.1342 -1.7654
  500MOL0     H67447   0.401   8.156   6.956  0.1317  0.8976 -0.4702
  500MOL0     H67448   0.544   8.244   6.889  2.5301 -1.1934 -2.6514
  500MOL0     H67449   0.394   8.030   6.734  2.5889 -1.0237  0.2084
  500MOL0     H67450   0.486   8.167   6.668 -1.7556  2.3393 -0.6041
  500MOL0     H67451   0.359   8.410   6.834  0.3331  0.0509 -1.7905
  500MOL0     H67452   0.167   8.559   6.869 -0.2663  0.8890 -0.5115
  500MOL0     H67453   0.131   8.571   6.695  1.8840 -0.4131  0.5619
  500MOL0     H67454  -0.066   8.472   6.903  0.7703  0.4537  1.6982
  500MOL0     H67455  -0.101   8.492   6.730  2.1087 -0.6672 -1.5864
  500MOL0     H67456  -0.056   8.742   6.757  0.3233  0.4873  0.6144
  500MOL0     H67457  -0.025   8.709   6.928  0.1221 -1.1626  0.7868
  500MOL0     H67458  -0.249   8.702   6.973  0.7716  0.4388 -0.9031
  500MOL0     H67459  -0.288   8.606   6.830  1.6980 -1.0467 -2.5040
  500MOL0     H67460  -0.492   8.656   6.893 -0.9269 -0.0670 -0.3800
  500MOL0     H67461  -0.804   8.665   6.832  0.2597  0.2395 -0.5965
  500MOL0     H67462  -0.699   8.616   6.957  0.1168  0.1305  0.2743
  500MOL0     H67463  -0.817   8.747   6.991 -1.6284 -2.1978  1.0363
  500MOL0     H67464  -0.886   9.265   7.054 -2.0014 -1.3369  1.6394
  500MOL0     H67465  -1.105   9.380   7.089 -0.2530 -2.0285  0.8038
  500MOL0     H67466  -1.391   9.257   7.032 -0.4259  0.0023  1.3516
  500MOL0     H67467  -1.329   9.383   7.132 -0.9671 -2.3294  0.9104
  500MOL0     H67468  -1.562   9.403   6.945  2.9549 -1.6633 -0.8846
  500MOL0     H67469  -1.565   9.396   7.127 -3.7749  0.4309 -1.5582
  500MOL0     H67470  -1.619   9.616   7.050 -1.0085 -0.0292  2.5947
  500MOL0     H67471  -1.470   9.615   6.946  1.0082 -0.2874  1.2878
  500MOL0     H67472  -1.435   9.604   7.246 -1.3754  0.7831 -0.0020
  500MOL0     H67473  -1.316   9.628   7.114  0.2228 -1.8234 -0.4698
  500MOL0     H67474  -1.531   9.825   7.191  0.2710 -0.0886  1.2203
  500MOL0     H67475  -1.425   9.837   7.055  2.0783  1.7332  1.2615
  500MOL0     H67476  -1.231   9.864   7.187 -2.1145 -0.4845 -2.6614
  500MOL0     H67477  -1.355   9.969   7.262 -2.2399 -2.0759  2.6133
  500MOL0     H67478  -1.263   9.704   7.378 -0.9804 -0.2456 -0.1363
  500MOL0     H67479  -1.414   9.783   7.420 -0.2981 -1.0341  0.8960
  500MOL0     H67480  -1.255   9.832   7.590  0.6512  0.3830  0.3521
  500MOL0     H67481  -1.284   9.984   7.507  0.5675  0.1617 -0.5429
  500MOL0     H67482  -1.235   9.271   6.706  0.5531 -2.3619 -0.7499
  500MOL0     H67483  -1.014   9.167   6.653 -2.5792  1.7745  0.0885
  500MOL0     H67484  -0.585   9.128   6.749 -0.9234 -0.2989  0.6036
  500MOL0     H67485  -0.364   9.036   6.736  2.1065 -1.5414 -0.5705
  500MOL0     H67486   1.364   8.001   7.243 -3.8272  1.1359 -0.2563
  500MOL0     H67487   1.572   8.054   7.376 -1.0096  1.0255 -1.7870
  500MOL0     H67488   1.762   7.964   7.823 -0.2376 -1.0419  3.0591
  500MOL0     H67489   1.981   7.976   7.947  1.1241 -0.3473 -1.2119
  500MOL0     H67490   2.315   8.184   7.738  0.9180 -1.7512  0.5237
  500MOL0     H67491   2.282   8.311   7.846  0.8485  0.2649  1.4844
  500MOL0     H67492   2.438   8.070   7.946  2.7762  0.5038  1.8345
  500MOL0     H67493   2.381   8.199   8.031  0.4859 -3.2863  1.4558
  500MOL0     H67494   2.527   8.361   7.929 -2.3982 -0.8102  0.4342
  500MOL0     H67495   2.599   8.235   7.812  1.3181 -1.7367  0.5737
  500MOL0     H67496   2.681   8.123   8.019  3.0438  0.3896  1.6226
  500MOL0     H67497   2.640   8.270   8.114  1.3689 -1.4680  0.0966
  500MOL0     H67498   2.933   8.455   7.901 -0.6974 -0.7424 -1.6354
  500MOL0     H67499   2.104   8.304   7.709  0.4048  0.4395  0.2425
  500MOL0     H67500   1.877   8.330   7.625 -0.7278  0.2354  0.6703
  501MOL0     O67501   1.470   9.623   5.032 -0.1521  0.1726 -0.2074
  501MOL0     C67502   1.494   9.520   5.096  0.5750 -0.4228  0.4259
  501MOL0     O67503   1.401   9.465   5.174 -0.0567  0.4665  0.4639
  501MOL0     C67504   1.277   9.528   5.179 -0.1784  0.7357  0.2854
  501MOL0     C67505   1.231   9.572   5.302  0.2301 -0.3827 -0.2058
  501MOL0     C67506   1.103   9.633   5.324 -0.0840  0.3431  0.3463
  501MOL0     C67507   1.020   9.643   5.217 -0.5196 -0.1933  0.2409
  501MOL0     O67508   0.893   9.698   5.216 -0.0191 -0.5579 -0.3818
  501MOL0     C67509   0.876   9.816   5.147 -0.7429 -0.1672  0.1285
  501MOL0     C67510   0.721   9.822   5.135  0.0778 -0.1595 -0.5100
  501MOL0     C67511   0.654   9.922   5.038  0.5233 -0.1539  0.1445
  501MOL0     C67512   0.499   9.913   5.036  0.3713  0.5940  0.6702
  501MOL0     C67513   0.418   9.986   4.929 -0.6206 -0.3925 -0.0890
  501MOL0     C67514   0.469   9.959   4.786 -0.6990  0.5932  0.2810
  501MOL0     C67515   0.369  10.022   4.688  0.6950 -0.4847 -0.2922
  501MOL0     C67516   0.415  10.022   4.545  0.1261  0.0346 -0.7793
  501MOL0     N67517   0.473   9.886   4.513  0.8634 -0.4625 -0.0414
  501MOL0     C67518   0.451   9.810   4.398  0.0420 -0.3784  0.3608
  501MOL0     C67519   0.564   9.747   4.371  0.1450 -0.9808  0.1072
  501MOL0     C67520   0.586   9.658   4.261 -0.8443  0.4161  1.5447
  501MOL0     C67521   0.566   9.513   4.294  0.3905  1.5327 -0.6834
  501MOL0     C67522   0.530   9.404   4.190  0.0939  0.3522  0.7103
  501MOL0     C67523   0.382   9.395   4.161 -0.3135 -0.0026  0.1148
  501MOL0     O67524   0.302   9.342   4.269  0.0492 -0.1370  0.2942
  501MOL0     C67525   0.171   9.339   4.249  1.1165 -0.1984 -0.3391
  501MOL0     C67526   0.088   9.361   4.141 -0.5006 -0.5055 -0.3108
  501MOL0     C67527  -0.050   9.357   4.146 -0.8447  0.2732 -0.6486
  501MOL0     C67528  -0.127   9.380   4.017 -0.0068 -0.3380  0.2096
  501MOL0     C67529  -0.119   9.338   4.279 -0.4376  0.2273  1.0538
  501MOL0     C67530  -0.267   9.348   4.300 -0.6177 -0.3961  0.1666
  501MOL0     O67531  -0.357   9.352   4.198  0.2808  0.4749  0.6079
  501MOL0     C67532  -0.489   9.331   4.224  1.0504 -0.4838  0.5054
  501MOL0     C67533  -0.541   9.196   4.238  0.0075 -0.0407  0.5563
  501MOL0     C67534  -0.668   9.181   4.291  0.6862  0.1137 -1.8475
  501MOL0     C67535  -0.750   9.295   4.318 -0.4913  0.1276 -0.7642
  501MOL0     O67536  -0.872   9.289   4.382  0.0684  0.0112 -0.3151
  501MOL0     C67537  -0.969   9.184   4.356 -0.5161 -0.1904 -0.0538
  501MOL0     C67538  -1.108   9.231   4.392 -0.3673 -0.2095  0.0932
  501MOL0     C67539  -1.213   9.125   4.361 -0.4580 -1.0453 -0.3116
  501MOL0     C67540  -1.357   9.178   4.384 -0.1536  0.1376  0.2309
  501MOL0     C67541  -1.445   9.057   4.410  1.0368  0.2062 -0.6306
  501MOL0     C67542  -1.576   9.103   4.467  0.1011 -0.8067 -0.6086
  501MOL0     C67543  -1.674   8.995   4.490  0.0754 -0.1862 -0.1922
  501MOL0     C67544  -1.816   9.039   4.509  0.3319  0.6306  0.1193
  501MOL0    Cl67545  -1.890   9.080   4.355 -0.5646  0.3159 -0.0208
  501MOL0     C67546  -0.701   9.424   4.298 -0.7881 -0.0734 -0.0573
  501MOL0     C67547  -0.574   9.441   4.244 -0.2152  0.0544  0.1777
  501MOL0     O67548  -0.300   9.333   4.420  0.3793 -0.6033 -0.2539
  501MOL0     C67549  -0.027   9.320   4.384  0.1011 -0.2050  0.3925
  501MOL0     C67550   0.105   9.333   4.369 -0.0156 -0.2685  0.2266
  501MOL0     N67551   0.652   9.772   4.474 -0.4570  0.4650  0.0571
  501MOL0     N67552   0.599   9.855   4.555 -0.4620 -0.8075 -1.1532
  501MOL0     C67553   1.065   9.591   5.091 -0.2205  0.4633  0.1678
  501MOL0     C67554   1.190   9.542   5.070 -0.6367  0.4388 -0.4063
  501MOL0     C67555   1.630   9.474   5.103  0.3128  0.0173  0.3589
  501MOL0     C67556   1.709   9.489   4.991 -1.1712 -0.5507 -0.0825
  501MOL0     C67557   1.850   9.455   5.000 -0.1805  0.2265 -0.3910
  501MOL0     C67558   1.908   9.401   5.118  0.1947  0.0917 -0.2250
  501MOL0     O67559   2.037   9.373   5.124  0.0797  0.6960 -0.1245
  501MOL0     C67560   2.081   9.279   5.227 -0.6370 -0.3805  0.4335
  501MOL0     C67561   2.224   9.224   5.196  0.2130  0.2402 -0.3786
  501MOL0     C67562   2.221   9.167   5.056  0.2505 -0.1877 -0.4597
  501MOL0     C67563   2.343   9.078   5.037 -1.3170 -0.2103  0.1164
  501MOL0     C67564   2.459   9.166   5.058 -0.6148 -0.2998 -1.0351
  501MOL0     C67565   2.562   9.222   5.073 -0.1688 -0.2921  0.9887
  501MOL0     C67566   1.817   9.381   5.226 -0.2758 -0.8288  0.1569
  501MOL0     C67567   1.688   9.418   5.219  0.4823 -0.2252  0.7274
  501MOL0     H67568   1.283   9.551   5.395 -1.4311  1.5045  1.2430
  501MOL0     H67569   1.084   9.673   5.423 -0.6098  2.4051 -0.5295
  501MOL0     H67570   0.917   9.901   5.202  0.0603 -0.9405  0.7432
  501MOL0     H67571   0.911   9.821   5.043  0.3723  3.3180  0.5456
  501MOL0     H67572   0.686   9.721   5.109 -0.4207  0.0281 -0.5867
  501MOL0     H67573   0.684   9.836   5.237 -0.6452 -3.7827 -0.1161
  501MOL0     H67574   0.682  10.027   5.055 -2.0682  0.5153  0.6499
  501MOL0     H67575   0.683   9.898   4.935 -0.4556 -0.4874 -0.0645
  501MOL0     H67576   0.466   9.809   5.030  1.3298  0.2221  1.5746
  501MOL0     H67577   0.461   9.943   5.134 -3.3118 -1.0752 -0.0727
  501MOL0     H67578   0.317   9.946   4.933 -0.5651 -0.5017  0.2982
  501MOL0     H67579   0.417  10.093   4.954 -1.0722 -0.4329  0.0599
  501MOL0     H67580   0.570   9.997   4.764  0.6337 -1.6141  2.1991
  501MOL0     H67581   0.469   9.850   4.778 -3.1943  0.4766  1.2406
  501MOL0     H67582   0.277   9.964   4.703  0.1338  0.0589 -1.4640
  501MOL0     H67583   0.347  10.126   4.714 -1.2802 -0.6167 -1.2610
  501MOL0     H67584   0.489  10.101   4.527  1.1113 -0.4993  0.7497
  501MOL0     H67585   0.337  10.043   4.471 -0.0569  0.3937 -0.4822
  501MOL0     H67586   0.354   9.798   4.351 -0.3094  0.4859  0.8342
  501MOL0     H67587   0.504   9.672   4.189 -1.1114 -3.8497  0.7517
  501MOL0     H67588   0.682   9.680   4.213 -2.1504  2.5392 -0.3238
  501MOL0     H67589   0.480   9.514   4.362  1.7477 -0.9003  1.2160
  501MOL0     H67590   0.656   9.483   4.347 -0.8698 -0.3318  0.5104
  501MOL0     H67591   0.576   9.311   4.224  1.3836  1.2685  1.5701
  501MOL0     H67592   0.583   9.426   4.097  0.1914 -1.8252  0.2116
  501MOL0     H67593   0.378   9.329   4.073 -1.8519  0.0301  0.1446
  501MOL0     H67594   0.346   9.492   4.126  1.8484 -0.1282 -2.9328
  501MOL0     H67595   0.135   9.391   4.048  0.3190 -1.0974 -0.1078
  501MOL0     H67596  -0.188   9.290   4.008 -0.8980  0.2416  0.3763
  501MOL0     H67597  -0.187   9.471   4.025 -0.5322 -0.7111  0.5399
  501MOL0     H67598  -0.073   9.404   3.925 -3.0963  2.0270 -1.1689
  501MOL0     H67599  -0.473   9.114   4.214  2.0072  2.0019 -1.2221
  501MOL0     H67600  -0.696   9.079   4.315  4.0026 -0.6936 -0.9821
  501MOL0     H67601  -0.967   9.168   4.248  0.6056 -1.2253  0.0942
  501MOL0     H67602  -0.945   9.086   4.398  2.8811 -0.5716 -2.4253
  501MOL0     H67603  -1.110   9.252   4.499  1.4587  2.5639 -0.3156
  501MOL0     H67604  -1.135   9.326   4.344  0.1776  0.1052  0.3963
  501MOL0     H67605  -1.187   9.057   4.443 -2.5051 -1.1364  0.3142
  501MOL0     H67606  -1.183   9.072   4.270  4.1716 -1.1576  1.0358
  501MOL0     H67607  -1.342   9.250   4.465  2.4109  0.3980 -0.4019
  501MOL0     H67608  -1.406   9.237   4.305 -0.3405  0.9254  0.9238
  501MOL0     H67609  -1.403   8.985   4.481 -1.6635  0.8457  1.8037
  501MOL0     H67610  -1.463   8.995   4.321  2.3164 -0.2126 -0.6229
  501MOL0     H67611  -1.551   9.160   4.557 -1.5576  1.6095 -1.5707
  501MOL0     H67612  -1.621   9.175   4.399  1.4646  2.0956  1.3430
  501MOL0     H67613  -1.639   8.944   4.580 -2.6772 -0.7264  0.6662
  501MOL0     H67614  -1.668   8.929   4.403  0.2903  0.2779 -0.5352
  501MOL0     H67615  -1.805   9.117   4.585  0.0011 -1.0758  1.9813
  501MOL0     H67616  -1.877   8.966   4.562 -1.6042  2.7157  0.9456
  501MOL0     H67617  -0.756   9.507   4.340 -2.8806 -1.5576  0.3186
  501MOL0     H67618  -0.533   9.540   4.222 -3.1660  0.8794 -2.2584
  501MOL0     H67619  -0.071   9.305   4.482  1.2386  2.1165  1.3535
  501MOL0     H67620   0.159   9.319   4.462  1.1087 -1.1048 -0.5190
  501MOL0     H67621   0.987   9.574   5.018  0.7087  1.7602 -1.1884
  501MOL0     H67622   1.218   9.502   4.973 -2.0394  0.8506 -1.0038
  501MOL0     H67623   1.673   9.537   4.901  1.0357  0.0662 -0.6900
  501MOL0     H67624   1.925   9.467   4.923  1.7036 -0.6657  1.2082
  501MOL0     H67625   2.085   9.335   5.320 -4.1314 -4.0870  3.1751
  501MOL0     H67626   2.009   9.197   5.233 -0.3123 -0.6548  0.5370
  501MOL0     H67627   2.243   9.142   5.266  0.8095  0.8593  0.1923
  501MOL0     H67628   2.291   9.307   5.221  1.9488 -0.8644 -1.1242
  501MOL0     H67629   2.214   9.248   4.982 -1.4265 -0.9066 -1.1563
  501MOL0     H67630   2.130   9.107   5.048  0.5587 -0.8280  0.7049
  501MOL0     H67631   2.347   9.039   4.935  0.5052  0.0471  0.0502
  501MOL0     H67632   2.348   8.985   5.094  1.0668  0.5661  1.2979
  501MOL0     H67633   2.656   9.274   5.078  0.2740 -0.7836 -1.3491
  501MOL0     H67634   1.849   9.340   5.321 -1.4409 -0.5852  0.6797
  501MOL0     H67635   1.626   9.404   5.307  1.6284 -0.9794  1.4300
  502MOL0     O67636  11.315   0.011  10.491 -0.0672 -0.0487  0.1477
  502MOL0     C67637  11.229   0.006  10.580 -0.0185  0.0234  0.3979
  502MOL0     O67638  11.245   0.015  10.717  0.0312 -0.2779  0.0348
  502MOL0     C67639  11.375  -0.002  10.756 -0.3237 -0.0495  0.3694
  502MOL0     C67640  11.452  -0.122  10.759  0.0345  0.2897 -0.0122
  502MOL0     C67641  11.576  -0.127  10.809  0.7439  0.4113  0.3190
  502MOL0     C67642  11.638  -0.014  10.860 -0.4599 -0.8954  0.1829
  502MOL0     O67643  11.766  -0.028  10.906 -0.6437  0.0308 -0.7812
  502MOL0     C67644  11.821   0.069  10.998 -0.3891  0.4899  0.7218
  502MOL0     C67645  11.897   0.188  10.929 -0.7682  0.2603  0.2731
  502MOL0     C67646  12.029   0.122  10.880 -0.6645  0.3803  0.3014
  502MOL0     C67647  12.114   0.224  10.810 -0.4615  0.6713  0.2026
  502MOL0     C67648  12.258   0.178  10.811 -1.0320 -0.0978 -0.4868
  502MOL0     C67649  12.352   0.299  10.768  0.3242  0.5808 -0.7617
  502MOL0     C67650  12.495   0.250  10.755 -0.1014  0.4215  0.2849
  502MOL0     C67651  12.574   0.341  10.660  0.9165  0.4532  0.1937
  502MOL0     N67652  12.719   0.336  10.676 -0.1291  0.3032 -0.1754
  502MOL0     C67653  12.791   0.409  10.770  0.7980  0.0843  0.0120
  502MOL0     C67654  12.918   0.366  10.755 -0.9072 -0.0497  0.7883
  502MOL0     C67655  13.027   0.404  10.847  0.5068 -0.3728  0.1262
  502MOL0     C67656  13.060   0.287  10.944  0.4638  0.4078  0.9046
  502MOL0     C67657  12.977   0.291  11.071 -0.4715 -0.3620 -0.6634
  502MOL0     C67658  12.959   0.428  11.139  0.1849 -0.3005  0.2435
  502MOL0     O67659  12.916   0.401  11.276  0.2622  0.4386 -0.2588
  502MOL0     C67660  12.791   0.373  11.317  0.3349 -0.5244  0.5084
  502MOL0     C67661  12.673   0.391  11.246  0.2983  0.0237 -0.4959
  502MOL0     C67662  12.540   0.347  11.291  0.4858  0.0569 -0.0214
  502MOL0     C67663  12.425   0.378  11.190  0.2734 -0.9937  0.1792
  502MOL0     C67664  12.524   0.304  11.423  0.0284  0.2717 -0.4246
  502MOL0     C67665  12.399   0.261  11.478  0.5088  0.3977  0.0570
  502MOL0     O67666  12.275   0.295  11.427  0.3614 -0.3456 -0.0054
  502MOL0     C67667  12.149   0.265  11.479  0.3846  0.1723 -0.2691
  502MOL0     C67668  12.112   0.178  11.584  0.0999 -0.4696  0.8707
  502MOL0     C67669  11.977   0.154  11.604  0.1471  0.5520 -1.0782
  502MOL0     C67670  11.874   0.201  11.538 -0.3638  0.1752  0.2328
  502MOL0     O67671  11.750   0.145  11.546  0.6739 -0.3861 -0.6592
  502MOL0     C67672  11.645   0.243  11.529 -0.2970 -0.0306 -0.4317
  502MOL0     C67673  11.517   0.179  11.562  0.8052  0.3637  0.5967
  502MOL0     C67674  11.518   0.143  11.716  0.0063 -0.1984  0.1608
  502MOL0     C67675  11.384   0.090  11.756  0.1239  0.7600 -0.4849
  502MOL0     C67676  11.291   0.187  11.827 -0.1074 -0.9618  1.0470
  502MOL0     C67677  11.144   0.150  11.816 -0.5254 -0.3525  0.8429
  502MOL0     C67678  11.091   0.149  11.668 -0.1996 -0.4673 -0.1514
  502MOL0     C67679  10.938   0.124  11.682 -1.1563 -0.4454 -0.0023
  502MOL0    Cl67680  10.914  -0.051  11.721  0.0516  0.1312 -0.2342
  502MOL0     C67681  11.908   0.286  11.440  0.4106  0.1718 -0.9702
  502MOL0     C67682  12.042   0.320  11.407 -0.2695  1.0638  0.9938
  502MOL0     O67683  12.418   0.214  11.585  0.2406  0.3568  0.6761
  502MOL0     C67684  12.643   0.303  11.500 -0.0334  0.0502 -0.0477
  502MOL0     C67685  12.771   0.337  11.448  1.0082  0.3179  0.3232
  502MOL0     N67686  12.931   0.286  10.643  0.3999 -0.4871 -0.1863
  502MOL0     N67687  12.810   0.269  10.599 -0.0696 -0.1535  0.3035
  502MOL0     C67688  11.568   0.113  10.854 -0.0354  0.5135  0.1504
  502MOL0     C67689  11.438   0.114  10.806  0.0448  0.2094  0.2416
  502MOL0     C67690  11.094  -0.023  10.536  0.0293 -0.6886 -0.0499
  502MOL0     C67691  11.055   0.034  10.410  0.7618  0.2035  0.0370
  502MOL0     C67692  10.929   0.001  10.364 -0.1489 -0.2447 -0.4023
  502MOL0     C67693  10.835  -0.075  10.436 -0.2733  0.0572  0.8722
  502MOL0     O67694  10.708  -0.089  10.395 -0.1093  0.0326 -0.2714
  502MOL0     C67695  10.663  -0.079  10.266  0.0560 -0.3426  0.4976
  502MOL0     C67696  10.716  -0.186  10.171  0.2830  0.0495  0.7681
  502MOL0     C67697  10.660  -0.326  10.219 -0.2723 -1.1363  0.3350
  502MOL0     C67698  10.724  -0.452  10.167 -0.0276  0.1194 -0.9247
  502MOL0     C67699  10.712  -0.484  10.029 -0.1649 -0.0445  0.2734
  502MOL0     C67700  10.715  -0.500   9.905  0.0060  0.6926 -0.3427
  502MOL0     C67701  10.873  -0.123  10.559 -0.6653  0.1317  0.4548
  502MOL0     C67702  10.999  -0.104  10.609  0.0197 -0.5911 -0.1085
  502MOL0     H67703  11.416  -0.216  10.720  1.2314  0.6794 -2.2891
  502MOL0     H67704  11.622  -0.225  10.815 -0.0827  0.0363  0.8146
  502MOL0     H67705  11.742   0.097  11.069  0.1585  0.2578  1.4390
  502MOL0     H67706  11.899   0.018  11.056 -0.5625 -0.7234 -0.0686
  502MOL0     H67707  11.843   0.245  10.853  1.2979  1.1281 -0.6185
  502MOL0     H67708  11.923   0.252  11.014 -0.1959  0.7103 -0.2302
  502MOL0     H67709  12.082   0.070  10.959 -1.8205 -3.3398 -1.1392
  502MOL0     H67710  12.008   0.046  10.804 -2.4847  1.1164 -0.0014
  502MOL0     H67711  12.079   0.238  10.707 -0.2464 -0.9027 -0.1128
  502MOL0     H67712  12.114   0.317  10.866  0.0615  0.8173 -0.0306
  502MOL0     H67713  12.298   0.158  10.911  1.1755  2.1126 -0.8118
  502MOL0     H67714  12.255   0.095  10.740 -1.5359  1.0911 -1.9183
  502MOL0     H67715  12.311   0.340  10.675 -0.6804  0.7335 -0.2687
  502MOL0     H67716  12.347   0.379  10.843 -0.1760 -0.4984  0.3809
  502MOL0     H67717  12.559   0.250  10.844  0.5476 -4.1973  0.0624
  502MOL0     H67718  12.504   0.143  10.731  2.8917  0.9744 -1.4790
  502MOL0     H67719  12.540   0.445  10.658  0.6452  0.3604 -0.1529
  502MOL0     H67720  12.550   0.294  10.565  2.5527  0.7530 -0.4121
  502MOL0     H67721  12.746   0.465  10.851 -0.3832 -1.3395  0.3726
  502MOL0     H67722  13.110   0.420  10.777 -0.1169 -1.4962 -0.8981
  502MOL0     H67723  13.021   0.497  10.905  4.3886 -1.1369  2.0833
  502MOL0     H67724  13.168   0.297  10.959  0.4933  1.2631  0.2102
  502MOL0     H67725  13.050   0.200  10.878  0.3647  0.5750  0.6994
  502MOL0     H67726  13.034   0.228  11.140  0.6643  0.7986 -0.5206
  502MOL0     H67727  12.879   0.249  11.045 -1.1987 -0.0910  1.4722
  502MOL0     H67728  12.879   0.489  11.095 -0.5137 -0.3393  1.3964
  502MOL0     H67729  13.054   0.482  11.138 -0.3990  0.7887  1.0863
  502MOL0     H67730  12.673   0.440  11.149 -0.3968  1.4687  0.1930
  502MOL0     H67731  12.370   0.466  11.224  1.7325  0.6050 -1.4143
  502MOL0     H67732  12.460   0.388  11.087 -2.5167  1.8865 -0.6369
  502MOL0     H67733  12.350   0.299  11.197 -1.7531  0.9004  1.1725
  502MOL0     H67734  12.186   0.146  11.657 -0.1941  1.2033  1.9559
  502MOL0     H67735  11.947   0.089  11.687  1.6221  1.0239 -0.1243
  502MOL0     H67736  11.646   0.334  11.590 -4.1364  0.6808 -1.1551
  502MOL0     H67737  11.624   0.283  11.429  1.5774 -0.0141 -0.8527
  502MOL0     H67738  11.435   0.246  11.536 -0.8045 -2.0108 -0.8003
  502MOL0     H67739  11.503   0.085  11.508 -0.3008 -0.8854  2.8865
  502MOL0     H67740  11.533   0.232  11.777  0.6996 -1.2743  1.6124
  502MOL0     H67741  11.599   0.078  11.750 -0.7476 -1.6226 -0.6576
  502MOL0     H67742  11.336   0.037  11.672 -1.2059  0.3797  0.4722
  502MOL0     H67743  11.407   0.010  11.827 -0.8140  0.3172 -0.6557
  502MOL0     H67744  11.315   0.280  11.775 -1.4906 -1.1555  0.0090
  502MOL0     H67745  11.312   0.210  11.932 -4.6901  5.0690  1.1635
  502MOL0     H67746  11.135   0.049  11.857 -0.1363 -0.2629  1.1551
  502MOL0     H67747  11.089   0.226  11.871  2.2856  2.2472  0.3157
  502MOL0     H67748  11.145   0.077  11.606 -0.7401 -1.3709  0.3967
  502MOL0     H67749  11.105   0.247  11.621  0.0545 -1.0965 -1.4319
  502MOL0     H67750  10.905   0.135  11.579  1.6962  0.9182 -0.8797
  502MOL0     H67751  10.881   0.192  11.746 -1.5645 -3.2624  2.9394
  502MOL0     H67752  11.834   0.342  11.383  1.4079  1.3422 -1.1491
  502MOL0     H67753  12.055   0.382  11.319 -1.6274 -1.2022 -0.9319
  502MOL0     H67754  12.648   0.272  11.604  0.3133  0.3434  0.0276
  502MOL0     H67755  12.850   0.321  11.521 -2.0546  1.4843  4.2101
  502MOL0     H67756  11.602   0.212  10.884 -1.7028  1.3941 -0.7268
  502MOL0     H67757  11.382   0.207  10.809 -0.5824 -0.1198 -0.7425
  502MOL0     H67758  11.118   0.100  10.352 -1.3171  2.5117  0.2642
  502MOL0     H67759  10.895   0.038  10.268 -1.8634 -0.0058  0.2578
  502MOL0     H67760  10.554  -0.068  10.263 -0.0527 -0.5919  2.3319
  502MOL0     H67761  10.686   0.022  10.229 -2.1884 -0.8698 -2.7448
  502MOL0     H67762  10.825  -0.183  10.170  0.3874 -0.7057 -2.3239
  502MOL0     H67763  10.682  -0.163  10.069 -1.3064  0.6384  1.3923
  502MOL0     H67764  10.555  -0.335  10.188 -0.0665 -0.7634 -0.5010
  502MOL0     H67765  10.651  -0.321  10.328  1.2875  0.8115  0.4388
  502MOL0     H67766  10.707  -0.544  10.223 -1.9673  1.1214  0.2272
  502MOL0     H67767  10.832  -0.437  10.181 -0.4808  2.6085  0.3919
  502MOL0     H67768  10.713  -0.505   9.799  2.0322  2.7512 -0.5790
  502MOL0     H67769  10.793  -0.175  10.612  0.0299 -2.3032 -0.7128
  502MOL0     H67770  11.027  -0.133  10.709  1.0723  2.5078  0.5972
  503MOL0     O67771   1.086   3.071   4.773  0.5825 -0.1771 -0.3012
  503MOL0     C67772   1.047   2.973   4.837  0.3666 -0.1888  0.3768
  503MOL0     O67773   0.923   2.922   4.833  0.1331  0.3391  0.0316
  503MOL0     C67774   0.819   2.967   4.758  0.2803 -0.6475 -0.1733
  503MOL0     C67775   0.759   2.877   4.675  0.0174  0.4736  0.0981
  503MOL0     C67776   0.637   2.902   4.614  0.7313  0.3083 -0.8322
  503MOL0     C67777   0.575   3.035   4.624 -0.4083 -0.4062 -0.3332
  503MOL0     O67778   0.451   3.046   4.569  0.1449 -0.2619  0.1337
  503MOL0     C67779   0.445   3.148   4.470 -0.2854 -0.1930 -0.6011
  503MOL0     C67780   0.356   3.256   4.523 -0.1627  0.6361  0.7401
  503MOL0     C67781   0.342   3.356   4.414  0.1823 -0.2675  0.8699
  503MOL0     C67782   0.257   3.478   4.464  0.5510 -0.2912 -0.0290
  503MOL0     C67783   0.276   3.594   4.364 -0.2074 -0.5482 -0.1025
  503MOL0     C67784   0.177   3.707   4.403  0.6080  0.5603  0.1298
  503MOL0     C67785   0.201   3.827   4.312 -0.5303 -0.0016  0.1417
  503MOL0     C67786   0.174   3.790   4.166 -0.2203 -0.4888  0.3037
  503MOL0     N67787   0.037   3.749   4.149 -0.5154  0.2215  0.3455
  503MOL0     C67788  -0.004   3.629   4.122 -0.2026  0.3858  0.2986
  503MOL0     C67789  -0.141   3.637   4.131  0.1490  0.7463  0.5010
  503MOL0     C67790  -0.234   3.514   4.113  0.6544  1.2614  1.1402
  503MOL0     C67791  -0.385   3.537   4.159  0.4699  0.8572  0.2917
  503MOL0     C67792  -0.458   3.643   4.072  0.0837  0.4258  0.0680
  503MOL0     C67793  -0.586   3.578   4.016  0.3205 -0.4711 -0.7682
  503MOL0     O67794  -0.662   3.679   3.944  0.3851  0.6664  0.5221
  503MOL0     C67795  -0.783   3.656   3.877 -0.2259 -0.2253  0.2479
  503MOL0     C67796  -0.838   3.752   3.795 -0.4408 -0.0075 -0.1035
  503MOL0     C67797  -0.968   3.739   3.728 -0.6801 -0.0064 -0.2266
  503MOL0     C67798  -1.017   3.862   3.653 -0.3983 -0.5592  1.2103
  503MOL0     C67799  -1.049   3.636   3.772  0.0589 -0.0133  0.1375
  503MOL0     C67800  -1.197   3.615   3.727  1.2283  0.8671 -0.1508
  503MOL0     O67801  -1.274   3.518   3.790  0.5650  0.3265  0.9235
  503MOL0     C67802  -1.393   3.482   3.732  0.3569 -0.6503  0.0621
  503MOL0     C67803  -1.407   3.419   3.603  0.3718 -0.3836 -0.2135
  503MOL0     C67804  -1.532   3.401   3.549  0.4835  0.3059  0.6477
  503MOL0     C67805  -1.647   3.434   3.621  0.1369 -0.6224  0.0282
  503MOL0     O67806  -1.772   3.403   3.573  0.2248 -0.2765 -0.0708
  503MOL0     C67807  -1.866   3.521   3.564 -0.0212 -0.0880  0.4037
  503MOL0     C67808  -2.006   3.478   3.592 -0.1461  0.7749  0.9170
  503MOL0     C67809  -2.113   3.587   3.557  0.3682 -0.5414  0.3790
  503MOL0     C67810  -2.252   3.553   3.592  0.0266  0.0511  0.0438
  503MOL0     C67811  -2.349   3.645   3.509  0.3679  0.5772 -0.4987
  503MOL0     C67812  -2.495   3.631   3.546  0.5522 -0.7276  0.7512
  503MOL0     C67813  -2.568   3.533   3.447 -0.7783  0.2669  0.1070
  503MOL0     C67814  -2.710   3.479   3.486  0.2056  0.2717 -0.5215
  503MOL0    Cl67815  -2.811   3.634   3.501 -0.1364 -0.1260  0.2124
  503MOL0     C67816  -1.637   3.462   3.761 -0.6244  0.0815  0.6650
  503MOL0     C67817  -1.507   3.481   3.814 -0.4920 -0.0655 -0.1061
  503MOL0     O67818  -1.227   3.679   3.627 -0.3382 -0.5794 -0.0716
  503MOL0     C67819  -0.994   3.533   3.851  0.1529  1.1218 -0.2249
  503MOL0     C67820  -0.867   3.543   3.896 -0.7643 -0.6523  0.1678
  503MOL0     N67821  -0.172   3.760   4.172 -0.0544 -0.1599 -0.4213
  503MOL0     N67822  -0.062   3.829   4.178 -0.3300 -0.0222  0.2345
  503MOL0     C67823   0.640   3.128   4.711  0.2224 -0.4099  0.2972
  503MOL0     C67824   0.755   3.093   4.782 -0.2060  0.2625 -0.3259
  503MOL0     C67825   1.159   2.905   4.913  0.9386 -0.4470  0.5981
  503MOL0     C67826   1.277   2.968   4.943  0.7835  0.3080  0.2259
  503MOL0     C67827   1.376   2.899   5.008  0.2731  0.0180 -0.3062
  503MOL0     C67828   1.368   2.758   5.032 -0.0828 -0.2366  1.2451
  503MOL0     O67829   1.480   2.696   5.079  0.2523 -0.4807 -0.4987
  503MOL0     C67830   1.491   2.556   5.065  0.3095 -0.4789  0.6784
  503MOL0     C67831   1.617   2.495   5.120  0.3609 -0.4359 -0.6563
  503MOL0     C67832   1.658   2.554   5.256  0.2373 -0.4225 -0.6428
  503MOL0     C67833   1.751   2.459   5.345 -0.5848  0.5947 -0.4105
  503MOL0     C67834   1.868   2.414   5.268 -0.8149 -0.4817 -0.6034
  503MOL0     C67835   1.953   2.372   5.194  0.1696  0.6047  0.1002
  503MOL0     C67836   1.251   2.693   4.987  0.3592  0.2957  0.0909
  503MOL0     C67837   1.145   2.767   4.932 -0.5906 -0.4820 -0.3178
  503MOL0     H67838   0.796   2.775   4.681 -0.2355  0.4633  2.6596
  503MOL0     H67839   0.593   2.819   4.560  1.3356 -3.0256  3.2896
  503MOL0     H67840   0.544   3.184   4.438  0.1809  2.8140  3.3965
  503MOL0     H67841   0.389   3.108   4.386  0.1130 -1.3245 -0.3381
  503MOL0     H67842   0.257   3.211   4.534  0.3362 -0.6747  0.0964
  503MOL0     H67843   0.398   3.293   4.617  1.8423  0.0164  0.1353
  503MOL0     H67844   0.435   3.406   4.384 -2.2432  3.1572 -1.8369
  503MOL0     H67845   0.297   3.310   4.326  2.4396 -2.2870  0.6523
  503MOL0     H67846   0.154   3.441   4.456  1.2554 -2.0722 -1.9739
  503MOL0     H67847   0.285   3.508   4.565 -0.5186  2.8763 -0.5541
  503MOL0     H67848   0.381   3.625   4.363 -0.6839  1.1990  0.4138
  503MOL0     H67849   0.250   3.562   4.263 -4.3864 -0.7215  0.8637
  503MOL0     H67850   0.077   3.663   4.405  0.0233  1.8364  0.5273
  503MOL0     H67851   0.201   3.735   4.506  0.5854  2.1273 -0.2614
  503MOL0     H67852   0.130   3.904   4.343  0.6494  1.4777 -0.7379
  503MOL0     H67853   0.302   3.864   4.331 -1.3461  0.9189  3.2926
  503MOL0     H67854   0.248   3.716   4.134  0.8527  0.7817 -0.2006
  503MOL0     H67855   0.185   3.879   4.104  4.0464 -0.6375  0.5711
  503MOL0     H67856   0.060   3.549   4.088 -1.6474 -0.0681 -1.5756
  503MOL0     H67857  -0.246   3.479   4.010 -3.7983  0.8836  1.6175
  503MOL0     H67858  -0.194   3.433   4.175 -0.2163 -0.6501 -0.6673
  503MOL0     H67859  -0.396   3.577   4.260 -2.0829  0.3322  0.3014
  503MOL0     H67860  -0.438   3.441   4.164  1.5915  0.2320  0.6375
  503MOL0     H67861  -0.392   3.677   3.992 -0.9239  1.5505 -0.3047
  503MOL0     H67862  -0.488   3.731   4.130 -3.3498  0.2501 -1.1820
  503MOL0     H67863  -0.648   3.550   4.102  1.2526 -0.2856 -0.0248
  503MOL0     H67864  -0.555   3.493   3.953  0.3911 -2.4333  1.7740
  503MOL0     H67865  -0.771   3.833   3.768  1.8660 -1.1968  1.6650
  503MOL0     H67866  -1.110   3.903   3.693  1.3389  3.4943  1.5537
  503MOL0     H67867  -0.946   3.943   3.631 -2.6242  1.3437  0.6835
  503MOL0     H67868  -1.039   3.828   3.552 -0.3694  0.3073  0.9074
  503MOL0     H67869  -1.318   3.408   3.541  0.8404  1.1623  0.1341
  503MOL0     H67870  -1.531   3.356   3.450 -1.6999 -2.1058  1.6162
  503MOL0     H67871  -1.827   3.602   3.626  0.3799  1.6150 -1.9611
  503MOL0     H67872  -1.869   3.554   3.460 -1.8482 -4.7967 -1.3647
  503MOL0     H67873  -2.040   3.389   3.538  0.6533  0.7982  0.3510
  503MOL0     H67874  -2.015   3.451   3.698 -0.6810 -3.3388 -0.0024
  503MOL0     H67875  -2.111   3.619   3.453 -3.3022  1.5482  0.7678
  503MOL0     H67876  -2.094   3.681   3.611  1.1224  0.1364 -1.0157
  503MOL0     H67877  -2.262   3.447   3.566 -1.3313  0.1685 -0.0040
  503MOL0     H67878  -2.270   3.558   3.700 -0.1004  0.0113  0.0243
  503MOL0     H67879  -2.335   3.634   3.401  0.1138  0.8016 -0.5564
  503MOL0     H67880  -2.324   3.749   3.531  3.0905 -0.3987  1.6119
  503MOL0     H67881  -2.504   3.582   3.644  0.5649  1.4327  1.8942
  503MOL0     H67882  -2.538   3.731   3.549 -0.4500 -1.1445  0.9924
  503MOL0     H67883  -2.505   3.443   3.456  0.7311  1.1310 -1.3426
  503MOL0     H67884  -2.561   3.576   3.347  2.8254 -0.6130 -0.1926
  503MOL0     H67885  -2.714   3.413   3.573  0.3304 -0.3815 -1.0077
  503MOL0     H67886  -2.751   3.426   3.399 -0.8368 -0.4754  0.3956
  503MOL0     H67887  -1.730   3.460   3.818  0.0778  1.1152  1.9158
  503MOL0     H67888  -1.502   3.513   3.918  0.9235  1.1037 -0.4904
  503MOL0     H67889  -1.050   3.442   3.868  0.1426  0.5005 -3.0515
  503MOL0     H67890  -0.826   3.458   3.950  1.3405  0.0101 -0.3258
  503MOL0     H67891   0.599   3.228   4.723 -0.1670 -0.8337  3.2301
  503MOL0     H67892   0.803   3.156   4.856  0.3855  1.5329 -1.7341
  503MOL0     H67893   1.284   3.076   4.934  0.8107  0.2234 -0.9189
  503MOL0     H67894   1.464   2.949   5.048  0.0827 -1.1651  1.7302
  503MOL0     H67895   1.402   2.512   5.111 -0.7099 -1.8417 -2.3345
  503MOL0     H67896   1.495   2.530   4.958  1.1790 -4.4096  1.4928
  503MOL0     H67897   1.699   2.493   5.047  1.1449  0.1666  0.1847
  503MOL0     H67898   1.594   2.390   5.136 -0.1732 -0.3811 -1.0348
  503MOL0     H67899   1.567   2.567   5.315  0.0542 -2.0722 -0.5128
  503MOL0     H67900   1.700   2.653   5.235  0.1930  0.4129  2.6801
  503MOL0     H67901   1.693   2.368   5.367 -1.4572  0.6496 -2.2531
  503MOL0     H67902   1.773   2.507   5.440 -0.7031  0.1043 -0.1326
  503MOL0     H67903   2.025   2.335   5.123 -0.0558 -3.0747  1.5508
  503MOL0     H67904   1.250   2.585   4.973  1.1369  0.4430 -1.3258
  503MOL0     H67905   1.053   2.720   4.900 -0.7029  0.0522 -0.7931
  504MOL0     O67906   0.244   8.006   8.274 -0.0655  0.0881  0.1469
  504MOL0     C67907   0.263   7.967   8.159  0.0288 -0.1083  0.4407
  504MOL0     O67908   0.157   7.947   8.076  0.8476  0.5824  0.2964
  504MOL0     C67909   0.038   8.007   8.098  0.5727 -0.4575 -0.2367
  504MOL0     C67910  -0.078   7.957   8.044 -0.3834  0.8673  0.0197
  504MOL0     C67911  -0.204   8.009   8.039 -0.3770 -0.4132  0.2514
  504MOL0     C67912  -0.225   8.139   8.097  0.6809 -0.3041 -0.6279
  504MOL0     O67913  -0.345   8.209   8.108  0.2008 -0.0195 -0.4578
  504MOL0     C67914  -0.460   8.150   8.052 -0.6603  0.8185  0.7852
  504MOL0     C67915  -0.567   8.256   8.050  0.6336 -0.7139  0.7633
  504MOL0     C67916  -0.595   8.314   8.191 -0.4479  0.3504  0.6522
  504MOL0     C67917  -0.740   8.364   8.214 -0.4936  0.2829 -0.1689
  504MOL0     C67918  -0.751   8.429   8.360 -0.5824 -0.1963 -0.5406
  504MOL0     C67919  -0.878   8.504   8.385  0.5292  0.4722  1.1031
  504MOL0     C67920  -0.884   8.639   8.314 -0.1837 -0.4899 -0.2666
  504MOL0     C67921  -0.990   8.724   8.376 -0.1178  0.4807 -0.8724
  504MOL0     N67922  -1.042   8.812   8.271 -0.4470 -0.2701 -0.2158
  504MOL0     C67923  -1.082   8.784   8.142  0.7525  0.3147 -0.7145
  504MOL0     C67924  -1.142   8.898   8.102  0.2755 -0.6541  0.8356
  504MOL0     C67925  -1.224   8.898   7.971 -0.8441 -0.5624 -0.3485
  504MOL0     C67926  -1.189   9.028   7.899 -0.0636 -0.0173 -0.6733
  504MOL0     C67927  -1.266   9.038   7.765 -0.0355  0.9040  0.4008
  504MOL0     C67928  -1.410   9.021   7.778  0.0111 -0.2213  0.3985
  504MOL0     O67929  -1.455   9.078   7.657 -0.1713  0.1184 -0.6242
  504MOL0     C67930  -1.594   9.089   7.661 -0.1395  0.0705 -0.6420
  504MOL0     C67931  -1.656   9.202   7.721 -0.8878  0.3293  0.3418
  504MOL0     C67932  -1.793   9.210   7.729  0.5427 -0.8791 -0.0640
  504MOL0     C67933  -1.846   9.333   7.800  0.5710  0.5780 -0.3441
  504MOL0     C67934  -1.878   9.113   7.669 -0.6029  0.6135 -0.3499
  504MOL0     C67935  -2.033   9.121   7.663 -0.9145 -0.2228 -0.2450
  504MOL0     O67936  -2.094   9.038   7.572  0.4281  0.5132  0.3836
  504MOL0     C67937  -2.233   9.042   7.548  0.4282 -0.8235  0.4752
  504MOL0     C67938  -2.299   9.145   7.472 -0.1292  0.1524 -0.7116
  504MOL0     C67939  -2.424   9.124   7.422  0.2777  0.1264 -0.1687
  504MOL0     C67940  -2.502   9.008   7.449 -0.2341  0.8241 -0.7072
  504MOL0     O67941  -2.630   8.998   7.397  0.8448 -0.4541 -0.2634
  504MOL0     C67942  -2.694   8.868   7.382  1.4170  0.5447  0.6844
  504MOL0     C67943  -2.835   8.885   7.336  0.7622  0.2764  0.3327
  504MOL0     C67944  -2.922   8.963   7.434  0.0031 -0.6163  0.1803
  504MOL0     C67945  -3.067   8.941   7.410  0.0302  0.3149 -0.6081
  504MOL0     C67946  -3.138   8.987   7.531  0.1889 -0.1038  0.8046
  504MOL0     C67947  -3.294   8.969   7.512 -0.7653  0.3664 -0.7182
  504MOL0     C67948  -3.371   9.039   7.628  0.5478 -0.4970  0.0567
  504MOL0     C67949  -3.520   9.035   7.586 -0.0327 -0.2168  0.1490
  504MOL0    Cl67950  -3.607   9.113   7.708 -0.0295 -0.1738 -0.2964
  504MOL0     C67951  -2.448   8.917   7.545  1.1807 -0.4578  0.2649
  504MOL0     C67952  -2.316   8.936   7.584  0.2351  0.3434  0.1267
  504MOL0     O67953  -2.097   9.184   7.751 -0.3413 -0.5142  0.0050
  504MOL0     C67954  -1.814   8.992   7.619  0.5558 -0.3426 -0.0291
  504MOL0     C67955  -1.675   8.991   7.608 -0.4106 -0.3097 -0.3124
  504MOL0     N67956  -1.109   8.997   8.198 -0.4065 -0.1777  0.3808
  504MOL0     N67957  -1.056   8.948   8.297 -0.7255  0.4297  0.0031
  504MOL0     C67958  -0.115   8.193   8.157 -1.0200 -0.1683  0.1092
  504MOL0     C67959   0.014   8.132   8.153  0.0197 -0.5701 -0.8639
  504MOL0     C67960   0.396   7.916   8.136  0.6535 -0.1755  0.5708
  504MOL0     C67961   0.424   7.880   8.007 -0.1098 -0.4183 -0.2151
  504MOL0     C67962   0.557   7.857   7.971  0.5277  0.2553  0.2096
  504MOL0     C67963   0.660   7.857   8.067 -0.2240  0.7165  0.1363
  504MOL0     O67964   0.784   7.806   8.029  0.3290  0.0043 -0.3418
  504MOL0     C67965   0.897   7.816   8.125  0.3564  1.2624  0.4103
  504MOL0     C67966   1.037   7.784   8.055  0.7746 -0.1289  0.4389
  504MOL0     C67967   1.157   7.860   8.118  0.0792  0.4044 -0.3754
  504MOL0     C67968   1.246   7.919   8.006 -0.0073  0.7295 -0.3134
  504MOL0     C67969   1.184   8.018   7.912 -1.4088  0.2179 -1.3818
  504MOL0     C67970   1.133   8.094   7.828  0.3633  0.3794  0.4176
  504MOL0     C67971   0.627   7.872   8.196 -0.2216 -0.2868 -0.4558
  504MOL0     C67972   0.497   7.917   8.232 -0.6417 -1.3172 -0.0196
  504MOL0     H67973  -0.069   7.855   8.008  0.2655  1.0315 -0.2903
  504MOL0     H67974  -0.288   7.952   8.002 -1.7151  0.7960  1.2816
  504MOL0     H67975  -0.441   8.101   7.956  3.2319 -2.3119  2.9017
  504MOL0     H67976  -0.488   8.059   8.105 -0.6324 -2.6450 -4.4336
  504MOL0     H67977  -0.535   8.343   7.992  1.1560 -1.7640 -0.5711
  504MOL0     H67978  -0.661   8.220   8.009  0.7582  1.9417 -2.2556
  504MOL0     H67979  -0.579   8.233   8.262 -0.5262 -0.9233 -0.7469
  504MOL0     H67980  -0.527   8.398   8.206  0.0624  0.4093 -1.6446
  504MOL0     H67981  -0.756   8.438   8.136  3.3802  1.7414  0.1998
  504MOL0     H67982  -0.803   8.275   8.201  0.9630 -1.3076  2.5528
  504MOL0     H67983  -0.739   8.351   8.436  1.5392 -1.1845 -1.8045
  504MOL0     H67984  -0.668   8.498   8.372  0.2016 -1.5604  2.6710
  504MOL0     H67985  -0.959   8.435   8.358  0.5321  1.6155 -2.3642
  504MOL0     H67986  -0.878   8.530   8.491  2.4216  1.1055  0.9848
  504MOL0     H67987  -0.791   8.692   8.332  0.9950 -2.2531 -0.9325
  504MOL0     H67988  -0.893   8.638   8.205  0.4463  3.1342 -0.4705
  504MOL0     H67989  -0.945   8.779   8.459  3.9174 -0.7204 -1.9950
  504MOL0     H67990  -1.069   8.657   8.411 -0.0610  0.5966 -0.5219
  504MOL0     H67991  -1.074   8.697   8.077  2.4702  0.0880 -0.2618
  504MOL0     H67992  -1.207   8.807   7.913  1.6435  1.1322 -2.5396
  504MOL0     H67993  -1.330   8.909   7.996 -0.6284  1.6166 -0.1780
  504MOL0     H67994  -1.084   9.034   7.869  0.1975  2.1461  0.4806
  504MOL0     H67995  -1.202   9.111   7.968  0.3661 -1.5324  1.3419
  504MOL0     H67996  -1.235   8.950   7.708 -1.2214 -1.4595  3.1541
  504MOL0     H67997  -1.243   9.129   7.709 -3.2101  1.3491 -0.4028
  504MOL0     H67998  -1.436   9.073   7.871  1.1280 -0.4736  0.8743
  504MOL0     H67999  -1.438   8.917   7.795 -1.1963 -0.0758 -0.5967
  504MOL0     H68000  -1.591   9.278   7.764  0.6388 -0.0331 -1.1943
  504MOL0     H68001  -1.767   9.372   7.865 -0.6027 -0.0622  1.5712
  504MOL0     H68002  -1.863   9.417   7.732  1.4476  1.2622  0.2633
  504MOL0     H68003  -1.937   9.313   7.858  0.0560 -0.2853 -1.4177
  504MOL0     H68004  -2.239   9.230   7.441 -0.4174 -0.3840 -2.8765
  504MOL0     H68005  -2.479   9.191   7.358  0.2944 -1.6671 -2.1593
  504MOL0     H68006  -2.647   8.828   7.291 -1.1321  3.8517 -2.3742
  504MOL0     H68007  -2.695   8.805   7.472 -0.5301 -0.8585 -0.2492
  504MOL0     H68008  -2.832   8.936   7.239  2.9082  2.0322  1.2352
  504MOL0     H68009  -2.887   8.791   7.317 -1.2118  1.3569  0.1032
  504MOL0     H68010  -2.904   9.071   7.431 -1.0621 -0.3446 -4.5234
  504MOL0     H68011  -2.901   8.930   7.536 -0.1097 -1.3219 -0.0171
  504MOL0     H68012  -3.106   8.985   7.317  1.4223 -2.0808 -2.4324
  504MOL0     H68013  -3.088   8.834   7.401 -1.8597  0.4737  1.1607
  504MOL0     H68014  -3.115   9.092   7.552 -5.6523  1.3920  1.7110
  504MOL0     H68015  -3.105   8.923   7.614  0.1919 -1.6812 -0.3703
  504MOL0     H68016  -3.316   9.013   7.414  1.0015  0.2049 -1.2226
  504MOL0     H68017  -3.322   8.864   7.520 -1.2542  0.5689  0.3636
  504MOL0     H68018  -3.335   9.140   7.648  1.4744 -1.0096  1.0842
  504MOL0     H68019  -3.365   9.002   7.731 -2.6791 -2.3230 -0.2958
  504MOL0     H68020  -3.557   8.932   7.581  0.4089 -0.5821  2.8437
  504MOL0     H68021  -3.530   9.083   7.488  0.2865  0.5555  0.4897
  504MOL0     H68022  -2.499   8.825   7.573 -0.1852  0.6128  1.4129
  504MOL0     H68023  -2.265   8.866   7.650 -0.2802  0.4171  0.6110
  504MOL0     H68024  -1.867   8.909   7.573  0.9053  0.2284 -1.5162
  504MOL0     H68025  -1.620   8.914   7.554  1.1993  2.0381 -2.2821
  504MOL0     H68026  -0.122   8.285   8.214 -1.5140  0.1679 -0.4928
  504MOL0     H68027   0.100   8.191   8.179 -0.3358  0.2168 -1.4149
  504MOL0     H68028   0.347   7.870   7.932 -1.8792 -0.0076  1.4691
  504MOL0     H68029   0.572   7.840   7.865  1.8063 -2.2521  0.7272
  504MOL0     H68030   0.909   7.914   8.171  3.3581  1.0932  0.2071
  504MOL0     H68031   0.890   7.739   8.203 -1.2209  2.6426  1.7032
  504MOL0     H68032   1.025   7.820   7.952  2.6691  2.4644  1.0308
  504MOL0     H68033   1.063   7.678   8.051 -1.4746 -0.6999 -1.5397
  504MOL0     H68034   1.216   7.790   8.178 -2.7987 -0.5601  1.5194
  504MOL0     H68035   1.129   7.938   8.190  0.9340 -0.9597  1.5205
  504MOL0     H68036   1.289   7.841   7.943 -0.7541  0.5074 -0.5612
  504MOL0     H68037   1.328   7.968   8.058 -0.0161  0.1655  0.2398
  504MOL0     H68038   1.103   8.171   7.760  2.1284 -0.8429 -1.8833
  504MOL0     H68039   0.696   7.854   8.279  0.2095  0.4357 -0.6500
  504MOL0     H68040   0.480   7.947   8.335  1.1865 -0.3000  0.0196
  505MOL0     O68041   2.936   4.610   4.551 -0.2483 -0.0041 -0.2608
  505MOL0     C68042   2.940   4.666   4.436 -0.3921  0.2042 -0.3971
  505MOL0     O68043   2.849   4.749   4.386 -0.2555 -0.3314 -1.1531
  505MOL0     C68044   2.760   4.799   4.480  0.5540 -0.0442 -1.0287
  505MOL0     C68045   2.627   4.747   4.479 -0.3553 -0.9565 -0.0410
  505MOL0     C68046   2.533   4.805   4.558 -0.3941 -0.4093 -0.9315
  505MOL0     C68047   2.564   4.912   4.644  0.4581  0.1477 -0.5130
  505MOL0     O68048   2.467   4.974   4.716 -0.3500 -0.4877  0.0428
  505MOL0     C68049   2.440   5.114   4.725 -0.5415 -0.7496  0.4120
  505MOL0     C68050   2.305   5.146   4.788  0.4158  0.2091 -0.6678
  505MOL0     C68051   2.191   5.079   4.705 -0.1046 -1.2398 -0.2180
  505MOL0     C68052   2.051   5.127   4.731  0.5094 -0.4589  1.1176
  505MOL0     C68053   2.027   5.266   4.791 -0.4442 -0.0902  0.0841
  505MOL0     C68054   1.875   5.310   4.769 -0.6577 -0.1063 -0.8375
  505MOL0     C68055   1.840   5.445   4.844 -0.1869  0.2793  0.3618
  505MOL0     C68056   1.709   5.503   4.793 -0.4103 -0.2878 -0.0148
  505MOL0     N68057   1.672   5.604   4.897  0.5005  0.0836 -0.1958
  505MOL0     C68058   1.691   5.743   4.881  0.4818 -0.2689  0.1785
  505MOL0     C68059   1.675   5.792   5.003  0.8047  0.5312  0.1049
  505MOL0     C68060   1.684   5.939   5.040 -0.0608  0.8625  0.4946
  505MOL0     C68061   1.724   5.958   5.188  0.3419  0.1119  0.4954
  505MOL0     C68062   1.754   6.098   5.221  0.4448 -0.3345  0.4929
  505MOL0     C68063   1.620   6.179   5.253 -0.0426  0.9096  0.7685
  505MOL0     O68064   1.534   6.200   5.140  0.3982 -0.4196  0.1341
  505MOL0     C68065   1.398   6.188   5.144 -0.0263 -0.0332  0.1270
  505MOL0     C68066   1.321   6.164   5.259  0.3694 -0.0790 -0.2607
  505MOL0     C68067   1.177   6.150   5.251 -0.3359 -0.0124  0.3932
  505MOL0     C68068   1.109   6.127   5.380  0.1708 -0.1618  0.1969
  505MOL0     C68069   1.113   6.173   5.124  0.5954 -0.0539  0.6895
  505MOL0     C68070   0.969   6.166   5.106 -0.9309  0.0114  1.0389
  505MOL0     O68071   0.933   6.194   4.976  0.5125 -0.1556 -0.1235
  505MOL0     C68072   0.798   6.197   4.947  0.0323  1.0325 -0.0092
  505MOL0     C68073   0.723   6.317   4.987  0.0194  0.5397  0.1325
  505MOL0     C68074   0.585   6.331   4.975  1.4618  0.0896  0.6194
  505MOL0     C68075   0.517   6.224   4.916 -0.3339  0.0991  0.3795
  505MOL0     O68076   0.388   6.231   4.883 -0.2317 -0.1069  0.0862
  505MOL0     C68077   0.313   6.330   4.961  0.0357  0.1281 -0.0420
  505MOL0     C68078   0.161   6.303   4.928 -0.6373 -0.3588  0.1877
  505MOL0     C68079   0.138   6.327   4.771  0.1577  0.5046 -0.0622
  505MOL0     C68080  -0.010   6.371   4.752 -0.5141 -0.3316  0.2357
  505MOL0     C68081  -0.105   6.260   4.789 -0.8378 -0.6738 -0.2458
  505MOL0     C68082  -0.232   6.268   4.700  0.3641  0.9385 -0.5092
  505MOL0     C68083  -0.341   6.162   4.729  0.2632 -0.0230  0.1664
  505MOL0     C68084  -0.468   6.210   4.656 -0.5500  0.4837 -0.6324
  505MOL0    Cl68085  -0.424   6.196   4.477  0.2081 -0.2928 -0.1754
  505MOL0     C68086   0.590   6.111   4.882  0.7801 -0.3112  0.6021
  505MOL0     C68087   0.723   6.094   4.899 -0.5009  0.4297 -0.5942
  505MOL0     O68088   0.891   6.139   5.193 -0.3650 -0.5444  0.2446
  505MOL0     C68089   1.194   6.187   5.007 -0.0846 -0.3469  0.0835
  505MOL0     C68090   1.331   6.195   5.025  0.1768 -0.6479  0.0122
  505MOL0     N68091   1.658   5.685   5.095  0.1629 -0.4187 -0.4669
  505MOL0     N68092   1.656   5.576   5.031 -0.9324 -0.4087 -0.4450
  505MOL0     C68093   2.694   4.957   4.651  0.3513 -1.1154 -0.2695
  505MOL0     C68094   2.793   4.904   4.565 -0.0082  1.2925 -0.0605
  505MOL0     C68095   3.068   4.657   4.363 -0.9469 -0.1575 -0.3130
  505MOL0     C68096   3.061   4.678   4.221 -0.4012 -0.2010  0.2061
  505MOL0     C68097   3.181   4.655   4.151  0.7649  0.5330  1.1343
  505MOL0     C68098   3.299   4.644   4.209  0.4231 -0.8706  0.0108
  505MOL0     O68099   3.408   4.636   4.126  0.0581 -0.0914 -0.5441
  505MOL0     C68100   3.538   4.654   4.185 -0.5862  0.6632 -0.6893
  505MOL0     C68101   3.646   4.664   4.077  1.1163 -0.7528  0.4486
  505MOL0     C68102   3.770   4.718   4.136  0.1645  0.1498 -0.3736
  505MOL0     C68103   3.871   4.750   4.021 -0.2819 -0.7223  0.1275
  505MOL0     C68104   4.011   4.788   4.066 -1.0395  0.0775  0.0892
  505MOL0     C68105   4.125   4.793   4.095 -0.0715 -0.1609 -0.0109
  505MOL0     C68106   3.300   4.638   4.348  0.1735 -0.6049 -0.3241
  505MOL0     C68107   3.192   4.625   4.424  0.4246 -1.6924 -0.4754
  505MOL0     H68108   2.598   4.671   4.408 -1.3717 -1.3763  0.7907
  505MOL0     H68109   2.437   4.755   4.567  0.4786 -1.9685 -0.0737
  505MOL0     H68110   2.519   5.153   4.789  0.8360 -3.0609  0.2486
  505MOL0     H68111   2.455   5.149   4.622  0.6886  0.4228  0.9715
  505MOL0     H68112   2.304   5.125   4.896 -0.1592  0.6626 -0.5825
  505MOL0     H68113   2.298   5.255   4.785  1.1872  0.3590  1.3297
  505MOL0     H68114   2.203   5.093   4.597 -3.8769  1.0124 -0.5215
  505MOL0     H68115   2.195   4.972   4.724  1.5163 -0.6817  3.3376
  505MOL0     H68116   2.006   5.140   4.632  0.4445  2.2121  1.4097
  505MOL0     H68117   1.999   5.060   4.800 -0.4178  1.6820  2.6493
  505MOL0     H68118   2.049   5.261   4.899  1.6690 -0.9427 -0.3333
  505MOL0     H68119   2.088   5.341   4.740 -0.6945  1.0863  1.4446
  505MOL0     H68120   1.870   5.328   4.661  3.7671  1.1786 -1.0170
  505MOL0     H68121   1.800   5.238   4.803 -0.5880 -0.9327 -2.3379
  505MOL0     H68122   1.835   5.433   4.953 -1.3105  3.0032  0.6743
  505MOL0     H68123   1.925   5.510   4.827  1.0636 -1.2985  0.3629
  505MOL0     H68124   1.624   5.435   4.778 -0.9435  0.4278 -0.2884
  505MOL0     H68125   1.738   5.545   4.696  2.2822  0.3634  0.9917
  505MOL0     H68126   1.704   5.795   4.786  1.0693 -1.6778 -0.5469
  505MOL0     H68127   1.765   5.989   4.986 -0.2684  0.1040 -0.5619
  505MOL0     H68128   1.597   6.000   5.015 -1.2469 -0.6489  0.7716
  505MOL0     H68129   1.817   5.901   5.192  2.0492  2.0702 -3.9298
  505MOL0     H68130   1.637   5.934   5.249 -1.0836  1.4366 -0.9205
  505MOL0     H68131   1.815   6.149   5.145  1.9078  0.1656  1.9578
  505MOL0     H68132   1.823   6.088   5.305  0.4123  0.0505  0.5646
  505MOL0     H68133   1.660   6.277   5.284  1.1410 -0.0154  2.3493
  505MOL0     H68134   1.576   6.127   5.338 -0.3170 -0.7355 -0.3514
  505MOL0     H68135   1.361   6.169   5.360 -0.3500 -1.2559  0.1010
  505MOL0     H68136   1.178   6.114   5.463 -0.9776 -2.9366  0.8416
  505MOL0     H68137   1.029   6.201   5.395 -1.5231 -0.8326 -3.9776
  505MOL0     H68138   1.057   6.031   5.369  2.1620 -1.1169 -1.6490
  505MOL0     H68139   0.772   6.401   5.034 -1.6163 -0.2221  3.4751
  505MOL0     H68140   0.543   6.427   5.004  0.5475 -0.8953  2.7001
  505MOL0     H68141   0.326   6.293   5.063  3.3734 -1.1850 -0.8207
  505MOL0     H68142   0.342   6.434   4.945  1.4846 -0.3680 -0.7412
  505MOL0     H68143   0.134   6.202   4.960 -4.3454  0.1244 -0.9602
  505MOL0     H68144   0.085   6.363   4.979 -1.8699 -0.4035 -1.4991
  505MOL0     H68145   0.164   6.236   4.715  1.7770 -0.9309  2.7582
  505MOL0     H68146   0.196   6.411   4.733 -1.4455  2.1316  0.9670
  505MOL0     H68147  -0.033   6.449   4.826  0.7020  0.3930 -0.1180
  505MOL0     H68148  -0.017   6.403   4.648  4.2458  0.5035 -0.0841
  505MOL0     H68149  -0.135   6.268   4.893 -2.6373 -1.2742 -0.6860
  505MOL0     H68150  -0.064   6.159   4.774  1.9665  0.4863 -1.1762
  505MOL0     H68151  -0.266   6.371   4.716  0.6808  0.7802  1.5330
  505MOL0     H68152  -0.200   6.260   4.596  0.7061  0.6931 -0.3879
  505MOL0     H68153  -0.359   6.166   4.837 -2.2229  0.8705 -0.1998
  505MOL0     H68154  -0.311   6.061   4.701  0.7360  0.5505 -1.5591
  505MOL0     H68155  -0.490   6.315   4.677  2.0478  1.5391 -2.5354
  505MOL0     H68156  -0.551   6.145   4.684 -0.8683 -0.5663 -3.7160
  505MOL0     H68157   0.547   6.022   4.837  1.4639 -0.7333  0.7644
  505MOL0     H68158   0.761   5.996   4.874 -0.7036  0.0316  0.6501
  505MOL0     H68159   1.162   6.188   4.903 -1.2681  1.8646  0.4192
  505MOL0     H68160   1.385   6.221   4.934  0.0475  3.1741  0.8461
  505MOL0     H68161   2.720   5.045   4.708 -2.2155 -0.1707 -0.4409
  505MOL0     H68162   2.893   4.942   4.548  1.4429 -2.3229 -0.7194
  505MOL0     H68163   2.968   4.692   4.166 -1.1248  0.8925  1.6510
  505MOL0     H68164   3.188   4.659   4.042 -0.9694  0.0225  0.9783
  505MOL0     H68165   3.545   4.743   4.248 -0.0548  0.9011 -1.0812
  505MOL0     H68166   3.577   4.573   4.247 -0.5381  0.5416 -0.8809
  505MOL0     H68167   3.622   4.738   4.000  1.9366  0.5458  1.3917
  505MOL0     H68168   3.669   4.565   4.037 -1.0034 -1.5192  0.9947
  505MOL0     H68169   3.817   4.651   4.209  1.0608  1.7272  0.5669
  505MOL0     H68170   3.753   4.809   4.195 -3.3728  0.7583 -2.0544
  505MOL0     H68171   3.822   4.832   3.967 -0.2564 -0.5855  0.3107
  505MOL0     H68172   3.870   4.660   3.959 -0.7238 -0.3490 -0.4253
  505MOL0     H68173   4.224   4.806   4.134 -0.6115 -1.9292  2.1596
  505MOL0     H68174   3.394   4.611   4.397 -1.1532 -0.6166  2.4279
  505MOL0     H68175   3.205   4.601   4.530  2.2980  0.4580 -0.1394
  506MOL0     O68176   9.474   6.598   8.667  0.2434 -0.0262 -0.0820
  506MOL0     C68177   9.505   6.520   8.751 -0.5656  0.2758  0.3504
  506MOL0     O68178   9.435   6.494   8.867 -0.2022 -0.5316 -0.0345
  506MOL0     C68179   9.309   6.545   8.898 -0.0820 -0.9225 -0.0211
  506MOL0     C68180   9.220   6.470   8.985 -0.9783 -1.4717 -0.4382
  506MOL0     C68181   9.101   6.533   9.027  0.0794 -0.2967 -0.9061
  506MOL0     C68182   9.056   6.655   8.976  0.0826 -0.1650 -0.1727
  506MOL0     O68183   8.947   6.708   9.036  0.6964  0.4094 -0.6522
  506MOL0     C68184   8.885   6.826   9.010 -0.2723 -0.5999  0.1179
  506MOL0     C68185   8.960   6.934   9.092  0.3433 -0.0334 -0.2518
  506MOL0     C68186   8.924   7.074   9.023  0.0247  0.6472  0.2385
  506MOL0     C68187   8.994   7.190   9.085  0.6187 -0.9778  0.0711
  506MOL0     C68188   8.993   7.309   8.997  0.4401  0.2565 -0.0623
  506MOL0     C68189   8.948   7.438   9.068  0.1934 -0.0980  0.1271
  506MOL0     C68190   8.910   7.546   8.962  0.0820 -0.0604 -0.6502
  506MOL0     C68191   8.895   7.679   9.021  0.7699 -0.0810 -0.6730
  506MOL0     N68192   8.898   7.777   8.910  0.9378 -0.1761 -0.0401
  506MOL0     C68193   9.009   7.842   8.849 -0.1895  0.1147  0.4769
  506MOL0     C68194   8.958   7.940   8.776  0.2875  1.4478  0.4959
  506MOL0     C68195   9.025   8.030   8.686 -0.0568  0.3391 -0.1358
  506MOL0     C68196   9.097   7.950   8.575  0.2130 -0.5576  0.0196
  506MOL0     C68197   9.185   8.031   8.485 -0.7089 -0.7578  0.0724
  506MOL0     C68198   9.266   7.949   8.381 -0.9980 -0.3357 -0.1702
  506MOL0     O68199   9.371   7.892   8.456 -0.8844  0.6929 -0.0280
  506MOL0     C68200   9.475   7.834   8.383 -0.5989  0.5891 -0.9864
  506MOL0     C68201   9.592   7.811   8.465  0.2699  0.1843  1.3460
  506MOL0     C68202   9.702   7.743   8.415  0.4057 -0.3422 -0.5049
  506MOL0     C68203   9.813   7.708   8.506 -0.2369  0.6660 -0.8247
  506MOL0     C68204   9.699   7.700   8.276 -0.9213  0.1265 -0.1470
  506MOL0     C68205   9.810   7.614   8.225 -0.1095 -0.3036 -0.6344
  506MOL0     O68206   9.938   7.644   8.258 -0.7356  0.3943  0.3999
  506MOL0     C68207  10.046   7.566   8.227  0.1579 -0.3170  0.3665
  506MOL0     C68208  10.156   7.568   8.315 -0.8797 -0.6516 -0.0981
  506MOL0     C68209  10.269   7.504   8.287  0.2444 -0.0552  0.0313
  506MOL0     C68210  10.290   7.438   8.159 -0.3134 -0.5863  0.3771
  506MOL0     O68211  10.415   7.388   8.130  0.5780 -0.6399 -0.3079
  506MOL0     C68212  10.413   7.261   8.067  0.2325 -0.7902  0.4735
  506MOL0     C68213  10.559   7.224   8.063  0.3714 -1.1861 -0.0483
  506MOL0     C68214  10.627   7.302   7.944  0.1728 -0.7029 -0.2144
  506MOL0     C68215  10.778   7.296   7.967 -0.2399 -1.0211 -0.1448
  506MOL0     C68216  10.830   7.157   7.944  0.4767 -0.4885  0.3567
  506MOL0     C68217  10.982   7.163   7.977 -0.8220 -0.4650 -0.5703
  506MOL0     C68218  11.059   7.048   7.899 -0.0042 -0.0739 -0.5153
  506MOL0     C68219  11.184   7.082   7.823  0.4391  0.7871 -0.3872
  506MOL0    Cl68220  11.297   7.140   7.939 -0.2155  0.0018 -0.3335
  506MOL0     C68221  10.172   7.427   8.073  0.1048 -0.0459  0.4676
  506MOL0     C68222  10.053   7.485   8.109 -0.2444  0.3125 -0.0805
  506MOL0     O68223   9.770   7.521   8.155  0.2286 -0.1967  0.6844
  506MOL0     C68224   9.583   7.726   8.202  0.0815  0.3006  0.2450
  506MOL0     C68225   9.468   7.789   8.257  0.5426  0.1401 -0.0341
  506MOL0     N68226   8.819   7.916   8.767  0.0839 -0.8851  0.0699
  506MOL0     N68227   8.786   7.823   8.845 -0.4093  0.9095  0.4477
  506MOL0     C68228   9.129   6.718   8.871  1.0362 -0.2650 -0.3689
  506MOL0     C68229   9.255   6.666   8.837  0.2920 -0.6393 -0.0715
  506MOL0     C68230   9.637   6.453   8.747  0.5045  0.5433  0.6548
  506MOL0     C68231   9.691   6.389   8.861  0.5707 -0.6622 -0.4834
  506MOL0     C68232   9.823   6.346   8.859  1.1216 -0.2299  0.3661
  506MOL0     C68233   9.901   6.361   8.749  0.1656 -0.2996 -0.1192
  506MOL0     O68234  10.025   6.309   8.759  0.2181  0.1504 -0.1244
  506MOL0     C68235  10.108   6.313   8.637  0.5300 -1.0219 -0.1799
  506MOL0     C68236  10.247   6.248   8.662 -0.0505 -0.2524 -0.1642
  506MOL0     C68237  10.332   6.216   8.538 -0.0169  0.2513  0.3871
  506MOL0     C68238  10.481   6.185   8.579  0.1466  0.4222  0.6355
  506MOL0     C68239  10.555   6.123   8.469  0.2488  0.3527  0.1879
  506MOL0     C68240  10.616   6.056   8.386  0.3271 -0.3992 -0.5316
  506MOL0     C68241   9.844   6.409   8.627  0.0003 -0.3711 -0.3385
  506MOL0     C68242   9.715   6.457   8.625  0.0875 -0.3562 -0.2543
  506MOL0     H68243   9.235   6.379   9.044  2.3501 -0.6731  0.1429
  506MOL0     H68244   9.034   6.482   9.095  2.3686 -2.2570  0.0335
  506MOL0     H68245   8.882   6.842   8.902 -3.9589  1.4223  0.3325
  506MOL0     H68246   8.781   6.827   9.044 -0.5527  0.8614 -0.7109
  506MOL0     H68247   8.927   6.957   9.194 -0.5892  0.5448 -0.6661
  506MOL0     H68248   9.067   6.915   9.102  0.3020 -0.5981 -0.8245
  506MOL0     H68249   8.950   7.068   8.916 -0.3085  2.1118  0.0561
  506MOL0     H68250   8.819   7.095   9.041 -0.8975 -1.0514 -2.5233
  506MOL0     H68251   8.938   7.218   9.175  0.3217  3.1142 -1.1606
  506MOL0     H68252   9.102   7.183   9.101  1.1931  2.4699 -1.4023
  506MOL0     H68253   9.087   7.322   8.944  0.9056  0.0900  0.7023
  506MOL0     H68254   8.919   7.291   8.918 -0.4756  0.3054  0.7575
  506MOL0     H68255   8.862   7.418   9.133  0.8009 -1.1307  0.6473
  506MOL0     H68256   9.030   7.477   9.129 -2.4966  0.1412  3.9623
  506MOL0     H68257   8.984   7.548   8.881 -0.0294  0.4257 -0.7449
  506MOL0     H68258   8.817   7.515   8.914 -0.4968  3.1353 -1.8122
  506MOL0     H68259   8.983   7.710   9.077 -0.7542 -2.1956  3.3055
  506MOL0     H68260   8.810   7.688   9.089  3.1625  1.0944  2.3585
  506MOL0     H68261   9.114   7.824   8.871  0.2469 -0.4390 -1.8660
  506MOL0     H68262   8.951   8.102   8.649 -0.1506  1.0341  1.3089
  506MOL0     H68263   9.092   8.092   8.747 -1.2666  2.4724 -0.8407
  506MOL0     H68264   9.023   7.892   8.520 -1.1231 -0.1357  1.3067
  506MOL0     H68265   9.173   7.886   8.622 -0.0025 -0.0547  1.0874
  506MOL0     H68266   9.250   8.094   8.548 -0.6353 -0.3102 -0.4422
  506MOL0     H68267   9.140   8.101   8.415  2.9458  2.2536  0.3979
  506MOL0     H68268   9.311   8.005   8.298  1.3919  2.0305  2.5125
  506MOL0     H68269   9.194   7.887   8.328 -0.1492 -0.8573 -0.7398
  506MOL0     H68270   9.590   7.847   8.567  0.9522 -0.9904  1.7949
  506MOL0     H68271   9.908   7.752   8.471 -0.1178 -0.4631 -1.9616
  506MOL0     H68272   9.790   7.724   8.612 -2.7179 -2.9692 -0.6591
  506MOL0     H68273   9.836   7.602   8.493 -1.4461  0.3183 -0.2347
  506MOL0     H68274  10.154   7.620   8.410  3.6121  0.7435 -0.5396
  506MOL0     H68275  10.354   7.507   8.354 -0.5431  0.7296  1.0193
  506MOL0     H68276  10.358   7.191   8.129 -0.5727 -0.1407  0.5036
  506MOL0     H68277  10.378   7.265   7.963  0.0828 -0.4199  0.5351
  506MOL0     H68278  10.620   7.252   8.150  3.3888  0.2551 -2.4322
  506MOL0     H68279  10.566   7.116   8.046 -1.6449 -1.5134  0.9564
  506MOL0     H68280  10.588   7.405   7.940  0.1414 -0.6826  0.4077
  506MOL0     H68281  10.592   7.258   7.851 -0.5659 -0.0121 -0.2763
  506MOL0     H68282  10.821   7.365   7.893 -3.6407  0.7229 -0.6958
  506MOL0     H68283  10.794   7.332   8.069  0.3266  0.5673 -0.7512
  506MOL0     H68284  10.801   7.130   7.842 -4.5837  4.1308  0.1140
  506MOL0     H68285  10.784   7.092   8.019  4.8205 -0.9692  2.9566
  506MOL0     H68286  11.027   7.254   7.936  1.8843 -2.7386 -3.0754
  506MOL0     H68287  10.997   7.162   8.085 -1.9284  3.0247 -0.2347
  506MOL0     H68288  10.990   6.995   7.832 -1.1850 -0.5362  1.0045
  506MOL0     H68289  11.098   6.971   7.966  0.6349 -2.2961 -3.2141
  506MOL0     H68290  11.162   7.151   7.741 -0.3506 -0.5260 -1.3148
  506MOL0     H68291  11.215   6.987   7.777 -3.4348 -0.9902  0.2902
  506MOL0     H68292  10.169   7.369   7.982 -0.0853 -0.2025  0.5732
  506MOL0     H68293   9.973   7.486   8.036 -0.1973 -0.9025 -0.1677
  506MOL0     H68294   9.574   7.693   8.099  2.3387  2.2054 -0.6502
  506MOL0     H68295   9.374   7.804   8.204  1.2540  0.2186 -1.3144
  506MOL0     H68296   9.103   6.820   8.845  0.4644 -0.0452  0.9713
  506MOL0     H68297   9.311   6.729   8.770  1.7526 -0.4252  1.3067
  506MOL0     H68298   9.640   6.372   8.955 -3.1092  1.4321 -1.8695
  506MOL0     H68299   9.857   6.299   8.951 -0.4855  0.5660  1.4027
  506MOL0     H68300  10.059   6.263   8.553 -0.6872  0.3933 -0.3671
  506MOL0     H68301  10.121   6.420   8.618 -1.5977 -0.5416  0.7401
  506MOL0     H68302  10.216   6.154   8.707 -0.1243 -0.1141  0.0734
  506MOL0     H68303  10.306   6.296   8.740 -3.7039  1.4485  1.8345
  506MOL0     H68304  10.335   6.306   8.476  1.0285 -0.8281 -1.1877
  506MOL0     H68305  10.290   6.138   8.474  3.8255  1.0172 -3.5581
  506MOL0     H68306  10.481   6.107   8.656 -0.3148 -1.0186 -0.7683
  506MOL0     H68307  10.535   6.275   8.612 -0.1901  0.2587  1.6725
  506MOL0     H68308  10.680   6.014   8.312 -1.3636 -1.6376 -1.3562
  506MOL0     H68309   9.900   6.411   8.533  2.2054 -0.7538  0.8913
  506MOL0     H68310   9.679   6.504   8.534  1.3268  1.2235  0.0331
  507MOL0     O68311   2.143  11.293   6.259  0.2223 -0.1145  0.0258
  507MOL0     C68312   2.227  11.360   6.202 -0.3015  0.6461  0.0439
  507MOL0     O68313   2.294  11.456   6.261  0.5411 -0.1234 -0.1476
  507MOL0     C68314   2.257  11.492   6.386 -0.1583 -0.7738  0.2039
  507MOL0     C68315   2.319  11.425   6.493 -0.2361 -0.3610  0.9116
  507MOL0     C68316   2.319  11.478   6.630  0.6538 -0.6676 -0.2981
  507MOL0     C68317   2.241  11.592   6.657 -0.3106  0.2473  0.4528
  507MOL0     O68318   2.222  11.620   6.789 -0.1543 -0.1569  0.0365
  507MOL0     C68319   2.187  11.761   6.820 -0.6125  1.0848  0.5623
  507MOL0     C68320   2.192  11.756   6.971 -0.4380 -0.8090 -0.2394
  507MOL0     C68321   2.330  11.742   7.031  0.4545 -0.1081 -0.0877
  507MOL0     C68322   2.424  11.861   7.027  0.6525 -0.7924 -0.2994
  507MOL0     C68323   2.534  11.856   7.144 -0.2093  0.7423  0.5170
  507MOL0     C68324   2.599  11.997   7.178  0.7744  0.0087  1.0295
  507MOL0     C68325   2.695  11.988   7.288 -0.1902  0.3841  0.1600
  507MOL0     C68326   2.778  12.117   7.307  0.2789  0.1149 -0.7365
  507MOL0     N68327   2.843  12.170   7.191 -0.5395 -0.1375  0.2670
  507MOL0     C68328   2.940  12.107   7.112  0.6861 -0.1293 -0.4647
  507MOL0     C68329   2.974  12.183   7.012 -0.0655  0.8926 -0.2072
  507MOL0     C68330   3.088  12.150   6.914  0.0451  0.3364  0.4461
  507MOL0     C68331   3.060  12.221   6.783 -0.1087  0.8283  0.2662
  507MOL0     C68332   2.921  12.212   6.718 -0.2281 -0.8741 -0.1579
  507MOL0     C68333   2.871  12.069   6.714  0.2381  0.1481  0.2740
  507MOL0     O68334   2.767  12.037   6.623 -0.2946 -0.3582 -0.0387
  507MOL0     C68335   2.640  12.085   6.650  0.4899 -0.0818 -0.0714
  507MOL0     C68336   2.544  12.059   6.557  0.0128 -0.3665  0.3368
  507MOL0     C68337   2.411  12.086   6.579  0.0863 -0.4942  0.3620
  507MOL0     C68338   2.307  12.051   6.472 -0.5492  0.2588 -0.2649
  507MOL0     C68339   2.368  12.155   6.692 -0.6040 -0.8317 -0.9381
  507MOL0     C68340   2.226  12.189   6.719  0.3276 -0.1917  0.1619
  507MOL0     O68341   2.129  12.088   6.734  0.6257 -0.6552 -0.4992
  507MOL0     C68342   1.999  12.135   6.739 -0.3675  0.1244  0.1083
  507MOL0     C68343   1.931  12.096   6.850 -0.4261  0.1080 -0.0162
  507MOL0     C68344   1.802  12.151   6.870  0.6672  0.5796  0.3626
  507MOL0     C68345   1.734  12.242   6.776 -0.5890  0.2736  0.8127
  507MOL0     O68346   1.609  12.288   6.779  0.1140 -0.0294 -0.3499
  507MOL0     C68347   1.507  12.230   6.875 -0.1693  0.2190 -0.3275
  507MOL0     C68348   1.366  12.228   6.810  0.9917 -0.1437  0.7913
  507MOL0     C68349   1.249  12.175   6.895 -0.4173 -0.2324  0.1962
  507MOL0     C68350   1.117  12.192   6.824  0.3508  0.4846 -0.0190
  507MOL0     C68351   1.042  12.325   6.842 -0.2657  1.0287 -0.2029
  507MOL0     C68352   0.890  12.292   6.826 -1.1247 -0.2700  0.1160
  507MOL0     C68353   0.804  12.422   6.810 -0.2251 -0.2163 -0.1229
  507MOL0     C68354   0.658  12.399   6.804 -0.4901  0.0881  0.1614
  507MOL0    Cl68355   0.597  12.320   6.953  0.2970 -0.0855  0.3846
  507MOL0     C68356   1.816  12.282   6.672 -0.1917 -0.7925 -0.5106
  507MOL0     C68357   1.945  12.227   6.651  0.4830 -0.5361 -0.1816
  507MOL0     O68358   2.199  12.311   6.721 -1.4679  0.3228 -0.3554
  507MOL0     C68359   2.463  12.180   6.790 -0.6517 -0.2823  0.3045
  507MOL0     C68360   2.598  12.135   6.770 -0.0154 -0.4474  0.1824
  507MOL0     N68361   2.889  12.294   7.025  0.2089 -0.2470  0.1850
  507MOL0     N68362   2.817  12.286   7.134 -0.1056  0.6627  0.2505
  507MOL0     C68363   2.180  11.667   6.547 -0.8940  0.7023 -0.2068
  507MOL0     C68364   2.191  11.615   6.417 -0.0426  0.5721  0.3168
  507MOL0     C68365   2.243  11.347   6.055 -0.2089 -0.4402 -0.0728
  507MOL0     C68366   2.358  11.380   5.974 -0.5908 -0.0374 -0.1954
  507MOL0     C68367   2.355  11.362   5.830 -0.8927  0.8332  0.0703
  507MOL0     C68368   2.237  11.329   5.766 -0.2861 -0.4383  0.2570
  507MOL0     O68369   2.218  11.328   5.627 -0.3323 -0.4168  0.3440
  507MOL0     C68370   2.335  11.359   5.552  0.1726  1.1070 -0.5188
  507MOL0     C68371   2.305  11.350   5.397  0.2351 -0.0519  0.0198
  507MOL0     C68372   2.432  11.369   5.326  0.0758  0.0668  1.4029
  507MOL0     C68373   2.503  11.498   5.349 -0.6490  0.5057 -0.7166
  507MOL0     C68374   2.624  11.524   5.271 -0.4526  0.0982  0.0646
  507MOL0     C68375   2.731  11.554   5.225  0.4206  1.2740 -0.4308
  507MOL0     C68376   2.126  11.291   5.839  0.3469  0.0693 -0.4693
  507MOL0     C68377   2.126  11.300   5.979 -0.0184 -0.7408 -0.9899
  507MOL0     H68378   2.376  11.336   6.469 -0.7770 -0.8572  1.4581
  507MOL0     H68379   2.371  11.428   6.711  0.6963  2.3061  1.6631
  507MOL0     H68380   2.271  11.822   6.783 -0.2775  1.0438  1.2413
  507MOL0     H68381   2.090  11.800   6.788 -0.4769  1.3099  0.4192
  507MOL0     H68382   2.145  11.851   6.998 -1.7320 -1.5683  0.2232
  507MOL0     H68383   2.124  11.675   6.999 -1.4494  0.1364  0.1249
  507MOL0     H68384   2.311  11.705   7.133  0.9362 -1.2474 -0.3932
  507MOL0     H68385   2.385  11.659   6.986 -0.9244  0.0191 -2.1161
  507MOL0     H68386   2.459  11.870   6.923 -0.7454  0.7252 -0.6700
  507MOL0     H68387   2.361  11.949   7.039  0.5707 -0.1913 -3.8676
  507MOL0     H68388   2.492  11.812   7.235  0.5455 -2.4395 -0.5462
  507MOL0     H68389   2.617  11.793   7.110 -0.4429 -0.0763  1.4134
  507MOL0     H68390   2.650  12.031   7.087 -0.7672  1.4412  0.6574
  507MOL0     H68391   2.520  12.068   7.204  0.3046  1.0280 -2.5956
  507MOL0     H68392   2.646  11.952   7.379  1.7833 -3.0565  0.0504
  507MOL0     H68393   2.767  11.908   7.267 -0.5460 -0.0232  0.4689
  507MOL0     H68394   2.864  12.105   7.375  0.3875  3.3654 -0.1198
  507MOL0     H68395   2.711  12.193   7.347 -0.6931 -0.5306 -1.0983
  507MOL0     H68396   2.984  12.008   7.121 -2.7151 -2.0123 -2.3636
  507MOL0     H68397   3.181  12.193   6.952 -0.8221  1.3653  1.4522
  507MOL0     H68398   3.090  12.043   6.890 -0.6715  0.1077  1.3788
  507MOL0     H68399   3.126  12.182   6.705 -0.1863  1.7112 -0.2540
  507MOL0     H68400   3.074  12.329   6.786 -2.2027  1.2663 -2.1028
  507MOL0     H68401   2.917  12.242   6.613 -5.2063  0.4057  0.1281
  507MOL0     H68402   2.852  12.278   6.772 -0.3358  1.0451 -2.5028
  507MOL0     H68403   2.843  12.034   6.814  0.4869  1.9036  0.9993
  507MOL0     H68404   2.948  11.997   6.685 -0.3364 -0.8875  1.2477
  507MOL0     H68405   2.587  12.012   6.469  0.7358  0.9118 -0.0222
  507MOL0     H68406   2.263  12.143   6.431  1.4347  0.9407 -1.0162
  507MOL0     H68407   2.340  11.998   6.383 -1.5615 -3.6534  1.4567
  507MOL0     H68408   2.236  11.980   6.515 -1.9727  1.6296 -0.2730
  507MOL0     H68409   1.976  12.034   6.927 -2.0661  0.7732  1.5521
  507MOL0     H68410   1.753  12.124   6.962 -0.6318 -1.7193 -0.9158
  507MOL0     H68411   1.526  12.130   6.914  0.2488 -0.0087 -1.1007
  507MOL0     H68412   1.508  12.300   6.960 -1.3245  1.0105 -0.9434
  507MOL0     H68413   1.340  12.333   6.792  1.4674 -0.1372  0.1128
  507MOL0     H68414   1.366  12.175   6.714 -3.4248 -0.4018  0.7082
  507MOL0     H68415   1.246  12.220   6.995  1.4717  0.1280  0.1324
  507MOL0     H68416   1.262  12.067   6.912 -2.3688 -0.8093 -1.5404
  507MOL0     H68417   1.141  12.161   6.722 -0.4974 -0.5289  0.0694
  507MOL0     H68418   1.042  12.118   6.853 -1.2914  1.8754 -0.5396
  507MOL0     H68419   1.085  12.399   6.774 -2.4687  3.4503  0.8996
  507MOL0     H68420   1.056  12.359   6.945 -2.2052  1.1921  0.0408
  507MOL0     H68421   0.882  12.233   6.734  0.9239 -1.4362  0.6174
  507MOL0     H68422   0.853  12.242   6.915 -6.4324  0.7859 -1.1666
  507MOL0     H68423   0.831  12.463   6.712 -1.1186  0.3133 -0.1563
  507MOL0     H68424   0.827  12.487   6.895 -0.1776  2.6912 -2.2069
  507MOL0     H68425   0.640  12.326   6.724 -0.8031 -1.8705  1.9442
  507MOL0     H68426   0.594  12.486   6.785 -0.0105 -0.1465 -3.1056
  507MOL0     H68427   1.767  12.342   6.597 -0.9101  2.4058  2.2841
  507MOL0     H68428   2.000  12.269   6.568 -0.2490  1.0617  0.1129
  507MOL0     H68429   2.429  12.233   6.879 -2.7864  2.7287 -2.1090
  507MOL0     H68430   2.674  12.153   6.846 -1.4541  1.0214  1.3545
  507MOL0     H68431   2.129  11.763   6.555 -0.5798  0.8842 -0.4092
  507MOL0     H68432   2.139  11.665   6.336 -2.4797 -1.7869  0.3240
  507MOL0     H68433   2.445  11.427   6.018  0.7322 -0.7131 -1.9709
  507MOL0     H68434   2.443  11.395   5.776 -0.2335  1.5556  1.5095
  507MOL0     H68435   2.363  11.459   5.585  1.1268 -0.4106  3.9988
  507MOL0     H68436   2.414  11.287   5.572  0.1713 -0.3401 -4.6796
  507MOL0     H68437   2.237  11.429   5.366 -1.2909 -1.5336 -0.5528
  507MOL0     H68438   2.248  11.259   5.375 -0.6611  0.3642  0.5654
  507MOL0     H68439   2.411  11.364   5.219  4.1464 -3.1480  0.4473
  507MOL0     H68440   2.500  11.286   5.349 -2.2709 -1.3122  4.0717
  507MOL0     H68441   2.532  11.492   5.454 -0.4312  0.8795 -0.7550
  507MOL0     H68442   2.431  11.577   5.326 -2.2636 -0.2333  1.4509
  507MOL0     H68443   2.832  11.573   5.196  0.7175  2.0766  1.0191
  507MOL0     H68444   2.031  11.265   5.792  0.7289 -1.6784 -0.3434
  507MOL0     H68445   2.035  11.274   6.032  1.3486 -2.4169  0.6377
  508MOL0     O68446   7.156   3.268   6.946 -0.3342 -0.3821 -0.7915
  508MOL0     C68447   7.259   3.281   6.876 -0.8650  0.0480 -0.7785
  508MOL0     O68448   7.276   3.354   6.767  0.3091  0.1729  0.3487
  508MOL0     C68449   7.180   3.448   6.737  0.3752  0.5206 -0.5189
  508MOL0     C68450   7.156   3.566   6.815  0.6885 -0.6380  0.2557
  508MOL0     C68451   7.058   3.660   6.773 -0.1386  0.3559  0.5700
  508MOL0     C68452   6.989   3.646   6.651  0.0388  0.0514  0.4625
  508MOL0     O68453   6.910   3.748   6.608 -0.2325  0.4507  0.2705
  508MOL0     C68454   6.818   3.811   6.704 -0.2506  1.1425  0.7826
  508MOL0     C68455   6.697   3.874   6.637  0.0124 -0.3466  0.5260
  508MOL0     C68456   6.738   3.973   6.521 -0.6541  0.3282 -0.3753
  508MOL0     C68457   6.618   4.038   6.445 -0.5342  0.0254  0.7915
  508MOL0     C68458   6.526   3.941   6.369 -0.1060  0.4387 -0.5886
  508MOL0     C68459   6.414   4.000   6.294  0.3083  0.5647  0.5501
  508MOL0     C68460   6.459   4.098   6.185  0.0457 -0.4537 -1.3285
  508MOL0     C68461   6.362   4.111   6.074  0.9605 -0.4364  0.2928
  508MOL0     N68462   6.238   4.170   6.128  0.3113 -0.0124  0.4920
  508MOL0     C68463   6.124   4.102   6.157  0.8111  0.2864 -0.6862
  508MOL0     C68464   6.032   4.199   6.187  0.4206 -0.5418  0.0430
  508MOL0     C68465   5.888   4.169   6.229  0.2635 -0.2383  0.2957
  508MOL0     C68466   5.808   4.128   6.110  0.3568 -0.4397  0.3528
  508MOL0     C68467   5.652   4.141   6.139  0.1734 -0.5806  0.4089
  508MOL0     C68468   5.558   4.057   6.058 -0.7298 -0.1646 -0.6619
  508MOL0     O68469   5.433   4.060   6.121 -0.8989 -0.6377 -0.6303
  508MOL0     C68470   5.338   3.972   6.082 -0.7351 -0.0195  0.1792
  508MOL0     C68471   5.216   3.984   6.148  0.4741 -0.2693  0.0101
  508MOL0     C68472   5.106   3.906   6.114  0.0042  0.2629  0.2048
  508MOL0     C68473   4.990   3.943   6.216  0.5420  0.7281  0.5175
  508MOL0     C68474   5.119   3.806   6.010  0.2401  0.0089  0.1852
  508MOL0     C68475   5.006   3.731   5.956 -0.5257 -1.3026 -0.0371
  508MOL0     O68476   5.032   3.631   5.864 -0.0874 -0.3924 -0.0471
  508MOL0     C68477   4.934   3.579   5.787 -0.0276 -0.2952 -0.3586
  508MOL0     C68478   4.979   3.478   5.701  0.6373 -0.1022 -0.0508
  508MOL0     C68479   4.893   3.419   5.607  0.4437  0.3304  0.3346
  508MOL0     C68480   4.756   3.446   5.599 -1.0486  0.3076 -0.5568
  508MOL0     O68481   4.662   3.387   5.514 -0.1128  0.3364 -0.0733
  508MOL0     C68482   4.700   3.265   5.443  0.2626  0.0033  0.2487
  508MOL0     C68483   4.572   3.216   5.382 -0.7130 -0.1970 -0.0390
  508MOL0     C68484   4.586   3.101   5.290 -0.4487 -0.0824 -0.5683
  508MOL0     C68485   4.447   3.051   5.239 -0.3273  0.3913  0.4951
  508MOL0     C68486   4.453   2.911   5.168 -0.4243  0.3677  0.2555
  508MOL0     C68487   4.324   2.896   5.090 -0.8874 -0.9148 -0.4242
  508MOL0     C68488   4.298   2.773   5.009 -0.3496  1.8321 -0.2282
  508MOL0     C68489   4.146   2.759   4.982 -0.1633 -0.0220 -0.0363
  508MOL0    Cl68490   4.084   2.898   4.880 -0.2070  0.2322 -0.1340
  508MOL0     C68491   4.707   3.528   5.694 -0.4650 -0.9239  0.0483
  508MOL0     C68492   4.793   3.596   5.787  0.0400  0.1773 -0.0421
  508MOL0     O68493   4.897   3.764   6.003 -0.0980  0.2583 -0.8502
  508MOL0     C68494   5.247   3.783   5.956  0.6649  0.7834  0.5560
  508MOL0     C68495   5.358   3.876   5.985  0.4260  0.3131 -0.0878
  508MOL0     N68496   6.093   4.313   6.174  0.3413 -0.3246 -0.0819
  508MOL0     N68497   6.210   4.303   6.121 -0.9669  1.0763  0.2339
  508MOL0     C68498   7.015   3.532   6.571 -0.1222 -0.4606  0.3007
  508MOL0     C68499   7.110   3.436   6.613  0.2103  0.3345 -0.2993
  508MOL0     C68500   7.375   3.205   6.927  0.1678  0.8694 -0.9526
  508MOL0     C68501   7.369   3.091   7.023  0.1103  0.1382  0.0908
  508MOL0     C68502   7.483   3.024   7.061  0.0108 -0.3820 -0.1353
  508MOL0     C68503   7.604   3.050   7.006  0.8561 -0.3711  1.1118
  508MOL0     O68504   7.707   2.981   7.052 -0.2084  0.4229 -0.2543
  508MOL0     C68505   7.832   2.974   6.981  0.4153 -0.5209 -0.2397
  508MOL0     C68506   7.906   2.848   7.051  0.1875 -0.9982  0.4181
  508MOL0     C68507   7.882   2.727   6.958  0.5312  0.2829 -0.8839
  508MOL0     C68508   7.979   2.619   6.984  0.7477  0.5917  0.9519
  508MOL0     C68509   7.979   2.523   6.867 -0.8590  0.2319 -0.0590
  508MOL0     C68510   7.987   2.454   6.761  0.6071 -0.0055 -0.2205
  508MOL0     C68511   7.616   3.153   6.905  0.7495  0.9913 -0.5943
  508MOL0     C68512   7.502   3.236   6.876 -1.7914 -0.2214  0.0137
  508MOL0     H68513   7.205   3.584   6.910  0.2883 -3.8672  1.2257
  508MOL0     H68514   7.053   3.746   6.839  0.4408 -1.4500  3.1318
  508MOL0     H68515   6.782   3.734   6.773  0.0023  0.5662  0.2800
  508MOL0     H68516   6.860   3.896   6.760  2.7200 -0.0345  0.5348
  508MOL0     H68517   6.625   3.804   6.594  2.6063 -1.9270 -1.5910
  508MOL0     H68518   6.639   3.931   6.710 -2.5805  0.6005 -2.1055
  508MOL0     H68519   6.806   4.050   6.557 -0.0307 -1.5364  2.7955
  508MOL0     H68520   6.787   3.914   6.442 -0.2797  0.4031 -0.2007
  508MOL0     H68521   6.564   4.091   6.523  2.5332  1.4099  2.1427
  508MOL0     H68522   6.663   4.115   6.382  0.4975 -0.1656  1.2598
  508MOL0     H68523   6.603   3.893   6.307  1.3946  0.5520  1.0936
  508MOL0     H68524   6.495   3.864   6.439  1.6766  0.1904 -0.0221
  508MOL0     H68525   6.355   3.920   6.248  1.6158 -0.4479  0.5804
  508MOL0     H68526   6.351   4.048   6.368  0.1677 -1.4413  1.8168
  508MOL0     H68527   6.478   4.194   6.235  0.3636 -1.0755 -0.2178
  508MOL0     H68528   6.557   4.063   6.153  0.3552  2.9951 -4.9714
  508MOL0     H68529   6.346   4.012   6.032  1.2056 -0.1537 -0.4879
  508MOL0     H68530   6.392   4.179   5.993 -2.0808 -0.4917 -1.0233
  508MOL0     H68531   6.113   3.994   6.161  0.0061  0.3246 -1.5556
  508MOL0     H68532   5.896   4.091   6.305  1.0774  2.8199  3.6484
  508MOL0     H68533   5.840   4.256   6.274  0.3595 -0.2729  0.4644
  508MOL0     H68534   5.824   4.025   6.077 -0.2915  0.0369 -1.6063
  508MOL0     H68535   5.822   4.188   6.019  0.2058 -0.9269  0.0057
  508MOL0     H68536   5.628   4.247   6.148 -0.6633 -0.8413  1.3995
  508MOL0     H68537   5.638   4.097   6.238 -1.1624  3.4842  2.2224
  508MOL0     H68538   5.606   3.959   6.056  2.2277  1.1444 -0.0849
  508MOL0     H68539   5.559   4.092   5.955 -0.7222 -0.8230 -0.8867
  508MOL0     H68540   5.229   4.054   6.230  1.5966  0.9459 -1.1425
  508MOL0     H68541   4.927   3.854   6.234  1.7519 -0.2832 -0.1050
  508MOL0     H68542   5.022   3.983   6.313  3.1458 -1.8285  0.8611
  508MOL0     H68543   4.942   4.028   6.167  1.4321 -0.3482 -2.4583
  508MOL0     H68544   5.081   3.457   5.671 -0.2780 -2.1013 -2.2067
  508MOL0     H68545   4.927   3.357   5.526  0.5160  0.7350  0.0504
  508MOL0     H68546   4.765   3.288   5.358 -1.3769  0.2110 -0.9974
  508MOL0     H68547   4.738   3.184   5.507 -2.4852 -0.8797  0.8720
  508MOL0     H68548   4.502   3.168   5.451 -0.6826 -1.0042 -0.5566
  508MOL0     H68549   4.528   3.311   5.350  0.9848  1.8383  3.1071
  508MOL0     H68550   4.637   3.024   5.348 -1.4875  0.9714  1.8712
  508MOL0     H68551   4.642   3.135   5.203  0.7442 -1.1684 -0.2620
  508MOL0     H68552   4.383   3.043   5.327 -4.4514 -1.7939 -2.3765
  508MOL0     H68553   4.419   3.137   5.179  1.0864  0.0736 -0.7000
  508MOL0     H68554   4.465   2.831   5.242  0.3290  2.4655  2.5336
  508MOL0     H68555   4.537   2.905   5.099  0.6859 -0.3833  1.6264
  508MOL0     H68556   4.235   2.909   5.152 -1.0176  1.2563 -0.9582
  508MOL0     H68557   4.309   2.980   5.020  2.2518  0.7090  0.6584
  508MOL0     H68558   4.335   2.689   5.068  0.0175  0.6800 -2.0191
  508MOL0     H68559   4.345   2.768   4.910 -3.1547 -0.3172 -1.6129
  508MOL0     H68560   4.087   2.741   5.072  1.1704 -1.7897  0.5521
  508MOL0     H68561   4.136   2.663   4.931 -0.2886 -0.2505  0.4220
  508MOL0     H68562   4.605   3.565   5.694 -0.1520 -0.0158  0.4991
  508MOL0     H68563   4.737   3.660   5.855 -0.9848 -0.7362  0.0033
  508MOL0     H68564   5.256   3.704   5.882 -1.0673 -0.2595  1.4176
  508MOL0     H68565   5.451   3.856   5.933  1.3085 -1.2890  1.9139
  508MOL0     H68566   6.966   3.507   6.478  0.3335 -1.9834  0.4392
  508MOL0     H68567   7.134   3.352   6.549  2.5771  0.4990  0.2772
  508MOL0     H68568   7.268   3.062   7.050  0.4227 -1.4362 -0.3236
  508MOL0     H68569   7.481   2.947   7.138 -0.7795 -0.4748 -0.2378
  508MOL0     H68570   7.812   2.971   6.873  0.6661  0.7841 -0.3439
  508MOL0     H68571   7.887   3.068   6.994  0.9765 -0.5952 -1.8256
  508MOL0     H68572   7.859   2.824   7.147 -4.7509  1.4759 -1.0469
  508MOL0     H68573   8.014   2.857   7.065  0.1638 -1.5332  1.0226
  508MOL0     H68574   7.878   2.754   6.852 -1.3820  3.5853 -0.1256
  508MOL0     H68575   7.784   2.680   6.973 -0.0469  1.6333 -0.2683
  508MOL0     H68576   7.948   2.560   7.071 -2.8936  3.7037  2.0466
  508MOL0     H68577   8.076   2.663   7.009  0.8309  1.1558 -0.2630
  508MOL0     H68578   7.987   2.388   6.676  0.7811  0.0893 -0.2953
  508MOL0     H68579   7.715   3.176   6.866  0.7999 -2.0218 -2.5806
  508MOL0     H68580   7.528   3.316   6.807  0.5324  0.6371  1.7744
  509MOL0     O68581   3.158   7.188  10.875 -0.1927 -0.5240  0.5497
  509MOL0     C68582   3.121   7.309  10.879  0.7057  0.2157  0.0937
  509MOL0     O68583   3.005   7.364  10.825  0.0101  0.0968  0.8482
  509MOL0     C68584   2.916   7.275  10.778  0.6803  0.9695 -0.8640
  509MOL0     C68585   2.900   7.246  10.650 -0.0307 -0.1551 -0.2914
  509MOL0     C68586   2.807   7.155  10.606 -0.1954 -0.1897  0.3265
  509MOL0     C68587   2.718   7.100  10.701  0.6563  0.0001  0.6282
  509MOL0     O68588   2.617   7.016  10.673 -0.7137 -0.3151 -0.6245
  509MOL0     C68589   2.608   6.948  10.543  0.0652  0.8034  0.3719
  509MOL0     C68590   2.477   6.884  10.531  1.0749 -0.9085  0.2553
  509MOL0     C68591   2.368   6.985  10.552  0.9760 -0.3989 -0.4548
  509MOL0     C68592   2.233   6.921  10.556  0.3846 -1.5449  0.0854
  509MOL0     C68593   2.121   7.022  10.517 -0.4737 -0.3644  0.0415
  509MOL0     C68594   1.989   6.940  10.496  0.1170 -0.0288 -0.1219
  509MOL0     C68595   1.878   7.035  10.441 -0.1510  0.0083  0.2583
  509MOL0     C68596   1.767   6.947  10.369 -0.4343 -0.0312  0.2316
  509MOL0     N68597   1.666   6.897  10.463  0.3304 -0.9035 -0.1089
  509MOL0     C68598   1.543   6.961  10.473 -0.0631 -0.6968 -0.5837
  509MOL0     C68599   1.483   6.893  10.573  0.8484  0.6633  0.5884
  509MOL0     C68600   1.335   6.907  10.605  0.5902 -0.0165 -0.6725
  509MOL0     C68601   1.287   6.801  10.708 -0.0449 -0.1885  0.0147
  509MOL0     C68602   1.294   6.664  10.646  0.0182  0.5359 -0.5126
  509MOL0     C68603   1.155   6.621  10.600 -0.7003  0.6782  0.6458
  509MOL0     O68604   1.169   6.479  10.562  0.4598 -0.0465  0.6317
  509MOL0     C68605   1.043   6.422  10.525  0.1780  0.0334 -0.1812
  509MOL0     C68606   0.921   6.488  10.538  0.3816  0.0297  0.2744
  509MOL0     C68607   0.804   6.416  10.508 -0.6472 -0.6441 -1.2646
  509MOL0     C68608   0.683   6.488  10.568  0.5107  0.2706  0.3100
  509MOL0     C68609   0.810   6.288  10.458 -0.7821 -0.6108  0.3232
  509MOL0     C68610   0.689   6.202  10.432  0.4627 -0.0585  0.4094
  509MOL0     O68611   0.720   6.094  10.355 -0.2124  0.0723 -0.2553
  509MOL0     C68612   0.627   6.001  10.340 -0.0482  0.2020 -0.8022
  509MOL0     C68613   0.634   5.893  10.426  0.5506  0.4242  0.1860
  509MOL0     C68614   0.545   5.789  10.419  0.1244 -0.2022  0.2700
  509MOL0     C68615   0.440   5.792  10.323 -0.2554  1.1081  0.3156
  509MOL0     O68616   0.348   5.685  10.314  0.2893 -0.1221  0.2458
  509MOL0     C68617   0.259   5.680  10.200 -0.1319  0.3104  0.4777
  509MOL0     C68618   0.163   5.568  10.219 -0.4481 -0.6480  1.0140
  509MOL0     C68619   0.162   5.456  10.114  0.0724 -0.0377 -0.7255
  509MOL0     C68620   0.283   5.377  10.132 -0.9182 -0.3457 -0.6652
  509MOL0     C68621   0.264   5.253  10.053 -0.4051  0.9191 -0.0246
  509MOL0     C68622   0.400   5.185  10.026  0.3830  0.2654  0.0549
  509MOL0     C68623   0.378   5.039   9.979  0.3624  0.1562  0.1246
  509MOL0     C68624   0.491   4.944  10.015  0.9801 -0.3962 -0.0850
  509MOL0    Cl68625   0.491   4.910  10.191  0.4476 -0.0200 -0.1532
  509MOL0     C68626   0.426   5.913  10.248 -0.0696 -0.7172  0.0970
  509MOL0     C68627   0.519   6.010  10.255 -0.5899 -0.3631 -0.2308
  509MOL0     O68628   0.576   6.230  10.484 -0.0058  0.5028  0.3917
  509MOL0     C68629   0.936   6.230  10.438 -0.0913  0.5538  1.0129
  509MOL0     C68630   1.048   6.301  10.473 -1.2451  1.0747 -0.1527
  509MOL0     N68631   1.562   6.796  10.626  0.7747 -0.3759 -0.1881
  509MOL0     N68632   1.673   6.811  10.564 -0.3820  0.5648  0.1974
  509MOL0     C68633   2.716   7.140  10.829 -0.1275  0.3038  0.0967
  509MOL0     C68634   2.817   7.229  10.874 -0.9862  0.5327  0.9798
  509MOL0     C68635   3.225   7.403  10.932  0.5503 -0.1037 -0.2510
  509MOL0     C68636   3.328   7.350  11.014 -0.7198 -0.0063  0.5430
  509MOL0     C68637   3.447   7.423  11.051 -0.0137 -0.1960  0.0239
  509MOL0     C68638   3.443   7.560  11.011  0.9126  0.2657  0.2714
  509MOL0     O68639   3.540   7.651  11.033 -0.9065 -0.4280  0.5541
  509MOL0     C68640   3.667   7.619  10.970 -0.0017  0.8738 -1.4195
  509MOL0     C68641   3.667   7.611  10.818 -0.2097 -0.1278 -0.7960
  509MOL0     C68642   3.639   7.748  10.748 -0.8099 -0.9155  1.3060
  509MOL0     C68643   3.567   7.741  10.602 -0.3565  0.0957  0.5330
  509MOL0     C68644   3.528   7.879  10.560 -0.4984 -0.0003 -1.0897
  509MOL0     C68645   3.514   7.987  10.507  0.1906  0.0404 -0.1325
  509MOL0     C68646   3.335   7.613  10.935 -0.0940 -0.7440 -0.0576
  509MOL0     C68647   3.233   7.536  10.884  0.7228  0.0736  0.0949
  509MOL0     H68648   2.975   7.271  10.576 -1.2749 -0.2100 -1.6022
  509MOL0     H68649   2.800   7.134  10.500 -0.3331  0.0347  0.2891
  509MOL0     H68650   2.606   7.020  10.460  1.3211  1.1997  0.6614
  509MOL0     H68651   2.674   6.862  10.527 -1.5794 -0.1392 -1.8962
  509MOL0     H68652   2.457   6.834  10.435  0.5414 -0.3890  0.0937
  509MOL0     H68653   2.465   6.809  10.610 -2.2424  0.2270  0.9622
  509MOL0     H68654   2.380   7.048  10.640 -0.5325  0.1172 -0.6077
  509MOL0     H68655   2.377   7.057  10.470 -3.1818 -2.2822 -2.8895
  509MOL0     H68656   2.220   6.829  10.497 -1.7140 -1.1416 -0.1621
  509MOL0     H68657   2.218   6.902  10.663  0.3017  2.3850  0.9247
  509MOL0     H68658   2.121   7.097  10.596 -2.3659  1.2377 -1.3743
  509MOL0     H68659   2.151   7.081  10.430 -1.2682  2.0677  1.3232
  509MOL0     H68660   2.008   6.865  10.418  1.4977 -1.4049  1.4579
  509MOL0     H68661   1.970   6.889  10.590 -4.1499  3.1162  1.0143
  509MOL0     H68662   1.830   7.086  10.525 -1.8898  0.7175 -1.1046
  509MOL0     H68663   1.912   7.103  10.362 -1.5467 -4.0172 -4.3038
  509MOL0     H68664   1.814   6.869  10.308 -0.7551  0.5727 -0.8269
  509MOL0     H68665   1.713   7.007  10.295 -0.7884 -1.6106 -0.8725
  509MOL0     H68666   1.497   7.037  10.411 -0.0210  0.7576  1.0871
  509MOL0     H68667   1.321   7.011  10.637 -3.0673 -0.3424 -0.7171
  509MOL0     H68668   1.271   6.894  10.517  2.8582 -0.4074 -2.3511
  509MOL0     H68669   1.185   6.812  10.745  0.5980 -0.7834  2.0683
  509MOL0     H68670   1.358   6.802  10.792 -0.0588 -1.4903  0.0531
  509MOL0     H68671   1.320   6.585  10.717 -1.4645  1.6800  1.4081
  509MOL0     H68672   1.360   6.669  10.559  0.5941  1.3827 -0.0352
  509MOL0     H68673   1.111   6.681  10.520  2.0546  1.9412 -0.0489
  509MOL0     H68674   1.088   6.621  10.687 -0.3128 -1.7133  1.0347
  509MOL0     H68675   0.902   6.583  10.586  1.1153  0.4228 -0.2049
  509MOL0     H68676   0.606   6.518  10.496  0.0947 -3.3550 -0.9741
  509MOL0     H68677   0.614   6.423  10.623 -0.7272 -0.8027 -2.3376
  509MOL0     H68678   0.721   6.568  10.631  2.3504  0.3774 -0.8548
  509MOL0     H68679   0.715   5.869  10.493  0.1385 -3.6138 -0.5460
  509MOL0     H68680   0.553   5.703  10.485 -1.5187 -0.9889 -0.5020
  509MOL0     H68681   0.200   5.771  10.217  3.0404  2.2547  2.1171
  509MOL0     H68682   0.301   5.684  10.099 -2.0626 -1.2877 -0.4427
  509MOL0     H68683   0.180   5.516  10.314  0.1380  0.0694  1.3072
  509MOL0     H68684   0.067   5.620  10.212  0.3238  0.6249 -0.5276
  509MOL0     H68685   0.176   5.500  10.015  1.0091 -0.3166 -0.7338
  509MOL0     H68686   0.073   5.392  10.118 -3.0984  4.0007 -0.5487
  509MOL0     H68687   0.371   5.429  10.091  1.5014 -4.4684 -1.3270
  509MOL0     H68688   0.292   5.362  10.240 -2.1578  1.3488 -0.2862
  509MOL0     H68689   0.210   5.275   9.961 -1.5002 -1.1822  0.0357
  509MOL0     H68690   0.198   5.181  10.102  0.4292 -0.3829 -0.7452
  509MOL0     H68691   0.467   5.237   9.957  0.4859  3.0798  2.0732
  509MOL0     H68692   0.446   5.187  10.126 -1.2009  3.2081  0.8724
  509MOL0     H68693   0.372   5.046   9.870  0.9923  1.3625  0.1570
  509MOL0     H68694   0.284   5.003  10.024 -0.2757  1.2080 -0.3287
  509MOL0     H68695   0.588   4.985   9.986  0.0591  1.8648 -0.2150
  509MOL0     H68696   0.477   4.849   9.965 -0.4925 -0.8530  1.1130
  509MOL0     H68697   0.343   5.931  10.181  2.0549 -2.1047 -3.1528
  509MOL0     H68698   0.519   6.097  10.190  0.4628  1.0176  1.5270
  509MOL0     H68699   0.948   6.135  10.388  1.4128  1.8831 -1.3775
  509MOL0     H68700   1.145   6.252  10.471 -2.9335 -2.6793 -3.7135
  509MOL0     H68701   2.652   7.092  10.902 -0.4889 -0.6466 -0.8055
  509MOL0     H68702   2.832   7.264  10.976  2.6309  2.2178  0.0065
  509MOL0     H68703   3.306   7.249  11.047 -3.4749 -0.5248 -2.3311
  509MOL0     H68704   3.529   7.382  11.107  1.7596  2.5903 -0.3326
  509MOL0     H68705   3.745   7.689  11.000  0.4035 -0.3067  0.4723
  509MOL0     H68706   3.699   7.522  11.008  0.0104  1.8682  1.2858
  509MOL0     H68707   3.585   7.547  10.784 -0.9090 -0.6798  1.7469
  509MOL0     H68708   3.763   7.569  10.788  0.3300 -0.3499  1.1062
  509MOL0     H68709   3.730   7.806  10.731 -2.0218  1.4106  2.2924
  509MOL0     H68710   3.581   7.823  10.802  0.0686  0.6083  0.2085
  509MOL0     H68711   3.489   7.664  10.596  1.1886 -1.4740 -0.5297
  509MOL0     H68712   3.646   7.709  10.534 -0.9882 -0.0618 -0.1345
  509MOL0     H68713   3.483   8.083  10.471  0.2238  0.2130  0.3048
  509MOL0     H68714   3.346   7.713  10.896 -0.7787  0.3652  2.4270
  509MOL0     H68715   3.157   7.581  10.821  0.6839  1.8860  1.3965
  510MOL0     O68716   0.839   3.829   6.643  0.0230  0.4080 -0.8900
  510MOL0     C68717   0.854   3.727   6.578  0.0058  0.9351  0.1549
  510MOL0     O68718   0.762   3.667   6.504  1.3003  0.1251 -0.2553
  510MOL0     C68719   0.630   3.712   6.525 -0.7739 -0.1502  0.2985
  510MOL0     C68720   0.540   3.625   6.583  0.7433  0.4684  0.0219
  510MOL0     C68721   0.407   3.662   6.607 -0.8107  0.6749 -0.1083
  510MOL0     C68722   0.363   3.781   6.571  0.1837  0.6214  0.1628
  510MOL0     O68723   0.230   3.799   6.592 -0.2597 -0.8918 -0.6594
  510MOL0     C68724   0.171   3.927   6.551  0.6283  0.2917 -0.1544
  510MOL0     C68725   0.023   3.935   6.579  0.6806  0.5259 -0.0602
  510MOL0     C68726  -0.049   3.982   6.452  0.3992  0.4911 -0.2526
  510MOL0     C68727  -0.201   4.000   6.456 -0.8775 -0.1533 -0.9803
  510MOL0     C68728  -0.267   4.058   6.334 -0.7341  0.8604  0.3477
  510MOL0     C68729  -0.417   4.070   6.347 -0.0094  0.3846  0.5614
  510MOL0     C68730  -0.485   4.125   6.217 -0.2903 -0.2040 -0.9054
  510MOL0     C68731  -0.529   4.027   6.125  0.0584  0.1631 -0.4381
  510MOL0     N68732  -0.620   4.086   6.024  0.9741 -0.5552 -0.1468
  510MOL0     C68733  -0.762   4.075   6.026 -0.1618 -0.1793  0.6463
  510MOL0     C68734  -0.797   4.162   5.925  0.1771 -0.0464 -0.1897
  510MOL0     C68735  -0.939   4.191   5.879  0.1989  0.3422 -0.3539
  510MOL0     C68736  -1.034   4.268   5.975 -0.6872 -0.2093 -0.3120
  510MOL0     C68737  -0.980   4.416   6.002 -0.4605 -0.8007  0.7519
  510MOL0     C68738  -1.083   4.503   6.081 -0.2392 -0.4626  1.2905
  510MOL0     O68739  -1.035   4.641   6.085 -0.1902  0.0961  0.2611
  510MOL0     C68740  -1.116   4.740   6.130 -0.4906 -0.2585 -0.1014
  510MOL0     C68741  -1.070   4.867   6.126  0.5352 -0.0086  0.5501
  510MOL0     C68742  -1.151   4.972   6.164 -0.1031  0.3118 -0.3829
  510MOL0     C68743  -1.097   5.112   6.133 -0.4326  0.3316  1.2542
  510MOL0     C68744  -1.281   4.946   6.204 -0.2514  0.1968  0.8511
  510MOL0     C68745  -1.383   5.046   6.223 -0.1901  0.1799 -0.1209
  510MOL0     O68746  -1.497   5.015   6.174  0.2425 -0.5544 -0.5089
  510MOL0     C68747  -1.610   5.100   6.185  0.1885  1.0371  0.7535
  510MOL0     C68748  -1.608   5.238   6.165 -0.1753  0.2205  0.5425
  510MOL0     C68749  -1.723   5.308   6.124  0.1792  0.8068 -0.2529
  510MOL0     C68750  -1.842   5.232   6.108  0.6313 -0.9356 -0.0009
  510MOL0     O68751  -1.945   5.317   6.078 -0.1754  0.1185  1.0053
  510MOL0     C68752  -2.073   5.254   6.079  0.0197 -0.1703 -0.1802
  510MOL0     C68753  -2.200   5.342   6.045  0.3371  0.4605  0.2252
  510MOL0     C68754  -2.322   5.273   6.099  0.7677  0.5283  0.8743
  510MOL0     C68755  -2.450   5.350   6.073 -0.5549 -0.1915  0.1363
  510MOL0     C68756  -2.575   5.267   6.113  0.3516 -0.3879 -0.1070
  510MOL0     C68757  -2.704   5.341   6.078  0.1858  0.3138 -0.0080
  510MOL0     C68758  -2.830   5.296   6.159 -0.4222  0.0648 -0.8315
  510MOL0     C68759  -2.965   5.329   6.086 -0.3427 -0.1263 -1.1579
  510MOL0    Cl68760  -3.002   5.503   6.075  0.3022 -0.2386  0.2746
  510MOL0     C68761  -1.851   5.095   6.141 -0.3054 -0.4503 -0.0082
  510MOL0     C68762  -1.736   5.034   6.181 -0.4747 -0.8352  0.2007
  510MOL0     O68763  -1.353   5.136   6.301  0.2348 -0.3126 -0.8069
  510MOL0     C68764  -1.323   4.815   6.207 -0.0168  0.3571  0.6427
  510MOL0     C68765  -1.237   4.710   6.179  0.3500  0.0794 -0.5506
  510MOL0     N68766  -0.694   4.228   5.874 -0.6298  0.2579 -0.1080
  510MOL0     N68767  -0.584   4.185   5.928  0.2917  0.0636 -0.1940
  510MOL0     C68768   0.448   3.872   6.514  0.1015  0.3732  0.2696
  510MOL0     C68769   0.577   3.838   6.484  0.2784 -0.6504  0.9201
  510MOL0     C68770   0.993   3.676   6.570 -0.8386 -0.6448 -0.2102
  510MOL0     C68771   1.109   3.713   6.642 -0.3123 -0.5358 -0.2727
  510MOL0     C68772   1.233   3.661   6.622 -0.9456 -0.8017  0.1011
  510MOL0     C68773   1.255   3.558   6.525  0.0805 -0.1968 -0.2896
  510MOL0     O68774   1.379   3.506   6.515  0.1348  0.2196  0.3890
  510MOL0     C68775   1.464   3.566   6.415  0.3594  0.2306  0.4991
  510MOL0     C68776   1.606   3.511   6.444  0.0510  0.9421 -0.1073
  510MOL0     C68777   1.712   3.571   6.352  0.9162 -0.1535  0.2677
  510MOL0     C68778   1.852   3.514   6.377 -0.6031  0.2599 -0.1763
  510MOL0     C68779   1.957   3.564   6.288  0.1139  0.0693 -0.8462
  510MOL0     C68780   2.031   3.603   6.197  1.0576  0.5890 -0.3765
  510MOL0     C68781   1.138   3.517   6.457 -0.3864  0.0277  0.0621
  510MOL0     C68782   1.017   3.577   6.479  0.0448 -0.4542 -0.2566
  510MOL0     H68783   0.566   3.521   6.600  0.5776  0.7715  2.4240
  510MOL0     H68784   0.332   3.593   6.643  1.0612 -0.7026  1.3580
  510MOL0     H68785   0.208   4.017   6.601 -1.7549  0.0391  2.3309
  510MOL0     H68786   0.200   3.935   6.446  3.1521  1.4904  0.5622
  510MOL0     H68787  -0.030   3.842   6.602 -1.1150  1.2457 -1.0476
  510MOL0     H68788   0.010   3.997   6.669  1.1242  1.2076 -0.4586
  510MOL0     H68789  -0.014   4.082   6.422 -3.8683  3.0817  2.4006
  510MOL0     H68790  -0.040   3.920   6.362 -0.8256  1.1000 -0.8329
  510MOL0     H68791  -0.248   3.905   6.483  1.1962 -0.3665  2.4062
  510MOL0     H68792  -0.227   4.068   6.537  0.5068  0.8154 -1.3123
  510MOL0     H68793  -0.229   4.159   6.321 -1.6102  1.2498  0.7459
  510MOL0     H68794  -0.240   3.990   6.253 -0.2826 -0.5996  1.6620
  510MOL0     H68795  -0.456   3.983   6.400  1.2994 -0.2972  0.4655
  510MOL0     H68796  -0.437   4.139   6.430 -1.7400  0.4982  0.0827
  510MOL0     H68797  -0.573   4.180   6.253 -0.1677  0.6829 -1.9149
  510MOL0     H68798  -0.418   4.194   6.165  0.1323 -0.1521 -0.3013
  510MOL0     H68799  -0.580   3.947   6.178  1.8019  0.1383  1.2935
  510MOL0     H68800  -0.442   3.986   6.073 -1.4312 -3.1263 -0.5522
  510MOL0     H68801  -0.832   4.021   6.089 -0.7693  0.1395  0.2407
  510MOL0     H68802  -0.933   4.250   5.787 -0.2191 -0.8629 -1.1837
  510MOL0     H68803  -0.978   4.092   5.853  1.0985 -0.0448 -0.2672
  510MOL0     H68804  -1.063   4.212   6.064 -1.9713  1.6131  0.4840
  510MOL0     H68805  -1.128   4.263   5.920 -1.0135  1.4254  0.0440
  510MOL0     H68806  -0.961   4.483   5.917 -5.2827 -0.4771 -0.3772
  510MOL0     H68807  -0.880   4.406   6.045 -0.9676 -3.1919  1.4767
  510MOL0     H68808  -1.109   4.457   6.177 -2.6064 -1.4842  0.2278
  510MOL0     H68809  -1.173   4.502   6.019  0.4143  1.3176  0.2130
  510MOL0     H68810  -0.973   4.897   6.089  0.9821  1.9912  3.0165
  510MOL0     H68811  -1.002   5.129   6.185  0.0594  0.6259  0.2826
  510MOL0     H68812  -1.065   5.115   6.029 -0.5759  0.4758  1.2145
  510MOL0     H68813  -1.172   5.192   6.134  1.0894  1.8658 -0.5187
  510MOL0     H68814  -1.519   5.299   6.168  0.1478 -0.1199 -1.0951
  510MOL0     H68815  -1.713   5.415   6.111  0.9190  0.7425 -0.2382
  510MOL0     H68816  -2.086   5.174   6.006 -0.4706 -0.0933 -0.1794
  510MOL0     H68817  -2.085   5.211   6.180  1.8571  0.9313  0.5618
  510MOL0     H68818  -2.194   5.448   6.071  0.8717  2.0030 -4.9873
  510MOL0     H68819  -2.210   5.359   5.937  1.8689  2.7604  0.3833
  510MOL0     H68820  -2.304   5.262   6.206 -1.5974 -1.0022  1.1943
  510MOL0     H68821  -2.336   5.172   6.059  1.8482  0.7201 -0.0289
  510MOL0     H68822  -2.454   5.447   6.124 -2.6513 -0.9165  1.4642
  510MOL0     H68823  -2.452   5.385   5.969  0.0052  2.1320  0.8484
  510MOL0     H68824  -2.588   5.248   6.220 -0.1906  2.2043  0.3718
  510MOL0     H68825  -2.581   5.175   6.055 -0.3130  0.5062 -1.5248
  510MOL0     H68826  -2.682   5.448   6.090 -1.2359  0.5702  0.4581
  510MOL0     H68827  -2.728   5.318   5.974  1.0931  0.3483 -0.2380
  510MOL0     H68828  -2.838   5.350   6.254 -2.6335  2.2270 -2.1319
  510MOL0     H68829  -2.817   5.188   6.170  2.5533  0.5673  2.7794
  510MOL0     H68830  -3.041   5.268   6.136 -1.0934  2.2368  0.7553
  510MOL0     H68831  -2.965   5.289   5.984 -1.3782  0.4999 -1.4176
  510MOL0     H68832  -1.933   5.024   6.138  1.1982 -2.2722 -1.3182
  510MOL0     H68833  -1.734   4.926   6.187 -0.1454 -0.7991  0.8354
  510MOL0     H68834  -1.421   4.791   6.248 -2.0690  3.6038 -1.8459
  510MOL0     H68835  -1.271   4.609   6.198  5.1029 -1.5671  0.5195
  510MOL0     H68836   0.410   3.969   6.483 -1.4042 -0.3346 -0.2285
  510MOL0     H68837   0.648   3.897   6.426 -0.2907 -0.1264  0.7425
  510MOL0     H68838   1.096   3.781   6.726 -1.8864 -0.5836 -0.4456
  510MOL0     H68839   1.323   3.689   6.676  0.9333 -1.8330 -2.3291
  510MOL0     H68840   1.432   3.550   6.311 -0.4765  0.3492  0.7351
  510MOL0     H68841   1.456   3.669   6.451 -0.0895 -0.8492  3.7952
  510MOL0     H68842   1.612   3.403   6.426  2.9339  1.2870 -1.9764
  510MOL0     H68843   1.639   3.536   6.545  0.0238  2.0484 -0.3603
  510MOL0     H68844   1.710   3.677   6.375 -0.1003 -0.4324  1.5900
  510MOL0     H68845   1.680   3.561   6.248 -1.0270 -0.3850  0.8486
  510MOL0     H68846   1.864   3.405   6.381 -0.2076  0.2802 -0.6378
  510MOL0     H68847   1.882   3.550   6.475 -0.2426  0.5454 -0.3869
  510MOL0     H68848   2.078   3.638   6.107 -2.9080  1.3876 -2.3651
  510MOL0     H68849   1.141   3.429   6.394 -0.2410 -0.2461  0.4536
  510MOL0     H68850   0.928   3.536   6.433 -0.4510 -0.1474  0.4270
  511MOL0     O68851   9.430  11.319   5.194 -0.3509 -0.2041  0.2794
  511MOL0     C68852   9.424  11.206   5.161  0.5189  0.7296 -0.3099
  511MOL0     O68853   9.310  11.129   5.138 -0.9431  0.5500 -0.1891
  511MOL0     C68854   9.184  11.187   5.154 -0.3409 -0.2059  0.4731
  511MOL0     C68855   9.086  11.165   5.062 -0.6185  0.3106 -0.0717
  511MOL0     C68856   8.948  11.209   5.091 -0.9827  0.9871 -0.7468
  511MOL0     C68857   8.921  11.282   5.204  0.3877 -0.5310  0.6720
  511MOL0     O68858   8.797  11.345   5.206  0.4575  0.4145 -0.3418
  511MOL0     C68859   8.748  11.394   5.329 -0.7121 -0.0410 -0.0774
  511MOL0     C68860   8.731  11.273   5.431 -0.4578 -0.3467  0.1631
  511MOL0     C68861   8.601  11.197   5.396  0.1208  1.0201 -0.3868
  511MOL0     C68862   8.481  11.270   5.460 -0.2657 -0.6873 -0.3950
  511MOL0     C68863   8.354  11.207   5.395 -0.4683 -0.8439 -0.0707
  511MOL0     C68864   8.228  11.235   5.470  0.7359 -0.1135 -0.4647
  511MOL0     C68865   8.108  11.170   5.408  0.1398 -0.1715 -0.1229
  511MOL0     C68866   7.978  11.164   5.497 -0.1606 -0.2077  0.6649
  511MOL0     N68867   7.871  11.092   5.423  0.5694 -0.0035  0.0599
  511MOL0     C68868   7.749  11.156   5.392 -0.2237  0.0851 -0.3236
  511MOL0     C68869   7.664  11.056   5.347  0.0954 -0.2151  0.3687
  511MOL0     C68870   7.532  11.053   5.280  0.3774 -0.6153 -0.0728
  511MOL0     C68871   7.447  11.165   5.340  0.5463 -0.0901  0.2428
  511MOL0     C68872   7.302  11.156   5.292  0.9253 -0.5994 -0.3408
  511MOL0     C68873   7.210  11.255   5.365  0.8938  0.0202 -1.0591
  511MOL0     O68874   7.084  11.192   5.386 -0.1082  0.0572 -0.4004
  511MOL0     C68875   6.988  11.241   5.468  0.8372  0.9026 -0.2150
  511MOL0     C68876   6.924  11.152   5.542  0.0404 -0.1605 -0.5916
  511MOL0     C68877   6.812  11.181   5.629 -0.6501  0.9984 -0.1386
  511MOL0     C68878   6.739  11.065   5.690  0.1294 -0.4154 -0.1094
  511MOL0     C68879   6.778  11.321   5.651 -0.6533  0.4191  0.2740
  511MOL0     C68880   6.656  11.368   5.717 -0.7112 -0.6282  0.2676
  511MOL0     O68881   6.620  11.325   5.840  0.0560 -0.2492 -0.8407
  511MOL0     C68882   6.520  11.409   5.892 -0.1506  0.2073  0.5935
  511MOL0     C68883   6.393  11.358   5.879 -0.4210 -0.5100 -0.3625
  511MOL0     C68884   6.283  11.425   5.935  0.5051 -1.6747 -0.2057
  511MOL0     C68885   6.294  11.542   6.007 -0.1016 -0.7890 -0.6774
  511MOL0     O68886   6.188  11.615   6.059 -0.9302 -0.5612  0.0610
  511MOL0     C68887   6.080  11.632   5.973  0.3785  0.2851  0.7205
  511MOL0     C68888   6.019  11.762   6.017  0.0495 -0.2779  0.5045
  511MOL0     C68889   5.867  11.779   5.989 -0.2811  0.4366 -0.1974
  511MOL0     C68890   5.815  11.917   6.033 -0.7559  0.1743  0.0916
  511MOL0     C68891   5.666  11.934   5.993 -0.8092 -0.2962 -0.2970
  511MOL0     C68892   5.598  12.032   6.085 -0.5113 -0.1956  0.4171
  511MOL0     C68893   5.449  12.015   6.051  0.3705  0.1597 -0.0718
  511MOL0     C68894   5.357  12.104   6.131 -0.3091 -0.3613 -0.2924
  511MOL0    Cl68895   5.194  12.086   6.085 -0.3955  0.1306 -0.3798
  511MOL0     C68896   6.424  11.592   6.029  0.2748  0.1448 -0.7204
  511MOL0     C68897   6.535  11.519   5.968 -0.2844  0.0955 -0.5824
  511MOL0     O68898   6.608  11.467   5.658  0.5926 -0.7641  0.5002
  511MOL0     C68899   6.864  11.412   5.582  0.9110  1.3287 -0.2280
  511MOL0     C68900   6.957  11.373   5.490 -0.1673 -0.8430  0.0233
  511MOL0     N68901   7.733  10.937   5.353  0.3624  0.6457 -0.2196
  511MOL0     N68902   7.855  10.956   5.402 -0.1260 -0.8021  0.9446
  511MOL0     C68903   9.028  11.309   5.289  0.4277 -0.3126 -0.1510
  511MOL0     C68904   9.152  11.263   5.266  0.3322  0.0532  0.4772
  511MOL0     C68905   9.557  11.136   5.145 -0.9103  1.0379 -0.1822
  511MOL0     C68906   9.688  11.190   5.177  0.4174  0.1894  0.1918
  511MOL0     C68907   9.806  11.117   5.171 -0.2001  0.2118  0.2622
  511MOL0     C68908   9.806  10.985   5.130 -0.3893  0.2898  0.1403
  511MOL0     O68909   9.925  10.920   5.122 -0.0345  0.3766  0.1041
  511MOL0     C68910   9.950  10.848   5.240 -0.3073 -0.4406 -0.5605
  511MOL0     C68911  10.095  10.798   5.243  0.7452 -0.5934 -0.4329
  511MOL0     C68912  10.200  10.904   5.269 -0.2836  0.2525 -0.1441
  511MOL0     C68913  10.344  10.838   5.289  0.3606  0.0544 -0.1990
  511MOL0     C68914  10.373  10.775   5.157 -0.0109  0.1342  0.3830
  511MOL0     C68915  10.402  10.734   5.044  0.5887 -0.3053  0.5180
  511MOL0     C68916   9.685  10.924   5.092  0.0747 -0.0150  0.6061
  511MOL0     C68917   9.564  10.996   5.098 -0.2091  0.4608 -0.8095
  511MOL0     H68918   9.105  11.115   4.968  0.9239  1.2173 -0.2668
  511MOL0     H68919   8.877  11.182   5.013 -0.2100  1.6576 -1.7088
  511MOL0     H68920   8.816  11.465   5.377  0.4998 -0.4293 -1.1770
  511MOL0     H68921   8.656  11.449   5.310 -1.5044 -0.2552  2.6778
  511MOL0     H68922   8.813  11.202   5.415 -1.7929 -1.3478 -3.1641
  511MOL0     H68923   8.714  11.309   5.532 -3.2788  2.0255 -1.0194
  511MOL0     H68924   8.588  11.176   5.289 -2.4872  0.0586  0.0532
  511MOL0     H68925   8.599  11.098   5.441 -0.8682  0.6273 -1.2494
  511MOL0     H68926   8.499  11.277   5.568  2.9866  1.8141 -0.9150
  511MOL0     H68927   8.477  11.376   5.433 -0.6081 -0.5762  0.0767
  511MOL0     H68928   8.344  11.232   5.289 -0.6242  2.2292  0.5636
  511MOL0     H68929   8.376  11.102   5.412 -0.0443 -0.5987  0.9697
  511MOL0     H68930   8.235  11.193   5.571 -1.3678 -2.2626 -1.1214
  511MOL0     H68931   8.208  11.342   5.478  0.2176 -0.2720  0.5424
  511MOL0     H68932   8.069  11.219   5.318 -2.7198 -3.6539 -1.0355
  511MOL0     H68933   8.125  11.066   5.380 -1.3329 -0.5603  0.3086
  511MOL0     H68934   7.940  11.257   5.541 -1.8487 -1.0737  1.1532
  511MOL0     H68935   7.998  11.096   5.580 -2.1623 -1.0600  0.5125
  511MOL0     H68936   7.726  11.262   5.391 -1.3278 -0.1296  0.7979
  511MOL0     H68937   7.538  11.071   5.173  1.9105 -1.0621 -0.0890
  511MOL0     H68938   7.489  10.953   5.293 -1.9102 -0.0659 -2.5159
  511MOL0     H68939   7.482  11.262   5.304 -1.5190 -0.0913 -2.0223
  511MOL0     H68940   7.456  11.169   5.449  0.1109  1.0823  0.2447
  511MOL0     H68941   7.261  11.059   5.320  0.6152 -0.0836  1.0997
  511MOL0     H68942   7.292  11.166   5.184 -1.3661 -1.1078 -0.2274
  511MOL0     H68943   7.199  11.345   5.303  0.8738 -1.3484 -3.1339
  511MOL0     H68944   7.257  11.295   5.455  1.8083  1.9886 -2.3439
  511MOL0     H68945   6.948  11.047   5.527  2.0915  0.6871 -4.5887
  511MOL0     H68946   6.811  10.984   5.710 -0.6055 -0.7948  1.1176
  511MOL0     H68947   6.695  11.102   5.783 -0.5647  1.9868 -1.3083
  511MOL0     H68948   6.661  11.021   5.628 -0.6183 -1.7628  1.6961
  511MOL0     H68949   6.376  11.267   5.822 -0.1639  0.0247 -1.3262
  511MOL0     H68950   6.180  11.389   5.940 -0.1993  0.3142  3.0716
  511MOL0     H68951   6.110  11.645   5.868  0.6354  1.3400  0.9056
  511MOL0     H68952   6.012  11.547   5.973  1.8133 -0.9079  1.9462
  511MOL0     H68953   6.027  11.793   6.122 -0.7526  5.4684 -0.8146
  511MOL0     H68954   6.084  11.835   5.968  1.3782 -2.4594 -1.1231
  511MOL0     H68955   5.815  11.698   6.040 -0.6485  0.4485 -0.5503
  511MOL0     H68956   5.845  11.774   5.882 -0.5752  2.1423 -0.2471
  511MOL0     H68957   5.826  11.935   6.140 -2.1943 -1.2699  0.5156
  511MOL0     H68958   5.876  11.991   5.980 -0.2899  0.1133  0.5354
  511MOL0     H68959   5.622  11.836   6.011 -0.6834  0.0177  2.0492
  511MOL0     H68960   5.644  11.961   5.889 -0.3468  0.8707 -0.1087
  511MOL0     H68961   5.616  11.997   6.187  3.2887  0.0186 -0.0505
  511MOL0     H68962   5.630  12.136   6.076  1.6498 -0.6838  1.8231
  511MOL0     H68963   5.417  11.912   6.065 -0.7486  0.4502 -0.3559
  511MOL0     H68964   5.441  12.028   5.942  1.9614 -1.9764 -0.4940
  511MOL0     H68965   5.388  12.209   6.134  0.9545 -0.7278  0.8225
  511MOL0     H68966   5.365  12.069   6.234 -1.0481  2.4109  0.8021
  511MOL0     H68967   6.449  11.679   6.088  1.0077 -0.9491  0.6466
  511MOL0     H68968   6.638  11.554   5.977 -0.8947  1.6419  0.8192
  511MOL0     H68969   6.835  11.516   5.591 -2.1393  0.7795 -2.1275
  511MOL0     H68970   6.996  11.450   5.425  3.5705 -0.7311  2.0751
  511MOL0     H68971   9.017  11.379   5.372 -0.3389 -3.4617  2.6092
  511MOL0     H68972   9.229  11.286   5.339 -0.6769  6.2995  0.1192
  511MOL0     H68973   9.678  11.296   5.198  1.7472  0.1300  1.2764
  511MOL0     H68974   9.902  11.166   5.184 -1.3720  4.7132 -4.8140
  511MOL0     H68975   9.932  10.911   5.328 -1.9473 -0.0478 -1.1381
  511MOL0     H68976   9.883  10.762   5.251 -1.4758  0.0745 -2.9129
  511MOL0     H68977  10.106  10.745   5.148  1.1108 -1.3572  0.0250
  511MOL0     H68978  10.098  10.726   5.325  1.0399 -0.7706 -0.5960
  511MOL0     H68979  10.182  10.969   5.355  1.1584  1.4442 -0.7040
  511MOL0     H68980  10.199  10.975   5.185  0.1301 -0.8916 -1.1545
  511MOL0     H68981  10.336  10.773   5.377  1.3677  1.7142  1.1725
  511MOL0     H68982  10.410  10.921   5.316 -0.7320  0.2431  2.1579
  511MOL0     H68983  10.426  10.681   4.954 -5.8358 -1.6021 -0.9306
  511MOL0     H68984   9.668  10.824   5.052  1.5262 -0.9357  2.1686
  511MOL0     H68985   9.481  10.937   5.062  1.1984 -0.0040 -3.4947
  512MOL0     O68986   1.495   4.020   5.014 -0.2823 -0.3951 -0.5814
  512MOL0     C68987   1.561   4.033   5.115 -0.1510 -0.1195  0.0308
  512MOL0     O68988   1.538   4.124   5.217  0.5030 -0.0434  0.0826
  512MOL0     C68989   1.440   4.213   5.207  0.6645  0.6740 -0.0045
  512MOL0     C68990   1.467   4.344   5.174  0.8578  0.1879  1.7076
  512MOL0     C68991   1.371   4.440   5.184  0.9925  0.1634 -0.1944
  512MOL0     C68992   1.244   4.408   5.237 -0.3106  0.3301  0.0878
  512MOL0     O68993   1.169   4.523   5.257  0.2947  0.8523 -0.3935
  512MOL0     C68994   1.031   4.499   5.295 -0.5252  0.0172 -0.4098
  512MOL0     C68995   1.029   4.476   5.451  0.6052  0.3853 -0.6059
  512MOL0     C68996   0.994   4.604   5.527  0.0963 -0.0544  0.4145
  512MOL0     C68997   0.844   4.626   5.519 -0.2610  0.7996 -0.2097
  512MOL0     C68998   0.797   4.747   5.607  0.2570 -0.3995 -0.0445
  512MOL0     C68999   0.645   4.782   5.592  0.2420  0.1180 -0.1345
  512MOL0     C69000   0.608   4.927   5.638  0.4663 -0.7212  0.3593
  512MOL0     C69001   0.455   4.957   5.628  0.9420 -0.4982 -0.4520
  512MOL0     N69002   0.421   5.096   5.665 -0.5166 -1.0925 -0.1917
  512MOL0     C69003   0.313   5.138   5.736 -0.5969  0.5396 -0.3113
  512MOL0     C69004   0.325   5.273   5.745 -0.4567 -0.3669  0.1108
  512MOL0     C69005   0.211   5.363   5.797 -0.4127 -0.0454 -0.2731
  512MOL0     C69006   0.088   5.367   5.706 -0.4364  0.2273  0.7434
  512MOL0     C69007   0.131   5.419   5.567 -0.1262 -1.1791 -0.0554
  512MOL0     C69008   0.019   5.423   5.470 -1.3017  0.2571  0.6355
  512MOL0     O69009  -0.068   5.534   5.499  0.3395 -0.3252  0.1576
  512MOL0     C69010  -0.189   5.546   5.447  0.4041 -0.0136  0.2411
  512MOL0     C69011  -0.204   5.548   5.305  0.3498 -0.3875  0.0543
  512MOL0     C69012  -0.332   5.569   5.247 -0.4356  0.6203 -0.0951
  512MOL0     C69013  -0.337   5.582   5.098  0.0254  0.6193 -0.5809
  512MOL0     C69014  -0.448   5.564   5.330 -0.6817  1.6118 -0.2665
  512MOL0     C69015  -0.592   5.556   5.295 -0.4227 -0.2264  0.1269
  512MOL0     O69016  -0.696   5.568   5.390 -0.0108  0.6823 -0.3178
  512MOL0     C69017  -0.819   5.620   5.375  0.1598 -0.0435  0.2927
  512MOL0     C69018  -0.871   5.668   5.495  0.3588 -0.5272 -0.3470
  512MOL0     C69019  -1.004   5.729   5.502 -0.0777  0.7646 -0.5656
  512MOL0     C69020  -1.088   5.722   5.388 -0.4735  0.2434  0.8514
  512MOL0     O69021  -1.210   5.774   5.372 -0.7123  0.4816 -0.8988
  512MOL0     C69022  -1.270   5.828   5.495  0.1636 -0.2769 -0.1113
  512MOL0     C69023  -1.415   5.842   5.460 -0.2504  0.9239 -0.0757
  512MOL0     C69024  -1.467   5.703   5.434 -0.7256  0.2685 -0.1573
  512MOL0     C69025  -1.617   5.699   5.465 -0.1348  0.1647  0.0926
  512MOL0     C69026  -1.703   5.746   5.345 -0.1121 -0.3699 -0.3878
  512MOL0     C69027  -1.693   5.646   5.240  0.3108 -0.1132  0.0754
  512MOL0     C69028  -1.792   5.670   5.125 -0.0424  0.4435 -0.6322
  512MOL0     C69029  -1.747   5.583   5.005 -0.0646 -0.7903  0.4500
  512MOL0    Cl69030  -1.588   5.638   4.952  0.0872 -0.0867 -0.4519
  512MOL0     C69031  -1.034   5.667   5.273 -0.5186 -0.2933 -0.1066
  512MOL0     C69032  -0.899   5.620   5.256  0.4043 -0.0519 -0.4614
  512MOL0     O69033  -0.607   5.537   5.175 -0.0211  0.0354 -0.0891
  512MOL0     C69034  -0.431   5.574   5.474 -0.0036  0.8999  0.4566
  512MOL0     C69035  -0.307   5.570   5.528 -0.5950 -0.3608 -0.0289
  512MOL0     N69036   0.449   5.310   5.680  0.0583  0.1773 -0.4367
  512MOL0     N69037   0.500   5.202   5.630  0.3972  0.3244  1.3962
  512MOL0     C69038   1.215   4.274   5.259 -0.3779 -0.2767  0.2009
  512MOL0     C69039   1.311   4.173   5.243  0.2853  0.2130  0.6543
  512MOL0     C69040   1.684   3.959   5.124 -0.1621  0.7959  0.2087
  512MOL0     C69041   1.756   3.910   5.010  0.7234 -0.4292 -0.9243
  512MOL0     C69042   1.866   3.835   5.032  0.1230  0.9193 -0.1812
  512MOL0     C69043   1.931   3.828   5.159  0.3153 -0.2076  0.2736
  512MOL0     O69044   2.060   3.782   5.171 -0.2930 -0.6791 -0.5293
  512MOL0     C69045   2.123   3.717   5.057 -0.7818 -0.5151 -0.1027
  512MOL0     C69046   2.247   3.646   5.122  0.0891 -0.9022 -0.0839
  512MOL0     C69047   2.322   3.564   5.021  0.2914 -0.3409  0.5253
  512MOL0     C69048   2.432   3.479   5.079 -0.0889  1.0782  0.5219
  512MOL0     C69049   2.516   3.414   4.980  0.1083 -0.3038  0.2478
  512MOL0     C69050   2.582   3.354   4.905 -0.3378 -0.3443  0.8609
  512MOL0     C69051   1.860   3.876   5.271  0.6448  0.1943 -0.4702
  512MOL0     C69052   1.732   3.934   5.256  0.5869  1.1457  0.0021
  512MOL0     H69053   1.564   4.367   5.131 -0.0308  2.0332  0.5084
  512MOL0     H69054   1.391   4.542   5.153  1.6962  0.0822 -0.0294
  512MOL0     H69055   0.968   4.584   5.271  0.1647  0.0957 -2.0925
  512MOL0     H69056   0.987   4.412   5.244 -0.1542 -1.7377  2.0503
  512MOL0     H69057   0.971   4.390   5.486 -1.3111  1.5969 -0.6420
  512MOL0     H69058   1.133   4.454   5.475 -0.1824 -1.6288  1.3369
  512MOL0     H69059   1.024   4.593   5.632  0.3734 -0.4229  0.2970
  512MOL0     H69060   1.036   4.692   5.479  0.6907 -0.7906 -0.4461
  512MOL0     H69061   0.821   4.667   5.420 -1.7963 -1.4006 -0.8261
  512MOL0     H69062   0.792   4.538   5.558  0.3490  0.6654  0.3205
  512MOL0     H69063   0.821   4.711   5.707  2.8189 -3.2554 -1.4865
  512MOL0     H69064   0.852   4.837   5.579 -0.4693 -0.7533 -2.9633
  512MOL0     H69065   0.612   4.773   5.488 -0.5277 -0.1821  0.1241
  512MOL0     H69066   0.573   4.715   5.640 -2.1625  1.7353 -1.2745
  512MOL0     H69067   0.642   4.943   5.741  0.8110  0.0171  0.1339
  512MOL0     H69068   0.670   4.991   5.574  0.8743 -0.7328  0.7386
  512MOL0     H69069   0.398   4.884   5.687 -3.0234  2.6250  0.0313
  512MOL0     H69070   0.421   4.957   5.524 -1.1475 -1.2715  0.1684
  512MOL0     H69071   0.237   5.067   5.767 -1.7589  0.7723 -2.4450
  512MOL0     H69072   0.182   5.327   5.896 -0.0451 -1.4303 -0.6353
  512MOL0     H69073   0.259   5.461   5.801  3.7496 -1.8531 -0.9389
  512MOL0     H69074   0.016   5.435   5.752 -0.6043  2.1009 -2.0553
  512MOL0     H69075   0.045   5.267   5.700 -0.5633  0.3601 -2.8708
  512MOL0     H69076   0.221   5.376   5.523 -0.4277 -1.8850  0.0078
  512MOL0     H69077   0.148   5.527   5.579 -3.4225 -0.6359  0.6638
  512MOL0     H69078  -0.043   5.335   5.455 -0.5015 -0.0661 -1.0098
  512MOL0     H69079   0.061   5.439   5.370  2.7419 -2.9676  1.5851
  512MOL0     H69080  -0.120   5.543   5.235  0.1932 -0.6349 -0.1152
  512MOL0     H69081  -0.240   5.625   5.070  1.7431 -2.3667  0.3136
  512MOL0     H69082  -0.356   5.485   5.051  1.4259  0.2182 -0.3876
  512MOL0     H69083  -0.420   5.648   5.073  0.3297  1.4401  0.4933
  512MOL0     H69084  -0.821   5.667   5.591 -2.0917  0.5405  1.0349
  512MOL0     H69085  -1.033   5.774   5.596  1.3318  2.2958 -0.8133
  512MOL0     H69086  -1.255   5.756   5.576 -0.9333  0.1386  0.4795
  512MOL0     H69087  -1.230   5.926   5.520 -1.4952  0.5507 -0.5818
  512MOL0     H69088  -1.477   5.895   5.532 -3.6324 -1.8955 -0.6436
  512MOL0     H69089  -1.420   5.905   5.371  2.0913  2.1859  0.5962
  512MOL0     H69090  -1.418   5.639   5.508  1.3483  1.0546 -0.7740
  512MOL0     H69091  -1.451   5.674   5.330 -0.9293  2.1227 -0.7442
  512MOL0     H69092  -1.649   5.596   5.487 -0.6594  0.3583  0.2519
  512MOL0     H69093  -1.630   5.753   5.559  1.5737 -0.5727  0.7917
  512MOL0     H69094  -1.678   5.845   5.306  1.8291 -0.2848  0.9443
  512MOL0     H69095  -1.810   5.743   5.370  0.6057 -0.8284  3.1884
  512MOL0     H69096  -1.593   5.651   5.196 -0.1718 -1.6827 -1.3347
  512MOL0     H69097  -1.699   5.544   5.282  3.3422  0.7475  3.0341
  512MOL0     H69098  -1.802   5.776   5.101 -1.0584  0.6929  0.7884
  512MOL0     H69099  -1.883   5.631   5.171  0.8036 -2.6505 -1.3589
  512MOL0     H69100  -1.813   5.595   4.918 -0.8197  0.0021  1.1078
  512MOL0     H69101  -1.727   5.480   5.034  2.6512 -0.4209  0.1713
  512MOL0     H69102  -1.098   5.666   5.185  0.6099  0.2185 -0.9673
  512MOL0     H69103  -0.847   5.598   5.163  0.3853 -0.7077 -0.3216
  512MOL0     H69104  -0.516   5.585   5.540 -1.0033  2.8734 -1.0596
  512MOL0     H69105  -0.296   5.571   5.636  0.4027 -1.4028 -0.0956
  512MOL0     H69106   1.114   4.260   5.297 -0.9427  2.2964 -0.1760
  512MOL0     H69107   1.285   4.068   5.254  1.6320 -0.2514 -0.3313
  512MOL0     H69108   1.723   3.916   4.907 -0.9012 -0.0057 -0.4178
  512MOL0     H69109   1.907   3.793   4.941 -1.7674  1.2073 -1.2097
  512MOL0     H69110   2.064   3.645   4.999  0.5553 -1.0247 -0.8809
  512MOL0     H69111   2.172   3.788   4.990 -0.7623 -0.0985  0.3513
  512MOL0     H69112   2.221   3.591   5.213 -0.1191 -1.6536 -0.5950
  512MOL0     H69113   2.309   3.728   5.160 -2.3534 -0.2150  2.7964
  512MOL0     H69114   2.360   3.629   4.941 -0.9486  2.3201  1.9794
  512MOL0     H69115   2.248   3.509   4.961 -0.4135  1.3108 -0.1880
  512MOL0     H69116   2.385   3.411   5.151  0.4253  0.0080 -0.1258
  512MOL0     H69117   2.500   3.547   5.130  1.3799  0.9912 -1.2224
  512MOL0     H69118   2.625   3.296   4.826 -1.2708 -0.5807  0.5236
  512MOL0     H69119   1.891   3.881   5.375 -0.7355 -1.6972  0.0889
  512MOL0     H69120   1.672   3.959   5.343 -0.1180 -4.0200  1.3304
  513MOL0     O69121   2.347   6.517   0.650 -0.4149  0.1095  0.2618
  513MOL0     C69122   2.321   6.541   0.528  0.4581 -0.5116  0.1562
  513MOL0     O69123   2.399   6.612   0.443 -0.4189 -0.0107 -0.4073
  513MOL0     C69124   2.529   6.628   0.477  0.1583  0.2800 -0.6716
  513MOL0     C69125   2.598   6.753   0.464  1.1250  0.7588 -0.2207
  513MOL0     C69126   2.734   6.760   0.479 -0.6581  0.2259  0.6416
  513MOL0     C69127   2.803   6.648   0.527 -0.2985  0.1895  0.2925
  513MOL0     O69128   2.937   6.656   0.547  0.1159  0.5139  0.1746
  513MOL0     C69129   3.009   6.530   0.559  0.2372 -0.2090  1.0626
  513MOL0     C69130   3.159   6.568   0.571  0.1242  1.0392  0.2057
  513MOL0     C69131   3.190   6.691   0.652  0.1883  0.9273  0.3666
  513MOL0     C69132   3.345   6.720   0.665  0.4773 -0.4046  0.2052
  513MOL0     C69133   3.381   6.825   0.554  0.4610 -0.2305 -0.4558
  513MOL0     C69134   3.515   6.892   0.574 -0.4433  0.7004 -0.1047
  513MOL0     C69135   3.554   6.954   0.710  0.1383  0.2816 -0.9167
  513MOL0     C69136   3.702   7.005   0.697 -0.0472 -0.2295 -1.0924
  513MOL0     N69137   3.792   6.890   0.689  0.0692  0.1758  0.1212
  513MOL0     C69138   3.812   6.790   0.779  0.6908  0.4712  0.2558
  513MOL0     C69139   3.864   6.687   0.708  0.0130  1.4398 -0.1163
  513MOL0     C69140   3.885   6.549   0.763  0.7562 -0.4783  0.2015
  513MOL0     C69141   3.753   6.454   0.756 -0.3132  0.1284 -0.7305
  513MOL0     C69142   3.694   6.429   0.621 -0.2101  0.7340  0.2804
  513MOL0     C69143   3.722   6.288   0.578  0.0225 -0.0232  0.5837
  513MOL0     O69144   3.650   6.260   0.457 -0.2729  0.5989 -0.6954
  513MOL0     C69145   3.515   6.242   0.470  0.3071  0.6353  0.4532
  513MOL0     C69146   3.448   6.223   0.346 -0.4156 -0.3238  0.6604
  513MOL0     C69147   3.307   6.214   0.342 -0.0904  0.2241  0.1054
  513MOL0     C69148   3.248   6.218   0.203  0.5082  0.7461 -0.4640
  513MOL0     C69149   3.231   6.190   0.459  0.1422 -0.0032 -0.3310
  513MOL0     C69150   3.085   6.169   0.466  0.8148 -1.2408  0.8488
  513MOL0     O69151   3.013   6.160   0.354  0.6458 -0.0530 -0.1301
  513MOL0     C69152   2.870   6.150   0.359  0.1627  0.7768  0.2070
  513MOL0     C69153   2.803   6.160   0.240 -0.0728 -0.5390  0.4194
  513MOL0     C69154   2.667   6.192   0.227 -1.3321  0.4369 -0.1368
  513MOL0     C69155   2.590   6.197   0.349  0.0959  0.4716  0.1451
  513MOL0     O69156   2.466   6.245   0.341  0.3023 -0.5880 -1.2018
  513MOL0     C69157   2.382   6.156   0.267 -0.3191 -0.3541 -0.8113
  513MOL0     C69158   2.237   6.183   0.300  0.1890  0.1157 -0.5969
  513MOL0     C69159   2.139   6.084   0.233 -0.8341 -0.2661  0.1216
  513MOL0     C69160   1.993   6.129   0.253 -0.0138 -0.2587  0.4239
  513MOL0     C69161   1.885   6.040   0.194  0.5265  0.6486 -1.3426
  513MOL0     C69162   1.837   5.936   0.299 -0.4662  0.5462  0.6189
  513MOL0     C69163   1.750   5.836   0.220 -0.1064  0.3676 -0.6874
  513MOL0     C69164   1.688   5.730   0.303  0.2505  0.1001  0.4991
  513MOL0    Cl69165   1.797   5.629   0.386 -0.0298  0.0714  0.5139
  513MOL0     C69166   2.644   6.143   0.460 -0.7878 -0.2714 -0.1877
  513MOL0     C69167   2.788   6.130   0.466 -0.3322  0.2841  0.3844
  513MOL0     O69168   3.037   6.164   0.580  0.2583 -0.4340 -0.6646
  513MOL0     C69169   3.295   6.213   0.579 -0.7663 -1.5701 -0.6346
  513MOL0     C69170   3.434   6.239   0.589  0.0171 -0.6920  0.5405
  513MOL0     N69171   3.901   6.733   0.582  0.3128 -0.5865 -0.2747
  513MOL0     N69172   3.845   6.847   0.566 -0.3320 -0.2706 -1.0247
  513MOL0     C69173   2.733   6.528   0.552 -0.3213  0.4584 -0.2795
  513MOL0     C69174   2.602   6.525   0.523  0.1785 -0.2109 -0.3430
  513MOL0     C69175   2.174   6.522   0.496 -0.6766  0.5891  0.4406
  513MOL0     C69176   2.121   6.542   0.368  0.5776 -0.4881  0.4522
  513MOL0     C69177   1.983   6.516   0.350 -0.0628 -0.3575  0.4110
  513MOL0     C69178   1.906   6.457   0.448 -0.6601 -0.1533 -0.1207
  513MOL0     O69179   1.779   6.422   0.425  0.3943 -0.4281 -0.2806
  513MOL0     C69180   1.711   6.312   0.485 -0.2835 -0.3231  0.7732
  513MOL0     C69181   1.608   6.261   0.380 -0.4218  0.5684 -0.9160
  513MOL0     C69182   1.541   6.128   0.445  0.0599  0.3095 -0.3428
  513MOL0     C69183   1.406   6.165   0.515  0.2973 -0.6952 -0.1373
  513MOL0     C69184   1.299   6.210   0.422 -0.7556 -0.3863  0.0856
  513MOL0     C69185   1.212   6.244   0.345 -0.2386 -0.5909  0.1467
  513MOL0     C69186   1.967   6.431   0.575  0.3853 -0.6799  0.7899
  513MOL0     C69187   2.095   6.472   0.598  0.0537 -0.2842  0.7030
  513MOL0     H69188   2.539   6.838   0.430  2.4019  1.8055  0.0903
  513MOL0     H69189   2.782   6.854   0.455  2.1463 -1.1946  0.2554
  513MOL0     H69190   2.987   6.462   0.642  3.9132 -4.3802 -0.9458
  513MOL0     H69191   2.994   6.464   0.473  2.4250 -2.1200  2.0545
  513MOL0     H69192   3.207   6.478   0.610 -1.8989 -0.9396 -1.5305
  513MOL0     H69193   3.201   6.576   0.470  0.1821  0.1933  0.1509
  513MOL0     H69194   3.133   6.774   0.609 -0.0408 -1.2685 -4.1369
  513MOL0     H69195   3.137   6.676   0.746 -3.1981 -1.3641 -1.7005
  513MOL0     H69196   3.360   6.770   0.761 -0.8360 -0.5714  0.5152
  513MOL0     H69197   3.394   6.622   0.655  1.4577  0.0621  0.3937
  513MOL0     H69198   3.363   6.794   0.451  0.3593 -0.9124 -0.2378
  513MOL0     H69199   3.312   6.909   0.561  1.5258  1.1637 -4.1677
  513MOL0     H69200   3.589   6.821   0.537 -2.2102 -0.1910 -2.1397
  513MOL0     H69201   3.519   6.971   0.498  1.6058 -1.2058 -2.1318
  513MOL0     H69202   3.488   7.035   0.741  0.9049  0.5728  0.0116
  513MOL0     H69203   3.546   6.875   0.785  1.2814 -0.8718 -1.9474
  513MOL0     H69204   3.731   7.054   0.790 -0.8887 -3.1162  0.8375
  513MOL0     H69205   3.711   7.075   0.613  1.8370  1.1342  0.1654
  513MOL0     H69206   3.781   6.800   0.883  3.1636  0.0922  1.0806
  513MOL0     H69207   3.966   6.501   0.708  1.1194 -0.8529  1.0460
  513MOL0     H69208   3.914   6.555   0.868  0.4283  1.0921  0.2261
  513MOL0     H69209   3.674   6.505   0.812  0.2388 -0.3099  0.4923
  513MOL0     H69210   3.765   6.364   0.817 -1.0251  0.5226  0.0196
  513MOL0     H69211   3.728   6.494   0.540  1.9547 -0.8053 -0.1243
  513MOL0     H69212   3.590   6.452   0.643  0.8595  2.6632  4.3641
  513MOL0     H69213   3.708   6.215   0.658  0.0232 -0.6166  0.0504
  513MOL0     H69214   3.827   6.265   0.556 -0.2807 -1.2950  0.3792
  513MOL0     H69215   3.508   6.223   0.255 -2.1265 -0.8461 -0.5203
  513MOL0     H69216   3.315   6.262   0.128  1.7180 -0.8379 -0.3460
  513MOL0     H69217   3.234   6.116   0.166  0.3964  1.5173 -2.7176
  513MOL0     H69218   3.151   6.268   0.196 -0.6259 -1.1641  0.6994
  513MOL0     H69219   2.866   6.161   0.151  0.7994  2.6956  0.9705
  513MOL0     H69220   2.626   6.221   0.131 -1.3888 -0.1988 -0.3117
  513MOL0     H69221   2.395   6.161   0.158 -0.9908 -2.5876 -1.0432
  513MOL0     H69222   2.409   6.057   0.305 -0.0980  0.0965  0.2345
  513MOL0     H69223   2.229   6.155   0.406  0.8650 -0.2660 -0.6425
  513MOL0     H69224   2.206   6.287   0.287 -1.5272  0.3950  3.8448
  513MOL0     H69225   2.154   5.984   0.274  0.6128  0.0115  0.3191
  513MOL0     H69226   2.157   6.076   0.125 -2.7063 -0.8884 -0.1932
  513MOL0     H69227   1.982   6.138   0.362  2.6737  0.0980  0.7263
  513MOL0     H69228   1.971   6.231   0.221 -1.3807  0.0736  2.2123
  513MOL0     H69229   1.917   5.995   0.099  4.3304 -0.6075  0.3268
  513MOL0     H69230   1.800   6.107   0.185 -0.8258 -0.6671  0.7337
  513MOL0     H69231   1.924   5.881   0.336 -0.9539 -1.0518 -0.5234
  513MOL0     H69232   1.788   5.995   0.377  1.2983  0.3371  1.9553
  513MOL0     H69233   1.816   5.782   0.152 -0.1479  0.3102 -0.6816
  513MOL0     H69234   1.666   5.881   0.166 -0.3795  0.0563 -0.5285
  513MOL0     H69235   1.631   5.663   0.237  1.1476 -0.4160  0.2205
  513MOL0     H69236   1.619   5.772   0.376 -1.0598 -1.1069 -0.0129
  513MOL0     H69237   2.585   6.123   0.549 -0.9264  0.0656 -0.1996
  513MOL0     H69238   2.817   6.102   0.567 -1.3730 -4.5041 -0.4023
  513MOL0     H69239   3.250   6.199   0.677  1.9114  1.6638  1.2873
  513MOL0     H69240   3.478   6.254   0.687 -3.5129  2.3665  1.8793
  513MOL0     H69241   2.783   6.435   0.578  1.4863  1.2727 -0.6650
  513MOL0     H69242   2.550   6.430   0.515 -0.7725  0.1154  1.3778
  513MOL0     H69243   2.187   6.582   0.292 -0.7195  0.4043 -0.2346
  513MOL0     H69244   1.935   6.530   0.254  0.8294  0.2980  0.0422
  513MOL0     H69245   1.774   6.230   0.518 -1.5697 -1.2942  0.9127
  513MOL0     H69246   1.665   6.342   0.579  3.2430  0.1109  2.5147
  513MOL0     H69247   1.659   6.233   0.288 -1.0355  0.5688 -1.2679
  513MOL0     H69248   1.527   6.333   0.358 -2.3173 -1.2236 -0.1417
  513MOL0     H69249   1.599   6.073   0.519 -1.8181  0.1827  1.1193
  513MOL0     H69250   1.514   6.053   0.370  0.2749  0.8846 -1.0119
  513MOL0     H69251   1.427   6.256   0.572 -2.0702 -0.3288  0.2556
  513MOL0     H69252   1.367   6.088   0.581 -0.9372 -0.5310 -0.6408
  513MOL0     H69253   1.138   6.295   0.286  0.6034  0.4416 -0.0612
  513MOL0     H69254   1.900   6.394   0.652 -0.5837  1.8284  1.2484
  513MOL0     H69255   2.134   6.444   0.695 -2.0801  1.6295  2.2076
  514MOL0     O69256   9.349   1.916   7.365 -0.9712 -0.5792  0.3324
  514MOL0     C69257   9.407   1.960   7.464  0.0581 -0.1169 -0.4302
  514MOL0     O69258   9.371   2.068   7.530  0.1358  0.3157 -0.1378
  514MOL0     C69259   9.238   2.101   7.537  0.6897 -0.1822 -1.6662
  514MOL0     C69260   9.123   2.053   7.472 -0.1463 -0.6939 -0.2987
  514MOL0     C69261   8.989   2.093   7.497 -0.4699  0.6423 -0.4588
  514MOL0     C69262   8.958   2.185   7.597  0.0314  0.6738 -0.4129
  514MOL0     O69263   8.831   2.211   7.625  0.3123  0.3035  0.2518
  514MOL0     C69264   8.785   2.320   7.708 -0.0932  0.5789 -0.3831
  514MOL0     C69265   8.629   2.336   7.709 -0.4797 -0.7169 -0.2545
  514MOL0     C69266   8.551   2.237   7.798  0.3621 -0.5658 -0.2409
  514MOL0     C69267   8.409   2.225   7.746  0.2507 -0.2578 -0.3825
  514MOL0     C69268   8.333   2.119   7.832  0.6130  0.4692 -0.6079
  514MOL0     C69269   8.179   2.094   7.806 -0.2710 -0.0308 -0.6782
  514MOL0     C69270   8.094   2.219   7.823 -0.0575 -0.4771 -0.4016
  514MOL0     C69271   7.944   2.181   7.841 -0.3854  0.4886 -0.7268
  514MOL0     N69272   7.864   2.305   7.859  0.0756 -0.0622  0.3993
  514MOL0     C69273   7.872   2.386   7.967 -0.2730 -0.0061  0.1477
  514MOL0     C69274   7.796   2.488   7.938  0.9979 -0.1549 -0.1177
  514MOL0     C69275   7.756   2.598   8.038 -0.0822  0.6354 -0.4461
  514MOL0     C69276   7.881   2.667   8.109  0.6956  0.4843 -0.0468
  514MOL0     C69277   7.848   2.704   8.246 -0.2220  0.8158  1.0016
  514MOL0     C69278   7.750   2.820   8.263 -1.0755 -0.0382  0.4571
  514MOL0     O69279   7.690   2.820   8.389  0.4087  1.0910  0.0335
  514MOL0     C69280   7.607   2.935   8.409 -0.1164 -0.0540 -0.0612
  514MOL0     C69281   7.631   3.073   8.394 -0.5747  0.0376 -0.1827
  514MOL0     C69282   7.535   3.172   8.441 -0.4675  0.2028  0.3751
  514MOL0     C69283   7.570   3.316   8.416  0.3974  0.3242 -0.5674
  514MOL0     C69284   7.418   3.134   8.507  0.3541  0.2087 -0.2948
  514MOL0     C69285   7.313   3.225   8.573 -0.2107 -0.3891  0.5028
  514MOL0     O69286   7.330   3.360   8.573  0.5951 -0.0507  0.4196
  514MOL0     C69287   7.249   3.454   8.634  0.5224 -0.2303  0.2428
  514MOL0     C69288   7.290   3.528   8.746 -0.8885  0.4149 -0.5323
  514MOL0     C69289   7.207   3.623   8.815  0.8307 -0.2087 -0.3679
  514MOL0     C69290   7.076   3.638   8.768  0.4515 -0.2592  0.2948
  514MOL0     O69291   6.979   3.707   8.832  0.3006  0.5108 -0.1002
  514MOL0     C69292   7.015   3.822   8.898  0.5748  1.3280 -0.6287
  514MOL0     C69293   6.919   3.929   8.848 -0.1202  0.0563 -0.4573
  514MOL0     C69294   6.951   3.994   8.719  0.1822  0.5423  0.3289
  514MOL0     C69295   6.865   4.113   8.705  0.4383  0.7813  0.4609
  514MOL0     C69296   6.920   4.200   8.596 -0.0190  0.6125 -0.3428
  514MOL0     C69297   6.829   4.322   8.565 -0.1744 -0.3823  0.4549
  514MOL0     C69298   6.825   4.431   8.683  0.3750  0.1616 -0.0026
  514MOL0     C69299   6.700   4.510   8.668  0.0813  0.3471 -0.1438
  514MOL0    Cl69300   6.696   4.648   8.788  0.2253 -0.3614  0.4605
  514MOL0     C69301   7.037   3.556   8.661 -0.4563  0.5213  0.1212
  514MOL0     C69302   7.117   3.468   8.595  0.1564 -0.2639 -0.4724
  514MOL0     O69303   7.219   3.168   8.629  0.9429  0.2981 -0.5392
  514MOL0     C69304   7.392   2.996   8.515  0.3453  0.0687 -1.0287
  514MOL0     C69305   7.483   2.901   8.471 -0.2882 -0.6439  0.0488
  514MOL0     N69306   7.732   2.473   7.822  0.2697  0.4516  0.7325
  514MOL0     N69307   7.768   2.355   7.772 -0.6874 -0.1960 -0.1460
  514MOL0     C69308   9.069   2.257   7.659 -0.7003  0.5548  0.0099
  514MOL0     C69309   9.202   2.210   7.627 -0.6466 -0.0093 -0.4723
  514MOL0     C69310   9.537   1.895   7.491  0.2278  0.4189  0.0513
  514MOL0     C69311   9.590   1.784   7.417 -0.5278  0.0738 -0.2624
  514MOL0     C69312   9.719   1.728   7.440 -0.4531 -0.5181 -0.5883
  514MOL0     C69313   9.786   1.783   7.552  0.0416 -0.4343 -0.3730
  514MOL0     O69314   9.915   1.728   7.574 -0.0479 -0.3285 -0.1288
  514MOL0     C69315  10.016   1.720   7.472 -0.0173 -0.4759  0.5554
  514MOL0     C69316  10.154   1.704   7.531 -0.1166 -0.3619  0.3481
  514MOL0     C69317  10.164   1.566   7.603  0.5452 -0.0768  0.9762
  514MOL0     C69318  10.298   1.561   7.671  0.0975  0.7371 -0.2227
  514MOL0     C69319  10.329   1.427   7.726  0.1831  0.8599  0.0201
  514MOL0     C69320  10.363   1.322   7.780 -0.4806 -0.1909  0.1606
  514MOL0     C69321   9.737   1.885   7.632 -0.4609  0.1768 -0.4463
  514MOL0     C69322   9.620   1.951   7.592 -0.1544  0.6626 -0.4617
  514MOL0     H69323   9.130   1.977   7.394 -1.3993 -0.4454 -0.6637
  514MOL0     H69324   8.902   2.059   7.442 -0.5939  0.1873  0.0050
  514MOL0     H69325   8.815   2.287   7.808  0.9300  3.4741  0.3887
  514MOL0     H69326   8.843   2.412   7.695  0.1131  0.4403 -0.4498
  514MOL0     H69327   8.609   2.440   7.736  0.0374  0.4059 -3.7230
  514MOL0     H69328   8.587   2.334   7.608 -1.9627 -2.2416  0.3418
  514MOL0     H69329   8.598   2.139   7.789  2.1784  0.0655  1.4875
  514MOL0     H69330   8.537   2.264   7.903  0.1038  1.4040 -0.7411
  514MOL0     H69331   8.355   2.320   7.746 -0.2969 -0.5608  0.5215
  514MOL0     H69332   8.412   2.198   7.640  0.4829 -1.6056 -0.0421
  514MOL0     H69333   8.385   2.025   7.812 -0.6899 -0.4299  0.0629
  514MOL0     H69334   8.344   2.133   7.940 -4.0800 -0.2352  0.1513
  514MOL0     H69335   8.168   2.060   7.703 -0.1839 -3.2013  0.2450
  514MOL0     H69336   8.137   2.015   7.868  0.5135 -0.7565 -1.0583
  514MOL0     H69337   8.140   2.280   7.902  1.9753 -0.0000 -1.8845
  514MOL0     H69338   8.097   2.279   7.732  0.6510  0.0309 -0.0515
  514MOL0     H69339   7.913   2.117   7.923 -2.1896  2.2681  0.0660
  514MOL0     H69340   7.914   2.137   7.746  0.6266  1.1221 -1.3726
  514MOL0     H69341   7.903   2.365   8.069 -0.2176  1.9054  0.5495
  514MOL0     H69342   7.693   2.672   7.988 -2.1848  0.3572  1.5891
  514MOL0     H69343   7.692   2.551   8.114  0.6837 -0.3740 -0.4005
  514MOL0     H69344   7.919   2.751   8.049 -1.0289  0.0518 -1.8716
  514MOL0     H69345   7.965   2.598   8.105  2.6799  2.7027  1.0752
  514MOL0     H69346   7.946   2.725   8.291  2.1921 -3.4697 -1.5355
  514MOL0     H69347   7.798   2.620   8.296 -2.7071  0.5259 -1.6873
  514MOL0     H69348   7.674   2.813   8.185  0.6582  0.6114 -1.3926
  514MOL0     H69349   7.816   2.906   8.249 -0.5272 -0.8559 -2.8604
  514MOL0     H69350   7.726   3.109   8.356  0.1602 -2.0248 -0.4358
  514MOL0     H69351   7.652   3.320   8.345 -0.5263 -1.1105 -1.7630
  514MOL0     H69352   7.490   3.367   8.363 -0.3670  1.1295  1.2562
  514MOL0     H69353   7.588   3.361   8.514 -3.6085  1.5094 -0.1878
  514MOL0     H69354   7.393   3.508   8.775 -1.0164  1.1162  0.4597
  514MOL0     H69355   7.247   3.675   8.901 -0.6082  1.2800 -0.5560
  514MOL0     H69356   7.000   3.798   9.004 -1.1294  0.0483 -1.1295
  514MOL0     H69357   7.121   3.848   8.897  1.1873 -0.7757  1.2305
  514MOL0     H69358   6.820   3.883   8.844  0.8032 -2.2134  0.7702
  514MOL0     H69359   6.923   4.010   8.922  0.4164 -0.2296 -0.1623
  514MOL0     H69360   6.933   3.926   8.635 -0.8854  1.2239 -0.0151
  514MOL0     H69361   7.057   4.022   8.714 -0.2706  2.2537 -0.4002
  514MOL0     H69362   6.758   4.097   8.688  0.3796 -0.3624  1.8147
  514MOL0     H69363   6.883   4.167   8.799  1.7660 -0.9161  1.2324
  514MOL0     H69364   6.932   4.135   8.508 -1.6913  0.6496 -0.6326
  514MOL0     H69365   7.016   4.238   8.631 -0.8944  1.0902  1.6390
  514MOL0     H69366   6.873   4.394   8.495  0.1920  2.6824  3.5397
  514MOL0     H69367   6.731   4.287   8.533  0.0406 -2.1411  1.5715
  514MOL0     H69368   6.908   4.499   8.664  2.7844 -2.4278  0.4333
  514MOL0     H69369   6.835   4.392   8.785  3.6606  1.8363  0.4177
  514MOL0     H69370   6.609   4.459   8.702  1.3868 -1.6226  0.5558
  514MOL0     H69371   6.693   4.553   8.568 -0.0613 -2.3850 -1.3875
  514MOL0     H69372   6.934   3.567   8.631  0.4451 -0.2674 -3.8693
  514MOL0     H69373   7.077   3.417   8.508  0.8388  1.2076 -1.7032
  514MOL0     H69374   7.311   2.945   8.567 -0.7882 -0.4023 -3.1552
  514MOL0     H69375   7.446   2.800   8.488  0.7669 -1.3192 -1.4549
  514MOL0     H69376   9.053   2.343   7.724 -0.1468  1.2492 -0.7558
  514MOL0     H69377   9.280   2.280   7.652 -1.1649  0.3379  0.2018
  514MOL0     H69378   9.538   1.749   7.328 -1.4279 -0.3619  0.4138
  514MOL0     H69379   9.761   1.649   7.379  0.2413 -2.3272  2.0356
  514MOL0     H69380   9.997   1.651   7.389  0.1665 -1.6128  1.4272
  514MOL0     H69381  10.016   1.818   7.424  1.2469 -0.6173  0.2504
  514MOL0     H69382  10.169   1.773   7.615 -1.3232 -1.8245  1.8197
  514MOL0     H69383  10.237   1.719   7.461 -0.0872 -1.8876  0.0207
  514MOL0     H69384  10.168   1.480   7.535  2.2676  0.8260 -0.1474
  514MOL0     H69385  10.082   1.560   7.675  2.1120 -2.4091  2.7172
  514MOL0     H69386  10.294   1.643   7.743 -0.2942  0.0812  0.5230
  514MOL0     H69387  10.385   1.586   7.609 -1.5867 -0.1550 -3.1588
  514MOL0     H69388  10.399   1.232   7.826  1.6750  1.2746  1.5409
  514MOL0     H69389   9.792   1.906   7.723 -3.2209  0.0289  1.3802
  514MOL0     H69390   9.596   2.038   7.653 -0.3103  0.8399 -0.7749
  515MOL0     O69391  11.036   4.643   5.393  0.0059  0.1856  0.1125
  515MOL0     C69392  11.056   4.565   5.487  0.2822  0.3465  0.2149
  515MOL0     O69393  10.978   4.548   5.607  0.0872 -0.2081  0.3636
  515MOL0     C69394  10.851   4.585   5.608  0.3195  0.7474 -0.3948
  515MOL0     C69395  10.792   4.708   5.564 -0.0992 -0.4540  0.1520
  515MOL0     C69396  10.661   4.742   5.591  0.2756  0.0741  0.0684
  515MOL0     C69397  10.578   4.650   5.653 -0.1305 -0.4317 -0.6043
  515MOL0     O69398  10.443   4.666   5.665 -0.2812 -0.0275  0.2494
  515MOL0     C69399  10.387   4.801   5.670 -0.1504 -0.0154 -0.2806
  515MOL0     C69400  10.253   4.777   5.746 -0.4294 -0.3528  0.1527
  515MOL0     C69401  10.177   4.909   5.746 -0.8367  0.0427 -0.2849
  515MOL0     C69402  10.043   4.896   5.828  0.3394  0.5826  0.8885
  515MOL0     C69403   9.973   5.028   5.835  0.9943  0.0166 -0.1509
  515MOL0     C69404   9.921   5.083   5.709  0.2452 -0.9449  0.8633
  515MOL0     C69405   9.822   5.202   5.705  0.3164 -0.2982 -0.4548
  515MOL0     C69406   9.863   5.330   5.784 -0.2120  1.0854 -0.0414
  515MOL0     N69407   9.760   5.434   5.780 -0.9672  0.3465  0.3147
  515MOL0     C69408   9.629   5.419   5.817 -0.3670  0.1973 -0.5687
  515MOL0     C69409   9.577   5.543   5.799  0.0184 -0.3227  0.9433
  515MOL0     C69410   9.437   5.592   5.820  0.3316  0.1696 -0.1671
  515MOL0     C69411   9.383   5.634   5.681 -0.3830 -0.6426 -0.7210
  515MOL0     C69412   9.240   5.700   5.706 -0.7947  0.2961  0.8958
  515MOL0     C69413   9.163   5.714   5.573 -0.0367 -0.9077  0.2448
  515MOL0     O69414   9.207   5.814   5.473  0.1751 -0.1657  0.1481
  515MOL0     C69415   9.144   5.795   5.350  0.5098  0.9141 -0.3299
  515MOL0     C69416   9.205   5.866   5.249 -0.1820  0.7220 -0.6717
  515MOL0     C69417   9.148   5.873   5.117 -0.1216  1.4298 -0.2866
  515MOL0     C69418   9.221   5.951   5.011 -0.1278  0.5019 -0.0496
  515MOL0     C69419   9.022   5.811   5.087 -1.5178 -0.0480 -0.7356
  515MOL0     C69420   8.960   5.783   4.958  0.5117  0.3531 -0.7415
  515MOL0     O69421   8.893   5.662   4.945 -0.1561 -0.0234  0.2129
  515MOL0     C69422   8.807   5.623   4.845  0.4269 -0.7152  0.3090
  515MOL0     C69423   8.801   5.495   4.789 -0.2647  0.8231  1.0843
  515MOL0     C69424   8.722   5.468   4.675 -0.0018  0.0117 -0.0555
  515MOL0     C69425   8.634   5.559   4.622  1.0788  0.5637  0.4121
  515MOL0     O69426   8.544   5.516   4.515  0.6585 -0.0189 -0.6816
  515MOL0     C69427   8.444   5.608   4.481  0.1835 -0.4079 -0.6910
  515MOL0     C69428   8.329   5.548   4.397 -0.3341 -0.2596  0.7978
  515MOL0     C69429   8.215   5.652   4.397 -0.3740 -0.1082 -0.1632
  515MOL0     C69430   8.096   5.617   4.309  0.4720 -1.0028 -0.2689
  515MOL0     C69431   7.969   5.683   4.354 -0.7768 -0.3919 -0.3114
  515MOL0     C69432   7.852   5.692   4.248 -1.2076  0.0186 -0.1296
  515MOL0     C69433   7.823   5.549   4.193  0.3712  0.8113  0.1726
  515MOL0     C69434   7.722   5.549   4.078  0.3605  0.0547 -0.2248
  515MOL0    Cl69435   7.739   5.391   3.990 -0.1667 -0.1610 -0.1346
  515MOL0     C69436   8.636   5.685   4.678 -0.4849 -0.1438 -0.0863
  515MOL0     C69437   8.724   5.717   4.780  0.1903 -0.1416  1.0614
  515MOL0     O69438   8.951   5.872   4.877  0.1213  0.4480 -0.8837
  515MOL0     C69439   8.966   5.746   5.201  0.6558  0.1877  0.0773
  515MOL0     C69440   9.023   5.736   5.329 -0.2439  0.5152  0.9440
  515MOL0     N69441   9.689   5.631   5.774  0.3489 -0.3326  0.3606
  515MOL0     N69442   9.797   5.563   5.769  0.1560 -0.6952 -0.1621
  515MOL0     C69443  10.628   4.526   5.689 -0.6654 -0.3333 -1.1190
  515MOL0     C69444  10.766   4.502   5.675 -0.5622  0.2058  0.2330
  515MOL0     C69445  11.177   4.491   5.486 -0.3837  0.3801  0.5024
  515MOL0     C69446  11.221   4.426   5.596  0.3123  1.2273 -1.2509
  515MOL0     C69447  11.343   4.358   5.597  0.1659 -0.4684 -0.3556
  515MOL0     C69448  11.418   4.343   5.480 -0.7536 -0.6258  0.0731
  515MOL0     O69449  11.524   4.262   5.496  0.4612  0.1923 -0.2275
  515MOL0     C69450  11.550   4.176   5.382  0.2975 -0.1661  0.1797
  515MOL0     C69451  11.638   4.062   5.433  0.6316 -0.2619  0.5678
  515MOL0     C69452  11.681   3.974   5.317  0.2831  0.3746  0.1305
  515MOL0     C69453  11.614   3.836   5.316 -0.1806 -0.5736 -0.3118
  515MOL0     C69454  11.469   3.852   5.281  0.2494  0.2201 -0.0016
  515MOL0     C69455  11.346   3.835   5.262 -0.3918 -0.1815 -0.1035
  515MOL0     C69456  11.379   4.414   5.370 -0.2341  0.3487 -0.8560
  515MOL0     C69457  11.261   4.485   5.365  0.4424  0.0110 -0.4117
  515MOL0     H69458  10.857   4.780   5.516  0.5610 -1.4047 -0.4103
  515MOL0     H69459  10.610   4.830   5.553 -0.5402 -0.5566 -0.3292
  515MOL0     H69460  10.457   4.876   5.709  1.9347 -1.6111 -0.7567
  515MOL0     H69461  10.358   4.834   5.569  1.3855 -0.2457 -0.8284
  515MOL0     H69462  10.183   4.708   5.699  0.7123 -2.9616  2.0507
  515MOL0     H69463  10.278   4.746   5.848  1.1307 -0.2784 -0.1869
  515MOL0     H69464  10.248   4.979   5.792  2.1248 -1.3992 -2.3782
  515MOL0     H69465  10.154   4.946   5.646  2.4148  0.7157 -0.8881
  515MOL0     H69466   9.977   4.827   5.776 -1.5537  2.8427  0.1223
  515MOL0     H69467  10.065   4.862   5.930 -2.4185  0.4237  1.5082
  515MOL0     H69468   9.885   5.024   5.900  1.4744  1.2151  0.6149
  515MOL0     H69469  10.045   5.084   5.895 -0.5798 -0.0222  1.8807
  515MOL0     H69470  10.006   5.100   5.642  0.0334 -1.5542  0.4332
  515MOL0     H69471   9.871   5.000   5.660  0.8966 -0.0903 -1.3524
  515MOL0     H69472   9.803   5.237   5.603 -0.9865  2.1422  0.5311
  515MOL0     H69473   9.724   5.171   5.742  0.0173 -0.8204 -1.6307
  515MOL0     H69474   9.958   5.371   5.749 -0.5434  2.1710  0.3094
  515MOL0     H69475   9.875   5.285   5.883 -0.0137 -1.3041 -1.0679
  515MOL0     H69476   9.581   5.325   5.843  3.3812 -1.6108  0.5976
  515MOL0     H69477   9.385   5.507   5.867  2.3053 -1.9881 -1.6348
  515MOL0     H69478   9.442   5.684   5.878 -0.5397 -0.1558  0.4431
  515MOL0     H69479   9.371   5.545   5.618 -0.4479 -1.5778  0.5788
  515MOL0     H69480   9.447   5.703   5.625 -0.9906  1.0825  0.6131
  515MOL0     H69481   9.259   5.797   5.753  3.8866  0.2639 -0.4190
  515MOL0     H69482   9.185   5.623   5.760  1.0069 -2.6166 -1.1188
  515MOL0     H69483   9.062   5.733   5.611  0.0922 -0.4207  0.3545
  515MOL0     H69484   9.160   5.611   5.536 -1.9124 -1.3703  1.5646
  515MOL0     H69485   9.297   5.914   5.279  0.2277  0.1177 -0.9575
  515MOL0     H69486   9.226   5.900   4.914 -0.3763  1.1804 -0.4247
  515MOL0     H69487   9.182   6.051   4.993  3.4792  1.6911 -2.4279
  515MOL0     H69488   9.324   5.980   5.031  0.0686  1.3655 -2.0324
  515MOL0     H69489   8.865   5.418   4.833 -1.4610 -1.6428 -1.2130
  515MOL0     H69490   8.717   5.369   4.631 -0.1118  0.5288 -1.2406
  515MOL0     H69491   8.401   5.642   4.576 -0.0439  0.5282 -1.1170
  515MOL0     H69492   8.491   5.690   4.425 -0.1933 -0.4225 -1.0350
  515MOL0     H69493   8.348   5.532   4.291  0.8943  0.8821  0.8146
  515MOL0     H69494   8.310   5.447   4.434  0.4134 -0.4080  0.7992
  515MOL0     H69495   8.251   5.749   4.360 -0.3493  0.5446  1.4772
  515MOL0     H69496   8.173   5.670   4.496 -0.3682  1.4920 -0.4247
  515MOL0     H69497   8.121   5.641   4.205  0.5796 -0.4387 -0.1167
  515MOL0     H69498   8.070   5.511   4.302 -1.6770 -0.4954 -0.6881
  515MOL0     H69499   7.980   5.782   4.399  1.6277 -0.9768  0.5607
  515MOL0     H69500   7.922   5.629   4.436  1.2302 -1.1542  0.3997
  515MOL0     H69501   7.772   5.745   4.300  0.3575  2.2009  0.1709
  515MOL0     H69502   7.870   5.762   4.166  0.3516  2.7225  2.3557
  515MOL0     H69503   7.784   5.491   4.276  2.3398  0.5905  1.0124
  515MOL0     H69504   7.910   5.499   4.148 -1.9662  0.2649 -4.3504
  515MOL0     H69505   7.752   5.614   3.995 -2.3729 -0.2446 -1.5622
  515MOL0     H69506   7.618   5.571   4.104  0.7003  2.0364 -0.3511
  515MOL0     H69507   8.576   5.768   4.640 -0.6111 -0.7815 -1.3376
  515MOL0     H69508   8.728   5.823   4.804 -1.2034  0.8672 -2.3826
  515MOL0     H69509   8.872   5.698   5.175  1.7329 -1.2041 -1.4755
  515MOL0     H69510   8.961   5.679   5.397 -1.8779  1.2293  0.1204
  515MOL0     H69511  10.560   4.459   5.740 -1.7573  0.5507 -1.3867
  515MOL0     H69512  10.811   4.421   5.732  0.6154  1.3654  1.0164
  515MOL0     H69513  11.170   4.432   5.692  1.4762 -5.2072  0.2528
  515MOL0     H69514  11.367   4.297   5.684 -3.3965 -2.1149 -0.3619
  515MOL0     H69515  11.453   4.133   5.356  0.8271 -3.6669  3.1789
  515MOL0     H69516  11.605   4.241   5.314  2.2237  1.7515  3.3159
  515MOL0     H69517  11.581   4.008   5.509 -0.3651 -0.6455 -0.4338
  515MOL0     H69518  11.724   4.093   5.493 -0.0502  1.6530  0.6470
  515MOL0     H69519  11.789   3.961   5.315  0.3247  0.6828  0.3067
  515MOL0     H69520  11.662   4.018   5.219  0.9205 -1.1724 -0.7222
  515MOL0     H69521  11.629   3.788   5.413  0.9039 -0.1300 -0.2390
  515MOL0     H69522  11.664   3.775   5.240 -1.0304  0.7220 -1.9510
  515MOL0     H69523  11.245   3.815   5.232 -0.6256 -2.9273  2.1370
  515MOL0     H69524  11.437   4.412   5.278  0.5233  1.2324 -0.4259
  515MOL0     H69525  11.228   4.546   5.282  2.3441  0.9572 -0.5134
  516MOL0     O69526   7.637   5.825   4.559  0.2401  0.6055  0.1149
  516MOL0     C69527   7.674   5.916   4.491  0.1354 -0.3406 -0.3273
  516MOL0     O69528   7.599   5.985   4.402 -0.4478  0.7052  0.3180
  516MOL0     C69529   7.471   5.929   4.386 -0.0274  0.3406  0.1712
  516MOL0     C69530   7.366   5.977   4.463  0.1492 -0.6776 -0.5820
  516MOL0     C69531   7.245   5.915   4.454 -0.0625  0.2902  0.4107
  516MOL0     C69532   7.226   5.811   4.374  0.4590  0.7613 -0.5160
  516MOL0     O69533   7.104   5.753   4.357 -0.0154 -0.3084 -0.5828
  516MOL0     C69534   6.985   5.830   4.373 -0.0619 -0.5574 -0.3010
  516MOL0     C69535   6.852   5.768   4.334  0.0471 -0.2547 -0.0991
  516MOL0     C69536   6.734   5.849   4.402 -0.4451 -0.4695  1.3363
  516MOL0     C69537   6.607   5.791   4.344  0.4612  0.6405 -0.4591
  516MOL0     C69538   6.487   5.864   4.365  0.3452 -0.3398 -1.0078
  516MOL0     C69539   6.395   5.847   4.243  0.1214 -0.5048 -0.2313
  516MOL0     C69540   6.271   5.935   4.251 -0.4106  0.5542 -0.0808
  516MOL0     C69541   6.182   5.904   4.127  1.2455 -0.5493 -0.2960
  516MOL0     N69542   6.074   6.012   4.119 -0.3660 -0.0379 -0.1218
  516MOL0     C69543   6.004   6.048   4.233 -0.2845 -0.1581 -0.0039
  516MOL0     C69544   5.928   6.154   4.186 -0.3590 -0.5652  0.1023
  516MOL0     C69545   5.838   6.241   4.274 -0.7027  0.5050 -0.1564
  516MOL0     C69546   5.706   6.266   4.217 -0.1341 -1.1560 -0.4807
  516MOL0     C69547   5.628   6.360   4.314  0.1769 -0.4468  0.3339
  516MOL0     C69548   5.566   6.281   4.430 -0.0621  0.9597 -0.3383
  516MOL0     O69549   5.467   6.364   4.477  0.5617  0.1387  0.3790
  516MOL0     C69550   5.344   6.316   4.506 -0.7679 -0.4957 -0.2968
  516MOL0     C69551   5.243   6.365   4.430  0.4869 -0.1208 -0.3099
  516MOL0     C69552   5.109   6.329   4.443 -0.0644 -0.1207 -0.5536
  516MOL0     C69553   5.012   6.375   4.336  0.0050  0.2867 -0.1404
  516MOL0     C69554   5.076   6.242   4.550 -0.1002  0.6055  0.8543
  516MOL0     C69555   4.937   6.208   4.586  0.3715  0.9737 -0.7574
  516MOL0     O69556   4.831   6.293   4.541 -0.8885  0.6833  0.4446
  516MOL0     C69557   4.702   6.275   4.589 -0.2931  0.4761 -1.1693
  516MOL0     C69558   4.619   6.158   4.588  0.0865  0.3102 -0.5502
  516MOL0     C69559   4.487   6.164   4.627 -0.0229 -0.6256  0.8664
  516MOL0     C69560   4.438   6.279   4.681  0.8368  0.1615 -0.2697
  516MOL0     O69561   4.312   6.272   4.733  0.0788  0.3575  0.0061
  516MOL0     C69562   4.226   6.391   4.727 -0.0506  0.1457  0.6308
  516MOL0     C69563   4.087   6.352   4.776 -1.3301  0.3854 -0.3386
  516MOL0     C69564   3.992   6.475   4.765 -0.5235  0.1593  0.3115
  516MOL0     C69565   4.026   6.597   4.851  0.8625  0.3132 -0.6476
  516MOL0     C69566   3.913   6.691   4.845  1.0928 -0.3923  0.4129
  516MOL0     C69567   3.796   6.669   4.945 -0.1375 -0.1878  0.1136
  516MOL0     C69568   3.694   6.780   4.906 -0.7478 -0.3845 -0.1218
  516MOL0     C69569   3.596   6.810   5.023  0.1975  0.1317  0.4424
  516MOL0    Cl69570   3.462   6.927   4.958 -0.0974 -0.2448 -0.2395
  516MOL0     C69571   4.514   6.392   4.693 -0.0329  0.1686 -0.1936
  516MOL0     C69572   4.642   6.395   4.636  0.5083 -0.3419  0.5059
  516MOL0     O69573   4.923   6.117   4.665  0.2850  0.1767 -0.4882
  516MOL0     C69574   5.177   6.190   4.632 -0.5508 -0.0127 -0.1782
  516MOL0     C69575   5.310   6.232   4.610 -0.5066 -0.2780 -0.3166
  516MOL0     N69576   5.964   6.189   4.050 -0.6039  0.0444 -0.2628
  516MOL0     N69577   6.052   6.099   4.013 -0.0161 -0.6353  0.1100
  516MOL0     C69578   7.332   5.755   4.297  0.5481  1.0661  0.0654
  516MOL0     C69579   7.455   5.810   4.310 -0.1308 -0.3963  0.1214
  516MOL0     C69580   7.810   5.975   4.518  0.2732 -1.1713  0.9468
  516MOL0     C69581   7.873   6.063   4.425  0.4279  0.8242 -0.0579
  516MOL0     C69582   8.006   6.113   4.445  0.1643  0.1100  0.7709
  516MOL0     C69583   8.085   6.066   4.548  0.8262  0.3686 -0.4096
  516MOL0     O69584   8.220   6.091   4.542  0.8858 -0.3972 -0.6586
  516MOL0     C69585   8.298   6.054   4.660 -0.9840 -0.0328  0.8873
  516MOL0     C69586   8.446   6.061   4.614  0.9279  0.2308 -0.6894
  516MOL0     C69587   8.498   6.206   4.612 -0.2053  0.6251 -0.8762
  516MOL0     C69588   8.626   6.202   4.530 -0.6767  0.1791  0.6198
  516MOL0     C69589   8.738   6.122   4.585 -0.4398  0.0001  0.7812
  516MOL0     C69590   8.823   6.055   4.639 -0.3370 -0.2094  0.3021
  516MOL0     C69591   8.017   5.988   4.657 -0.0096  0.3878  0.5126
  516MOL0     C69592   7.883   5.944   4.631  0.4845 -0.6740  0.3243
  516MOL0     H69593   7.376   6.061   4.532  1.8232  0.3509 -1.9818
  516MOL0     H69594   7.167   5.954   4.519 -1.5493  3.9471 -3.1452
  516MOL0     H69595   6.976   5.866   4.476  0.4113  1.1997 -0.8267
  516MOL0     H69596   6.998   5.921   4.313  0.9463  0.7392  1.7523
  516MOL0     H69597   6.851   5.760   4.225  0.2070 -3.8439  0.0598
  516MOL0     H69598   6.850   5.664   4.366  1.3503 -0.4247 -0.5296
  516MOL0     H69599   6.750   5.847   4.510  2.3012  3.7524  1.2652
  516MOL0     H69600   6.731   5.958   4.388  3.1606 -0.5124 -0.7956
  516MOL0     H69601   6.618   5.775   4.236 -1.1193 -3.1441 -0.2004
  516MOL0     H69602   6.601   5.687   4.377  0.1791  0.7121 -0.2810
  516MOL0     H69603   6.450   5.827   4.462  3.4545 -1.6143 -0.1749
  516MOL0     H69604   6.515   5.968   4.386  1.2708 -0.0441 -3.4441
  516MOL0     H69605   6.452   5.874   4.154 -1.3021 -0.6121 -1.2102
  516MOL0     H69606   6.366   5.741   4.236  0.6343 -0.8001  1.4771
  516MOL0     H69607   6.211   5.892   4.332 -1.0373  0.3181 -0.6552
  516MOL0     H69608   6.303   6.039   4.267 -0.2272  0.7909 -1.8432
  516MOL0     H69609   6.130   5.808   4.130 -2.1871  1.1998  2.6820
  516MOL0     H69610   6.246   5.905   4.038  0.2614  0.6232 -1.0252
  516MOL0     H69611   6.003   5.999   4.330 -4.5342  1.2470  0.8787
  516MOL0     H69612   5.811   6.192   4.369 -1.9572  1.4856  0.0168
  516MOL0     H69613   5.884   6.338   4.297  1.6594 -0.2964 -1.1800
  516MOL0     H69614   5.663   6.165   4.211  2.1611 -2.2220  0.1280
  516MOL0     H69615   5.720   6.311   4.118  0.1382 -0.3111 -0.0664
  516MOL0     H69616   5.551   6.399   4.247 -0.9419 -0.0394  1.8190
  516MOL0     H69617   5.690   6.437   4.360 -0.6064 -1.5181  3.3731
  516MOL0     H69618   5.644   6.260   4.505  2.5635  2.1030 -2.5637
  516MOL0     H69619   5.513   6.195   4.389 -2.2307  2.0373  0.0477
  516MOL0     H69620   5.271   6.425   4.344  2.5022  0.1520  0.4820
  516MOL0     H69621   4.946   6.452   4.376 -0.8261 -1.2583  1.6118
  516MOL0     H69622   5.064   6.411   4.247 -1.3694  2.3256 -0.1784
  516MOL0     H69623   4.942   6.296   4.308  1.6339 -1.2218 -0.1143
  516MOL0     H69624   4.657   6.068   4.541 -0.2314  0.2494 -0.6933
  516MOL0     H69625   4.430   6.072   4.626 -0.7367 -0.1915 -0.0243
  516MOL0     H69626   4.265   6.467   4.795 -0.6632  1.2299 -0.1936
  516MOL0     H69627   4.221   6.434   4.626  0.3237  1.2442  1.0761
  516MOL0     H69628   4.044   6.275   4.713 -1.7664  1.8859 -1.9261
  516MOL0     H69629   4.087   6.313   4.879  2.6135  2.0546  0.5174
  516MOL0     H69630   3.891   6.439   4.788 -0.6719 -0.2618 -0.9583
  516MOL0     H69631   3.999   6.507   4.661  1.4614  0.0958  0.3759
  516MOL0     H69632   4.061   6.571   4.952 -0.4233 -2.9724 -0.9141
  516MOL0     H69633   4.115   6.639   4.805  1.8164  0.0930  0.9307
  516MOL0     H69634   3.869   6.697   4.745 -0.0128 -0.6970  0.8601
  516MOL0     H69635   3.959   6.787   4.867  0.9493 -0.3722  0.6311
  516MOL0     H69636   3.738   6.577   4.944 -1.7121  0.7488  1.2560
  516MOL0     H69637   3.849   6.686   5.039  1.3197 -1.1656 -0.4947
  516MOL0     H69638   3.633   6.735   4.827  2.1086 -3.4192 -0.7862
  516MOL0     H69639   3.744   6.870   4.868 -2.6293  1.5899  1.7772
  516MOL0     H69640   3.658   6.849   5.104  0.5202 -0.8725  0.7028
  516MOL0     H69641   3.542   6.720   5.052 -1.9860  0.7881 -1.3409
  516MOL0     H69642   4.476   6.484   4.736  1.0873  1.2600 -1.4560
  516MOL0     H69643   4.707   6.481   4.627  1.9663 -1.6115 -2.6324
  516MOL0     H69644   5.153   6.120   4.711 -2.4036  1.2508  0.4522
  516MOL0     H69645   5.387   6.191   4.675 -1.2693 -2.7604 -0.8463
  516MOL0     H69646   7.324   5.679   4.221  0.8050 -1.6781  2.6066
  516MOL0     H69647   7.532   5.761   4.251 -0.9567 -2.4147  0.6205
  516MOL0     H69648   7.818   6.096   4.338  0.4876  1.4833  0.1477
  516MOL0     H69649   8.041   6.186   4.372 -0.1800 -0.3201  0.1715
  516MOL0     H69650   8.269   6.112   4.748 -0.9084  1.7180 -0.1818
  516MOL0     H69651   8.281   5.947   4.676 -1.0841 -0.8053 -3.1944
  516MOL0     H69652   8.449   6.023   4.512 -2.1359  1.0083 -1.1608
  516MOL0     H69653   8.505   6.007   4.689  0.9545 -1.4252 -1.8619
  516MOL0     H69654   8.520   6.249   4.710 -0.1912  2.1112 -1.5113
  516MOL0     H69655   8.420   6.256   4.554 -1.6519 -2.4147 -1.7620
  516MOL0     H69656   8.667   6.303   4.532  0.8131 -0.4008  2.5460
  516MOL0     H69657   8.614   6.163   4.429  0.4864  0.0243  0.5295
  516MOL0     H69658   8.897   5.991   4.684  0.9230  1.3046  0.5000
  516MOL0     H69659   8.074   5.961   4.745  1.2936 -0.9359 -0.6854
  516MOL0     H69660   7.827   5.889   4.707  1.8715 -0.7550  1.3143
  517MOL0     O69661   6.732   8.734   9.902 -0.3409 -0.1209 -0.2141
  517MOL0     C69662   6.762   8.621   9.951 -0.0699 -0.1204  1.3366
  517MOL0     O69663   6.670   8.522   9.954  0.0032  0.0470  0.1421
  517MOL0     C69664   6.541   8.553   9.933 -0.1885  0.3543  0.6178
  517MOL0     C69665   6.490   8.543   9.797  0.4860  0.3241 -0.1361
  517MOL0     C69666   6.359   8.585   9.766  0.4391 -0.5325 -0.1915
  517MOL0     C69667   6.272   8.622   9.871 -0.4637  0.1012 -0.4014
  517MOL0     O69668   6.138   8.658   9.852 -0.1963 -0.7229  0.1764
  517MOL0     C69669   6.050   8.553   9.819  0.7863 -0.6350  0.4210
  517MOL0     C69670   5.926   8.544   9.914 -0.5687 -0.3224 -0.0187
  517MOL0     C69671   5.831   8.439   9.897  0.2962 -0.6148  0.3482
  517MOL0     C69672   5.709   8.444   9.984  0.3206 -0.2478  0.2342
  517MOL0     C69673   5.610   8.329   9.972  0.7902  0.5695  0.0275
  517MOL0     C69674   5.484   8.341  10.068 -0.3547 -0.6770  0.3390
  517MOL0     C69675   5.389   8.220  10.045 -0.2210  0.0364 -0.8038
  517MOL0     C69676   5.286   8.203  10.162 -1.3818 -0.2477 -0.1327
  517MOL0     N69677   5.197   8.323  10.178 -0.5678  0.5237 -0.0733
  517MOL0     C69678   5.076   8.349  10.111 -0.5883 -0.2180  0.3836
  517MOL0     C69679   5.030   8.465  10.166 -0.3976  0.4209 -0.2141
  517MOL0     C69680   4.911   8.540  10.122  0.6054 -0.2557  0.4030
  517MOL0     C69681   4.916   8.585   9.974  0.0269 -0.2223 -0.3197
  517MOL0     C69682   5.035   8.678   9.936  0.3744 -0.1976  0.1322
  517MOL0     C69683   5.039   8.808  10.008  1.2104 -0.5574 -0.4513
  517MOL0     O69684   5.136   8.902   9.955 -0.1582  0.3828 -1.2965
  517MOL0     C69685   5.270   8.898  10.003  0.1919 -0.2635  0.6063
  517MOL0     C69686   5.336   8.798  10.080  0.1614  0.3960  0.0900
  517MOL0     C69687   5.471   8.805  10.108  0.1361 -0.3489 -0.0717
  517MOL0     C69688   5.525   8.691  10.195 -0.4823 -0.0847  0.6844
  517MOL0     C69689   5.562   8.906  10.042  0.3082  0.6529  0.3056
  517MOL0     C69690   5.706   8.930  10.086  0.0203 -0.7376 -0.1871
  517MOL0     O69691   5.773   8.850  10.170  0.1641 -0.6173 -0.2302
  517MOL0     C69692   5.899   8.885  10.222 -0.5556 -0.6257 -0.6956
  517MOL0     C69693   6.013   8.862  10.146 -0.6237  0.3420  0.4271
  517MOL0     C69694   6.138   8.883  10.191  0.4804 -0.2166 -1.4963
  517MOL0     C69695   6.162   8.905  10.332  0.1602 -0.1623  0.2136
  517MOL0     O69696   6.284   8.921  10.395  0.5122  0.0495  1.0239
  517MOL0     C69697   6.401   8.959  10.313  1.0675 -0.5903  0.5461
  517MOL0     C69698   6.494   9.014  10.412 -0.0949  0.4937 -0.4731
  517MOL0     C69699   6.547   8.902  10.502 -1.0913 -0.4344 -0.0574
  517MOL0     C69700   6.599   8.780  10.416 -0.0801 -1.2996  0.2019
  517MOL0     C69701   6.659   8.684  10.527 -0.7433  0.1408 -0.2171
  517MOL0     C69702   6.767   8.594  10.457 -0.1856 -0.2025 -0.7468
  517MOL0     C69703   6.698   8.501  10.349 -0.2649  0.8036 -0.0334
  517MOL0     C69704   6.777   8.378  10.331  0.5464 -0.8185  0.0428
  517MOL0    Cl69705   6.678   8.248  10.244 -0.0027  0.2023 -0.1301
  517MOL0     C69706   6.045   8.908  10.417 -0.4702  0.3005 -0.7371
  517MOL0     C69707   5.920   8.903  10.359 -0.2069  0.4543 -0.0557
  517MOL0     O69708   5.755   9.037  10.043 -0.1386  0.5993 -0.5006
  517MOL0     C69709   5.498   8.999   9.961 -0.2762 -0.1647  0.3850
  517MOL0     C69710   5.358   8.996   9.948  0.4377 -1.0153 -0.4062
  517MOL0     N69711   5.102   8.489  10.280 -0.1399 -0.4368  0.2330
  517MOL0     N69712   5.197   8.403  10.291  0.1477 -0.0703 -0.2481
  517MOL0     C69713   6.318   8.631  10.002  0.0472  0.3244 -0.1533
  517MOL0     C69714   6.450   8.585  10.039  0.0679 -0.1618  0.4118
  517MOL0     C69715   6.892   8.600  10.009  0.0750  0.1966 -0.2255
  517MOL0     C69716   6.961   8.715  10.053 -0.7120 -0.6193  0.2059
  517MOL0     C69717   7.093   8.691  10.094  0.5577 -0.3239 -0.0806
  517MOL0     C69718   7.143   8.558  10.112  0.7589 -0.4573  0.6983
  517MOL0     O69719   7.269   8.525  10.159 -0.2082 -0.4373 -0.0585
  517MOL0     C69720   7.330   8.617  10.255  0.2795 -0.2517 -0.1490
  517MOL0     C69721   7.411   8.537  10.360  1.1562 -0.3930 -0.1708
  517MOL0     C69722   7.543   8.509  10.297 -0.7746 -0.2064  0.1458
  517MOL0     C69723   7.635   8.635  10.288  1.1378 -0.0676  0.1593
  517MOL0     C69724   7.764   8.583  10.283 -0.3247 -0.1471  0.2026
  517MOL0     C69725   7.865   8.516  10.272 -0.6389  0.4005 -0.7796
  517MOL0     C69726   7.064   8.452  10.073 -0.9581 -1.0806 -0.1104
  517MOL0     C69727   6.941   8.473  10.019  0.3656  0.4602 -0.1815
  517MOL0     H69728   6.557   8.515   9.716  1.5171  2.0377  0.0687
  517MOL0     H69729   6.330   8.584   9.661  1.8680  2.1133 -0.7021
  517MOL0     H69730   6.013   8.566   9.717 -0.6146 -0.2491  0.9578
  517MOL0     H69731   6.093   8.453   9.806 -0.0319 -0.9107 -0.2247
  517MOL0     H69732   5.964   8.547  10.016  2.4450 -0.2319 -1.0696
  517MOL0     H69733   5.871   8.637   9.898  1.6085  1.4506  2.0540
  517MOL0     H69734   5.802   8.448   9.791  2.7925 -1.1261 -0.4280
  517MOL0     H69735   5.885   8.345   9.907  1.8155 -0.1322 -2.2583
  517MOL0     H69736   5.742   8.452  10.088 -1.9328 -3.1830  1.2892
  517MOL0     H69737   5.657   8.540   9.973  1.4018  0.7619  2.9846
  517MOL0     H69738   5.571   8.328   9.870  3.1129 -0.6396 -0.9113
  517MOL0     H69739   5.678   8.244   9.988  0.6792  0.1508 -1.5974
  517MOL0     H69740   5.516   8.332  10.172  0.6262 -2.2349 -0.0677
  517MOL0     H69741   5.424   8.428  10.041 -1.1052 -1.4931 -0.7304
  517MOL0     H69742   5.328   8.233   9.955 -2.1292 -2.7049 -0.0258
  517MOL0     H69743   5.443   8.126  10.039  0.2928  0.3970 -2.0933
  517MOL0     H69744   5.354   8.180  10.244 -1.6137 -0.9049 -0.1211
  517MOL0     H69745   5.222   8.116  10.143 -1.8682 -0.1695  1.0839
  517MOL0     H69746   5.020   8.288  10.040 -2.7981 -0.6750  2.3760
  517MOL0     H69747   4.817   8.485  10.130  0.4325  0.1376  1.1083
  517MOL0     H69748   4.899   8.626  10.189  2.0077  0.5756 -0.3531
  517MOL0     H69749   4.822   8.636   9.950  0.0747  1.6632  2.8438
  517MOL0     H69750   4.931   8.497   9.911 -4.0483 -0.8174 -0.7284
  517MOL0     H69751   5.035   8.707   9.831 -0.1030  1.1997  0.4974
  517MOL0     H69752   5.134   8.635   9.951  0.8413  0.3811 -1.1437
  517MOL0     H69753   5.043   8.780  10.114  3.0469  1.4008  0.0679
  517MOL0     H69754   4.949   8.860   9.973  0.7534  0.9925  2.6504
  517MOL0     H69755   5.269   8.727  10.126 -0.1230  0.3310 -0.4122
  517MOL0     H69756   5.553   8.746  10.285  0.4734 -0.2992  0.5311
  517MOL0     H69757   5.458   8.609  10.222  0.8072 -1.7699 -0.9646
  517MOL0     H69758   5.612   8.641  10.152 -1.1195 -1.7461  1.2683
  517MOL0     H69759   6.007   8.823  10.045 -0.7853 -0.9679  0.9302
  517MOL0     H69760   6.221   8.876  10.122  2.9610  1.5713  1.0881
  517MOL0     H69761   6.433   8.878  10.247  0.9377  0.4758 -0.8771
  517MOL0     H69762   6.381   9.045  10.248 -3.4761 -1.6329  0.2064
  517MOL0     H69763   6.572   9.058  10.350 -0.3454  0.8134 -0.5683
  517MOL0     H69764   6.445   9.088  10.476  0.8270  0.1643  0.6475
  517MOL0     H69765   6.468   8.874  10.573 -2.4915  2.9043 -0.1109
  517MOL0     H69766   6.633   8.943  10.556 -0.6020 -2.8914  1.1776
  517MOL0     H69767   6.516   8.733  10.361  1.6742 -1.4612 -2.5042
  517MOL0     H69768   6.680   8.808  10.348 -0.9012 -1.6603 -0.9582
  517MOL0     H69769   6.575   8.628  10.568 -1.5562  0.8431 -0.8873
  517MOL0     H69770   6.716   8.728  10.610 -0.9619 -0.7416  0.4123
  517MOL0     H69771   6.845   8.658  10.415 -1.1860  1.6258  0.0686
  517MOL0     H69772   6.812   8.528  10.531 -0.9881 -0.2591 -0.2927
  517MOL0     H69773   6.687   8.556  10.256  1.3386  0.2897 -0.5621
  517MOL0     H69774   6.603   8.454  10.378  0.8262 -1.1546  0.5492
  517MOL0     H69775   6.792   8.326  10.426 -2.8751  0.7692  1.6423
  517MOL0     H69776   6.867   8.404  10.276  0.7551 -1.7819 -0.0856
  517MOL0     H69777   6.051   8.918  10.525  1.1929  0.3019 -0.8076
  517MOL0     H69778   5.823   8.900  10.409 -1.0622  1.3948 -1.5828
  517MOL0     H69779   5.563   9.079   9.925 -0.3244  1.4754  3.5992
  517MOL0     H69780   5.311   9.069   9.882  0.3638  1.0581  1.8036
  517MOL0     H69781   6.257   8.656  10.088  1.2038  2.8896  0.0249
  517MOL0     H69782   6.496   8.607  10.135 -1.5187 -0.1891  1.2176
  517MOL0     H69783   6.921   8.816  10.058  2.8522  0.9099  0.9655
  517MOL0     H69784   7.157   8.773  10.125 -1.5604  0.3964  2.7766
  517MOL0     H69785   7.399   8.683  10.202  0.5696  0.7640  1.4270
  517MOL0     H69786   7.259   8.681  10.308  2.1743  1.3970  0.5104
  517MOL0     H69787   7.362   8.450  10.405  1.7027 -0.1112  1.0321
  517MOL0     H69788   7.422   8.614  10.437  2.3874  0.4371 -1.1509
  517MOL0     H69789   7.535   8.465  10.197 -1.5332 -0.9275  0.5143
  517MOL0     H69790   7.595   8.448  10.371 -1.6866 -0.5292  0.5330
  517MOL0     H69791   7.616   8.694  10.378 -1.2083  0.3493 -0.5632
  517MOL0     H69792   7.614   8.698  10.202  2.1225  1.5477  1.0525
  517MOL0     H69793   7.960   8.471  10.289 -1.6411 -0.8190  2.1405
  517MOL0     H69794   7.097   8.350  10.084 -3.3048 -1.7426  1.8020
  517MOL0     H69795   6.892   8.379   9.993  1.5688 -1.0230  2.4732
  518MOL0     O69796  10.935   6.858   8.321  0.0748 -0.5856 -0.0853
  518MOL0     C69797  10.942   6.946   8.399  0.2626 -0.6019 -0.5871
  518MOL0     O69798  11.051   6.979   8.473  0.3576 -0.2281  0.2294
  518MOL0     C69799  11.171   6.915   8.464  0.3163  0.0115 -0.3309
  518MOL0     C69800  11.187   6.783   8.415 -1.3157  0.3399  0.1417
  518MOL0     C69801  11.313   6.725   8.410 -0.5617 -0.1173  0.0452
  518MOL0     C69802  11.431   6.800   8.423 -0.4239  0.4983  0.1162
  518MOL0     O69803  11.554   6.741   8.420  0.5425  0.1123  0.2074
  518MOL0     C69804  11.664   6.829   8.378  0.5493 -0.5035  0.3473
  518MOL0     C69805  11.803   6.759   8.364  0.1411 -0.8888  0.6616
  518MOL0     C69806  11.843   6.746   8.221 -0.0737 -0.4328  0.6897
  518MOL0     C69807  11.975   6.658   8.198 -0.1474  0.2585  0.0685
  518MOL0     C69808  12.095   6.724   8.269 -1.3064  0.1616  0.8580
  518MOL0     C69809  12.222   6.679   8.196  0.2818  0.1662 -0.9060
  518MOL0     C69810  12.253   6.763   8.078 -0.4982 -0.5544  0.5316
  518MOL0     C69811  12.381   6.698   8.014 -0.5856 -0.0348 -0.4474
  518MOL0     N69812  12.399   6.719   7.869 -1.1056  0.8159 -0.2712
  518MOL0     C69813  12.326   6.799   7.791 -0.6146 -0.5318  0.4805
  518MOL0     C69814  12.370   6.774   7.661 -0.0892 -1.0459  0.2588
  518MOL0     C69815  12.304   6.840   7.541  0.1498 -0.3398  0.0428
  518MOL0     C69816  12.152   6.824   7.543  0.7884  1.1072 -0.0416
  518MOL0     C69817  12.087   6.859   7.407 -0.0009  0.1093 -0.0385
  518MOL0     C69818  11.938   6.820   7.411  1.6197 -0.9435  0.4441
  518MOL0     O69819  11.872   6.853   7.293 -0.3083  0.9203  0.2509
  518MOL0     C69820  11.733   6.872   7.301 -0.7585  0.7835  0.5896
  518MOL0     C69821  11.652   6.814   7.406 -0.5700  0.1694 -0.1776
  518MOL0     C69822  11.511   6.826   7.412 -1.1101 -0.4337  0.4944
  518MOL0     C69823  11.442   6.776   7.539  0.4231 -0.3088  0.1308
  518MOL0     C69824  11.453   6.908   7.308 -0.0632  0.3139 -0.5122
  518MOL0     C69825  11.308   6.916   7.300  0.2112  0.2220 -0.1374
  518MOL0     O69826  11.237   6.914   7.413 -0.2505 -0.3224 -0.0370
  518MOL0     C69827  11.099   6.935   7.416  0.0962  0.8853 -0.6943
  518MOL0     C69828  11.013   6.846   7.491  0.6954  0.2877 -0.6740
  518MOL0     C69829  10.871   6.846   7.475 -0.8526 -0.5006 -0.6572
  518MOL0     C69830  10.805   6.936   7.395 -0.1361 -0.1770  0.0995
  518MOL0     O69831  10.672   6.932   7.368  0.1183  0.6466  0.4418
  518MOL0     C69832  10.586   6.955   7.479 -0.6503  0.2665 -0.0233
  518MOL0     C69833  10.444   7.002   7.434  0.3735  0.8481 -0.6023
  518MOL0     C69834  10.358   7.044   7.553  0.2411 -0.0124 -1.1669
  518MOL0     C69835  10.221   7.111   7.519 -0.2056  0.2830  0.3451
  518MOL0     C69836  10.164   7.183   7.641  0.1119 -0.4118  0.3782
  518MOL0     C69837  10.017   7.229   7.640 -0.1144 -0.1858  0.0109
  518MOL0     C69838   9.989   7.309   7.512  0.1559  0.3560  0.3181
  518MOL0     C69839   9.851   7.336   7.480 -0.2834 -0.1768  0.4989
  518MOL0    Cl69840   9.759   7.183   7.461  0.4011 -0.0364  0.3103
  518MOL0     C69841  10.890   7.022   7.320  0.6718  0.3198 -0.0302
  518MOL0     C69842  11.027   7.020   7.335 -0.7321 -0.1833 -0.0039
  518MOL0     O69843  11.264   6.917   7.186  0.3816  0.2868 -0.1849
  518MOL0     C69844  11.535   6.965   7.200  0.3820  0.3529 -0.2233
  518MOL0     C69845  11.670   6.940   7.200  0.9519  0.2490 -0.0694
  518MOL0     N69846  12.467   6.673   7.664  0.3261  0.3083  0.2812
  518MOL0     N69847  12.477   6.638   7.789  0.2038  0.1685 -0.4088
  518MOL0     C69848  11.409   6.931   8.465  0.2919  0.1156  0.6218
  518MOL0     C69849  11.288   6.988   8.493 -0.9238 -0.8074 -0.1843
  518MOL0     C69850  10.811   7.006   8.434 -0.1625  0.6366  0.1461
  518MOL0     C69851  10.699   6.988   8.356  0.1870  0.0245 -0.7606
  518MOL0     C69852  10.575   7.036   8.399 -0.5427  0.3319  0.4829
  518MOL0     C69853  10.566   7.109   8.514  0.1240  0.1905 -0.3307
  518MOL0     O69854  10.454   7.149   8.579  0.2030  0.2783  0.7331
  518MOL0     C69855  10.324   7.136   8.506 -1.0910 -0.2183 -0.1470
  518MOL0     C69856  10.223   7.214   8.584  0.8542  0.4667 -0.6277
  518MOL0     C69857  10.092   7.213   8.499 -0.3079  0.0578  0.3721
  518MOL0     C69858  10.000   7.314   8.563  0.0945 -0.3219 -0.6777
  518MOL0     C69859   9.861   7.313   8.514  0.0972  0.0238  0.2997
  518MOL0     C69860   9.750   7.316   8.466 -0.1914 -0.0299 -0.1244
  518MOL0     C69861  10.683   7.142   8.590 -0.8985 -0.7085  0.3973
  518MOL0     C69862  10.808   7.086   8.547  0.6381  0.0154 -0.3665
  518MOL0     H69863  11.099   6.720   8.401 -3.0085  2.5336  0.3566
  518MOL0     H69864  11.324   6.621   8.381  0.3908  0.2594 -1.0179
  518MOL0     H69865  11.630   6.875   8.284  2.5055  1.0169  0.3286
  518MOL0     H69866  11.669   6.913   8.447 -0.7121  0.7970 -1.0791
  518MOL0     H69867  11.883   6.816   8.412  0.2166 -2.0403  1.9492
  518MOL0     H69868  11.800   6.664   8.419 -0.4606  0.8410  3.8703
  518MOL0     H69869  11.758   6.692   8.180  0.0795  0.6914 -1.2254
  518MOL0     H69870  11.853   6.839   8.164  2.5438 -1.5436 -0.8386
  518MOL0     H69871  11.959   6.554   8.226  2.3998 -0.6260 -1.3866
  518MOL0     H69872  11.984   6.657   8.089  1.1932 -1.3139  0.1502
  518MOL0     H69873  12.088   6.833   8.268 -1.9439  0.1454 -1.6561
  518MOL0     H69874  12.092   6.684   8.371  0.5313  0.3645  1.0309
  518MOL0     H69875  12.294   6.708   8.274  0.6426  1.4908 -1.6928
  518MOL0     H69876  12.225   6.571   8.185 -2.7743 -0.3002  1.4645
  518MOL0     H69877  12.166   6.768   8.012  0.1746  0.1637 -0.3336
  518MOL0     H69878  12.265   6.868   8.108 -2.1742  0.3751 -1.7101
  518MOL0     H69879  12.386   6.589   8.029 -0.4717 -0.1949 -1.5575
  518MOL0     H69880  12.468   6.736   8.069 -0.4078  1.4963 -1.7336
  518MOL0     H69881  12.257   6.877   7.822 -3.1004 -1.3944 -2.3863
  518MOL0     H69882  12.335   6.945   7.530  1.3488 -0.9267 -3.5197
  518MOL0     H69883  12.340   6.792   7.450 -0.9525  3.5638 -2.7367
  518MOL0     H69884  12.116   6.894   7.620  0.0007 -1.6056  2.2035
  518MOL0     H69885  12.125   6.724   7.578 -0.3150  1.8778  1.4442
  518MOL0     H69886  12.129   6.806   7.321 -1.7378  0.4282 -1.1284
  518MOL0     H69887  12.099   6.966   7.390 -1.0652  0.2865  0.2449
  518MOL0     H69888  11.894   6.866   7.500  0.2934 -1.0589 -0.1276
  518MOL0     H69889  11.930   6.713   7.431  1.3375 -1.5136 -2.2846
  518MOL0     H69890  11.705   6.781   7.495 -0.3740  1.6683  0.2899
  518MOL0     H69891  11.508   6.742   7.619 -1.1823 -3.3758  0.3319
  518MOL0     H69892  11.385   6.860   7.580  0.5823  0.5773 -1.4175
  518MOL0     H69893  11.379   6.686   7.536  1.2020 -0.8750  0.3074
  518MOL0     H69894  11.072   6.785   7.558 -0.8403  0.5943  1.0540
  518MOL0     H69895  10.804   6.790   7.539 -1.8388  0.2662 -0.9743
  518MOL0     H69896  10.587   6.865   7.540 -2.1906 -1.6808 -2.6427
  518MOL0     H69897  10.633   7.035   7.537 -0.0412  0.8142 -1.2162
  518MOL0     H69898  10.448   7.089   7.369 -1.2324  1.7675  0.4503
  518MOL0     H69899  10.399   6.908   7.400  1.8598 -0.8248  1.7046
  518MOL0     H69900  10.417   7.104   7.623  0.0523  0.1347 -1.1347
  518MOL0     H69901  10.327   6.955   7.610  0.6036  1.9760  2.4219
  518MOL0     H69902  10.231   7.189   7.442  0.8788  0.8996  1.0789
  518MOL0     H69903  10.145   7.041   7.484  1.4153 -1.3000 -0.1950
  518MOL0     H69904  10.227   7.272   7.656 -3.5078  2.2977  0.9901
  518MOL0     H69905  10.165   7.116   7.727  0.7746 -3.1454 -1.6388
  518MOL0     H69906   9.950   7.149   7.672  1.4418 -1.4457  0.2072
  518MOL0     H69907  10.012   7.301   7.723  2.4145  0.4392 -0.2952
  518MOL0     H69908  10.032   7.257   7.426 -0.1288  0.4830  0.0944
  518MOL0     H69909  10.034   7.409   7.523 -2.5167  1.8477 -1.1386
  518MOL0     H69910   9.847   7.388   7.384  0.3269 -0.1408  0.4951
  518MOL0     H69911   9.799   7.393   7.558 -0.5855 -0.6079  0.6148
  518MOL0     H69912  10.847   7.089   7.245  2.1560  4.5033  2.5045
  518MOL0     H69913  11.088   7.083   7.272  2.5975 -1.3831  1.7729
  518MOL0     H69914  11.484   7.017   7.120  1.2604  1.9785  0.2317
  518MOL0     H69915  11.730   6.982   7.120 -0.4723 -0.5956 -1.6468
  518MOL0     H69916  11.491   6.994   8.498 -0.7452  0.4104  2.8398
  518MOL0     H69917  11.265   7.082   8.542 -0.4318 -0.5079 -0.5224
  518MOL0     H69918  10.709   6.931   8.264  3.2401 -1.0917  0.1298
  518MOL0     H69919  10.488   7.011   8.339  1.6039 -1.2163 -2.2359
  518MOL0     H69920  10.342   7.175   8.406 -4.8587 -0.9347 -1.2735
  518MOL0     H69921  10.294   7.031   8.512  0.1454 -0.5805 -0.1126
  518MOL0     H69922  10.253   7.315   8.612  1.6776  0.3045 -0.8948
  518MOL0     H69923  10.209   7.170   8.683 -4.4918  1.0550 -0.8131
  518MOL0     H69924  10.055   7.111   8.488  0.5599 -0.1588 -0.7969
  518MOL0     H69925  10.110   7.230   8.392  0.9770 -0.7342  0.4421
  518MOL0     H69926  10.041   7.410   8.530  0.9413 -0.3325  0.2989
  518MOL0     H69927  10.000   7.316   8.673  2.1536  0.3738 -0.6426
  518MOL0     H69928   9.656   7.329   8.416 -0.6152 -1.0707  0.3709
  518MOL0     H69929  10.677   7.205   8.678  0.5019  1.7100 -1.1330
  518MOL0     H69930  10.890   7.088   8.618  0.5251 -3.0584  0.0023
  519MOL0     O69931   4.909   7.786  11.024 -0.6294  0.1567 -0.4362
  519MOL0     C69932   4.907   7.677  10.961  0.1262 -0.0062 -0.2160
  519MOL0     O69933   4.869   7.553  11.014  0.4771 -0.0780  0.3849
  519MOL0     C69934   4.801   7.545  11.131 -0.4633  0.2018 -0.4766
  519MOL0     C69935   4.668   7.588  11.148  0.3936  0.0106 -0.3325
  519MOL0     C69936   4.606   7.579  11.274 -0.4596 -0.1973 -0.2091
  519MOL0     C69937   4.672   7.507  11.376 -0.3444 -1.0606  0.0369
  519MOL0     O69938   4.623   7.475  11.500 -0.0846 -0.3460  0.6989
  519MOL0     C69939   4.504   7.540  11.549  0.9678  0.0228 -0.3687
  519MOL0     C69940   4.472   7.486  11.690 -0.1938  1.0747 -0.2061
  519MOL0     C69941   4.450   7.334  11.694  0.0281 -0.4797 -0.3991
  519MOL0     C69942   4.409   7.306  11.840  0.9009  0.6953 -0.1856
  519MOL0     C69943   4.394   7.150  11.867 -0.5355  0.2129 -0.4007
  519MOL0     C69944   4.265   7.093  11.798 -0.4467 -0.4810  0.4898
  519MOL0     C69945   4.221   6.959  11.853 -0.4044 -1.1096 -0.4411
  519MOL0     C69946   4.329   6.852  11.848 -0.6792  0.2106  0.4053
  519MOL0     N69947   4.339   6.819  11.708 -0.4373  0.6103 -0.5683
  519MOL0     C69948   4.235   6.793  11.624 -0.9171 -0.5852  0.2516
  519MOL0     C69949   4.281   6.777  11.504 -0.6964  0.3347  1.1715
  519MOL0     C69950   4.197   6.752  11.372 -0.4777 -0.0964  0.3863
  519MOL0     C69951   4.158   6.601  11.363 -0.8838 -0.2835  0.3834
  519MOL0     C69952   4.083   6.552  11.235 -0.1117 -0.0423  0.2278
  519MOL0     C69953   3.999   6.664  11.180 -0.6155 -1.0573 -0.0497
  519MOL0     O69954   4.088   6.751  11.107 -0.2496  0.2317  0.5816
  519MOL0     C69955   4.036   6.861  11.048 -0.0856 -0.6404  1.1338
  519MOL0     C69956   4.114   6.943  10.971 -0.3669 -0.5122  0.4483
  519MOL0     C69957   4.064   7.057  10.910  0.6226 -0.1410 -0.3315
  519MOL0     C69958   4.165   7.143  10.843  0.0140 -0.3529  0.6633
  519MOL0     C69959   3.923   7.093  10.909  0.1331  0.5710 -0.1363
  519MOL0     C69960   3.856   7.208  10.847  0.6318  0.3656  0.2896
  519MOL0     O69961   3.720   7.188  10.817 -0.5694 -0.1652  0.0855
  519MOL0     C69962   3.649   7.259  10.724  0.3382 -0.0409  0.7542
  519MOL0     C69963   3.506   7.273  10.739  0.5065  0.0541 -0.0005
  519MOL0     C69964   3.431   7.350  10.649  0.3390  0.1133 -0.1412
  519MOL0     C69965   3.491   7.405  10.537 -0.1571 -0.0490 -0.4926
  519MOL0     O69966   3.422   7.464  10.436 -0.2501 -0.6356  0.0882
  519MOL0     C69967   3.282   7.437  10.417  1.1352  0.4612  0.0816
  519MOL0     C69968   3.256   7.475  10.272  1.0179 -0.2624  0.3724
  519MOL0     C69969   3.128   7.447  10.213 -0.3183  0.0402 -0.5460
  519MOL0     C69970   3.122   7.293  10.177 -0.0522 -0.2462 -0.9895
  519MOL0     C69971   2.991   7.252  10.121  0.6399 -0.1097  0.1944
  519MOL0     C69972   2.881   7.269  10.228  0.1055 -0.5060  0.2984
  519MOL0     C69973   2.740   7.259  10.177 -0.1992 -0.5343 -0.7078
  519MOL0     C69974   2.687   7.392  10.108  0.6617 -1.5740  0.2470
  519MOL0    Cl69975   2.506   7.390  10.095 -0.5126  0.3558  0.1269
  519MOL0     C69976   3.630   7.396  10.526  0.3931 -0.4297 -0.2272
  519MOL0     C69977   3.712   7.330  10.620 -0.9281 -0.0079  0.3457
  519MOL0     O69978   3.923   7.305  10.832 -0.5626 -0.1121 -0.2771
  519MOL0     C69979   3.843   7.000  10.979 -0.4122  0.5699 -0.2117
  519MOL0     C69980   3.900   6.893  11.057  0.1694  0.5191  1.2821
  519MOL0     N69981   4.416   6.820  11.503  0.5732 -0.6129 -0.3700
  519MOL0     N69982   4.448   6.842  11.630  0.0385 -0.0530  0.3739
  519MOL0     C69983   4.804   7.469  11.356 -0.2446 -0.5003  0.0843
  519MOL0     C69984   4.874   7.483  11.228 -0.6698 -0.2839 -0.5591
  519MOL0     C69985   4.966   7.688  10.823  0.6219 -0.4585  0.5186
  519MOL0     C69986   4.943   7.582  10.727  0.3151 -0.1029 -0.0579
  519MOL0     C69987   4.966   7.600  10.590  0.2504 -0.8933 -0.3227
  519MOL0     C69988   5.027   7.715  10.541 -0.3545 -0.4742  0.9755
  519MOL0     O69989   5.032   7.724  10.405 -1.1066  0.4871 -0.1774
  519MOL0     C69990   5.073   7.843  10.338 -0.6851 -0.3155 -0.1893
  519MOL0     C69991   5.229   7.860  10.337  1.6909 -0.1066 -0.3549
  519MOL0     C69992   5.285   7.811  10.214  0.3381 -0.2157 -0.0464
  519MOL0     C69993   5.443   7.812  10.221 -0.1541 -0.2713  0.5763
  519MOL0     C69994   5.509   7.770  10.097 -0.9657  0.0908  0.3107
  519MOL0     C69995   5.577   7.729  10.003  0.3871 -0.1936  0.2124
  519MOL0     C69996   5.057   7.816  10.637  0.2202 -0.5510 -0.2600
  519MOL0     C69997   5.026   7.807  10.771  0.0593  0.7143 -0.0009
  519MOL0     H69998   4.608   7.628  11.066 -3.6844 -2.4822  1.1020
  519MOL0     H69999   4.505   7.616  11.284  0.7504  3.3671  0.3286
  519MOL0     H70000   4.533   7.645  11.547  2.5015 -0.3847 -1.7342
  519MOL0     H70001   4.415   7.529  11.487 -1.7822  4.3763  2.2831
  519MOL0     H70002   4.552   7.514  11.758  2.9850 -3.6756 -1.4731
  519MOL0     H70003   4.382   7.537  11.726 -0.4892 -0.2766  1.0952
  519MOL0     H70004   4.383   7.307  11.613  2.2910  0.4233 -2.7132
  519MOL0     H70005   4.543   7.279  11.679 -0.1952 -1.0182  0.1478
  519MOL0     H70006   4.487   7.352  11.902  0.2333 -0.3440  1.5021
  519MOL0     H70007   4.313   7.353  11.863 -0.5759 -0.4996 -3.3473
  519MOL0     H70008   4.478   7.102  11.817 -2.3884  1.0022 -4.6684
  519MOL0     H70009   4.383   7.132  11.975 -0.6776  4.0336  0.3862
  519MOL0     H70010   4.178   7.159  11.815 -0.8513 -1.6827  4.0799
  519MOL0     H70011   4.282   7.074  11.692  2.9340  0.2850  0.8019
  519MOL0     H70012   4.200   6.985  11.957 -0.2987 -0.1075 -0.6615
  519MOL0     H70013   4.125   6.921  11.817 -0.1529 -1.6619 -0.5346
  519MOL0     H70014   4.298   6.770  11.914 -0.9190 -0.0800 -0.0566
  519MOL0     H70015   4.419   6.881  11.902 -1.2036  1.6281  0.5768
  519MOL0     H70016   4.130   6.783  11.649 -1.4464 -1.6560 -2.0598
  519MOL0     H70017   4.110   6.819  11.365  0.4969  1.0315 -2.6826
  519MOL0     H70018   4.263   6.767  11.286 -0.1820 -0.9104  0.4617
  519MOL0     H70019   4.103   6.586  11.456 -0.6297  3.0488  1.2214
  519MOL0     H70020   4.252   6.545  11.366 -0.0100  1.1847  2.4942
  519MOL0     H70021   4.027   6.460  11.256 -1.1715  0.2448 -1.1329
  519MOL0     H70022   4.155   6.522  11.158 -2.2279 -1.8287 -1.2173
  519MOL0     H70023   3.935   6.711  11.255  0.8937  1.2899 -0.1072
  519MOL0     H70024   3.927   6.627  11.107 -0.9177 -0.0638 -0.2764
  519MOL0     H70025   4.216   6.909  10.956  0.1554  0.1693  2.1220
  519MOL0     H70026   4.167   7.244  10.885 -0.3666 -1.0753  2.5051
  519MOL0     H70027   4.268   7.109  10.855  0.3431 -0.5900 -2.1727
  519MOL0     H70028   4.136   7.146  10.737 -4.6759  0.4276  1.7520
  519MOL0     H70029   3.467   7.219  10.825 -3.0140 -0.7136 -1.8636
  519MOL0     H70030   3.327   7.354  10.678 -0.0335  1.0678 -1.5404
  519MOL0     H70031   3.258   7.333  10.441  3.1958 -0.0598  0.0512
  519MOL0     H70032   3.237   7.498  10.496  0.8568 -0.2409  0.4823
  519MOL0     H70033   3.266   7.583  10.264  0.5606  0.0500  3.1216
  519MOL0     H70034   3.332   7.433  10.204  0.4081 -1.2184  0.2625
  519MOL0     H70035   3.115   7.507  10.123  0.6525 -1.7026 -1.9004
  519MOL0     H70036   3.049   7.486  10.279 -0.7798 -0.4520 -0.7942
  519MOL0     H70037   3.200   7.273  10.103  0.5112 -1.1350 -0.1752
  519MOL0     H70038   3.151   7.235  10.265 -1.7885  2.9338  1.9027
  519MOL0     H70039   2.995   7.147  10.089  1.1453 -0.7323  2.1499
  519MOL0     H70040   2.967   7.314  10.034  0.4511  1.8543  1.5788
  519MOL0     H70041   2.894   7.191  10.303 -1.1981 -2.1229 -1.0634
  519MOL0     H70042   2.880   7.362  10.286 -2.7521 -1.8058  2.5458
  519MOL0     H70043   2.677   7.237  10.264  2.3433  3.9836  2.7396
  519MOL0     H70044   2.728   7.177  10.106 -0.7956  0.5560 -1.9061
  519MOL0     H70045   2.727   7.406  10.007 -0.0870  0.6716  0.2237
  519MOL0     H70046   2.695   7.481  10.172  0.2492 -0.9430 -0.5629
  519MOL0     H70047   3.670   7.437  10.433  0.5822 -0.9960 -0.3995
  519MOL0     H70048   3.820   7.319  10.613 -1.0001 -0.5234 -0.1081
  519MOL0     H70049   3.734   7.001  10.984 -0.9263 -1.9309 -4.9111
  519MOL0     H70050   3.833   6.830  11.113 -2.5932 -1.0490 -3.2089
  519MOL0     H70051   4.846   7.426  11.447 -0.0247  1.5873  1.0357
  519MOL0     H70052   4.980   7.463  11.214  0.0853  3.6707 -1.6901
  519MOL0     H70053   4.893   7.492  10.761 -0.0368  0.3545  0.6542
  519MOL0     H70054   4.930   7.533  10.513 -1.4354 -0.8678  0.4062
  519MOL0     H70055   5.039   7.838  10.234  0.6913 -0.8898 -0.6273
  519MOL0     H70056   5.031   7.933  10.384  0.2765 -0.3088  0.7243
  519MOL0     H70057   5.275   7.791  10.408  0.8721 -0.4409 -0.1429
  519MOL0     H70058   5.260   7.965  10.346  2.0398 -0.0147 -2.1336
  519MOL0     H70059   5.247   7.877  10.135 -1.1055 -1.3757 -0.3772
  519MOL0     H70060   5.249   7.709  10.198 -1.3128  0.4722 -1.0451
  519MOL0     H70061   5.476   7.738  10.295 -0.5920  0.6502  1.7366
  519MOL0     H70062   5.471   7.914  10.250 -3.6492  2.0130 -3.1780
  519MOL0     H70063   5.643   7.694   9.926  3.0100  0.3221  2.0906
  519MOL0     H70064   5.117   7.900  10.602  0.4030  0.2976  1.9657
  519MOL0     H70065   5.044   7.890  10.839 -1.2860  0.3188  0.8775
  520MOL0     O70066  10.085   2.629   3.073  0.3820 -0.4859  0.4717
  520MOL0     C70067  10.129   2.515   3.046  0.1823  0.3962 -0.1265
  520MOL0     O70068  10.061   2.412   2.985  0.3521 -0.0689 -0.0353
  520MOL0     C70069   9.933   2.427   2.945  0.3455  0.7671  0.7717
  520MOL0     C70070   9.884   2.528   2.854 -0.6584  1.0338 -0.8770
  520MOL0     C70071   9.749   2.521   2.802 -1.5735  0.0939 -0.4259
  520MOL0     C70072   9.661   2.428   2.832  0.3544  0.6133  0.6607
  520MOL0     O70073   9.543   2.434   2.773  0.2075  0.2935  0.4871
  520MOL0     C70074   9.430   2.374   2.836  0.4472 -0.1150 -1.1131
  520MOL0     C70075   9.376   2.257   2.754 -0.2653  0.3077 -0.4530
  520MOL0     C70076   9.316   2.295   2.618 -0.6027  0.0527  0.3513
  520MOL0     C70077   9.175   2.351   2.625 -0.8310  0.2158  0.0036
  520MOL0     C70078   9.068   2.263   2.682  0.2776  0.2210 -0.0464
  520MOL0     C70079   8.927   2.311   2.639 -0.3240  0.2445 -0.4501
  520MOL0     C70080   8.813   2.222   2.690 -0.7115 -0.5456  0.0685
  520MOL0     C70081   8.663   2.249   2.653  0.9058  0.1548 -0.3307
  520MOL0     N70082   8.635   2.220   2.513  0.4949 -0.8557  0.4635
  520MOL0     C70083   8.536   2.269   2.438  0.3626 -0.0896 -0.0892
  520MOL0     C70084   8.534   2.205   2.315 -1.2695  0.3517  0.9976
  520MOL0     C70085   8.434   2.208   2.193 -1.2238 -0.3951  0.2852
  520MOL0     C70086   8.298   2.256   2.227  0.1917  1.1408  0.3940
  520MOL0     C70087   8.203   2.235   2.111  0.3635 -0.2771 -0.7646
  520MOL0     C70088   8.076   2.310   2.152  0.9152 -0.5996 -1.0255
  520MOL0     O70089   8.083   2.455   2.141  0.1675  0.0692  0.3431
  520MOL0     C70090   7.992   2.532   2.196  0.6697 -0.1909 -0.7418
  520MOL0     C70091   7.908   2.494   2.299 -0.2944  0.1868 -0.5184
  520MOL0     C70092   7.819   2.583   2.373  0.0722  0.0420 -0.1496
  520MOL0     C70093   7.755   2.535   2.502  0.1671  0.2659 -0.6127
  520MOL0     C70094   7.790   2.711   2.314 -0.5513  0.5939  1.0840
  520MOL0     C70095   7.678   2.797   2.356 -0.8488 -0.9439  0.4669
  520MOL0     O70096   7.688   2.930   2.305 -0.3205  0.0170 -0.1827
  520MOL0     C70097   7.582   3.008   2.337  0.6341  0.7206  0.3699
  520MOL0     C70098   7.595   3.116   2.427 -0.2922 -0.2219 -0.2033
  520MOL0     C70099   7.496   3.215   2.435 -0.1920  0.6813  0.0394
  520MOL0     C70100   7.373   3.197   2.376 -0.0008 -0.0562  0.1778
  520MOL0     O70101   7.281   3.295   2.398 -0.1777  0.2639 -0.3699
  520MOL0     C70102   7.171   3.288   2.307 -0.0544  0.7851 -0.2998
  520MOL0     C70103   7.076   3.400   2.322  0.5607 -0.0766  0.0155
  520MOL0     C70104   6.942   3.358   2.259  0.1881  0.1305 -0.6298
  520MOL0     C70105   6.836   3.457   2.301  0.7948 -0.2688 -0.1726
  520MOL0     C70106   6.698   3.425   2.230  0.0772 -0.1980 -0.9829
  520MOL0     C70107   6.591   3.361   2.312  0.2662 -0.0323 -0.0812
  520MOL0     C70108   6.475   3.302   2.223  0.3912 -0.1466 -0.4746
  520MOL0     C70109   6.375   3.233   2.322  0.1370 -0.4606  0.7241
  520MOL0    Cl70110   6.222   3.198   2.237 -0.1349  0.0128 -0.5540
  520MOL0     C70111   7.362   3.085   2.286  0.1655 -0.4597  0.2116
  520MOL0     C70112   7.459   2.992   2.273  0.0660  0.1868  0.3104
  520MOL0     O70113   7.590   2.755   2.431 -0.1840 -0.3566  0.1178
  520MOL0     C70114   7.875   2.745   2.206  0.6287  0.6812  0.6922
  520MOL0     C70115   7.976   2.666   2.156 -0.6217  0.6586 -0.5660
  520MOL0     N70116   8.639   2.120   2.325  0.2142  0.1215  0.5166
  520MOL0     N70117   8.684   2.112   2.441  0.1076 -0.2111  0.3467
  520MOL0     C70118   9.703   2.329   2.922 -0.3791  0.2304  0.1366
  520MOL0     C70119   9.834   2.334   2.974  0.9233 -0.1208 -0.6915
  520MOL0     C70120  10.264   2.491   3.110 -0.0661 -0.1159 -0.4127
  520MOL0     C70121  10.343   2.595   3.163  0.4268 -0.7678  0.0467
  520MOL0     C70122  10.476   2.561   3.209  0.0103 -0.4046 -0.0619
  520MOL0     C70123  10.519   2.431   3.216  0.3820 -0.2920 -0.8874
  520MOL0     O70124  10.643   2.410   3.274  0.6656 -0.0521 -0.0965
  520MOL0     C70125  10.678   2.308   3.367 -0.3895 -0.2769 -0.3353
  520MOL0     C70126  10.830   2.325   3.393 -0.4613 -0.0765 -0.4817
  520MOL0     C70127  10.931   2.284   3.283  0.1180 -0.9292  0.0172
  520MOL0     C70128  10.931   2.142   3.234 -0.8750 -0.2185  0.8714
  520MOL0     C70129  11.009   2.050   3.324  0.2472  0.0530  0.2655
  520MOL0     C70130  11.052   1.961   3.391 -0.3818  0.6171  0.2013
  520MOL0     C70131  10.434   2.331   3.176 -0.3270  0.5978 -0.8041
  520MOL0     C70132  10.313   2.354   3.118 -0.0014 -0.4156  0.3866
  520MOL0     H70133   9.954   2.609   2.840  1.5123 -0.7300 -0.8177
  520MOL0     H70134   9.720   2.596   2.729 -1.9317  0.0210 -0.3553
  520MOL0     H70135   9.459   2.336   2.934 -0.0231  0.5337 -0.7197
  520MOL0     H70136   9.349   2.444   2.861 -0.0540 -1.0514 -0.0025
  520MOL0     H70137   9.453   2.179   2.751 -0.6015 -0.1832  1.6889
  520MOL0     H70138   9.305   2.202   2.817 -0.1488 -1.0424 -1.4535
  520MOL0     H70139   9.382   2.369   2.573  1.3446 -2.2488 -0.8022
  520MOL0     H70140   9.311   2.201   2.562 -0.2424 -0.2919  0.8853
  520MOL0     H70141   9.172   2.440   2.688 -3.8962  1.4062 -1.5688
  520MOL0     H70142   9.162   2.389   2.523  0.1256 -2.1309 -1.0815
  520MOL0     H70143   9.082   2.161   2.646 -0.2716 -0.4412  1.5222
  520MOL0     H70144   9.076   2.275   2.790  1.0802  1.2251 -0.1908
  520MOL0     H70145   8.916   2.409   2.687 -2.7049 -0.8296  1.4335
  520MOL0     H70146   8.900   2.320   2.533 -0.8595  0.9342 -0.2667
  520MOL0     H70147   8.832   2.119   2.662 -2.2496 -0.3268 -2.0441
  520MOL0     H70148   8.827   2.242   2.797  3.7566  1.7390 -0.6825
  520MOL0     H70149   8.639   2.351   2.684  1.4882 -0.1802  1.3673
  520MOL0     H70150   8.599   2.188   2.717  0.6345  0.0822 -0.6723
  520MOL0     H70151   8.459   2.340   2.469 -1.5608 -1.6080 -1.1485
  520MOL0     H70152   8.471   2.274   2.114  2.0296 -1.8090  0.4884
  520MOL0     H70153   8.435   2.112   2.140 -2.5051 -0.2713 -0.0020
  520MOL0     H70154   8.305   2.358   2.265 -0.5123  0.6670  1.8592
  520MOL0     H70155   8.264   2.187   2.305  2.9405 -0.1899  0.5268
  520MOL0     H70156   8.175   2.130   2.116  1.3624 -0.4876  1.1707
  520MOL0     H70157   8.241   2.256   2.010  1.5285 -0.5193 -0.3951
  520MOL0     H70158   8.073   2.280   2.257  2.3568  0.0603 -0.7685
  520MOL0     H70159   7.982   2.280   2.104 -1.0342 -0.0118  2.1477
  520MOL0     H70160   7.917   2.389   2.323  0.4773 -0.1465 -2.1109
  520MOL0     H70161   7.760   2.612   2.579 -2.3261  1.6703 -1.7182
  520MOL0     H70162   7.653   2.501   2.482  0.5124 -1.1957 -0.0040
  520MOL0     H70163   7.802   2.450   2.551 -0.8210 -0.4218 -0.8196
  520MOL0     H70164   7.684   3.133   2.488 -1.2715  0.6645  1.0173
  520MOL0     H70165   7.496   3.311   2.485 -1.6242 -0.4587  2.3500
  520MOL0     H70166   7.205   3.288   2.203 -1.4642  2.0588 -0.8071
  520MOL0     H70167   7.110   3.198   2.321 -1.0367  1.4382 -0.2627
  520MOL0     H70168   7.062   3.412   2.430  1.9183  1.0517  0.0974
  520MOL0     H70169   7.114   3.493   2.279 -0.3502  0.2959 -0.0112
  520MOL0     H70170   6.911   3.260   2.297 -2.7350  1.2549  0.1968
  520MOL0     H70171   6.955   3.335   2.152  3.9246 -3.9218  0.3882
  520MOL0     H70172   6.829   3.446   2.410  1.3321 -5.1567 -0.3893
  520MOL0     H70173   6.870   3.558   2.278 -1.8893  1.0096  1.0781
  520MOL0     H70174   6.714   3.349   2.153 -0.0039 -1.4720  0.2002
  520MOL0     H70175   6.656   3.515   2.185 -0.1331  1.8511  2.8943
  520MOL0     H70176   6.633   3.275   2.363 -3.1278 -1.4872  0.5538
  520MOL0     H70177   6.557   3.440   2.380 -0.3921 -1.3758  1.2084
  520MOL0     H70178   6.512   3.222   2.158  0.5046 -1.3904  1.0563
  520MOL0     H70179   6.419   3.381   2.173 -0.1049  0.1397  0.5210
  520MOL0     H70180   6.368   3.287   2.417 -0.1948  1.1998 -0.2091
  520MOL0     H70181   6.415   3.141   2.365  0.4141 -1.5768 -1.7672
  520MOL0     H70182   7.271   3.064   2.231 -0.5854 -1.6714  1.8486
  520MOL0     H70183   7.441   2.910   2.204 -0.9250  0.3249  0.3929
  520MOL0     H70184   7.855   2.846   2.169 -3.6404 -0.6208 -1.3235
  520MOL0     H70185   8.049   2.718   2.097 -0.0835  0.4794 -0.0705
  520MOL0     H70186   9.644   2.243   2.949 -2.4075  1.3105 -0.6263
  520MOL0     H70187   9.858   2.258   3.048 -1.5811 -0.5278 -0.1867
  520MOL0     H70188  10.319   2.698   3.141  1.3548 -1.2006 -3.6081
  520MOL0     H70189  10.545   2.639   3.240  1.1899 -2.9852  4.7028
  520MOL0     H70190  10.625   2.321   3.461  0.8415  1.7342  0.1309
  520MOL0     H70191  10.657   2.211   3.319  0.0491  0.2765 -1.6932
  520MOL0     H70192  10.869   2.265   3.476  0.4111  0.6710 -0.3311
  520MOL0     H70193  10.841   2.430   3.421 -1.8371 -0.1459  0.4612
  520MOL0     H70194  11.036   2.303   3.306 -0.3291  1.3347  0.4095
  520MOL0     H70195  10.906   2.347   3.198  0.4702  1.7201  1.7554
  520MOL0     H70196  10.992   2.136   3.144  1.1074  1.1716  2.0453
  520MOL0     H70197  10.831   2.102   3.217 -2.9850  4.5797  0.6145
  520MOL0     H70198  11.097   1.893   3.460 -1.7741 -0.9533 -0.3779
  520MOL0     H70199  10.458   2.226   3.181  1.7022  1.0089 -1.0021
  520MOL0     H70200  10.253   2.275   3.074 -0.3992 -1.2492  2.3433
  521MOL0     O70201   8.553  10.243   3.503  0.3484  0.0609  0.3726
  521MOL0     C70202   8.638  10.331   3.537  0.7096  0.6133  0.8972
  521MOL0     O70203   8.613  10.434   3.624 -0.1827  0.4350 -0.1290
  521MOL0     C70204   8.485  10.435   3.667  0.5254  0.5123 -0.1851
  521MOL0     C70205   8.432  10.372   3.778  0.0845  0.9675 -1.0071
  521MOL0     C70206   8.296  10.370   3.804  0.0384  1.0804  0.4502
  521MOL0     C70207   8.210  10.433   3.720  0.8402 -0.4287 -0.7530
  521MOL0     O70208   8.069  10.443   3.740  0.4342 -0.0088 -0.3346
  521MOL0     C70209   8.019  10.350   3.842  0.7614  0.5854  0.5123
  521MOL0     C70210   7.861  10.364   3.850 -0.2420 -0.4619 -0.1590
  521MOL0     C70211   7.827  10.514   3.883 -0.6744 -0.3448 -0.0819
  521MOL0     C70212   7.677  10.539   3.872 -0.5386 -0.2867 -0.8576
  521MOL0     C70213   7.636  10.684   3.920 -1.0661  0.4476  0.3938
  521MOL0     C70214   7.488  10.693   3.937 -0.1414  0.2067  0.1152
  521MOL0     C70215   7.456  10.837   3.953  0.3029 -0.1390 -0.6060
  521MOL0     C70216   7.308  10.844   3.987  0.5471 -0.1177  0.6159
  521MOL0     N70217   7.267  10.979   4.029  0.1064  0.4154 -0.3513
  521MOL0     C70218   7.286  11.036   4.152 -0.0676 -0.5089 -1.0257
  521MOL0     C70219   7.221  11.158   4.146 -0.0060 -1.1958  0.4870
  521MOL0     C70220   7.214  11.259   4.254 -0.6236  0.7502  0.3815
  521MOL0     C70221   7.216  11.404   4.191 -0.2730 -0.0958  0.8877
  521MOL0     C70222   7.210  11.502   4.314  0.1427  0.4660  0.8284
  521MOL0     C70223   7.205  11.643   4.273 -0.1923  0.0082  0.6123
  521MOL0     O70224   7.087  11.655   4.190 -0.3929  0.3691 -0.0773
  521MOL0     C70225   6.968  11.664   4.258  0.1022 -0.2834 -0.3882
  521MOL0     C70226   6.936  11.793   4.300 -0.1405  0.5683 -0.4595
  521MOL0     C70227   6.821  11.823   4.372  0.6168 -0.2600 -0.3600
  521MOL0     C70228   6.810  11.964   4.423 -0.0811  0.0287 -0.2707
  521MOL0     C70229   6.736  11.718   4.407  0.6667  0.3849 -0.0041
  521MOL0     C70230   6.617  11.746   4.490 -0.2817 -0.4787  0.3149
  521MOL0     O70231   6.552  11.867   4.474  0.1405  0.3064 -0.6265
  521MOL0     C70232   6.487  11.929   4.573 -0.0484  0.0256  0.2488
  521MOL0     C70233   6.476  12.067   4.555  0.1560 -0.5144  0.8936
  521MOL0     C70234   6.405  12.138   4.641 -0.1611 -0.2972 -0.1736
  521MOL0     C70235   6.357  12.085   4.758  0.7062  0.6538 -0.7835
  521MOL0     O70236   6.294  12.161   4.860 -0.3824 -0.0778  0.0504
  521MOL0     C70237   6.166  12.123   4.898  0.4453 -0.1473  1.4670
  521MOL0     C70238   6.081  12.229   4.953 -0.0389  0.2299 -0.4010
  521MOL0     C70239   6.140  12.276   5.085  0.0759  0.4891 -0.3640
  521MOL0     C70240   6.046  12.337   5.180  0.4433  0.5431 -0.1869
  521MOL0     C70241   6.024  12.487   5.146  0.4610  0.3420 -0.1095
  521MOL0     C70242   5.937  12.557   5.254 -0.3967 -0.4009  0.4008
  521MOL0     C70243   5.801  12.488   5.257  0.3989  0.1833 -0.5988
  521MOL0     C70244   5.698  12.569   5.342  0.1552 -0.2499 -0.5386
  521MOL0    Cl70245   5.761  12.635   5.503  0.4169 -0.2769  0.0444
  521MOL0     C70246   6.367  11.950   4.780 -0.5701  0.6491  0.1975
  521MOL0     C70247   6.416  11.870   4.680 -0.2135 -0.5628 -0.8012
  521MOL0     O70248   6.570  11.653   4.554 -0.0720  0.0150  0.0831
  521MOL0     C70249   6.771  11.587   4.362  0.6039 -0.0558 -0.3409
  521MOL0     C70250   6.886  11.556   4.287 -0.6410 -0.2651 -0.1608
  521MOL0     N70251   7.149  11.164   4.023 -0.1818 -0.0311 -0.4067
  521MOL0     N70252   7.188  11.061   3.951 -0.0934 -0.5666 -0.0242
  521MOL0     C70253   8.259  10.503   3.615 -0.3557 -0.1330 -0.0914
  521MOL0     C70254   8.389  10.503   3.584 -0.8001  0.5114  0.0449
  521MOL0     C70255   8.769  10.306   3.466 -0.7480  0.3178  0.2450
  521MOL0     C70256   8.876  10.398   3.475 -0.2164  0.7484 -0.1308
  521MOL0     C70257   8.998  10.388   3.403 -0.0474  0.0936 -0.1068
  521MOL0     C70258   9.010  10.282   3.315 -0.1918  1.0467 -1.1150
  521MOL0     O70259   9.124  10.258   3.244 -1.1626  0.8889  0.0303
  521MOL0     C70260   9.251  10.317   3.276 -0.2853 -0.1258  0.0705
  521MOL0     C70261   9.344  10.324   3.151 -1.3870 -0.3542  0.3736
  521MOL0     C70262   9.352  10.200   3.059  0.0353 -0.6987 -0.2029
  521MOL0     C70263   9.443  10.234   2.938  0.0235 -0.1900  1.1186
  521MOL0     C70264   9.403  10.155   2.816 -0.2524  0.4118  0.5930
  521MOL0     C70265   9.361  10.086   2.726  0.4320 -0.2048 -0.3421
  521MOL0     C70266   8.911  10.181   3.301 -0.0908 -0.6872 -0.7625
  521MOL0     C70267   8.796  10.200   3.376  0.6003 -0.2263  0.1188
  521MOL0     H70268   8.491  10.313   3.848  0.1575 -1.1877 -2.7750
  521MOL0     H70269   8.265  10.319   3.895  2.5212  1.1772  1.4136
  521MOL0     H70270   8.048  10.247   3.823  0.5540  0.8874 -1.6240
  521MOL0     H70271   8.061  10.374   3.940  2.3054  0.9829 -0.2186
  521MOL0     H70272   7.821  10.332   3.753  0.1557  2.2396 -1.2958
  521MOL0     H70273   7.828  10.302   3.934  2.4444 -0.8092  0.7122
  521MOL0     H70274   7.867  10.545   3.980  1.4931 -0.5472 -0.8506
  521MOL0     H70275   7.880  10.586   3.820 -0.9736  2.1306  2.3144
  521MOL0     H70276   7.635  10.526   3.772 -1.6205 -0.4362 -0.4068
  521MOL0     H70277   7.622  10.471   3.938 -3.5194 -0.9926 -3.7856
  521MOL0     H70278   7.696  10.692   4.012  1.0913 -2.3909 -0.6139
  521MOL0     H70279   7.672  10.757   3.848 -1.9803 -0.7513 -1.3346
  521MOL0     H70280   7.447  10.651   3.845  2.6900  2.4220 -2.3916
  521MOL0     H70281   7.457  10.635   4.025  2.5372 -0.2370  0.8723
  521MOL0     H70282   7.522  10.884   4.027  0.9589 -4.2089  1.6609
  521MOL0     H70283   7.470  10.885   3.855 -1.8983  1.0038 -0.4229
  521MOL0     H70284   7.278  10.771   4.063 -0.8161 -0.2760 -0.0347
  521MOL0     H70285   7.254  10.812   3.898 -1.8316  0.4140  1.7901
  521MOL0     H70286   7.329  10.993   4.242  0.8655 -0.5805 -1.4996
  521MOL0     H70287   7.126  11.232   4.314 -0.7038 -0.0684 -0.0956
  521MOL0     H70288   7.298  11.253   4.324  0.1755 -1.0691 -0.6783
  521MOL0     H70289   7.143  11.427   4.114 -2.4329 -3.4908  1.7063
  521MOL0     H70290   7.312  11.425   4.143  0.0614 -3.2472 -0.0472
  521MOL0     H70291   7.300  11.489   4.377 -0.2432  0.7877  1.4541
  521MOL0     H70292   7.125  11.469   4.375 -1.0677 -0.1346 -1.1050
  521MOL0     H70293   7.284  11.649   4.198 -1.4597 -3.4709 -1.2013
  521MOL0     H70294   7.209  11.717   4.354  1.2868 -1.9975  2.5150
  521MOL0     H70295   7.004  11.873   4.274  1.1341 -0.3451 -0.0070
  521MOL0     H70296   6.733  12.015   4.365  1.1981  0.8295 -1.3337
  521MOL0     H70297   6.792  11.968   4.530  0.2024  0.7008 -0.2447
  521MOL0     H70298   6.906  12.013   4.405  0.5011 -0.4257  1.4214
  521MOL0     H70299   6.511  12.127   4.472  1.4020 -0.8267  1.1723
  521MOL0     H70300   6.394  12.245   4.627 -5.9617 -0.6392 -0.3843
  521MOL0     H70301   6.115  12.084   4.809  1.0955  2.6681 -0.2631
  521MOL0     H70302   6.172  12.038   4.966 -1.7371 -2.2606 -0.7595
  521MOL0     H70303   6.078  12.321   4.893 -0.8161  1.8756  1.9770
  521MOL0     H70304   5.985  12.185   4.980  0.0272 -0.7420 -1.6628
  521MOL0     H70305   6.219  12.348   5.063 -0.5296  1.0410 -0.7810
  521MOL0     H70306   6.192  12.194   5.135 -0.0427  1.3266  1.1652
  521MOL0     H70307   5.962  12.268   5.190  0.7363  0.2544  0.3454
  521MOL0     H70308   6.100  12.349   5.274 -0.1107 -0.3876  0.2582
  521MOL0     H70309   5.971  12.500   5.050 -1.2816  3.1246  1.0817
  521MOL0     H70310   6.122  12.535   5.135  0.9501 -1.0297 -2.7879
  521MOL0     H70311   5.978  12.540   5.354  1.2784  0.7091 -0.0605
  521MOL0     H70312   5.921  12.661   5.225 -0.8745 -0.5009  0.2910
  521MOL0     H70313   5.814  12.390   5.305 -0.4999  1.0251  1.4722
  521MOL0     H70314   5.752  12.469   5.161 -0.2424 -1.9199  0.0811
  521MOL0     H70315   5.609  12.511   5.368 -0.8550  2.0687  1.5389
  521MOL0     H70316   5.665  12.649   5.275 -0.7990 -0.8467 -0.8043
  521MOL0     H70317   6.334  11.889   4.864 -0.7251  1.7547  0.9649
  521MOL0     H70318   6.416  11.762   4.689  0.9223 -0.6124 -1.1808
  521MOL0     H70319   6.705  11.506   4.388  0.1074  0.9944  1.9206
  521MOL0     H70320   6.906  11.460   4.239 -2.2722 -0.8711  0.2975
  521MOL0     H70321   8.188  10.551   3.549  1.1272 -1.6991 -3.0193
  521MOL0     H70322   8.417  10.570   3.503  1.4859  0.6397  0.8786
  521MOL0     H70323   8.864  10.482   3.542  0.4570 -0.2154  1.2447
  521MOL0     H70324   9.077  10.462   3.407  0.6862 -0.5141 -2.1018
  521MOL0     H70325   9.251  10.422   3.307  4.2242 -0.0896  0.6345
  521MOL0     H70326   9.302  10.255   3.351  1.4700 -0.4340 -1.3148
  521MOL0     H70327   9.441  10.359   3.187 -2.0309 -0.5783  2.4555
  521MOL0     H70328   9.305  10.406   3.090 -2.8500 -0.4355  1.1650
  521MOL0     H70329   9.251  10.166   3.034 -2.5034  4.8698  0.8745
  521MOL0     H70330   9.402  10.119   3.112 -2.7850 -0.8509  2.5411
  521MOL0     H70331   9.549  10.214   2.961  0.6472  1.6292  0.0564
  521MOL0     H70332   9.426  10.340   2.919 -3.5487 -0.4190  2.3408
  521MOL0     H70333   9.325  10.015   2.655 -0.0990  1.7602 -2.1483
  521MOL0     H70334   8.920  10.090   3.243  0.9583 -0.0282 -1.6676
  521MOL0     H70335   8.710  10.141   3.347  0.6111  0.6209 -1.7275
  522MOL0     O70336   3.533   4.495   8.769 -0.0982 -0.3192 -0.2161
  522MOL0     C70337   3.629   4.420   8.763 -0.5588 -0.0598  0.0317
  522MOL0     O70338   3.625   4.282   8.769 -0.3161  0.2152  0.2095
  522MOL0     C70339   3.506   4.212   8.758 -0.0543 -0.3288  0.2335
  522MOL0     C70340   3.382   4.258   8.712 -0.2109  0.0393  0.2415
  522MOL0     C70341   3.268   4.184   8.743 -0.6977  0.4534 -0.1343
  522MOL0     C70342   3.273   4.051   8.797  0.2590 -0.3317  0.4355
  522MOL0     O70343   3.151   3.996   8.824 -0.1453  0.4323  0.0879
  522MOL0     C70344   3.144   3.859   8.880  0.1730  0.7395  0.5075
  522MOL0     C70345   3.164   3.766   8.758  0.0914 -0.2448 -1.0817
  522MOL0     C70346   3.166   3.619   8.813 -0.6926  0.5769  0.4213
  522MOL0     C70347   3.046   3.568   8.899 -0.0462  0.8049  0.2071
  522MOL0     C70348   3.047   3.409   8.899 -0.4172 -0.1892 -0.3257
  522MOL0     C70349   2.973   3.346   9.019 -1.3663  0.5586  0.3373
  522MOL0     C70350   3.041   3.391   9.144  0.4014  0.2008  0.1092
  522MOL0     C70351   3.006   3.294   9.259  0.3006 -0.5516  0.6640
  522MOL0     N70352   2.863   3.310   9.299  0.0256 -0.1462  0.7627
  522MOL0     C70353   2.788   3.429   9.300 -0.0717  0.5861  0.2666
  522MOL0     C70354   2.670   3.397   9.349  0.5653 -0.5723 -1.0543
  522MOL0     C70355   2.557   3.478   9.390 -0.2412  0.1716 -0.6647
  522MOL0     C70356   2.491   3.534   9.268 -0.9179  0.0522  0.4752
  522MOL0     C70357   2.355   3.606   9.306 -0.2562  0.1343 -1.0126
  522MOL0     C70358   2.275   3.674   9.186 -0.3052 -0.4503 -0.4805
  522MOL0     O70359   2.137   3.683   9.211  0.4732 -0.1051 -0.3564
  522MOL0     C70360   2.046   3.592   9.150 -0.7158  0.4218  0.0760
  522MOL0     C70361   1.915   3.627   9.178 -0.1940  1.1918 -0.6415
  522MOL0     C70362   1.801   3.546   9.151 -1.0923  0.6636 -0.3548
  522MOL0     C70363   1.671   3.600   9.208 -0.8826  1.7406 -0.4491
  522MOL0     C70364   1.821   3.431   9.074  1.0025  0.5180  0.5879
  522MOL0     C70365   1.710   3.346   9.011  0.9994  0.4494  0.2753
  522MOL0     O70366   1.751   3.238   8.941 -0.8749  0.0725  0.1358
  522MOL0     C70367   1.662   3.136   8.913 -0.0184  0.6462  0.4455
  522MOL0     C70368   1.647   3.028   9.004 -0.1192 -0.6658 -0.1929
  522MOL0     C70369   1.554   2.926   8.987 -0.9251  0.0555 -0.0916
  522MOL0     C70370   1.478   2.932   8.872  1.3255 -0.6885 -0.0913
  522MOL0     O70371   1.388   2.825   8.854 -0.0200 -0.9709 -0.5079
  522MOL0     C70372   1.308   2.820   8.735 -0.0269 -0.2576  0.3959
  522MOL0     C70373   1.188   2.720   8.757 -0.5530  0.2863  0.1902
  522MOL0     C70374   1.204   2.594   8.658 -0.0493  0.1689 -0.2985
  522MOL0     C70375   1.077   2.510   8.654  0.4175  0.5175 -0.0124
  522MOL0     C70376   1.065   2.437   8.517  0.2093  0.2501  0.9175
  522MOL0     C70377   0.978   2.305   8.519 -0.2063 -0.7545 -0.1609
  522MOL0     C70378   0.851   2.317   8.597  0.4303  1.5342 -0.9474
  522MOL0     C70379   0.752   2.414   8.528  0.7807  1.2211 -0.4594
  522MOL0    Cl70380   0.589   2.398   8.603 -0.0725 -0.2041  0.0151
  522MOL0     C70381   1.487   3.033   8.777 -0.8871  0.2132 -0.3942
  522MOL0     C70382   1.584   3.136   8.797  0.8735 -0.3830 -0.1657
  522MOL0     O70383   1.594   3.374   9.036  0.4266  0.3695  0.2222
  522MOL0     C70384   1.957   3.395   9.045 -0.0011 -0.1412 -0.9715
  522MOL0     C70385   2.068   3.469   9.080 -0.1566 -0.4582 -0.9799
  522MOL0     N70386   2.666   3.256   9.363  0.3481 -0.1932 -0.2242
  522MOL0     N70387   2.780   3.207   9.344 -0.6976 -0.5916 -0.1456
  522MOL0     C70388   3.401   4.001   8.821  0.4023 -0.4404 -0.2448
  522MOL0     C70389   3.513   4.083   8.808 -0.3118 -0.4492  0.3542
  522MOL0     C70390   3.763   4.471   8.750  0.3030 -0.2802 -0.0449
  522MOL0     C70391   3.789   4.606   8.776  0.1790 -0.2690 -0.1104
  522MOL0     C70392   3.916   4.668   8.773 -0.9440  1.0207 -0.3893
  522MOL0     C70393   4.024   4.599   8.712  0.7494  0.0005  0.3707
  522MOL0     O70394   4.154   4.641   8.694 -0.2242  0.9620  0.4414
  522MOL0     C70395   4.196   4.772   8.741  0.6244 -0.5592 -0.2062
  522MOL0     C70396   4.351   4.780   8.755  0.4041  0.2145  0.6739
  522MOL0     C70397   4.397   4.712   8.881  0.2800 -0.1966 -0.0348
  522MOL0     C70398   4.549   4.732   8.890 -0.3548 -0.2697 -0.4420
  522MOL0     C70399   4.600   4.872   8.894  0.5472  0.6455 -0.5976
  522MOL0     C70400   4.632   4.989   8.914 -0.0384 -0.9551  0.4518
  522MOL0     C70401   3.994   4.463   8.685  1.4677  0.2721  0.1873
  522MOL0     C70402   3.869   4.400   8.700 -0.9364 -0.8003  0.2813
  522MOL0     H70403   3.365   4.354   8.664 -1.4666  0.9372  2.3564
  522MOL0     H70404   3.167   4.220   8.729 -0.9043  0.7247  1.8046
  522MOL0     H70405   3.216   3.837   8.958  3.3511  1.0538 -2.1221
  522MOL0     H70406   3.042   3.843   8.916 -0.5465  1.5084 -1.0588
  522MOL0     H70407   3.090   3.779   8.679  0.1299 -1.2281 -1.2907
  522MOL0     H70408   3.260   3.772   8.706  0.7246 -1.9422 -0.2230
  522MOL0     H70409   3.166   3.562   8.720  1.6471  4.5273 -2.3120
  522MOL0     H70410   3.263   3.592   8.857  0.5992 -0.9016 -2.9771
  522MOL0     H70411   3.034   3.627   8.991 -3.6190  4.3115 -2.1720
  522MOL0     H70412   2.958   3.589   8.838 -0.3213 -0.9388 -0.0303
  522MOL0     H70413   3.007   3.367   8.806 -3.2086 -0.5166  0.9078
  522MOL0     H70414   3.148   3.369   8.904 -0.3681 -0.6167 -2.9934
  522MOL0     H70415   2.866   3.369   9.017 -0.8279  3.3412 -1.0663
  522MOL0     H70416   2.988   3.238   9.007 -0.5151  0.7778 -0.8105
  522MOL0     H70417   3.148   3.389   9.122  0.1846  0.9298 -1.1175
  522MOL0     H70418   3.000   3.490   9.169 -1.3960 -0.5877  0.4373
  522MOL0     H70419   3.063   3.324   9.347  0.1239 -1.1162  0.9746
  522MOL0     H70420   3.033   3.191   9.236  2.8689 -0.6934  3.6720
  522MOL0     H70421   2.825   3.531   9.287  1.1485  0.5099  2.6335
  522MOL0     H70422   2.482   3.417   9.439  1.6340 -1.4793  0.3074
  522MOL0     H70423   2.578   3.549   9.470 -0.5919 -1.1958  0.6794
  522MOL0     H70424   2.471   3.451   9.199  2.8251  0.1456 -1.0018
  522MOL0     H70425   2.559   3.606   9.222 -1.9869  2.5925  2.6082
  522MOL0     H70426   2.375   3.674   9.389  2.1677 -1.4977 -0.1686
  522MOL0     H70427   2.294   3.522   9.340 -0.5735  0.5480 -0.5523
  522MOL0     H70428   2.301   3.611   9.100  1.4015 -2.7037  1.5568
  522MOL0     H70429   2.317   3.775   9.172 -1.9862  0.0599 -2.2494
  522MOL0     H70430   1.886   3.714   9.237 -0.2323  0.3965  0.5293
  522MOL0     H70431   1.607   3.516   9.235 -2.0871  2.6719 -0.3358
  522MOL0     H70432   1.691   3.651   9.303 -1.1170 -0.4462  0.8411
  522MOL0     H70433   1.617   3.659   9.133 -1.2759 -1.9132 -3.3517
  522MOL0     H70434   1.708   3.031   9.094  2.3750 -0.6255 -1.7895
  522MOL0     H70435   1.529   2.846   9.055 -1.0013 -2.5419 -2.9428
  522MOL0     H70436   1.265   2.919   8.718  1.6261  0.5460  0.6846
  522MOL0     H70437   1.378   2.795   8.654  2.2035 -0.4464  2.2868
  522MOL0     H70438   1.186   2.690   8.862  0.3474  1.8386  0.6928
  522MOL0     H70439   1.089   2.763   8.742 -0.8685  1.0044  3.6170
  522MOL0     H70440   1.283   2.531   8.698 -0.1073 -0.1459 -0.6722
  522MOL0     H70441   1.233   2.630   8.558  2.4411  1.7211  0.8669
  522MOL0     H70442   1.090   2.438   8.735  0.7362 -1.2904 -1.5776
  522MOL0     H70443   0.985   2.565   8.672 -0.1084  0.1908 -1.5099
  522MOL0     H70444   1.167   2.410   8.487 -0.2672 -0.3431 -0.2103
  522MOL0     H70445   1.025   2.496   8.434  0.1949  2.6813  2.5361
  522MOL0     H70446   0.956   2.277   8.416  1.1678 -2.4818 -0.0318
  522MOL0     H70447   1.034   2.219   8.556 -1.3426 -2.3848 -2.0011
  522MOL0     H70448   0.875   2.338   8.701  0.5823 -0.5662 -0.5125
  522MOL0     H70449   0.806   2.218   8.603  1.1193  1.3009  0.7174
  522MOL0     H70450   0.741   2.397   8.421  1.4765 -2.2241 -0.1170
  522MOL0     H70451   0.804   2.510   8.534 -0.1850  1.7451 -0.3197
  522MOL0     H70452   1.426   3.042   8.687 -0.7080 -0.2537 -0.5620
  522MOL0     H70453   1.589   3.222   8.731 -1.3912  2.5806  3.1706
  522MOL0     H70454   1.976   3.301   8.995 -1.5770  1.3886 -4.8373
  522MOL0     H70455   2.168   3.434   9.054 -0.9199 -2.8130 -0.9681
  522MOL0     H70456   3.412   3.907   8.874 -3.4224 -1.0847 -0.3388
  522MOL0     H70457   3.617   4.057   8.827 -0.8281 -2.7614  0.2677
  522MOL0     H70458   3.715   4.678   8.809  0.5190  0.3174 -0.6291
  522MOL0     H70459   3.926   4.772   8.803 -0.3857  0.8438  0.0648
  522MOL0     H70460   4.160   4.839   8.661 -1.1366 -0.4533  0.6181
  522MOL0     H70461   4.143   4.798   8.833  3.1828  3.0644  0.4502
  522MOL0     H70462   4.387   4.884   8.761 -1.8391  1.0640  0.3831
  522MOL0     H70463   4.396   4.738   8.665  0.3827  0.0711  0.7298
  522MOL0     H70464   4.375   4.605   8.888 -1.6115 -0.3443 -4.6261
  522MOL0     H70465   4.353   4.760   8.968  2.2432 -1.5556  1.8063
  522MOL0     H70466   4.605   4.683   8.810  1.0071  0.6596 -0.0846
  522MOL0     H70467   4.572   4.696   8.991 -0.4875  0.6587 -0.0751
  522MOL0     H70468   4.658   5.091   8.933 -1.6974 -0.3243 -0.4285
  522MOL0     H70469   4.077   4.414   8.636  1.2285  0.1848 -0.1311
  522MOL0     H70470   3.865   4.294   8.676 -1.7386 -1.2900  2.3627
  523MOL0     O70471   7.182   0.753   8.377 -0.4086  0.8104  0.8469
  523MOL0     C70472   7.182   0.827   8.278 -0.5896  0.9196  0.2560
  523MOL0     O70473   7.104   0.937   8.266 -0.0793  0.9418  0.8820
  523MOL0     C70474   7.008   0.957   8.359 -0.0266  0.0925 -0.1252
  523MOL0     C70475   6.896   0.875   8.369 -0.3634 -0.0160  0.3802
  523MOL0     C70476   6.798   0.907   8.447 -0.4371 -0.7437  0.3404
  523MOL0     C70477   6.796   1.024   8.525 -1.3269  0.6529 -0.3020
  523MOL0     O70478   6.684   1.079   8.592 -1.0639 -0.3378  1.1522
  523MOL0     C70479   6.559   1.003   8.599 -0.1841 -0.6557  0.0955
  523MOL0     C70480   6.443   1.102   8.564 -0.1648  0.5857  0.5952
  523MOL0     C70481   6.299   1.062   8.610  0.3512 -0.4788  0.0763
  523MOL0     C70482   6.256   0.907   8.612  0.5088  0.5467  0.3912
  523MOL0     C70483   6.223   0.850   8.470 -0.5038 -0.5084 -0.2490
  523MOL0     C70484   6.221   0.696   8.456  0.6480 -0.2478  0.0417
  523MOL0     C70485   6.121   0.628   8.550 -0.9189 -0.0349  0.8454
  523MOL0     C70486   5.972   0.672   8.509  0.5390  0.4462  0.1001
  523MOL0     N70487   5.884   0.597   8.595  0.4333  0.8157  0.6268
  523MOL0     C70488   5.902   0.591   8.724  0.5358 -0.1904 -0.3559
  523MOL0     C70489   5.818   0.490   8.768 -0.2698 -0.3928 -0.3588
  523MOL0     C70490   5.811   0.433   8.903 -0.9478  0.0554  0.0517
  523MOL0     C70491   5.675   0.399   8.940 -0.0977  0.4091  0.4436
  523MOL0     C70492   5.677   0.354   9.089 -0.3020 -0.5576 -0.0337
  523MOL0     C70493   5.538   0.333   9.134  0.3119  0.6036  0.1213
  523MOL0     O70494   5.503   0.202   9.082 -0.2369 -0.3527 -0.1926
  523MOL0     C70495   5.371   0.163   9.096 -0.7495  0.5676  0.1781
  523MOL0     C70496   5.260   0.243   9.139 -0.9767  0.2684  0.4619
  523MOL0     C70497   5.132   0.193   9.144 -0.2718  0.0252 -0.0424
  523MOL0     C70498   5.014   0.282   9.180  0.9312 -0.5867 -0.6190
  523MOL0     C70499   5.113   0.053   9.110  0.7949 -0.0265  0.1427
  523MOL0     C70500   4.979  -0.008   9.106  0.2573  0.6505 -0.6711
  523MOL0     O70501   4.957  -0.097   9.008 -0.1612 -0.3509  0.6485
  523MOL0     C70502   4.853  -0.190   9.025 -0.0489  0.7917  0.2422
  523MOL0     C70503   4.715  -0.165   9.001 -0.2491 -0.7964 -0.5434
  523MOL0     C70504   4.613  -0.262   9.016  0.0659  0.4968  0.3867
  523MOL0     C70505   4.641  -0.398   9.034  0.1191 -0.0603 -0.3895
  523MOL0     O70506   4.535  -0.488   9.038 -0.4684  0.1455 -0.2664
  523MOL0     C70507   4.558  -0.630   9.008 -0.0506  0.1425 -0.2997
  523MOL0     C70508   4.432  -0.708   8.990  0.2612  0.6365 -0.2884
  523MOL0     C70509   4.368  -0.720   8.843 -0.1381  0.6945 -0.0235
  523MOL0     C70510   4.279  -0.844   8.825  0.2897 -0.5673  0.3397
  523MOL0     C70511   4.148  -0.833   8.907  0.5659 -0.1639  0.9463
  523MOL0     C70512   4.059  -0.959   8.888 -0.5927  0.1016  0.5058
  523MOL0     C70513   3.941  -0.959   8.980 -0.0007 -0.1641  0.5326
  523MOL0     C70514   3.861  -1.092   8.958  0.2446 -0.9219  0.0951
  523MOL0    Cl70515   3.710  -1.090   9.049  0.5427  0.1149 -0.0176
  523MOL0     C70516   4.784  -0.433   9.026 -0.0644 -0.5313  1.0730
  523MOL0     C70517   4.884  -0.333   9.022  0.1805 -0.1823 -0.8492
  523MOL0     O70518   4.905  -0.000   9.206 -0.4625  0.2404  0.0382
  523MOL0     C70519   5.218  -0.026   9.072  0.6787  0.3938 -0.7530
  523MOL0     C70520   5.344   0.032   9.062  0.3092  0.6689  0.9878
  523MOL0     N70521   5.747   0.446   8.654 -0.2825  0.3203  0.0391
  523MOL0     N70522   5.788   0.512   8.551 -0.0830  0.8063  0.4621
  523MOL0     C70523   6.920   1.097   8.532  0.5635 -0.8454 -0.0727
  523MOL0     C70524   7.023   1.065   8.447 -0.7105 -0.2837  0.1059
  523MOL0     C70525   7.287   0.799   8.178  0.7797 -0.2375  0.0024
  523MOL0     C70526   7.274   0.845   8.047 -0.6872  0.3628  0.4535
  523MOL0     C70527   7.377   0.825   7.961  0.3690 -0.4055 -1.0119
  523MOL0     C70528   7.498   0.762   7.998 -0.4120 -0.0381  0.2875
  523MOL0     O70529   7.587   0.740   7.897  0.3729 -0.5810 -0.4035
  523MOL0     C70530   7.712   0.702   7.920  0.0048  0.3336 -0.6084
  523MOL0     C70531   7.786   0.813   8.003 -0.7164  0.4875 -0.6534
  523MOL0     C70532   7.938   0.786   8.040 -0.6728  0.7185 -0.0665
  523MOL0     C70533   7.974   0.648   8.106 -0.7196  0.1930 -0.3794
  523MOL0     C70534   8.117   0.633   8.151 -0.7616  0.2130 -0.4615
  523MOL0     C70535   8.236   0.619   8.174  0.0960  0.1743  0.1419
  523MOL0     C70536   7.518   0.720   8.130 -0.1560 -0.2874 -0.6437
  523MOL0     C70537   7.406   0.729   8.224  0.0824 -0.0076  0.8698
  523MOL0     H70538   6.900   0.786   8.307  2.3068 -1.0531  1.8808
  523MOL0     H70539   6.716   0.836   8.451  0.9463 -2.3404  1.5481
  523MOL0     H70540   6.552   0.922   8.526 -0.2322 -0.3847 -0.2023
  523MOL0     H70541   6.554   0.957   8.698  0.2919 -0.7101  0.0948
  523MOL0     H70542   6.466   1.194   8.618 -0.6408  1.7955 -1.1803
  523MOL0     H70543   6.439   1.115   8.456  0.7216  0.2354  0.5083
  523MOL0     H70544   6.277   1.109   8.707 -0.4503 -2.2252  0.7883
  523MOL0     H70545   6.226   1.107   8.542  0.0009  2.7484  2.3054
  523MOL0     H70546   6.332   0.839   8.653 -2.2777 -3.3360 -0.3847
  523MOL0     H70547   6.169   0.892   8.677  1.1600 -1.0774  0.9595
  523MOL0     H70548   6.121   0.879   8.444 -0.3404 -2.6116 -3.8398
  523MOL0     H70549   6.298   0.885   8.399 -0.8290 -1.4179 -1.0639
  523MOL0     H70550   6.192   0.665   8.355 -0.3936 -1.5237  0.6985
  523MOL0     H70551   6.318   0.651   8.476  0.6578 -0.4199 -0.3754
  523MOL0     H70552   6.130   0.520   8.535 -2.2382 -0.4116  2.4346
  523MOL0     H70553   6.152   0.647   8.653  2.0907 -0.2294  0.0580
  523MOL0     H70554   5.950   0.651   8.404 -1.2079  0.7765  0.3847
  523MOL0     H70555   5.955   0.778   8.531 -0.3249  0.5154 -0.8436
  523MOL0     H70556   5.975   0.652   8.778  0.5972 -0.7138  0.1655
  523MOL0     H70557   5.877   0.345   8.908  0.2430  0.7861 -1.6107
  523MOL0     H70558   5.851   0.510   8.969  1.4550 -0.7182 -0.4016
  523MOL0     H70559   5.632   0.318   8.880 -1.0314 -0.4286  2.1709
  523MOL0     H70560   5.607   0.483   8.920 -1.4987 -0.7087  0.3291
  523MOL0     H70561   5.709   0.439   9.149 -0.6779 -1.2848  1.2253
  523MOL0     H70562   5.749   0.274   9.111 -0.1960 -2.1920 -4.9591
  523MOL0     H70563   5.472   0.413   9.099 -0.0743 -0.1448 -0.9181
  523MOL0     H70564   5.527   0.332   9.243 -2.0657 -4.1942  0.1027
  523MOL0     H70565   5.270   0.351   9.142 -1.9251  0.4438 -1.3623
  523MOL0     H70566   5.042   0.377   9.134  1.1915  0.0447  0.7732
  523MOL0     H70567   4.917   0.251   9.139 -0.8943  4.5864 -0.9530
  523MOL0     H70568   5.014   0.294   9.289  1.5446  1.4439 -0.8006
  523MOL0     H70569   4.690  -0.063   8.974  0.8693 -0.6001 -0.9063
  523MOL0     H70570   4.510  -0.230   9.010  0.1555  1.5801  3.1583
  523MOL0     H70571   4.599  -0.640   8.907 -3.1385  1.0961 -1.7797
  523MOL0     H70572   4.623  -0.671   9.086 -0.3652  1.3158  0.6100
  523MOL0     H70573   4.440  -0.814   9.016 -1.1795  0.3469 -0.9300
  523MOL0     H70574   4.366  -0.659   9.062  0.9124  1.4300 -0.2199
  523MOL0     H70575   4.449  -0.731   8.771  0.3526 -2.7722  0.8790
  523MOL0     H70576   4.309  -0.634   8.809  0.0028  1.1239  0.7743
  523MOL0     H70577   4.268  -0.864   8.718 -1.4382  0.0236  0.3771
  523MOL0     H70578   4.317  -0.933   8.874  0.8026  0.2575  1.4813
  523MOL0     H70579   4.094  -0.755   8.851  0.3650 -1.3991 -0.6654
  523MOL0     H70580   4.146  -0.803   9.012 -1.7166  1.0902  0.6197
  523MOL0     H70581   4.016  -0.961   8.788 -1.0425 -2.4565  0.6900
  523MOL0     H70582   4.112  -1.053   8.909 -0.9677 -0.3586 -0.5408
  523MOL0     H70583   3.872  -0.876   8.962 -0.7443 -0.0122  3.5349
  523MOL0     H70584   3.970  -0.951   9.085 -1.5572  0.3967  0.9553
  523MOL0     H70585   3.911  -1.185   8.986 -3.0673 -3.4785 -1.7124
  523MOL0     H70586   3.849  -1.089   8.850  1.5721  0.8579 -0.0446
  523MOL0     H70587   4.808  -0.539   9.033 -0.8469 -0.6249  2.8280
  523MOL0     H70588   4.987  -0.362   9.009  0.1476 -1.5824  1.4177
  523MOL0     H70589   5.213  -0.130   9.043  0.9071  1.2122 -4.0450
  523MOL0     H70590   5.426  -0.030   9.027 -0.2314  0.0326  0.8274
  523MOL0     H70591   6.911   1.187   8.592 -4.2178 -0.6216 -0.7119
  523MOL0     H70592   7.116   1.120   8.449 -1.6184  1.3168  1.1807
  523MOL0     H70593   7.180   0.878   8.004 -0.0897  0.4296 -0.8382
  523MOL0     H70594   7.349   0.859   7.862 -2.7723  1.6916  0.4570
  523MOL0     H70595   7.715   0.610   7.980  0.5235  0.4560 -0.4443
  523MOL0     H70596   7.765   0.686   7.825  1.1637 -0.2354  0.1029
  523MOL0     H70597   7.733   0.839   8.095 -0.5398  2.8009 -1.1364
  523MOL0     H70598   7.766   0.908   7.952 -0.5419  0.8251 -0.0946
  523MOL0     H70599   7.970   0.867   8.107 -2.3040 -0.0080  1.6883
  523MOL0     H70600   7.996   0.782   7.947 -1.1829 -2.9808 -0.3604
  523MOL0     H70601   7.962   0.575   8.026  3.1192 -0.0346 -0.9488
  523MOL0     H70602   7.903   0.621   8.185 -1.5069 -2.6542 -1.9524
  523MOL0     H70603   8.335   0.598   8.208  0.6734  0.4637 -1.2951
  523MOL0     H70604   7.608   0.677   8.173 -0.4020 -1.4595 -1.2424
  523MOL0     H70605   7.429   0.696   8.325  0.6994  0.3146  0.8397
  524MOL0     O70606   9.247   4.425   9.106 -0.0095 -0.7364 -0.1499
  524MOL0     C70607   9.261   4.547   9.084  0.6211  0.1580 -0.1553
  524MOL0     O70608   9.169   4.648   9.094  0.6313 -0.9438 -0.4818
  524MOL0     C70609   9.038   4.618   9.123 -0.3092 -0.6154  0.8001
  524MOL0     C70610   8.957   4.694   9.206  0.5396  0.2379 -0.7452
  524MOL0     C70611   8.825   4.671   9.224  0.0944  0.4038 -0.5811
  524MOL0     C70612   8.761   4.577   9.139 -0.1108  0.1286 -0.0755
  524MOL0     O70613   8.624   4.567   9.132  0.3349  0.4398  0.7080
  524MOL0     C70614   8.572   4.430   9.130 -0.2465 -0.6573  0.5497
  524MOL0     C70615   8.420   4.434   9.180 -0.0213 -1.0227 -0.1236
  524MOL0     C70616   8.418   4.487   9.330  0.3381  0.1774  0.5218
  524MOL0     C70617   8.291   4.425   9.388  0.2156 -0.1175  0.6238
  524MOL0     C70618   8.155   4.470   9.338  0.7868 -0.3566  0.3308
  524MOL0     C70619   8.044   4.390   9.398 -0.1878 -0.2768  0.2058
  524MOL0     C70620   8.014   4.404   9.553 -0.0212  0.6994 -0.1594
  524MOL0     C70621   7.903   4.299   9.588  0.2199  0.2127  0.2925
  524MOL0     N70622   7.835   4.344   9.709  0.9781  0.3053 -0.0403
  524MOL0     C70623   7.817   4.265   9.823  1.0709  0.4926  0.3546
  524MOL0     C70624   7.721   4.328   9.898 -0.0823  0.1003  0.5541
  524MOL0     C70625   7.653   4.277  10.032  0.1889  0.3064  0.0562
  524MOL0     C70626   7.569   4.153   9.998  0.2984 -0.2900 -0.5170
  524MOL0     C70627   7.467   4.130  10.115 -0.3139 -0.9606  0.7027
  524MOL0     C70628   7.367   4.013  10.094  0.2717 -0.2741 -0.1089
  524MOL0     O70629   7.291   3.998  10.215  0.8170  0.5503 -0.4966
  524MOL0     C70630   7.165   4.061  10.226 -0.0093 -0.3721  0.6102
  524MOL0     C70631   7.121   4.166  10.158 -1.0288  0.9810 -0.0336
  524MOL0     C70632   7.004   4.230  10.191  0.2129  0.2279 -0.3842
  524MOL0     C70633   6.968   4.355  10.117  0.0205  0.6017  0.5407
  524MOL0     C70634   6.911   4.176  10.287 -0.0597 -0.2336  0.4965
  524MOL0     C70635   6.782   4.232  10.340  0.0720  0.4429 -0.2391
  524MOL0     O70636   6.715   4.165  10.438 -0.3563 -0.0728  0.3910
  524MOL0     C70637   6.609   4.224  10.505  0.0254  0.8252  0.5640
  524MOL0     C70638   6.596   4.214  10.639  0.3511  0.5164  1.1253
  524MOL0     C70639   6.482   4.249  10.707  0.9526 -0.0723  0.1609
  524MOL0     C70640   6.370   4.304  10.643 -0.4811  0.3685  0.8140
  524MOL0     O70641   6.262   4.336  10.721 -1.1461  0.3911 -0.8062
  524MOL0     C70642   6.156   4.411  10.670  1.0139  0.6812  0.2266
  524MOL0     C70643   6.084   4.459  10.796 -0.7352  0.4000  0.2701
  524MOL0     C70644   5.947   4.519  10.764  0.3107 -0.3192  0.4659
  524MOL0     C70645   5.848   4.518  10.877 -0.4409 -0.2803  0.1907
  524MOL0     C70646   5.875   4.642  10.960 -0.3297  0.1309  0.9506
  524MOL0     C70647   5.762   4.654  11.069  0.1004  0.4479  0.6554
  524MOL0     C70648   5.790   4.786  11.137  0.4350  0.2976  0.6279
  524MOL0     C70649   5.711   4.793  11.271  0.7685 -0.2309 -0.0927
  524MOL0    Cl70650   5.528   4.799  11.245 -0.1586 -0.0230  0.2428
  524MOL0     C70651   6.386   4.326  10.509  0.4561  1.0426 -0.8378
  524MOL0     C70652   6.505   4.287  10.440 -1.1786  0.3482  0.3116
  524MOL0     O70653   6.744   4.341  10.298  0.3250  0.0631  0.2117
  524MOL0     C70654   6.958   4.067  10.352  0.7733  0.7003  0.1326
  524MOL0     C70655   7.080   4.011  10.329 -0.8474 -0.1329  0.5256
  524MOL0     N70656   7.678   4.444   9.829 -0.2384 -0.6650  0.3278
  524MOL0     N70657   7.753   4.453   9.720  0.3864  1.1601  0.2712
  524MOL0     C70658   8.833   4.492   9.056 -0.3009 -0.2436  0.1428
  524MOL0     C70659   8.971   4.516   9.053 -0.1040 -0.1869 -0.7162
  524MOL0     C70660   9.399   4.587   9.049 -0.0871 -0.1673 -0.2985
  524MOL0     C70661   9.516   4.499   9.060 -1.1079  0.7813  0.2227
  524MOL0     C70662   9.649   4.541   9.038 -0.0706  0.6450  0.3073
  524MOL0     C70663   9.667   4.681   8.998  0.1319  0.6232 -0.6053
  524MOL0     O70664   9.801   4.716   8.974 -0.0085 -0.4816 -0.1157
  524MOL0     C70665   9.827   4.848   8.920 -1.0040 -0.0798 -0.0745
  524MOL0     C70666   9.981   4.870   8.888 -0.3172 -0.3403 -0.6284
  524MOL0     C70667  10.034   4.768   8.795  0.3356  0.0690  0.3246
  524MOL0     C70668  10.182   4.782   8.761  1.0613  0.6059 -0.8739
  524MOL0     C70669  10.222   4.671   8.680  1.0224 -0.2209  0.2026
  524MOL0     C70670  10.251   4.579   8.611 -0.6435 -0.2635 -0.6194
  524MOL0     C70671   9.553   4.764   8.976 -0.0947 -0.3390  0.8912
  524MOL0     C70672   9.429   4.718   8.998 -0.2044 -0.2242 -0.2199
  524MOL0     H70673   9.017   4.758   9.270 -0.5555 -0.4217  1.0254
  524MOL0     H70674   8.779   4.724   9.308  0.5585  0.2520 -0.2265
  524MOL0     H70675   8.575   4.385   9.030  1.0289 -1.8263  1.0922
  524MOL0     H70676   8.635   4.368   9.194 -0.6679  0.3849  2.0434
  524MOL0     H70677   8.357   4.501   9.121 -0.4796 -1.1686  0.1950
  524MOL0     H70678   8.382   4.331   9.182 -2.5188 -0.2200 -1.4824
  524MOL0     H70679   8.508   4.461   9.386  0.8152 -1.1320 -0.7840
  524MOL0     H70680   8.413   4.596   9.324  1.6265  0.2085 -0.4621
  524MOL0     H70681   8.294   4.317   9.373 -2.6061 -0.1275 -0.3795
  524MOL0     H70682   8.300   4.455   9.492  2.7133  0.1510  0.4135
  524MOL0     H70683   8.134   4.575   9.358 -1.1776 -0.8381  1.0348
  524MOL0     H70684   8.149   4.460   9.229 -2.1864 -2.0218  0.5459
  524MOL0     H70685   7.949   4.399   9.344 -0.5531 -0.6824  0.7767
  524MOL0     H70686   8.083   4.289   9.383  1.9538  0.6501 -0.9336
  524MOL0     H70687   8.099   4.381   9.619  0.7653  2.8233 -0.3633
  524MOL0     H70688   7.975   4.505   9.564 -0.1932  0.8672 -1.9815
  524MOL0     H70689   7.943   4.198   9.598  1.8918  0.8072 -0.0053
  524MOL0     H70690   7.827   4.299   9.509  2.1771  3.2421 -1.8003
  524MOL0     H70691   7.862   4.168   9.838 -1.2852 -0.7673 -0.3191
  524MOL0     H70692   7.721   4.260  10.116 -1.7482 -0.7052  1.4738
  524MOL0     H70693   7.585   4.357  10.061 -1.3402 -1.9858  3.3413
  524MOL0     H70694   7.649   4.079   9.989 -1.0586 -1.7486 -1.0833
  524MOL0     H70695   7.512   4.153   9.904 -1.1796 -2.6165  0.2841
  524MOL0     H70696   7.409   4.222  10.114  0.1085 -0.6881 -0.3582
  524MOL0     H70697   7.522   4.115  10.208 -1.7521 -5.4080  1.0850
  524MOL0     H70698   7.423   3.920  10.078 -0.9756 -1.9294  3.8450
  524MOL0     H70699   7.307   4.032  10.005  1.6192  1.0802 -0.7715
  524MOL0     H70700   7.198   4.209  10.094 -2.4255  1.9494 -1.1144
  524MOL0     H70701   6.963   4.449  10.174 -1.4543  1.2526 -0.5972
  524MOL0     H70702   7.047   4.374  10.044  2.5075 -0.3289  2.8029
  524MOL0     H70703   6.879   4.323  10.063  2.0876 -4.5341 -0.3443
  524MOL0     H70704   6.672   4.168  10.702  2.1692  2.8595  0.7798
  524MOL0     H70705   6.459   4.233  10.812 -0.5477 -1.5825 -0.3541
  524MOL0     H70706   6.189   4.493  10.606 -1.3898  1.7660  0.2688
  524MOL0     H70707   6.097   4.340  10.610  0.0668  0.8998  0.8739
  524MOL0     H70708   6.072   4.384  10.875  0.2016  0.9946  1.0050
  524MOL0     H70709   6.152   4.530  10.845  1.9298  0.1476 -2.7150
  524MOL0     H70710   5.910   4.450  10.687 -1.6892  2.3180 -1.1335
  524MOL0     H70711   5.949   4.618  10.719  1.1120 -0.3309  0.4718
  524MOL0     H70712   5.747   4.514  10.835  0.0325  1.7307 -1.2541
  524MOL0     H70713   5.869   4.433  10.944 -2.0555 -0.0422  1.0521
  524MOL0     H70714   5.875   4.734  10.902  0.6737 -0.2331  0.3503
  524MOL0     H70715   5.968   4.627  11.015 -0.5313  3.4838  2.4367
  524MOL0     H70716   5.662   4.658  11.025 -1.1797 -2.0059  3.0539
  524MOL0     H70717   5.776   4.570  11.138  1.2227 -2.1950 -2.5367
  524MOL0     H70718   5.764   4.872  11.075 -2.8197 -1.0439 -0.1016
  524MOL0     H70719   5.895   4.789  11.165  0.2361 -3.0080  2.2367
  524MOL0     H70720   5.750   4.869  11.339 -0.7051 -0.1896  0.7498
  524MOL0     H70721   5.729   4.701  11.327 -0.0249  0.3710  1.1933
  524MOL0     H70722   6.306   4.374  10.453 -2.5636 -3.0619 -0.5694
  524MOL0     H70723   6.516   4.295  10.332  2.5967  0.8120  0.5770
  524MOL0     H70724   6.908   4.014  10.432  3.9618 -3.2655 -0.1789
  524MOL0     H70725   7.125   3.937  10.394  1.4348  0.8280  0.1653
  524MOL0     H70726   8.799   4.417   8.985  1.7138  0.9986 -2.3124
  524MOL0     H70727   9.022   4.451   8.983 -0.3531 -0.2072 -0.8769
  524MOL0     H70728   9.512   4.392   9.075 -0.5365  0.7787  0.4025
  524MOL0     H70729   9.730   4.473   9.064 -0.8511 -0.1040  0.8141
  524MOL0     H70730   9.783   4.842   8.820  2.9633 -0.2564 -2.0037
  524MOL0     H70731   9.781   4.932   8.972 -2.0013 -0.1480 -0.8197
  524MOL0     H70732  10.050   4.877   8.973  2.0940 -1.7418 -2.3279
  524MOL0     H70733   9.974   4.965   8.835  0.5617  1.1941  1.8203
  524MOL0     H70734   9.983   4.764   8.698  0.0736 -2.2862  0.5019
  524MOL0     H70735  10.012   4.672   8.841 -0.0622 -0.5063 -1.0197
  524MOL0     H70736  10.243   4.783   8.851  0.6873  3.4212 -0.5337
  524MOL0     H70737  10.208   4.878   8.714  0.6183  1.5532  0.7242
  524MOL0     H70738  10.257   4.499   8.540  0.8450  0.2574 -1.1090
  524MOL0     H70739   9.567   4.865   8.940 -0.4167 -0.6834 -0.2482
  524MOL0     H70740   9.344   4.780   8.971  1.0769  3.4901  3.2037
  525MOL0     O70741   5.800   5.656   1.942  0.3439 -0.3346  0.3110
  525MOL0     C70742   5.858   5.620   1.838 -0.2513 -0.4964  0.2214
  525MOL0     O70743   5.804   5.542   1.742  0.3443  0.0284  0.1004
  525MOL0     C70744   5.668   5.509   1.762  0.0242  0.1931  0.0396
  525MOL0     C70745   5.628   5.385   1.827  0.2713 -0.7424 -0.1067
  525MOL0     C70746   5.491   5.358   1.835  0.0632 -0.5847  0.3591
  525MOL0     C70747   5.382   5.437   1.779 -0.5217 -0.4113 -0.2646
  525MOL0     O70748   5.245   5.409   1.773  0.4905 -0.1877  0.6413
  525MOL0     C70749   5.188   5.359   1.893  0.1259 -0.4958  0.2125
  525MOL0     C70750   5.029   5.366   1.896 -0.1025  0.2465 -0.1759
  525MOL0     C70751   4.957   5.247   1.846 -0.3260 -0.1014 -0.2368
  525MOL0     C70752   4.801   5.250   1.870 -0.5207 -0.2158  1.0423
  525MOL0     C70753   4.723   5.117   1.828  0.3827  0.1846 -0.0113
  525MOL0     C70754   4.571   5.113   1.856 -0.4161 -0.7447 -0.4938
  525MOL0     C70755   4.494   5.009   1.766  0.0499  0.4592 -0.1391
  525MOL0     C70756   4.348   4.994   1.799  0.6422 -0.2459 -0.3830
  525MOL0     N70757   4.273   4.897   1.714  0.0001 -0.9146  0.0203
  525MOL0     C70758   4.191   4.944   1.608 -0.0386 -0.7660  0.0893
  525MOL0     C70759   4.134   4.832   1.561 -0.2802 -0.1343 -0.4061
  525MOL0     C70760   4.049   4.838   1.437 -0.0123  0.1331 -0.3587
  525MOL0     C70761   3.906   4.871   1.476 -0.3591  1.2796  0.2945
  525MOL0     C70762   3.808   4.858   1.359  0.9830 -0.4619  0.1347
  525MOL0     C70763   3.663   4.854   1.431 -0.5458 -0.0097 -0.0295
  525MOL0     O70764   3.625   4.726   1.474 -0.1503 -0.0500  0.3572
  525MOL0     C70765   3.501   4.715   1.528 -0.2063  1.3316 -0.2767
  525MOL0     C70766   3.414   4.821   1.561 -0.4587  0.1545 -0.2108
  525MOL0     C70767   3.281   4.798   1.592 -0.2643  0.3728  0.1606
  525MOL0     C70768   3.203   4.919   1.641  0.3660 -0.3970  0.3129
  525MOL0     C70769   3.233   4.665   1.615 -0.0717 -0.1975 -0.0808
  525MOL0     C70770   3.095   4.632   1.667 -0.3670 -0.1240  0.1889
  525MOL0     O70771   3.074   4.502   1.701  0.7057  0.2033 -0.2921
  525MOL0     C70772   2.950   4.459   1.752  0.0837 -0.8363 -0.1271
  525MOL0     C70773   2.907   4.485   1.886  1.4560 -0.2681  1.0148
  525MOL0     C70774   2.785   4.435   1.925 -0.2247 -0.2141 -0.2750
  525MOL0     C70775   2.701   4.356   1.845 -0.1476  0.6391  0.6740
  525MOL0     O70776   2.570   4.326   1.888  0.0752  0.8648 -0.3776
  525MOL0     C70777   2.483   4.272   1.792  0.3269  0.0314  0.9785
  525MOL0     C70778   2.342   4.256   1.843 -0.1363  0.9044 -0.1940
  525MOL0     C70779   2.255   4.376   1.862 -0.1014 -0.6687  0.5205
  525MOL0     C70780   2.197   4.420   1.729  0.1241  0.4539  0.9461
  525MOL0     C70781   2.119   4.559   1.738 -0.0222 -0.5175 -0.0316
  525MOL0     C70782   2.111   4.621   1.604  0.9329  0.0192 -0.3187
  525MOL0     C70783   1.993   4.560   1.522 -0.1588  0.0635 -0.1432
  525MOL0     C70784   1.937   4.640   1.405 -0.6781 -0.6620 -0.7309
  525MOL0    Cl70785   1.801   4.739   1.472  0.3137 -0.6292 -0.2367
  525MOL0     C70786   2.751   4.314   1.718  0.0958 -0.7287 -0.1484
  525MOL0     C70787   2.875   4.365   1.675 -1.2710  0.5336 -0.1530
  525MOL0     O70788   3.007   4.718   1.643  0.3081  0.2896 -0.1291
  525MOL0     C70789   3.328   4.564   1.586  0.2874  0.2305 -0.1814
  525MOL0     C70790   3.458   4.584   1.536  0.0434 -0.5146 -0.3204
  525MOL0     N70791   4.174   4.726   1.634  0.8668  0.5997  0.9401
  525MOL0     N70792   4.272   4.766   1.716 -0.8407  0.1371  0.8368
  525MOL0     C70793   5.428   5.548   1.708  0.7278 -0.4269 -0.4500
  525MOL0     C70794   5.565   5.585   1.705  0.4962  0.5202  0.2015
  525MOL0     C70795   5.996   5.674   1.828 -0.7252 -0.1549 -0.1479
  525MOL0     C70796   6.035   5.724   1.703  0.0528 -0.2987 -0.8852
  525MOL0     C70797   6.164   5.788   1.696 -0.6503  0.5058 -0.1134
  525MOL0     C70798   6.254   5.788   1.800  0.9239  0.0443 -0.0087
  525MOL0     O70799   6.387   5.829   1.802 -0.3215  0.1229 -0.0356
  525MOL0     C70800   6.450   5.892   1.687 -0.2401  0.7265 -0.2013
  525MOL0     C70801   6.586   5.959   1.724 -0.7998  0.6480 -0.0066
  525MOL0     C70802   6.557   6.095   1.791  0.5748  0.9349 -0.1437
  525MOL0     C70803   6.693   6.181   1.810  1.1992  0.3681  0.3680
  525MOL0     C70804   6.663   6.281   1.912 -0.6952 -0.6591  0.2520
  525MOL0     C70805   6.631   6.374   1.985 -0.3350 -0.1312  0.6344
  525MOL0     C70806   6.210   5.734   1.929  0.1547 -0.7278  0.4153
  525MOL0     C70807   6.085   5.666   1.941  0.1052 -0.3025  0.2142
  525MOL0     H70808   5.712   5.329   1.866  0.9822  1.9560  2.6477
  525MOL0     H70809   5.475   5.258   1.876 -0.3095 -2.6625 -4.2141
  525MOL0     H70810   5.224   5.256   1.906 -1.1452 -0.9622  0.1845
  525MOL0     H70811   5.218   5.417   1.981 -0.2242 -0.5368  0.3620
  525MOL0     H70812   4.993   5.372   1.999 -1.1147 -1.3739 -0.3961
  525MOL0     H70813   4.993   5.452   1.839  0.4588  1.6629  1.5343
  525MOL0     H70814   4.981   5.241   1.739 -3.2098 -0.7951 -0.9534
  525MOL0     H70815   4.990   5.152   1.890 -0.9980  0.0718  0.6586
  525MOL0     H70816   4.778   5.270   1.975 -1.7765  0.0843  0.7296
  525MOL0     H70817   4.755   5.336   1.820 -0.2765 -0.3643  0.5533
  525MOL0     H70818   4.743   5.073   1.730 -0.3740 -1.1980  0.4250
  525MOL0     H70819   4.762   5.043   1.898 -0.7954  1.5290  2.2026
  525MOL0     H70820   4.558   5.096   1.963 -0.1765  0.8412 -0.1942
  525MOL0     H70821   4.523   5.210   1.840 -1.5316 -1.2985 -0.6745
  525MOL0     H70822   4.507   5.035   1.660  1.0434 -0.4117 -0.2500
  525MOL0     H70823   4.536   4.909   1.780 -0.2908  0.5198  1.4289
  525MOL0     H70824   4.293   5.088   1.806 -0.6795 -1.0920  1.7699
  525MOL0     H70825   4.344   4.956   1.902  1.4603 -1.3867 -0.7497
  525MOL0     H70826   4.181   5.044   1.568  0.8407  1.0386  3.9067
  525MOL0     H70827   4.082   4.924   1.379 -0.4629  0.6814  0.1877
  525MOL0     H70828   4.058   4.748   1.375  1.2189  0.6397 -0.9385
  525MOL0     H70829   3.896   4.972   1.515  1.0899  0.8232  1.9994
  525MOL0     H70830   3.870   4.796   1.547 -0.3314  0.2519 -0.7469
  525MOL0     H70831   3.817   4.770   1.294 -1.3523 -0.4778 -0.2743
  525MOL0     H70832   3.819   4.947   1.296  2.5708 -0.8592 -0.1915
  525MOL0     H70833   3.585   4.891   1.364 -1.9919 -0.4783  1.3172
  525MOL0     H70834   3.673   4.914   1.523 -0.6944  0.9765 -0.6452
  525MOL0     H70835   3.455   4.922   1.568 -0.0945  0.1457 -1.8961
  525MOL0     H70836   3.125   4.900   1.714  0.0724  2.9357  1.0113
  525MOL0     H70837   3.269   4.987   1.696  1.2700 -0.3190 -0.8121
  525MOL0     H70838   3.163   4.974   1.556 -0.9797  1.5011  2.0936
  525MOL0     H70839   2.976   4.528   1.957 -0.1683  1.2986  1.7231
  525MOL0     H70840   2.753   4.467   2.024  2.5129  0.0602  0.6153
  525MOL0     H70841   2.486   4.338   1.704  0.1549  0.7699  1.5206
  525MOL0     H70842   2.517   4.173   1.761  1.9720  1.1962 -1.2655
  525MOL0     H70843   2.283   4.187   1.782 -0.8074 -0.5694  1.9716
  525MOL0     H70844   2.352   4.206   1.940 -2.0319  2.0218  0.6279
  525MOL0     H70845   2.325   4.452   1.899  0.1330 -0.0419 -1.1204
  525MOL0     H70846   2.175   4.349   1.931 -0.8937  1.4048  0.5073
  525MOL0     H70847   2.284   4.427   1.662  0.3075 -1.8117  0.8734
  525MOL0     H70848   2.130   4.349   1.681  1.2193  0.1595 -0.2218
  525MOL0     H70849   2.191   4.625   1.785  3.7961 -2.8446 -2.1134
  525MOL0     H70850   2.026   4.544   1.794 -0.2337  0.7758 -0.0114
  525MOL0     H70851   2.090   4.728   1.617 -1.3321 -0.6751  2.8956
  525MOL0     H70852   2.206   4.631   1.549  0.9433  2.2076  0.0039
  525MOL0     H70853   1.909   4.526   1.584  0.9771 -0.2504  1.2598
  525MOL0     H70854   2.043   4.473   1.479  0.3192 -0.5443  1.5740
  525MOL0     H70855   1.895   4.578   1.325  1.7949 -0.8622 -1.9822
  525MOL0     H70856   2.023   4.696   1.366  2.9989 -4.4297  1.1334
  525MOL0     H70857   2.688   4.267   1.644 -0.2652 -3.4239  1.7259
  525MOL0     H70858   2.908   4.338   1.576 -0.9002  1.5567 -0.3241
  525MOL0     H70859   3.298   4.460   1.601  1.5033 -0.1000  0.1413
  525MOL0     H70860   3.517   4.494   1.522 -0.4831 -2.0776  5.0719
  525MOL0     H70861   5.362   5.624   1.667  0.5193  0.1611  0.9135
  525MOL0     H70862   5.601   5.670   1.648 -0.7225  0.7059 -0.3180
  525MOL0     H70863   5.967   5.712   1.619 -0.0863 -0.8212 -0.7065
  525MOL0     H70864   6.183   5.842   1.603  0.3427 -0.2429 -0.3565
  525MOL0     H70865   6.478   5.815   1.615 -0.4014 -2.4747  2.8921
  525MOL0     H70866   6.386   5.967   1.639  0.7739  1.5580 -0.2882
  525MOL0     H70867   6.652   5.994   1.644  3.2286 -0.2587  2.5937
  525MOL0     H70868   6.643   5.896   1.793 -3.6869 -0.7254  1.2792
  525MOL0     H70869   6.500   6.082   1.883 -2.8657 -0.3472 -2.2709
  525MOL0     H70870   6.491   6.151   1.725 -1.6928 -0.4078  0.8617
  525MOL0     H70871   6.714   6.220   1.710 -2.6252  0.4894 -0.5269
  525MOL0     H70872   6.775   6.112   1.834 -0.2964 -2.2576 -1.6152
  525MOL0     H70873   6.601   6.465   2.034 -1.8638 -2.0201  3.5611
  525MOL0     H70874   6.284   5.733   2.008 -0.9258  2.5994  1.6553
  525MOL0     H70875   6.065   5.613   2.034  1.6164 -0.5104  0.4503
  526MOL0     O70876   9.308   3.161   2.459  0.3731 -0.2950 -0.4705
  526MOL0     C70877   9.393   3.244   2.492 -0.0841  0.0862 -0.0418
  526MOL0     O70878   9.401   3.373   2.443  0.3329 -0.1514 -0.0149
  526MOL0     C70879   9.322   3.421   2.348  0.0579 -0.5498  0.3698
  526MOL0     C70880   9.184   3.402   2.352  0.2020  0.7715  0.3697
  526MOL0     C70881   9.098   3.438   2.250  0.1877  0.0057  0.1448
  526MOL0     C70882   9.146   3.510   2.140 -0.3695 -0.6645  0.5068
  526MOL0     O70883   9.057   3.561   2.044 -0.4037 -1.2261 -0.3929
  526MOL0     C70884   9.099   3.604   1.918 -0.1735  0.1239 -0.8317
  526MOL0     C70885   8.975   3.598   1.828 -0.8197  0.0258 -0.3222
  526MOL0     C70886   8.912   3.453   1.838  0.3435  0.2730  0.1840
  526MOL0     C70887   8.794   3.424   1.929  0.0756  0.2658 -0.3654
  526MOL0     C70888   8.677   3.518   1.910  0.7203  0.3022 -0.6841
  526MOL0     C70889   8.561   3.464   1.986  0.6523 -0.1267 -0.2011
  526MOL0     C70890   8.570   3.461   2.140 -0.3436  0.5803  0.6352
  526MOL0     C70891   8.455   3.378   2.187 -0.0139  0.0394  0.3373
  526MOL0     N70892   8.444   3.393   2.332  0.3872  0.4957  0.3640
  526MOL0     C70893   8.534   3.357   2.424  0.3214  0.4167  1.2009
  526MOL0     C70894   8.493   3.410   2.535 -0.5244 -1.0519  0.1840
  526MOL0     C70895   8.577   3.412   2.667 -0.5048 -0.0286 -0.2896
  526MOL0     C70896   8.726   3.436   2.640  0.9892 -0.6910 -0.5923
  526MOL0     C70897   8.788   3.468   2.769 -0.6689 -1.0725  0.2917
  526MOL0     C70898   8.935   3.468   2.755  0.4325  0.8101 -0.3153
  526MOL0     O70899   8.984   3.578   2.677 -0.5153  1.5042  0.2969
  526MOL0     C70900   9.117   3.588   2.681  0.4809 -0.6003  0.1568
  526MOL0     C70901   9.218   3.543   2.772  1.2284 -0.0715  0.8887
  526MOL0     C70902   9.350   3.567   2.758 -0.9383  0.1010  0.6123
  526MOL0     C70903   9.441   3.500   2.869 -0.5176 -0.2549 -0.8753
  526MOL0     C70904   9.397   3.664   2.663 -0.5669 -0.1620 -0.5662
  526MOL0     C70905   9.541   3.708   2.662  0.0211 -0.6197  0.5224
  526MOL0     O70906   9.638   3.625   2.695 -0.1115  0.0475 -1.1612
  526MOL0     C70907   9.771   3.654   2.691  0.5206 -0.2276 -0.2265
  526MOL0     C70908   9.835   3.724   2.585 -0.4194 -0.4355 -0.5937
  526MOL0     C70909   9.978   3.734   2.572  0.9266 -0.3962 -0.3615
  526MOL0     C70910  10.054   3.686   2.687  0.9603  0.0949 -0.4351
  526MOL0     O70911  10.190   3.681   2.700 -0.1786 -0.0948  0.5981
  526MOL0     C70912  10.257   3.775   2.615  0.4825 -0.0729  0.1555
  526MOL0     C70913  10.312   3.715   2.484 -0.0605 -0.9007 -0.1300
  526MOL0     C70914  10.416   3.603   2.526  0.1231 -0.3925  0.3181
  526MOL0     C70915  10.490   3.564   2.393  0.3634  1.4265 -0.4837
  526MOL0     C70916  10.597   3.457   2.424  0.5432  0.7487 -0.6534
  526MOL0     C70917  10.727   3.529   2.453  0.7405 -0.5380  0.0278
  526MOL0     C70918  10.840   3.428   2.491 -0.5046 -0.6033  0.5168
  526MOL0     C70919  10.973   3.513   2.481 -0.4257  0.9571  0.0227
  526MOL0    Cl70920  10.954   3.646   2.601  0.2790 -0.2676  0.1858
  526MOL0     C70921   9.991   3.623   2.797 -0.7603 -0.2966 -0.4067
  526MOL0     C70922   9.852   3.609   2.792 -0.3188  0.7740 -0.4466
  526MOL0     O70923   9.557   3.821   2.617  0.5026 -0.5774 -0.7543
  526MOL0     C70924   9.300   3.720   2.578  0.3691 -0.2934  0.6819
  526MOL0     C70925   9.169   3.673   2.577  0.0361 -0.4897  0.0942
  526MOL0     N70926   8.364   3.467   2.517  0.1592  0.3828 -0.0779
  526MOL0     N70927   8.333   3.439   2.394 -0.0998  1.1145  0.2652
  526MOL0     C70928   9.284   3.540   2.138 -0.4674  0.1729  0.9642
  526MOL0     C70929   9.372   3.497   2.239  1.0894 -0.4120 -0.1367
  526MOL0     C70930   9.516   3.200   2.561  0.4178 -0.0975 -0.4026
  526MOL0     C70931   9.543   3.072   2.575  0.4657 -0.1712 -0.7190
  526MOL0     C70932   9.645   3.035   2.662  0.0117 -0.1147 -0.0131
  526MOL0     C70933   9.729   3.125   2.723  0.8178 -0.2173 -0.8745
  526MOL0     O70934   9.837   3.089   2.798 -0.1252 -0.2439  1.2498
  526MOL0     C70935   9.831   2.959   2.864 -0.8645  1.2721  0.3381
  526MOL0     C70936   9.945   2.927   2.951  0.6601  0.3833 -1.1501
  526MOL0     C70937   9.959   3.018   3.073 -0.6365  0.1036 -0.2279
  526MOL0     C70938  10.051   2.958   3.174  0.3561  0.3265  0.5319
  526MOL0     C70939  10.045   3.040   3.301 -0.9895 -1.5536 -0.1304
  526MOL0     C70940  10.034   3.109   3.403  0.1473 -0.6333  0.1988
  526MOL0     C70941   9.714   3.260   2.687 -0.5005  0.1542  0.4010
  526MOL0     C70942   9.609   3.293   2.608  0.2784 -0.0639 -0.1490
  526MOL0     H70943   9.128   3.361   2.435 -2.8795 -2.6795 -3.0148
  526MOL0     H70944   8.992   3.429   2.271 -0.0082  3.2550  1.0662
  526MOL0     H70945   9.134   3.708   1.910 -1.6441  0.5151 -3.8553
  526MOL0     H70946   9.180   3.542   1.880 -0.2972 -0.4822 -0.1136
  526MOL0     H70947   8.900   3.673   1.857 -2.5843 -1.1828 -1.5573
  526MOL0     H70948   9.011   3.620   1.728  0.3962  1.4632  0.3935
  526MOL0     H70949   8.877   3.437   1.736 -2.5077  1.3162  0.9001
  526MOL0     H70950   8.989   3.378   1.857 -1.3006 -1.4135  0.4185
  526MOL0     H70951   8.764   3.320   1.911  0.4711  0.0669  0.0783
  526MOL0     H70952   8.831   3.434   2.032 -0.2993  0.6874 -0.2691
  526MOL0     H70953   8.703   3.614   1.955 -1.1686  0.1086  0.9587
  526MOL0     H70954   8.646   3.528   1.805  1.8035  1.2356 -0.9326
  526MOL0     H70955   8.475   3.524   1.954 -0.5774 -0.1569  2.7487
  526MOL0     H70956   8.549   3.361   1.950  1.0248  0.4857 -2.1779
  526MOL0     H70957   8.658   3.412   2.183 -0.4947  0.7694  1.1584
  526MOL0     H70958   8.564   3.561   2.183 -3.4555 -0.4890  2.9762
  526MOL0     H70959   8.474   3.276   2.152 -1.5747  0.0874 -0.7812
  526MOL0     H70960   8.359   3.407   2.143 -1.1259 -2.6668  0.7761
  526MOL0     H70961   8.622   3.295   2.407 -1.3834 -1.7810 -0.1852
  526MOL0     H70962   8.535   3.496   2.723  1.5040  0.5584  0.4101
  526MOL0     H70963   8.575   3.318   2.723 -1.5385 -0.0745 -0.3876
  526MOL0     H70964   8.751   3.521   2.576  1.5958  0.1441  0.7081
  526MOL0     H70965   8.760   3.352   2.579  0.7386 -0.1967 -1.4271
  526MOL0     H70966   8.751   3.402   2.847 -1.1977  2.0623  2.9248
  526MOL0     H70967   8.762   3.572   2.794  2.2398  0.5116 -2.4912
  526MOL0     H70968   8.975   3.371   2.724  1.4631  0.4913  1.8210
  526MOL0     H70969   8.963   3.475   2.861 -0.3768  1.0770 -0.1118
  526MOL0     H70970   9.186   3.479   2.854  1.0528  0.9449  1.6369
  526MOL0     H70971   9.477   3.580   2.934 -1.9659  0.7056 -1.2228
  526MOL0     H70972   9.372   3.440   2.929 -1.9806  0.3511 -1.8920
  526MOL0     H70973   9.527   3.439   2.838  1.3346  0.8564  1.7053
  526MOL0     H70974   9.783   3.764   2.498 -1.1422  0.1154  0.0770
  526MOL0     H70975  10.026   3.772   2.483 -2.0748  0.1718 -1.8458
  526MOL0     H70976  10.198   3.864   2.590  0.0735 -0.9672 -2.2650
  526MOL0     H70977  10.347   3.806   2.670  1.3578 -1.5521 -0.3859
  526MOL0     H70978  10.232   3.675   2.420 -1.7144 -1.0614  1.9196
  526MOL0     H70979  10.372   3.785   2.425 -1.1608  0.7047  0.5612
  526MOL0     H70980  10.367   3.518   2.575 -1.9508  0.6537  0.1575
  526MOL0     H70981  10.488   3.655   2.589 -1.0014  0.5088  0.9025
  526MOL0     H70982  10.417   3.519   2.325  1.8062  2.6280 -2.9323
  526MOL0     H70983  10.538   3.650   2.346  0.7452  1.0743 -0.7414
  526MOL0     H70984  10.608   3.377   2.351 -0.5970 -3.0396  2.9510
  526MOL0     H70985  10.565   3.408   2.516  1.5633 -1.3675 -1.3705
  526MOL0     H70986  10.760   3.576   2.360 -1.1463 -2.2759 -1.6177
  526MOL0     H70987  10.719   3.613   2.523  0.1983  1.1632 -1.9660
  526MOL0     H70988  10.846   3.340   2.425 -1.1508  0.1275 -0.5470
  526MOL0     H70989  10.832   3.381   2.589  2.8386 -0.2161  1.0833
  526MOL0     H70990  10.999   3.545   2.379  1.4337  0.2943  0.2428
  526MOL0     H70991  11.060   3.456   2.514 -1.0674 -0.8741 -1.2829
  526MOL0     H70992  10.049   3.587   2.881 -1.4535  1.5716  0.9331
  526MOL0     H70993   9.800   3.573   2.880  3.6650 -0.2550  1.7324
  526MOL0     H70994   9.329   3.800   2.511  0.2941  0.3047  1.3629
  526MOL0     H70995   9.094   3.723   2.516  0.8331  1.8345  0.8725
  526MOL0     H70996   9.332   3.597   2.059  1.8246 -2.5249  0.2413
  526MOL0     H70997   9.478   3.522   2.237  0.4571  2.6945 -2.4004
  526MOL0     H70998   9.474   2.995   2.541  0.3407  0.1863 -1.2902
  526MOL0     H70999   9.667   2.930   2.675  1.2122  0.2951  1.5945
  526MOL0     H71000   9.734   2.938   2.911 -1.3853 -5.2698 -2.5763
  526MOL0     H71001   9.827   2.877   2.792 -1.4450 -0.7554  2.5567
  526MOL0     H71002  10.035   2.934   2.889  1.5240 -0.1820 -0.0045
  526MOL0     H71003   9.924   2.828   2.992  0.1893  1.9402  2.7915
  526MOL0     H71004   9.861   3.046   3.114  0.0688  1.4164  0.6388
  526MOL0     H71005  10.003   3.111   3.036  2.3493 -1.3967 -0.7510
  526MOL0     H71006  10.153   2.963   3.136  0.3811 -0.2453  0.5129
  526MOL0     H71007  10.014   2.855   3.182 -3.2937  1.4910  0.4180
  526MOL0     H71008  10.023   3.169   3.491 -3.9846 -1.1184  0.2060
  526MOL0     H71009   9.777   3.341   2.722  0.3167 -0.5898  0.6732
  526MOL0     H71010   9.604   3.399   2.588 -0.7947  0.2386  1.5256
  527MOL0     O71011   7.220  11.285   8.153 -0.7310 -0.2592  0.9321
  527MOL0     C71012   7.254  11.227   8.248  0.0475 -0.4193 -0.8107
  527MOL0     O71013   7.176  11.170   8.342  0.3793 -0.0646 -0.7565
  527MOL0     C71014   7.038  11.160   8.305 -0.4444  0.0776 -0.1940
  527MOL0     C71015   6.974  11.038   8.282 -0.7236 -0.0701  0.5829
  527MOL0     C71016   6.846  11.017   8.228 -0.0220  0.0123  0.1476
  527MOL0     C71017   6.764  11.133   8.214 -0.2849  0.2385 -0.2837
  527MOL0     O71018   6.634  11.135   8.178 -1.3863 -0.5371 -0.2967
  527MOL0     C71019   6.574  11.010   8.153  0.1145  0.8000 -0.2355
  527MOL0     C71020   6.429  11.019   8.113 -0.5471 -0.3679 -0.0914
  527MOL0     C71021   6.348  11.075   8.234 -1.4071  0.2654 -0.2350
  527MOL0     C71022   6.202  11.077   8.204  0.0030  0.5316  0.8722
  527MOL0     C71023   6.122  10.970   8.277 -0.6363  0.1986 -0.6889
  527MOL0     C71024   5.973  10.987   8.259  0.0377 -0.2690  0.8247
  527MOL0     C71025   5.902  10.875   8.343 -0.0001 -0.3957 -0.2991
  527MOL0     C71026   5.750  10.903   8.330  0.2698 -0.2049  0.4665
  527MOL0     N71027   5.669  10.805   8.399 -0.1552  0.7771  1.2919
  527MOL0     C71028   5.663  10.671   8.364 -0.6385 -0.1134  0.8185
  527MOL0     C71029   5.564  10.632   8.443  0.6983  0.2496  0.2945
  527MOL0     C71030   5.527  10.487   8.456  0.1013 -0.6637  0.1803
  527MOL0     C71031   5.461  10.439   8.586 -0.1826 -0.9167 -0.3819
  527MOL0     C71032   5.309  10.484   8.608  0.6663 -0.0163  0.1674
  527MOL0     C71033   5.213  10.399   8.533 -0.1026  0.1930  0.3024
  527MOL0     O71034   5.227  10.259   8.574 -0.1529 -0.4424 -0.1890
  527MOL0     C71035   5.124  10.177   8.541 -0.0981 -1.2492 -0.2925
  527MOL0     C71036   5.116  10.042   8.595 -0.2335  0.1404  0.2445
  527MOL0     C71037   5.007   9.958   8.582  0.6888  0.5017  0.5480
  527MOL0     C71038   5.015   9.823   8.656  0.3480 -0.0916  0.2506
  527MOL0     C71039   4.894  10.001   8.504  0.2305 -0.6989 -0.3046
  527MOL0     C71040   4.768   9.924   8.482 -0.2894  1.0964  0.2309
  527MOL0     O71041   4.688   9.977   8.389 -0.6713 -0.2296  0.3428
  527MOL0     C71042   4.568   9.916   8.350 -0.6525 -0.2019  0.2353
  527MOL0     C71043   4.528   9.961   8.224 -0.2811  0.8795 -1.0863
  527MOL0     C71044   4.405   9.923   8.163  0.5038  0.2394  0.8461
  527MOL0     C71045   4.328   9.819   8.226  0.1246 -0.1370  0.1436
  527MOL0     O71046   4.200   9.775   8.201  0.3602 -0.1485  0.4253
  527MOL0     C71047   4.119   9.863   8.123 -0.4941 -0.6979  0.0014
  527MOL0     C71048   4.081   9.991   8.193  0.9129 -0.3730  0.0564
  527MOL0     C71049   4.048  10.005   8.339  0.5658  0.1358  0.1064
  527MOL0     C71050   3.923   9.931   8.381  0.1471 -0.5806 -0.0167
  527MOL0     C71051   3.878   9.968   8.521 -0.4456 -0.2298 -0.0728
  527MOL0     C71052   3.782  10.087   8.535 -0.5497  0.0883 -0.0803
  527MOL0     C71053   3.686  10.081   8.654  0.6226  0.0677  0.0575
  527MOL0     C71054   3.621  10.221   8.678  0.6143 -0.2860  0.3312
  527MOL0    Cl71055   3.533  10.285   8.527  0.2037 -0.2293  0.1330
  527MOL0     C71056   4.369   9.776   8.354 -0.0216  0.2997  0.5832
  527MOL0     C71057   4.493   9.817   8.416  0.4864  0.0452 -0.6234
  527MOL0     O71058   4.749   9.820   8.553 -0.1447  0.5419 -0.2091
  527MOL0     C71059   4.901  10.129   8.448  0.4191 -1.0970  0.6981
  527MOL0     C71060   5.013  10.218   8.452 -0.4344 -0.2032 -0.3757
  527MOL0     N71061   5.505  10.733   8.512  0.1558  0.6427  0.1198
  527MOL0     N71062   5.583  10.837   8.499  0.3888 -0.0916  0.9717
  527MOL0     C71063   6.826  11.260   8.234 -0.4704 -0.0066 -0.3571
  527MOL0     C71064   6.956  11.273   8.277  0.3593 -0.4299 -1.0268
  527MOL0     C71065   7.403  11.205   8.268  0.4201  0.0554  0.1029
  527MOL0     C71066   7.451  11.133   8.373 -0.6331  1.0441 -0.6472
  527MOL0     C71067   7.591  11.110   8.396  0.0275 -0.1808 -0.4739
  527MOL0     C71068   7.685  11.170   8.312 -0.1712 -0.5648 -0.1659
  527MOL0     O71069   7.817  11.126   8.338 -0.1208 -0.6117  0.4753
  527MOL0     C71070   7.926  11.207   8.280 -0.4180  0.4639  0.8656
  527MOL0     C71071   8.047  11.206   8.379 -0.1848 -0.4657  0.8124
  527MOL0     C71072   8.000  11.218   8.521  0.0384  0.1797  0.8443
  527MOL0     C71073   8.115  11.210   8.618 -1.2558 -0.2367  0.3883
  527MOL0     C71074   8.075  11.250   8.751  0.3236 -0.3202 -0.4246
  527MOL0     C71075   8.035  11.265   8.865 -0.9921  0.1356  0.1298
  527MOL0     C71076   7.632  11.245   8.204 -0.1862 -0.6633  0.2839
  527MOL0     C71077   7.498  11.265   8.183  0.1823  0.0875 -0.2501
  527MOL0     H71078   7.045  10.956   8.291 -1.1642 -0.7471 -1.5283
  527MOL0     H71079   6.809  10.918   8.202 -0.7729  0.3627 -0.1258
  527MOL0     H71080   6.619  10.964   8.064 -0.9852  1.5323 -1.2097
  527MOL0     H71081   6.577  10.946   8.241 -1.4824  2.9608  1.5045
  527MOL0     H71082   6.428  11.082   8.024 -2.0978  0.9233  0.8098
  527MOL0     H71083   6.392  10.921   8.081 -1.5883  0.0547 -0.2171
  527MOL0     H71084   6.366  11.016   8.324  2.9352  0.7446 -0.5819
  527MOL0     H71085   6.380  11.178   8.251 -0.8659  0.0492  0.0815
  527MOL0     H71086   6.158  11.171   8.239 -0.5696  0.6135 -0.0271
  527MOL0     H71087   6.193  11.079   8.095 -2.6571 -0.7629  0.9950
  527MOL0     H71088   6.142  10.870   8.238 -0.3488 -0.3196  0.7510
  527MOL0     H71089   6.162  10.947   8.376  3.0404  0.5012 -1.9460
  527MOL0     H71090   5.946  11.088   8.290  0.2959  0.2299 -0.5033
  527MOL0     H71091   5.943  10.970   8.155 -0.3919  0.0384  0.8962
  527MOL0     H71092   5.925  10.774   8.307 -0.7693 -0.3553 -0.9295
  527MOL0     H71093   5.929  10.878   8.449  1.6458  0.2638 -0.7072
  527MOL0     H71094   5.721  10.903   8.225 -0.8491 -2.4468  0.7119
  527MOL0     H71095   5.725  10.997   8.381 -0.2208 -0.0706 -0.0039
  527MOL0     H71096   5.730  10.618   8.297 -1.8327 -0.8969  0.2080
  527MOL0     H71097   5.451  10.467   8.380  1.2873 -1.8106 -0.7470
  527MOL0     H71098   5.616  10.425   8.445 -0.0297 -1.0660  1.2318
  527MOL0     H71099   5.525  10.474   8.668  0.8417 -0.1267 -1.4849
  527MOL0     H71100   5.462  10.330   8.580  0.8512 -0.8671 -1.3200
  527MOL0     H71101   5.296  10.587   8.574  0.7041  0.2566  0.9549
  527MOL0     H71102   5.287  10.480   8.715 -2.6790 -1.8112 -0.4572
  527MOL0     H71103   5.240  10.407   8.428  1.3580 -0.8355  0.5658
  527MOL0     H71104   5.109  10.427   8.553  0.3742  1.8284  0.6160
  527MOL0     H71105   5.199  10.002   8.652 -1.2879  0.3094  1.9771
  527MOL0     H71106   4.967   9.745   8.597 -3.3367  1.8978  0.2942
  527MOL0     H71107   5.121   9.799   8.670  0.0453 -1.5063  0.1778
  527MOL0     H71108   4.961   9.829   8.751 -1.9793  0.8550 -1.0352
  527MOL0     H71109   4.589  10.036   8.176  0.9006  0.8184  0.2461
  527MOL0     H71110   4.376   9.978   8.074  0.8404 -0.9993 -0.0613
  527MOL0     H71111   4.165   9.895   8.029  0.6105  0.0299  0.7709
  527MOL0     H71112   4.033   9.801   8.096  0.0942 -1.5741  0.0915
  527MOL0     H71113   4.166  10.057   8.176  3.5873 -3.7529 -0.8063
  527MOL0     H71114   3.996  10.035   8.141  0.8732  0.9445  1.1691
  527MOL0     H71115   4.048  10.110   8.369 -0.5542 -0.1351  1.1183
  527MOL0     H71116   4.121   9.953   8.402  0.3645 -0.7554 -0.3734
  527MOL0     H71117   3.842   9.966   8.317 -0.7604 -1.6188  0.5220
  527MOL0     H71118   3.932   9.822   8.388  3.2108 -0.3403  1.3744
  527MOL0     H71119   3.966   9.980   8.585 -1.7389  1.6562  1.4707
  527MOL0     H71120   3.820   9.886   8.565 -0.3856  0.5543  1.5464
  527MOL0     H71121   3.842  10.178   8.523 -2.7984  1.4893 -1.4117
  527MOL0     H71122   3.717  10.097   8.448  0.3819  2.8952 -0.5882
  527MOL0     H71123   3.730  10.041   8.745 -0.8280  2.6576  2.0365
  527MOL0     H71124   3.612  10.009   8.618 -0.1085  0.0059  1.6112
  527MOL0     H71125   3.693  10.302   8.689 -0.4378  0.7410 -0.1292
  527MOL0     H71126   3.542  10.229   8.754  0.7780 -0.5723  0.5343
  527MOL0     H71127   4.301   9.711   8.408 -1.1725 -0.6391 -1.8421
  527MOL0     H71128   4.498   9.804   8.523 -1.7660 -0.8062 -0.5784
  527MOL0     H71129   4.814  10.179   8.407  1.2318  0.0963  0.3765
  527MOL0     H71130   5.022  10.317   8.406  0.1742 -0.1962 -0.2572
  527MOL0     H71131   6.754  11.337   8.208 -2.4671 -1.9243 -0.8084
  527MOL0     H71132   6.991  11.376   8.279  0.2036 -0.2852  3.4448
  527MOL0     H71133   7.381  11.079   8.437 -1.1256  1.5065 -0.7870
  527MOL0     H71134   7.618  11.049   8.482 -0.1773 -0.3041 -0.4981
  527MOL0     H71135   7.965  11.154   8.193 -0.6505 -0.9304  1.5754
  527MOL0     H71136   7.891  11.306   8.250  1.0966  0.3372 -1.6596
  527MOL0     H71137   8.114  11.291   8.361 -0.1820 -0.4187  1.0491
  527MOL0     H71138   8.095  11.109   8.361 -2.4821 -1.3703 -0.8749
  527MOL0     H71139   7.945  11.124   8.528 -1.8462  0.6956 -3.6149
  527MOL0     H71140   7.956  11.317   8.535  1.0974  0.8407 -0.2448
  527MOL0     H71141   8.199  11.267   8.578 -2.0312 -0.4608 -1.7264
  527MOL0     H71142   8.151  11.107   8.621  3.1767  1.1349  2.3846
  527MOL0     H71143   8.003  11.284   8.966 -1.9697  1.6796 -0.4508
  527MOL0     H71144   7.705  11.302   8.147 -1.3943 -1.5667 -2.3403
  527MOL0     H71145   7.468  11.323   8.095  2.6875  1.8396 -0.0660
  528MOL0     O71146   8.166  11.008   3.451  0.7054  0.1396  0.1302
  528MOL0     C71147   8.243  11.004   3.362  0.5705  0.2173 -0.6887
  528MOL0     O71148   8.282  11.114   3.293 -0.7393  0.1769  0.7955
  528MOL0     C71149   8.246  11.243   3.314 -0.4194 -0.6735  0.6787
  528MOL0     C71150   8.121  11.283   3.280  0.3031  0.3598  0.0834
  528MOL0     C71151   8.083  11.415   3.292  0.7724  0.3101 -0.1912
  528MOL0     C71152   8.177  11.512   3.318  0.6439  0.5317  0.5657
  528MOL0     O71153   8.145  11.644   3.314 -0.2760 -0.0569 -0.6033
  528MOL0     C71154   8.059  11.703   3.221 -0.6392  0.1712  0.7179
  528MOL0     C71155   7.976  11.815   3.282  0.3358 -0.3943  0.1104
  528MOL0     C71156   8.062  11.942   3.321 -1.1447 -0.1880  0.0553
  528MOL0     C71157   7.986  12.071   3.355  0.8948 -0.1723  0.1457
  528MOL0     C71158   7.929  12.055   3.493 -0.3400 -0.0873 -0.4816
  528MOL0     C71159   7.843  12.180   3.540 -0.3838  0.5813  0.1584
  528MOL0     C71160   7.790  12.152   3.680 -0.3127  0.2048  0.4919
  528MOL0     C71161   7.713  12.269   3.742 -0.2325 -0.2429 -1.0794
  528MOL0     N71162   7.793  12.396   3.752  0.9489 -0.3548  0.2496
  528MOL0     C71163   7.741  12.519   3.721 -0.3917  0.3220 -0.0006
  528MOL0     C71164   7.844  12.592   3.771  0.3345  0.2380  0.6285
  528MOL0     C71165   7.836  12.740   3.770 -0.4053 -0.5287  0.6218
  528MOL0     C71166   7.707  12.812   3.804 -0.3354 -0.6497 -0.2204
  528MOL0     C71167   7.664  12.760   3.945 -0.4386 -0.6049  0.1546
  528MOL0     C71168   7.533  12.819   3.989 -0.1922 -0.1660  0.2730
  528MOL0     O71169   7.428  12.768   3.902  0.4777 -0.2980 -0.5611
  528MOL0     C71170   7.309  12.829   3.896 -1.1436  0.7135  0.3559
  528MOL0     C71171   7.236  12.791   3.789  0.0205 -0.2723 -0.4784
  528MOL0     C71172   7.104  12.828   3.778  0.5520 -0.6442  0.5120
  528MOL0     C71173   7.037  12.766   3.665  0.2006  0.0553  0.6572
  528MOL0     C71174   7.049  12.926   3.862  1.0188 -0.0998  0.0088
  528MOL0     C71175   6.914  12.979   3.847 -0.3364  0.0401 -0.1126
  528MOL0     O71176   6.850  13.004   3.961  1.0417 -0.4940 -1.1207
  528MOL0     C71177   6.726  13.064   3.955 -0.3423 -0.1220 -0.1760
  528MOL0     C71178   6.613  12.981   3.940  0.1003  0.5584  0.0883
  528MOL0     C71179   6.489  13.030   3.921  0.1146 -0.2674  0.4190
  528MOL0     C71180   6.461  13.168   3.941 -0.1073  0.3823  0.0651
  528MOL0     O71181   6.341  13.233   3.926  0.4262 -0.1550  0.5919
  528MOL0     C71182   6.228  13.143   3.925 -0.1717  0.1575 -0.2695
  528MOL0     C71183   6.100  13.226   3.918  0.8195 -0.0547 -0.6600
  528MOL0     C71184   6.085  13.348   4.008 -0.1415  0.0710 -0.6968
  528MOL0     C71185   5.938  13.396   4.006  0.8768  1.4278 -0.0415
  528MOL0     C71186   5.928  13.538   4.064  0.2244 -0.6911  1.6543
  528MOL0     C71187   5.988  13.552   4.201 -0.2668  0.1681 -0.4967
  528MOL0     C71188   5.926  13.467   4.310  0.5383  0.4658 -0.4623
  528MOL0     C71189   5.975  13.503   4.440  0.3536 -0.0493 -0.7201
  528MOL0    Cl71190   5.900  13.661   4.488  0.0817  0.1786  0.2098
  528MOL0     C71191   6.570  13.252   3.960 -0.4869  0.1818  0.2201
  528MOL0     C71192   6.699  13.203   3.964  0.0217 -0.4045 -0.0247
  528MOL0     O71193   6.863  12.983   3.736 -0.1997 -0.0462  0.4568
  528MOL0     C71194   7.124  12.967   3.976 -0.3946 -0.6260  0.4704
  528MOL0     C71195   7.257  12.922   3.987  0.5212  0.0521 -0.6328
  528MOL0     N71196   7.941  12.515   3.833  0.8478  0.6215  0.2795
  528MOL0     N71197   7.900  12.396   3.830 -0.3030  0.0264 -0.0431
  528MOL0     C71198   8.307  11.479   3.341  0.0056  0.5051  0.7777
  528MOL0     C71199   8.352  11.337   3.338  0.4247 -0.5509  0.3617
  528MOL0     C71200   8.293  10.866   3.319  0.1536 -0.0672 -0.3550
  528MOL0     C71201   8.217  10.748   3.352  0.2016  0.5513  0.1613
  528MOL0     C71202   8.247  10.629   3.281  0.4108 -0.0824  0.2013
  528MOL0     C71203   8.346  10.620   3.182 -1.0608  0.2110 -1.0155
  528MOL0     O71204   8.362  10.505   3.113  0.2092 -0.2628 -0.4483
  528MOL0     C71205   8.395  10.390   3.195  0.4863 -0.3719  0.3225
  528MOL0     C71206   8.452  10.266   3.125  0.9213  0.1608  0.4434
  528MOL0     C71207   8.602  10.295   3.084 -0.2214 -0.8261 -0.0724
  528MOL0     C71208   8.649  10.163   3.030 -0.3351  0.7067 -0.3682
  528MOL0     C71209   8.776  10.190   2.947  0.5670  0.1463  0.3414
  528MOL0     C71210   8.874  10.205   2.870  0.7943 -0.6208  0.4194
  528MOL0     C71211   8.427  10.732   3.167  0.0008 -0.1563  0.0111
  528MOL0     C71212   8.401  10.855   3.227  0.4196 -0.7184 -0.6223
  528MOL0     H71213   8.051  11.202   3.264  2.2597 -1.6952  1.3747
  528MOL0     H71214   7.981  11.447   3.275  0.9387  0.6343 -0.5951
  528MOL0     H71215   8.119  11.731   3.134 -0.5344 -2.7809 -0.2877
  528MOL0     H71216   7.991  11.623   3.192  0.9445 -0.5287 -1.3427
  528MOL0     H71217   7.893  11.841   3.216  0.0052 -0.7931  0.3571
  528MOL0     H71218   7.923  11.766   3.365  2.5364 -1.9710  0.6682
  528MOL0     H71219   8.133  11.922   3.402 -1.0172 -1.3864 -0.3186
  528MOL0     H71220   8.123  11.970   3.234  0.8340  2.1967  2.0478
  528MOL0     H71221   8.038  12.166   3.341  1.0920 -0.3057 -0.0434
  528MOL0     H71222   7.906  12.082   3.282  1.1329  1.0964  0.0596
  528MOL0     H71223   7.867  11.965   3.493 -3.6921  2.0426 -0.8431
  528MOL0     H71224   8.015  12.044   3.559 -0.3226 -0.8378 -0.6236
  528MOL0     H71225   7.906  12.269   3.540  3.1492 -1.6795 -1.0147
  528MOL0     H71226   7.767  12.201   3.464 -1.2751 -0.1063  0.8391
  528MOL0     H71227   7.722  12.067   3.678 -0.5989  0.2663  3.5943
  528MOL0     H71228   7.876  12.129   3.743  0.0455  2.4588  0.9027
  528MOL0     H71229   7.676  12.240   3.841 -0.3555 -1.0834 -1.3609
  528MOL0     H71230   7.625  12.297   3.683 -0.1320  1.2308 -0.5703
  528MOL0     H71231   7.647  12.558   3.684 -1.3714 -1.5607  0.4102
  528MOL0     H71232   7.923  12.781   3.823 -0.5230  2.3028 -1.1467
  528MOL0     H71233   7.864  12.779   3.671  1.9788 -0.7113  1.1471
  528MOL0     H71234   7.635  12.797   3.723 -0.5139 -2.8339  0.2778
  528MOL0     H71235   7.731  12.917   3.818 -1.8194 -0.6528  3.5062
  528MOL0     H71236   7.745  12.788   4.013 -0.2256  0.4444 -0.5195
  528MOL0     H71237   7.660  12.650   3.949  2.5080 -0.7978 -0.1487
  528MOL0     H71238   7.543  12.928   3.987  3.5249 -0.3809 -0.3576
  528MOL0     H71239   7.522  12.795   4.095  0.7345  1.3781  0.7539
  528MOL0     H71240   7.296  12.736   3.717  1.0532  0.7996 -0.4751
  528MOL0     H71241   7.088  12.677   3.628 -2.3425 -1.1346 -0.2612
  528MOL0     H71242   6.938  12.731   3.697 -0.2143 -1.8730 -2.3296
  528MOL0     H71243   7.015  12.839   3.587 -2.1296 -1.4546 -0.1984
  528MOL0     H71244   6.639  12.876   3.935  2.4637  1.1068 -0.4095
  528MOL0     H71245   6.401  12.972   3.895  0.5082  0.0077 -1.6974
  528MOL0     H71246   6.220  13.080   3.836  0.8827 -0.2433 -0.0972
  528MOL0     H71247   6.219  13.093   4.022  0.4843 -1.6959 -1.1248
  528MOL0     H71248   6.088  13.270   3.819  0.9156 -0.0326 -0.6612
  528MOL0     H71249   6.027  13.146   3.936  2.8998 -1.5934  1.7594
  528MOL0     H71250   6.143  13.431   3.966 -2.1077  0.8994 -1.8966
  528MOL0     H71251   6.122  13.327   4.109  1.8283  0.1577 -1.3473
  528MOL0     H71252   5.894  13.395   3.905 -3.0872 -1.9568  1.4083
  528MOL0     H71253   5.872  13.325   4.057 -1.6216  3.1410 -0.7092
  528MOL0     H71254   5.822  13.562   4.070 -0.1201 -0.9545 -1.6019
  528MOL0     H71255   5.973  13.614   4.000  2.2094 -2.9721  0.1650
  528MOL0     H71256   6.097  13.542   4.198  0.1212  3.2191  0.8020
  528MOL0     H71257   5.978  13.656   4.233 -0.6034 -0.6528  2.2850
  528MOL0     H71258   5.954  13.363   4.292  0.1244  0.2435  0.1759
  528MOL0     H71259   5.817  13.476   4.307  0.5312  0.2920 -0.7486
  528MOL0     H71260   6.084  13.500   4.447  0.3124  1.2809  0.8428
  528MOL0     H71261   5.939  13.424   4.507 -0.2694  2.1516  1.7193
  528MOL0     H71262   6.555  13.358   3.978 -0.6581  0.7265 -2.6882
  528MOL0     H71263   6.787  13.266   3.975  0.9743 -1.5174 -0.9698
  528MOL0     H71264   7.078  13.044   4.037  0.9355  2.3289 -1.9913
  528MOL0     H71265   7.310  12.958   4.074 -1.4579 -1.7672  1.4830
  528MOL0     H71266   8.381  11.557   3.356  1.2841 -0.1302 -1.6901
  528MOL0     H71267   8.456  11.309   3.345  0.7685  0.6979  0.3855
  528MOL0     H71268   8.139  10.749   3.427 -0.7170 -2.3354 -0.6556
  528MOL0     H71269   8.191  10.538   3.303 -0.5961  0.4279 -0.1789
  528MOL0     H71270   8.480  10.423   3.256  1.5193 -2.6133  0.1721
  528MOL0     H71271   8.312  10.368   3.262  1.1702 -1.0376  0.9723
  528MOL0     H71272   8.395  10.238   3.036  1.5823  1.3987 -0.3979
  528MOL0     H71273   8.452  10.184   3.197  2.2192 -0.0724  0.2110
  528MOL0     H71274   8.663  10.327   3.168  0.0252  1.0303 -0.9023
  528MOL0     H71275   8.598  10.367   3.001  1.2195 -1.5487 -0.8071
  528MOL0     H71276   8.579  10.107   2.967  1.1339 -2.5467  0.7194
  528MOL0     H71277   8.676  10.090   3.106 -2.0146 -0.8722 -1.2171
  528MOL0     H71278   8.958  10.218   2.804 -0.3885 -1.0545 -1.2529
  528MOL0     H71279   8.516  10.743   3.106  0.4808 -0.9361  0.5440
  528MOL0     H71280   8.464  10.939   3.202  0.0198 -0.4427 -0.7119
  529MOL0     O71281   5.991   8.042   2.966 -0.5704 -0.1434  0.1139
  529MOL0     C71282   5.980   8.157   3.009 -0.1451  0.0870 -0.0605
  529MOL0     O71283   5.862   8.226   3.018  0.2888  0.2962  0.1925
  529MOL0     C71284   5.760   8.185   2.936  0.2087 -0.8330  0.0709
  529MOL0     C71285   5.670   8.087   2.973 -0.2362  0.7646 -0.4735
  529MOL0     C71286   5.563   8.051   2.894  0.1703  0.1233 -0.1263
  529MOL0     C71287   5.550   8.105   2.760 -1.0663  0.5740 -0.0643
  529MOL0     O71288   5.446   8.077   2.679 -0.4589  0.2976  0.0231
  529MOL0     C71289   5.419   7.940   2.649 -0.6472 -0.1606  0.1369
  529MOL0     C71290   5.320   7.923   2.537  0.4376 -1.0141 -0.6151
  529MOL0     C71291   5.288   7.779   2.494  0.2939  0.3484 -0.1062
  529MOL0     C71292   5.191   7.777   2.377 -0.0073  0.5733  0.6720
  529MOL0     C71293   5.194   7.647   2.303 -0.0643  0.3348  0.3239
  529MOL0     C71294   5.091   7.644   2.188  0.7924 -0.1935 -0.6948
  529MOL0     C71295   5.068   7.499   2.132 -0.4745  0.2262 -0.1819
  529MOL0     C71296   4.970   7.501   2.023 -0.2639  0.1085  0.3367
  529MOL0     N71297   4.853   7.575   2.067 -0.2609 -0.5354  0.1291
  529MOL0     C71298   4.753   7.523   2.150  0.7136 -0.0797 -0.1552
  529MOL0     C71299   4.647   7.608   2.129  0.6527  0.4471  0.3853
  529MOL0     C71300   4.505   7.594   2.184  0.3352  0.1014  0.3800
  529MOL0     C71301   4.409   7.709   2.156  0.1288 -0.2921  0.2605
  529MOL0     C71302   4.450   7.843   2.211  0.0689  0.2007  0.3262
  529MOL0     C71303   4.486   7.840   2.358 -0.0684  0.0305 -0.4086
  529MOL0     O71304   4.526   7.965   2.411 -0.6507 -1.2013  0.5708
  529MOL0     C71305   4.646   8.020   2.362 -0.2177 -0.2859  0.9529
  529MOL0     C71306   4.673   8.154   2.366 -0.3069  0.0808  0.2126
  529MOL0     C71307   4.800   8.206   2.332  0.7461 -0.5073 -0.5440
  529MOL0     C71308   4.808   8.353   2.341 -0.0734 -0.3609  0.3188
  529MOL0     C71309   4.896   8.123   2.272  0.3612  0.1192 -0.2393
  529MOL0     C71310   5.011   8.179   2.218  0.5940 -0.1986 -0.9280
  529MOL0     O71311   4.992   8.281   2.127  0.0989  0.2028  0.5641
  529MOL0     C71312   5.098   8.354   2.074  0.1005  0.6705 -0.6807
  529MOL0     C71313   5.070   8.416   1.948  0.6346 -0.8783 -0.3939
  529MOL0     C71314   5.164   8.490   1.890  0.1435 -0.3370 -0.3549
  529MOL0     C71315   5.291   8.520   1.947 -0.6386  0.1131  0.1152
  529MOL0     O71316   5.371   8.605   1.875  0.2217  0.0461 -0.2980
  529MOL0     C71317   5.510   8.602   1.899 -0.3546 -0.2212 -0.2872
  529MOL0     C71318   5.570   8.477   1.842 -0.2801 -0.5695  0.2202
  529MOL0     C71319   5.516   8.449   1.703  0.5650 -0.0503 -0.5823
  529MOL0     C71320   5.576   8.320   1.641 -0.0772  0.4726 -0.1817
  529MOL0     C71321   5.592   8.322   1.487 -0.1807  0.3427 -0.8250
  529MOL0     C71322   5.667   8.203   1.428  0.1797 -0.1518 -0.0993
  529MOL0     C71323   5.698   8.221   1.279  0.2588  0.9725 -0.0675
  529MOL0     C71324   5.761   8.093   1.203  0.5720 -0.0961 -0.9032
  529MOL0    Cl71325   5.897   8.140   1.100  0.1576 -0.2307  0.3903
  529MOL0     C71326   5.320   8.443   2.061  0.7380 -0.5721 -0.0649
  529MOL0     C71327   5.231   8.356   2.122  1.0612 -0.1651 -1.2749
  529MOL0     O71328   5.122   8.124   2.233  0.3241  0.6970 -0.1711
  529MOL0     C71329   4.875   7.992   2.262 -1.0858 -0.5349 -0.1135
  529MOL0     C71330   4.752   7.941   2.298 -0.1290  0.3138 -0.5899
  529MOL0     N71331   4.686   7.713   2.047 -0.0791  0.1940  0.0610
  529MOL0     N71332   4.817   7.696   2.015  0.0905 -0.1172 -0.8130
  529MOL0     C71333   5.633   8.214   2.738  0.1027 -0.4275  0.2299
  529MOL0     C71334   5.738   8.257   2.823  0.0304  0.2473 -1.1349
  529MOL0     C71335   6.099   8.214   3.076 -0.0365  0.0931 -0.1713
  529MOL0     C71336   6.224   8.147   3.101 -0.2656 -0.7904 -0.6194
  529MOL0     C71337   6.326   8.213   3.161 -0.5590  0.3830  0.6379
  529MOL0     C71338   6.312   8.344   3.199  0.0369  0.1012 -0.1828
  529MOL0     O71339   6.426   8.383   3.253  0.0590  0.0489 -0.0572
  529MOL0     C71340   6.442   8.509   3.308 -0.2352 -0.4742 -0.6322
  529MOL0     C71341   6.584   8.523   3.360  0.5184  0.1874 -0.0846
  529MOL0     C71342   6.611   8.445   3.495 -0.7390  0.3175  0.3127
  529MOL0     C71343   6.760   8.414   3.526 -0.8887 -0.4570 -0.2505
  529MOL0     C71344   6.776   8.371   3.665  0.9537  0.2554 -0.7468
  529MOL0     C71345   6.791   8.317   3.775  0.1545 -0.0596  0.1570
  529MOL0     C71346   6.191   8.419   3.186 -1.1677 -0.3335 -1.8715
  529MOL0     C71347   6.088   8.351   3.122  0.2516 -0.3932 -0.1236
  529MOL0     H71348   5.680   8.047   3.074 -0.8576 -0.4737 -0.8945
  529MOL0     H71349   5.501   7.971   2.932  0.8533  0.3675  1.6050
  529MOL0     H71350   5.510   7.886   2.623 -0.6731  0.2158 -0.7986
  529MOL0     H71351   5.390   7.892   2.742  1.4461  0.2962  1.0806
  529MOL0     H71352   5.228   7.966   2.578  1.0983 -1.2272  1.1760
  529MOL0     H71353   5.365   7.975   2.452 -1.6272  0.6144 -0.7877
  529MOL0     H71354   5.377   7.721   2.469  0.1020  0.2779 -0.6201
  529MOL0     H71355   5.245   7.723   2.577 -2.0400  1.7012 -0.3068
  529MOL0     H71356   5.091   7.799   2.414 -0.1894  2.4661 -0.7873
  529MOL0     H71357   5.208   7.858   2.306 -0.9250  0.6594  0.5406
  529MOL0     H71358   5.298   7.628   2.275  0.6731  2.9567  0.9735
  529MOL0     H71359   5.168   7.573   2.380 -2.2824  0.4263 -0.2703
  529MOL0     H71360   4.998   7.689   2.224  0.3778 -0.8150 -0.9741
  529MOL0     H71361   5.111   7.708   2.102  1.1798  1.1481  0.3635
  529MOL0     H71362   5.167   7.466   2.098 -0.9079  0.3038 -1.5649
  529MOL0     H71363   5.031   7.440   2.216  2.3527 -1.1548  0.2208
  529MOL0     H71364   4.956   7.396   1.999  3.2083 -0.2804 -0.6237
  529MOL0     H71365   5.018   7.550   1.937  0.6785  0.3192  0.9571
  529MOL0     H71366   4.746   7.434   2.211  0.9141  0.0789  0.0973
  529MOL0     H71367   4.465   7.508   2.132  0.7240 -0.4839  1.0284
  529MOL0     H71368   4.505   7.575   2.292 -2.7796  1.0532  0.6514
  529MOL0     H71369   4.316   7.670   2.197  1.6317 -4.6458  0.0599
  529MOL0     H71370   4.407   7.718   2.047 -0.2354  0.4701  0.3249
  529MOL0     H71371   4.373   7.920   2.194  0.7356  0.7172 -0.4259
  529MOL0     H71372   4.534   7.876   2.149 -0.3473 -3.2981 -2.4656
  529MOL0     H71373   4.561   7.762   2.373 -2.0854 -2.1425 -1.1812
  529MOL0     H71374   4.397   7.812   2.414  1.6303  0.6575  2.8615
  529MOL0     H71375   4.596   8.219   2.405 -1.0606 -0.8432  0.2859
  529MOL0     H71376   4.830   8.404   2.247  0.9049  0.9228  1.2075
  529MOL0     H71377   4.716   8.398   2.378  0.5934  0.8866  0.5174
  529MOL0     H71378   4.887   8.378   2.413 -0.5438  0.7345  0.4723
  529MOL0     H71379   4.972   8.396   1.905 -0.0165 -0.3361  0.7881
  529MOL0     H71380   5.145   8.547   1.799  1.4143  1.5049  0.4547
  529MOL0     H71381   5.556   8.689   1.851  0.7649 -1.0991 -0.8640
  529MOL0     H71382   5.530   8.597   2.006  1.1186 -2.4055 -0.5880
  529MOL0     H71383   5.679   8.482   1.838 -0.3245  0.0939 -0.3180
  529MOL0     H71384   5.537   8.405   1.917 -0.4342  1.5477  2.3148
  529MOL0     H71385   5.529   8.523   1.624 -1.9876  0.2001 -0.8536
  529MOL0     H71386   5.406   8.453   1.703  0.5614  0.1582 -1.6666
  529MOL0     H71387   5.669   8.293   1.693  1.4715 -2.7332 -4.0595
  529MOL0     H71388   5.501   8.247   1.674 -1.5669  2.0252 -0.0010
  529MOL0     H71389   5.638   8.416   1.453  0.7223 -0.0604 -0.7564
  529MOL0     H71390   5.491   8.319   1.447  0.0944  3.1264 -1.9602
  529MOL0     H71391   5.759   8.194   1.486 -0.4360 -1.1349  0.7653
  529MOL0     H71392   5.619   8.105   1.439  0.8161 -0.8071 -2.3986
  529MOL0     H71393   5.769   8.302   1.264  2.3413 -0.9219 -1.1052
  529MOL0     H71394   5.609   8.260   1.229 -0.3782 -0.4346 -0.0865
  529MOL0     H71395   5.693   8.033   1.142  0.2280 -2.5635  1.7254
  529MOL0     H71396   5.800   8.021   1.274  0.4937  0.6771 -0.0585
  529MOL0     H71397   5.419   8.456   2.103 -0.1821  0.4817  1.9151
  529MOL0     H71398   5.262   8.307   2.213 -1.0258 -1.1754 -1.0582
  529MOL0     H71399   4.950   7.929   2.216 -0.1786  1.0835 -0.9155
  529MOL0     H71400   4.746   7.833   2.284 -3.2580  0.4781 -1.1973
  529MOL0     H71401   5.615   8.257   2.640 -0.7901  0.4694  0.7670
  529MOL0     H71402   5.793   8.347   2.801 -0.0058  0.7467  0.6581
  529MOL0     H71403   6.238   8.042   3.078  0.7300 -0.0980 -3.6866
  529MOL0     H71404   6.418   8.159   3.178 -0.9517 -2.0860 -3.5957
  529MOL0     H71405   6.417   8.578   3.226 -2.5546 -0.8768 -0.3226
  529MOL0     H71406   6.369   8.516   3.389 -0.4834  0.8983 -0.9474
  529MOL0     H71407   6.598   8.627   3.388  0.1768 -0.6644  3.9504
  529MOL0     H71408   6.654   8.490   3.284  0.8883  1.8950 -0.5168
  529MOL0     H71409   6.564   8.346   3.493 -1.9551  0.8765 -0.0437
  529MOL0     H71410   6.570   8.507   3.575 -0.7623  0.3244  0.2954
  529MOL0     H71411   6.833   8.491   3.500 -1.0916  0.5289  1.8654
  529MOL0     H71412   6.782   8.328   3.463 -0.0832 -2.0861  2.1132
  529MOL0     H71413   6.815   8.276   3.871 -2.4531  1.1271  1.4104
  529MOL0     H71414   6.193   8.525   3.211 -0.7838 -0.4405 -1.4283
  529MOL0     H71415   6.000   8.414   3.117 -0.0900 -0.5916  2.1264
  530MOL0     O71416   6.192   9.070   4.330 -0.0281  0.4042 -0.0097
  530MOL0     C71417   6.257   8.971   4.285 -0.1796 -0.5352 -0.7429
  530MOL0     O71418   6.248   8.924   4.164 -0.6410  0.1011  0.1080
  530MOL0     C71419   6.156   8.961   4.067 -0.2188 -0.4182 -0.6756
  530MOL0     C71420   6.198   8.986   3.944 -0.3581  0.2735  0.0988
  530MOL0     C71421   6.112   9.037   3.842  0.5707  0.3606  0.8505
  530MOL0     C71422   5.974   9.053   3.879 -0.4782  0.3054  0.7382
  530MOL0     O71423   5.892   9.116   3.784  0.0920  0.3674  0.3735
  530MOL0     C71424   5.747   9.110   3.793 -0.0086 -0.0445 -0.3883
  530MOL0     C71425   5.689   9.120   3.656  0.2334  0.8228 -0.4907
  530MOL0     C71426   5.540   9.159   3.652  0.3716  0.4517 -0.2562
  530MOL0     C71427   5.471   9.121   3.522 -0.5741 -0.5564  0.8262
  530MOL0     C71428   5.360   9.217   3.483 -0.2777  0.4274  0.4125
  530MOL0     C71429   5.254   9.225   3.597  0.3761  0.0221  0.1048
  530MOL0     C71430   5.177   9.358   3.588 -0.2340  0.6075  0.5535
  530MOL0     C71431   5.173   9.439   3.719  0.1746  0.6884  0.0385
  530MOL0     N71432   5.063   9.390   3.802  0.1260 -0.3136 -0.6785
  530MOL0     C71433   5.066   9.288   3.897  0.1403 -0.3942  0.2109
  530MOL0     C71434   4.963   9.311   3.982  0.2135  0.4641 -0.4511
  530MOL0     C71435   4.910   9.216   4.092  0.7213 -0.0969 -0.2322
  530MOL0     C71436   4.968   9.241   4.231 -0.3133 -0.7471 -0.0977
  530MOL0     C71437   4.880   9.351   4.312 -0.5725  0.4813 -0.3414
  530MOL0     C71438   4.944   9.352   4.460  0.4923 -1.0808  1.0292
  530MOL0     O71439   4.938   9.214   4.509 -0.0949 -0.4449  0.7632
  530MOL0     C71440   4.816   9.177   4.552 -0.0008  0.5029 -0.1386
  530MOL0     C71441   4.764   9.219   4.677 -0.0488  0.2920  0.7370
  530MOL0     C71442   4.633   9.190   4.717  0.5670  0.8627 -1.2245
  530MOL0     C71443   4.587   9.229   4.859  1.1384  0.4397  0.5497
  530MOL0     C71444   4.550   9.103   4.637  0.3535 -0.2458  0.0712
  530MOL0     C71445   4.408   9.052   4.662  0.5540  0.0900 -0.2337
  530MOL0     O71446   4.342   8.990   4.562 -0.1421 -0.3821 -0.1677
  530MOL0     C71447   4.221   8.931   4.566  0.5968  0.2413 -0.8654
  530MOL0     C71448   4.147   8.920   4.450 -0.4326 -0.8091 -0.3235
  530MOL0     C71449   4.027   8.857   4.439 -0.1432 -0.4572  1.2123
  530MOL0     C71450   3.973   8.802   4.557  0.5367 -0.4050  0.1287
  530MOL0     O71451   3.851   8.740   4.555 -0.2644  0.4193  0.3908
  530MOL0     C71452   3.794   8.675   4.667  0.1469  0.2307  0.0689
  530MOL0     C71453   3.681   8.587   4.626  0.8554  0.4301  0.3611
  530MOL0     C71454   3.732   8.470   4.542 -0.4350 -0.2782  0.1890
  530MOL0     C71455   3.626   8.386   4.471 -0.1252 -0.4354 -0.4605
  530MOL0     C71456   3.710   8.290   4.387 -0.9837 -0.1554 -0.4270
  530MOL0     C71457   3.632   8.208   4.289 -0.0437 -0.0556  0.0064
  530MOL0     C71458   3.703   8.121   4.182 -0.3134 -0.0494  0.0495
  530MOL0     C71459   3.802   8.205   4.088  0.1501  0.4326 -0.6207
  530MOL0    Cl71460   3.708   8.344   4.033  0.0101 -0.3676  0.4350
  530MOL0     C71461   4.041   8.823   4.684 -0.1275 -0.3247  0.2810
  530MOL0     C71462   4.165   8.881   4.681  0.1820  0.0228  0.4227
  530MOL0     O71463   4.358   9.076   4.775 -0.2321  0.3189  0.2138
  530MOL0     C71464   4.606   9.057   4.511 -0.5390  0.1399  0.1992
  530MOL0     C71465   4.741   9.087   4.482 -0.8651 -0.3434 -0.3982
  530MOL0     N71466   4.896   9.429   3.940 -0.1972 -0.0998  0.4270
  530MOL0     N71467   4.956   9.471   3.834  0.0842 -0.8861 -0.8490
  530MOL0     C71468   5.929   9.022   4.010  0.6572 -0.0277  0.3080
  530MOL0     C71469   6.017   8.964   4.099  0.1967 -0.3304  0.3444
  530MOL0     C71470   6.348   8.897   4.381 -1.1611  1.0467 -0.3607
  530MOL0     C71471   6.331   8.907   4.520  0.7277 -0.2795 -0.8477
  530MOL0     C71472   6.425   8.841   4.602  0.2113  0.5016 -0.1053
  530MOL0     C71473   6.526   8.764   4.558  0.3350  0.9292  0.0773
  530MOL0     O71474   6.608   8.712   4.653 -0.1525 -0.7146 -0.0866
  530MOL0     C71475   6.592   8.572   4.664 -0.6470  0.8652  0.9152
  530MOL0     C71476   6.661   8.539   4.798 -0.3661 -0.4974  0.7996
  530MOL0     C71477   6.606   8.625   4.916 -0.1202 -0.0175 -0.9618
  530MOL0     C71478   6.647   8.565   5.047 -0.4143  0.4103 -0.7679
  530MOL0     C71479   6.607   8.645   5.167 -0.9061 -0.2612 -0.6134
  530MOL0     C71480   6.574   8.698   5.267 -1.5390  0.0919 -1.7146
  530MOL0     C71481   6.538   8.753   4.425  0.0754 -0.7831 -0.3978
  530MOL0     C71482   6.463   8.821   4.333 -0.3393 -0.2310 -0.1592
  530MOL0     H71483   6.300   8.970   3.911 -1.1045 -2.7430 -1.1188
  530MOL0     H71484   6.149   9.053   3.741  0.1646  0.5657  0.7314
  530MOL0     H71485   5.707   9.014   3.829  0.6284 -0.2823 -0.2992
  530MOL0     H71486   5.705   9.183   3.862  0.3035  1.3731 -1.6390
  530MOL0     H71487   5.747   9.193   3.598  2.0854 -1.2896 -1.3993
  530MOL0     H71488   5.680   9.023   3.607 -2.0520  0.6886  0.0722
  530MOL0     H71489   5.485   9.104   3.729  0.8722 -2.4344 -1.8421
  530MOL0     H71490   5.527   9.265   3.679 -0.3533 -0.0661  1.5896
  530MOL0     H71491   5.546   9.117   3.443 -0.5868 -2.0693  0.8584
  530MOL0     H71492   5.438   9.019   3.543 -1.9527 -0.2503  0.2182
  530MOL0     H71493   5.416   9.311   3.474 -0.4339  0.6442  1.5967
  530MOL0     H71494   5.332   9.187   3.381  0.1684 -1.3724  0.8031
  530MOL0     H71495   5.174   9.151   3.586 -1.7280  2.4691 -3.0623
  530MOL0     H71496   5.302   9.204   3.693 -0.4184 -2.4693  0.0447
  530MOL0     H71497   5.222   9.423   3.512 -1.9493 -0.0225 -1.0723
  530MOL0     H71498   5.078   9.342   3.545  0.3373 -0.5351 -0.3955
  530MOL0     H71499   5.159   9.547   3.705 -2.4813  0.5439  1.0897
  530MOL0     H71500   5.269   9.432   3.771 -0.8703 -0.1744  1.9347
  530MOL0     H71501   5.127   9.198   3.891  0.1722 -0.3237 -0.8585
  530MOL0     H71502   4.802   9.235   4.099  0.9616  0.9609  1.1564
  530MOL0     H71503   4.922   9.110   4.069  2.7382 -0.0570  0.4453
  530MOL0     H71504   5.067   9.284   4.213  0.0235 -1.7240 -0.6752
  530MOL0     H71505   4.969   9.147   4.286 -1.8538  0.3416  1.9542
  530MOL0     H71506   4.777   9.314   4.312 -0.7868  1.0323  0.6880
  530MOL0     H71507   4.885   9.446   4.259 -2.6694 -0.7990 -3.1013
  530MOL0     H71508   4.890   9.422   4.525 -1.0152 -1.2433  0.0176
  530MOL0     H71509   5.048   9.384   4.449 -0.2682  1.0620 -0.6518
  530MOL0     H71510   4.823   9.283   4.743  0.2358 -0.4553  1.2254
  530MOL0     H71511   4.580   9.135   4.915 -0.2272  1.2888  1.8974
  530MOL0     H71512   4.650   9.296   4.917  1.0602 -0.3440  1.5826
  530MOL0     H71513   4.487   9.272   4.847  1.4080  0.8572 -0.2170
  530MOL0     H71514   4.196   8.971   4.368 -0.3023  1.9139  1.3008
  530MOL0     H71515   3.973   8.843   4.346  0.4528  0.0788  0.7715
  530MOL0     H71516   3.877   8.626   4.718 -0.1754  1.8592  2.2922
  530MOL0     H71517   3.755   8.743   4.743 -1.8692 -2.0631  1.2269
  530MOL0     H71518   3.653   8.543   4.722  0.7308 -1.1497 -0.3654
  530MOL0     H71519   3.598   8.644   4.584 -2.6665 -3.1996  1.7734
  530MOL0     H71520   3.779   8.405   4.617 -1.4658 -1.5798 -0.2590
  530MOL0     H71521   3.800   8.513   4.468 -2.8250 -0.1134 -2.0554
  530MOL0     H71522   3.544   8.343   4.529 -2.5962  3.9260 -0.3284
  530MOL0     H71523   3.574   8.457   4.407 -0.4865  0.3741  0.6999
  530MOL0     H71524   3.760   8.218   4.453 -3.7541 -2.2811 -0.4416
  530MOL0     H71525   3.779   8.346   4.324 -0.0550 -4.0982 -3.2813
  530MOL0     H71526   3.573   8.139   4.350 -3.2864  2.1224 -0.3861
  530MOL0     H71527   3.549   8.266   4.247 -0.7968  0.2408  1.8030
  530MOL0     H71528   3.620   8.077   4.124 -0.6443  0.3740  0.1997
  530MOL0     H71529   3.755   8.040   4.234 -1.1265  0.3373  1.5370
  530MOL0     H71530   3.847   8.161   3.999  2.2807 -1.8153  1.4252
  530MOL0     H71531   3.890   8.231   4.147  3.3205 -3.9282 -2.8839
  530MOL0     H71532   4.007   8.795   4.783  0.4294  1.4143  1.0171
  530MOL0     H71533   4.228   8.883   4.769  2.5415 -1.3294 -1.1181
  530MOL0     H71534   4.562   8.996   4.433  0.1978 -1.7539  1.2136
  530MOL0     H71535   4.778   9.050   4.387 -0.8649  1.7124 -1.2535
  530MOL0     H71536   5.826   9.042   4.038  0.9762  0.4552  1.1583
  530MOL0     H71537   5.987   8.936   4.200  2.9668  1.6918  1.8724
  530MOL0     H71538   6.248   8.966   4.557  1.9092  0.6376  0.4246
  530MOL0     H71539   6.417   8.861   4.708 -1.4484  1.4034 -0.3562
  530MOL0     H71540   6.491   8.531   4.657 -0.6622  0.9537  0.5697
  530MOL0     H71541   6.648   8.527   4.581  0.5729 -1.7656  3.0176
  530MOL0     H71542   6.766   8.565   4.786  0.0451 -1.9415  1.0767
  530MOL0     H71543   6.646   8.433   4.818  3.1065 -1.1069  0.7393
  530MOL0     H71544   6.500   8.644   4.896 -1.0634 -1.1309  2.3393
  530MOL0     H71545   6.658   8.722   4.918  0.0449 -0.0735  2.6090
  530MOL0     H71546   6.753   8.580   5.068 -1.3677  2.9148  3.4857
  530MOL0     H71547   6.617   8.461   5.060  0.7425 -0.1282 -2.0735
  530MOL0     H71548   6.538   8.741   5.358  1.6422  0.6971 -0.5852
  530MOL0     H71549   6.623   8.696   4.388  0.6039 -1.1610  1.2830
  530MOL0     H71550   6.483   8.807   4.227 -1.2049 -1.4526 -0.1873
  531MOL0     O71551   9.413  11.040   4.322  0.1541  0.1015 -0.2178
  531MOL0     C71552   9.453  11.146   4.368 -0.5995 -0.5199  0.1085
  531MOL0     O71553   9.389  11.243   4.442  0.5497 -0.1921  0.1439
  531MOL0     C71554   9.257  11.230   4.455 -0.7738  1.1530  0.2968
  531MOL0     C71555   9.165  11.230   4.345 -0.4672 -0.2869 -0.0532
  531MOL0     C71556   9.027  11.211   4.367 -0.3203  0.0483 -0.0996
  531MOL0     C71557   8.977  11.233   4.497  0.1222 -0.2264  0.3679
  531MOL0     O71558   8.839  11.217   4.517  0.3608  0.1451  0.2293
  531MOL0     C71559   8.786  11.223   4.648  0.5056  0.9354 -0.4494
  531MOL0     C71560   8.634  11.187   4.641 -0.0065  0.6365 -0.7692
  531MOL0     C71561   8.566  11.188   4.778  0.1339 -0.6580 -0.2973
  531MOL0     C71562   8.423  11.133   4.769 -0.9626 -0.0812  0.4249
  531MOL0     C71563   8.332  11.207   4.664  0.1267  0.0361 -0.3655
  531MOL0     C71564   8.183  11.221   4.714 -0.1198  0.1303  0.8670
  531MOL0     C71565   8.099  11.268   4.590  0.9393 -0.0801 -0.5371
  531MOL0     C71566   7.949  11.284   4.632 -0.1566 -0.2038  0.2666
  531MOL0     N71567   7.917  11.406   4.710 -0.4125  0.3481  0.2167
  531MOL0     C71568   7.928  11.430   4.839  0.4992  0.3123 -0.6045
  531MOL0     C71569   7.890  11.559   4.860 -1.1104  0.0544 -0.0043
  531MOL0     C71570   7.889  11.631   4.991  0.1495  0.4311  1.0482
  531MOL0     C71571   7.881  11.539   5.110 -0.2129  0.0620  1.0506
  531MOL0     C71572   7.748  11.454   5.109  0.9483  0.0331  0.9765
  531MOL0     C71573   7.628  11.529   5.181 -0.6592 -0.1663  0.1945
  531MOL0     O71574   7.664  11.544   5.320 -0.1574  0.4496  0.1996
  531MOL0     C71575   7.588  11.622   5.406  0.6441 -0.2376  0.1056
  531MOL0     C71576   7.651  11.667   5.520 -0.0484  0.0062  0.2689
  531MOL0     C71577   7.603  11.764   5.604  0.1888  0.4982 -0.8681
  531MOL0     C71578   7.678  11.802   5.726 -0.6872 -0.1365 -0.6417
  531MOL0     C71579   7.472  11.822   5.566 -0.5688 -0.1688 -0.3647
  531MOL0     C71580   7.403  11.923   5.641  0.0019  0.1959 -0.6257
  531MOL0     O71581   7.316  12.005   5.579 -0.0410 -0.3440 -0.0591
  531MOL0     C71582   7.257  12.107   5.654 -0.4136  0.5805  0.0312
  531MOL0     C71583   7.325  12.193   5.735 -0.6809 -0.3583 -1.0561
  531MOL0     C71584   7.258  12.303   5.787  0.5640  0.1668 -0.1801
  531MOL0     C71585   7.122  12.329   5.755 -0.7375  0.8217  0.4932
  531MOL0     O71586   7.054  12.443   5.783 -0.1491 -0.2234 -0.0573
  531MOL0     C71587   7.126  12.555   5.828  0.1446 -0.3501 -0.5192
  531MOL0     C71588   7.026  12.663   5.838  0.3396 -0.6701 -0.2010
  531MOL0     C71589   7.104  12.794   5.852 -0.4820  0.2305  0.0865
  531MOL0     C71590   7.029  12.926   5.811 -0.8479  1.0370  0.6533
  531MOL0     C71591   7.083  13.057   5.870  1.0477  0.5955  0.1152
  531MOL0     C71592   7.157  13.146   5.773 -0.4104  0.2986 -0.0709
  531MOL0     C71593   7.065  13.240   5.698  0.2081 -0.5967 -0.3025
  531MOL0     C71594   7.142  13.339   5.606  0.7535  0.9684 -0.0642
  531MOL0    Cl71595   7.203  13.256   5.464 -0.3804 -0.2204 -0.4459
  531MOL0     C71596   7.052  12.233   5.681 -0.4565 -0.1180  0.1236
  531MOL0     C71597   7.116  12.116   5.639 -0.1503  0.3059 -0.4832
  531MOL0     O71598   7.420  11.919   5.763 -0.1156  0.7210 -0.1682
  531MOL0     C71599   7.408  11.777   5.446  0.0524  0.7652 -0.5386
  531MOL0     C71600   7.455  11.667   5.376  0.5082  1.0041 -0.4845
  531MOL0     N71601   7.849  11.616   4.740 -0.3991  0.1064  0.5604
  531MOL0     N71602   7.873  11.522   4.653 -0.0898  0.3799 -0.2150
  531MOL0     C71603   9.069  11.247   4.605  0.0882 -0.4103 -0.3032
  531MOL0     C71604   9.208  11.238   4.585  0.0478  0.5304  0.1348
  531MOL0     C71605   9.600  11.161   4.345  1.0836  0.4401  0.4394
  531MOL0     C71606   9.669  11.091   4.247 -0.0411  0.1510  0.4238
  531MOL0     C71607   9.806  11.100   4.230 -0.7770  1.4717  0.1559
  531MOL0     C71608   9.888  11.183   4.317  0.3364 -0.3530  1.4377
  531MOL0     O71609  10.021  11.167   4.300  0.5452  0.1122 -0.5430
  531MOL0     C71610  10.107  11.227   4.403  0.7886  0.4055 -0.2522
  531MOL0     C71611  10.253  11.180   4.387 -0.1102 -0.5623  0.3764
  531MOL0     C71612  10.354  11.237   4.495 -0.2284 -0.1419  0.3591
  531MOL0     C71613  10.490  11.185   4.491 -1.1343  0.4288 -0.6624
  531MOL0     C71614  10.548  11.220   4.355 -0.5565  0.3032 -0.1137
  531MOL0     C71615  10.605  11.244   4.244  0.4196  0.3684 -0.7167
  531MOL0     C71616   9.822  11.258   4.419 -0.2606 -0.3029  0.8926
  531MOL0     C71617   9.683  11.250   4.425  0.4197  0.1706 -0.4834
  531MOL0     H71618   9.200  11.221   4.242 -1.6421  0.3863 -0.5346
  531MOL0     H71619   8.953  11.183   4.293 -0.6928 -1.2039  0.7218
  531MOL0     H71620   8.825  11.145   4.715 -0.1430 -0.7968 -1.9977
  531MOL0     H71621   8.804  11.318   4.698  1.1936 -0.6018  2.4506
  531MOL0     H71622   8.590  11.267   4.581 -0.3944 -0.8475 -2.5445
  531MOL0     H71623   8.614  11.089   4.598 -0.8999  0.0979  0.7661
  531MOL0     H71624   8.617  11.126   4.853  2.1829  1.9409  0.6196
  531MOL0     H71625   8.572  11.293   4.809 -0.9288 -0.4082 -0.8688
  531MOL0     H71626   8.433  11.029   4.738 -2.3667 -0.8550  2.3352
  531MOL0     H71627   8.377  11.135   4.869 -2.1265 -2.8128  0.0383
  531MOL0     H71628   8.378  11.302   4.633  2.6881 -1.1723 -0.5034
  531MOL0     H71629   8.328  11.141   4.576  0.0780 -0.1003 -0.2602
  531MOL0     H71630   8.140  11.130   4.758 -1.6354  1.0849  1.4184
  531MOL0     H71631   8.175  11.289   4.799 -0.0113 -1.8977  2.5840
  531MOL0     H71632   8.125  11.363   4.542 -0.1492  0.1958 -0.6210
  531MOL0     H71633   8.112  11.187   4.518  1.1763  0.1754 -0.7835
  531MOL0     H71634   7.925  11.194   4.689  1.2258 -1.1009 -0.5020
  531MOL0     H71635   7.885  11.296   4.544  1.7443 -1.9944 -1.4770
  531MOL0     H71636   7.936  11.354   4.916  0.7387 -0.6951 -1.6060
  531MOL0     H71637   7.974  11.698   5.012  0.3669  1.9148 -3.3548
  531MOL0     H71638   7.803  11.699   4.987  0.0504  0.7688  4.9986
  531MOL0     H71639   7.873  11.607   5.196  0.0720  3.1007 -1.1732
  531MOL0     H71640   7.974  11.483   5.115 -0.0256  0.4712  3.1207
  531MOL0     H71641   7.766  11.357   5.155 -0.3381 -1.0613 -0.7071
  531MOL0     H71642   7.713  11.436   5.007  1.2758 -2.5429  1.2549
  531MOL0     H71643   7.537  11.469   5.174 -3.1126  3.2251  0.8081
  531MOL0     H71644   7.611  11.626   5.133 -2.5840 -0.8931 -0.6916
  531MOL0     H71645   7.744  11.616   5.545 -0.9102 -1.4723  0.6160
  531MOL0     H71646   7.691  11.909   5.744  0.5521 -0.6959  2.2380
  531MOL0     H71647   7.629  11.776   5.820  0.1527 -1.9231 -0.6668
  531MOL0     H71648   7.775  11.752   5.715 -0.0436  1.4846 -3.3642
  531MOL0     H71649   7.431  12.194   5.757 -0.9121 -0.6853  0.1392
  531MOL0     H71650   7.319  12.366   5.852 -0.0228  1.0392 -0.4489
  531MOL0     H71651   7.186  12.533   5.917  2.1800 -3.5431 -2.4795
  531MOL0     H71652   7.204  12.576   5.754  0.8614  0.2924  0.3864
  531MOL0     H71653   6.969  12.673   5.745 -0.8959  0.3023  0.6306
  531MOL0     H71654   6.951  12.648   5.916  1.8546 -2.2064  1.0361
  531MOL0     H71655   7.201  12.795   5.801 -0.7816 -1.6246 -0.6098
  531MOL0     H71656   7.138  12.809   5.954  1.6607  1.4522 -0.7348
  531MOL0     H71657   7.023  12.941   5.703  0.8679 -0.8718  0.2380
  531MOL0     H71658   6.922  12.920   5.835 -0.6020  0.3901  1.6512
  531MOL0     H71659   7.148  13.024   5.952  1.6816  1.3121 -0.0848
  531MOL0     H71660   6.993  13.110   5.901 -0.6943 -0.7415 -2.3543
  531MOL0     H71661   7.235  13.198   5.829 -0.3510  0.0519  0.0780
  531MOL0     H71662   7.220  13.085   5.708 -0.8507 -0.0936 -0.1350
  531MOL0     H71663   7.020  13.309   5.770  1.3868  1.2633 -1.2637
  531MOL0     H71664   6.984  13.186   5.649  0.1912 -1.2548  0.4321
  531MOL0     H71665   7.222  13.385   5.665 -0.0161 -0.1410  1.9372
  531MOL0     H71666   7.073  13.407   5.556  0.1345 -0.6941 -1.5688
  531MOL0     H71667   6.949  12.259   5.656 -0.4830  1.2119  1.4398
  531MOL0     H71668   7.064  12.032   5.595  1.6146 -1.5682  0.7953
  531MOL0     H71669   7.320  11.832   5.413  0.8156  2.1435 -0.3252
  531MOL0     H71670   7.413  11.650   5.277 -2.0062  0.4690  0.5903
  531MOL0     H71671   9.029  11.282   4.700 -1.7096  0.4467 -1.3277
  531MOL0     H71672   9.271  11.245   4.673  1.6017  2.7900 -1.0606
  531MOL0     H71673   9.610  11.023   4.187 -1.4063  0.8273  0.9558
  531MOL0     H71674   9.848  11.041   4.148  0.2187  3.2015 -0.6352
  531MOL0     H71675  10.097  11.336   4.403  0.1517  0.3949 -2.3650
  531MOL0     H71676  10.072  11.183   4.497 -2.3616 -0.3938 -1.6675
  531MOL0     H71677  10.288  11.205   4.287 -0.1080 -1.9511 -0.0012
  531MOL0     H71678  10.253  11.070   4.383  3.5198 -0.9402  3.9340
  531MOL0     H71679  10.318  11.210   4.595 -0.0929 -3.5332 -0.3892
  531MOL0     H71680  10.364  11.345   4.481  1.6660 -0.3745 -0.3615
  531MOL0     H71681  10.499  11.076   4.494 -0.4908  0.4594 -1.3025
  531MOL0     H71682  10.548  11.229   4.572 -1.3286 -2.1039  0.9398
  531MOL0     H71683  10.664  11.283   4.164  2.4622 -1.5175 -0.2418
  531MOL0     H71684   9.877  11.319   4.490 -1.4135  2.8170 -0.6956
  531MOL0     H71685   9.631  11.309   4.499 -0.1204  0.6241 -1.2085
  532MOL0     O71686   0.953   0.175   4.054  0.8324 -0.2231 -0.5291
  532MOL0     C71687   0.980   0.256   3.965  0.1440 -0.4975 -0.0218
  532MOL0     O71688   0.894   0.293   3.867 -0.1726  0.0256 -0.4802
  532MOL0     C71689   0.760   0.259   3.872 -0.0875 -0.2144  1.0798
  532MOL0     C71690   0.700   0.193   3.762  0.6827 -0.1376  0.2088
  532MOL0     C71691   0.565   0.156   3.765  0.2820  0.7040  0.4947
  532MOL0     C71692   0.491   0.188   3.880  0.1682  0.6178 -0.1784
  532MOL0     O71693   0.361   0.156   3.910  0.0362 -0.9192  0.3786
  532MOL0     C71694   0.306   0.041   3.834 -0.6138 -0.0276 -0.0027
  532MOL0     C71695   0.172  -0.001   3.898  0.0793  0.6471 -0.4855
  532MOL0     C71696   0.188  -0.031   4.050  0.6793 -0.5408  0.4668
  532MOL0     C71697   0.066  -0.104   4.109  0.3883 -0.6625 -0.7351
  532MOL0     C71698   0.069  -0.111   4.262  0.6626  0.0998  0.3409
  532MOL0     C71699   0.143  -0.238   4.292 -0.7002 -0.4951 -0.2271
  532MOL0     C71700   0.164  -0.252   4.450 -0.4105 -1.0929  0.6785
  532MOL0     C71701   0.249  -0.371   4.483 -0.5675 -0.4759 -0.2310
  532MOL0     N71702   0.185  -0.496   4.466  0.5042  0.4683  0.0449
  532MOL0     C71703   0.072  -0.524   4.536 -0.1237  0.8033 -0.2826
  532MOL0     C71704   0.049  -0.656   4.506  0.3531 -0.0922  0.5445
  532MOL0     C71705  -0.065  -0.733   4.564  0.8213  0.1926 -0.6910
  532MOL0     C71706  -0.196  -0.769   4.483  0.1344 -0.2853  0.4799
  532MOL0     C71707  -0.269  -0.649   4.422 -0.0000 -0.6616 -0.1616
  532MOL0     C71708  -0.390  -0.689   4.352 -0.3172  0.2990 -0.7805
  532MOL0     O71709  -0.452  -0.567   4.309 -0.5161  0.3426  0.6752
  532MOL0     C71710  -0.588  -0.569   4.262 -0.1996 -0.5982  0.6502
  532MOL0     C71711  -0.640  -0.485   4.165  0.1256  1.0767 -0.1230
  532MOL0     C71712  -0.779  -0.484   4.133  0.3781  0.2203  0.1257
  532MOL0     C71713  -0.817  -0.409   4.013 -0.6605  0.5495 -0.1086
  532MOL0     C71714  -0.873  -0.563   4.202  0.5340  0.6184 -0.3666
  532MOL0     C71715  -1.020  -0.563   4.169  0.1928 -0.6576  0.6807
  532MOL0     O71716  -1.088  -0.635   4.260  0.1814  0.2581  0.5155
  532MOL0     C71717  -1.218  -0.672   4.261  1.0854  0.2110  0.1497
  532MOL0     C71718  -1.249  -0.793   4.339 -0.8669  0.2644  0.5853
  532MOL0     C71719  -1.376  -0.842   4.363  0.2238  0.8081  0.0931
  532MOL0     C71720  -1.476  -0.779   4.299 -0.0274 -0.3079  0.3930
  532MOL0     O71721  -1.606  -0.821   4.307  0.3368 -0.1077  0.5216
  532MOL0     C71722  -1.626  -0.960   4.324  0.3753 -0.4213  0.7676
  532MOL0     C71723  -1.769  -1.014   4.325  0.4041 -0.0867  0.8695
  532MOL0     C71724  -1.851  -0.970   4.450 -0.4052  0.3628  1.0520
  532MOL0     C71725  -1.998  -1.006   4.440 -0.3205 -0.2978  0.3635
  532MOL0     C71726  -2.091  -0.928   4.537  0.1264 -1.1074 -0.2547
  532MOL0     C71727  -2.239  -0.969   4.527  0.5534  0.2777  0.2924
  532MOL0     C71728  -2.264  -1.110   4.572  0.3067  0.5951 -0.0053
  532MOL0     C71729  -2.394  -1.138   4.647 -0.5607 -0.4864 -0.6820
  532MOL0    Cl71730  -2.388  -1.036   4.791 -0.5659  0.5456 -0.0667
  532MOL0     C71731  -1.463  -0.660   4.224  0.3320  0.3180 -0.5361
  532MOL0     C71732  -1.322  -0.609   4.201 -0.0905  0.0923  0.6546
  532MOL0     O71733  -1.065  -0.523   4.057  1.1392  0.5638 -0.0125
  532MOL0     C71734  -0.823  -0.635   4.311  0.1916  0.0074  0.1657
  532MOL0     C71735  -0.686  -0.639   4.336 -0.1857  0.6036  0.9202
  532MOL0     N71736   0.139  -0.703   4.419  0.0505  0.1172 -0.4295
  532MOL0     N71737   0.220  -0.608   4.393 -0.3130 -0.6413  0.0013
  532MOL0     C71738   0.549   0.253   3.987 -0.9605  0.2012 -0.3711
  532MOL0     C71739   0.691   0.286   3.986 -0.4352  0.1035 -0.0840
  532MOL0     C71740   1.127   0.288   3.949 -0.4471 -0.2541  0.6422
  532MOL0     C71741   1.165   0.365   3.832  0.1194 -0.5414  0.3498
  532MOL0     C71742   1.302   0.386   3.807 -0.1724  0.0637 -0.2945
  532MOL0     C71743   1.403   0.336   3.893  0.8220 -1.3886  0.6221
  532MOL0     O71744   1.526   0.379   3.876 -0.4180  0.2373 -1.0002
  532MOL0     C71745   1.623   0.354   3.974 -0.4866  0.1680 -0.4152
  532MOL0     C71746   1.755   0.427   3.939  0.1474  0.1610  0.1881
  532MOL0     C71747   1.754   0.571   3.975 -0.1541 -0.0782  0.0854
  532MOL0     C71748   1.638   0.648   3.912  0.1538  0.7406 -0.6902
  532MOL0     C71749   1.662   0.790   3.923 -0.2570  0.1048 -0.4149
  532MOL0     C71750   1.684   0.908   3.938 -0.0183  0.2298  0.2709
  532MOL0     C71751   1.359   0.265   4.007 -0.4893 -0.1087 -0.0366
  532MOL0     C71752   1.229   0.237   4.036  0.3420 -0.9609 -0.4340
  532MOL0     H71753   0.757   0.169   3.673 -2.4711 -1.2708 -1.6673
  532MOL0     H71754   0.526   0.104   3.678  0.2392  1.7826 -0.1463
  532MOL0     H71755   0.303   0.053   3.726 -0.4260 -0.0421 -0.0110
  532MOL0     H71756   0.369  -0.045   3.859  1.5829  1.3734 -0.4269
  532MOL0     H71757   0.101   0.081   3.882 -1.9595 -1.0429 -0.6026
  532MOL0     H71758   0.141  -0.093   3.847  0.5941  0.8086 -1.1025
  532MOL0     H71759   0.282  -0.087   4.063 -1.0506 -3.1787  2.7313
  532MOL0     H71760   0.195   0.064   4.103 -0.2020 -0.7087  0.8877
  532MOL0     H71761  -0.016  -0.055   4.056 -0.3132 -1.6206 -0.5570
  532MOL0     H71762   0.074  -0.206   4.069  1.4494 -0.3839 -1.2731
  532MOL0     H71763   0.108  -0.023   4.314 -2.4153  2.0632 -0.4291
  532MOL0     H71764  -0.035  -0.115   4.296  0.4972  0.9387 -0.0360
  532MOL0     H71765   0.089  -0.330   4.268  1.0089 -1.8944  0.9817
  532MOL0     H71766   0.236  -0.239   4.236 -0.3993  1.2904  0.1786
  532MOL0     H71767   0.193  -0.162   4.505  0.8693 -0.1163 -1.5005
  532MOL0     H71768   0.065  -0.270   4.494  0.3011 -1.5969  2.1373
  532MOL0     H71769   0.300  -0.359   4.580 -0.8447  1.9742 -0.3343
  532MOL0     H71770   0.333  -0.382   4.414  0.1403  0.4368  0.4500
  532MOL0     H71771   0.012  -0.459   4.598  0.0256  0.0611  0.6602
  532MOL0     H71772  -0.030  -0.821   4.618 -0.9371 -0.0667  0.0854
  532MOL0     H71773  -0.111  -0.674   4.644  0.5921 -1.1798  0.2185
  532MOL0     H71774  -0.264  -0.828   4.545  3.1433 -1.9862  2.3428
  532MOL0     H71775  -0.165  -0.833   4.400 -0.5517  0.2806 -0.2383
  532MOL0     H71776  -0.210  -0.580   4.360  0.4451  1.2176  2.1789
  532MOL0     H71777  -0.292  -0.585   4.508  2.1248  0.8936 -0.6557
  532MOL0     H71778  -0.451  -0.742   4.425  0.6256 -0.1620 -0.3203
  532MOL0     H71779  -0.365  -0.753   4.266 -1.5251 -1.3681  0.0616
  532MOL0     H71780  -0.572  -0.421   4.110 -0.5281 -0.3764 -2.7830
  532MOL0     H71781  -0.850  -0.475   3.932  1.7191  0.2059 -0.9014
  532MOL0     H71782  -0.902  -0.346   4.039 -2.8949 -2.3673  0.1972
  532MOL0     H71783  -0.728  -0.349   3.989  1.0710 -1.8840 -0.1686
  532MOL0     H71784  -1.156  -0.835   4.375  0.9824  1.6985 -2.1311
  532MOL0     H71785  -1.385  -0.926   4.432  0.3930 -1.0565 -2.0434
  532MOL0     H71786  -1.577  -1.014   4.242  2.1408  0.3559  1.2635
  532MOL0     H71787  -1.582  -0.999   4.416 -0.6346 -1.3195  0.8908
  532MOL0     H71788  -1.820  -0.983   4.233 -1.0189 -2.2407  0.8546
  532MOL0     H71789  -1.756  -1.122   4.334  1.2054  0.0121  0.9736
  532MOL0     H71790  -1.848  -0.861   4.440  1.3924  0.1586 -2.3313
  532MOL0     H71791  -1.801  -0.999   4.543 -0.8447  1.2951  1.5866
  532MOL0     H71792  -2.031  -0.984   4.338  0.8798  0.1745  0.0569
  532MOL0     H71793  -2.029  -1.106   4.471 -1.0156 -0.3835 -0.5725
  532MOL0     H71794  -2.087  -0.824   4.504  2.9715 -1.7616 -2.3466
  532MOL0     H71795  -2.062  -0.931   4.643 -1.0824  2.6329  0.3239
  532MOL0     H71796  -2.310  -0.894   4.565  0.0325 -0.1534  0.1830
  532MOL0     H71797  -2.260  -0.970   4.419 -1.7782  1.6349  0.6542
  532MOL0     H71798  -2.178  -1.152   4.625  0.1600  2.2143  1.6234
  532MOL0     H71799  -2.272  -1.167   4.479 -5.2691 -0.6188  0.9043
  532MOL0     H71800  -2.403  -1.247   4.657 -0.0844 -0.3882  1.1416
  532MOL0     H71801  -2.477  -1.107   4.583 -1.0774  0.4482  0.4067
  532MOL0     H71802  -1.554  -0.615   4.184 -0.6870 -1.3911 -0.2191
  532MOL0     H71803  -1.315  -0.516   4.145 -2.2802 -0.1778 -0.1467
  532MOL0     H71804  -0.895  -0.692   4.368 -0.5246 -0.0390 -0.7612
  532MOL0     H71805  -0.655  -0.690   4.427 -0.1530  0.7881  1.0146
  532MOL0     H71806   0.486   0.270   4.073  1.6287  2.3533  1.2589
  532MOL0     H71807   0.738   0.338   4.069  3.1971  1.2423 -2.6269
  532MOL0     H71808   1.093   0.416   3.769  0.7937  2.5587  1.8671
  532MOL0     H71809   1.321   0.452   3.723  0.7175 -0.0982 -0.2288
  532MOL0     H71810   1.594   0.387   4.075  3.1604 -2.2899  1.6365
  532MOL0     H71811   1.635   0.246   3.980 -1.8387  0.0609  1.3993
  532MOL0     H71812   1.777   0.422   3.832 -1.0698 -0.7996 -0.0406
  532MOL0     H71813   1.833   0.373   3.994 -0.3649 -4.6962 -3.2818
  532MOL0     H71814   1.851   0.614   3.949 -1.4006  2.7122 -0.4041
  532MOL0     H71815   1.738   0.591   4.081 -1.2255 -0.9851  0.1177
  532MOL0     H71816   1.540   0.627   3.955  0.6249  2.5707  1.4877
  532MOL0     H71817   1.635   0.618   3.807  1.4511 -3.4226  0.2768
  532MOL0     H71818   1.691   1.015   3.943  0.2415  0.2422 -0.2394
  532MOL0     H71819   1.431   0.239   4.084 -1.7464  0.2926  1.3251
  532MOL0     H71820   1.208   0.167   4.115 -0.6603 -1.2330 -0.9270
  533MOL0     O71821   9.847  10.707   3.292 -0.1250  0.6500  0.3752
  533MOL0     C71822   9.832  10.808   3.225  0.4974  0.3545 -0.0960
  533MOL0     O71823   9.716  10.860   3.208  0.5959 -0.4934 -0.2060
  533MOL0     C71824   9.606  10.829   3.287 -0.5025  0.1168  0.1527
  533MOL0     C71825   9.591  10.875   3.421  0.3034 -0.6088  0.4352
  533MOL0     C71826   9.488  10.824   3.504 -0.9147  0.0567 -0.2868
  533MOL0     C71827   9.399  10.734   3.446  0.5243  0.5771  0.1339
  533MOL0     O71828   9.314  10.667   3.535 -1.1621  0.3252 -0.0248
  533MOL0     C71829   9.256  10.735   3.645  1.4804  0.0416  0.6528
  533MOL0     C71830   9.113  10.677   3.664  0.5156 -0.1501 -0.0749
  533MOL0     C71831   9.008  10.779   3.728 -1.3871 -0.4434  0.6941
  533MOL0     C71832   8.867  10.714   3.732  0.9520 -0.2031  0.1811
  533MOL0     C71833   8.762  10.786   3.815 -0.1064  0.3678  0.4359
  533MOL0     C71834   8.622  10.718   3.792 -0.4772 -0.2698  0.0141
  533MOL0     C71835   8.522  10.778   3.891 -0.5538 -0.1212 -0.3110
  533MOL0     C71836   8.381  10.722   3.870  0.3926  0.6976 -0.1636
  533MOL0     N71837   8.292  10.798   3.959 -0.6588  0.0049 -0.2689
  533MOL0     C71838   8.155  10.811   3.938  0.0911  0.0106  0.4579
  533MOL0     C71839   8.109  10.894   4.043  1.2114 -0.5508  1.3025
  533MOL0     C71840   7.968  10.945   4.046  0.2358 -0.0493  0.3441
  533MOL0     C71841   7.920  10.984   4.186 -0.3538  0.5578  0.0573
  533MOL0     C71842   7.804  11.069   4.180  1.3584 -1.1425  0.1859
  533MOL0     C71843   7.756  11.095   4.328  0.6407  0.8753  0.2709
  533MOL0     O71844   7.668  11.213   4.339 -0.2152  0.6419  0.0114
  533MOL0     C71845   7.619  11.251   4.464  0.0084 -0.5886 -0.2216
  533MOL0     C71846   7.649  11.181   4.588 -0.0997  0.5995 -0.6571
  533MOL0     C71847   7.607  11.223   4.710  0.0726  0.9682  0.3059
  533MOL0     C71848   7.660  11.139   4.824 -0.2483 -0.4554  0.7644
  533MOL0     C71849   7.528  11.334   4.720 -0.0216 -0.5489 -0.3558
  533MOL0     C71850   7.465  11.379   4.852  0.3058  0.0430  0.0525
  533MOL0     O71851   7.388  11.493   4.846 -0.0441 -0.4485 -0.0647
  533MOL0     C71852   7.303  11.525   4.942  0.1074  1.5689 -0.6861
  533MOL0     C71853   7.273  11.655   4.955 -0.2401 -0.7687 -0.5417
  533MOL0     C71854   7.185  11.708   5.049  0.3639 -0.6700  0.7741
  533MOL0     C71855   7.092  11.630   5.111 -0.7449 -0.4743 -0.1668
  533MOL0     O71856   7.019  11.672   5.220  0.3750  0.3493 -0.7552
  533MOL0     C71857   6.971  11.808   5.203  0.1064 -0.3929 -0.3965
  533MOL0     C71858   6.858  11.819   5.313  1.1417  0.1122  0.0821
  533MOL0     C71859   6.731  11.732   5.284  0.6807  0.4955  0.4003
  533MOL0     C71860   6.630  11.738   5.392 -0.1057 -0.4113 -0.3928
  533MOL0     C71861   6.490  11.683   5.364 -0.4059  0.3173 -0.4787
  533MOL0     C71862   6.379  11.750   5.450  0.0405  0.2515  0.2203
  533MOL0     C71863   6.398  11.735   5.600  0.0417 -0.3021 -0.1874
  533MOL0     C71864   6.337  11.864   5.682 -1.2498  0.5040  0.9208
  533MOL0    Cl71865   6.423  11.894   5.831 -0.1668  0.2412 -0.0838
  533MOL0     C71866   7.112  11.495   5.084  0.3609 -0.4746  0.0226
  533MOL0     C71867   7.209  11.435   5.007  0.6918  0.1942  0.4429
  533MOL0     O71868   7.473  11.303   4.947 -0.0860 -1.0678 -0.3239
  533MOL0     C71869   7.489  11.404   4.606 -0.7097  1.0729  0.3263
  533MOL0     C71870   7.533  11.360   4.482  0.4944  1.3598  0.0649
  533MOL0     N71871   8.210  10.912   4.119  0.4540 -1.4033 -0.1903
  533MOL0     N71872   8.320  10.859   4.077 -0.0585 -0.4812  0.4386
  533MOL0     C71873   9.397  10.702   3.312 -0.1534  0.2019 -0.3201
  533MOL0     C71874   9.506  10.747   3.234 -0.3204 -0.0182  0.2628
  533MOL0     C71875   9.959  10.871   3.161 -0.3539 -0.6132 -0.3734
  533MOL0     C71876  10.088  10.817   3.191 -0.5310 -0.1515  0.0606
  533MOL0     C71877  10.210  10.872   3.131  0.6430  0.6470  0.1373
  533MOL0     C71878  10.193  10.970   3.038 -0.4642  0.0616  0.4580
  533MOL0     O71879  10.311  11.007   2.975  0.9265  0.6298 -0.0121
  533MOL0     C71880  10.306  11.100   2.867  0.2862 -0.4027 -0.4517
  533MOL0     C71881  10.442  11.152   2.820  0.1283  0.0888 -0.1083
  533MOL0     C71882  10.541  11.037   2.787 -0.4993  0.7841  0.6183
  533MOL0     C71883  10.628  11.056   2.668 -0.1035  0.0867  0.3766
  533MOL0     C71884  10.759  11.128   2.692 -0.0634  0.4865  0.2229
  533MOL0     C71885  10.858  11.190   2.724 -0.1216  0.8631  0.3116
  533MOL0     C71886  10.072  11.027   3.011  0.5882  0.5195  0.4799
  533MOL0     C71887   9.957  10.970   3.065 -0.6490  0.8480 -0.1198
  533MOL0     H71888   9.666  10.939   3.465  0.1056 -1.0343  1.4300
  533MOL0     H71889   9.471  10.856   3.606  1.0094  1.6962 -0.4005
  533MOL0     H71890   9.314  10.711   3.735  3.1728 -0.4413 -0.5099
  533MOL0     H71891   9.248  10.844   3.642 -0.0378 -0.0017 -3.4187
  533MOL0     H71892   9.072  10.647   3.567  2.6284  1.1168 -1.4404
  533MOL0     H71893   9.129  10.587   3.724  2.2186 -0.6026 -1.1359
  533MOL0     H71894   9.038  10.803   3.830 -1.5890  1.2721  0.3737
  533MOL0     H71895   9.008  10.869   3.666  3.4244 -0.1196  0.8038
  533MOL0     H71896   8.828  10.714   3.630 -0.4752  1.0524  0.6979
  533MOL0     H71897   8.880  10.609   3.760  1.0178  0.1093  1.3542
  533MOL0     H71898   8.790  10.792   3.920  0.8372  1.1246  0.1565
  533MOL0     H71899   8.770  10.889   3.779 -4.1715 -0.3339 -3.4050
  533MOL0     H71900   8.590  10.751   3.693  0.4235 -0.1668 -0.2521
  533MOL0     H71901   8.631  10.611   3.810 -0.7713  0.0817  2.7014
  533MOL0     H71902   8.557  10.759   3.993 -3.2606  2.4809  1.2566
  533MOL0     H71903   8.511  10.886   3.878 -0.6841  0.1280  1.5918
  533MOL0     H71904   8.388  10.613   3.882 -2.2578  0.3393 -1.1469
  533MOL0     H71905   8.335  10.731   3.771  0.1275 -1.3263 -0.2745
  533MOL0     H71906   8.115  10.776   3.844 -3.6528 -0.3213  2.0258
  533MOL0     H71907   7.956  11.030   3.978 -1.0557 -1.2372 -0.9593
  533MOL0     H71908   7.903  10.874   3.995  1.3527  1.5430 -3.6676
  533MOL0     H71909   7.996  11.025   4.254 -0.8942  0.6386  0.6192
  533MOL0     H71910   7.884  10.887   4.222 -0.5168  0.0551 -1.3899
  533MOL0     H71911   7.721  11.032   4.119  1.4197 -2.2911  0.7731
  533MOL0     H71912   7.840  11.162   4.135  1.9700 -1.5429 -0.1788
  533MOL0     H71913   7.845  11.123   4.386  1.4299 -0.7398 -0.1125
  533MOL0     H71914   7.714  11.005   4.373  1.1525 -0.2405 -1.3893
  533MOL0     H71915   7.725  11.104   4.592 -0.9613 -0.2415  0.0361
  533MOL0     H71916   7.719  11.201   4.891  2.2326 -2.6212  0.7619
  533MOL0     H71917   7.575  11.094   4.877  0.1446  0.1074  1.9107
  533MOL0     H71918   7.726  11.055   4.800 -1.9901 -2.5123  2.6280
  533MOL0     H71919   7.345  11.724   4.914  0.4963 -2.2119 -1.7569
  533MOL0     H71920   7.207  11.810   5.079  0.8839  0.0465 -1.8187
  533MOL0     H71921   7.048  11.879   5.232 -0.2301  0.1237 -0.7409
  533MOL0     H71922   6.928  11.840   5.107 -0.0183  0.6150 -0.0125
  533MOL0     H71923   6.895  11.791   5.412  0.2495  3.0520  1.3341
  533MOL0     H71924   6.814  11.918   5.319  0.4707  0.1879 -3.7076
  533MOL0     H71925   6.771  11.634   5.255 -0.0133  1.1239 -3.0324
  533MOL0     H71926   6.676  11.760   5.194  1.1077 -1.0261 -0.3678
  533MOL0     H71927   6.672  11.697   5.484  0.5811  1.4575  0.1879
  533MOL0     H71928   6.622  11.844   5.421  2.3318 -0.4360  0.6334
  533MOL0     H71929   6.485  11.578   5.395  0.4212  1.0938  2.6121
  533MOL0     H71930   6.473  11.698   5.257 -0.3120  0.6346 -0.4492
  533MOL0     H71931   6.370  11.854   5.416 -1.4395 -0.8052 -3.1234
  533MOL0     H71932   6.285  11.706   5.417  0.5518  0.6165 -1.8780
  533MOL0     H71933   6.500  11.722   5.637  1.0201  2.0988 -1.8039
  533MOL0     H71934   6.347  11.647   5.640  1.4464 -0.5897  1.0409
  533MOL0     H71935   6.231  11.839   5.696 -1.5544  1.3413  0.1878
  533MOL0     H71936   6.346  11.948   5.613  2.5388 -2.0808 -2.1240
  533MOL0     H71937   7.027  11.438   5.120  0.4465 -0.4943  0.1911
  533MOL0     H71938   7.217  11.328   4.986  0.3702  0.3125 -0.2943
  533MOL0     H71939   7.437  11.499   4.611  0.1867  1.6976 -1.2419
  533MOL0     H71940   7.492  11.423   4.403 -1.1565  1.0812  0.6633
  533MOL0     H71941   9.311  10.644   3.282 -0.9232  0.9544  0.3964
  533MOL0     H71942   9.523  10.721   3.130  0.9114  0.8049  0.2330
  533MOL0     H71943  10.099  10.736   3.262  2.9307  0.8981  0.9133
  533MOL0     H71944  10.301  10.827   3.170 -1.0309  0.6156  4.5210
  533MOL0     H71945  10.254  11.043   2.789  0.6683 -2.7440  0.8973
  533MOL0     H71946  10.248  11.188   2.896  0.8151 -0.8528  2.2449
  533MOL0     H71947  10.491  11.217   2.893  0.4158 -0.3986  0.1413
  533MOL0     H71948  10.439  11.216   2.731  2.6518 -0.2792 -0.5363
  533MOL0     H71949  10.483  10.946   2.768  1.4122 -0.2424 -0.6017
  533MOL0     H71950  10.603  11.013   2.874 -0.9467 -0.4803  0.6030
  533MOL0     H71951  10.588  11.115   2.586 -1.8741 -1.2915  0.1706
  533MOL0     H71952  10.657  10.961   2.622  1.3208  0.9381 -0.5309
  533MOL0     H71953  10.942  11.251   2.752  0.6518  0.1587 -0.4163
  533MOL0     H71954  10.065  11.104   2.935 -1.1818  1.4858  1.5381
  533MOL0     H71955   9.857  10.989   3.027 -0.8311 -2.1534 -1.4407
  534MOL0     O71956   6.985   5.656   3.844  0.1006 -0.5839 -0.3775
  534MOL0     C71957   6.877   5.624   3.893  0.2266  0.0383  0.3477
  534MOL0     O71958   6.851   5.529   3.977 -0.1290 -0.3179 -0.1256
  534MOL0     C71959   6.953   5.443   4.013 -0.2999 -1.1268  0.4728
  534MOL0     C71960   6.993   5.339   3.935 -0.6239 -0.1039  0.1690
  534MOL0     C71961   7.092   5.251   3.975  0.0006 -0.6742  0.2858
  534MOL0     C71962   7.168   5.274   4.096  0.7502 -0.0399  0.1231
  534MOL0     O71963   7.272   5.189   4.119 -0.1591 -0.1335  0.0360
  534MOL0     C71964   7.397   5.256   4.114  0.4399  0.2579  0.5268
  534MOL0     C71965   7.497   5.188   4.203 -0.6938 -0.0030 -0.7505
  534MOL0     C71966   7.555   5.057   4.151 -0.5151  0.1350  0.6850
  534MOL0     C71967   7.623   4.970   4.265  0.4982 -0.0147 -0.3797
  534MOL0     C71968   7.756   5.043   4.311  0.2192 -0.5875 -0.2179
  534MOL0     C71969   7.862   5.084   4.209  0.0666  0.4389 -0.5837
  534MOL0     C71970   7.979   5.145   4.283  0.1345 -0.0536 -0.1248
  534MOL0     C71971   8.081   5.199   4.191 -0.8905  0.0120  0.2505
  534MOL0     N71972   8.185   5.111   4.133 -0.3099  0.7940  0.0906
  534MOL0     C71973   8.305   5.078   4.193 -0.5252 -0.0250 -0.6517
  534MOL0     C71974   8.379   5.022   4.098 -0.3738 -0.4238 -0.1158
  534MOL0     C71975   8.522   4.980   4.097 -0.4136  0.7127  0.2185
  534MOL0     C71976   8.564   4.944   3.955 -0.4210 -0.3570  0.6727
  534MOL0     C71977   8.693   4.873   3.951  0.2714 -0.0727 -0.0517
  534MOL0     C71978   8.690   4.729   4.000 -0.0072 -0.1637 -0.1853
  534MOL0     O71979   8.825   4.669   3.985 -0.4989 -0.5335 -0.3156
  534MOL0     C71980   8.929   4.711   4.062 -0.4390 -0.0958 -1.0247
  534MOL0     C71981   9.049   4.650   4.037 -0.2271 -0.2998 -0.8149
  534MOL0     C71982   9.167   4.670   4.116  0.2005 -0.6352 -0.2181
  534MOL0     C71983   9.289   4.584   4.092 -0.8008  0.8757  0.4493
  534MOL0     C71984   9.162   4.759   4.226  0.1287 -1.0601  0.5407
  534MOL0     C71985   9.264   4.779   4.326 -1.1965 -0.4987 -0.1108
  534MOL0     O71986   9.391   4.792   4.286  0.0047 -0.4169 -0.0518
  534MOL0     C71987   9.497   4.781   4.364 -0.1377 -0.2513 -0.1397
  534MOL0     C71988   9.521   4.692   4.470  0.5574 -0.8857  0.3999
  534MOL0     C71989   9.648   4.681   4.533 -0.4323  0.4167 -0.6243
  534MOL0     C71990   9.746   4.776   4.494 -0.2535  0.9068  0.5343
  534MOL0     O71991   9.857   4.762   4.569 -0.1755 -0.7178 -0.0595
  534MOL0     C71992   9.955   4.871   4.570  0.1208  0.1013  0.1470
  534MOL0     C71993  10.064   4.837   4.664  0.3454  0.0774  0.2196
  534MOL0     C71994  10.197   4.907   4.624 -0.3027  0.1840 -1.0296
  534MOL0     C71995  10.224   5.044   4.680  0.1757  0.1997  0.2283
  534MOL0     C71996  10.364   5.088   4.618 -1.0409  0.3077  0.0547
  534MOL0     C71997  10.343   5.205   4.521 -0.2755 -1.1884  0.2174
  534MOL0     C71998  10.477   5.241   4.467  0.5129 -0.0662  0.5412
  534MOL0     C71999  10.469   5.362   4.370  0.7760 -0.4909  0.2891
  534MOL0    Cl72000  10.427   5.503   4.473  0.3522  0.1611 -0.3695
  534MOL0     C72001   9.730   4.854   4.381  0.3084  0.5469 -0.0691
  534MOL0     C72002   9.605   4.857   4.321  1.4235 -0.7695 -0.3815
  534MOL0     O72003   9.231   4.777   4.444 -0.2443 -0.1675  0.0384
  534MOL0     C72004   9.036   4.826   4.247 -0.7171 -1.1483  0.0135
  534MOL0     C72005   8.924   4.804   4.169 -0.6095  0.3139 -0.0138
  534MOL0     N72006   8.292   5.007   3.989  0.3792 -0.4522  0.4018
  534MOL0     N72007   8.176   5.067   4.013 -0.1813  0.5012 -0.2893
  534MOL0     C72008   7.132   5.388   4.169 -0.0691 -0.1093  0.5440
  534MOL0     C72009   7.023   5.469   4.133 -0.2188 -0.6020  0.7628
  534MOL0     C72010   6.752   5.692   3.856  0.1113  0.9510  0.7950
  534MOL0     C72011   6.757   5.794   3.758  0.3195 -0.3210 -0.6183
  534MOL0     C72012   6.643   5.863   3.716 -0.4610  0.0597  1.1538
  534MOL0     C72013   6.524   5.848   3.781  0.5871  0.2825  0.4205
  534MOL0     O72014   6.409   5.918   3.750  0.0653  0.6914  0.5309
  534MOL0     C72015   6.394   5.992   3.626  0.5846 -0.0539  0.8511
  534MOL0     C72016   6.247   5.966   3.571 -0.0298 -0.5513 -0.0594
  534MOL0     C72017   6.125   6.005   3.659  0.2891 -0.5981  0.0283
  534MOL0     C72018   6.111   6.159   3.702  0.2684 -0.3087 -0.9454
  534MOL0     C72019   6.069   6.247   3.588  0.6613  0.2392 -0.4472
  534MOL0     C72020   6.048   6.327   3.498  0.2121 -0.4645 -0.1463
  534MOL0     C72021   6.514   5.750   3.876 -0.3587  0.0076 -0.0357
  534MOL0     C72022   6.626   5.669   3.914  0.8275 -0.0532 -0.2292
  534MOL0     H72023   6.954   5.327   3.834  4.1712  1.0627 -2.1198
  534MOL0     H72024   7.104   5.172   3.901  0.0501  0.5287 -1.0299
  534MOL0     H72025   7.430   5.240   4.011 -3.0489 -2.8281 -0.3080
  534MOL0     H72026   7.393   5.365   4.130  1.5505  0.7311 -1.9582
  534MOL0     H72027   7.586   5.251   4.216  3.0696 -4.6010 -1.4105
  534MOL0     H72028   7.456   5.163   4.301  1.6485 -0.7889  0.1080
  534MOL0     H72029   7.466   5.010   4.108  0.6499 -0.2298 -1.4282
  534MOL0     H72030   7.623   5.076   4.068 -2.2141  1.4797 -0.4750
  534MOL0     H72031   7.559   4.958   4.353  1.5886  2.4979  0.8671
  534MOL0     H72032   7.649   4.876   4.217  0.4513 -0.4983  0.5260
  534MOL0     H72033   7.721   5.135   4.359 -1.2986 -1.1469 -0.2192
  534MOL0     H72034   7.808   4.974   4.378 -0.3154 -0.6668  0.1187
  534MOL0     H72035   7.881   4.990   4.156 -3.0437 -1.7534  1.8716
  534MOL0     H72036   7.817   5.150   4.134 -0.0075  1.6457  0.4799
  534MOL0     H72037   7.933   5.208   4.359 -1.1074  0.9321 -1.6342
  534MOL0     H72038   8.031   5.069   4.343  3.1249  0.0531 -2.3440
  534MOL0     H72039   8.141   5.283   4.229 -1.0639  0.9212 -1.3995
  534MOL0     H72040   8.024   5.245   4.110 -0.2054  0.6710  0.1269
  534MOL0     H72041   8.338   5.109   4.292 -0.1911 -0.9026 -0.4828
  534MOL0     H72042   8.591   5.049   4.146 -0.1779  0.2204  0.5939
  534MOL0     H72043   8.520   4.882   4.146  0.2054  0.9740  0.7897
  534MOL0     H72044   8.591   5.037   3.903 -0.1309  0.4411  2.1900
  534MOL0     H72045   8.492   4.882   3.901 -1.3794 -0.3789  1.9421
  534MOL0     H72046   8.770   4.925   4.008  1.0993 -2.8470  1.5290
  534MOL0     H72047   8.728   4.864   3.847 -1.0268  0.1764 -0.5220
  534MOL0     H72048   8.607   4.681   3.945 -1.3424  1.0406  0.7028
  534MOL0     H72049   8.667   4.719   4.106 -0.2959  2.6375  0.0759
  534MOL0     H72050   9.054   4.591   3.946  1.8352  0.7214 -1.4260
  534MOL0     H72051   9.331   4.534   4.180  0.3641  3.4739  1.4886
  534MOL0     H72052   9.266   4.502   4.023 -0.8598  1.0106  0.3074
  534MOL0     H72053   9.372   4.642   4.051  0.1365 -2.5119 -2.9904
  534MOL0     H72054   9.451   4.619   4.508  1.9807 -2.2806  0.4733
  534MOL0     H72055   9.657   4.615   4.618  1.7569  0.9524 -0.3609
  534MOL0     H72056   9.990   4.889   4.468 -2.3168 -2.2353 -1.2190
  534MOL0     H72057   9.907   4.965   4.602  0.9143  0.6702 -0.2997
  534MOL0     H72058  10.050   4.854   4.771 -1.0632 -0.6545  0.1773
  534MOL0     H72059  10.075   4.728   4.655 -0.5535  0.0178 -0.2773
  534MOL0     H72060  10.209   4.919   4.516 -0.3485 -2.0842 -1.3405
  534MOL0     H72061  10.284   4.846   4.652 -0.3900  0.3493 -0.3853
  534MOL0     H72062  10.143   5.111   4.650  0.1747 -0.2688 -0.8492
  534MOL0     H72063  10.226   5.044   4.789  0.9362  0.6319  0.2211
  534MOL0     H72064  10.411   5.008   4.560 -2.3551 -0.0209 -0.6043
  534MOL0     H72065  10.432   5.119   4.697 -0.5010  0.0287 -0.2900
  534MOL0     H72066  10.287   5.173   4.432 -1.9620 -1.0153  1.1810
  534MOL0     H72067  10.287   5.288   4.565 -2.9467 -1.4062 -2.4160
  534MOL0     H72068  10.518   5.158   4.409  0.9012  1.7488 -1.9439
  534MOL0     H72069  10.547   5.261   4.548  2.4333  0.6208 -1.2051
  534MOL0     H72070  10.394   5.352   4.291  0.3195  2.0365  0.3216
  534MOL0     H72071  10.569   5.374   4.328  0.9101  1.3617  1.0256
  534MOL0     H72072   9.808   4.919   4.343 -2.5793  2.7169 -2.7660
  534MOL0     H72073   9.594   4.921   4.234  3.7742 -0.5496 -0.5867
  534MOL0     H72074   9.029   4.876   4.343  1.0931 -2.4873  0.9184
  534MOL0     H72075   8.834   4.851   4.206 -0.1255 -0.6369  2.6212
  534MOL0     H72076   7.186   5.425   4.255 -1.5271  1.1447  0.9593
  534MOL0     H72077   6.991   5.563   4.178 -3.9445 -0.6030 -1.4045
  534MOL0     H72078   6.854   5.800   3.710  1.3104 -0.5020  1.2701
  534MOL0     H72079   6.661   5.932   3.635  3.8990 -1.8006  0.2746
  534MOL0     H72080   6.413   6.098   3.648 -0.4228  0.1478  0.7921
  534MOL0     H72081   6.456   5.955   3.543  1.7051  1.5996  0.9045
  534MOL0     H72082   6.239   5.858   3.554 -2.1618 -0.2511 -1.3546
  534MOL0     H72083   6.234   6.022   3.478  0.2891  0.4082  0.4634
  534MOL0     H72084   6.115   5.942   3.748  0.5827 -0.7783 -0.0669
  534MOL0     H72085   6.044   5.975   3.592  0.7312  1.7348 -1.6948
  534MOL0     H72086   6.204   6.199   3.743 -0.6226  0.0494  0.8327
  534MOL0     H72087   6.035   6.170   3.780 -1.6385  2.1092 -2.9488
  534MOL0     H72088   6.031   6.400   3.422 -1.9346 -0.3881  0.3296
  534MOL0     H72089   6.416   5.741   3.922 -1.9524  3.1590 -2.4122
  534MOL0     H72090   6.615   5.597   3.995 -0.8086  0.9899  0.5226
  535MOL0     O72091   5.046  10.621   8.335  0.4331 -0.0067 -0.0693
  535MOL0     C72092   5.129  10.624   8.248  1.1063  0.8040  0.5646
  535MOL0     O72093   5.145  10.523   8.155  0.2955 -0.1299  0.1014
  535MOL0     C72094   5.036  10.448   8.126  0.5578  0.8312 -0.1999
  535MOL0     C72095   5.029  10.301   8.123  0.2123 -0.6103  0.5208
  535MOL0     C72096   4.916  10.228   8.096 -0.8755 -0.5533 -1.0527
  535MOL0     C72097   4.802  10.294   8.062  0.3053 -0.1697  0.8498
  535MOL0     O72098   4.686  10.221   8.020  0.0421 -0.1966  0.1000
  535MOL0     C72099   4.718  10.137   7.909  0.9497 -0.0132 -0.5216
  535MOL0     C72100   4.588  10.141   7.832  0.3038  0.4555  0.3973
  535MOL0     C72101   4.593  10.046   7.714 -0.4001 -0.3485 -0.0160
  535MOL0     C72102   4.499  10.086   7.598 -0.3107 -0.0492 -0.5208
  535MOL0     C72103   4.353  10.096   7.636  0.5706 -0.4063 -0.5850
  535MOL0     C72104   4.314   9.973   7.710 -0.3969 -0.5124  0.1445
  535MOL0     C72105   4.164   9.952   7.714  0.3129 -0.2073 -0.0365
  535MOL0     C72106   4.131   9.805   7.758 -0.1775  0.2194  0.3084
  535MOL0     N72107   3.985   9.789   7.777  0.0112 -0.8865 -0.5503
  535MOL0     C72108   3.909   9.702   7.699 -0.2349  0.0936 -0.2971
  535MOL0     C72109   3.801   9.676   7.782 -0.5985  0.1202  0.8143
  535MOL0     C72110   3.684   9.595   7.738  0.1342  0.9574  0.1512
  535MOL0     C72111   3.675   9.477   7.837 -0.4683  0.5270  0.3949
  535MOL0     C72112   3.561   9.371   7.820 -0.3443  0.5622 -0.2017
  535MOL0     C72113   3.589   9.282   7.698 -0.1846  0.4124 -0.2140
  535MOL0     O72114   3.485   9.287   7.595  0.1795  0.5588 -0.0554
  535MOL0     C72115   3.472   9.181   7.511 -0.2400 -0.0397  0.3985
  535MOL0     C72116   3.583   9.117   7.460 -0.0697  0.2049 -0.6812
  535MOL0     C72117   3.569   9.014   7.368  0.8150  0.3797  0.3993
  535MOL0     C72118   3.696   8.959   7.309  0.5605  0.4908  0.3706
  535MOL0     C72119   3.432   8.977   7.335  0.3129  0.0948 -0.1839
  535MOL0     C72120   3.408   8.863   7.244  0.2098  0.1229 -0.3096
  535MOL0     O72121   3.296   8.878   7.165 -0.1736 -0.0960 -0.6489
  535MOL0     C72122   3.255   8.800   7.061 -0.7961  1.0295  0.5856
  535MOL0     C72123   3.346   8.711   6.997 -0.0201  0.4938  0.3800
  535MOL0     C72124   3.309   8.629   6.892  0.1315 -0.0845  0.9354
  535MOL0     C72125   3.179   8.620   6.855  0.4968  0.4110  0.6830
  535MOL0     O72126   3.131   8.541   6.747 -0.2031 -0.0144  0.0589
  535MOL0     C72127   3.213   8.440   6.685  0.0318  1.7094 -0.2819
  535MOL0     C72128   3.212   8.311   6.769  0.6672  0.1493 -0.2159
  535MOL0     C72129   3.070   8.254   6.778 -0.4063  0.8180  0.6657
  535MOL0     C72130   3.058   8.114   6.822  0.0261  0.8846 -0.5128
  535MOL0     C72131   2.918   8.051   6.816 -0.2285  0.5553  0.5858
  535MOL0     C72132   2.847   8.061   6.678  1.3051  0.3257 -0.4911
  535MOL0     C72133   2.711   7.976   6.673  0.2210 -0.3555 -0.6886
  535MOL0     C72134   2.633   7.999   6.540 -0.7601 -0.4793  0.4666
  535MOL0    Cl72135   2.681   7.901   6.401 -0.1710  0.1171 -0.1511
  535MOL0     C72136   3.091   8.712   6.905  0.3201  0.2294 -0.6852
  535MOL0     C72137   3.126   8.797   7.014 -0.3291  0.2936  0.0042
  535MOL0     O72138   3.466   8.756   7.259  0.0155 -0.0750  0.2536
  535MOL0     C72139   3.317   9.048   7.393  0.1624  0.6979  0.0940
  535MOL0     C72140   3.340   9.157   7.476 -0.9176  0.0577 -0.7666
  535MOL0     N72141   3.810   9.765   7.892 -0.4288  0.2637  0.8349
  535MOL0     N72142   3.920   9.827   7.889  0.4572  0.2573 -1.1092
  535MOL0     C72143   4.796  10.431   8.056  0.4537 -0.3577  0.1101
  535MOL0     C72144   4.915  10.506   8.089  0.6165  0.1132 -0.3307
  535MOL0     C72145   5.224  10.742   8.243  0.3664  0.3090  0.3642
  535MOL0     C72146   5.336  10.741   8.151  0.2099  0.5822 -0.8446
  535MOL0     C72147   5.429  10.848   8.167 -0.0095  0.1700  0.1652
  535MOL0     C72148   5.408  10.961   8.240 -0.3838 -0.4327 -0.3452
  535MOL0     O72149   5.498  11.064   8.231 -0.7507 -0.7785 -0.3657
  535MOL0     C72150   5.492  11.166   8.335  0.6456 -0.0603 -0.5400
  535MOL0     C72151   5.602  11.271   8.323 -0.1638 -0.2956 -0.1236
  535MOL0     C72152   5.574  11.363   8.197 -0.0307 -0.3516 -0.7007
  535MOL0     C72153   5.655  11.498   8.189  0.2370  0.5544  0.3841
  535MOL0     C72154   5.613  11.586   8.301 -0.4645 -0.0905 -0.4089
  535MOL0     C72155   5.588  11.641   8.402  0.0029 -0.1366 -0.0345
  535MOL0     C72156   5.312  10.954   8.338 -0.6820 -0.5649  0.4149
  535MOL0     C72157   5.220  10.842   8.345  1.2551 -0.7674  0.3752
  535MOL0     H72158   5.113  10.238   8.152  1.0837  0.9432  1.4845
  535MOL0     H72159   4.924  10.119   8.099  5.2954 -0.4604  1.6734
  535MOL0     H72160   4.790  10.175   7.836  2.2522 -0.0736  0.6875
  535MOL0     H72161   4.729  10.032   7.939  0.0132 -0.4127 -1.4929
  535MOL0     H72162   4.497  10.120   7.888  0.3998  0.8240  0.6934
  535MOL0     H72163   4.590  10.243   7.791  1.1708  0.9039  1.4920
  535MOL0     H72164   4.695  10.050   7.673  0.0204 -1.6004  0.8293
  535MOL0     H72165   4.583   9.940   7.741 -2.4329 -0.1197  0.2505
  535MOL0     H72166   4.540  10.179   7.559  1.1278 -0.0282  0.9604
  535MOL0     H72167   4.524  10.006   7.527 -0.8458  1.3246 -2.3406
  535MOL0     H72168   4.326  10.192   7.681  1.5871 -0.4860  0.2471
  535MOL0     H72169   4.307  10.104   7.538 -0.1315 -0.1284 -0.2371
  535MOL0     H72170   4.353   9.881   7.666  0.8582 -0.3574  0.8580
  535MOL0     H72171   4.356   9.975   7.811  4.1213 -0.4088 -1.5045
  535MOL0     H72172   4.116  10.028   7.776  0.0106 -0.5014  0.0955
  535MOL0     H72173   4.124   9.956   7.612 -0.3918 -1.6014  0.1583
  535MOL0     H72174   4.185   9.792   7.853 -1.4152  0.8371  1.1352
  535MOL0     H72175   4.167   9.732   7.685  0.9586  1.6184 -0.5828
  535MOL0     H72176   3.925   9.667   7.598 -1.9135 -3.0109  0.4123
  535MOL0     H72177   3.587   9.645   7.734  0.1921  0.9862 -1.5444
  535MOL0     H72178   3.692   9.541   7.643 -2.3051 -0.9203  0.8859
  535MOL0     H72179   3.667   9.527   7.934  1.1166  2.3599 -0.3423
  535MOL0     H72180   3.770   9.428   7.815 -0.3617  0.8303  0.1667
  535MOL0     H72181   3.463   9.420   7.816 -1.2348 -1.0329  0.5581
  535MOL0     H72182   3.551   9.306   7.907  1.1710  2.5044  1.4935
  535MOL0     H72183   3.596   9.178   7.734 -0.8724  0.8161  1.1710
  535MOL0     H72184   3.684   9.311   7.653 -0.4646  0.7119 -0.6105
  535MOL0     H72185   3.682   9.141   7.496  0.4357 -2.0137 -0.4828
  535MOL0     H72186   3.684   8.858   7.271  2.2172  0.3327  0.2012
  535MOL0     H72187   3.727   9.020   7.223  0.4897  1.0773  0.7504
  535MOL0     H72188   3.778   8.964   7.381  2.7461 -0.6913 -1.8667
  535MOL0     H72189   3.451   8.706   7.024  0.5586  1.9281 -1.3593
  535MOL0     H72190   3.379   8.561   6.844 -0.6001 -0.3715  0.2560
  535MOL0     H72191   3.166   8.417   6.589 -0.9571 -2.0980  0.9164
  535MOL0     H72192   3.315   8.461   6.651  0.1214  0.4765 -0.8332
  535MOL0     H72193   3.277   8.229   6.738 -0.6494 -1.5542  1.3113
  535MOL0     H72194   3.250   8.344   6.867  1.8841  2.7850 -1.4868
  535MOL0     H72195   3.030   8.245   6.676 -3.2607 -0.2386  1.7891
  535MOL0     H72196   3.002   8.318   6.835  1.2735  3.1574  0.1842
  535MOL0     H72197   3.123   8.048   6.763 -1.9116 -2.0712  0.4606
  535MOL0     H72198   3.081   8.116   6.929  1.1912  0.9212 -0.7449
  535MOL0     H72199   2.855   8.093   6.895 -2.6134  2.0112 -1.8867
  535MOL0     H72200   2.930   7.946   6.845 -1.2698 -0.0924 -1.1469
  535MOL0     H72201   2.824   8.165   6.654 -1.0179 -0.0756 -0.2133
  535MOL0     H72202   2.917   8.019   6.605  0.6918  1.3658 -1.6912
  535MOL0     H72203   2.641   8.006   6.751  0.2008  4.4003 -2.2008
  535MOL0     H72204   2.732   7.870   6.686 -1.0686 -0.6986 -1.2150
  535MOL0     H72205   2.651   8.103   6.512  1.8584 -0.4836  1.7779
  535MOL0     H72206   2.527   7.979   6.558 -2.1753  1.6486 -4.0355
  535MOL0     H72207   2.985   8.716   6.881 -0.3551  0.6987  2.0254
  535MOL0     H72208   3.050   8.864   7.053 -0.6995 -0.7656  1.1562
  535MOL0     H72209   3.216   9.014   7.372  0.5137  0.2346 -0.9087
  535MOL0     H72210   3.262   9.213   7.526  1.0621  3.3408 -1.0135
  535MOL0     H72211   4.700  10.475   8.030  0.4373  0.6832  1.7636
  535MOL0     H72212   4.898  10.613   8.087 -1.3590 -0.1687 -0.9201
  535MOL0     H72213   5.359  10.670   8.072  1.4984  0.8831 -0.7689
  535MOL0     H72214   5.516  10.848   8.102  0.5326  2.3046  0.8284
  535MOL0     H72215   5.396  11.215   8.323  0.8906 -0.0639 -3.1890
  535MOL0     H72216   5.503  11.122   8.435 -2.6762 -0.8273 -0.4013
  535MOL0     H72217   5.703  11.231   8.310  0.7588  1.7655  0.2667
  535MOL0     H72218   5.611  11.321   8.420  1.0149 -3.0168  1.2903
  535MOL0     H72219   5.467  11.383   8.198 -0.0746 -0.5293  0.4057
  535MOL0     H72220   5.601  11.317   8.102 -0.3545  1.9877 -1.9858
  535MOL0     H72221   5.631  11.547   8.095  0.5643 -0.3994 -0.2068
  535MOL0     H72222   5.763  11.480   8.190 -0.2244 -3.2892 -1.3661
  535MOL0     H72223   5.568  11.696   8.492 -1.4471  3.0276 -2.0806
  535MOL0     H72224   5.306  11.029   8.416 -2.1588 -0.5503  0.3159
  535MOL0     H72225   5.147  10.842   8.425 -1.7883 -1.7101 -2.2020
  536MOL0     O72226   1.355   4.955  11.258  0.7438  1.3617 -0.0270
  536MOL0     C72227   1.401   4.846  11.219 -0.1160  0.4070 -0.3740
  536MOL0     O72228   1.335   4.733  11.207  0.4502  1.0758 -0.5531
  536MOL0     C72229   1.196   4.737  11.221 -0.9924  0.1996 -0.2519
  536MOL0     C72230   1.136   4.661  11.324 -1.3247  0.0983 -0.2262
  536MOL0     C72231   0.994   4.662  11.333  0.2897 -0.4716 -0.2384
  536MOL0     C72232   0.905   4.720  11.237  0.0424  0.8106 -0.0611
  536MOL0     O72233   0.772   4.722  11.228  0.0563 -0.6597 -0.2980
  536MOL0     C72234   0.692   4.672  11.341  0.1412 -0.1758 -0.8864
  536MOL0     C72235   0.563   4.735  11.373 -0.7124 -0.0785  0.2137
  536MOL0     C72236   0.492   4.690  11.502  0.8981  0.2384  0.9482
  536MOL0     C72237   0.549   4.745  11.632 -1.0164 -0.1853  0.9187
  536MOL0     C72238   0.465   4.721  11.763 -0.2014  0.0614 -0.2898
  536MOL0     C72239   0.321   4.774  11.768 -0.5032  0.5143  0.5871
  536MOL0     C72240   0.243   4.730  11.894  0.8852 -0.0624  0.8717
  536MOL0     C72241   0.097   4.756  11.879  0.1676  0.1975  0.8693
  536MOL0     N72242   0.059   4.900  11.875  0.5508 -0.3783 -0.1696
  536MOL0     C72243   0.028   4.958  11.757 -0.2238 -0.1239  0.3124
  536MOL0     C72244   0.008   5.087  11.783 -0.1278 -0.7569  1.0715
  536MOL0     C72245  -0.026   5.185  11.675 -0.6856 -0.6206 -0.5190
  536MOL0     C72246   0.092   5.240  11.597  0.7308  0.7029 -1.1416
  536MOL0     C72247   0.067   5.374  11.524 -0.0240  0.2736 -0.7904
  536MOL0     C72248   0.193   5.436  11.474 -0.2250  0.1924  0.1758
  536MOL0     O72249   0.276   5.463  11.590 -0.5911 -0.2774  0.5658
  536MOL0     C72250   0.405   5.499  11.565  0.3982 -0.1469  0.5729
  536MOL0     C72251   0.472   5.536  11.678 -0.0007 -0.5826  0.1432
  536MOL0     C72252   0.601   5.602  11.655  0.0814  0.1615 -0.7885
  536MOL0     C72253   0.666   5.653  11.779 -0.5578 -0.2599  0.1303
  536MOL0     C72254   0.660   5.612  11.526 -0.9589  0.0440 -0.1064
  536MOL0     C72255   0.797   5.667  11.504 -0.5299 -0.5249 -0.1207
  536MOL0     O72256   0.837   5.664  11.373 -0.3352 -0.0040 -0.0706
  536MOL0     C72257   0.967   5.700  11.340  0.0939 -0.9073  0.3261
  536MOL0     C72258   1.069   5.599  11.347 -0.2561  0.0908  0.5893
  536MOL0     C72259   1.196   5.637  11.298 -0.3515  0.6135  0.1567
  536MOL0     C72260   1.218   5.762  11.243 -0.1309 -0.7688  0.4787
  536MOL0     O72261   1.341   5.806  11.197 -0.0518 -0.4210  0.2412
  536MOL0     C72262   1.449   5.721  11.182  0.5011 -0.1741  1.1479
  536MOL0     C72263   1.566   5.793  11.120 -0.2549 -0.3124  0.1043
  536MOL0     C72264   1.693   5.739  11.172 -0.0376  1.1178  0.4173
  536MOL0     C72265   1.796   5.773  11.064 -0.6389 -0.0696  0.1940
  536MOL0     C72266   1.933   5.712  11.096  0.5282  0.5389  0.8858
  536MOL0     C72267   2.054   5.707  10.999 -0.6883  0.2896  0.5775
  536MOL0     C72268   2.185   5.669  11.087 -0.0779  0.1479 -0.0550
  536MOL0     C72269   2.196   5.528  11.151  0.2395 -0.2798 -0.0599
  536MOL0    Cl72270   2.357   5.478  11.207  0.1782  0.2490  0.1197
  536MOL0     C72271   1.113   5.862  11.229  0.3598  0.2793 -0.3393
  536MOL0     C72272   0.992   5.825  11.278  0.1507  0.2329  1.1211
  536MOL0     O72273   0.874   5.686  11.601 -0.1358 -0.1133  0.4330
  536MOL0     C72274   0.583   5.568  11.420  0.3487 -0.0836  0.2195
  536MOL0     C72275   0.455   5.514  11.438  0.2513  0.5932 -0.7078
  536MOL0     N72276   0.031   5.105  11.921 -0.4622 -0.0486 -0.3134
  536MOL0     N72277   0.073   4.996  11.973 -0.4440  0.1575 -0.1361
  536MOL0     C72278   0.972   4.765  11.124 -0.3464 -0.5508 -1.2060
  536MOL0     C72279   1.111   4.766  11.111  0.4329 -0.4990 -0.6604
  536MOL0     C72280   1.543   4.847  11.185  0.2628 -1.2865  0.4646
  536MOL0     C72281   1.623   4.960  11.225  0.1156 -0.0687  0.3077
  536MOL0     C72282   1.762   4.943  11.203 -0.0343 -1.1839  0.3972
  536MOL0     C72283   1.815   4.834  11.139 -0.4098  0.2903  0.3127
  536MOL0     O72284   1.951   4.820  11.100 -0.5444  0.8585 -0.3435
  536MOL0     C72285   2.034   4.934  11.106 -0.5546  0.1389  0.0878
  536MOL0     C72286   2.144   4.917  11.014  0.2485 -0.1598  0.1146
  536MOL0     C72287   2.238   5.035  11.038 -0.4388 -0.3957 -0.1474
  536MOL0     C72288   2.348   5.053  10.933 -0.1047 -0.1248 -0.3790
  536MOL0     C72289   2.440   4.933  10.922 -0.2817 -0.4094 -0.0252
  536MOL0     C72290   2.502   4.826  10.927  0.2745  0.0663 -0.1610
  536MOL0     C72291   1.734   4.731  11.096  0.2812  0.4855 -0.0205
  536MOL0     C72292   1.596   4.733  11.117  0.0081 -0.3384 -0.4382
  536MOL0     H72293   1.195   4.621  11.406  0.8747  3.0236 -0.2350
  536MOL0     H72294   0.952   4.612  11.420 -1.2107  2.4555  0.8551
  536MOL0     H72295   0.669   4.565  11.335  1.0678 -0.5675  1.3998
  536MOL0     H72296   0.742   4.681  11.438  0.9461 -0.2617 -1.2791
  536MOL0     H72297   0.588   4.841  11.375  1.7400 -0.4022 -3.2999
  536MOL0     H72298   0.494   4.733  11.288  0.0514 -1.0279 -0.4094
  536MOL0     H72299   0.393   4.738  11.506  1.8611  2.5971 -1.0462
  536MOL0     H72300   0.484   4.581  11.509  1.0530 -0.0696 -2.3200
  536MOL0     H72301   0.652   4.708  11.642 -0.2978  1.7556  1.1290
  536MOL0     H72302   0.550   4.852  11.611  1.9389 -0.4449 -0.9490
  536MOL0     H72303   0.460   4.612  11.772  2.4732 -0.1118 -0.0180
  536MOL0     H72304   0.519   4.764  11.848  0.4459  0.3680 -0.8476
  536MOL0     H72305   0.324   4.884  11.773 -2.2221  0.6124  0.2166
  536MOL0     H72306   0.259   4.747  11.682  1.3618 -2.2619  0.0062
  536MOL0     H72307   0.256   4.622  11.911  0.8069 -0.0789  0.8296
  536MOL0     H72308   0.277   4.790  11.979 -0.8587 -1.5145  2.6828
  536MOL0     H72309   0.048   4.713  11.967  0.7013 -0.0167  1.0663
  536MOL0     H72310   0.059   4.700  11.793  2.9601 -0.7081  0.0895
  536MOL0     H72311   0.029   4.921  11.655  0.7956 -1.5809  0.8191
  536MOL0     H72312  -0.091   5.132  11.605  0.0070 -1.8830 -0.2445
  536MOL0     H72313  -0.094   5.262  11.713 -1.2509 -1.3448 -0.0286
  536MOL0     H72314   0.118   5.164  11.523 -0.5390 -0.9707  0.0500
  536MOL0     H72315   0.180   5.248  11.662 -2.4834  2.9485  3.5307
  536MOL0     H72316   0.028   5.453  11.589 -0.6261  1.6242 -2.7007
  536MOL0     H72317  -0.008   5.365  11.445  0.6804  3.2168 -1.8980
  536MOL0     H72318   0.177   5.524  11.413  2.0226  1.8975  1.8664
  536MOL0     H72319   0.224   5.361  11.401 -3.4956 -0.3854 -0.7645
  536MOL0     H72320   0.416   5.540  11.771 -0.8286  4.5046 -0.2998
  536MOL0     H72321   0.748   5.586  11.808  0.6500 -0.0778 -2.5955
  536MOL0     H72322   0.693   5.758  11.764 -2.2702 -0.0114 -1.4662
  536MOL0     H72323   0.603   5.648  11.869  1.0195  2.1575  1.4926
  536MOL0     H72324   1.061   5.504  11.398 -0.2110  0.6330  1.6378
  536MOL0     H72325   1.277   5.567  11.314 -0.1155  1.0993  1.1769
  536MOL0     H72326   1.479   5.670  11.274  0.2417 -2.5958 -0.0250
  536MOL0     H72327   1.422   5.637  11.117 -0.3302  1.2109 -0.4019
  536MOL0     H72328   1.539   5.791  11.014 -3.9529 -2.6209  0.8857
  536MOL0     H72329   1.557   5.899  11.145 -1.5005 -0.4116  0.1330
  536MOL0     H72330   1.671   5.632  11.164 -1.5576  1.4553 -0.2949
  536MOL0     H72331   1.722   5.772  11.272 -1.0863  0.7110  0.8689
  536MOL0     H72332   1.768   5.740  10.964  0.6441 -1.6331  0.3205
  536MOL0     H72333   1.804   5.882  11.051 -0.2996 -0.2713 -1.4090
  536MOL0     H72334   1.918   5.606  11.119 -0.8133  0.5547  0.2059
  536MOL0     H72335   1.977   5.758  11.185  2.6609  3.9313 -1.6536
  536MOL0     H72336   2.029   5.636  10.920 -0.3114  2.3701 -1.5097
  536MOL0     H72337   2.070   5.806  10.955  0.7303 -0.8764 -1.6791
  536MOL0     H72338   2.207   5.759  11.145 -0.0704  1.9566 -2.6834
  536MOL0     H72339   2.274   5.664  11.022 -0.1771  1.2044 -0.2835
  536MOL0     H72340   2.165   5.454  11.076  0.0463  0.0118 -0.2675
  536MOL0     H72341   2.131   5.523  11.238  1.0594 -1.0996  0.5257
  536MOL0     H72342   1.137   5.963  11.197  1.6561 -0.9340 -3.5513
  536MOL0     H72343   0.917   5.904  11.273 -0.2848 -0.1535  1.4798
  536MOL0     H72344   0.607   5.588  11.316  2.5552  2.4808  1.0949
  536MOL0     H72345   0.400   5.504  11.344  0.5446 -2.3244 -0.6516
  536MOL0     H72346   0.914   4.806  11.042  0.4698  0.0163 -1.5155
  536MOL0     H72347   1.148   4.812  11.020  0.3678 -0.2091 -0.5389
  536MOL0     H72348   1.586   5.054  11.265 -2.1628 -1.8798  2.8570
  536MOL0     H72349   1.823   5.031  11.222 -2.4940  0.9470 -0.8253
  536MOL0     H72350   1.971   5.019  11.077 -2.6756 -1.2790  0.2935
  536MOL0     H72351   2.074   4.958  11.205 -0.3824  0.8885 -0.1624
  536MOL0     H72352   2.114   4.917  10.909 -0.6417 -0.0780  0.3537
  536MOL0     H72353   2.197   4.826  11.042  0.1779 -0.7389 -1.5399
  536MOL0     H72354   2.278   5.017  11.138 -0.4442 -3.0016 -0.5502
  536MOL0     H72355   2.180   5.128  11.034  1.0526  0.5854  0.1341
  536MOL0     H72356   2.400   5.149  10.941 -1.1059  0.4594 -0.7028
  536MOL0     H72357   2.303   5.065  10.834  1.1874  2.8139 -0.7207
  536MOL0     H72358   2.562   4.738  10.937  0.3032  0.1768  0.8060
  536MOL0     H72359   1.785   4.640  11.064 -0.6001  0.3602 -1.1344
  536MOL0     H72360   1.539   4.641  11.123 -0.1893 -0.1527  0.9499
  537MOL0     O72361   3.637   3.446   2.926 -0.3046 -0.0375  0.9583
  537MOL0     C72362   3.692   3.543   2.969  0.7363 -0.3114  0.3146
  537MOL0     O72363   3.624   3.646   3.024  0.0623 -0.0413  0.3588
  537MOL0     C72364   3.486   3.642   3.010  0.4569 -0.2402  0.7163
  537MOL0     C72365   3.397   3.568   3.093 -0.1586 -0.3925  0.5797
  537MOL0     C72366   3.260   3.578   3.073  0.2453  0.2217  1.0589
  537MOL0     C72367   3.201   3.649   2.965 -0.5295 -0.4348  0.8478
  537MOL0     O72368   3.071   3.667   2.948 -0.3029 -0.5448  0.0732
  537MOL0     C72369   2.971   3.608   3.030 -0.4455  0.0864 -0.3912
  537MOL0     C72370   2.841   3.671   2.976 -0.2400  0.4761 -0.3391
  537MOL0     C72371   2.723   3.624   3.056 -0.3388  0.1555 -0.1253
  537MOL0     C72372   2.599   3.714   3.026 -0.0821  0.2114 -0.1097
  537MOL0     C72373   2.469   3.638   3.081 -0.5587 -0.6428  0.3640
  537MOL0     C72374   2.354   3.717   3.021  0.9897 -0.3191  0.5457
  537MOL0     C72375   2.210   3.654   3.047 -0.1464  0.7091  0.1660
  537MOL0     C72376   2.161   3.697   3.192  0.5793 -0.1417 -0.3216
  537MOL0     N72377   2.017   3.735   3.203  0.2578 -0.3587  0.2147
  537MOL0     C72378   1.943   3.687   3.305 -0.0669 -1.1120  0.5248
  537MOL0     C72379   1.819   3.735   3.279 -0.0792 -0.0841 -0.6577
  537MOL0     C72380   1.687   3.692   3.338 -0.3309  0.1452 -0.3531
  537MOL0     C72381   1.610   3.791   3.417  0.3619 -0.0955  0.1144
  537MOL0     C72382   1.479   3.739   3.480  0.3297 -0.5306  0.5047
  537MOL0     C72383   1.510   3.651   3.599  0.5184  0.7609 -1.4796
  537MOL0     O72384   1.396   3.630   3.688 -0.1028 -0.7179  0.2485
  537MOL0     C72385   1.305   3.528   3.677 -0.9180  0.0874 -0.2610
  537MOL0     C72386   1.313   3.437   3.576 -0.6669 -0.7882 -0.3334
  537MOL0     C72387   1.218   3.336   3.559  0.2549  0.7922  0.2248
  537MOL0     C72388   1.242   3.223   3.450 -0.0208 -0.9883  0.0305
  537MOL0     C72389   1.110   3.327   3.651  0.1077 -0.5124 -0.0375
  537MOL0     C72390   1.008   3.216   3.638  0.0187  0.5399 -0.3480
  537MOL0     O72391   0.987   3.152   3.523 -0.6730 -0.3090 -0.0949
  537MOL0     C72392   0.893   3.067   3.486 -0.0318 -0.1146  0.9531
  537MOL0     C72393   0.773   3.062   3.557 -0.5422 -0.0258 -0.0074
  537MOL0     C72394   0.677   2.976   3.511 -0.2168 -0.4759  0.8804
  537MOL0     C72395   0.692   2.894   3.402  0.3073 -0.2449 -0.6832
  537MOL0     O72396   0.585   2.822   3.363 -0.1537  0.0727  0.6050
  537MOL0     C72397   0.467   2.794   3.442  0.1634  0.3161  0.4234
  537MOL0     C72398   0.498   2.691   3.552 -0.8261 -0.6583 -0.4465
  537MOL0     C72399   0.367   2.635   3.602  0.5871  0.6421 -0.5744
  537MOL0     C72400   0.341   2.488   3.570 -0.3768 -0.3105 -0.4083
  537MOL0     C72401   0.297   2.471   3.426  0.2875 -0.8723  0.2464
  537MOL0     C72402   0.290   2.331   3.382 -0.1333  0.3116  0.3283
  537MOL0     C72403   0.278   2.304   3.238  0.6931 -0.0781 -0.2363
  537MOL0     C72404   0.140   2.347   3.178  0.4116  0.3714  0.6164
  537MOL0    Cl72405   0.006   2.282   3.276 -0.1946 -0.0755 -0.1982
  537MOL0     C72406   0.796   2.914   3.317 -0.4157 -0.2961 -0.8256
  537MOL0     C72407   0.899   3.013   3.352  0.3082 -0.3398 -0.4573
  537MOL0     O72408   0.955   3.191   3.743 -0.4237 -0.2604 -0.1074
  537MOL0     C72409   1.106   3.419   3.753 -1.0004  0.7481 -0.4371
  537MOL0     C72410   1.198   3.519   3.767 -0.6565 -0.2572  0.1747
  537MOL0     N72411   1.829   3.810   3.161 -0.0751 -0.1412  0.0694
  537MOL0     N72412   1.950   3.815   3.115 -0.2126  0.6147 -0.2128
  537MOL0     C72413   3.289   3.727   2.887  0.0695 -0.6993 -0.1885
  537MOL0     C72414   3.427   3.728   2.914  0.3375 -0.0329 -1.1208
  537MOL0     C72415   3.833   3.526   2.981 -0.4061 -0.0061  0.4493
  537MOL0     C72416   3.915   3.610   3.052 -0.5087  0.9901 -0.2435
  537MOL0     C72417   4.054   3.597   3.062  0.5601 -0.0453  0.3361
  537MOL0     C72418   4.119   3.496   2.997 -0.0853  0.2232  0.1498
  537MOL0     O72419   4.257   3.464   3.005  0.9264 -0.0960 -0.1702
  537MOL0     C72420   4.338   3.556   3.081 -0.6722  0.6438 -0.3753
  537MOL0     C72421   4.483   3.547   3.029  0.7405 -0.0061 -0.2675
  537MOL0     C72422   4.564   3.656   3.094 -0.2858  0.6095 -0.3503
  537MOL0     C72423   4.718   3.607   3.101  0.3912 -0.7638  0.3951
  537MOL0     C72424   4.744   3.494   3.180 -0.4444 -0.5109  0.8305
  537MOL0     C72425   4.775   3.411   3.262  0.4869  0.2609 -0.2589
  537MOL0     C72426   4.044   3.404   2.928 -0.0123  0.3771  0.0444
  537MOL0     C72427   3.906   3.414   2.920  0.2182 -0.0379 -0.1198
  537MOL0     H72428   3.417   3.504   3.178  1.3683 -0.2031  0.3919
  537MOL0     H72429   3.193   3.526   3.140 -2.6562 -0.1658 -1.9061
  537MOL0     H72430   2.963   3.499   3.034 -0.3547 -0.0313 -2.3903
  537MOL0     H72431   2.992   3.634   3.134  2.6917 -2.5837 -0.1608
  537MOL0     H72432   2.840   3.780   2.985  2.0737  0.5164  0.0581
  537MOL0     H72433   2.828   3.657   2.869  0.8245  0.9479 -0.5361
  537MOL0     H72434   2.711   3.520   3.024  1.8382 -1.4088  3.4488
  537MOL0     H72435   2.744   3.619   3.164 -1.3295  0.0778  0.0771
  537MOL0     H72436   2.611   3.808   3.080 -1.0448  0.5807 -0.5096
  537MOL0     H72437   2.594   3.740   2.920  2.4744 -1.7584 -0.8037
  537MOL0     H72438   2.460   3.532   3.053 -1.4150 -0.1341 -1.4069
  537MOL0     H72439   2.477   3.640   3.190 -0.1485 -1.4176  0.3541
  537MOL0     H72440   2.342   3.821   3.054  0.1400  0.5198 -2.0772
  537MOL0     H72441   2.369   3.723   2.912 -2.9264  0.2282 -0.1030
  537MOL0     H72442   2.142   3.688   2.968  0.3216 -1.9778 -1.5072
  537MOL0     H72443   2.207   3.545   3.038 -0.2773  0.5431  1.8908
  537MOL0     H72444   2.205   3.784   3.242  0.3032  0.6907 -1.4955
  537MOL0     H72445   2.183   3.610   3.255 -2.3018  0.1806  1.2725
  537MOL0     H72446   1.972   3.620   3.385 -0.3576  0.3860  1.9316
  537MOL0     H72447   1.628   3.662   3.252 -0.1824  1.3066 -0.8829
  537MOL0     H72448   1.707   3.607   3.405 -0.7216  0.2848 -0.0608
  537MOL0     H72449   1.583   3.878   3.357 -1.4200  2.9776  4.7403
  537MOL0     H72450   1.674   3.829   3.497 -0.3178 -1.6814  1.4617
  537MOL0     H72451   1.423   3.687   3.402 -1.5705  0.8482  0.8924
  537MOL0     H72452   1.429   3.832   3.508 -1.1007 -1.4481  1.1193
  537MOL0     H72453   1.577   3.710   3.661 -1.2700  0.5541  0.8051
  537MOL0     H72454   1.551   3.551   3.579  1.5273  0.7562  0.3946
  537MOL0     H72455   1.394   3.439   3.503  1.3500  3.0866  1.6945
  537MOL0     H72456   1.336   3.224   3.393 -0.7504 -2.0686 -1.2496
  537MOL0     H72457   1.228   3.125   3.498  2.4058 -2.5535 -2.1618
  537MOL0     H72458   1.168   3.236   3.371  1.3335 -1.6649 -1.4116
  537MOL0     H72459   0.754   3.115   3.649  0.1771 -1.4699  1.0152
  537MOL0     H72460   0.582   2.972   3.562 -1.7642 -1.7987 -1.8823
  537MOL0     H72461   0.411   2.880   3.479 -2.4168 -0.9923 -0.2357
  537MOL0     H72462   0.403   2.739   3.373 -0.9065  4.1103 -1.8730
  537MOL0     H72463   0.544   2.608   3.497 -1.0950 -2.5452  1.9975
  537MOL0     H72464   0.555   2.728   3.638 -1.8215 -1.6414  0.6795
  537MOL0     H72465   0.296   2.704   3.556  1.4286  0.3844 -2.3446
  537MOL0     H72466   0.360   2.629   3.711  0.5020 -0.7215 -0.6374
  537MOL0     H72467   0.433   2.430   3.587 -0.2554  0.0522  0.1891
  537MOL0     H72468   0.264   2.451   3.638  0.1237  2.0159  1.5559
  537MOL0     H72469   0.363   2.528   3.361 -1.6910  1.6586  0.2678
  537MOL0     H72470   0.198   2.517   3.419  1.1858  0.9424 -1.8204
  537MOL0     H72471   0.389   2.292   3.407 -0.2544 -0.3251 -0.1488
  537MOL0     H72472   0.213   2.269   3.430  0.2431 -0.9482 -0.6356
  537MOL0     H72473   0.287   2.196   3.221  2.4035 -0.0548  0.2921
  537MOL0     H72474   0.360   2.351   3.183  0.2605  0.7949 -0.1434
  537MOL0     H72475   0.140   2.313   3.074  0.4501 -1.6600  1.2335
  537MOL0     H72476   0.130   2.456   3.173 -0.8127  0.2250 -3.4457
  537MOL0     H72477   0.794   2.869   3.218 -0.1724 -0.8011 -0.6064
  537MOL0     H72478   0.986   3.031   3.291  0.0396 -1.3599 -1.1630
  537MOL0     H72479   1.030   3.424   3.830 -2.0410 -1.0129 -1.3032
  537MOL0     H72480   1.189   3.595   3.844 -2.0252  0.5756 -0.7386
  537MOL0     H72481   3.244   3.785   2.807 -0.6107 -3.8073 -2.2334
  537MOL0     H72482   3.491   3.786   2.848 -0.4880  1.7242 -0.4393
  537MOL0     H72483   3.862   3.678   3.118 -4.4032 -0.1066 -1.9402
  537MOL0     H72484   4.108   3.670   3.122 -0.2377  2.1652 -1.4511
  537MOL0     H72485   4.308   3.660   3.068 -1.9922  0.2147 -0.9417
  537MOL0     H72486   4.345   3.523   3.185  1.4410 -0.3184 -0.7616
  537MOL0     H72487   4.493   3.564   2.922 -0.1038 -2.5978 -0.8225
  537MOL0     H72488   4.525   3.446   3.034  1.9172  0.4048 -1.2864
  537MOL0     H72489   4.533   3.645   3.199  0.9732 -0.5313 -0.0803
  537MOL0     H72490   4.549   3.760   3.063 -1.0004 -0.0854 -2.5332
  537MOL0     H72491   4.782   3.675   3.157  3.8847 -3.8559  0.6163
  537MOL0     H72492   4.770   3.614   3.005  0.3310  1.5506  0.4836
  537MOL0     H72493   4.806   3.330   3.325 -1.3094  1.2799  2.0889
  537MOL0     H72494   4.092   3.321   2.877 -0.5306 -2.2865  3.5592
  537MOL0     H72495   3.854   3.338   2.862  1.7279 -0.7835 -0.5242
  538MOL0     O72496   8.405   4.870  10.455  0.3097  0.3481 -0.3007
  538MOL0     C72497   8.444   4.756  10.466  0.8158 -0.7460  0.6321
  538MOL0     O72498   8.363   4.647  10.440 -0.0856  0.1611  0.7949
  538MOL0     C72499   8.228   4.658  10.439  0.1252  0.2454 -0.2134
  538MOL0     C72500   8.169   4.556  10.368 -0.0365  0.5860  0.4996
  538MOL0     C72501   8.037   4.548  10.349  0.2944  0.0992 -0.1180
  538MOL0     C72502   7.946   4.641  10.401  0.1718 -0.7376  0.0998
  538MOL0     O72503   7.810   4.635  10.382  0.3325  0.2539  0.0620
  538MOL0     C72504   7.749   4.508  10.329  0.4685 -0.3660  0.0679
  538MOL0     C72505   7.600   4.535  10.327  0.7473  0.2570  0.2833
  538MOL0     C72506   7.541   4.521  10.467  0.4971 -0.1484 -0.2401
  538MOL0     C72507   7.389   4.525  10.483 -0.0342  0.4639  0.1413
  538MOL0     C72508   7.311   4.415  10.406 -0.3333  0.0155  0.5318
  538MOL0     C72509   7.221   4.332  10.485 -0.5213  0.4373  0.2404
  538MOL0     C72510   7.101   4.398  10.556 -0.2033  0.0979  0.2263
  538MOL0     C72511   7.041   4.295  10.655  0.5609 -0.1735  0.3595
  538MOL0     N72512   7.090   4.332  10.790 -0.0225  0.6657  0.1386
  538MOL0     C72513   7.027   4.402  10.887  0.2819  0.6691 -0.4727
  538MOL0     C72514   7.121   4.416  10.985 -0.4418  0.4695 -0.0618
  538MOL0     C72515   7.113   4.495  11.119 -0.2226  0.6021  0.5400
  538MOL0     C72516   6.983   4.473  11.193 -0.6530  0.1876 -0.4634
  538MOL0     C72517   6.970   4.566  11.307  0.3563 -0.5306 -1.3486
  538MOL0     C72518   6.833   4.540  11.372  0.4202 -0.2147  0.6292
  538MOL0     O72519   6.831   4.615  11.488 -0.3929  0.0206  0.9060
  538MOL0     C72520   6.710   4.617  11.566 -0.7812 -0.2214  0.0388
  538MOL0     C72521   6.724   4.685  11.683 -0.4849  0.8974  0.3438
  538MOL0     C72522   6.617   4.722  11.762  1.0000  0.4299 -0.1040
  538MOL0     C72523   6.646   4.793  11.898 -0.2628 -0.6261 -0.3703
  538MOL0     C72524   6.495   4.673  11.727  1.3065  0.6806  0.1754
  538MOL0     C72525   6.375   4.699  11.813 -0.4614  0.4970 -0.0781
  538MOL0     O72526   6.340   4.609  11.902  0.6298 -0.5167 -0.6524
  538MOL0     C72527   6.218   4.626  11.968 -0.1704 -0.2228 -0.8706
  538MOL0     C72528   6.103   4.610  11.898  0.0227 -0.3690 -0.6397
  538MOL0     C72529   5.981   4.597  11.959 -0.1964  0.7183  0.2674
  538MOL0     C72530   5.981   4.614  12.095  0.1815  0.0884  0.8343
  538MOL0     O72531   5.868   4.600  12.175 -0.2115  0.5049  0.4812
  538MOL0     C72532   5.804   4.471  12.154  0.3966  0.1538 -0.5229
  538MOL0     C72533   5.675   4.467  12.246  0.0746  0.5240  0.0479
  538MOL0     C72534   5.549   4.504  12.167 -0.1870 -0.6181  0.3795
  538MOL0     C72535   5.428   4.415  12.198  0.1557 -0.4051 -0.9235
  538MOL0     C72536   5.358   4.367  12.069  0.1809  0.3685  0.7429
  538MOL0     C72537   5.235   4.289  12.099  0.1488 -0.4805 -1.1848
  538MOL0     C72538   5.115   4.375  12.131  0.4619  0.3855 -0.3180
  538MOL0     C72539   4.982   4.306  12.140  0.2129  0.2652 -0.0274
  538MOL0    Cl72540   4.991   4.162  12.253  0.3240  0.7307  0.2990
  538MOL0     C72541   6.096   4.631  12.175  0.3042  0.0138  0.6841
  538MOL0     C72542   6.223   4.629  12.109 -0.2125  0.0567 -0.5952
  538MOL0     O72543   6.306   4.787  11.766  0.3766 -0.1002 -0.7220
  538MOL0     C72544   6.477   4.610  11.600  0.3473 -1.2534  0.8125
  538MOL0     C72545   6.581   4.583  11.515  0.2146  0.2538  1.1311
  538MOL0     N72546   7.237   4.352  10.943  0.1419  0.1574 -1.4220
  538MOL0     N72547   7.213   4.305  10.826 -0.6649 -0.3461 -0.5498
  538MOL0     C72548   8.008   4.749  10.465  0.4831 -0.3295 -0.2207
  538MOL0     C72549   8.143   4.752  10.496  0.2010  0.2119  0.5105
  538MOL0     C72550   8.589   4.742  10.499  0.0941  0.4629 -0.5175
  538MOL0     C72551   8.625   4.634  10.575 -0.6211  0.7524  0.0829
  538MOL0     C72552   8.744   4.635  10.648 -0.1074  0.4846 -0.0814
  538MOL0     C72553   8.839   4.736  10.634 -0.6866 -0.9338 -0.9129
  538MOL0     O72554   8.968   4.712  10.685  0.1847 -0.1400 -0.8300
  538MOL0     C72555   9.043   4.823  10.732  0.4973  0.7522  0.1455
  538MOL0     C72556   9.161   4.755  10.798  0.4478 -0.2843  0.0506
  538MOL0     C72557   9.260   4.692  10.716 -0.1393  0.1553  0.0175
  538MOL0     C72558   9.404   4.720  10.771  0.9148  0.2009 -0.5059
  538MOL0     C72559   9.496   4.628  10.709 -0.5177 -0.8644 -0.1751
  538MOL0     C72560   9.573   4.548  10.653  0.0280 -0.1866 -0.4433
  538MOL0     C72561   8.804   4.847  10.550  0.0378 -0.3776 -0.2507
  538MOL0     C72562   8.678   4.854  10.480  0.5329  0.2180  0.6780
  538MOL0     H72563   8.225   4.486  10.307 -1.3282 -0.2639  0.2570
  538MOL0     H72564   8.002   4.470  10.281  2.1833  0.3935 -1.5087
  538MOL0     H72565   7.771   4.480  10.226 -1.3522 -1.5830 -0.0469
  538MOL0     H72566   7.776   4.420  10.389  0.1169 -0.0227  0.7455
  538MOL0     H72567   7.580   4.633  10.281 -1.6990  1.1234  2.8799
  538MOL0     H72568   7.549   4.467  10.257 -1.9067 -0.5287  2.7892
  538MOL0     H72569   7.571   4.420  10.496 -0.5196 -0.7952 -1.3119
  538MOL0     H72570   7.580   4.601  10.530 -1.0107  0.1263  0.3827
  538MOL0     H72571   7.363   4.543  10.587 -1.7188  0.3692 -0.2353
  538MOL0     H72572   7.353   4.619  10.439  0.6619  0.7203  0.1128
  538MOL0     H72573   7.245   4.456  10.329 -1.3943 -1.3233  0.6759
  538MOL0     H72574   7.377   4.346  10.353 -2.0150 -1.5660  0.3577
  538MOL0     H72575   7.194   4.239  10.433 -0.3419  1.0033 -0.8908
  538MOL0     H72576   7.281   4.291  10.566 -1.7406 -1.7964  0.1047
  538MOL0     H72577   7.134   4.489  10.608 -3.1746  0.0669  2.4060
  538MOL0     H72578   7.024   4.427  10.485 -0.6980 -1.2954  0.1721
  538MOL0     H72579   7.065   4.192  10.628  1.2399  0.3344 -1.0833
  538MOL0     H72580   6.933   4.304  10.648  0.8090  4.1107 -1.4108
  538MOL0     H72581   6.928   4.444  10.876  0.2023  0.9632  1.1038
  538MOL0     H72582   7.195   4.461  11.184 -1.6399 -2.6020  0.8504
  538MOL0     H72583   7.128   4.600  11.094 -2.3968  0.6479 -0.8108
  538MOL0     H72584   6.972   4.368  11.223 -1.6739  0.1354 -0.9675
  538MOL0     H72585   6.914   4.501  11.113  0.2311 -2.1551 -2.1489
  538MOL0     H72586   6.956   4.671  11.279 -0.8937 -1.0008 -2.6396
  538MOL0     H72587   7.053   4.551  11.377 -0.5767  2.4428  0.5916
  538MOL0     H72588   6.805   4.439  11.404 -1.0235  0.1340  0.5374
  538MOL0     H72589   6.759   4.584  11.305  1.3102 -0.9274 -0.8670
  538MOL0     H72590   6.820   4.711  11.728 -0.7330 -0.5829  1.8063
  538MOL0     H72591   6.611   4.897  11.896  2.1825  0.2777  0.1378
  538MOL0     H72592   6.596   4.746  11.983  1.3549  1.3933  1.8449
  538MOL0     H72593   6.755   4.797  11.911 -0.1187  0.9411 -1.6979
  538MOL0     H72594   6.106   4.592  11.791 -3.7374  2.1015 -1.3674
  538MOL0     H72595   5.889   4.585  11.903 -0.6833 -0.9903  1.3672
  538MOL0     H72596   5.770   4.443  12.054 -1.6169  1.0505 -0.1497
  538MOL0     H72597   5.877   4.393  12.178  0.9852  0.5312 -1.0385
  538MOL0     H72598   5.660   4.367  12.287  2.0196  0.6402  1.1570
  538MOL0     H72599   5.688   4.532  12.333 -1.2887  0.1621  0.5447
  538MOL0     H72600   5.575   4.485  12.062  0.7960  2.5133 -0.0762
  538MOL0     H72601   5.528   4.610  12.187  0.8417 -0.6675  1.9117
  538MOL0     H72602   5.450   4.321  12.250 -0.0841  0.5920  1.0790
  538MOL0     H72603   5.355   4.467  12.262  2.0742 -0.4629  1.4560
  538MOL0     H72604   5.429   4.304  12.015  0.8936  1.4764  0.3529
  538MOL0     H72605   5.328   4.446  12.000 -1.0431 -0.9455 -0.2877
  538MOL0     H72606   5.218   4.245  12.000  0.1850 -1.1781 -0.8911
  538MOL0     H72607   5.249   4.213  12.177  0.3063  1.4050  0.6927
  538MOL0     H72608   5.101   4.445  12.048  0.3200 -1.8449 -2.2907
  538MOL0     H72609   5.133   4.431  12.223  1.5793 -0.0009 -0.2910
  538MOL0     H72610   4.950   4.283  12.038 -1.1569  0.2531  0.3896
  538MOL0     H72611   4.905   4.367  12.188 -0.2792  0.3461 -0.9017
  538MOL0     H72612   6.097   4.627  12.284  3.7137 -0.5579  0.7374
  538MOL0     H72613   6.318   4.636  12.161 -0.7718  0.3130  0.4327
  538MOL0     H72614   6.376   4.580  11.573 -0.5186  0.0822  2.3732
  538MOL0     H72615   6.572   4.530  11.420 -2.1358 -2.5409  2.7366
  538MOL0     H72616   7.960   4.842  10.493  0.8472  0.2966 -1.6045
  538MOL0     H72617   8.190   4.836  10.546  2.6460 -0.9020  0.2463
  538MOL0     H72618   8.553   4.553  10.577  0.7225 -0.7550 -3.6701
  538MOL0     H72619   8.779   4.552  10.709  0.0198  1.8579  1.8182
  538MOL0     H72620   9.083   4.885  10.650 -0.0383 -1.8816 -2.2676
  538MOL0     H72621   8.986   4.886  10.801 -1.5534 -0.2718 -0.5278
  538MOL0     H72622   9.120   4.682  10.869 -0.6050  1.1974  1.0384
  538MOL0     H72623   9.212   4.840  10.845  1.1078  0.0242 -1.1769
  538MOL0     H72624   9.243   4.729  10.614 -0.0272  2.0909  0.6726
  538MOL0     H72625   9.249   4.583  10.719 -0.9225  0.2221 -0.1057
  538MOL0     H72626   9.400   4.707  10.880 -4.2491  3.1879  0.0223
  538MOL0     H72627   9.418   4.828  10.756 -0.0987  0.5747  0.9757
  538MOL0     H72628   9.647   4.487  10.603  0.2489 -0.9468  0.7546
  538MOL0     H72629   8.866   4.936  10.545  0.9674 -0.9238  1.0392
  538MOL0     H72630   8.647   4.938  10.419  0.7944 -0.5216 -0.4966
  539MOL0     O72631  10.077  10.004   6.205 -0.7435 -0.1970 -0.2354
  539MOL0     C72632  10.005   9.921   6.252  0.2365  0.0022  0.0010
  539MOL0     O72633  10.021   9.784   6.251 -0.3670  0.8614 -0.2423
  539MOL0     C72634  10.141   9.728   6.217 -0.2239  0.5468  0.9456
  539MOL0     C72635  10.227   9.674   6.310 -0.0194  0.7895 -0.1895
  539MOL0     C72636  10.348   9.610   6.275  0.0349 -0.2358  0.6649
  539MOL0     C72637  10.388   9.614   6.140  0.5440 -0.4059  0.0551
  539MOL0     O72638  10.519   9.602   6.102  0.2256 -0.1884  0.4654
  539MOL0     C72639  10.575   9.476   6.133 -0.0977 -0.5509  0.7871
  539MOL0     C72640  10.724   9.485   6.103  0.5589 -0.1666 -0.2289
  539MOL0     C72641  10.783   9.613   6.159  0.7702 -0.2624 -0.4208
  539MOL0     C72642  10.809   9.725   6.054 -0.4195 -0.4457 -0.2320
  539MOL0     C72643  10.956   9.715   6.001 -0.1587  0.8057 -0.2358
  539MOL0     C72644  11.082   9.776   6.079  0.5081  0.1896  0.4203
  539MOL0     C72645  11.077   9.758   6.231  0.4611 -0.5442  0.3052
  539MOL0     C72646  11.183   9.855   6.296 -1.0070 -0.3390  0.6290
  539MOL0     N72647  11.201   9.831   6.440  1.1696  0.0892  0.0529
  539MOL0     C72648  11.243   9.725   6.508 -1.0949 -0.0648 -0.2631
  539MOL0     C72649  11.239   9.766   6.637  0.2769 -0.2657 -0.1777
  539MOL0     C72650  11.274   9.674   6.754 -0.2641 -0.5348  1.0748
  539MOL0     C72651  11.400   9.592   6.742  0.3995  0.5476 -0.6513
  539MOL0     C72652  11.428   9.508   6.868 -1.0584 -0.3299  0.1606
  539MOL0     C72653  11.563   9.440   6.874  0.5463  0.1800 -0.2440
  539MOL0     O72654  11.613   9.386   6.758 -0.2073 -0.3478  0.4350
  539MOL0     C72655  11.725   9.302   6.766  0.5191  1.6230 -0.9988
  539MOL0     C72656  11.762   9.228   6.651  0.2573 -0.0405 -0.2513
  539MOL0     C72657  11.886   9.151   6.645 -0.1191 -0.5183  0.1393
  539MOL0     C72658  11.906   9.092   6.505 -0.0043  0.5683  0.1705
  539MOL0     C72659  11.967   9.133   6.760  0.4566 -0.9025  0.9948
  539MOL0     C72660  12.102   9.076   6.759  0.3361 -0.8810 -0.4909
  539MOL0     O72661  12.148   9.040   6.886 -0.0838  0.1711  0.5607
  539MOL0     C72662  12.258   8.963   6.886  0.4894  0.1359  0.7153
  539MOL0     C72663  12.378   9.012   6.843 -0.0442 -0.4570 -0.1278
  539MOL0     C72664  12.498   8.937   6.851 -0.0343  0.3460 -0.6273
  539MOL0     C72665  12.488   8.805   6.892  0.5736  0.1153  0.6325
  539MOL0     O72666  12.588   8.711   6.906  0.5715  0.3053 -0.0202
  539MOL0     C72667  12.713   8.765   6.950 -0.6030 -0.1551  0.4905
  539MOL0     C72668  12.836   8.668   6.933  0.5969 -0.2542 -0.5233
  539MOL0     C72669  12.970   8.729   6.971  0.7344 -0.4701 -0.5252
  539MOL0     C72670  13.075   8.624   6.928  0.5238 -0.4562 -0.2888
  539MOL0     C72671  13.221   8.668   6.886  0.3558 -0.1329 -0.2218
  539MOL0     C72672  13.301   8.550   6.823 -0.0274  0.1618  0.1663
  539MOL0     C72673  13.442   8.602   6.776  0.3735  0.0897 -0.1550
  539MOL0     C72674  13.535   8.502   6.713 -1.0297 -0.5247  0.4957
  539MOL0    Cl72675  13.632   8.589   6.575  0.1941  0.1504  0.4904
  539MOL0     C72676  12.359   8.746   6.909  0.0649  0.0117  0.5420
  539MOL0     C72677  12.249   8.828   6.908 -0.2028  0.3069  0.0307
  539MOL0     O72678  12.157   9.062   6.649  0.1454 -0.0280 -0.9322
  539MOL0     C72679  11.915   9.188   6.877  1.6068  0.3720 -0.5764
  539MOL0     C72680  11.799   9.264   6.879 -0.3194  0.4838  0.1566
  539MOL0     N72681  11.172   9.886   6.649 -0.5238 -0.0964  0.0785
  539MOL0     N72682  11.160   9.929   6.524  0.2692 -0.4045 -0.3257
  539MOL0     C72683  10.299   9.655   6.045 -0.1842 -0.5823  0.2152
  539MOL0     C72684  10.171   9.710   6.084 -0.2906  0.3334 -0.6667
  539MOL0     C72685   9.876   9.964   6.313 -0.1383 -0.2488 -0.2588
  539MOL0     C72686   9.824  10.092   6.282  0.0807  0.8160 -0.0363
  539MOL0     C72687   9.699  10.141   6.318  0.2932  0.4785  0.3855
  539MOL0     C72688   9.611  10.060   6.399  0.2364 -0.4263  0.0114
  539MOL0     O72689   9.496  10.126   6.435  0.3211  0.1312  0.1834
  539MOL0     C72690   9.390  10.051   6.500  0.1025  0.0306 -0.3979
  539MOL0     C72691   9.259  10.130   6.479 -0.3414 -0.1704  0.2514
  539MOL0     C72692   9.254  10.272   6.535  0.6275  0.0884 -0.0198
  539MOL0     C72693   9.111  10.326   6.538 -0.6433  0.1741  0.4672
  539MOL0     C72694   9.093  10.466   6.542 -0.1011 -0.3340  0.3625
  539MOL0     C72695   9.058  10.573   6.564  1.2488  0.1880  0.0867
  539MOL0     C72696   9.658   9.932   6.443  0.7933 -0.9665  0.4210
  539MOL0     C72697   9.792   9.885   6.397  0.6948 -0.0209 -0.7385
  539MOL0     H72698  10.201   9.691   6.413 -2.0536 -3.4054  0.2064
  539MOL0     H72699  10.417   9.570   6.349  1.0436 -1.2770 -0.7955
  539MOL0     H72700  10.560   9.447   6.237 -1.0970 -1.8265  0.3128
  539MOL0     H72701  10.521   9.412   6.062 -0.6863 -0.5129  1.1844
  539MOL0     H72702  10.783   9.398   6.131  1.2066  0.1846 -0.4703
  539MOL0     H72703  10.734   9.482   5.994 -1.9356  0.2114 -0.5342
  539MOL0     H72704  10.720   9.648   6.242  5.9001  4.4339  2.1824
  539MOL0     H72705  10.880   9.586   6.204 -0.2305 -0.6055  1.6858
  539MOL0     H72706  10.732   9.721   5.976 -0.8022 -2.1475  0.2033
  539MOL0     H72707  10.795   9.825   6.098  1.1351 -0.4896  0.4225
  539MOL0     H72708  10.968   9.608   5.985  4.2329  1.2424 -1.0824
  539MOL0     H72709  10.968   9.762   5.903  2.2437 -0.3229 -0.5407
  539MOL0     H72710  11.175   9.732   6.042  1.4014  1.5092  0.9845
  539MOL0     H72711  11.082   9.881   6.050  1.8804 -0.7267 -3.4154
  539MOL0     H72712  10.980   9.766   6.280  0.0797  1.3420 -0.6342
  539MOL0     H72713  11.114   9.659   6.258 -1.1727 -1.2848 -0.0287
  539MOL0     H72714  11.158   9.957   6.267 -0.3069 -0.9536 -2.4931
  539MOL0     H72715  11.281   9.842   6.248 -0.2458  3.4273  0.8368
  539MOL0     H72716  11.273   9.629   6.469  1.8754  0.3775  0.7266
  539MOL0     H72717  11.288   9.735   6.844  0.8654  0.2426  0.4016
  539MOL0     H72718  11.190   9.608   6.776 -1.3993  0.3659 -0.4069
  539MOL0     H72719  11.475   9.670   6.730 -0.0887  0.9389 -1.2442
  539MOL0     H72720  11.406   9.519   6.661 -1.8751 -0.1855 -0.2407
  539MOL0     H72721  11.362   9.421   6.878  0.5955 -1.4426  2.0119
  539MOL0     H72722  11.421   9.575   6.954  0.8237  2.0491 -1.4169
  539MOL0     H72723  11.554   9.360   6.949 -0.8257 -0.0937 -0.6703
  539MOL0     H72724  11.634   9.515   6.910 -1.2868  1.2352  1.3909
  539MOL0     H72725  11.701   9.229   6.561  0.2422  1.0638 -0.2371
  539MOL0     H72726  11.838   9.136   6.431  1.0708 -0.0516 -1.2134
  539MOL0     H72727  11.999   9.104   6.450 -0.5405 -1.2283 -1.2055
  539MOL0     H72728  11.872   8.989   6.512  0.5628  0.4508  1.6970
  539MOL0     H72729  12.385   9.118   6.823 -1.7056 -0.0049  1.4739
  539MOL0     H72730  12.587   8.996   6.832 -0.0558  0.0247 -1.8131
  539MOL0     H72731  12.724   8.859   6.895 -1.6836 -0.6401 -0.6054
  539MOL0     H72732  12.706   8.811   7.049  0.7317  0.8791  0.1296
  539MOL0     H72733  12.808   8.586   6.998  0.8916  0.0193 -0.0458
  539MOL0     H72734  12.842   8.623   6.833 -2.0743 -4.1850  0.8670
  539MOL0     H72735  12.970   8.750   7.078  0.0699  2.3270 -0.9859
  539MOL0     H72736  12.980   8.830   6.929  1.4490  0.1512  1.0586
  539MOL0     H72737  13.086   8.562   7.017 -0.5936  0.6947  0.7025
  539MOL0     H72738  13.036   8.560   6.849  2.2410 -0.0583 -1.4984
  539MOL0     H72739  13.275   8.716   6.968  2.1049  1.4503 -2.1967
  539MOL0     H72740  13.207   8.743   6.808 -1.8482  2.5760  2.5146
  539MOL0     H72741  13.308   8.467   6.894  2.2173 -0.3923 -0.6209
  539MOL0     H72742  13.250   8.511   6.734  1.2715 -1.7834  0.2231
  539MOL0     H72743  13.503   8.641   6.858 -0.5739  3.4613 -0.8901
  539MOL0     H72744  13.418   8.676   6.698 -2.2120  1.5561  1.8711
  539MOL0     H72745  13.476   8.425   6.662  0.3623  1.2638 -4.3584
  539MOL0     H72746  13.600   8.462   6.792  0.0942 -2.3101 -1.2198
  539MOL0     H72747  12.333   8.642   6.930 -1.3074 -0.1268 -1.5006
  539MOL0     H72748  12.154   8.786   6.940  1.1206 -2.2956  0.8643
  539MOL0     H72749  11.972   9.179   6.969 -1.6510  1.8955  1.7993
  539MOL0     H72750  11.773   9.302   6.978  1.8483 -1.8477  1.7403
  539MOL0     H72751  10.344   9.663   5.947  1.2044 -1.7782  0.7178
  539MOL0     H72752  10.100   9.749   6.012  0.1409  0.1915 -1.1740
  539MOL0     H72753   9.886  10.152   6.217  2.1737  2.2165  2.9890
  539MOL0     H72754   9.674  10.245   6.299 -1.0071  0.2651  0.8274
  539MOL0     H72755   9.382   9.947   6.466  1.8972 -0.2003 -0.2129
  539MOL0     H72756   9.412  10.040   6.606 -0.8648  0.5893 -0.1319
  539MOL0     H72757   9.178  10.069   6.518  0.0917  0.1722  1.7671
  539MOL0     H72758   9.258  10.140   6.371  4.0676  0.0311  0.0359
  539MOL0     H72759   9.317  10.336   6.472  1.3325  2.0688  2.5065
  539MOL0     H72760   9.295  10.277   6.637 -0.5446 -0.5256  0.4937
  539MOL0     H72761   9.062  10.291   6.629  0.0985  0.8886  1.1498
  539MOL0     H72762   9.070  10.290   6.443  1.4046  0.1441 -0.4631
  539MOL0     H72763   9.017  10.671   6.580  0.3093 -0.7141  4.4018
  539MOL0     H72764   9.602   9.865   6.508 -1.4670  1.3941  1.0558
  539MOL0     H72765   9.818   9.781   6.415  0.7453 -0.2208 -1.9155
  540MOL0     O72766   3.322   4.996   6.012  0.5157  0.0496  0.3203
  540MOL0     C72767   3.374   5.085   5.950 -1.4363 -0.4277  0.0971
  540MOL0     O72768   3.312   5.203   5.897  0.4635 -0.2070 -0.2179
  540MOL0     C72769   3.176   5.197   5.877  0.7832  0.0292 -0.5197
  540MOL0     C72770   3.129   5.205   5.742  0.1312 -1.1748 -0.6747
  540MOL0     C72771   2.991   5.210   5.715 -0.1611  0.4966  0.4553
  540MOL0     C72772   2.897   5.230   5.815  0.7792  0.4032  0.1531
  540MOL0     O72773   2.768   5.247   5.778 -0.3427  0.3913  0.2121
  540MOL0     C72774   2.662   5.226   5.869 -0.7750 -0.4708 -0.0005
  540MOL0     C72775   2.531   5.245   5.783 -0.2793 -0.9156  0.2024
  540MOL0     C72776   2.484   5.387   5.793  0.3527 -0.2028  0.3052
  540MOL0     C72777   2.341   5.401   5.746 -0.1608 -0.1187 -0.3591
  540MOL0     C72778   2.289   5.551   5.759 -0.5683 -0.0210  0.0258
  540MOL0     C72779   2.338   5.634   5.647 -0.2817 -0.6333  0.2996
  540MOL0     C72780   2.264   5.769   5.650 -0.0899  1.0143 -0.6259
  540MOL0     C72781   2.125   5.775   5.583  0.5833  0.5557  0.1616
  540MOL0     N72782   2.063   5.909   5.601 -0.4362 -0.1876  0.0296
  540MOL0     C72783   2.043   5.982   5.721 -0.3674 -0.6516  0.4303
  540MOL0     C72784   2.010   6.105   5.671  0.0884 -0.1421 -0.1921
  540MOL0     C72785   1.984   6.230   5.739 -0.3571 -0.8255 -0.6994
  540MOL0     C72786   1.832   6.276   5.725 -0.7696 -0.0064  0.3171
  540MOL0     C72787   1.826   6.412   5.783  0.0992 -0.3482 -0.1476
  540MOL0     C72788   1.692   6.478   5.758  0.0585 -0.6060  0.4961
  540MOL0     O72789   1.646   6.461   5.623  0.0028 -0.6537  0.5384
  540MOL0     C72790   1.515   6.495   5.583 -0.2855  0.0688 -0.2266
  540MOL0     C72791   1.447   6.576   5.671  0.4818  0.0149 -0.2252
  540MOL0     C72792   1.323   6.620   5.644  0.0688 -0.2889 -0.3067
  540MOL0     C72793   1.265   6.710   5.757  0.2851  0.2859 -0.6100
  540MOL0     C72794   1.260   6.571   5.527 -0.1289 -1.0315  1.0659
  540MOL0     C72795   1.123   6.605   5.503  0.7009  0.1771 -0.8141
  540MOL0     O72796   1.039   6.497   5.466  0.0495 -0.3128 -0.0094
  540MOL0     C72797   0.903   6.507   5.459 -0.1710  0.3554  0.3943
  540MOL0     C72798   0.842   6.430   5.364  0.1980  0.8423 -0.3295
  540MOL0     C72799   0.699   6.426   5.352  0.2578 -0.0078 -0.4204
  540MOL0     C72800   0.618   6.511   5.438  0.1423 -1.1099  0.1882
  540MOL0     O72801   0.478   6.496   5.422  0.0173  0.2738  0.2044
  540MOL0     C72802   0.395   6.601   5.468 -0.2356 -0.3773  0.1653
  540MOL0     C72803   0.249   6.589   5.432  1.4957  0.3287 -0.1114
  540MOL0     C72804   0.187   6.728   5.440  0.0304 -0.3256 -0.2908
  540MOL0     C72805   0.035   6.740   5.414  0.4305  0.9892  0.2495
  540MOL0     C72806  -0.040   6.635   5.501 -0.0696 -0.5706  0.9547
  540MOL0     C72807  -0.192   6.646   5.481  0.3183 -0.0924 -0.0563
  540MOL0     C72808  -0.274   6.531   5.546 -0.0206  0.2110  0.3471
  540MOL0     C72809  -0.373   6.466   5.445 -0.7716  0.2963 -0.4911
  540MOL0    Cl72810  -0.506   6.594   5.424  0.0595  0.0383 -0.0067
  540MOL0     C72811   0.687   6.594   5.537  0.3802 -0.8195 -0.9086
  540MOL0     C72812   0.822   6.589   5.541  0.2541 -0.7166  0.3644
  540MOL0     O72813   1.079   6.724   5.507  0.1148 -0.0825 -0.1797
  540MOL0     C72814   1.314   6.480   5.443 -0.0473 -0.5792 -0.2251
  540MOL0     C72815   1.450   6.438   5.467 -1.2118  0.0147 -1.0716
  540MOL0     N72816   2.002   6.100   5.535 -0.3645 -0.6886 -0.0545
  540MOL0     N72817   2.030   5.987   5.500 -0.4238  0.1173 -0.0614
  540MOL0     C72818   2.942   5.218   5.949 -0.0068  0.0289 -0.6321
  540MOL0     C72819   3.076   5.191   5.974 -0.1964 -0.1432  0.4471
  540MOL0     C72820   3.518   5.067   5.901 -0.4156  0.9087  0.0399
  540MOL0     C72821   3.574   5.125   5.777 -0.3130  0.4448  0.1394
  540MOL0     C72822   3.709   5.090   5.751 -0.5066 -0.6871  0.2356
  540MOL0     C72823   3.797   5.016   5.834  0.9570 -0.8325  0.1046
  540MOL0     O72824   3.927   4.989   5.809  0.2051 -0.8815 -0.2956
  540MOL0     C72825   3.982   5.008   5.674 -0.0143  1.0385  0.1076
  540MOL0     C72826   4.134   4.981   5.662 -0.3392 -0.3965 -0.7616
  540MOL0     C72827   4.210   5.111   5.696  0.2825 -0.3095  0.3584
  540MOL0     C72828   4.204   5.165   5.844 -0.6760 -0.0892 -0.1575
  540MOL0     C72829   4.217   5.051   5.936 -0.4391  0.2903  0.0655
  540MOL0     C72830   4.222   4.948   6.010  0.3812 -0.1666  0.6104
  540MOL0     C72831   3.745   4.976   5.956  0.2643  0.7714 -0.2716
  540MOL0     C72832   3.612   5.003   5.987 -0.1872  0.1643  0.9642
  540MOL0     H72833   3.207   5.203   5.666 -1.8113 -2.6123 -2.7476
  540MOL0     H72834   2.969   5.233   5.611 -2.6829 -0.4788  0.6973
  540MOL0     H72835   2.669   5.123   5.905 -0.5978 -0.5240 -0.1864
  540MOL0     H72836   2.660   5.284   5.962 -7.5597 -1.3392  0.9560
  540MOL0     H72837   2.561   5.227   5.679  4.1255 -0.0042  1.1361
  540MOL0     H72838   2.451   5.176   5.812 -1.2942  0.5044  0.9379
  540MOL0     H72839   2.500   5.414   5.898  1.2831 -0.6197  0.2803
  540MOL0     H72840   2.553   5.445   5.730 -0.7882 -0.1378 -0.9270
  540MOL0     H72841   2.337   5.370   5.641  0.8410  1.8563 -1.0424
  540MOL0     H72842   2.276   5.341   5.809  1.0694 -1.2766 -0.1379
  540MOL0     H72843   2.182   5.528   5.749 -0.0810 -1.7447 -1.8928
  540MOL0     H72844   2.312   5.584   5.861 -0.2526 -0.9683  0.2799
  540MOL0     H72845   2.446   5.651   5.656 -0.0139 -0.2342 -2.7433
  540MOL0     H72846   2.322   5.590   5.548 -1.8414 -0.6049  0.5156
  540MOL0     H72847   2.235   5.789   5.754 -0.6718 -0.7660 -0.4122
  540MOL0     H72848   2.323   5.852   5.610  0.1441  0.4557 -1.4785
  540MOL0     H72849   2.059   5.714   5.645 -0.8657  2.5741  0.7020
  540MOL0     H72850   2.134   5.742   5.479 -0.0946 -0.8343  0.5179
  540MOL0     H72851   2.079   5.960   5.821  0.8834  2.1554  0.7085
  540MOL0     H72852   2.006   6.209   5.844  1.9327 -2.6737 -1.4586
  540MOL0     H72853   2.051   6.308   5.702 -1.8401  0.9578  0.2035
  540MOL0     H72854   1.778   6.207   5.790 -2.3102  0.5403 -0.3477
  540MOL0     H72855   1.800   6.274   5.621 -0.5435  1.6003  0.1874
  540MOL0     H72856   1.899   6.476   5.732  0.3296 -0.2674  0.2808
  540MOL0     H72857   1.833   6.411   5.892 -2.5030 -2.1375  0.0973
  540MOL0     H72858   1.707   6.586   5.767  1.7187 -0.9093  1.7568
  540MOL0     H72859   1.618   6.441   5.830 -0.2127 -0.4353  0.3082
  540MOL0     H72860   1.496   6.612   5.760  1.4345 -2.2160  0.2151
  540MOL0     H72861   1.292   6.809   5.718  0.2618 -0.4408 -2.5817
  540MOL0     H72862   1.157   6.697   5.754  0.1914  0.2959  1.5125
  540MOL0     H72863   1.309   6.677   5.852 -1.8142 -3.2212 -0.6991
  540MOL0     H72864   0.905   6.360   5.311 -3.2622 -2.6893 -0.2327
  540MOL0     H72865   0.638   6.360   5.292  0.4986 -3.0857  2.4017
  540MOL0     H72866   0.400   6.606   5.577 -1.8358  1.5714  0.2036
  540MOL0     H72867   0.426   6.697   5.426 -1.8233 -0.8392 -2.2967
  540MOL0     H72868   0.232   6.536   5.338 -1.5302 -2.0341  1.5878
  540MOL0     H72869   0.202   6.530   5.510  1.0797  0.4856 -0.2398
  540MOL0     H72870   0.240   6.788   5.367 -0.9141 -0.4055 -1.0653
  540MOL0     H72871   0.215   6.775   5.535  0.9576 -1.5859  0.0810
  540MOL0     H72872  -0.006   6.833   5.456 -1.8327  0.6144 -0.9488
  540MOL0     H72873   0.006   6.722   5.310 -0.5578 -0.7561  0.7833
  540MOL0     H72874  -0.016   6.656   5.606 -1.0428  2.3408  0.6757
  540MOL0     H72875  -0.015   6.535   5.464 -0.1780  0.1481 -1.1947
  540MOL0     H72876  -0.221   6.746   5.513 -0.9066 -1.1223  2.3403
  540MOL0     H72877  -0.216   6.636   5.375  2.2015 -2.3725 -0.3463
  540MOL0     H72878  -0.333   6.580   5.625 -0.4199  1.8200 -0.8929
  540MOL0     H72879  -0.209   6.458   5.596  1.8756  0.2771 -1.8660
  540MOL0     H72880  -0.404   6.366   5.477  0.4869  0.5774  1.7844
  540MOL0     H72881  -0.321   6.449   5.350 -1.9378 -2.6964 -0.7122
  540MOL0     H72882   0.639   6.657   5.610  0.7537 -2.0840  0.4714
  540MOL0     H72883   0.869   6.652   5.616  1.0338  2.5439 -2.5771
  540MOL0     H72884   1.270   6.437   5.353  0.1695  1.0173 -1.1409
  540MOL0     H72885   1.501   6.362   5.409  0.0412  0.2173 -0.2712
  540MOL0     H72886   2.873   5.211   6.033  0.4762  0.8259 -0.1580
  540MOL0     H72887   3.122   5.188   6.072  0.2577  1.5734  0.3250
  540MOL0     H72888   3.513   5.194   5.719 -0.6999  0.2006  0.2475
  540MOL0     H72889   3.753   5.134   5.662 -3.5186 -2.0119 -2.0665
  540MOL0     H72890   3.941   4.937   5.602 -0.0100  0.3328  0.7929
  540MOL0     H72891   3.971   5.106   5.626  0.4211 -0.2076 -2.8140
  540MOL0     H72892   4.157   4.964   5.556  3.3689 -0.0491 -0.1453
  540MOL0     H72893   4.173   4.902   5.726 -1.1285  0.4120  0.7551
  540MOL0     H72894   4.167   5.186   5.628 -0.3581 -0.6005  0.4388
  540MOL0     H72895   4.314   5.096   5.666  0.6193  1.8251  0.2432
  540MOL0     H72896   4.105   5.202   5.873 -1.8376 -0.5591 -3.1696
  540MOL0     H72897   4.276   5.246   5.863 -3.0388  2.5102 -1.4833
  540MOL0     H72898   4.220   4.865   6.077  5.6861 -2.1580 -1.1701
  540MOL0     H72899   3.803   4.915   6.024 -2.8661 -2.9701 -0.6009
  540MOL0     H72900   3.573   4.972   6.083  0.7794  1.2632  1.7317
  541MOL0     O72901   2.272   4.141   6.706  0.3853  0.4490  0.1062
  541MOL0     C72902   2.360   4.225   6.677 -0.1870 -0.5721  0.1120
  541MOL0     O72903   2.335   4.343   6.613  0.5010 -0.2715 -0.5626
  541MOL0     C72904   2.202   4.369   6.589  0.2253 -0.3972  0.1120
  541MOL0     C72905   2.172   4.404   6.455 -0.1083 -0.7760  0.4117
  541MOL0     C72906   2.042   4.432   6.419 -0.5289 -0.5618  0.3283
  541MOL0     C72907   1.935   4.411   6.511  0.3875 -0.0543  0.5878
  541MOL0     O72908   1.800   4.424   6.481  0.0790  0.1321  0.1108
  541MOL0     C72909   1.753   4.532   6.388 -0.3371  0.1709  0.4311
  541MOL0     C72910   1.615   4.580   6.415  0.3929 -0.3179 -0.5269
  541MOL0     C72911   1.599   4.619   6.564 -0.7253 -0.7522  0.1972
  541MOL0     C72912   1.444   4.639   6.596 -0.0520 -0.2282 -0.5167
  541MOL0     C72913   1.416   4.701   6.736  0.6644  0.6639 -0.1016
  541MOL0     C72914   1.267   4.685   6.774  0.6807 -0.3497  0.3686
  541MOL0     C72915   1.170   4.793   6.701 -0.4677 -0.3733 -0.2482
  541MOL0     C72916   1.025   4.767   6.744 -0.8004 -0.5075  0.2658
  541MOL0     N72917   0.936   4.834   6.659 -0.2161  0.7119  0.0032
  541MOL0     C72918   0.871   4.769   6.559  0.4523 -0.1563 -0.4373
  541MOL0     C72919   0.807   4.866   6.503  0.4388  0.8467  0.8247
  541MOL0     C72920   0.735   4.827   6.378  0.4542  0.2164 -0.4581
  541MOL0     C72921   0.584   4.831   6.402  0.5544  0.3177 -0.5302
  541MOL0     C72922   0.534   4.753   6.524 -0.0501 -0.0119  0.7960
  541MOL0     C72923   0.383   4.766   6.550  0.4858  0.1633  0.5260
  541MOL0     O72924   0.354   4.685   6.664 -0.1098  0.1534 -0.6263
  541MOL0     C72925   0.225   4.651   6.695 -0.4830 -0.5044 -0.0303
  541MOL0     C72926   0.120   4.737   6.672 -0.3284 -0.2902  0.1603
  541MOL0     C72927  -0.006   4.691   6.682 -0.5636  0.2877 -0.3893
  541MOL0     C72928  -0.124   4.769   6.635 -1.0892  0.4555  0.9512
  541MOL0     C72929  -0.028   4.560   6.738  0.6448  0.3955 -0.2205
  541MOL0     C72930  -0.163   4.512   6.772 -0.2769 -0.8312  0.5238
  541MOL0     O72931  -0.199   4.528   6.902 -0.4749 -0.0890  0.2630
  541MOL0     C72932  -0.327   4.499   6.932 -0.2677  0.0622  0.1352
  541MOL0     C72933  -0.340   4.425   7.049 -0.2331 -0.0242  0.6812
  541MOL0     C72934  -0.477   4.384   7.086 -1.0236  0.8955  0.1151
  541MOL0     C72935  -0.590   4.452   7.027  0.2332  0.6450  0.0678
  541MOL0     O72936  -0.721   4.437   7.070  0.6681  0.5447 -0.0874
  541MOL0     C72937  -0.758   4.344   7.171 -0.5435 -0.5485  0.3592
  541MOL0     C72938  -0.760   4.196   7.126 -0.0964  0.1502 -1.1704
  541MOL0     C72939  -0.873   4.149   7.040 -0.5725  0.7284  0.3042
  541MOL0     C72940  -0.844   4.013   6.962 -0.5055 -0.3208  0.5602
  541MOL0     C72941  -0.931   3.990   6.838 -0.6175 -0.4780 -0.2715
  541MOL0     C72942  -1.084   3.979   6.880 -0.6945 -0.3315  0.1091
  541MOL0     C72943  -1.171   3.975   6.751  0.2783 -0.5732 -0.4460
  541MOL0     C72944  -1.321   3.954   6.796 -0.1716  0.6084 -0.3582
  541MOL0    Cl72945  -1.404   3.875   6.664  0.3705  0.0267  0.3429
  541MOL0     C72946  -0.566   4.548   6.932 -0.5632 -0.2272  0.3063
  541MOL0     C72947  -0.430   4.570   6.884  0.4003 -0.0215  0.2022
  541MOL0     O72948  -0.237   4.472   6.686 -0.3349  0.3270  0.1610
  541MOL0     C72949   0.078   4.475   6.770 -0.0284  0.0438 -0.5338
  541MOL0     C72950   0.206   4.519   6.724 -0.0535  0.2668 -0.1836
  541MOL0     N72951   0.827   4.991   6.553 -0.3822 -0.7649  0.0883
  541MOL0     N72952   0.907   4.971   6.658  1.3882  0.7564  0.1615
  541MOL0     C72953   1.972   4.384   6.644  0.3695 -0.8705 -0.5908
  541MOL0     C72954   2.105   4.377   6.688  0.1767  0.2286 -0.4752
  541MOL0     C72955   2.507   4.205   6.703 -0.0761 -0.8046  0.6822
  541MOL0     C72956   2.601   4.269   6.621 -0.0119  0.7433 -0.0450
  541MOL0     C72957   2.735   4.228   6.617  0.4566  0.2887 -0.5005
  541MOL0     C72958   2.792   4.146   6.709  0.8490 -1.2238 -0.5605
  541MOL0     O72959   2.928   4.126   6.726 -0.4171 -0.1674 -0.4749
  541MOL0     C72960   3.025   4.169   6.640  0.1591  0.2106 -0.3345
  541MOL0     C72961   3.043   4.065   6.524 -0.5725 -0.1862 -0.7552
  541MOL0     C72962   3.070   3.914   6.573  0.6397 -0.1289  1.2057
  541MOL0     C72963   3.073   3.822   6.449 -0.0433  0.0472 -0.1354
  541MOL0     C72964   2.940   3.794   6.392  0.0616  0.8563 -1.3202
  541MOL0     C72965   2.829   3.766   6.362  0.3229  0.3443  0.3544
  541MOL0     C72966   2.706   4.085   6.806  1.4413 -0.3209  0.1099
  541MOL0     C72967   2.563   4.119   6.801  0.8465  1.0260  0.0976
  541MOL0     H72968   2.254   4.397   6.385  2.4049  1.5666  2.8853
  541MOL0     H72969   2.019   4.465   6.318 -2.2972  0.8743  1.1372
  541MOL0     H72970   1.822   4.617   6.396  0.5292 -0.4249 -0.3806
  541MOL0     H72971   1.761   4.495   6.285 -0.1019  0.8835  0.1904
  541MOL0     H72972   1.593   4.668   6.353  1.0503  3.2898  3.8339
  541MOL0     H72973   1.545   4.498   6.397 -0.4085 -0.3253  2.2141
  541MOL0     H72974   1.645   4.544   6.630  0.5635 -1.0532 -0.9868
  541MOL0     H72975   1.649   4.716   6.571 -1.8287 -0.1184 -0.4727
  541MOL0     H72976   1.401   4.698   6.516 -2.0767  0.6678  1.1328
  541MOL0     H72977   1.403   4.538   6.599 -1.8857  0.4763 -0.6585
  541MOL0     H72978   1.484   4.647   6.803 -0.2013  1.1617  1.2256
  541MOL0     H72979   1.446   4.806   6.726  2.1864  0.3349  0.6432
  541MOL0     H72980   1.245   4.581   6.750  1.2045  0.2558 -3.2849
  541MOL0     H72981   1.249   4.699   6.881 -0.5495  2.0816 -0.0801
  541MOL0     H72982   1.197   4.896   6.728 -0.3539 -1.0631  2.5840
  541MOL0     H72983   1.174   4.786   6.592  0.0385 -2.7063 -0.1262
  541MOL0     H72984   1.014   4.805   6.846  0.5375  1.5856 -0.3047
  541MOL0     H72985   1.008   4.659   6.757  0.4065 -0.7845 -0.2669
  541MOL0     H72986   0.868   4.666   6.524 -1.4391 -0.3755  0.2967
  541MOL0     H72987   0.754   4.907   6.306 -0.5095  0.1403 -0.8134
  541MOL0     H72988   0.767   4.733   6.332 -3.7175 -2.0269  0.7052
  541MOL0     H72989   0.533   4.783   6.318  2.0870  0.8923 -1.8419
  541MOL0     H72990   0.558   4.937   6.406  1.6605  0.7141 -2.4389
  541MOL0     H72991   0.586   4.789   6.613  0.6987 -0.2957  0.4819
  541MOL0     H72992   0.554   4.648   6.504 -0.4637  0.3325 -1.7236
  541MOL0     H72993   0.323   4.735   6.463  1.5649  0.9257 -0.5229
  541MOL0     H72994   0.348   4.869   6.563 -0.4786  0.1282 -1.3991
  541MOL0     H72995   0.131   4.842   6.649  0.0696  0.2656  2.6102
  541MOL0     H72996  -0.084   4.831   6.554 -0.9842 -2.3477 -1.3112
  541MOL0     H72997  -0.192   4.697   6.590  0.3569 -0.6932  0.4983
  541MOL0     H72998  -0.160   4.828   6.720  1.0287  2.1769  0.7320
  541MOL0     H72999  -0.257   4.367   7.087 -0.0504 -1.3930 -1.5977
  541MOL0     H73000  -0.484   4.305   7.161 -1.4541  0.9421  0.1310
  541MOL0     H73001  -0.689   4.370   7.252  0.6480  0.2891 -0.8563
  541MOL0     H73002  -0.862   4.362   7.198 -0.2361 -0.3310  1.4691
  541MOL0     H73003  -0.667   4.168   7.076  1.8028  4.5916 -0.6290
  541MOL0     H73004  -0.752   4.142   7.221  1.4709 -0.9380 -1.8822
  541MOL0     H73005  -0.880   4.233   6.970  1.2630 -0.3964 -1.3502
  541MOL0     H73006  -0.962   4.136   7.103  0.9852  0.5385  2.5753
  541MOL0     H73007  -0.748   4.028   6.911 -1.7567  0.7801 -1.6085
  541MOL0     H73008  -0.836   3.920   7.018  2.2695 -0.3774  0.2270
  541MOL0     H73009  -0.893   3.897   6.792 -1.7391  0.1366 -2.6130
  541MOL0     H73010  -0.925   4.067   6.760 -1.1650 -0.7840 -0.6221
  541MOL0     H73011  -1.104   3.884   6.931 -2.1467 -0.1919 -0.1564
  541MOL0     H73012  -1.113   4.063   6.944 -2.8583 -1.5836  0.9081
  541MOL0     H73013  -1.138   3.892   6.687  0.4044 -0.4734 -0.5086
  541MOL0     H73014  -1.160   4.070   6.699 -0.5467 -0.1598  0.1168
  541MOL0     H73015  -1.366   4.047   6.831  1.8584  1.5055 -0.0651
  541MOL0     H73016  -1.325   3.881   6.878  0.4411  1.0036  0.0282
  541MOL0     H73017  -0.645   4.611   6.892  0.0541 -0.0132 -0.6242
  541MOL0     H73018  -0.410   4.656   6.822 -0.2911 -0.5087 -0.7217
  541MOL0     H73019   0.060   4.373   6.801 -3.0358  0.7609  0.3776
  541MOL0     H73020   0.288   4.449   6.710 -1.5661 -1.1476 -2.8283
  541MOL0     H73021   1.894   4.395   6.719  1.7391 -1.8725  1.0315
  541MOL0     H73022   2.144   4.371   6.789 -0.7155  2.1111  0.0322
  541MOL0     H73023   2.576   4.334   6.538 -1.2117 -0.0393 -0.3186
  541MOL0     H73024   2.793   4.281   6.542  0.4548 -0.2050 -0.8482
  541MOL0     H73025   3.006   4.268   6.597 -2.5495  0.3390  0.9594
  541MOL0     H73026   3.117   4.182   6.698  0.1994 -0.5746 -0.2113
  541MOL0     H73027   3.125   4.111   6.468 -0.8789  0.4830 -0.6653
  541MOL0     H73028   2.950   4.063   6.467 -0.1862  3.5197 -1.7617
  541MOL0     H73029   2.985   3.880   6.633 -0.3618  0.3097  0.0709
  541MOL0     H73030   3.165   3.908   6.626  2.6283  0.9925 -1.9682
  541MOL0     H73031   3.113   3.725   6.480 -0.8350 -0.7490 -1.4967
  541MOL0     H73032   3.137   3.859   6.368 -1.0262  1.0350 -0.4912
  541MOL0     H73033   2.729   3.747   6.327  0.2579 -1.1899  1.2658
  541MOL0     H73034   2.750   4.020   6.881 -0.3819 -1.7537  0.0306
  541MOL0     H73035   2.494   4.080   6.875 -1.0070  0.8134 -1.6647
  542MOL0     O73036   1.571  10.376   4.782 -0.2847 -0.5897  0.1558
  542MOL0     C73037   1.614  10.470   4.713  0.0425  0.7983  0.2502
  542MOL0     O73038   1.553  10.590   4.699 -0.3778 -0.2172 -0.1316
  542MOL0     C73039   1.449  10.627   4.781 -0.6654 -0.1707 -0.2480
  542MOL0     C73040   1.327  10.567   4.774  0.3783 -0.7838 -0.0161
  542MOL0     C73041   1.224  10.611   4.849 -0.6169  0.2920 -0.5182
  542MOL0     C73042   1.247  10.699   4.963  0.5922  0.4141 -0.5362
  542MOL0     O73043   1.145  10.739   5.042 -0.4689  0.0660 -0.4254
  542MOL0     C73044   1.021  10.668   5.047 -0.7925 -0.1774 -0.3531
  542MOL0     C73045   0.927  10.754   5.120 -0.0420 -0.0878  0.0769
  542MOL0     C73046   0.787  10.686   5.163 -0.4062  0.0585  0.2253
  542MOL0     C73047   0.671  10.786   5.142 -0.7847 -0.0206  0.3843
  542MOL0     C73048   0.537  10.720   5.169  0.0386 -0.0861 -0.1903
  542MOL0     C73049   0.427  10.819   5.116 -0.1476 -0.5148  0.0941
  542MOL0     C73050   0.283  10.786   5.162  0.5938  0.6994  0.6121
  542MOL0     C73051   0.190  10.899   5.100  0.1136 -0.0395 -0.3549
  542MOL0     N73052   0.041  10.859   5.113 -0.1344  0.3219  0.3783
  542MOL0     C73053  -0.014  10.745   5.054 -0.9753 -0.1865  0.3868
  542MOL0     C73054  -0.145  10.744   5.091  0.5570 -0.2109 -0.2116
  542MOL0     C73055  -0.247  10.641   5.079  0.6256 -0.8857 -0.6410
  542MOL0     C73056  -0.326  10.657   4.947  0.1533 -0.8033 -0.6713
  542MOL0     C73057  -0.442  10.564   4.942 -0.1905 -0.5692 -0.7329
  542MOL0     C73058  -0.467  10.502   4.807  0.4455  0.0827 -0.3719
  542MOL0     O73059  -0.503  10.597   4.706 -1.0719 -0.4798 -0.3716
  542MOL0     C73060  -0.631  10.646   4.702  0.7616  0.0631  1.2138
  542MOL0     C73061  -0.744  10.564   4.691  0.4584 -1.5087 -0.1033
  542MOL0     C73062  -0.875  10.621   4.671  0.1769 -0.0011 -0.6332
  542MOL0     C73063  -0.976  10.519   4.626  0.5354  1.1774  0.3703
  542MOL0     C73064  -0.899  10.766   4.659 -0.0543  1.1632 -0.2806
  542MOL0     C73065  -1.025  10.835   4.645  0.6964 -0.6022 -0.1451
  542MOL0     O73066  -1.138  10.765   4.611  0.1270  0.3518 -0.1836
  542MOL0     C73067  -1.258  10.815   4.637 -0.6373 -0.6673  0.1225
  542MOL0     C73068  -1.341  10.894   4.549  0.5868 -0.1684 -0.0507
  542MOL0     C73069  -1.468  10.924   4.586 -0.4344 -0.6350 -1.3599
  542MOL0     C73070  -1.514  10.890   4.718 -0.6076  0.0927 -0.4243
  542MOL0     O73071  -1.645  10.926   4.748  0.2429  0.0934  1.2021
  542MOL0     C73072  -1.748  10.884   4.657 -0.4130  0.2577 -0.1907
  542MOL0     C73073  -1.889  10.905   4.722  0.1224  0.2471 -0.5366
  542MOL0     C73074  -1.999  10.853   4.620 -0.0207 -0.2105  0.2226
  542MOL0     C73075  -2.147  10.829   4.678 -0.0105  0.4844 -0.1997
  542MOL0     C73076  -2.248  10.795   4.572  0.3083  0.6307 -0.3340
  542MOL0     C73077  -2.382  10.753   4.642  0.1775  0.7904  0.6297
  542MOL0     C73078  -2.488  10.769   4.534  0.0072  0.7503 -0.0333
  542MOL0     C73079  -2.473  10.664   4.422 -0.2878 -0.2150  0.3018
  542MOL0    Cl73080  -2.619  10.647   4.323  0.1452 -0.2426  0.0857
  542MOL0     C73081  -1.429  10.823   4.810  0.3228 -0.4236 -0.1878
  542MOL0     C73082  -1.308  10.785   4.765 -0.7393 -0.8534  0.2437
  542MOL0     O73083  -1.020  10.955   4.659 -0.8597  0.2748  0.0350
  542MOL0     C73084  -0.784  10.844   4.668  0.2189 -0.7776  0.2057
  542MOL0     C73085  -0.657  10.791   4.689  0.3955  0.0998  0.7227
  542MOL0     N73086  -0.171  10.857   5.163  0.3999 -0.3997  0.1338
  542MOL0     N73087  -0.054  10.925   5.179  0.1614  1.1155  0.1145
  542MOL0     C73088   1.367  10.765   4.972 -0.0903  0.6984 -0.0002
  542MOL0     C73089   1.468  10.726   4.877  0.1872 -0.3676 -0.2976
  542MOL0     C73090   1.736  10.442   4.640 -0.4941 -0.3732 -0.4446
  542MOL0     C73091   1.795  10.311   4.635  0.3900  0.2611  0.6226
  542MOL0     C73092   1.915  10.287   4.563  0.2751 -0.1510 -0.2016
  542MOL0     C73093   1.982  10.386   4.499 -0.0157 -0.3702  0.0484
  542MOL0     O73094   2.107  10.349   4.452 -0.8220  0.4485  0.3222
  542MOL0     C73095   2.169  10.427   4.348  0.0166  0.0638 -0.4476
  542MOL0     C73096   2.276  10.352   4.271 -0.1865  0.0106  0.6915
  542MOL0     C73097   2.406  10.319   4.344 -0.2278  0.3449 -0.8554
  542MOL0     C73098   2.510  10.253   4.259 -0.0161 -0.1987  0.6950
  542MOL0     C73099   2.559  10.330   4.140  0.6733  0.4989  0.1486
  542MOL0     C73100   2.582  10.402   4.041 -0.7350 -0.0311  0.8272
  542MOL0     C73101   1.938  10.520   4.512 -0.4161 -0.0689 -0.4460
  542MOL0     C73102   1.812  10.540   4.574 -0.2065 -0.8478  0.0814
  542MOL0     H73103   1.306  10.497   4.693 -3.4287 -0.3125  0.3798
  542MOL0     H73104   1.130  10.557   4.846 -0.2589 -0.4837  1.0049
  542MOL0     H73105   0.982  10.651   4.946 -0.1901  0.4276 -0.7038
  542MOL0     H73106   1.028  10.573   5.100 -0.8684  0.7428  1.3786
  542MOL0     H73107   0.977  10.780   5.214 -3.1961 -1.6417  2.3490
  542MOL0     H73108   0.918  10.845   5.059  1.1510  1.8943  2.6702
  542MOL0     H73109   0.770  10.601   5.095  1.3537 -0.1110 -0.0698
  542MOL0     H73110   0.797  10.647   5.265 -2.2269 -2.4838 -0.4597
  542MOL0     H73111   0.697  10.873   5.204  0.5971  0.9026 -1.3843
  542MOL0     H73112   0.670  10.813   5.036 -0.1007  0.9119  0.6015
  542MOL0     H73113   0.541  10.625   5.116  3.9028 -0.0048 -0.3116
  542MOL0     H73114   0.521  10.690   5.274 -0.3217 -1.2861 -0.5729
  542MOL0     H73115   0.449  10.920   5.151  0.0186 -1.2820  2.4229
  542MOL0     H73116   0.429  10.825   5.007 -1.2389  1.0137  0.1303
  542MOL0     H73117   0.254  10.685   5.131  1.6703  0.4769  0.3004
  542MOL0     H73118   0.275  10.789   5.271  0.6391  0.6747  0.6160
  542MOL0     H73119   0.225  10.930   5.002  2.2299  2.7168  1.1266
  542MOL0     H73120   0.202  10.992   5.156 -1.5782 -0.2477  0.4207
  542MOL0     H73121   0.038  10.670   4.995  0.0653  1.6083 -1.0913
  542MOL0     H73122  -0.184  10.552   5.089  2.4932  0.5245  1.1196
  542MOL0     H73123  -0.303  10.654   5.172  1.8747 -4.4124  0.7790
  542MOL0     H73124  -0.269  10.631   4.857 -1.1708  0.1899 -1.8543
  542MOL0     H73125  -0.355  10.761   4.927  0.3159 -0.6693 -0.2286
  542MOL0     H73126  -0.529  10.627   4.963  1.1639  1.2244 -0.3356
  542MOL0     H73127  -0.431  10.482   5.014 -1.3116 -0.5853 -0.5519
  542MOL0     H73128  -0.545  10.426   4.816  3.4918 -3.1370  0.8757
  542MOL0     H73129  -0.382  10.442   4.776  1.3117  0.0631  1.8905
  542MOL0     H73130  -0.741  10.456   4.681  1.0462 -1.3443 -2.4962
  542MOL0     H73131  -1.002  10.541   4.522  0.0999 -1.2073 -0.0922
  542MOL0     H73132  -0.936  10.417   4.632 -0.6825  0.7698  3.6953
  542MOL0     H73133  -1.061  10.530   4.693 -0.7515  0.5933 -1.1114
  542MOL0     H73134  -1.308  10.911   4.447  1.3908 -0.2324  0.1882
  542MOL0     H73135  -1.544  10.977   4.529 -0.4616  2.3693  1.2252
  542MOL0     H73136  -1.739  10.943   4.565 -0.3945  1.3981  0.5214
  542MOL0     H73137  -1.731  10.778   4.636 -1.1955 -0.2387  1.4820
  542MOL0     H73138  -1.897  10.836   4.807 -2.7559  0.5867 -0.4120
  542MOL0     H73139  -1.900  11.008   4.756 -0.2964  0.2283 -0.6097
  542MOL0     H73140  -1.974  10.754   4.582  0.3161  0.0505 -0.2340
  542MOL0     H73141  -2.001  10.917   4.531 -1.6597  1.0111  1.0689
  542MOL0     H73142  -2.142  10.751   4.754  0.7389  1.0684  0.3728
  542MOL0     H73143  -2.175  10.922   4.729 -2.7539  0.1680 -0.9618
  542MOL0     H73144  -2.225  10.722   4.494 -2.1177 -0.1658 -0.3664
  542MOL0     H73145  -2.257  10.883   4.508 -1.1328  1.2693  0.6976
  542MOL0     H73146  -2.372  10.653   4.685  1.8652  0.5474 -0.2498
  542MOL0     H73147  -2.403  10.828   4.718 -2.2627  1.4557 -0.6036
  542MOL0     H73148  -2.485  10.871   4.494  0.4841 -0.4618 -3.4278
  542MOL0     H73149  -2.579  10.754   4.593  0.9995  0.8180  1.5633
  542MOL0     H73150  -2.436  10.568   4.460  0.6231 -0.6732 -1.6254
  542MOL0     H73151  -2.397  10.698   4.350 -0.3472 -0.7327 -0.0044
  542MOL0     H73152  -1.474  10.798   4.905 -2.7205  2.0322 -0.8299
  542MOL0     H73153  -1.247  10.713   4.819  1.2958 -0.8366 -1.8715
  542MOL0     H73154  -0.789  10.953   4.668 -0.1600 -0.7625 -1.5195
  542MOL0     H73155  -0.576  10.863   4.695 -0.7867  1.4519  0.8890
  542MOL0     H73156   1.387  10.845   5.043 -2.0201  0.8387  0.4527
  542MOL0     H73157   1.566  10.773   4.879 -0.6750  1.6133 -1.5330
  542MOL0     H73158   1.742  10.227   4.680 -1.1485  1.3208  0.8511
  542MOL0     H73159   1.973  10.196   4.562  0.4590 -0.0447 -1.4149
  542MOL0     H73160   2.095  10.459   4.274  1.4932  0.2788 -1.8987
  542MOL0     H73161   2.212  10.513   4.400 -1.9330 -0.3716  2.0672
  542MOL0     H73162   2.305  10.402   4.178  1.1318 -1.1954  0.4171
  542MOL0     H73163   2.218  10.266   4.237 -2.0425  1.1048  0.9501
  542MOL0     H73164   2.376  10.246   4.421 -0.0549  0.9092 -0.2482
  542MOL0     H73165   2.455  10.406   4.388 -0.0939 -0.0619 -0.1852
  542MOL0     H73166   2.465  10.163   4.217  2.9497 -0.1917 -2.9922
  542MOL0     H73167   2.599  10.224   4.316 -0.9239  0.0691  2.3331
  542MOL0     H73168   2.601  10.465   3.956 -0.6421 -0.8073  0.2536
  542MOL0     H73169   2.000  10.592   4.459 -1.0491 -1.2424 -2.9623
  542MOL0     H73170   1.781  10.644   4.572  0.0148 -0.7931 -0.9256
  543MOL0     O73171   0.838   4.201   6.373  1.1078 -0.7100  1.1424
  543MOL0     C73172   0.804   4.316   6.334 -0.6050  0.0286  0.2223
  543MOL0     O73173   0.895   4.405   6.294  0.0678  0.4737  0.7651
  543MOL0     C73174   1.025   4.370   6.254  0.4716  0.5866 -0.7673
  543MOL0     C73175   1.051   4.322   6.128 -0.6679 -0.0109 -0.0968
  543MOL0     C73176   1.184   4.308   6.079 -0.2499  0.0086  0.3464
  543MOL0     C73177   1.289   4.339   6.162  0.5621 -0.0493  0.5631
  543MOL0     O73178   1.417   4.313   6.139  0.2303 -0.3088  0.2915
  543MOL0     C73179   1.469   4.264   6.011  0.4395 -0.9027 -0.5137
  543MOL0     C73180   1.619   4.244   6.026 -0.4915 -0.1540 -0.4001
  543MOL0     C73181   1.662   4.111   6.091  0.3865 -0.1940 -0.3204
  543MOL0     C73182   1.814   4.115   6.123  0.5187 -0.4064 -1.1712
  543MOL0     C73183   1.865   3.977   6.163  0.6298  0.2882  0.5074
  543MOL0     C73184   1.830   3.943   6.316  0.3921 -0.1451 -0.3498
  543MOL0     C73185   1.888   4.050   6.414  0.4221  0.0316 -0.6560
  543MOL0     C73186   1.850   4.010   6.560 -0.2653  0.4247 -0.5890
  543MOL0     N73187   1.706   4.011   6.586  0.1150  1.5572  0.1052
  543MOL0     C73188   1.640   4.118   6.638  0.3513  0.4471  0.5897
  543MOL0     C73189   1.526   4.066   6.690 -0.2011 -0.2094 -0.3912
  543MOL0     C73190   1.427   4.135   6.787 -0.4436  0.8472  0.0939
  543MOL0     C73191   1.293   4.130   6.712  0.7965 -0.2767  0.0373
  543MOL0     C73192   1.190   4.233   6.759  0.5587 -0.3558 -0.2415
  543MOL0     C73193   1.044   4.190   6.743  0.0507  0.1226  0.0048
  543MOL0     O73194   0.952   4.294   6.783 -0.0591  1.0113  0.0646
  543MOL0     C73195   0.822   4.256   6.815  0.3729 -0.2202 -0.2661
  543MOL0     C73196   0.757   4.353   6.895  1.2085 -0.2322 -0.1706
  543MOL0     C73197   0.616   4.350   6.912 -0.4296  0.0634  0.7235
  543MOL0     C73198   0.564   4.471   6.978  0.2614 -0.4047  0.2621
  543MOL0     C73199   0.539   4.247   6.858 -0.7260  0.2087  0.4494
  543MOL0     C73200   0.397   4.228   6.899 -0.4082 -0.1139  0.1099
  543MOL0     O73201   0.357   4.272   7.027  0.3722  0.2494  0.6584
  543MOL0     C73202   0.225   4.270   7.063  0.1956 -0.1795  0.0947
  543MOL0     C73203   0.169   4.377   7.133  0.2125  0.1320  0.5088
  543MOL0     C73204   0.051   4.364   7.207 -0.2366 -0.1291  0.9393
  543MOL0     C73205  -0.024   4.249   7.194 -0.2354  0.5019 -0.0717
  543MOL0     O73206  -0.154   4.231   7.249 -0.8831  0.6586  0.3897
  543MOL0     C73207  -0.191   4.323   7.351 -0.2632 -0.0224  0.3551
  543MOL0     C73208  -0.316   4.274   7.426  0.2907  0.3051  0.2747
  543MOL0     C73209  -0.272   4.145   7.500  0.7009 -0.2930 -0.5457
  543MOL0     C73210  -0.362   4.121   7.622 -0.9954 -0.3058 -0.1363
  543MOL0     C73211  -0.306   4.007   7.709 -0.6789  0.1320 -0.7346
  543MOL0     C73212  -0.400   3.962   7.822  0.0708 -0.2712  0.1609
  543MOL0     C73213  -0.420   4.078   7.928 -0.6692 -0.6541 -0.3285
  543MOL0     C73214  -0.523   4.027   8.030  0.1027  0.2681  0.1947
  543MOL0    Cl73215  -0.683   4.000   7.954 -0.1465  0.0605  0.4145
  543MOL0     C73216   0.032   4.144   7.130  0.3321 -0.6925  0.3024
  543MOL0     C73217   0.147   4.149   7.057  0.2819  0.1284 -0.6849
  543MOL0     O73218   0.322   4.184   6.812 -0.9866  0.1513  0.8369
  543MOL0     C73219   0.606   4.149   6.777 -0.1861  0.0282 -0.3460
  543MOL0     C73220   0.744   4.150   6.768 -0.0985 -0.5691 -0.4689
  543MOL0     N73221   1.518   3.934   6.646  0.4672 -0.3062 -0.7426
  543MOL0     N73222   1.635   3.897   6.608  0.9670 -0.2246  0.1560
  543MOL0     C73223   1.262   4.384   6.288  0.3384 -0.7473 -0.3228
  543MOL0     C73224   1.130   4.402   6.337 -0.4604 -0.0167  0.1210
  543MOL0     C73225   0.661   4.355   6.349 -0.6464  0.7135 -0.6847
  543MOL0     C73226   0.590   4.288   6.450  0.4934 -0.3157 -0.5356
  543MOL0     C73227   0.457   4.325   6.474 -0.3899 -0.5761  0.2727
  543MOL0     C73228   0.395   4.430   6.390  0.7134 -0.2806 -0.4203
  543MOL0     O73229   0.265   4.467   6.423 -0.3258  0.6129 -0.0044
  543MOL0     C73230   0.164   4.389   6.366  0.3734 -0.2761 -0.8258
  543MOL0     C73231   0.032   4.470   6.352  0.0929 -0.6384 -0.6239
  543MOL0     C73232   0.037   4.577   6.251  0.4585 -0.9192 -0.2248
  543MOL0     C73233  -0.082   4.679   6.256 -0.2589 -0.0379 -0.4217
  543MOL0     C73234  -0.208   4.616   6.308 -0.2461  0.2161  0.9027
  543MOL0     C73235  -0.311   4.565   6.346 -0.5145 -0.4270  0.1809
  543MOL0     C73236   0.473   4.486   6.284 -0.1754  0.9185  0.6494
  543MOL0     C73237   0.602   4.450   6.264  0.7824 -0.6087  0.6521
  543MOL0     H73238   0.980   4.299   6.048  2.0359 -0.0510 -2.6675
  543MOL0     H73239   1.201   4.279   5.976 -0.6882 -0.5253  0.4165
  543MOL0     H73240   1.418   4.174   5.976  2.8961 -1.1353 -4.0418
  543MOL0     H73241   1.445   4.336   5.932  0.1234 -0.0376  0.3483
  543MOL0     H73242   1.659   4.243   5.924 -1.3902  0.0234 -0.7652
  543MOL0     H73243   1.662   4.319   6.093  0.9126 -0.6093 -0.7423
  543MOL0     H73244   1.606   4.102   6.185  0.9009  0.8570  0.0999
  543MOL0     H73245   1.628   4.025   6.033  2.0072 -2.4673  1.8865
  543MOL0     H73246   1.862   4.145   6.029  2.7077  0.7511  0.2272
  543MOL0     H73247   1.825   4.197   6.193  1.2290 -0.7390 -0.8812
  543MOL0     H73248   1.823   3.896   6.102  1.2911 -0.3349  0.8571
  543MOL0     H73249   1.974   3.972   6.155  0.4608 -0.6761 -2.2860
  543MOL0     H73250   1.721   3.942   6.320  0.4090  0.6933  2.1078
  543MOL0     H73251   1.861   3.840   6.333  1.6037 -0.4336 -3.6494
  543MOL0     H73252   1.997   4.054   6.415  0.3902  3.6971 -0.1595
  543MOL0     H73253   1.857   4.152   6.388 -1.5283 -0.6665 -1.2706
  543MOL0     H73254   1.897   4.076   6.633 -2.0237  2.4839 -1.2475
  543MOL0     H73255   1.896   3.911   6.569  2.2754  1.6763  1.9869
  543MOL0     H73256   1.670   4.222   6.634  2.1389 -0.0608 -0.1755
  543MOL0     H73257   1.434   4.073   6.877 -0.0429 -1.5091 -1.4681
  543MOL0     H73258   1.468   4.236   6.798 -1.0298  1.2038 -0.8764
  543MOL0     H73259   1.244   4.033   6.719  0.5686 -0.1349  0.4068
  543MOL0     H73260   1.322   4.146   6.608  3.7143 -3.8756  0.0837
  543MOL0     H73261   1.211   4.332   6.717 -1.7699 -0.6130 -2.2596
  543MOL0     H73262   1.206   4.251   6.866  0.2556  0.9991 -0.4017
  543MOL0     H73263   1.009   4.109   6.808 -2.9172  2.3324  1.3930
  543MOL0     H73264   1.025   4.157   6.640 -0.0105 -0.0834  0.0804
  543MOL0     H73265   0.806   4.446   6.921  0.2006  0.4025 -0.4869
  543MOL0     H73266   0.622   4.560   6.952 -0.5276  0.3336  0.9468
  543MOL0     H73267   0.464   4.495   6.941  0.8112  1.2040 -0.2726
  543MOL0     H73268   0.557   4.457   7.086  0.1988  0.9600  0.4447
  543MOL0     H73269   0.230   4.467   7.142 -0.2365  1.0983 -3.8514
  543MOL0     H73270   0.015   4.457   7.251 -0.7914  0.5603 -0.8623
  543MOL0     H73271  -0.108   4.319   7.422 -0.0877 -2.0930  0.0922
  543MOL0     H73272  -0.210   4.426   7.316 -2.3840 -0.4585  0.0927
  543MOL0     H73273  -0.341   4.348   7.503 -1.4609  0.7635 -0.6907
  543MOL0     H73274  -0.404   4.255   7.364  0.0824  0.2659  0.5814
  543MOL0     H73275  -0.172   4.145   7.544  1.5867 -1.2711 -2.4118
  543MOL0     H73276  -0.269   4.067   7.423  1.4051  1.8745 -2.8763
  543MOL0     H73277  -0.367   4.217   7.673 -0.3278 -0.6494  0.5860
  543MOL0     H73278  -0.465   4.100   7.590 -2.2235  0.4963  3.0101
  543MOL0     H73279  -0.210   4.039   7.751  0.2805 -1.5143 -1.5933
  543MOL0     H73280  -0.285   3.920   7.646 -0.7671  0.0336 -0.6286
  543MOL0     H73281  -0.491   3.930   7.770 -1.4101  3.9804 -0.2967
  543MOL0     H73282  -0.354   3.878   7.873 -0.6716 -1.8536 -1.6618
  543MOL0     H73283  -0.468   4.160   7.874 -2.1812 -0.8356  0.6920
  543MOL0     H73284  -0.324   4.104   7.974  0.0818  0.8729 -2.5490
  543MOL0     H73285  -0.538   4.098   8.112  3.8864  0.3009  1.0364
  543MOL0     H73286  -0.487   3.933   8.074  1.1247  2.0801  3.6288
  543MOL0     H73287  -0.031   4.055   7.134  0.2755 -0.6469  0.4187
  543MOL0     H73288   0.200   4.064   7.015  2.8312 -0.9153  4.0058
  543MOL0     H73289   0.562   4.063   6.727  0.8133 -0.4446 -0.4213
  543MOL0     H73290   0.775   4.068   6.703 -2.6084 -1.4482 -0.6614
  543MOL0     H73291   1.336   4.400   6.366  0.1810 -2.0508  0.1223
  543MOL0     H73292   1.106   4.435   6.438 -1.6621  1.1175 -0.5012
  543MOL0     H73293   0.627   4.207   6.512  0.3948 -0.4642 -0.6682
  543MOL0     H73294   0.408   4.270   6.554  0.3064  0.4211  1.4318
  543MOL0     H73295   0.170   4.356   6.262 -2.6871 -0.9394 -0.9038
  543MOL0     H73296   0.152   4.305   6.435  0.5279 -3.2479 -4.1134
  543MOL0     H73297   0.007   4.518   6.448  0.8288 -1.4119 -0.0304
  543MOL0     H73298  -0.054   4.408   6.323 -0.2380 -1.2150  1.4168
  543MOL0     H73299   0.049   4.536   6.150 -3.1959 -1.7647 -0.4558
  543MOL0     H73300   0.131   4.628   6.274 -0.0740 -0.2312  0.4634
  543MOL0     H73301  -0.104   4.722   6.158  1.3920 -0.6367 -1.0913
  543MOL0     H73302  -0.054   4.755   6.330  2.6946 -1.1088 -0.2828
  543MOL0     H73303  -0.407   4.529   6.377 -1.6620  1.7294 -0.6282
  543MOL0     H73304   0.419   4.557   6.223 -2.9665 -0.2172  1.6028
  543MOL0     H73305   0.655   4.510   6.191 -0.2170  0.8261  1.0730
  544MOL0     O73306   2.892   4.175   4.995  0.7355  0.4630 -0.2864
  544MOL0     C73307   2.998   4.157   5.060 -0.1295 -1.2417 -0.1517
  544MOL0     O73308   3.012   4.073   5.172  0.1777  0.0816 -0.4067
  544MOL0     C73309   2.912   4.029   5.251  1.0627 -0.3411  0.2397
  544MOL0     C73310   2.778   4.067   5.260 -0.2780 -0.0052  0.5449
  544MOL0     C73311   2.688   3.982   5.342  0.7408 -0.4354 -0.0277
  544MOL0     C73312   2.732   3.874   5.417 -0.0241 -0.2634  1.1181
  544MOL0     O73313   2.643   3.807   5.486  0.3698  0.5061  0.1551
  544MOL0     C73314   2.570   3.708   5.405 -0.0130  0.1307  0.0832
  544MOL0     C73315   2.456   3.640   5.497  0.9559 -1.0106  0.2944
  544MOL0     C73316   2.355   3.745   5.541  0.4158 -0.0673 -0.0927
  544MOL0     C73317   2.240   3.679   5.629  0.1079 -0.2108 -0.0352
  544MOL0     C73318   2.124   3.651   5.537 -0.1759 -0.0637 -0.0276
  544MOL0     C73319   2.006   3.563   5.600 -1.2920 -0.3264 -0.3738
  544MOL0     C73320   1.889   3.569   5.504  0.3161 -0.2507  0.4083
  544MOL0     C73321   1.788   3.461   5.536 -0.2796 -0.6459  0.4541
  544MOL0     N73322   1.659   3.520   5.488  0.3310 -0.2385  0.3884
  544MOL0     C73323   1.634   3.560   5.353  0.2110  0.1192 -0.3044
  544MOL0     C73324   1.509   3.613   5.356 -0.0132 -0.9449  1.1672
  544MOL0     C73325   1.434   3.663   5.240  1.0635 -0.5262 -0.2875
  544MOL0     C73326   1.309   3.755   5.265  0.6086 -0.7322 -0.2894
  544MOL0     C73327   1.246   3.762   5.129  0.8555  1.2380 -0.5198
  544MOL0     C73328   1.131   3.860   5.121  0.0546 -0.6609  0.3801
  544MOL0     O73329   1.046   3.860   5.238  1.0187 -0.5143  0.3680
  544MOL0     C73330   0.963   3.973   5.256 -0.7986 -0.6701  0.2366
  544MOL0     C73331   0.890   3.988   5.373  0.1956  0.1547 -0.0741
  544MOL0     C73332   0.791   4.086   5.385  0.2113  0.4383 -0.2203
  544MOL0     C73333   0.720   4.098   5.524 -0.1446  0.5239  0.6693
  544MOL0     C73334   0.759   4.170   5.276  1.0067 -0.3515  0.7143
  544MOL0     C73335   0.641   4.251   5.264  0.3212  0.5061 -0.7345
  544MOL0     O73336   0.642   4.364   5.343  0.2244 -0.4467  0.6154
  544MOL0     C73337   0.556   4.467   5.333  0.6099  0.7007  0.4704
  544MOL0     C73338   0.477   4.489   5.445 -0.5766 -0.2392 -0.8515
  544MOL0     C73339   0.378   4.588   5.449 -0.4521  1.0329 -0.5351
  544MOL0     C73340   0.341   4.657   5.334 -0.1276  0.0982 -0.2402
  544MOL0     O73341   0.225   4.727   5.346  0.4991 -0.6144 -0.3747
  544MOL0     C73342   0.142   4.744   5.234  0.1296 -0.1063 -0.5506
  544MOL0     C73343   0.008   4.809   5.274 -0.2955  0.4709  0.8481
  544MOL0     C73344   0.021   4.959   5.286 -0.0696 -0.3564 -0.0845
  544MOL0     C73345  -0.100   5.025   5.340  0.7752 -0.0767 -0.3293
  544MOL0     C73346  -0.214   5.057   5.242 -0.3565  0.1609  0.0957
  544MOL0     C73347  -0.330   5.126   5.309 -0.3178 -0.4369 -0.2650
  544MOL0     C73348  -0.427   5.172   5.203 -0.2970 -0.4728  0.2872
  544MOL0     C73349  -0.564   5.222   5.261  0.6140  0.0425 -0.8369
  544MOL0    Cl73350  -0.654   5.071   5.317 -0.4303 -0.6511  0.2525
  544MOL0     C73351   0.410   4.644   5.217  0.4429 -0.2829  0.0408
  544MOL0     C73352   0.521   4.550   5.219  0.2683 -0.7065  1.1875
  544MOL0     O73353   0.551   4.209   5.190 -0.4910 -0.2787 -0.2173
  544MOL0     C73354   0.838   4.161   5.157 -0.0595  1.0474 -0.7092
  544MOL0     C73355   0.943   4.067   5.152 -0.0205 -0.5695  0.4207
  544MOL0     N73356   1.465   3.593   5.487  0.3201 -0.1062 -0.4978
  544MOL0     N73357   1.553   3.548   5.562  0.2761 -0.0566 -0.1172
  544MOL0     C73358   2.864   3.836   5.402 -0.2126 -0.8956 -0.2830
  544MOL0     C73359   2.950   3.923   5.329  0.0194  1.1048  0.3721
  544MOL0     C73360   3.112   4.242   5.007  0.0365  0.2841 -0.3644
  544MOL0     C73361   3.244   4.234   5.062 -0.2848 -1.3782  0.1280
  544MOL0     C73362   3.339   4.318   5.005  0.4498  0.3614 -0.8122
  544MOL0     C73363   3.318   4.396   4.894  0.8015  0.2341  0.5729
  544MOL0     O73364   3.402   4.459   4.814  0.6052 -0.6991 -0.1455
  544MOL0     C73365   3.542   4.461   4.840  0.7461  0.0223  0.2430
  544MOL0     C73366   3.616   4.337   4.800  0.1290 -0.1857  0.9284
  544MOL0     C73367   3.750   4.367   4.743 -0.1603 -0.4723 -0.1776
  544MOL0     C73368   3.821   4.245   4.680  0.2082 -0.7826 -0.3295
  544MOL0     C73369   3.833   4.132   4.762  1.0127 -0.6403  0.1581
  544MOL0     C73370   3.857   4.036   4.831 -0.7733  0.7119  0.4254
  544MOL0     C73371   3.187   4.409   4.852  0.7262 -0.1361 -0.5722
  544MOL0     C73372   3.088   4.332   4.900  0.3918  1.1232  0.0378
  544MOL0     H73373   2.741   4.152   5.204 -2.9104 -1.1686  0.3534
  544MOL0     H73374   2.584   4.006   5.356  1.0706  1.3745 -0.4329
  544MOL0     H73375   2.527   3.760   5.319 -0.1995 -1.1830 -0.6553
  544MOL0     H73376   2.635   3.629   5.368 -0.3207 -1.5515  2.8313
  544MOL0     H73377   2.400   3.571   5.434 -1.8660  2.0665 -0.8718
  544MOL0     H73378   2.518   3.595   5.575 -1.2011  0.1725  2.8729
  544MOL0     H73379   2.396   3.817   5.612 -1.8080 -0.5654  1.8485
  544MOL0     H73380   2.323   3.798   5.452 -3.7095  0.0574  1.2390
  544MOL0     H73381   2.278   3.599   5.693 -0.3074 -1.8469 -1.7421
  544MOL0     H73382   2.208   3.748   5.708  0.6581 -2.0427  1.8853
  544MOL0     H73383   2.089   3.747   5.498 -0.5223 -1.1396 -2.6220
  544MOL0     H73384   2.163   3.598   5.449  0.3649 -0.9854  0.7486
  544MOL0     H73385   2.040   3.459   5.607  0.0412  0.0728 -0.6691
  544MOL0     H73386   1.982   3.610   5.695  2.3391  3.7703 -1.1501
  544MOL0     H73387   1.857   3.670   5.530 -2.9502 -1.2920  0.7868
  544MOL0     H73388   1.927   3.559   5.402 -0.1500 -0.1455  0.2251
  544MOL0     H73389   1.777   3.435   5.641 -2.3454 -1.9601 -0.0240
  544MOL0     H73390   1.814   3.368   5.483  1.3336  0.8926 -1.6600
  544MOL0     H73391   1.697   3.538   5.267 -1.7075  0.1271 -1.7721
  544MOL0     H73392   1.510   3.716   5.181  0.7552  1.9237  1.3622
  544MOL0     H73393   1.404   3.576   5.181  2.7144 -1.4951  0.2482
  544MOL0     H73394   1.336   3.854   5.302 -1.0908 -0.1740 -0.4556
  544MOL0     H73395   1.241   3.711   5.339  1.4470 -1.5190  0.0321
  544MOL0     H73396   1.203   3.662   5.117  2.1645  0.5177  0.5146
  544MOL0     H73397   1.315   3.786   5.048  1.9356 -2.4480 -0.8773
  544MOL0     H73398   1.063   3.834   5.040  0.0423  0.8291 -0.1203
  544MOL0     H73399   1.176   3.956   5.093  0.4257 -1.1888 -0.9053
  544MOL0     H73400   0.916   3.915   5.449  3.1678 -0.3241 -1.3998
  544MOL0     H73401   0.766   4.170   5.592 -0.5277  1.1366  0.2880
  544MOL0     H73402   0.616   4.127   5.508 -0.6384 -1.3696  0.2329
  544MOL0     H73403   0.714   4.008   5.586 -1.7369  0.0842 -0.0888
  544MOL0     H73404   0.492   4.438   5.540 -2.7371 -2.3172 -1.5267
  544MOL0     H73405   0.327   4.613   5.541 -0.0417  2.4440 -0.6654
  544MOL0     H73406   0.190   4.808   5.160  3.4970 -0.7238  0.9104
  544MOL0     H73407   0.134   4.645   5.188  1.4476 -0.4680 -0.0584
  544MOL0     H73408  -0.066   4.781   5.198 -0.3520 -2.6556  1.8881
  544MOL0     H73409  -0.020   4.767   5.372  0.2999 -1.7037  0.1531
  544MOL0     H73410   0.045   5.001   5.188 -1.0053  0.7712  0.1551
  544MOL0     H73411   0.104   4.988   5.351 -1.8120  2.2358  1.1557
  544MOL0     H73412  -0.150   4.967   5.418 -3.8079 -2.4572 -4.4730
  544MOL0     H73413  -0.068   5.124   5.373  2.0469 -1.2462  2.2051
  544MOL0     H73414  -0.242   4.963   5.194  0.5834 -0.0389 -0.0862
  544MOL0     H73415  -0.176   5.118   5.160 -3.2270 -0.8734 -2.1879
  544MOL0     H73416  -0.381   5.057   5.377  0.0867 -3.4136 -2.7757
  544MOL0     H73417  -0.305   5.218   5.362  3.9737 -2.5653  1.9463
  544MOL0     H73418  -0.440   5.092   5.130 -1.0834 -1.1427  1.1363
  544MOL0     H73419  -0.380   5.255   5.150 -3.9999  0.1860 -2.3836
  544MOL0     H73420  -0.620   5.275   5.184  0.6303  0.5981 -0.4672
  544MOL0     H73421  -0.550   5.286   5.348 -0.3854  0.6855 -1.1377
  544MOL0     H73422   0.386   4.700   5.127 -0.3872 -0.9982 -0.2032
  544MOL0     H73423   0.551   4.519   5.120 -2.0451  0.0350  0.2052
  544MOL0     H73424   0.821   4.222   5.069 -0.3402  0.6612 -0.9278
  544MOL0     H73425   0.997   4.061   5.058 -0.4133  3.6164 -0.2868
  544MOL0     H73426   2.898   3.758   5.470  1.3410  0.3545  0.4391
  544MOL0     H73427   3.056   3.899   5.323 -0.8049 -3.2675 -0.5297
  544MOL0     H73428   3.284   4.167   5.138  0.2178 -0.3154  0.8132
  544MOL0     H73429   3.436   4.311   5.054  0.1976  1.0952 -0.1963
  544MOL0     H73430   3.593   4.545   4.791  2.3964 -0.6302  0.7592
  544MOL0     H73431   3.547   4.460   4.950  0.9227  1.9276  0.2918
  544MOL0     H73432   3.554   4.278   4.732  0.1287  2.6600 -1.7298
  544MOL0     H73433   3.624   4.269   4.886  1.1941 -2.9270 -1.1945
  544MOL0     H73434   3.820   4.404   4.818  0.4114 -0.1307 -0.8676
  544MOL0     H73435   3.739   4.445   4.666  0.1933  0.1468  0.3863
  544MOL0     H73436   3.911   4.270   4.623 -0.0532  2.5094  0.4569
  544MOL0     H73437   3.745   4.223   4.604  0.2107 -3.3678  0.3495
  544MOL0     H73438   3.890   3.960   4.898  0.1729  0.4491 -0.3016
  544MOL0     H73439   3.171   4.478   4.769  1.4837  1.2678  0.4023
  544MOL0     H73440   2.991   4.334   4.852 -0.2529 -1.5969  1.0456
  545MOL0     O73441   0.962   5.398  10.828 -0.2476  0.6119  0.3683
  545MOL0     C73442   1.067   5.337  10.846 -0.7024 -0.1964 -1.1061
  545MOL0     O73443   1.108   5.270  10.962 -1.1077 -0.1320 -0.7688
  545MOL0     C73444   1.040   5.260  11.077 -0.1690  0.1270 -0.1610
  545MOL0     C73445   0.955   5.360  11.121 -0.1728  0.5782 -1.0243
  545MOL0     C73446   0.870   5.336  11.233 -0.0355 -1.0181  0.7933
  545MOL0     C73447   0.876   5.214  11.297 -0.0099 -0.9669 -1.3066
  545MOL0     O73448   0.791   5.186  11.405  0.6244 -0.3863 -0.1354
  545MOL0     C73449   0.705   5.272  11.481  0.4896  0.2584  0.1915
  545MOL0     C73450   0.645   5.201  11.600  0.5002  0.0371  0.2646
  545MOL0     C73451   0.746   5.192  11.713 -0.0837  1.1137 -0.0285
  545MOL0     C73452   0.683   5.173  11.852  0.2861  0.5808 -1.0773
  545MOL0     C73453   0.607   5.286  11.906 -0.4688  0.4720 -0.5995
  545MOL0     C73454   0.546   5.259  12.043  0.4712 -0.4991 -0.1827
  545MOL0     C73455   0.422   5.169  12.027  0.0811  0.8489 -0.2191
  545MOL0     C73456   0.324   5.182  12.157  0.5518 -0.2117  0.4416
  545MOL0     N73457   0.248   5.307  12.157 -0.3005 -0.2564  0.8605
  545MOL0     C73458   0.196   5.362  12.049  0.0352  0.1572  0.2966
  545MOL0     C73459   0.162   5.485  12.068  0.7413 -0.2780 -0.4945
  545MOL0     C73460   0.128   5.576  11.948 -0.4315  0.1213 -0.3914
  545MOL0     C73461   0.145   5.724  11.970  0.1304  0.1701  0.2283
  545MOL0     C73462   0.122   5.815  11.847  0.4800 -0.2360 -0.2391
  545MOL0     C73463   0.256   5.850  11.774  0.4871 -0.2006  0.6483
  545MOL0     O73464   0.220   5.835  11.632 -0.4761 -0.2862 -0.8851
  545MOL0     C73465   0.327   5.855  11.534 -0.1961 -0.0078 -0.8800
  545MOL0     C73466   0.458   5.907  11.565  0.4876 -0.1302  0.0244
  545MOL0     C73467   0.560   5.938  11.472 -0.0710  0.5717 -0.3980
  545MOL0     C73468   0.697   6.003  11.521  0.2603  0.1371 -0.8621
  545MOL0     C73469   0.533   5.904  11.341 -0.5770  0.6105  0.3269
  545MOL0     C73470   0.628   5.912  11.225  0.2420  0.3659  0.1401
  545MOL0     O73471   0.634   5.803  11.140  0.1031  0.7932 -0.1644
  545MOL0     C73472   0.702   5.816  11.020  0.2614  0.0630  0.4490
  545MOL0     C73473   0.644   5.895  10.921  0.7587  0.1136 -0.7613
  545MOL0     C73474   0.726   5.928  10.810  0.0727  0.4773  0.6481
  545MOL0     C73475   0.860   5.881  10.794  0.7730 -0.3808 -0.6754
  545MOL0     O73476   0.932   5.924  10.694 -0.1786  0.0709  0.0794
  545MOL0     C73477   1.072   5.883  10.669  0.1946 -0.0362 -1.0441
  545MOL0     C73478   1.112   5.910  10.528  0.0868 -0.3176 -1.1957
  545MOL0     C73479   1.047   5.799  10.450 -0.6714 -0.5504  0.1337
  545MOL0     C73480   1.014   5.854  10.307 -0.2939 -0.2864 -0.0911
  545MOL0     C73481   1.008   5.744  10.198  0.5435 -0.1791 -0.9045
  545MOL0     C73482   0.897   5.643  10.226  0.2785  0.0558  0.8060
  545MOL0     C73483   0.883   5.546  10.110  0.3317  0.3102  0.0774
  545MOL0     C73484   0.809   5.417  10.154  0.4144  0.1884  0.1305
  545MOL0    Cl73485   0.648   5.463  10.219  0.1237  0.1961  0.4765
  545MOL0     C73486   0.904   5.790  10.892  0.1227 -0.7775 -0.2715
  545MOL0     C73487   0.824   5.753  11.005 -0.2639 -0.9872 -0.0278
  545MOL0     O73488   0.700   6.005  11.232  0.1220 -0.4825  0.2919
  545MOL0     C73489   0.406   5.848  11.303  0.4621  0.3860 -0.0694
  545MOL0     C73490   0.314   5.823  11.396 -0.6040  0.3741  0.7021
  545MOL0     N73491   0.194   5.511  12.199 -0.1338  0.0150 -0.0987
  545MOL0     N73492   0.226   5.401  12.252  0.0385  0.2124 -0.5081
  545MOL0     C73493   0.975   5.123  11.252 -0.0457  0.5720 -0.5694
  545MOL0     C73494   1.064   5.150  11.152 -0.2860 -0.0817 -0.3723
  545MOL0     C73495   1.146   5.320  10.718  0.1369 -0.0593 -0.5379
  545MOL0     C73496   1.116   5.401  10.607  0.7428 -0.8624  0.2682
  545MOL0     C73497   1.184   5.379  10.490  0.3955 -0.3221  0.4393
  545MOL0     C73498   1.275   5.285  10.477  0.7522  0.7073  0.5023
  545MOL0     O73499   1.339   5.279  10.359 -0.1955 -0.8733  0.5801
  545MOL0     C73500   1.366   5.144  10.309 -0.3755 -0.0849  0.3067
  545MOL0     C73501   1.248   5.050  10.291 -0.1307  0.0939 -0.4258
  545MOL0     C73502   1.132   5.114  10.212 -1.7362  0.2954  0.0857
  545MOL0     C73503   1.040   5.002  10.164  0.2147 -0.3210 -0.3551
  545MOL0     C73504   0.951   5.033  10.058 -0.2977 -0.1815 -0.2046
  545MOL0     C73505   0.865   5.048   9.978  0.3113 -0.0346  1.7122
  545MOL0     C73506   1.312   5.201  10.581 -0.6108  0.0478 -0.4924
  545MOL0     C73507   1.240   5.215  10.700  0.2418  0.0783 -0.4008
  545MOL0     H73508   0.954   5.456  11.070 -0.9400  2.7884  2.8189
  545MOL0     H73509   0.792   5.407  11.258 -1.7830 -2.9278  1.1182
  545MOL0     H73510   0.747   5.369  11.511 -0.2825  0.2745  1.3138
  545MOL0     H73511   0.625   5.293  11.409 -0.1721 -0.4925  0.6935
  545MOL0     H73512   0.566   5.263  11.643  2.8054  1.9051  2.0612
  545MOL0     H73513   0.597   5.108  11.570 -1.0419  0.7797  0.3441
  545MOL0     H73514   0.813   5.107  11.694 -0.5390  1.0870 -1.6527
  545MOL0     H73515   0.822   5.271  11.717  1.4619 -0.3621  1.3204
  545MOL0     H73516   0.610   5.092  11.846  0.4091  0.4807 -1.2432
  545MOL0     H73517   0.765   5.155  11.922 -0.8552  0.7086  0.3420
  545MOL0     H73518   0.677   5.370  11.905 -0.2381  0.3768 -3.9579
  545MOL0     H73519   0.525   5.318  11.841 -2.6937 -2.2109  0.6683
  545MOL0     H73520   0.628   5.221  12.106  3.8928  2.7949 -2.2183
  545MOL0     H73521   0.518   5.355  12.086  1.6444  0.6757 -1.9048
  545MOL0     H73522   0.362   5.188  11.937 -0.3838  1.5625  0.2219
  545MOL0     H73523   0.463   5.068  12.027  0.2033  0.8456  1.6663
  545MOL0     H73524   0.366   5.165  12.257  2.2331 -0.1473 -0.2206
  545MOL0     H73525   0.249   5.103  12.153  1.0665 -0.7452  0.9339
  545MOL0     H73526   0.185   5.317  11.950 -4.3960 -0.1035  0.7099
  545MOL0     H73527   0.186   5.552  11.859  2.0843 -0.5456  1.3219
  545MOL0     H73528   0.022   5.562  11.922 -0.6918 -0.9962  1.0913
  545MOL0     H73529   0.242   5.741  12.017 -0.1310 -0.1451  0.9089
  545MOL0     H73530   0.073   5.742  12.051 -0.2981 -1.2571  0.1987
  545MOL0     H73531   0.084   5.909  11.888  5.2278  1.2961  1.3681
  545MOL0     H73532   0.050   5.767  11.780  0.0251  0.1458 -0.0323
  545MOL0     H73533   0.337   5.783  11.802  1.3507  1.0925  1.3364
  545MOL0     H73534   0.290   5.953  11.787  1.4152 -0.3875 -0.2030
  545MOL0     H73535   0.478   5.927  11.669 -1.0937  1.8962 -0.0009
  545MOL0     H73536   0.690   5.992  11.629  2.4355 -1.8715 -0.8397
  545MOL0     H73537   0.779   5.936  11.492  0.5757 -0.1842  0.7122
  545MOL0     H73538   0.715   6.108  11.495  0.8041  0.1687 -0.3774
  545MOL0     H73539   0.543   5.928  10.940 -0.2161 -0.8263 -3.7116
  545MOL0     H73540   0.679   5.989  10.734 -0.6495 -3.0203 -1.9426
  545MOL0     H73541   1.131   5.933  10.746 -2.5179 -2.1579  2.7792
  545MOL0     H73542   1.081   5.775  10.685 -0.9162  0.3771  4.5120
  545MOL0     H73543   1.081   6.009  10.492 -0.3111 -0.7750 -2.1315
  545MOL0     H73544   1.219   5.908  10.506  0.6796 -1.3087  1.3344
  545MOL0     H73545   0.956   5.761  10.498  0.5541 -2.6417  0.9304
  545MOL0     H73546   1.121   5.719  10.446  1.0241  0.9520  0.4431
  545MOL0     H73547   0.914   5.896  10.304 -1.1298 -2.2088 -1.3290
  545MOL0     H73548   1.084   5.929  10.267 -1.6739 -0.7927 -3.8993
  545MOL0     H73549   1.100   5.686  10.194  0.5504 -0.4783  1.7017
  545MOL0     H73550   0.999   5.777  10.094 -2.5751 -2.8372 -1.6458
  545MOL0     H73551   0.914   5.602  10.326 -1.5549  2.3282  2.1590
  545MOL0     H73552   0.808   5.706  10.231 -0.2102 -0.4208 -1.0556
  545MOL0     H73553   0.979   5.515  10.068  0.1975 -1.2969  0.8818
  545MOL0     H73554   0.824   5.594  10.031  0.4140 -1.0927 -0.8659
  545MOL0     H73555   0.858   5.359  10.232 -1.9640 -1.7204  0.3296
  545MOL0     H73556   0.796   5.350  10.069 -0.6603  1.2918 -0.6160
  545MOL0     H73557   1.000   5.740  10.880 -0.4544 -1.5738 -1.9649
  545MOL0     H73558   0.859   5.685  11.083 -2.5241  0.3211  2.2958
  545MOL0     H73559   0.385   5.824  11.199  3.0404  0.2439 -0.6213
  545MOL0     H73560   0.215   5.797  11.361  0.5458 -0.0452 -2.5483
  545MOL0     H73561   0.992   5.040  11.320  1.2405  2.2495  1.2865
  545MOL0     H73562   1.134   5.070  11.131 -1.6386 -1.2097 -0.6742
  545MOL0     H73563   1.050   5.487  10.604  1.2118 -0.5177 -2.9652
  545MOL0     H73564   1.152   5.438  10.405 -0.3190 -0.0014  0.9220
  545MOL0     H73565   1.413   5.154  10.211 -4.0216  2.6039 -1.3879
  545MOL0     H73566   1.440   5.092  10.370  0.0802  0.4262  0.1955
  545MOL0     H73567   1.207   5.011  10.384  1.0325 -0.2064 -0.0252
  545MOL0     H73568   1.290   4.961  10.243  1.8575 -0.7013  2.5331
  545MOL0     H73569   1.173   5.164  10.124 -0.0738  2.5323  2.0103
  545MOL0     H73570   1.079   5.183  10.278 -1.1666  0.6017  0.2252
  545MOL0     H73571   0.993   4.949  10.247  1.1485 -0.6497 -0.0282
  545MOL0     H73572   1.098   4.923  10.116 -2.1777 -1.4673 -1.5623
  545MOL0     H73573   0.792   5.083   9.908 -0.8515 -2.5603  1.5882
  545MOL0     H73574   1.390   5.127  10.569 -1.1502 -0.7086  0.5425
  545MOL0     H73575   1.258   5.161  10.792  0.1403  2.2832  0.9852
  546MOL0     O73576   1.269   9.841   7.187 -0.3442 -0.0444 -0.2428
  546MOL0     C73577   1.299   9.925   7.097 -0.0382  0.4995  0.7789
  546MOL0     O73578   1.219  10.017   7.041 -0.7124  0.2863 -0.6627
  546MOL0     C73579   1.099  10.032   7.107 -0.7597  0.1794  0.1666
  546MOL0     C73580   1.001   9.939   7.103  0.3748 -0.7685  0.1342
  546MOL0     C73581   0.867   9.957   7.156 -0.6066  0.3852 -0.6386
  546MOL0     C73582   0.847  10.081   7.214 -0.3607  0.3879 -0.8386
  546MOL0     O73583   0.738  10.121   7.279 -0.8165 -0.5570  0.2217
  546MOL0     C73584   0.612  10.053   7.274  0.4086 -0.1290 -0.7598
  546MOL0     C73585   0.511  10.143   7.346  0.2551 -0.6078 -0.5431
  546MOL0     C73586   0.379  10.075   7.343  1.0956  0.1150 -0.5480
  546MOL0     C73587   0.283  10.161   7.423  0.2932 -0.0256  0.0630
  546MOL0     C73588   0.145  10.101   7.424  1.3040  0.2041  1.0273
  546MOL0     C73589   0.046  10.176   7.511  0.0353 -0.8176  0.2403
  546MOL0     C73590  -0.108  10.132   7.505 -0.8672  0.2650 -0.6725
  546MOL0     C73591  -0.133  10.004   7.575  0.3439 -0.3032  0.5928
  546MOL0     N73592  -0.276   9.987   7.605  0.3627 -0.6158 -0.1720
  546MOL0     C73593  -0.363  10.072   7.673 -0.5978  0.1383 -0.7219
  546MOL0     C73594  -0.485  10.019   7.668  1.2372 -0.1122 -0.2779
  546MOL0     C73595  -0.607  10.092   7.711  0.0912 -0.3204  0.3810
  546MOL0     C73596  -0.734   9.999   7.736  0.2781  0.8211 -0.9241
  546MOL0     C73597  -0.853  10.064   7.794 -0.2392  0.1200 -0.2623
  546MOL0     C73598  -0.928  10.154   7.693 -0.7549  0.2405 -0.1882
  546MOL0     O73599  -1.034  10.195   7.775  0.3791 -0.2340  0.2049
  546MOL0     C73600  -1.157  10.225   7.714 -0.0403  0.5014 -0.6031
  546MOL0     C73601  -1.157  10.263   7.584  0.0581 -0.1785  0.6778
  546MOL0     C73602  -1.275  10.307   7.513  0.2692  0.0968  0.5154
  546MOL0     C73603  -1.263  10.357   7.375 -0.0254  0.1741 -0.1742
  546MOL0     C73604  -1.401  10.297   7.585 -0.9884 -0.5978  0.5036
  546MOL0     C73605  -1.531  10.320   7.525 -0.7281 -0.0512  0.9134
  546MOL0     O73606  -1.631  10.234   7.571 -0.1368  0.6368 -0.3901
  546MOL0     C73607  -1.760  10.222   7.526 -0.1463  0.5344  0.6276
  546MOL0     C73608  -1.862  10.155   7.601  0.2997 -0.7058  0.2850
  546MOL0     C73609  -1.986  10.141   7.566  0.4078  0.0224 -1.1589
  546MOL0     C73610  -2.033  10.192   7.436 -0.0018  0.8023  0.0980
  546MOL0     O73611  -2.159  10.173   7.383  0.2388  0.1242 -0.1208
  546MOL0     C73612  -2.250  10.090   7.458  0.7013  0.5123  0.4213
  546MOL0     C73613  -2.398  10.095   7.403  0.5309  0.2526 -0.5109
  546MOL0     C73614  -2.419   9.984   7.299 -0.6319  0.5165  0.0872
  546MOL0     C73615  -2.551   9.993   7.237  0.6732 -0.3193  0.0175
  546MOL0     C73616  -2.571   9.919   7.114 -0.1181 -1.4989  1.3103
  546MOL0     C73617  -2.717   9.931   7.067 -0.2953  0.2718 -0.3993
  546MOL0     C73618  -2.743  10.054   6.985 -0.5355  0.1778 -0.1385
  546MOL0     C73619  -2.888  10.043   6.920  0.1116  0.1422  0.0122
  546MOL0    Cl73620  -2.875   9.935   6.776 -0.3643 -0.0498 -0.2840
  546MOL0     C73621  -1.932  10.250   7.358 -0.3723 -0.2722  0.2279
  546MOL0     C73622  -1.801  10.265   7.404 -0.4854  0.5376 -0.9184
  546MOL0     O73623  -1.551  10.419   7.451 -0.0021 -0.4539 -0.3047
  546MOL0     C73624  -1.400  10.243   7.715 -0.2552  0.2699  0.5952
  546MOL0     C73625  -1.278  10.216   7.778  0.5067 -0.4089 -0.3478
  546MOL0     N73626  -0.471   9.896   7.605  0.0562 -0.3969  0.2419
  546MOL0     N73627  -0.349   9.877   7.570  0.3464 -0.2659 -0.0537
  546MOL0     C73628   0.943  10.182   7.214  0.0679  0.0671  0.2913
  546MOL0     C73629   1.073  10.152   7.168 -0.5992 -0.4140 -0.2249
  546MOL0     C73630   1.438   9.919   7.044 -0.2538  0.9368 -0.3799
  546MOL0     C73631   1.496  10.036   6.984  0.0890  0.0723 -0.4138
  546MOL0     C73632   1.631  10.028   6.953  0.1374  0.3370  0.8232
  546MOL0     C73633   1.711   9.911   6.963 -0.1672  0.4778 -0.2988
  546MOL0     O73634   1.837   9.916   6.905 -0.5116  0.3180  0.7719
  546MOL0     C73635   1.930   9.801   6.935  0.7325 -0.5576  0.2280
  546MOL0     C73636   2.056   9.786   6.841  0.3330 -0.2744 -0.0968
  546MOL0     C73637   2.109   9.925   6.795  0.5724  0.2055  0.2167
  546MOL0     C73638   2.245   9.917   6.718  0.0412 -0.9462  0.4954
  546MOL0     C73639   2.294  10.039   6.656  0.5257  1.0467  0.7924
  546MOL0     C73640   2.336  10.146   6.621  0.2422  0.0738  0.2969
  546MOL0     C73641   1.652   9.804   7.020 -0.7334  0.1571 -0.3238
  546MOL0     C73642   1.518   9.800   7.056 -0.1583 -1.5547 -0.5551
  546MOL0     H73643   1.013   9.843   7.054  0.3688  0.0236 -1.4808
  546MOL0     H73644   0.794   9.878   7.145  0.5352 -0.5760 -1.4818
  546MOL0     H73645   0.583  10.025   7.172  0.4841 -1.3128 -0.4814
  546MOL0     H73646   0.632   9.962   7.332  5.0503  0.8395 -0.4974
  546MOL0     H73647   0.545  10.156   7.449 -3.7159  2.0027  0.6702
  546MOL0     H73648   0.506  10.237   7.292 -1.3898 -0.9965 -1.1280
  546MOL0     H73649   0.337  10.070   7.242  0.3098  2.0560 -0.3436
  546MOL0     H73650   0.386   9.972   7.381 -1.8466  0.4991  1.3399
  546MOL0     H73651   0.315  10.197   7.521  0.3696 -1.4052  0.5533
  546MOL0     H73652   0.279  10.257   7.370 -0.7884  0.0990  0.3454
  546MOL0     H73653   0.114  10.090   7.319  1.4134  0.1137  1.0040
  546MOL0     H73654   0.148   9.999   7.462 -0.7062 -1.2703 -2.3142
  546MOL0     H73655   0.088  10.174   7.612 -0.4447 -1.8125  0.4386
  546MOL0     H73656   0.032  10.278   7.474  1.3622 -1.0487 -0.9748
  546MOL0     H73657  -0.170  10.216   7.536 -1.8062 -0.8006  0.4912
  546MOL0     H73658  -0.123  10.117   7.398 -1.7605  0.1294 -0.5359
  546MOL0     H73659  -0.068  10.002   7.663  0.0861  1.3650  0.8674
  546MOL0     H73660  -0.099   9.926   7.506 -2.0674 -1.0690  0.1854
  546MOL0     H73661  -0.326  10.162   7.722 -1.5022 -0.8944  2.0699
  546MOL0     H73662  -0.594  10.141   7.808  0.7224 -0.0413  0.1652
  546MOL0     H73663  -0.630  10.169   7.637 -0.0165 -0.7094  0.0112
  546MOL0     H73664  -0.715   9.920   7.809 -0.5506 -1.2862 -2.8625
  546MOL0     H73665  -0.750   9.949   7.640  0.0812  0.9055 -0.9366
  546MOL0     H73666  -0.828  10.109   7.890 -3.6343 -0.3737  0.9722
  546MOL0     H73667  -0.927   9.986   7.816  0.1250 -0.9155 -2.3601
  546MOL0     H73668  -0.956  10.104   7.600 -1.2982 -1.0636  0.6604
  546MOL0     H73669  -0.861  10.237   7.667  1.2868 -0.8698  1.2071
  546MOL0     H73670  -1.063  10.292   7.536 -0.2917  0.6099  0.4470
  546MOL0     H73671  -1.173  10.322   7.324 -0.8441 -1.6576 -0.4454
  546MOL0     H73672  -1.350  10.318   7.321  1.5372 -3.0935 -0.5314
  546MOL0     H73673  -1.263  10.467   7.376 -0.9806  0.1954  1.3657
  546MOL0     H73674  -1.835  10.115   7.698  0.8703 -1.6627 -0.2545
  546MOL0     H73675  -2.044  10.092   7.644  2.6498 -1.4739 -0.3289
  546MOL0     H73676  -2.206   9.990   7.467 -0.9305 -0.5197 -1.9455
  546MOL0     H73677  -2.265  10.140   7.554  0.3419 -0.2439  0.7659
  546MOL0     H73678  -2.474  10.085   7.482 -1.5059 -1.5696 -2.5505
  546MOL0     H73679  -2.413  10.190   7.351  0.5657  0.8655  0.5624
  546MOL0     H73680  -2.398   9.880   7.326  2.5880  0.9986 -0.2083
  546MOL0     H73681  -2.339   9.994   7.224  0.4590  0.0965  1.1698
  546MOL0     H73682  -2.614   9.945   7.312  2.5513 -0.2679  1.7020
  546MOL0     H73683  -2.572  10.100   7.228 -1.8268 -0.5530  2.0712
  546MOL0     H73684  -2.552   9.812   7.129  0.7249 -1.5075  0.3270
  546MOL0     H73685  -2.509   9.940   7.026 -0.0960  1.5027  1.9628
  546MOL0     H73686  -2.734   9.846   7.001  2.6270 -0.0627 -0.8342
  546MOL0     H73687  -2.783   9.918   7.154  2.7974 -2.3538  1.7889
  546MOL0     H73688  -2.667  10.070   6.908 -0.9927 -0.0125 -0.6358
  546MOL0     H73689  -2.736  10.142   7.050  1.0264 -2.1814  3.1713
  546MOL0     H73690  -2.928  10.142   6.898  0.4258 -0.2262 -2.6661
  546MOL0     H73691  -2.958   9.993   6.986 -2.8848  2.2494 -1.3607
  546MOL0     H73692  -1.962  10.290   7.261 -0.8126 -0.4671  0.2833
  546MOL0     H73693  -1.722  10.295   7.336  0.4496  0.8940  0.3011
  546MOL0     H73694  -1.491  10.218   7.769  0.7473 -0.5505  1.9797
  546MOL0     H73695  -1.288  10.189   7.883 -2.0924 -2.2254 -0.9707
  546MOL0     H73696   0.925  10.283   7.249 -1.3596 -0.0365 -0.0830
  546MOL0     H73697   1.145  10.234   7.163 -1.4667  0.4098  0.4348
  546MOL0     H73698   1.430  10.123   6.984  1.2674  1.0594  1.6454
  546MOL0     H73699   1.693  10.111   6.920  1.2255 -1.1750 -1.1691
  546MOL0     H73700   1.964   9.811   7.038 -1.2645  0.5868  0.8195
  546MOL0     H73701   1.880   9.705   6.918  1.0138 -0.4434 -1.4337
  546MOL0     H73702   2.019   9.731   6.754 -0.0646  0.5336 -0.4507
  546MOL0     H73703   2.134   9.727   6.888 -1.2373 -1.6430  0.9204
  546MOL0     H73704   2.132   9.991   6.879 -0.4204  0.1878  0.5118
  546MOL0     H73705   2.038   9.979   6.732 -1.9507 -0.9886  1.8945
  546MOL0     H73706   2.240   9.838   6.643 -2.7720 -0.1598 -0.2700
  546MOL0     H73707   2.324   9.885   6.787 -0.3501 -0.4085  1.2050
  546MOL0     H73708   2.388  10.236   6.594 -0.1958 -0.1435 -1.4073
  546MOL0     H73709   1.705   9.712   7.043  1.7565  1.2791 -1.2114
  546MOL0     H73710   1.468   9.713   7.098 -1.5917  0.3156  1.8953
  547MOL0     O73711  10.828   1.169   1.860  0.0094 -0.3788  0.7047
  547MOL0     C73712  10.871   1.281   1.844  0.5385  0.4245  0.4867
  547MOL0     O73713  10.801   1.401   1.868 -0.7269 -0.0897  0.4747
  547MOL0     C73714  10.665   1.410   1.908 -0.2208 -0.4486 -0.5947
  547MOL0     C73715  10.618   1.537   1.935 -0.6246  0.1630  0.0089
  547MOL0     C73716  10.487   1.556   1.963  0.4277 -1.2696 -0.0216
  547MOL0     C73717  10.395   1.452   1.969  0.4425  0.1369  0.4700
  547MOL0     O73718  10.258   1.479   1.974  0.6866  0.2337 -0.1565
  547MOL0     C73719  10.161   1.365   1.981 -1.1741 -0.4382  0.6351
  547MOL0     C73720  10.022   1.416   2.016 -0.6936 -0.0598  0.3686
  547MOL0     C73721   9.929   1.302   2.055 -0.0114  0.2978  0.7350
  547MOL0     C73722   9.780   1.326   2.066  0.5602  0.3608 -0.4098
  547MOL0     C73723   9.703   1.196   2.084 -0.5245 -1.2081 -1.1425
  547MOL0     C73724   9.558   1.222   2.120  0.4280  1.1132 -0.3948
  547MOL0     C73725   9.513   1.229   2.266  0.0419  0.1017  0.5549
  547MOL0     C73726   9.364   1.240   2.288 -0.1875 -0.4284  0.3522
  547MOL0     N73727   9.296   1.344   2.219  0.2685 -0.7221  0.2432
  547MOL0     C73728   9.183   1.313   2.142  0.6547 -0.3249 -0.6686
  547MOL0     C73729   9.157   1.433   2.074 -0.0122  0.1846  0.0758
  547MOL0     C73730   9.044   1.446   1.973 -0.1492  0.7911 -0.7695
  547MOL0     C73731   8.971   1.580   1.988  0.2929  0.3754 -0.2089
  547MOL0     C73732   8.821   1.572   1.956  0.9734 -0.6569 -0.2955
  547MOL0     C73733   8.742   1.504   2.065 -0.1590 -0.2386  0.6468
  547MOL0     O73734   8.621   1.434   2.035  0.2113 -0.1891  0.2274
  547MOL0     C73735   8.519   1.510   2.017  0.2931  0.7848 -0.1263
  547MOL0     C73736   8.511   1.649   2.046  0.0711  0.5472 -0.0734
  547MOL0     C73737   8.402   1.737   2.000  0.8777 -0.8905 -0.8509
  547MOL0     C73738   8.417   1.887   2.016  0.2667  0.0108 -0.1928
  547MOL0     C73739   8.289   1.667   1.941 -0.6652 -0.3043 -0.3643
  547MOL0     C73740   8.164   1.740   1.911  0.8590  0.7423 -0.4862
  547MOL0     O73741   8.055   1.666   1.870 -0.3024  0.4955 -1.4434
  547MOL0     C73742   7.940   1.720   1.822  0.0567  0.1658 -0.4498
  547MOL0     C73743   7.921   1.860   1.793 -0.1990  0.1590 -0.7321
  547MOL0     C73744   7.798   1.911   1.767 -0.0800 -0.7981  0.3458
  547MOL0     C73745   7.694   1.815   1.750 -0.3480 -0.3777 -0.1882
  547MOL0     O73746   7.569   1.858   1.730 -0.0156 -1.1331 -0.2656
  547MOL0     C73747   7.525   1.879   1.596 -0.3430 -1.4134  0.4800
  547MOL0     C73748   7.384   1.947   1.576 -0.4792 -0.2587  0.3843
  547MOL0     C73749   7.379   2.076   1.650  0.4801  0.4792  0.9361
  547MOL0     C73750   7.253   2.160   1.596 -0.2900 -0.3580 -0.1333
  547MOL0     C73751   7.247   2.289   1.683 -0.3700 -1.3603 -0.6987
  547MOL0     C73752   7.108   2.351   1.650  0.1888  0.3122 -0.7937
  547MOL0     C73753   7.115   2.489   1.705  0.6690 -0.1795 -0.3879
  547MOL0     C73754   6.980   2.548   1.680  0.0992  0.8313 -0.1505
  547MOL0    Cl73755   6.952   2.691   1.774  0.1227 -0.2472 -0.6371
  547MOL0     C73756   7.706   1.679   1.786 -0.8490  0.2306  0.5056
  547MOL0     C73757   7.830   1.634   1.814 -0.2530  0.2000 -0.1968
  547MOL0     O73758   8.159   1.860   1.943  0.2130 -0.3610  0.3526
  547MOL0     C73759   8.294   1.526   1.933  0.2168 -0.1811 -1.2314
  547MOL0     C73760   8.409   1.449   1.963  0.0972  0.5675  0.7440
  547MOL0     N73761   9.243   1.530   2.124  0.4514 -0.5385  0.4093
  547MOL0     N73762   9.334   1.467   2.191  0.5825 -0.3878  0.4930
  547MOL0     C73763  10.443   1.321   1.953  0.6410  0.0907  0.2545
  547MOL0     C73764  10.579   1.299   1.930 -0.3054 -0.3933 -0.5413
  547MOL0     C73765  11.014   1.291   1.815  0.6051 -0.4680  0.1126
  547MOL0     C73766  11.100   1.196   1.754  1.0446  0.6625  0.0386
  547MOL0     C73767  11.227   1.228   1.709 -0.8730 -0.4013  0.3940
  547MOL0     C73768  11.281   1.354   1.745 -0.2200 -0.4603  0.8651
  547MOL0     O73769  11.412   1.384   1.718 -0.3884  0.2457 -0.0811
  547MOL0     C73770  11.502   1.272   1.744  0.1755  0.6680  0.3135
  547MOL0     C73771  11.489   1.227   1.888 -0.0446  0.3450  0.3448
  547MOL0     C73772  11.557   1.313   2.001 -0.1227  0.2299 -1.1279
  547MOL0     C73773  11.715   1.299   2.000 -0.2936  0.9112  0.0764
  547MOL0     C73774  11.775   1.388   2.095  0.0523  0.6405 -1.0247
  547MOL0     C73775  11.806   1.456   2.184  0.5326  1.2140  0.3444
  547MOL0     C73776  11.199   1.455   1.806 -0.5301  0.6567  0.6348
  547MOL0     C73777  11.073   1.424   1.842  0.2315  1.8086  1.3276
  547MOL0     H73778  10.678   1.627   1.925  1.2333 -1.1504 -1.1134
  547MOL0     H73779  10.455   1.657   1.986  1.0969 -1.2586  0.8906
  547MOL0     H73780  10.148   1.314   1.885 -1.8981  1.2144 -0.1827
  547MOL0     H73781  10.196   1.302   2.063 -1.2862 -1.9072 -0.4016
  547MOL0     H73782  10.033   1.496   2.090 -0.1816 -1.5564  1.9467
  547MOL0     H73783   9.986   1.468   1.926  0.5104  2.4777  1.2591
  547MOL0     H73784   9.945   1.220   1.985  3.2291 -0.8054  2.5446
  547MOL0     H73785   9.966   1.263   2.151  1.7601  1.7657  0.6981
  547MOL0     H73786   9.754   1.391   2.150  0.4790  0.1509 -0.2698
  547MOL0     H73787   9.744   1.374   1.974 -1.6789 -1.5940 -0.6672
  547MOL0     H73788   9.704   1.148   1.986  1.1223 -2.8166 -0.3933
  547MOL0     H73789   9.745   1.136   2.165  1.7968  1.5073 -0.1485
  547MOL0     H73790   9.522   1.303   2.056 -0.3108 -0.7680 -2.5001
  547MOL0     H73791   9.500   1.137   2.082 -0.2235  0.6048  1.6014
  547MOL0     H73792   9.555   1.143   2.319 -2.7065 -1.2615  0.6965
  547MOL0     H73793   9.547   1.326   2.303  1.0742 -0.0719  0.0942
  547MOL0     H73794   9.354   1.271   2.392 -1.3469 -2.7448  0.9911
  547MOL0     H73795   9.314   1.143   2.279  0.6938 -0.6909 -4.3902
  547MOL0     H73796   9.140   1.214   2.137 -0.1813 -0.0186  0.0897
  547MOL0     H73797   9.085   1.439   1.872  0.4956  0.1227 -0.4731
  547MOL0     H73798   8.975   1.364   1.995  0.3951  0.9332  1.8554
  547MOL0     H73799   9.013   1.652   1.917  0.3691  0.8340  0.2884
  547MOL0     H73800   8.986   1.623   2.088 -1.2911  0.5514 -0.0137
  547MOL0     H73801   8.824   1.509   1.866  1.3902  1.0654 -1.5368
  547MOL0     H73802   8.774   1.668   1.934  1.2833 -1.2041 -3.9932
  547MOL0     H73803   8.740   1.565   2.156 -1.1874 -0.1877  0.5999
  547MOL0     H73804   8.804   1.419   2.095  0.9854  0.5091  0.5018
  547MOL0     H73805   8.589   1.710   2.090  0.8294 -1.1287  0.9649
  547MOL0     H73806   8.405   1.928   1.916 -1.0649  1.4751  0.5276
  547MOL0     H73807   8.347   1.926   2.091  1.7618  1.8551  0.3325
  547MOL0     H73808   8.519   1.918   2.042  0.2466  0.7379 -0.9411
  547MOL0     H73809   8.010   1.921   1.784 -0.7549  1.1568  0.1946
  547MOL0     H73810   7.778   2.016   1.749  0.3650 -0.5523  1.2430
  547MOL0     H73811   7.600   1.931   1.537 -1.6386 -1.1193 -0.9561
  547MOL0     H73812   7.518   1.778   1.554  2.8472 -0.8494 -1.7836
  547MOL0     H73813   7.360   1.946   1.469  0.6564  0.0937  0.1112
  547MOL0     H73814   7.304   1.885   1.617  0.3422 -1.8286 -0.3013
  547MOL0     H73815   7.468   2.135   1.628  0.6448  0.9213  2.6573
  547MOL0     H73816   7.366   2.056   1.757 -3.0289 -0.8106  0.3989
  547MOL0     H73817   7.268   2.182   1.489 -0.8252 -2.1356 -0.6066
  547MOL0     H73818   7.164   2.098   1.601 -1.3438  1.2261  1.9295
  547MOL0     H73819   7.328   2.359   1.661 -0.4713 -1.1655 -0.4575
  547MOL0     H73820   7.252   2.267   1.790 -2.9642 -1.9283 -0.6245
  547MOL0     H73821   7.077   2.341   1.546  0.0650  0.5007 -0.7746
  547MOL0     H73822   7.037   2.284   1.699  0.2357 -0.2041 -1.4215
  547MOL0     H73823   7.185   2.543   1.641  0.2833 -2.1602 -2.6184
  547MOL0     H73824   7.138   2.491   1.812 -2.0132  2.4962  0.2876
  547MOL0     H73825   6.905   2.475   1.708  0.4430  0.6867  0.4026
  547MOL0     H73826   6.976   2.566   1.572  0.3077 -2.2611 -0.7551
  547MOL0     H73827   7.618   1.619   1.766 -1.8650  2.0600 -0.7127
  547MOL0     H73828   7.843   1.533   1.853 -0.6417  0.7359  1.3960
  547MOL0     H73829   8.209   1.460   1.920  0.9204 -1.7091  1.1889
  547MOL0     H73830   8.405   1.343   1.940  1.5811  0.7579 -0.6206
  547MOL0     H73831  10.372   1.239   1.951  0.3254  0.3065  1.6688
  547MOL0     H73832  10.617   1.198   1.927  0.6361 -0.1017  0.8133
  547MOL0     H73833  11.057   1.097   1.746 -0.0412  1.1063  0.1751
  547MOL0     H73834  11.272   1.143   1.658 -2.8210 -0.1843 -1.8814
  547MOL0     H73835  11.488   1.191   1.672 -3.1070  2.0987 -0.8391
  547MOL0     H73836  11.604   1.306   1.722  1.1968 -0.2490  3.1833
  547MOL0     H73837  11.538   1.129   1.881  0.5516  0.5868  1.0129
  547MOL0     H73838  11.386   1.209   1.919 -0.0411  1.7685  1.2848
  547MOL0     H73839  11.507   1.271   2.089 -3.2987 -1.7124 -3.6114
  547MOL0     H73840  11.522   1.417   2.005  0.8886  0.6090  2.9480
  547MOL0     H73841  11.757   1.328   1.903 -0.0089  1.6043  0.3983
  547MOL0     H73842  11.752   1.198   2.016  0.7600  0.9721 -1.7217
  547MOL0     H73843  11.832   1.516   2.269  2.5850  1.7785 -0.6165
  547MOL0     H73844  11.241   1.553   1.828  0.0516  0.5347  0.0924
  547MOL0     H73845  11.018   1.512   1.876  2.0023  2.4815  2.6045
  548MOL0     O73846   3.218   1.766  11.358 -0.2288  0.5196 -0.1609
  548MOL0     C73847   3.287   1.764  11.462 -0.1119 -0.6119  0.2536
  548MOL0     O73848   3.238   1.764  11.590  0.2207  0.1070 -0.3179
  548MOL0     C73849   3.111   1.722  11.621 -0.0063  0.2336  0.0576
  548MOL0     C73850   3.086   1.674  11.747  0.0664 -0.3219  0.3647
  548MOL0     C73851   2.958   1.632  11.783  0.7850 -0.1352 -0.8465
  548MOL0     C73852   2.847   1.641  11.688 -0.8303 -0.1553  0.4208
  548MOL0     O73853   2.724   1.607  11.739 -0.0983 -0.3030 -0.5097
  548MOL0     C73854   2.613   1.662  11.675 -0.0091 -0.3961  0.3624
  548MOL0     C73855   2.483   1.631  11.739 -0.1375 -0.1878 -0.0653
  548MOL0     C73856   2.364   1.721  11.713  0.5806 -0.0653  0.7291
  548MOL0     C73857   2.237   1.629  11.738  0.2224 -0.2124  0.0412
  548MOL0     C73858   2.108   1.709  11.768  0.2129 -0.2431 -0.4260
  548MOL0     C73859   2.006   1.611  11.830 -0.6466  0.2481  0.9808
  548MOL0     C73860   1.865   1.665  11.785 -0.3420  1.4896 -0.9209
  548MOL0     C73861   1.759   1.556  11.808  0.1791 -0.3911  0.2613
  548MOL0     N73862   1.624   1.606  11.775 -0.2871 -0.7539  0.2540
  548MOL0     C73863   1.555   1.694  11.860  0.3252 -0.1026 -0.3496
  548MOL0     C73864   1.430   1.692  11.806  0.0314 -0.7965  0.3974
  548MOL0     C73865   1.314   1.782  11.850 -0.4320  0.2073 -0.1117
  548MOL0     C73866   1.232   1.727  11.963 -0.4517  0.1160 -0.1253
  548MOL0     C73867   1.311   1.707  12.096 -0.6086 -0.7491 -0.1108
  548MOL0     C73868   1.223   1.667  12.213 -0.0290  0.3842 -0.0705
  548MOL0     O73869   1.161   1.542  12.183  0.3932 -0.0814  0.1234
  548MOL0     C73870   1.037   1.524  12.236  0.3907  0.5531 -0.0066
  548MOL0     C73871   1.006   1.549  12.361  0.3637 -0.3845 -0.8013
  548MOL0     C73872   0.873   1.543  12.409  0.3654  0.2635  0.5721
  548MOL0     C73873   0.867   1.563  12.558 -0.2430  0.6789  0.3903
  548MOL0     C73874   0.770   1.505  12.321 -0.2887  0.0173  0.1079
  548MOL0     C73875   0.630   1.500  12.369 -0.8523 -0.2546 -0.1895
  548MOL0     O73876   0.555   1.417  12.291  0.6210  0.3233 -0.0615
  548MOL0     C73877   0.417   1.443  12.291 -0.3617  0.4431  0.5419
  548MOL0     C73878   0.333   1.391  12.389 -0.1584 -0.3509  0.2970
  548MOL0     C73879   0.194   1.416  12.375 -0.2654 -0.5621 -0.4973
  548MOL0     C73880   0.139   1.467  12.252 -0.2609  0.5013 -0.2466
  548MOL0     O73881   0.004   1.483  12.233 -0.3089  0.0051  0.2125
  548MOL0     C73882  -0.057   1.375  12.152  0.3355 -0.4110 -0.2219
  548MOL0     C73883  -0.195   1.425  12.098  0.3250  0.4899 -0.6095
  548MOL0     C73884  -0.294   1.462  12.215  0.1468 -0.8878 -0.1010
  548MOL0     C73885  -0.422   1.500  12.152  0.4076 -0.6061  0.1219
  548MOL0     C73886  -0.538   1.507  12.249 -0.1098  0.1487 -0.3318
  548MOL0     C73887  -0.665   1.558  12.185  0.4882  0.0477  0.4758
  548MOL0     C73888  -0.790   1.529  12.272  0.0538  0.6539  0.3770
  548MOL0     C73889  -0.909   1.551  12.193  0.8270 -0.7677  0.6482
  548MOL0    Cl73890  -0.949   1.723  12.188 -0.1177  0.0267 -0.3675
  548MOL0     C73891   0.227   1.509  12.155  0.6593  0.0639  1.0104
  548MOL0     C73892   0.367   1.489  12.164 -0.1803 -0.0098 -0.0611
  548MOL0     O73893   0.597   1.575  12.459  0.3830 -0.2415 -0.6508
  548MOL0     C73894   0.802   1.466  12.185 -0.8813 -0.1930 -0.0879
  548MOL0     C73895   0.939   1.474  12.144 -0.3031 -0.8902 -0.5523
  548MOL0     N73896   1.416   1.604  11.696  0.4563 -0.6912  0.2849
  548MOL0     N73897   1.537   1.566  11.681 -0.2023 -0.1364  0.0882
  548MOL0     C73898   2.875   1.705  11.567 -0.1432 -0.5081  0.5054
  548MOL0     C73899   3.006   1.738  11.533 -0.3084  0.9814 -0.1947
  548MOL0     C73900   3.433   1.736  11.445 -0.1010 -0.6467  0.7822
  548MOL0     C73901   3.516   1.735  11.553 -1.6662  0.3108  0.3984
  548MOL0     C73902   3.654   1.715  11.531  0.2537 -0.2542 -0.4265
  548MOL0     C73903   3.711   1.720  11.408  0.0462  0.2876  0.3056
  548MOL0     O73904   3.845   1.705  11.408 -0.2469 -0.2675 -0.3768
  548MOL0     C73905   3.917   1.696  11.278 -0.8641  0.2952  0.1527
  548MOL0     C73906   4.058   1.761  11.294 -0.2651 -0.7346  0.9503
  548MOL0     C73907   4.145   1.684  11.396  0.1763 -0.3298  0.0586
  548MOL0     C73908   4.288   1.747  11.407  1.0444  0.0703 -0.1658
  548MOL0     C73909   4.361   1.678  11.511 -1.0079 -0.2073  0.0907
  548MOL0     C73910   4.413   1.616  11.599 -0.8863 -0.0941 -0.7389
  548MOL0     C73911   3.626   1.716  11.295  1.0897 -0.7418  0.1869
  548MOL0     C73912   3.485   1.718  11.315  0.0050 -0.1456  0.3907
  548MOL0     H73913   3.172   1.671  11.813 -0.5188  1.8892  1.3136
  548MOL0     H73914   2.935   1.597  11.884 -0.6016 -1.6487 -1.6255
  548MOL0     H73915   2.621   1.771  11.670 -2.3799 -0.2151 -2.1665
  548MOL0     H73916   2.622   1.622  11.574 -0.2743 -1.4307  0.7365
  548MOL0     H73917   2.466   1.531  11.697  0.5525 -1.5045  2.6164
  548MOL0     H73918   2.493   1.621  11.847  1.5678  1.3870 -0.0432
  548MOL0     H73919   2.372   1.811  11.774  0.3428 -0.0644  0.7595
  548MOL0     H73920   2.367   1.750  11.607  0.3872 -1.6119  0.2718
  548MOL0     H73921   2.221   1.566  11.650 -0.2700  0.2265 -0.1879
  548MOL0     H73922   2.261   1.562  11.821  1.3994  2.2888  1.8417
  548MOL0     H73923   2.127   1.797  11.830 -1.4691  0.0175 -0.2476
  548MOL0     H73924   2.081   1.741  11.667  0.8972 -1.3820 -0.9927
  548MOL0     H73925   2.028   1.509  11.796 -1.2376 -0.4591  2.5804
  548MOL0     H73926   2.012   1.604  11.939  2.0541 -2.0277  0.7960
  548MOL0     H73927   1.842   1.752  11.847 -0.0147 -0.1711  1.6977
  548MOL0     H73928   1.861   1.695  11.680  0.2637  1.4668 -0.9508
  548MOL0     H73929   1.764   1.510  11.907  0.2092  0.0952  0.4886
  548MOL0     H73930   1.784   1.471  11.744 -0.4027 -1.6669  1.6576
  548MOL0     H73931   1.606   1.758  11.931  2.3878 -0.9658 -0.9703
  548MOL0     H73932   1.352   1.883  11.868 -3.6706  1.1759  2.1499
  548MOL0     H73933   1.238   1.780  11.772 -0.6630  2.2755  0.0119
  548MOL0     H73934   1.200   1.625  11.942  4.8875 -2.5145  2.3088
  548MOL0     H73935   1.141   1.786  11.979  0.6148  1.9943 -0.7016
  548MOL0     H73936   1.365   1.801  12.115  2.9042 -2.6190  0.0510
  548MOL0     H73937   1.390   1.632  12.084  1.6899  1.7396 -1.8539
  548MOL0     H73938   1.154   1.750  12.229  1.2187  1.4113  0.1374
  548MOL0     H73939   1.281   1.660  12.306  1.1764  1.3137 -0.7230
  548MOL0     H73940   1.087   1.579  12.426 -0.8389  2.2152 -0.3646
  548MOL0     H73941   0.782   1.508  12.600 -0.1712  0.9023  0.8320
  548MOL0     H73942   0.959   1.531  12.608  0.0917  4.3068  2.3862
  548MOL0     H73943   0.854   1.668  12.585 -0.3290  0.4953  1.0826
  548MOL0     H73944   0.370   1.334  12.474 -3.3915 -2.2953  0.5674
  548MOL0     H73945   0.122   1.393  12.453  0.4293  1.8367  0.9686
  548MOL0     H73946   0.008   1.330  12.076 -0.8810  0.9586 -2.1810
  548MOL0     H73947  -0.074   1.288  12.216  2.0177  0.5233  1.6109
  548MOL0     H73948  -0.179   1.506  12.026  0.2287  1.5714  0.5511
  548MOL0     H73949  -0.245   1.346  12.040 -2.4222  0.5702  1.4305
  548MOL0     H73950  -0.256   1.548  12.271  1.4491 -1.8755  0.5959
  548MOL0     H73951  -0.304   1.374  12.278 -0.3999 -2.1215 -1.8390
  548MOL0     H73952  -0.396   1.595  12.104  0.3456  0.2735  1.7652
  548MOL0     H73953  -0.451   1.422  12.080  1.4981 -2.2712  1.4072
  548MOL0     H73954  -0.516   1.576  12.331 -0.4417  0.4119 -0.4669
  548MOL0     H73955  -0.548   1.405  12.287  1.7041  0.7566  2.0377
  548MOL0     H73956  -0.654   1.666  12.172  0.5831 -0.1051 -0.7542
  548MOL0     H73957  -0.671   1.517  12.084  2.6824 -0.4467  0.5015
  548MOL0     H73958  -0.780   1.603  12.352 -3.7088 -0.8094  2.4457
  548MOL0     H73959  -0.793   1.424  12.302  1.1972  0.7901  1.0315
  548MOL0     H73960  -0.999   1.502  12.233 -2.1435  2.3659 -1.5826
  548MOL0     H73961  -0.909   1.516  12.090  0.1514 -0.0835  0.4059
  548MOL0     H73962   0.182   1.555  12.067  2.4378  2.9113  1.4677
  548MOL0     H73963   0.439   1.512  12.086 -0.8884  1.4966 -0.3078
  548MOL0     H73964   0.726   1.439  12.113 -3.2400 -0.5126  2.3421
  548MOL0     H73965   0.972   1.458  12.042  1.2318 -2.7840  0.1997
  548MOL0     H73966   2.803   1.728  11.489  0.0777 -0.4341  0.3207
  548MOL0     H73967   3.004   1.796  11.441 -1.1793  0.9476 -0.2017
  548MOL0     H73968   3.476   1.748  11.652 -0.1034  2.1960  0.8695
  548MOL0     H73969   3.712   1.723  11.623 -0.0404  0.1201 -0.2695
  548MOL0     H73970   3.935   1.594  11.241  3.8179  0.9910 -0.0997
  548MOL0     H73971   3.869   1.756  11.200  1.3979 -1.8121 -3.1261
  548MOL0     H73972   4.047   1.865  11.328 -0.4407 -0.1154 -0.8798
  548MOL0     H73973   4.112   1.761  11.199 -1.0663 -3.1459  0.4316
  548MOL0     H73974   4.150   1.579  11.369 -0.3274 -0.1393 -0.8071
  548MOL0     H73975   4.081   1.694  11.484 -1.5517  0.7507 -1.2470
  548MOL0     H73976   4.280   1.854  11.427  0.8679  0.0791 -0.2754
  548MOL0     H73977   4.337   1.734  11.310  0.8241  0.3419 -0.3137
  548MOL0     H73978   4.458   1.574  11.687  0.1862 -1.3536 -1.8540
  548MOL0     H73979   3.667   1.695  11.197 -1.1298 -2.8593 -0.3730
  548MOL0     H73980   3.423   1.707  11.227 -2.2846 -0.9241  2.0126
  549MOL0     O73981   2.322   4.021   9.681 -0.2001 -0.4567 -0.2352
  549MOL0     C73982   2.342   4.050   9.566 -0.8760  0.2537  0.0424
  549MOL0     O73983   2.252   4.017   9.462 -1.0640  0.2809  0.4128
  549MOL0     C73984   2.141   3.945   9.499 -0.1717 -0.6488  0.0514
  549MOL0     C73985   2.025   3.999   9.459 -0.2505  0.0086  0.5307
  549MOL0     C73986   1.903   3.935   9.480 -0.7966  0.1541  0.3694
  549MOL0     C73987   1.895   3.814   9.552  0.9966  0.2906  0.0568
  549MOL0     O73988   1.778   3.752   9.598  0.0059 -0.7487 -0.0688
  549MOL0     C73989   1.652   3.818   9.575 -0.7820  0.9221 -0.5517
  549MOL0     C73990   1.560   3.713   9.645  0.6864  0.0576 -0.6590
  549MOL0     C73991   1.408   3.730   9.604 -0.7159 -0.5652  0.3389
  549MOL0     C73992   1.307   3.638   9.669  1.3377  0.6308 -0.2078
  549MOL0     C73993   1.180   3.715   9.710 -0.2951 -0.7152 -0.8316
  549MOL0     C73994   1.089   3.623   9.785  0.3039 -0.5511  0.1908
  549MOL0     C73995   0.985   3.715   9.845 -0.4601 -0.5179  0.5388
  549MOL0     C73996   0.846   3.664   9.841  0.4700 -0.0187 -0.9535
  549MOL0     N73997   0.762   3.745   9.929 -0.0333  0.0320  0.3746
  549MOL0     C73998   0.743   3.885   9.906 -0.5095 -0.0338  0.2161
  549MOL0     C73999   0.678   3.933  10.016 -0.4209 -0.0776  0.1807
  549MOL0     C74000   0.652   4.078  10.044 -0.6501 -0.0449  0.7895
  549MOL0     C74001   0.505   4.117  10.036 -0.4437  0.1546  0.1698
  549MOL0     C74002   0.418   4.022  10.111  0.3079  0.6536  0.0799
  549MOL0     C74003   0.278   4.088  10.137  0.0581  0.6577 -0.4350
  549MOL0     O74004   0.225   4.127  10.009 -0.3675  1.0796  0.1441
  549MOL0     C74005   0.091   4.127   9.986 -0.2972 -0.0510  0.1494
  549MOL0     C74006   0.052   4.113   9.852 -0.3237 -0.1984  0.1519
  549MOL0     C74007  -0.083   4.119   9.805  0.1188  0.8532 -0.1000
  549MOL0     C74008  -0.115   4.117   9.664 -0.0721 -0.0630 -0.0918
  549MOL0     C74009  -0.183   4.119   9.907  0.4136  0.7597 -0.8021
  549MOL0     C74010  -0.333   4.108   9.888  0.2620  0.1603  0.3271
  549MOL0     O74011  -0.394   4.063  10.002 -0.3295  0.4691 -0.4956
  549MOL0     C74012  -0.533   4.077  10.003 -0.2044  0.0043  0.3685
  549MOL0     C74013  -0.604   3.983   9.940  0.3041 -0.1157  0.5132
  549MOL0     C74014  -0.747   3.992   9.955 -0.2422 -0.1294  0.0755
  549MOL0     C74015  -0.806   4.094  10.029  0.8368  0.1805  0.2546
  549MOL0     O74016  -0.941   4.112  10.051  0.1972  0.4439  0.2178
  549MOL0     C74017  -1.033   4.022   9.990 -0.8681  0.8773 -0.4502
  549MOL0     C74018  -1.170   4.093   9.970  0.4473 -0.4049  0.2917
  549MOL0     C74019  -1.267   4.076  10.091 -0.7957 -0.9631 -0.6777
  549MOL0     C74020  -1.412   4.094  10.058  0.9117 -0.3044 -0.8503
  549MOL0     C74021  -1.504   4.044  10.173  0.0913  0.8144 -0.0814
  549MOL0     C74022  -1.492   3.898  10.207 -0.2332  0.3152  0.8408
  549MOL0     C74023  -1.614   3.848  10.298 -0.0704  0.5251  0.0449
  549MOL0     C74024  -1.623   3.694  10.292  0.1868  0.7946  0.1208
  549MOL0    Cl74025  -1.640   3.616  10.121 -0.1175  0.1374  0.0556
  549MOL0     C74026  -0.721   4.184  10.092  0.3965 -0.0568 -0.2639
  549MOL0     C74027  -0.585   4.171  10.079  0.0816 -0.4100  0.2354
  549MOL0     O74028  -0.392   4.144   9.787 -0.1481 -0.2587 -0.4271
  549MOL0     C74029  -0.144   4.135  10.045 -0.2797  0.7114  1.0264
  549MOL0     C74030  -0.008   4.142  10.084  0.6788 -0.6664  0.5038
  549MOL0     N74031   0.672   3.825  10.101  0.4388 -0.0544  0.1083
  549MOL0     N74032   0.715   3.712  10.050 -0.4209 -0.3603 -0.6710
  549MOL0     C74033   2.017   3.756   9.583 -0.8032 -0.3855  0.6732
  549MOL0     C74034   2.144   3.820   9.561 -0.2363 -0.3704 -0.9410
  549MOL0     C74035   2.457   4.139   9.535  0.8887 -0.0125  0.1206
  549MOL0     C74036   2.516   4.218   9.635 -0.0437  0.9385  0.4654
  549MOL0     C74037   2.622   4.306   9.604  1.5026  0.6003  0.2063
  549MOL0     C74038   2.665   4.320   9.475 -0.8813  0.1665  0.1618
  549MOL0     O74039   2.764   4.406   9.436  0.0591  0.1109 -0.2325
  549MOL0     C74040   2.857   4.463   9.535  0.4474  1.2572 -0.6267
  549MOL0     C74041   2.987   4.498   9.447  0.4599 -0.1202 -0.2932
  549MOL0     C74042   3.097   4.572   9.529  1.0662 -0.3913  0.1873
  549MOL0     C74043   3.220   4.591   9.444  0.1373  0.1110 -0.3905
  549MOL0     C74044   3.293   4.469   9.432 -0.0646 -0.1540 -0.3851
  549MOL0     C74045   3.356   4.366   9.424 -0.2021  0.2492  0.0640
  549MOL0     C74046   2.600   4.240   9.373 -1.2526 -0.1169  0.1224
  549MOL0     C74047   2.503   4.151   9.405  0.2426  0.2565  0.3497
  549MOL0     H74048   2.036   4.088   9.397  0.3586 -1.5597 -1.7204
  549MOL0     H74049   1.815   3.990   9.448 -0.9405 -0.5398 -0.4568
  549MOL0     H74050   1.646   3.912   9.630 -5.4079 -0.4217  1.8002
  549MOL0     H74051   1.626   3.832   9.470  2.3307 -0.9809 -1.7368
  549MOL0     H74052   1.577   3.613   9.607 -2.2394  0.0035 -2.1570
  549MOL0     H74053   1.571   3.715   9.754  0.6090  0.6113 -0.6547
  549MOL0     H74054   1.376   3.834   9.616 -2.4180 -0.7664 -1.7668
  549MOL0     H74055   1.390   3.709   9.498 -3.5501  0.3801  0.5364
  549MOL0     H74056   1.282   3.555   9.602  0.4111  0.5817  0.1891
  549MOL0     H74057   1.345   3.595   9.762 -0.8895  0.5372  0.7263
  549MOL0     H74058   1.212   3.798   9.773 -0.6095  0.4939 -2.2144
  549MOL0     H74059   1.126   3.754   9.624 -1.1181 -0.3213 -0.1531
  549MOL0     H74060   1.045   3.553   9.714  0.6274  0.7461 -1.3299
  549MOL0     H74061   1.140   3.571   9.867  1.1387 -0.2523 -0.1254
  549MOL0     H74062   1.007   3.737   9.950 -1.7468  2.0846  0.3348
  549MOL0     H74063   0.993   3.811   9.794  0.9229 -2.1790 -2.6294
  549MOL0     H74064   0.853   3.560   9.873 -0.4908  0.3710  0.6207
  549MOL0     H74065   0.796   3.682   9.745  1.0318 -1.1703 -1.4926
  549MOL0     H74066   0.776   3.938   9.817 -2.4282 -0.0110 -0.5393
  549MOL0     H74067   0.688   4.092  10.147  2.1525 -0.4823 -0.0352
  549MOL0     H74068   0.711   4.141   9.978 -1.7487 -0.2333 -0.4096
  549MOL0     H74069   0.456   4.109   9.939  1.1844  0.9035 -0.7474
  549MOL0     H74070   0.500   4.217  10.078  3.9205 -0.2475  2.1290
  549MOL0     H74071   0.455   4.009  10.213  2.5126 -3.2801 -0.9905
  549MOL0     H74072   0.424   3.918  10.077  1.7689  1.0052 -0.7858
  549MOL0     H74073   0.275   4.164  10.215  1.3070 -2.3508  2.8050
  549MOL0     H74074   0.205   4.017  10.176 -0.7960  1.4287 -0.6112
  549MOL0     H74075   0.133   4.093   9.784  1.4307  0.8059  1.8475
  549MOL0     H74076  -0.034   4.084   9.598 -0.0120  1.8388 -1.0625
  549MOL0     H74077  -0.192   4.040   9.652  0.3801 -0.3187 -1.5439
  549MOL0     H74078  -0.159   4.208   9.621 -2.1544 -1.2374 -0.6297
  549MOL0     H74079  -0.563   3.901   9.883 -1.7655 -0.1576 -1.0172
  549MOL0     H74080  -0.803   3.914   9.906 -1.6482  1.7393 -1.4607
  549MOL0     H74081  -0.992   3.983   9.896  1.6021 -0.0595  0.9272
  549MOL0     H74082  -1.050   3.928  10.043 -0.2263  1.2805  0.4963
  549MOL0     H74083  -1.146   4.200   9.963 -0.2190 -0.2676 -0.0336
  549MOL0     H74084  -1.223   4.053   9.883 -1.2527  1.2648  0.4845
  549MOL0     H74085  -1.239   4.147  10.169  0.0123 -0.8220 -1.0867
  549MOL0     H74086  -1.263   3.974  10.129  0.4666 -0.2272  1.3213
  549MOL0     H74087  -1.434   4.199  10.036 -0.7908 -0.1646  1.2000
  549MOL0     H74088  -1.436   4.044   9.964 -1.3117  1.5338 -1.3672
  549MOL0     H74089  -1.608   4.059  10.139  0.1531 -1.3511 -1.4013
  549MOL0     H74090  -1.477   4.115  10.252 -0.4285  1.7368 -0.7111
  549MOL0     H74091  -1.460   3.846  10.116  0.4872  2.2638 -0.0668
  549MOL0     H74092  -1.408   3.894  10.277  0.2747 -3.2806  0.2006
  549MOL0     H74093  -1.704   3.898  10.260 -0.3808  0.2925  0.4662
  549MOL0     H74094  -1.608   3.887  10.400 -0.5239 -0.5617  0.5029
  549MOL0     H74095  -1.701   3.666  10.364  1.3633  0.8029  1.4264
  549MOL0     H74096  -1.531   3.652  10.331  0.1905  1.3293  0.6935
  549MOL0     H74097  -0.757   4.262  10.158 -0.1521 -1.1818  0.7983
  549MOL0     H74098  -0.511   4.240  10.117  0.4300 -0.9842  0.6225
  549MOL0     H74099  -0.213   4.134  10.129  0.0669 -0.9412  1.3145
  549MOL0     H74100   0.010   4.164  10.188 -0.6024  0.3148  0.5514
  549MOL0     H74101   2.026   3.664   9.640  0.3541 -2.7215 -2.9420
  549MOL0     H74102   2.240   3.780   9.594 -0.6225 -0.4746  0.1075
  549MOL0     H74103   2.480   4.222   9.738  1.0791 -0.2429  0.9311
  549MOL0     H74104   2.674   4.357   9.684  0.4924  0.6868  0.8183
  549MOL0     H74105   2.820   4.555   9.582 -1.0360 -0.3519  1.5758
  549MOL0     H74106   2.889   4.391   9.611  0.1933  1.4872 -0.2986
  549MOL0     H74107   2.958   4.566   9.367  0.0490 -0.9023 -0.8276
  549MOL0     H74108   3.027   4.405   9.405  3.7401 -0.8547  3.7457
  549MOL0     H74109   3.101   4.520   9.625  1.0511 -0.9318 -0.1014
  549MOL0     H74110   3.061   4.675   9.542 -0.0434 -0.6733 -0.4800
  549MOL0     H74111   3.285   4.663   9.495 -0.6556  0.6833 -0.1762
  549MOL0     H74112   3.203   4.622   9.341  3.2211 -2.1698 -1.7753
  549MOL0     H74113   3.419   4.279   9.417 -1.4940 -0.6094 -2.0127
  549MOL0     H74114   2.634   4.255   9.271 -3.5039 -2.6232 -1.1384
  549MOL0     H74115   2.448   4.101   9.326 -1.6025 -0.0623  1.7510
  550MOL0     O74116   4.767   6.428   5.584  0.0414 -0.4731 -0.3024
  550MOL0     C74117   4.779   6.370   5.476 -0.2153 -0.4018  0.1265
  550MOL0     O74118   4.694   6.277   5.423 -0.0886 -0.0946 -0.2145
  550MOL0     C74119   4.574   6.267   5.483 -0.4760 -0.7951  0.0470
  550MOL0     C74120   4.453   6.291   5.416 -0.5654 -0.2133 -0.7898
  550MOL0     C74121   4.339   6.255   5.474 -0.1692  0.2985 -0.2287
  550MOL0     C74122   4.340   6.187   5.593 -0.2567  0.2187 -0.4772
  550MOL0     O74123   4.223   6.138   5.637 -0.3617 -0.1078 -0.4623
  550MOL0     C74124   4.214   6.084   5.774  0.2847  0.1857  0.2357
  550MOL0     C74125   4.066   6.060   5.803 -0.0506  1.0267 -0.1242
  550MOL0     C74126   4.053   6.020   5.950  0.3690  0.3069  0.0397
  550MOL0     C74127   3.922   5.957   5.969  0.2087  0.3863 -0.0206
  550MOL0     C74128   3.892   5.949   6.114  0.3611 -0.7585 -0.1090
  550MOL0     C74129   3.758   5.876   6.135 -0.1665 -0.1745 -0.2548
  550MOL0     C74130   3.725   5.825   6.278 -0.2322  0.4382  0.7551
  550MOL0     C74131   3.586   5.764   6.286 -0.4759 -0.0662 -0.7611
  550MOL0     N74132   3.570   5.636   6.213  0.0855  0.1557  0.2421
  550MOL0     C74133   3.588   5.516   6.276 -0.9199  0.4222  0.2729
  550MOL0     C74134   3.525   5.431   6.198  0.0355 -0.2665 -0.3788
  550MOL0     C74135   3.514   5.288   6.238  0.1359  0.1683  0.7851
  550MOL0     C74136   3.476   5.271   6.384  0.2480  0.4236 -0.2818
  550MOL0     C74137   3.443   5.116   6.413 -0.9370  0.2896  0.0184
  550MOL0     C74138   3.318   5.060   6.342 -0.1667 -0.1418 -0.1100
  550MOL0     O74139   3.305   4.930   6.377  0.1811 -0.8690  0.4910
  550MOL0     C74140   3.175   4.886   6.393  0.3153 -0.0186 -0.1492
  550MOL0     C74141   3.147   4.789   6.484 -0.4046 -0.1086 -1.0216
  550MOL0     C74142   3.015   4.737   6.506 -0.8071  0.4784  0.5551
  550MOL0     C74143   3.014   4.625   6.611  0.2197 -0.3183 -0.5673
  550MOL0     C74144   2.911   4.757   6.412 -0.1054 -0.0743 -0.6583
  550MOL0     C74145   2.784   4.682   6.399 -0.5895  0.4706  0.2875
  550MOL0     O74146   2.685   4.732   6.326 -1.0607 -0.4484  0.4101
  550MOL0     C74147   2.577   4.671   6.283 -0.2266 -0.5248 -0.3128
  550MOL0     C74148   2.570   4.536   6.232 -0.0890  1.0349 -0.2731
  550MOL0     C74149   2.454   4.485   6.170 -0.2963  0.7945 -0.1466
  550MOL0     C74150   2.334   4.562   6.170 -0.5514  0.4331  0.0028
  550MOL0     O74151   2.220   4.512   6.124  0.1898 -0.6712  0.2659
  550MOL0     C74152   2.222   4.380   6.067  0.9598 -0.2533  0.7344
  550MOL0     C74153   2.085   4.344   6.018  0.1940  0.1190 -0.2022
  550MOL0     C74154   2.058   4.405   5.876 -0.3429  0.1083 -0.1048
  550MOL0     C74155   1.905   4.406   5.847  0.4223  0.7839  0.4079
  550MOL0     C74156   1.866   4.454   5.710  0.5384 -0.1510  0.6720
  550MOL0     C74157   1.907   4.355   5.588 -0.6044 -0.5793  0.0968
  550MOL0     C74158   1.854   4.405   5.451 -0.1089  0.4102 -0.0425
  550MOL0     C74159   1.815   4.288   5.358 -0.5855  0.0983 -0.6920
  550MOL0    Cl74160   1.955   4.167   5.341 -0.0210  0.1319  0.2555
  550MOL0     C74161   2.340   4.689   6.231 -0.5524  0.5665 -0.4164
  550MOL0     C74162   2.459   4.744   6.283 -0.5149  0.1114  0.2111
  550MOL0     O74163   2.780   4.576   6.467  0.0882  0.0019  0.1460
  550MOL0     C74164   2.942   4.862   6.323  0.0530 -0.5921  0.0646
  550MOL0     C74165   3.069   4.918   6.306 -0.5274 -0.5634 -0.0779
  550MOL0     N74166   3.490   5.494   6.079  0.4077  0.1251 -0.1288
  550MOL0     N74167   3.520   5.614   6.088 -0.1991 -0.6846 -0.5440
  550MOL0     C74168   4.459   6.169   5.666  0.3079 -1.0929 -0.0657
  550MOL0     C74169   4.578   6.211   5.613 -0.1501  0.1710 -0.3204
  550MOL0     C74170   4.912   6.377   5.413  0.0868 -0.6229  0.3613
  550MOL0     C74171   4.986   6.498   5.406 -0.5788  0.4805 -0.5417
  550MOL0     C74172   5.113   6.502   5.348 -0.0372 -0.6271  0.5090
  550MOL0     C74173   5.179   6.376   5.310  0.1304 -0.0802  0.2181
  550MOL0     O74174   5.303   6.393   5.260 -0.4989  1.1173 -0.5428
  550MOL0     C74175   5.390   6.281   5.277  0.4065  0.2578 -0.6502
  550MOL0     C74176   5.534   6.314   5.238 -0.2141 -0.1058  0.3084
  550MOL0     C74177   5.628   6.340   5.364  0.2441 -0.2138 -0.1334
  550MOL0     C74178   5.756   6.412   5.317  0.5039 -0.3486 -0.0351
  550MOL0     C74179   5.865   6.325   5.269  0.2939  0.0590  0.3669
  550MOL0     C74180   5.968   6.263   5.243  0.6823  1.1391  0.1100
  550MOL0     C74181   5.106   6.259   5.313 -0.0288 -0.0875 -0.1526
  550MOL0     C74182   4.973   6.260   5.357  1.0578 -0.2642  1.0530
  550MOL0     H74183   4.451   6.330   5.315 -5.1854  0.9808 -0.4453
  550MOL0     H74184   4.245   6.271   5.421 -0.3941 -1.2667 -0.3243
  550MOL0     H74185   4.269   5.992   5.794  1.5610  0.7103 -0.7297
  550MOL0     H74186   4.250   6.170   5.832  1.6464  1.2650 -2.0476
  550MOL0     H74187   4.003   6.147   5.782 -0.3458  0.2299 -2.9801
  550MOL0     H74188   4.028   5.977   5.742 -1.0827  0.4694  1.2314
  550MOL0     H74189   4.124   5.944   5.984 -0.0348  0.0912  0.4117
  550MOL0     H74190   4.071   6.105   6.016  1.8553 -0.4896  0.6994
  550MOL0     H74191   3.841   6.011   5.918 -0.1698  0.3713  0.5513
  550MOL0     H74192   3.925   5.859   5.920 -0.7675  0.8716 -1.0844
  550MOL0     H74193   3.968   5.896   6.172  0.5528  1.5503  1.9169
  550MOL0     H74194   3.888   6.051   6.153  0.2354 -0.8795  0.1919
  550MOL0     H74195   3.671   5.931   6.100  0.5114  2.5472  2.0255
  550MOL0     H74196   3.768   5.785   6.074 -3.2671 -0.3281 -0.6492
  550MOL0     H74197   3.795   5.744   6.300 -0.5407 -0.2580 -0.6610
  550MOL0     H74198   3.749   5.902   6.352 -3.4400  2.6806 -0.3361
  550MOL0     H74199   3.507   5.829   6.248 -1.2806  0.2358  1.2928
  550MOL0     H74200   3.570   5.746   6.392 -1.9183  0.1667 -0.9253
  550MOL0     H74201   3.645   5.502   6.368  2.7710 -0.1268 -1.8672
  550MOL0     H74202   3.434   5.238   6.184 -0.7024  2.0003  0.2363
  550MOL0     H74203   3.613   5.243   6.228  1.1721  2.6719 -1.7735
  550MOL0     H74204   3.401   5.346   6.412 -0.0729 -0.8248  2.5338
  550MOL0     H74205   3.553   5.288   6.459 -0.9487 -0.3244  1.1598
  550MOL0     H74206   3.416   5.113   6.519 -1.6036 -1.5596 -0.1762
  550MOL0     H74207   3.533   5.055   6.398 -0.7348  0.5501  0.1398
  550MOL0     H74208   3.337   5.063   6.234 -2.0541 -1.2036 -0.5081
  550MOL0     H74209   3.235   5.125   6.372 -0.5460 -0.3400 -0.7033
  550MOL0     H74210   3.226   4.752   6.550 -0.9395 -1.7258 -1.2598
  550MOL0     H74211   3.103   4.614   6.674  0.3793 -3.4076 -1.1847
  550MOL0     H74212   2.930   4.637   6.679  0.7300 -0.9547  0.1917
  550MOL0     H74213   2.997   4.533   6.553  1.8605  0.2058 -1.9643
  550MOL0     H74214   2.666   4.486   6.231 -0.6897 -0.1978  0.8095
  550MOL0     H74215   2.450   4.384   6.131 -0.8184  1.6607 -2.5282
  550MOL0     H74216   2.296   4.373   5.987 -0.1074  0.0927 -0.3253
  550MOL0     H74217   2.254   4.304   6.139  0.9432  0.1282  1.1454
  550MOL0     H74218   2.077   4.236   6.006  2.5015 -0.6554  3.6358
  550MOL0     H74219   2.002   4.375   6.083  0.3117 -0.7866  0.3881
  550MOL0     H74220   2.106   4.353   5.793  0.1417  0.9463 -0.3561
  550MOL0     H74221   2.089   4.510   5.881  0.3607 -0.1037  0.0414
  550MOL0     H74222   1.858   4.310   5.866 -0.6956  1.9595  4.8463
  550MOL0     H74223   1.853   4.467   5.922  2.2315  0.6512  1.8593
  550MOL0     H74224   1.905   4.556   5.697 -0.2086 -0.0838 -1.6145
  550MOL0     H74225   1.757   4.458   5.702  0.3869 -2.0295  1.4614
  550MOL0     H74226   2.017   4.358   5.586 -0.5921  0.6999  1.1477
  550MOL0     H74227   1.881   4.250   5.601 -1.5458 -0.3955 -0.2298
  550MOL0     H74228   1.933   4.465   5.404  0.6568 -0.4180  0.1500
  550MOL0     H74229   1.771   4.476   5.462  1.3547  1.8417  3.1188
  550MOL0     H74230   1.799   4.319   5.255 -0.2457 -2.4957 -1.6054
  550MOL0     H74231   1.728   4.244   5.408  0.2805  0.6264  1.4096
  550MOL0     H74232   2.252   4.749   6.255  0.6805  1.2098  3.0414
  550MOL0     H74233   2.453   4.843   6.326 -0.2774  1.5009 -2.7134
  550MOL0     H74234   2.870   4.902   6.252  1.8379  1.9632 -0.4380
  550MOL0     H74235   3.088   4.995   6.231  0.7871 -0.2658  0.5429
  550MOL0     H74236   4.471   6.127   5.766 -0.5595 -1.5324 -0.1375
  550MOL0     H74237   4.672   6.201   5.667 -0.3741 -0.2954 -0.0162
  550MOL0     H74238   4.943   6.593   5.435 -1.6919 -0.4664  1.0914
  550MOL0     H74239   5.179   6.587   5.336  2.0987 -2.3596 -1.0512
  550MOL0     H74240   5.397   6.250   5.382  3.2873 -2.1791 -1.4390
  550MOL0     H74241   5.349   6.202   5.213  0.9384 -1.6348  1.2185
  550MOL0     H74242   5.527   6.406   5.179  2.0597 -1.0128 -1.5035
  550MOL0     H74243   5.575   6.239   5.171 -0.3192 -2.7875  3.0067
  550MOL0     H74244   5.638   6.243   5.414 -2.2915 -2.3781 -3.4110
  550MOL0     H74245   5.565   6.397   5.433 -1.3158 -0.5007 -1.2701
  550MOL0     H74246   5.792   6.469   5.404  0.0066  0.3479 -0.2735
  550MOL0     H74247   5.740   6.493   5.245 -0.1893  0.3857  0.9062
  550MOL0     H74248   6.050   6.193   5.236 -1.7681 -2.0591  0.9845
  550MOL0     H74249   5.160   6.172   5.276  3.5042  1.1648  1.6298
  550MOL0     H74250   4.912   6.171   5.370  1.2205 -0.6479 -0.6598
  551MOL0     O74251   6.326   4.744   3.776 -0.2199  0.2516 -0.1289
  551MOL0     C74252   6.389   4.680   3.701  0.7443  0.0477 -0.3125
  551MOL0     O74253   6.378   4.676   3.561  0.0832 -0.3629 -0.6411
  551MOL0     C74254   6.282   4.750   3.495 -0.4140  1.0971 -0.1073
  551MOL0     C74255   6.288   4.739   3.354  0.3750 -0.8440  0.4165
  551MOL0     C74256   6.203   4.806   3.268  0.6927  0.0910  0.3266
  551MOL0     C74257   6.095   4.882   3.326  0.6215 -0.2324 -0.8082
  551MOL0     O74258   6.013   4.949   3.246  0.1731  0.6433  0.2451
  551MOL0     C74259   5.890   5.008   3.308  0.7269 -1.1549 -0.3512
  551MOL0     C74260   5.815   5.070   3.200 -0.6155 -0.7805 -0.3878
  551MOL0     C74261   5.684   5.128   3.241  0.1342 -0.6455  0.0432
  551MOL0     C74262   5.635   5.222   3.131 -0.2249 -0.2325 -0.3198
  551MOL0     C74263   5.495   5.267   3.179  0.0624  0.0498  0.5447
  551MOL0     C74264   5.427   5.325   3.058  0.8308  0.5327  0.4938
  551MOL0     C74265   5.278   5.333   3.065  1.5268  0.0961 -0.6825
  551MOL0     C74266   5.222   5.396   3.198  0.4996  0.1512  0.2427
  551MOL0     N74267   5.074   5.376   3.207 -0.1280  0.6857  0.5245
  551MOL0     C74268   4.989   5.415   3.104  0.0390 -0.2480  0.3499
  551MOL0     C74269   4.871   5.373   3.151  0.0336  1.3664 -0.4422
  551MOL0     C74270   4.742   5.408   3.077  0.2761 -0.0378  0.0880
  551MOL0     C74271   4.624   5.336   3.131 -0.2941 -0.1151  0.1355
  551MOL0     C74272   4.506   5.351   3.034  0.4131 -0.0615  0.9580
  551MOL0     C74273   4.448   5.487   3.069 -0.1374  0.2681  0.7561
  551MOL0     O74274   4.316   5.470   3.016 -0.3938  0.3655  0.2693
  551MOL0     C74275   4.215   5.510   3.107  0.6647  0.1182 -0.0610
  551MOL0     C74276   4.141   5.423   3.185 -0.0141  0.3512 -0.1224
  551MOL0     C74277   4.044   5.472   3.270  0.1884  0.8602 -0.0521
  551MOL0     C74278   3.969   5.365   3.347 -0.8383 -0.0009  0.5198
  551MOL0     C74279   4.011   5.612   3.271 -0.9459  0.1317 -0.0391
  551MOL0     C74280   3.913   5.675   3.357  0.3774  0.2350 -0.0864
  551MOL0     O74281   3.834   5.779   3.309 -0.8043  1.0824 -0.0241
  551MOL0     C74282   3.748   5.849   3.386 -0.0920  0.0109  0.2670
  551MOL0     C74283   3.638   5.908   3.324 -0.3249  0.7148  0.4322
  551MOL0     C74284   3.544   5.985   3.392  0.2706  0.0642  0.6836
  551MOL0     C74285   3.564   6.020   3.524  0.5509  0.3769 -0.5696
  551MOL0     O74286   3.499   6.118   3.587  0.1119 -0.0356 -0.2401
  551MOL0     C74287   3.359   6.149   3.542 -0.4069 -0.1315 -0.8392
  551MOL0     C74288   3.295   6.227   3.642  0.6028  0.3204  0.6494
  551MOL0     C74289   3.169   6.286   3.591  0.3471 -0.9651 -0.5593
  551MOL0     C74290   3.074   6.302   3.709 -0.4351  0.4132  1.0742
  551MOL0     C74291   2.940   6.353   3.662  0.5397 -0.1297 -0.2358
  551MOL0     C74292   2.831   6.352   3.765 -0.0727 -0.1941 -0.3592
  551MOL0     C74293   2.714   6.434   3.710 -0.0227  0.1367 -0.3472
  551MOL0     C74294   2.598   6.463   3.804  0.0826  0.2751 -0.4540
  551MOL0    Cl74295   2.495   6.581   3.701 -0.0670 -0.0090 -0.0890
  551MOL0     C74296   3.682   5.967   3.586  0.7643  0.0499 -0.0792
  551MOL0     C74297   3.768   5.878   3.522  0.2459 -0.2905 -0.4915
  551MOL0     O74298   3.896   5.631   3.468  0.4119 -0.8962  0.0009
  551MOL0     C74299   4.085   5.692   3.182  0.0056 -0.4538 -0.7819
  551MOL0     C74300   4.184   5.642   3.106 -0.8131 -0.3452 -0.2145
  551MOL0     N74301   4.887   5.294   3.262  0.1551  0.1137 -0.0223
  551MOL0     N74302   5.008   5.293   3.284  0.8861  0.1992 -0.1692
  551MOL0     C74303   6.084   4.888   3.466 -0.1713 -0.2067  0.2391
  551MOL0     C74304   6.182   4.828   3.552  0.6980  0.1213  0.4201
  551MOL0     C74305   6.504   4.606   3.758  0.5562 -0.9455 -0.6052
  551MOL0     C74306   6.510   4.591   3.897 -0.0368 -0.3063 -0.0228
  551MOL0     C74307   6.625   4.538   3.961 -0.5329  0.5788 -0.5885
  551MOL0     C74308   6.740   4.503   3.889  0.0148 -0.4268 -0.1141
  551MOL0     O74309   6.844   4.453   3.960 -0.4541  0.2125 -0.5810
  551MOL0     C74310   6.957   4.395   3.904  0.1057 -0.0226  0.5911
  551MOL0     C74311   6.947   4.243   3.919 -0.4691  1.5388  0.7184
  551MOL0     C74312   6.911   4.185   4.055 -0.4617 -0.3696 -0.3552
  551MOL0     C74313   6.766   4.134   4.040 -0.7658 -0.0662  0.3110
  551MOL0     C74314   6.686   4.101   4.161  0.2071 -0.6662  0.5522
  551MOL0     C74315   6.614   4.086   4.252  1.0149  0.0065  0.3570
  551MOL0     C74316   6.744   4.523   3.747 -0.1607 -0.9498  0.4978
  551MOL0     C74317   6.624   4.576   3.688 -0.1218  0.4388  0.7756
  551MOL0     H74318   6.374   4.683   3.318  0.4615 -0.2622 -0.2956
  551MOL0     H74319   6.211   4.793   3.161  1.6714 -0.0011  0.4005
  551MOL0     H74320   5.817   4.939   3.350  0.0241 -2.6342 -3.6715
  551MOL0     H74321   5.923   5.083   3.381  1.6530 -0.2771 -1.6343
  551MOL0     H74322   5.878   5.143   3.148  0.4651 -0.5028  1.2410
  551MOL0     H74323   5.799   4.987   3.130 -2.5482 -1.4064  0.7138
  551MOL0     H74324   5.611   5.050   3.267 -1.5671  0.3141 -1.6154
  551MOL0     H74325   5.688   5.197   3.325 -1.5010  1.9345 -1.8578
  551MOL0     H74326   5.709   5.302   3.132  1.2441 -1.5265  1.4223
  551MOL0     H74327   5.624   5.178   3.032  0.2434 -0.2165 -0.3767
  551MOL0     H74328   5.438   5.179   3.209 -1.5140  0.0578 -2.0942
  551MOL0     H74329   5.492   5.340   3.261  2.3335  2.1008 -1.0629
  551MOL0     H74330   5.477   5.421   3.043  0.2848  0.2599 -4.9584
  551MOL0     H74331   5.447   5.258   2.974 -3.0005 -2.3473  1.5889
  551MOL0     H74332   5.231   5.390   2.984  1.0653  0.2609 -0.3050
  551MOL0     H74333   5.241   5.231   3.058  1.4347 -0.0164  1.1087
  551MOL0     H74334   5.250   5.501   3.205 -0.3100  0.2855  2.0211
  551MOL0     H74335   5.267   5.344   3.284 -1.9792 -1.9725  0.4024
  551MOL0     H74336   5.028   5.475   3.022  2.6967  0.7587  2.2060
  551MOL0     H74337   4.721   5.515   3.085  1.1158  0.2530 -1.3090
  551MOL0     H74338   4.757   5.392   2.970 -0.6551  1.0861 -0.2316
  551MOL0     H74339   4.599   5.389   3.223 -0.2117  3.5261 -1.7208
  551MOL0     H74340   4.639   5.229   3.149 -3.9313 -0.2015  3.8678
  551MOL0     H74341   4.436   5.270   3.056  1.2744 -0.1981  3.6515
  551MOL0     H74342   4.542   5.345   2.931 -0.8307 -6.2248  0.4719
  551MOL0     H74343   4.495   5.569   3.015  0.7986 -2.0019 -2.1425
  551MOL0     H74344   4.454   5.511   3.176  0.4942 -2.3524  1.3708
  551MOL0     H74345   4.157   5.316   3.175  0.6084  0.1691  2.2513
  551MOL0     H74346   3.883   5.337   3.286 -0.5138 -4.2583  1.6801
  551MOL0     H74347   4.033   5.279   3.370  0.5988  0.6017 -0.9490
  551MOL0     H74348   3.924   5.394   3.442 -0.3842  0.5756  0.5688
  551MOL0     H74349   3.622   5.884   3.220 -0.1651 -3.1784  1.1318
  551MOL0     H74350   3.465   6.032   3.335  0.4759  2.2372  2.0784
  551MOL0     H74351   3.368   6.201   3.447  2.3526  1.3819  0.1296
  551MOL0     H74352   3.298   6.061   3.520 -2.8636  0.9869  0.9723
  551MOL0     H74353   3.264   6.168   3.729 -1.6366 -2.6859 -1.9546
  551MOL0     H74354   3.362   6.306   3.679 -0.1753  1.1800  0.2774
  551MOL0     H74355   3.141   6.216   3.512 -0.1410 -0.1141 -1.1583
  551MOL0     H74356   3.180   6.386   3.548  0.5735  0.5857  2.7889
  551MOL0     H74357   3.060   6.219   3.779 -1.5411 -0.4090 -0.0866
  551MOL0     H74358   3.114   6.384   3.770 -0.8596  2.1387 -0.8187
  551MOL0     H74359   2.902   6.297   3.576 -0.5174  0.7637 -0.3750
  551MOL0     H74360   2.962   6.456   3.632  2.0204 -0.2833  0.2265
  551MOL0     H74361   2.798   6.253   3.795  0.3075  0.7259  3.6425
  551MOL0     H74362   2.860   6.393   3.862 -0.1109 -0.7879 -0.0969
  551MOL0     H74363   2.672   6.386   3.621 -1.5193 -0.6863  0.7674
  551MOL0     H74364   2.759   6.528   3.676 -1.3514  0.1594 -2.1446
  551MOL0     H74365   2.630   6.513   3.896  2.0805 -2.9993  0.8075
  551MOL0     H74366   2.547   6.369   3.829 -3.4785  1.2767 -3.1357
  551MOL0     H74367   3.705   6.009   3.683 -0.0863 -0.6788  0.4483
  551MOL0     H74368   3.855   5.841   3.575 -0.1792  0.3127  0.6795
  551MOL0     H74369   4.072   5.800   3.182 -3.2646 -0.7585 -0.8868
  551MOL0     H74370   4.225   5.714   3.035 -1.0450 -0.9733 -1.0032
  551MOL0     H74371   6.011   4.945   3.523  0.5259  1.3538 -0.3718
  551MOL0     H74372   6.154   4.838   3.656 -2.4748 -2.1477 -0.0526
  551MOL0     H74373   6.420   4.608   3.956 -0.1562 -2.6344  0.5746
  551MOL0     H74374   6.630   4.519   4.067  3.1158  2.2121 -0.3186
  551MOL0     H74375   6.969   4.415   3.797 -2.0881  0.3146  0.3642
  551MOL0     H74376   7.050   4.428   3.952  2.2527 -2.4094 -1.5564
  551MOL0     H74377   7.041   4.198   3.884 -0.8970  0.2785  1.1178
  551MOL0     H74378   6.885   4.201   3.839 -2.7530  1.9157  2.2091
  551MOL0     H74379   6.915   4.253   4.140  1.6443 -2.1340  1.0938
  551MOL0     H74380   6.972   4.098   4.083  1.2183  1.0447  0.5261
  551MOL0     H74381   6.766   4.038   3.988 -0.3656 -0.3908  0.9015
  551MOL0     H74382   6.705   4.200   3.978 -3.6220 -0.8506  2.0649
  551MOL0     H74383   6.549   4.077   4.338 -0.9702  1.1595 -0.9349
  551MOL0     H74384   6.832   4.528   3.684 -0.6671  0.7823 -0.1450
  551MOL0     H74385   6.626   4.589   3.580 -2.3353 -2.9107  0.1654
  552MOL0     O74386   4.196   5.915   4.244 -0.2219 -0.4547 -0.5871
  552MOL0     C74387   4.293   5.929   4.174 -0.4150  0.8976 -0.3513
  552MOL0     O74388   4.340   5.836   4.084 -0.6126  0.2319 -0.5390
  552MOL0     C74389   4.277   5.710   4.061 -0.8226  0.0775  0.2939
  552MOL0     C74390   4.277   5.657   3.929  0.6707  0.6275  0.3165
  552MOL0     C74391   4.216   5.535   3.899 -0.9266 -0.1023 -0.3009
  552MOL0     C74392   4.149   5.458   4.006 -0.2420 -1.1961  0.6960
  552MOL0     O74393   4.082   5.336   3.992  0.1284 -0.4418 -0.4159
  552MOL0     C74394   4.079   5.277   3.866 -0.2133 -0.3923  0.4469
  552MOL0     C74395   3.982   5.352   3.766  0.2384  0.4038 -0.1162
  552MOL0     C74396   3.837   5.369   3.819 -0.9948 -0.2710  0.2006
  552MOL0     C74397   3.773   5.494   3.750 -0.3388 -0.9046  0.2613
  552MOL0     C74398   3.627   5.519   3.792  0.0784 -0.0925  0.8711
  552MOL0     C74399   3.556   5.606   3.682  0.1292  0.4704  0.1501
  552MOL0     C74400   3.407   5.584   3.704 -0.7899 -0.1780 -0.1024
  552MOL0     C74401   3.342   5.473   3.625  0.2878  0.0047  0.6175
  552MOL0     N74402   3.206   5.439   3.673 -0.0569 -0.1346 -0.1043
  552MOL0     C74403   3.184   5.363   3.787  0.8668  0.4641  0.7903
  552MOL0     C74404   3.051   5.354   3.792  0.1330  0.2056 -0.7870
  552MOL0     C74405   2.985   5.281   3.903  0.5712 -0.2056 -0.1094
  552MOL0     C74406   2.836   5.303   3.905  0.1797  0.3416 -0.2558
  552MOL0     C74407   2.786   5.231   4.039  0.3102 -0.1886  0.4530
  552MOL0     C74408   2.634   5.215   4.029  0.3060  0.5041 -0.2851
  552MOL0     O74409   2.598   5.095   4.099  0.5880  0.3140 -0.3195
  552MOL0     C74410   2.470   5.100   4.153 -0.5768  0.0742 -0.0668
  552MOL0     C74411   2.367   5.157   4.091  0.6670  0.0975 -0.7899
  552MOL0     C74412   2.231   5.152   4.148  1.0414  0.1318 -0.4901
  552MOL0     C74413   2.116   5.221   4.066  0.4751 -0.1563 -0.3806
  552MOL0     C74414   2.213   5.086   4.269 -0.4977  0.5192  0.5921
  552MOL0     C74415   2.067   5.070   4.326 -0.5235  1.0793 -0.7210
  552MOL0     O74416   1.958   5.141   4.286 -0.1580  0.3336 -0.8429
  552MOL0     C74417   1.835   5.140   4.340  0.0090  0.3286 -0.0870
  552MOL0     C74418   1.781   5.034   4.423 -0.8682 -0.6377 -0.1803
  552MOL0     C74419   1.653   5.044   4.470  0.0079 -0.3561 -0.7122
  552MOL0     C74420   1.571   5.154   4.436 -0.3861 -0.3673  0.3471
  552MOL0     O74421   1.442   5.155   4.483  0.3997 -0.0648 -1.0119
  552MOL0     C74422   1.344   5.196   4.384 -0.7699 -0.3703 -0.0717
  552MOL0     C74423   1.204   5.182   4.439 -0.3868 -0.8931  0.4335
  552MOL0     C74424   1.097   5.239   4.342 -0.4175  0.4921  0.4942
  552MOL0     C74425   0.958   5.205   4.389 -0.0595  0.0955 -0.2283
  552MOL0     C74426   0.856   5.305   4.338  0.4004  0.4868 -0.4984
  552MOL0     C74427   0.699   5.276   4.372 -0.3931 -0.5416  0.4238
  552MOL0     C74428   0.609   5.383   4.290  0.4022  0.1931 -0.2791
  552MOL0     C74429   0.480   5.309   4.237  0.8877 -0.1023 -0.8293
  552MOL0    Cl74430   0.366   5.427   4.174 -0.3992  0.7535 -0.2189
  552MOL0     C74431   1.628   5.261   4.364 -0.1892  0.7831  0.1009
  552MOL0     C74432   1.756   5.255   4.319 -0.3283  0.7384  0.0097
  552MOL0     O74433   2.060   4.978   4.407 -0.0154  0.7157 -0.8586
  552MOL0     C74434   2.326   5.024   4.332 -0.1540  0.0808  0.6114
  552MOL0     C74435   2.453   5.033   4.273 -0.4470 -0.3918  0.0639
  552MOL0     N74436   2.997   5.424   3.679 -0.2874 -0.0398  0.0888
  552MOL0     N74437   3.093   5.483   3.613  0.5390 -0.3557 -0.1251
  552MOL0     C74438   4.158   5.509   4.138  0.6477 -0.7223  0.2209
  552MOL0     C74439   4.214   5.635   4.155  0.1118 -0.0065 -0.2141
  552MOL0     C74440   4.360   6.058   4.173 -0.0341  0.1123 -0.9305
  552MOL0     C74441   4.354   6.139   4.291  0.4460  0.6537  0.6579
  552MOL0     C74442   4.425   6.262   4.297 -0.5222 -0.0486  0.3394
  552MOL0     C74443   4.486   6.311   4.183 -0.4308 -0.8428 -0.5378
  552MOL0     O74444   4.535   6.441   4.202  0.2731 -0.6080 -0.2931
  552MOL0     C74445   4.598   6.507   4.085  0.2811  0.2655  0.2742
  552MOL0     C74446   4.649   6.654   4.107  0.5995  0.4925 -0.3913
  552MOL0     C74447   4.772   6.662   4.195  0.4795  0.5323 -0.4416
  552MOL0     C74448   4.805   6.808   4.237 -0.0150  1.1830 -0.0865
  552MOL0     C74449   4.802   6.893   4.126 -0.1612  0.0670  0.2493
  552MOL0     C74450   4.799   6.978   4.036  0.4330  0.8852 -0.4291
  552MOL0     C74451   4.492   6.234   4.061 -0.2233 -0.3848  0.1242
  552MOL0     C74452   4.434   6.105   4.060 -0.4484  0.1414 -0.3145
  552MOL0     H74453   4.319   5.716   3.848  2.6079 -0.9146  0.1348
  552MOL0     H74454   4.232   5.506   3.796 -0.5484  0.5582 -0.4360
  552MOL0     H74455   4.180   5.271   3.823 -0.5790  2.1688 -0.9792
  552MOL0     H74456   4.042   5.174   3.873  1.6339 -1.0880  0.4680
  552MOL0     H74457   4.034   5.445   3.743 -0.5678  1.0748  0.7031
  552MOL0     H74458   3.974   5.301   3.670 -0.9653  1.2778 -0.4935
  552MOL0     H74459   3.780   5.284   3.782  0.9163 -1.9733  0.9292
  552MOL0     H74460   3.825   5.388   3.926 -3.2211  1.8707 -0.3284
  552MOL0     H74461   3.827   5.585   3.778 -0.8643 -0.8389  1.0989
  552MOL0     H74462   3.768   5.479   3.642 -0.3080 -0.4602  0.1978
  552MOL0     H74463   3.582   5.420   3.787  0.2693 -0.1440 -0.2835
  552MOL0     H74464   3.607   5.578   3.882  0.0657  0.4341  0.5271
  552MOL0     H74465   3.583   5.711   3.695  0.4421  0.1566  2.3437
  552MOL0     H74466   3.585   5.572   3.582  1.5123  0.0716  0.6633
  552MOL0     H74467   3.386   5.558   3.808  1.1617 -0.1779  0.3309
  552MOL0     H74468   3.345   5.671   3.678 -2.6226 -1.3016  0.3092
  552MOL0     H74469   3.401   5.382   3.614 -1.3243 -1.1040  0.7548
  552MOL0     H74470   3.337   5.515   3.524  2.6731  1.2151  0.9414
  552MOL0     H74471   3.264   5.317   3.845  0.7802 -1.5191 -0.5606
  552MOL0     H74472   2.996   5.176   3.874  0.5135 -0.0219 -0.8218
  552MOL0     H74473   3.030   5.292   4.001 -0.1871  2.6664  0.0040
  552MOL0     H74474   2.792   5.259   3.816 -2.2897  2.9416 -0.4517
  552MOL0     H74475   2.819   5.411   3.897  0.2196  0.2887 -1.0738
  552MOL0     H74476   2.806   5.306   4.116 -3.5018  5.2055 -3.0504
  552MOL0     H74477   2.834   5.135   4.059 -0.6001 -0.7273  0.1592
  552MOL0     H74478   2.609   5.203   3.923 -0.8957 -0.6534  0.1043
  552MOL0     H74479   2.596   5.309   4.071 -2.0497 -0.1685 -0.8014
  552MOL0     H74480   2.394   5.214   4.003  2.3645 -1.6484 -1.4643
  552MOL0     H74481   2.158   5.264   3.974 -1.6826  4.1962  0.4122
  552MOL0     H74482   2.050   5.141   4.033 -0.2579  0.5418 -0.6127
  552MOL0     H74483   2.060   5.304   4.111 -2.1024 -1.4413 -1.0506
  552MOL0     H74484   1.842   4.945   4.433 -2.3925 -1.7381 -0.3254
  552MOL0     H74485   1.612   4.961   4.526 -0.7410  0.6174  0.2228
  552MOL0     H74486   1.363   5.300   4.359  0.6933 -0.3166  1.0691
  552MOL0     H74487   1.350   5.129   4.298  0.1980 -0.3085 -0.0648
  552MOL0     H74488   1.182   5.077   4.465 -1.4251 -0.4920  1.2629
  552MOL0     H74489   1.202   5.236   4.534 -1.4214  1.1638 -0.7061
  552MOL0     H74490   1.112   5.204   4.240 -1.9104 -0.5890  0.6068
  552MOL0     H74491   1.102   5.348   4.339  0.9927  0.4301 -2.4879
  552MOL0     H74492   0.935   5.105   4.351  0.6885 -0.3110  0.3601
  552MOL0     H74493   0.960   5.199   4.498  2.2043 -2.5760 -0.3271
  552MOL0     H74494   0.860   5.312   4.229  1.5670 -1.5144 -0.6234
  552MOL0     H74495   0.879   5.399   4.390 -2.8224 -0.2562  2.6860
  552MOL0     H74496   0.681   5.172   4.346  1.3039 -1.3152  2.1633
  552MOL0     H74497   0.671   5.295   4.476 -1.9618 -0.1714 -0.0299
  552MOL0     H74498   0.655   5.419   4.197  1.5453 -1.8465 -0.5770
  552MOL0     H74499   0.572   5.453   4.364 -0.8905 -1.3114  0.5516
  552MOL0     H74500   0.431   5.259   4.320  1.8765 -0.8719 -0.6909
  552MOL0     H74501   0.505   5.232   4.164 -0.6974 -0.4709 -1.0172
  552MOL0     H74502   1.577   5.356   4.356  2.5608  2.6467  2.4317
  552MOL0     H74503   1.793   5.340   4.263  3.4623 -1.4228 -1.1285
  552MOL0     H74504   2.309   4.969   4.423  2.2873 -0.2669  0.9143
  552MOL0     H74505   2.538   4.987   4.322  2.8548  3.0319 -1.9278
  552MOL0     H74506   4.121   5.453   4.222  0.4530 -1.1423 -0.1410
  552MOL0     H74507   4.204   5.673   4.256 -2.5852 -0.7028 -0.1450
  552MOL0     H74508   4.291   6.097   4.369  0.6446 -3.4154 -1.0882
  552MOL0     H74509   4.432   6.327   4.384  0.6980  3.1633 -1.9826
  552MOL0     H74510   4.688   6.456   4.048  0.3711 -0.6685  1.7225
  552MOL0     H74511   4.514   6.506   4.015  0.0202 -4.4892  0.3504
  552MOL0     H74512   4.571   6.716   4.152  0.7607  2.0897 -2.1921
  552MOL0     H74513   4.675   6.709   4.016  1.9626 -1.6328 -1.3594
  552MOL0     H74514   4.857   6.622   4.138 -0.4996 -0.1001 -1.4964
  552MOL0     H74515   4.755   6.611   4.290  0.1618  0.2362 -0.6520
  552MOL0     H74516   4.907   6.799   4.277 -0.6968  1.3700  1.7852
  552MOL0     H74517   4.731   6.821   4.316  1.0780 -1.8951  1.5894
  552MOL0     H74518   4.787   7.059   3.966  0.7370  1.0620 -0.2800
  552MOL0     H74519   4.540   6.285   3.978 -0.3144 -0.7066 -0.1275
  552MOL0     H74520   4.443   6.039   3.975  2.9574 -1.2558  0.9441
  553MOL0     O74521   4.212   4.398   7.165  0.5222  0.5841  0.1320
  553MOL0     C74522   4.157   4.502   7.149  0.3926  0.2075 -0.2465
  553MOL0     O74523   4.029   4.516   7.100 -0.9402 -0.1643  0.5585
  553MOL0     C74524   3.943   4.414   7.077  0.3865 -0.4330  0.8901
  553MOL0     C74525   3.953   4.282   7.128  0.5388 -0.8694  0.0905
  553MOL0     C74526   3.842   4.204   7.129  0.1623 -0.3277  0.4907
  553MOL0     C74527   3.724   4.248   7.074  0.0690 -0.0647 -0.8056
  553MOL0     O74528   3.620   4.162   7.059  0.4773  0.0993 -0.1108
  553MOL0     C74529   3.558   4.129   7.181  0.6175 -0.2631 -0.6609
  553MOL0     C74530   3.466   4.006   7.152  0.0424 -0.6308  0.1172
  553MOL0     C74531   3.361   4.039   7.047 -0.5021  0.2309 -0.7311
  553MOL0     C74532   3.229   3.972   7.068 -0.2501  0.4732  0.7235
  553MOL0     C74533   3.164   4.000   7.210  0.3997 -0.8659 -0.0316
  553MOL0     C74534   3.015   3.993   7.201 -0.2290  0.0319  0.0961
  553MOL0     C74535   2.948   4.129   7.157  0.5058 -0.2248  0.2992
  553MOL0     C74536   3.028   4.226   7.068  0.3391 -0.2803  0.7669
  553MOL0     N74537   2.957   4.346   7.035 -0.8325 -0.5452 -0.1865
  553MOL0     C74538   2.823   4.358   7.017 -0.6598 -0.0488 -0.5318
  553MOL0     C74539   2.798   4.494   7.001  0.0627 -0.4794  0.8749
  553MOL0     C74540   2.659   4.536   6.999  0.4865 -0.0249 -1.2069
  553MOL0     C74541   2.570   4.538   6.871  0.0193 -0.0011 -0.3882
  553MOL0     C74542   2.642   4.626   6.777  0.6823  0.0170 -0.2968
  553MOL0     C74543   2.545   4.681   6.667  0.3638 -0.1116 -0.1137
  553MOL0     O74544   2.452   4.767   6.735  0.3359  0.4594  0.2898
  553MOL0     C74545   2.329   4.784   6.681  0.9868  0.2594 -0.0352
  553MOL0     C74546   2.256   4.889   6.734 -0.4040  0.6394  0.5259
  553MOL0     C74547   2.127   4.915   6.695 -0.4663  0.0871  0.1978
  553MOL0     C74548   2.062   5.019   6.776 -0.0641  0.0294 -0.6513
  553MOL0     C74549   2.067   4.856   6.580 -0.4852  0.8007  0.0595
  553MOL0     C74550   1.940   4.878   6.519 -0.8952 -0.0846 -0.0032
  553MOL0     O74551   1.941   4.854   6.383 -0.6954 -0.0900 -0.0277
  553MOL0     C74552   1.832   4.874   6.302  0.0166  0.9622 -0.2243
  553MOL0     C74553   1.725   4.964   6.320  0.1220 -0.3505 -0.2285
  553MOL0     C74554   1.630   4.993   6.215 -0.2772  0.6910  0.9165
  553MOL0     C74555   1.648   4.921   6.092 -0.6401 -0.2036 -0.7322
  553MOL0     O74556   1.567   4.940   5.991  0.4070  0.4748 -0.2371
  553MOL0     C74557   1.457   5.027   5.991  0.3345 -0.8787  0.0204
  553MOL0     C74558   1.372   4.989   5.871  0.3754  0.2969  0.1369
  553MOL0     C74559   1.252   5.081   5.862 -0.6434  0.4729  0.8723
  553MOL0     C74560   1.131   5.026   5.795 -0.6322  0.2980  0.4555
  553MOL0     C74561   1.020   5.123   5.783  0.0062  0.6815 -0.8047
  553MOL0     C74562   0.914   5.133   5.902 -0.3634  1.5386  0.2032
  553MOL0     C74563   0.814   5.245   5.866  1.6335 -0.0859  0.3666
  553MOL0     C74564   0.736   5.282   5.992 -0.2678 -0.3517  0.3480
  553MOL0    Cl74565   0.671   5.140   6.083  0.0528  0.1427  0.2876
  553MOL0     C74566   1.760   4.840   6.070  0.6515 -0.3871  0.3163
  553MOL0     C74567   1.845   4.813   6.178 -0.3065 -0.1966 -0.5273
  553MOL0     O74568   1.847   4.910   6.589  0.4561 -0.2574 -0.1459
  553MOL0     C74569   2.146   4.760   6.518  0.1603  0.0486  0.3915
  553MOL0     C74570   2.273   4.727   6.567 -0.2911  0.7795 -0.0388
  553MOL0     N74571   2.915   4.555   7.005 -0.4329  0.0959  0.0108
  553MOL0     N74572   3.013   4.470   7.025 -0.1129 -0.8305  0.2253
  553MOL0     C74573   3.710   4.376   7.025  0.5468  0.1536 -0.9315
  553MOL0     C74574   3.822   4.457   7.026 -0.8808  0.3346  0.1030
  553MOL0     C74575   4.242   4.617   7.188  0.3029  0.3335  0.1280
  553MOL0     C74576   4.378   4.611   7.151 -0.3225 -0.1776 -1.1713
  553MOL0     C74577   4.460   4.726   7.165  0.3340  0.8302 -0.0190
  553MOL0     C74578   4.404   4.843   7.208  0.0099  1.1478  0.4280
  553MOL0     O74579   4.493   4.951   7.207  0.1070  0.0498 -0.1188
  553MOL0     C74580   4.465   5.055   7.111  0.0438 -0.0163  0.2933
  553MOL0     C74581   4.586   5.115   7.048 -0.6771  0.0249  0.0168
  553MOL0     C74582   4.634   5.042   6.923 -0.3379 -0.8448 -0.7455
  553MOL0     C74583   4.779   5.059   6.905  0.2552  1.0260  0.1222
  553MOL0     C74584   4.819   5.192   6.856 -0.1805  0.2580 -0.4452
  553MOL0     C74585   4.869   5.294   6.818 -0.4838 -0.0766  0.3818
  553MOL0     C74586   4.265   4.855   7.227  0.1138  0.5820  0.2324
  553MOL0     C74587   4.187   4.741   7.224  0.3529  1.7165 -0.0020
  553MOL0     H74588   4.039   4.243   7.182 -0.6842  0.9993  3.7028
  553MOL0     H74589   3.852   4.109   7.180 -0.7228 -0.4768  0.3925
  553MOL0     H74590   3.643   4.087   7.236  1.9540  2.9412 -0.0973
  553MOL0     H74591   3.505   4.210   7.233 -0.7905  1.1550 -4.0227
  553MOL0     H74592   3.529   3.928   7.107  0.4439  1.1559 -2.6686
  553MOL0     H74593   3.421   3.977   7.247 -0.4289 -0.6480 -0.1069
  553MOL0     H74594   3.346   4.147   7.043  3.8509  1.3217  3.5187
  553MOL0     H74595   3.399   4.011   6.948 -1.2884 -0.2120 -0.9134
  553MOL0     H74596   3.158   4.000   6.990 -1.0517 -0.1672  1.2037
  553MOL0     H74597   3.243   3.864   7.053  1.0287  0.3304  2.5895
  553MOL0     H74598   3.200   3.921   7.278 -1.4813 -1.2404  0.5830
  553MOL0     H74599   3.188   4.093   7.263 -1.1237 -2.3843  3.6938
  553MOL0     H74600   2.987   3.916   7.129  2.2135 -2.3795  1.5199
  553MOL0     H74601   2.962   3.961   7.291 -3.1188 -0.6080 -1.6937
  553MOL0     H74602   2.856   4.106   7.101  0.2986  0.8857  0.1512
  553MOL0     H74603   2.914   4.182   7.247  1.9522  0.9049  0.2152
  553MOL0     H74604   3.052   4.185   6.969 -1.0458  2.4071 -0.7923
  553MOL0     H74605   3.126   4.241   7.114 -0.8653  2.5455  2.6665
  553MOL0     H74606   2.754   4.275   7.009 -1.0084 -0.1460  2.2961
  553MOL0     H74607   2.610   4.479   7.079  0.3974 -0.2579 -1.4265
  553MOL0     H74608   2.655   4.630   7.055 -1.2529  0.3584 -1.9016
  553MOL0     H74609   2.470   4.572   6.902 -0.7681  0.5259 -3.2000
  553MOL0     H74610   2.561   4.439   6.825  1.1780 -0.9513  1.3358
  553MOL0     H74611   2.727   4.566   6.744  0.4327 -1.1882  1.1856
  553MOL0     H74612   2.687   4.717   6.819  1.6262 -0.5494 -0.0567
  553MOL0     H74613   2.507   4.595   6.611  3.6401 -0.8551 -1.3792
  553MOL0     H74614   2.592   4.745   6.592  0.9416 -0.2840  0.0978
  553MOL0     H74615   2.287   4.941   6.824 -3.1995  2.6908  0.4232
  553MOL0     H74616   1.967   4.976   6.809  0.6330 -1.9016 -1.0636
  553MOL0     H74617   2.125   5.050   6.860 -1.0737  0.1877  0.0717
  553MOL0     H74618   2.033   5.107   6.717 -0.8018 -1.3019 -2.3366
  553MOL0     H74619   1.713   5.027   6.408 -0.6726  1.2979 -1.4660
  553MOL0     H74620   1.550   5.058   6.248 -0.7164  0.2807  0.6790
  553MOL0     H74621   1.398   5.013   6.082  1.6650  0.0827  1.0618
  553MOL0     H74622   1.482   5.133   5.981 -0.8491 -0.6138 -0.3795
  553MOL0     H74623   1.430   4.989   5.778  0.6107 -0.6893  0.2701
  553MOL0     H74624   1.346   4.883   5.877  0.1336  0.2834 -1.0436
  553MOL0     H74625   1.291   5.162   5.799  1.4742 -1.4034 -0.4047
  553MOL0     H74626   1.215   5.122   5.956  1.6543  0.5340  1.8223
  553MOL0     H74627   1.171   5.007   5.695 -1.3551  2.2118 -0.2490
  553MOL0     H74628   1.097   4.927   5.825 -0.0271  1.1231  4.3731
  553MOL0     H74629   0.964   5.097   5.692 -0.4345 -0.1362 -0.3028
  553MOL0     H74630   1.064   5.221   5.762  1.8444 -0.3648 -2.0930
  553MOL0     H74631   0.862   5.037   5.907  2.5714 -0.2719 -0.9339
  553MOL0     H74632   0.970   5.154   5.994 -0.0820  1.8965 -0.0465
  553MOL0     H74633   0.747   5.217   5.785  2.9414  1.8311 -1.4858
  553MOL0     H74634   0.874   5.331   5.834  2.0802  0.0127  1.4222
  553MOL0     H74635   0.648   5.346   5.979  0.5821  0.2658 -4.3253
  553MOL0     H74636   0.809   5.328   6.058 -1.0453  0.7050  0.5053
  553MOL0     H74637   1.772   4.790   5.975  0.6032  0.9263 -0.3996
  553MOL0     H74638   1.936   4.756   6.162 -0.7539 -0.1204 -4.1286
  553MOL0     H74639   2.128   4.715   6.421  3.8324 -2.5428  0.6965
  553MOL0     H74640   2.331   4.654   6.511  0.4403  0.2916  1.3108
  553MOL0     H74641   3.616   4.411   6.983 -2.0198  1.2184  4.6216
  553MOL0     H74642   3.816   4.560   6.993  0.5381  0.8899  1.4420
  553MOL0     H74643   4.424   4.518   7.118 -1.0203 -1.6130  1.5875
  553MOL0     H74644   4.565   4.716   7.140 -0.0630 -1.1526 -1.0693
  553MOL0     H74645   4.405   5.011   7.031  2.1186 -1.4641 -0.5335
  553MOL0     H74646   4.417   5.129   7.177  1.2958 -1.6128  3.1602
  553MOL0     H74647   4.664   5.132   7.123  1.2323  0.3318 -1.9527
  553MOL0     H74648   4.569   5.214   7.004  4.3988  0.7318 -0.8930
  553MOL0     H74649   4.580   5.067   6.831  1.0346 -0.1471 -1.3976
  553MOL0     H74650   4.614   4.936   6.940  2.2902 -0.9904  2.5150
  553MOL0     H74651   4.800   4.983   6.829  2.3386 -0.8959  2.4646
  553MOL0     H74652   4.835   5.033   6.995 -1.5008 -1.4547  0.5921
  553MOL0     H74653   4.915   5.380   6.772 -1.0338 -0.1862 -0.3912
  553MOL0     H74654   4.212   4.950   7.232  0.3823  0.8552 -1.3862
  553MOL0     H74655   4.084   4.745   7.258  0.2807 -1.5720  0.5018
  554MOL0     O74656   6.195  10.471   3.933 -0.4558 -0.5830 -0.4509
  554MOL0     C74657   6.082  10.454   3.961 -0.0301 -0.3216  0.0044
  554MOL0     O74658   6.039  10.364   4.059  0.1811  0.2715  0.5949
  554MOL0     C74659   6.120  10.280   4.133 -0.3134  0.3511 -0.1108
  554MOL0     C74660   6.063  10.154   4.155  0.3273 -0.8752  0.2136
  554MOL0     C74661   6.131  10.050   4.223 -0.8856 -0.6915  0.2001
  554MOL0     C74662   6.261  10.066   4.278  0.3686  0.5983 -0.9159
  554MOL0     O74663   6.351   9.979   4.343  0.2621  0.8850  0.3585
  554MOL0     C74664   6.315   9.835   4.357 -0.0210 -0.0754  1.0775
  554MOL0     C74665   6.427   9.761   4.422 -0.6084  0.4450  0.3006
  554MOL0     C74666   6.559   9.787   4.340  0.2182  0.3199 -0.3738
  554MOL0     C74667   6.668   9.691   4.363  0.3034  0.3395 -0.3795
  554MOL0     C74668   6.791   9.729   4.263 -0.1860  0.4475 -0.1947
  554MOL0     C74669   6.880   9.840   4.306  0.1985 -0.6621 -0.5657
  554MOL0     C74670   6.945   9.819   4.448 -0.0203  0.1698  0.4475
  554MOL0     C74671   7.033   9.933   4.479  0.5941 -0.6132  0.0583
  554MOL0     N74672   6.948  10.041   4.514  0.4021  0.5400 -0.3337
  554MOL0     C74673   6.868  10.058   4.628 -1.0194  0.3723 -0.0399
  554MOL0     C74674   6.799  10.175   4.619  0.4912 -0.1498 -0.0733
  554MOL0     C74675   6.735  10.240   4.733 -0.5717 -0.6912  0.0082
  554MOL0     C74676   6.664  10.154   4.833  0.3066 -0.7149  0.1716
  554MOL0     C74677   6.542  10.081   4.765 -0.4420  0.3353  0.1582
  554MOL0     C74678   6.441  10.188   4.716 -0.1178 -0.5379  0.3162
  554MOL0     O74679   6.383  10.264   4.823 -0.6901  0.4879 -0.6630
  554MOL0     C74680   6.344  10.389   4.787 -0.2187 -0.4517 -0.8856
  554MOL0     C74681   6.423  10.506   4.800  0.4617 -0.3446  0.0519
  554MOL0     C74682   6.374  10.639   4.775 -0.6767  0.4164  0.2534
  554MOL0     C74683   6.484  10.743   4.799 -0.5395  0.6659  0.2301
  554MOL0     C74684   6.247  10.659   4.723  0.1799  0.9713 -0.4522
  554MOL0     C74685   6.191  10.790   4.697 -0.7199 -0.4125 -0.3316
  554MOL0     O74686   6.079  10.785   4.631  0.0439 -0.4149 -0.0606
  554MOL0     C74687   6.049  10.895   4.557  1.0872  0.2468  0.6558
  554MOL0     C74688   6.141  10.955   4.469 -0.0507  0.3626 -0.8556
  554MOL0     C74689   6.111  11.070   4.405  0.7507 -0.5032  0.8948
  554MOL0     C74690   5.985  11.129   4.414  0.2350 -0.1021  0.5194
  554MOL0     O74691   5.955  11.241   4.338 -0.5413  0.0358  0.4585
  554MOL0     C74692   5.826  11.299   4.344  0.7232  0.4120 -0.3054
  554MOL0     C74693   5.805  11.419   4.254  0.4712  0.5423 -0.1090
  554MOL0     C74694   5.896  11.539   4.294  0.4646  0.7709  0.3061
  554MOL0     C74695   5.859  11.652   4.206  0.5952 -0.8150  0.8380
  554MOL0     C74696   5.917  11.785   4.252 -0.3708  0.5547  0.6253
  554MOL0     C74697   5.857  11.907   4.186  0.3227 -0.1293 -0.2641
  554MOL0     C74698   5.941  12.033   4.208  0.7982  0.0836 -0.4843
  554MOL0     C74699   5.891  12.148   4.119 -0.3087 -0.3496 -0.8010
  554MOL0    Cl74700   6.019  12.284   4.116  0.4036  0.1513  0.5082
  554MOL0     C74701   5.888  11.069   4.496  0.2359 -0.7471 -0.4769
  554MOL0     C74702   5.923  10.955   4.573 -0.0444 -0.6963  0.4131
  554MOL0     O74703   6.244  10.886   4.755  0.4048 -0.3302  0.3913
  554MOL0     C74704   6.186  10.542   4.677  0.3629  0.9187 -0.6684
  554MOL0     C74705   6.222  10.413   4.724 -0.8747 -0.3061  1.0896
  554MOL0     N74706   6.837  10.229   4.497  1.0474  0.2847 -0.5062
  554MOL0     N74707   6.930  10.151   4.440  0.0111 -0.4002  0.0542
  554MOL0     C74708   6.318  10.191   4.246  0.0903 -0.7674 -0.0649
  554MOL0     C74709   6.251  10.296   4.178 -0.2420  0.0828  0.9730
  554MOL0     C74710   5.972  10.524   3.887  0.1233 -0.1593  0.3345
  554MOL0     C74711   5.988  10.595   3.766  0.0179 -0.6905  0.1172
  554MOL0     C74712   5.879  10.666   3.701 -0.4994 -0.2316 -0.6224
  554MOL0     C74713   5.752  10.666   3.758  0.5303 -0.1612 -0.9690
  554MOL0     O74714   5.646  10.729   3.699 -0.1322  0.1817 -0.1290
  554MOL0     C74715   5.663  10.834   3.606 -0.5942  0.5281  1.1797
  554MOL0     C74716   5.523  10.878   3.566  0.2034 -0.1857 -0.0339
  554MOL0     C74717   5.525  11.011   3.482  0.0613  0.3442  0.3662
  554MOL0     C74718   5.588  11.011   3.345 -0.2541  0.2989  0.5832
  554MOL0     C74719   5.537  10.900   3.261  0.2994  0.4419  0.1104
  554MOL0     C74720   5.503  10.822   3.168  0.6114 -1.0002  0.4397
  554MOL0     C74721   5.729  10.597   3.876 -0.0519 -0.3575 -0.5486
  554MOL0     C74722   5.841  10.520   3.929 -0.8775  0.6325  1.1490
  554MOL0     H74723   5.968  10.126   4.110  0.6565  1.1198 -1.9098
  554MOL0     H74724   6.100   9.946   4.226  1.2152 -1.4922 -2.2956
  554MOL0     H74725   6.234   9.837   4.430 -1.9901  5.9066 -0.7449
  554MOL0     H74726   6.291   9.806   4.255 -2.4985  1.8709  1.0363
  554MOL0     H74727   6.429   9.785   4.528 -2.3961 -0.3169  0.5333
  554MOL0     H74728   6.408   9.655   4.406  0.5301  0.3728 -0.8220
  554MOL0     H74729   6.527   9.775   4.236 -3.9680 -1.2451  0.8792
  554MOL0     H74730   6.599   9.887   4.359  0.0314  0.4439 -0.6207
  554MOL0     H74731   6.697   9.691   4.469  0.1328 -0.8553 -0.3207
  554MOL0     H74732   6.632   9.592   4.335 -1.4278  1.0145 -0.6703
  554MOL0     H74733   6.856   9.641   4.258 -2.1442 -1.0077 -2.5284
  554MOL0     H74734   6.751   9.754   4.164  2.1650  0.6632 -1.1560
  554MOL0     H74735   6.958   9.854   4.230  0.2036 -0.6797 -0.5632
  554MOL0     H74736   6.825   9.934   4.315  0.7188 -0.3369 -0.6953
  554MOL0     H74737   6.868   9.817   4.525 -1.0195  1.1635 -0.4932
  554MOL0     H74738   7.010   9.732   4.458  0.6342  0.5362 -0.4811
  554MOL0     H74739   7.094   9.957   4.392 -2.1970  0.2283 -1.7771
  554MOL0     H74740   7.100   9.915   4.564 -1.3911  2.4218  2.5308
  554MOL0     H74741   6.868   9.979   4.703  1.1346 -1.0402 -1.4105
  554MOL0     H74742   6.804  10.298   4.795  0.8528  0.0854 -2.1961
  554MOL0     H74743   6.678  10.320   4.684 -0.0907  0.5201  1.3331
  554MOL0     H74744   6.626  10.213   4.916 -1.5481  2.5248 -2.7230
  554MOL0     H74745   6.740  10.082   4.866  1.4050  1.0282  1.5855
  554MOL0     H74746   6.499  10.013   4.839 -2.0168  0.0617 -0.9513
  554MOL0     H74747   6.575  10.021   4.680  3.2429  2.9828 -0.5461
  554MOL0     H74748   6.359  10.133   4.670 -0.0761 -1.7217  1.5929
  554MOL0     H74749   6.480  10.254   4.638 -2.8567  1.1468  0.2473
  554MOL0     H74750   6.523  10.485   4.838  0.2696 -1.2696  0.0770
  554MOL0     H74751   6.492  10.813   4.715  4.1778 -0.6443 -0.7408
  554MOL0     H74752   6.464  10.805   4.887  3.7407  0.6200  1.4699
  554MOL0     H74753   6.586  10.706   4.815  0.6984  4.1915  1.4207
  554MOL0     H74754   6.246  10.929   4.454  1.2944  4.5848 -0.0336
  554MOL0     H74755   6.183  11.113   4.336 -0.0287 -0.0333  0.3614
  554MOL0     H74756   5.756  11.223   4.308  1.2101  0.0272 -0.4449
  554MOL0     H74757   5.810  11.342   4.443  2.4980  3.4085 -1.1823
  554MOL0     H74758   5.839  11.388   4.154 -0.2949 -0.4978 -0.0509
  554MOL0     H74759   5.698  11.440   4.260  0.1372 -0.8563 -0.7435
  554MOL0     H74760   6.004  11.521   4.291  0.5161  1.1038  0.1152
  554MOL0     H74761   5.872  11.560   4.398 -0.9693 -1.4769  0.4934
  554MOL0     H74762   5.893  11.631   4.104 -0.6358  0.5116  0.1138
  554MOL0     H74763   5.751  11.665   4.198  0.3548 -2.3800  1.2278
  554MOL0     H74764   6.023  11.767   4.232 -0.5139  0.6050 -0.2136
  554MOL0     H74765   5.905  11.800   4.360  1.4644  0.1969  0.9152
  554MOL0     H74766   5.852  11.892   4.078  0.8842  1.4305 -0.5402
  554MOL0     H74767   5.755  11.916   4.223  0.6202  1.6555  0.2207
  554MOL0     H74768   6.049  12.018   4.193  0.8149  1.3334 -1.8065
  554MOL0     H74769   5.932  12.055   4.315  1.8049 -2.0480  0.0914
  554MOL0     H74770   5.799  12.183   4.166  0.3760 -2.8581  2.8076
  554MOL0     H74771   5.864  12.098   4.025 -0.8816 -1.3984 -0.0875
  554MOL0     H74772   5.788  11.109   4.513  0.2712 -0.9026  0.1225
  554MOL0     H74773   5.849  10.917   4.642  0.4755 -1.6385  0.4767
  554MOL0     H74774   6.091  10.543   4.624 -0.2759  2.1522  0.4347
  554MOL0     H74775   6.160  10.325   4.710  0.1391 -1.1129  1.5341
  554MOL0     H74776   6.423  10.199   4.275 -0.6952  0.5657  2.7570
  554MOL0     H74777   6.304  10.389   4.164  0.0518 -0.3499 -1.1951
  554MOL0     H74778   6.093  10.595   3.738  0.1593  2.6537  0.2993
  554MOL0     H74779   5.885  10.701   3.598  0.9983  0.8282 -0.2106
  554MOL0     H74780   5.714  10.922   3.645 -0.4880  1.1881 -0.3853
  554MOL0     H74781   5.709  10.802   3.512  1.7846 -1.2250  2.8061
  554MOL0     H74782   5.467  10.911   3.655 -1.2534  0.8355 -1.2672
  554MOL0     H74783   5.469  10.804   3.506 -0.2829  1.7658 -2.1618
  554MOL0     H74784   5.575  11.080   3.550 -0.9854  1.6995 -0.1801
  554MOL0     H74785   5.427  11.059   3.472 -0.8114 -1.6044 -1.1003
  554MOL0     H74786   5.694  10.999   3.368 -0.5167 -0.1759  1.6213
  554MOL0     H74787   5.578  11.105   3.291  1.6405  0.0606 -0.2726
  554MOL0     H74788   5.459  10.777   3.081 -2.6729  2.4251  0.0739
  554MOL0     H74789   5.634  10.594   3.929 -0.2663 -2.0509 -0.9698
  554MOL0     H74790   5.840  10.472   4.027  1.6757 -2.2955 -0.0652
  555MOL0     O74791   5.308   9.032  10.318 -0.2078 -0.1533 -0.4539
  555MOL0     C74792   5.206   9.097  10.288  0.4170  0.7781 -0.0958
  555MOL0     O74793   5.082   9.072  10.331  0.1256 -0.6558  0.2356
  555MOL0     C74794   5.061   8.975  10.430 -0.4061 -0.3033 -0.4224
  555MOL0     C74795   5.111   8.840  10.428  0.6799  0.2348 -0.3898
  555MOL0     C74796   5.067   8.753  10.534 -0.2296 -0.4735  0.7056
  555MOL0     C74797   4.977   8.798  10.638 -0.1425  0.0672  1.3610
  555MOL0     O74798   4.928   8.712  10.733  0.1348  1.5209  0.8052
  555MOL0     C74799   5.012   8.601  10.764  0.0534 -0.2618 -0.9780
  555MOL0     C74800   4.989   8.548  10.904 -0.2974 -0.0614 -0.4023
  555MOL0     C74801   4.842   8.530  10.924  0.0994  0.3615  0.4288
  555MOL0     C74802   4.810   8.496  11.071 -0.0979 -0.1710 -0.0773
  555MOL0     C74803   4.661   8.478  11.098  0.0700  0.2032  0.2705
  555MOL0     C74804   4.633   8.497  11.246  0.1948  0.8603 -0.3637
  555MOL0     C74805   4.485   8.464  11.255  0.9561  0.0259 -0.0769
  555MOL0     C74806   4.448   8.474  11.397 -0.4358  0.0269 -0.3740
  555MOL0     N74807   4.300   8.480  11.404 -0.5037 -0.7608 -0.1590
  555MOL0     C74808   4.218   8.378  11.387 -0.2756 -0.8634  0.7374
  555MOL0     C74809   4.100   8.421  11.433  0.4133 -0.0981 -0.0642
  555MOL0     C74810   3.977   8.342  11.387 -0.7671 -0.1523 -0.0591
  555MOL0     C74811   3.857   8.429  11.416 -0.4427 -0.0890 -0.5597
  555MOL0     C74812   3.727   8.335  11.405 -0.6333 -0.2677 -0.0718
  555MOL0     C74813   3.609   8.426  11.410  1.0640 -0.0839 -0.1294
  555MOL0     O74814   3.581   8.480  11.281  0.0415 -0.3050  0.8260
  555MOL0     C74815   3.471   8.561  11.259 -0.4554 -0.2005 -0.1193
  555MOL0     C74816   3.487   8.692  11.208  0.5253  0.0717 -0.2300
  555MOL0     C74817   3.375   8.772  11.181  0.0201  0.3376 -0.0441
  555MOL0     C74818   3.397   8.900  11.132 -0.7652  0.0542 -0.3809
  555MOL0     C74819   3.243   8.722  11.213 -0.0779  0.9236 -1.3330
  555MOL0     C74820   3.112   8.794  11.191  0.9345  0.2516 -0.4808
  555MOL0     O74821   3.008   8.750  11.273 -0.1175  0.2734  0.8807
  555MOL0     C74822   2.874   8.750  11.226 -0.5161 -0.1303 -0.0965
  555MOL0     C74823   2.781   8.745  11.331  0.3378 -0.3452  0.5642
  555MOL0     C74824   2.648   8.743  11.304 -0.3460  0.6274 -0.1371
  555MOL0     C74825   2.601   8.732  11.173 -0.9359 -0.1893  0.4484
  555MOL0     O74826   2.468   8.708  11.167 -0.6588 -0.3382 -0.6463
  555MOL0     C74827   2.426   8.647  11.049  1.1532 -0.3751  0.0258
  555MOL0     C74828   2.297   8.584  11.091  0.4012  0.4274  0.4324
  555MOL0     C74829   2.171   8.674  11.105  0.2797 -0.1354 -0.4073
  555MOL0     C74830   2.051   8.582  11.148  0.3201  0.1173  0.0713
  555MOL0     C74831   1.922   8.669  11.156  0.2073  0.9223  0.3518
  555MOL0     C74832   1.804   8.579  11.185 -0.2409 -0.2552  0.3781
  555MOL0     C74833   1.677   8.650  11.151  0.1157 -0.2742 -0.9443
  555MOL0     C74834   1.556   8.562  11.188  0.1093 -0.9695 -0.0543
  555MOL0    Cl74835   1.417   8.607  11.098 -0.1384 -0.4256  0.0295
  555MOL0     C74836   2.693   8.728  11.065 -0.2268 -1.1500 -0.1353
  555MOL0     C74837   2.835   8.742  11.094 -1.1581  0.8651 -0.8752
  555MOL0     O74838   3.104   8.892  11.113 -0.0796  0.2612  0.2566
  555MOL0     C74839   3.232   8.584  11.257 -0.4010  0.1327 -0.2139
  555MOL0     C74840   3.348   8.509  11.286  0.3899  0.2721 -0.0982
  555MOL0     N74841   4.123   8.539  11.499 -0.3385  0.3837 -0.4439
  555MOL0     N74842   4.231   8.584  11.463  0.1139 -0.3518 -0.2675
  555MOL0     C74843   4.930   8.931  10.633 -0.1548  0.3829  0.7490
  555MOL0     C74844   4.966   9.014  10.523  0.2611 -0.1999 -0.0060
  555MOL0     C74845   5.224   9.208  10.197  0.6228  0.2564 -0.8307
  555MOL0     C74846   5.346   9.249  10.143 -0.8482  0.5134  0.6428
  555MOL0     C74847   5.357   9.371  10.068  0.2314 -0.0966 -0.7552
  555MOL0     C74848   5.247   9.461  10.059 -0.4739 -0.0963 -1.1255
  555MOL0     O74849   5.264   9.574   9.986  0.3659  0.2462 -0.3301
  555MOL0     C74850   5.193   9.701  10.045  0.0672 -0.4810  1.6319
  555MOL0     C74851   5.232   9.826   9.968 -0.1629  0.1515  0.2661
  555MOL0     C74852   5.386   9.822   9.940  0.6076  0.1454  0.8359
  555MOL0     C74853   5.420   9.936   9.847 -0.2231  0.3450 -0.7631
  555MOL0     C74854   5.569   9.950   9.844 -0.3720  0.5815 -0.4365
  555MOL0     C74855   5.689   9.969   9.852  0.2321 -0.0188  0.6451
  555MOL0     C74856   5.128   9.412  10.117 -0.3780  0.2635  0.4268
  555MOL0     C74857   5.122   9.295  10.187 -0.3629  0.4405 -0.0138
  555MOL0     H74858   5.169   8.795  10.348  0.5676  0.4483 -0.5915
  555MOL0     H74859   5.097   8.650  10.514 -1.2883 -0.0982 -3.9959
  555MOL0     H74860   5.001   8.521  10.689 -0.8772  0.9922 -2.2186
  555MOL0     H74861   5.114   8.641  10.756 -0.5904  1.2728 -1.8553
  555MOL0     H74862   5.037   8.451  10.917  0.1485  0.4459  2.5679
  555MOL0     H74863   5.045   8.617  10.969 -0.1206 -1.5467  1.1020
  555MOL0     H74864   4.790   8.623  10.901 -0.9509 -0.4274 -0.5534
  555MOL0     H74865   4.810   8.451  10.855  1.2893 -0.0400  0.3138
  555MOL0     H74866   4.871   8.406  11.087 -0.0173 -0.3058 -1.0887
  555MOL0     H74867   4.854   8.570  11.138 -2.1532 -0.4496  1.6910
  555MOL0     H74868   4.621   8.561  11.040 -1.1511 -0.9759 -0.6354
  555MOL0     H74869   4.629   8.381  11.058 -0.5782  0.0374  1.1552
  555MOL0     H74870   4.699   8.429  11.300  1.3224  1.4933 -0.9068
  555MOL0     H74871   4.662   8.600  11.269  0.0973  2.0528 -4.6060
  555MOL0     H74872   4.427   8.534  11.195 -2.2415 -2.5168 -0.2646
  555MOL0     H74873   4.454   8.366  11.217  0.9978 -0.4408  1.0320
  555MOL0     H74874   4.494   8.566  11.434  0.7162  0.2383 -2.2033
  555MOL0     H74875   4.484   8.393  11.462 -0.8474  0.8849  0.9629
  555MOL0     H74876   4.240   8.290  11.327  5.1236 -0.2414  1.3261
  555MOL0     H74877   3.992   8.320  11.281 -1.8858  0.4723 -0.3556
  555MOL0     H74878   3.984   8.248  11.442 -1.0398 -1.0562 -1.5163
  555MOL0     H74879   3.854   8.513  11.346 -0.5041  0.3617 -0.0298
  555MOL0     H74880   3.862   8.472  11.517 -1.6971 -4.3307  1.5678
  555MOL0     H74881   3.719   8.264  11.487 -4.0859 -1.1335 -0.9759
  555MOL0     H74882   3.722   8.293  11.304 -0.3022  0.6088 -0.4684
  555MOL0     H74883   3.601   8.500  11.490 -1.3744  1.3565 -1.5669
  555MOL0     H74884   3.525   8.361  11.440  0.4167  0.8293  0.0892
  555MOL0     H74885   3.590   8.717  11.187  0.7000 -1.6310 -1.6228
  555MOL0     H74886   3.378   8.910  11.025  0.3291 -0.6629 -0.6605
  555MOL0     H74887   3.332   8.976  11.177  0.4894 -0.2510  2.1621
  555MOL0     H74888   3.503   8.926  11.139 -0.4892 -0.9492 -0.6961
  555MOL0     H74889   2.818   8.750  11.433  1.3546  0.0174  0.1885
  555MOL0     H74890   2.582   8.754  11.389  0.4299 -0.4475  0.6396
  555MOL0     H74891   2.416   8.720  10.968 -0.6510 -1.1582 -0.5124
  555MOL0     H74892   2.487   8.562  11.015 -1.3761 -2.7684  1.0896
  555MOL0     H74893   2.265   8.509  11.018 -1.0608 -1.4043  2.8137
  555MOL0     H74894   2.318   8.531  11.184 -2.2736  0.9848  1.4338
  555MOL0     H74895   2.151   8.748  11.026  1.4923  2.6243  1.7376
  555MOL0     H74896   2.205   8.745  11.181 -1.8151  2.0290 -1.3446
  555MOL0     H74897   2.033   8.505  11.072 -1.6043 -2.1657  2.6681
  555MOL0     H74898   2.058   8.525  11.240 -0.6245  1.7717  1.2275
  555MOL0     H74899   1.904   8.709  11.056 -2.1308 -2.4678 -0.7574
  555MOL0     H74900   1.925   8.753  11.226 -0.4394  2.1636 -1.0442
  555MOL0     H74901   1.809   8.489  11.123 -0.8013  1.0147 -1.5971
  555MOL0     H74902   1.808   8.548  11.290  2.8266 -3.4184 -0.4908
  555MOL0     H74903   1.671   8.691  11.050  1.0819 -0.8212 -1.2365
  555MOL0     H74904   1.682   8.745  11.204 -1.1752 -0.2602 -0.8124
  555MOL0     H74905   1.534   8.583  11.293  1.7762  1.1686 -0.0590
  555MOL0     H74906   1.569   8.456  11.168 -1.9559 -0.9951 -1.5808
  555MOL0     H74907   2.659   8.720  10.962  3.2616  0.2396 -1.5816
  555MOL0     H74908   2.910   8.742  11.016  1.3200 -4.0902  1.0604
  555MOL0     H74909   3.138   8.534  11.274  1.4780 -3.3934  0.8469
  555MOL0     H74910   3.334   8.406  11.316  1.9398  0.2037  0.4739
  555MOL0     H74911   4.854   8.956  10.706 -1.8577  1.3223 -1.2392
  555MOL0     H74912   4.906   9.104  10.521 -0.1445 -0.2818 -4.9582
  555MOL0     H74913   5.430   9.183  10.157 -3.7976 -4.8904 -3.2994
  555MOL0     H74914   5.451   9.410  10.031 -0.1845  0.1488 -1.5739
  555MOL0     H74915   5.084   9.698  10.056 -0.3753  3.4289  0.0693
  555MOL0     H74916   5.230   9.705  10.149  3.9840  2.1417  0.3868
  555MOL0     H74917   5.203   9.920  10.016  2.0535 -0.5530  3.2307
  555MOL0     H74918   5.185   9.819   9.869  0.8636  0.3973 -0.2483
  555MOL0     H74919   5.409   9.726   9.894 -0.2148 -0.1969  1.1152
  555MOL0     H74920   5.432   9.839  10.038  2.1697 -1.6610  0.4675
  555MOL0     H74921   5.382  10.031   9.887  1.1194 -0.6829  3.4551
  555MOL0     H74922   5.379   9.918   9.748 -1.6077  1.0452 -0.3503
  555MOL0     H74923   5.795   9.959   9.848  0.1566 -0.5569 -1.3727
  555MOL0     H74924   5.036   9.469  10.107 -1.3902 -1.5682 -1.3625
  555MOL0     H74925   5.025   9.276  10.231  0.6546 -2.3818  1.2991
  556MOL0     O74926   1.114   1.684   6.367  0.4803 -0.0403 -0.2751
  556MOL0     C74927   1.105   1.565   6.380  0.4587 -0.9212 -0.2032
  556MOL0     O74928   1.216   1.489   6.422  0.1874  0.6328 -0.3946
  556MOL0     C74929   1.331   1.550   6.449 -0.0519 -0.0243  0.6622
  556MOL0     C74930   1.391   1.562   6.580 -0.1019 -0.6379 -0.1000
  556MOL0     C74931   1.518   1.616   6.598 -1.0369  0.3516  1.4656
  556MOL0     C74932   1.594   1.639   6.482 -0.9580 -0.0723 -0.1660
  556MOL0     O74933   1.727   1.677   6.489  0.5191  0.4122 -0.0890
  556MOL0     C74934   1.772   1.721   6.615  0.4301 -0.0284  0.2947
  556MOL0     C74935   1.918   1.757   6.620  0.9030  0.2998  0.3979
  556MOL0     C74936   1.950   1.756   6.768 -0.1820 -0.5644 -0.4746
  556MOL0     C74937   2.097   1.800   6.794 -0.8459 -0.8188 -0.2323
  556MOL0     C74938   2.204   1.709   6.738 -0.4274  0.0146 -0.2950
  556MOL0     C74939   2.350   1.746   6.775 -0.3727 -0.2798 -0.3832
  556MOL0     C74940   2.379   1.892   6.791 -0.0127  0.0845 -0.0315
  556MOL0     C74941   2.526   1.918   6.806 -1.0948 -0.2616  0.3713
  556MOL0     N74942   2.575   1.859   6.934 -0.0552  0.2367 -0.3392
  556MOL0     C74943   2.575   1.915   7.057 -0.1966 -0.8684  0.0549
  556MOL0     C74944   2.636   1.832   7.153 -0.1599 -0.8655  0.3240
  556MOL0     C74945   2.672   1.869   7.295 -0.9578 -0.0295  0.5142
  556MOL0     C74946   2.777   1.977   7.298 -0.7713 -0.0104  0.3827
  556MOL0     C74947   2.918   1.948   7.239  0.2740 -0.5451 -0.5284
  556MOL0     C74948   2.966   1.804   7.256 -0.5417  0.3697 -0.0786
  556MOL0     O74949   3.099   1.788   7.190  0.8934  0.4031  0.0881
  556MOL0     C74950   3.220   1.818   7.244  0.5441  0.0006  0.3122
  556MOL0     C74951   3.232   1.892   7.366  0.3475  0.2193  0.3020
  556MOL0     C74952   3.366   1.918   7.412  0.0008  0.4197  0.5021
  556MOL0     C74953   3.379   2.016   7.526  1.0189 -0.9250 -0.3686
  556MOL0     C74954   3.481   1.888   7.329  0.4630 -0.1537  0.8237
  556MOL0     C74955   3.622   1.932   7.353 -0.2470 -0.4863  0.0679
  556MOL0     O74956   3.719   1.835   7.342 -0.7238 -0.1858  0.7576
  556MOL0     C74957   3.847   1.865   7.301 -0.1778  0.4917 -0.2217
  556MOL0     C74958   3.869   1.971   7.216 -0.3438 -0.3578  0.4230
  556MOL0     C74959   4.003   1.993   7.185 -0.0913 -0.8174 -0.1774
  556MOL0     C74960   4.110   1.918   7.241  0.5469 -0.2829  0.1374
  556MOL0     O74961   4.236   1.941   7.205  0.3540 -0.7428  0.6506
  556MOL0     C74962   4.256   1.917   7.062 -0.4001 -0.0967 -0.1412
  556MOL0     C74963   4.396   1.892   7.039 -0.1309 -0.6740  0.4396
  556MOL0     C74964   4.479   2.021   7.026  0.4799  0.4481 -0.1500
  556MOL0     C74965   4.630   2.000   7.028 -0.3392 -0.6443 -0.3430
  556MOL0     C74966   4.698   2.131   7.015  0.3674 -0.2453  0.0279
  556MOL0     C74967   4.847   2.114   7.018  0.2546 -0.6283 -0.3665
  556MOL0     C74968   4.916   2.254   7.036  0.8051 -0.1678  0.1682
  556MOL0     C74969   5.063   2.227   7.084 -0.0576 -0.9649  0.4647
  556MOL0    Cl74970   5.182   2.343   7.024  0.4205 -0.0257  0.1721
  556MOL0     C74971   4.081   1.810   7.310 -0.6044  0.6920  0.1767
  556MOL0     C74972   3.954   1.785   7.345  0.2465  0.6591 -0.9076
  556MOL0     O74973   3.637   2.046   7.399  0.1211  0.1493  0.5538
  556MOL0     C74974   3.463   1.816   7.210  0.3530  0.3472 -0.3961
  556MOL0     C74975   3.329   1.784   7.172 -0.1993 -0.1642  0.3001
  556MOL0     N74976   2.659   1.718   7.084  0.7622 -0.1562  1.0878
  556MOL0     N74977   2.640   1.744   6.959 -0.4995 -0.0908 -0.2488
  556MOL0     C74978   1.545   1.621   6.352  0.2431  0.2835 -0.3556
  556MOL0     C74979   1.413   1.584   6.342  0.2552  0.2341 -0.1632
  556MOL0     C74980   0.972   1.491   6.359  0.2341  0.5676  0.1035
  556MOL0     C74981   0.962   1.350   6.372 -0.1499 -0.2243  0.0330
  556MOL0     C74982   0.840   1.283   6.348  0.0476  0.4353 -0.0233
  556MOL0     C74983   0.717   1.344   6.320 -1.2786  0.0769  0.4880
  556MOL0     O74984   0.605   1.271   6.324  0.4011 -0.5408 -0.4800
  556MOL0     C74985   0.481   1.349   6.328 -0.3940 -0.2346  0.4852
  556MOL0     C74986   0.357   1.270   6.371 -0.0357  0.8469  0.3096
  556MOL0     C74987   0.237   1.353   6.370 -0.3560  0.0014 -0.2399
  556MOL0     C74988   0.120   1.278   6.435 -0.2700 -0.7838 -0.2834
  556MOL0     C74989   0.000   1.369   6.418 -1.0531 -0.3406 -0.1794
  556MOL0     C74990  -0.095   1.442   6.408  0.7798  0.5807 -0.3163
  556MOL0     C74991   0.731   1.487   6.305  0.1072  0.7248 -0.0378
  556MOL0     C74992   0.850   1.556   6.319 -0.5501 -0.7631  0.0631
  556MOL0     H74993   1.338   1.541   6.672 -0.6442  0.1845 -0.2097
  556MOL0     H74994   1.546   1.632   6.702  0.8118 -0.0896  1.0649
  556MOL0     H74995   1.706   1.800   6.654 -5.3565 -1.4751 -4.9418
  556MOL0     H74996   1.756   1.636   6.683 -1.4064 -0.6555 -0.8597
  556MOL0     H74997   1.977   1.689   6.558  0.2705 -1.7920  1.9774
  556MOL0     H74998   1.940   1.859   6.586 -1.9383  1.1836  0.9729
  556MOL0     H74999   1.881   1.825   6.819 -1.4792 -1.1129 -1.4385
  556MOL0     H75000   1.949   1.654   6.806  1.9316 -0.6294 -0.5206
  556MOL0     H75001   2.119   1.898   6.750 -2.3818 -0.7583 -0.9341
  556MOL0     H75002   2.116   1.812   6.902 -0.0706 -0.2593 -0.4161
  556MOL0     H75003   2.187   1.619   6.798  2.8508 -1.6536 -1.5743
  556MOL0     H75004   2.198   1.700   6.629  1.7698  0.1652 -0.4807
  556MOL0     H75005   2.382   1.705   6.872 -1.6942  0.0950  0.2274
  556MOL0     H75006   2.413   1.700   6.698 -0.2915 -1.7820  0.5428
  556MOL0     H75007   2.348   1.938   6.697 -2.2315 -0.9995  0.1155
  556MOL0     H75008   2.330   1.938   6.877  1.1156  2.9318 -0.7720
  556MOL0     H75009   2.558   2.022   6.792 -2.3507 -0.0874 -1.6222
  556MOL0     H75010   2.569   1.875   6.715 -1.1313  0.9684 -0.2595
  556MOL0     H75011   2.533   2.012   7.078  1.7569  0.5052 -1.9782
  556MOL0     H75012   2.594   1.917   7.355 -0.6450  1.4062 -0.1865
  556MOL0     H75013   2.717   1.783   7.344  1.1911  0.7987  0.1166
  556MOL0     H75014   2.801   1.990   7.404 -3.2459 -0.0046  1.0118
  556MOL0     H75015   2.735   2.068   7.253 -0.6155 -0.0860  0.0824
  556MOL0     H75016   2.994   2.002   7.296 -1.0847  0.8761  0.0036
  556MOL0     H75017   2.918   1.968   7.131 -0.6581  0.4306 -0.3632
  556MOL0     H75018   2.898   1.743   7.195  0.3290 -1.3325  0.6214
  556MOL0     H75019   2.966   1.771   7.360 -1.2158 -1.7404 -0.6930
  556MOL0     H75020   3.153   1.941   7.421  1.3088 -0.3747  2.2914
  556MOL0     H75021   3.284   2.013   7.581 -0.1876 -1.7146 -2.3741
  556MOL0     H75022   3.462   1.991   7.593 -0.6746 -3.1770  1.0394
  556MOL0     H75023   3.392   2.117   7.488 -2.1170  0.5248  1.9800
  556MOL0     H75024   3.792   2.043   7.190 -0.9039 -1.0181  0.2131
  556MOL0     H75025   4.038   2.060   7.107  1.0333 -0.9297  0.2198
  556MOL0     H75026   4.190   1.837   7.028 -4.3972  2.6649  0.3562
  556MOL0     H75027   4.222   1.999   6.998 -0.1882 -0.0468 -0.1910
  556MOL0     H75028   4.431   1.825   7.118 -0.9862  1.3248  2.6151
  556MOL0     H75029   4.415   1.835   6.947  0.3765 -1.2617  0.9028
  556MOL0     H75030   4.447   2.090   7.104  1.6771 -0.5010  1.2338
  556MOL0     H75031   4.451   2.071   6.933 -1.1955 -0.2670 -0.0585
  556MOL0     H75032   4.665   1.976   7.129  0.9419  0.8038 -0.4070
  556MOL0     H75033   4.669   1.916   6.970  0.7834 -2.9591  3.4022
  556MOL0     H75034   4.664   2.199   7.094  0.7294 -0.4841  0.3888
  556MOL0     H75035   4.670   2.195   6.931  0.7388  1.7275  1.3359
  556MOL0     H75036   4.862   2.062   7.113 -2.3521  1.3838  1.3039
  556MOL0     H75037   4.880   2.056   6.932 -0.4597 -0.2873 -0.8837
  556MOL0     H75038   4.875   2.324   7.109 -0.7318 -1.4884  0.6217
  556MOL0     H75039   4.915   2.299   6.936 -3.9534 -1.3284 -0.5637
  556MOL0     H75040   5.101   2.129   7.055 -2.0336 -0.9955 -2.4034
  556MOL0     H75041   5.069   2.238   7.193  3.2307  4.1669  0.0969
  556MOL0     H75042   4.163   1.743   7.333  1.2563  2.4954 -0.8525
  556MOL0     H75043   3.946   1.688   7.394  0.0875  2.0394  2.0420
  556MOL0     H75044   3.535   1.778   7.139 -3.4963 -2.5662 -3.2516
  556MOL0     H75045   3.316   1.737   7.075  0.5589  0.7774 -0.2722
  556MOL0     H75046   1.613   1.615   6.268  1.0531 -2.5792  0.3902
  556MOL0     H75047   1.363   1.574   6.246 -0.9816 -1.0331  0.5722
  556MOL0     H75048   1.052   1.295   6.398 -0.5631 -1.1830 -0.5263
  556MOL0     H75049   0.829   1.178   6.372 -3.2898  0.2447 -1.7883
  556MOL0     H75050   0.494   1.428   6.402  2.7323 -1.2453  1.1767
  556MOL0     H75051   0.459   1.384   6.227  1.9354  1.6299  0.5472
  556MOL0     H75052   0.365   1.238   6.475 -0.4293 -0.5893 -0.0760
  556MOL0     H75053   0.341   1.188   6.300 -2.9609  0.9124  0.7689
  556MOL0     H75054   0.202   1.374   6.269 -4.7094 -0.6856  0.9327
  556MOL0     H75055   0.244   1.443   6.432 -2.5375  0.2634 -0.3058
  556MOL0     H75056   0.148   1.254   6.538  0.4622  0.2356 -0.2261
  556MOL0     H75057   0.106   1.181   6.387  0.2830 -1.5681  1.0564
  556MOL0     H75058  -0.185   1.496   6.391 -0.1779 -1.4462 -2.1754
  556MOL0     H75059   0.639   1.541   6.285 -0.6768 -0.6468 -0.2748
  556MOL0     H75060   0.848   1.661   6.294 -0.2895  0.6186  4.8916
  557MOL0     O75061   0.527   6.462   0.454 -0.0481 -0.1596 -0.7267
  557MOL0     C75062   0.498   6.398   0.559  0.3963 -0.6075  0.5849
  557MOL0     O75063   0.367   6.383   0.597 -0.1174  0.0409 -0.8361
  557MOL0     C75064   0.266   6.430   0.520  0.2823  0.4876  0.8436
  557MOL0     C75065   0.174   6.338   0.470  0.0907 -0.3437  0.1961
  557MOL0     C75066   0.061   6.383   0.396 -0.0515 -0.7256 -0.1855
  557MOL0     C75067   0.039   6.512   0.360  0.7418 -0.1187 -0.5508
  557MOL0     O75068  -0.062   6.546   0.274 -0.6756  0.7416 -0.2543
  557MOL0     C75069  -0.164   6.450   0.220  0.3169 -0.1722 -0.1789
  557MOL0     C75070  -0.296   6.459   0.311  0.4558 -0.0383  0.5229
  557MOL0     C75071  -0.403   6.559   0.273 -0.8070 -0.4121 -0.3575
  557MOL0     C75072  -0.366   6.706   0.266 -0.2036 -0.1576 -1.0554
  557MOL0     C75073  -0.472   6.792   0.192 -0.1450 -0.4272  0.5226
  557MOL0     C75074  -0.602   6.800   0.265  0.7743  0.9297 -0.0545
  557MOL0     C75075  -0.718   6.859   0.185 -0.1358 -0.1849 -0.3498
  557MOL0     C75076  -0.784   6.766   0.080 -0.1642  0.4449  0.1050
  557MOL0     N75077  -0.856   6.653   0.137 -0.1146  0.4900  0.6943
  557MOL0     C75078  -0.996   6.642   0.137 -0.1493  0.9506  0.5960
  557MOL0     C75079  -1.027   6.522   0.193 -0.2908  0.3029  0.2548
  557MOL0     C75080  -1.159   6.454   0.195  0.2279  0.2928  0.5011
  557MOL0     C75081  -1.226   6.497   0.063  1.0951  0.3583  0.4018
  557MOL0     C75082  -1.341   6.402   0.019 -0.2564  1.0292  0.2404
  557MOL0     C75083  -1.384   6.421  -0.129  0.6062  0.5061 -0.2851
  557MOL0     O75084  -1.440   6.552  -0.145  0.0228 -0.1953 -0.4385
  557MOL0     C75085  -1.567   6.564  -0.090  0.1220 -0.5377 -0.2710
  557MOL0     C75086  -1.573   6.610   0.040  1.4297 -0.1143  0.1456
  557MOL0     C75087  -1.696   6.646   0.088  0.1750  0.1149  0.6909
  557MOL0     C75088  -1.687   6.728   0.217  0.3929  0.2166 -0.7665
  557MOL0     C75089  -1.818   6.639   0.012 -0.4775 -0.5607  0.4322
  557MOL0     C75090  -1.948   6.680   0.065 -1.1873  0.0259 -0.3443
  557MOL0     O75091  -2.038   6.712  -0.025  0.1236 -0.0745 -0.7782
  557MOL0     C75092  -2.176   6.735   0.003  0.5465 -0.3822  0.1767
  557MOL0     C75093  -2.254   6.785  -0.096  0.3500  0.0745 -0.2614
  557MOL0     C75094  -2.393   6.810  -0.090 -0.6041  0.4260 -1.0815
  557MOL0     C75095  -2.459   6.791   0.034  0.2424  0.1723  0.1566
  557MOL0     O75096  -2.592   6.802   0.060 -0.5363  0.2356  0.8755
  557MOL0     C75097  -2.685   6.829  -0.040  0.1685  0.1309  0.1375
  557MOL0     C75098  -2.819   6.827   0.024 -0.7599  0.1469 -0.0905
  557MOL0     C75099  -2.936   6.850  -0.072  0.2868  0.6116  0.3936
  557MOL0     C75100  -3.068   6.873   0.007 -0.7593  0.2888  0.0223
  557MOL0     C75101  -3.173   6.889  -0.103  0.7220 -1.3602  0.7452
  557MOL0     C75102  -3.299   6.911  -0.031  0.5989 -0.6315 -0.8025
  557MOL0     C75103  -3.418   6.882  -0.126  0.0886  0.3317  0.1710
  557MOL0     C75104  -3.445   6.741  -0.169 -0.2925 -0.4217 -0.3000
  557MOL0    Cl75105  -3.596   6.732  -0.263 -0.0900 -0.0321 -0.2475
  557MOL0     C75106  -2.382   6.737   0.134 -0.1605 -0.2716 -0.9539
  557MOL0     C75107  -2.245   6.703   0.126 -0.6906 -0.2379 -0.3519
  557MOL0     O75108  -1.964   6.682   0.188  0.0626 -0.1080 -0.1829
  557MOL0     C75109  -1.802   6.587  -0.113  0.5724 -0.1611  0.3800
  557MOL0     C75110  -1.680   6.544  -0.164  0.7965 -0.4607  1.8323
  557MOL0     N75111  -0.903   6.481   0.240 -0.3350  0.2749 -0.5360
  557MOL0     N75112  -0.803   6.559   0.212  0.4658  0.3557 -0.4263
  557MOL0     C75113   0.134   6.606   0.411 -0.1684  0.6431 -0.0236
  557MOL0     C75114   0.237   6.567   0.498  0.1210  0.4788  1.0276
  557MOL0     C75115   0.615   6.353   0.639 -0.2399  0.4536  0.2206
  557MOL0     C75116   0.603   6.318   0.771 -0.1226 -0.1608 -0.3577
  557MOL0     C75117   0.712   6.294   0.854  0.3660  0.0751  0.6397
  557MOL0     C75118   0.837   6.267   0.798  0.1574  0.5347  0.2104
  557MOL0     O75119   0.939   6.213   0.870  0.1402 -0.5420  0.0417
  557MOL0     C75120   1.077   6.214   0.832 -0.4299 -0.4500  0.0395
  557MOL0     C75121   1.151   6.142   0.940  0.7970  0.2293  0.1174
  557MOL0     C75122   1.301   6.126   0.918 -0.1883  0.7084  0.1576
  557MOL0     C75123   1.333   5.991   0.840 -1.3316 -0.7518 -0.2145
  557MOL0     C75124   1.482   5.968   0.807 -0.1414 -0.3835  0.1390
  557MOL0     C75125   1.592   5.929   0.771  0.5591  0.2364 -0.3001
  557MOL0     C75126   0.848   6.287   0.655 -0.2644  0.9709 -0.4474
  557MOL0     C75127   0.739   6.333   0.577 -0.4794 -0.4926 -0.2648
  557MOL0     H75128   0.200   6.234   0.483 -2.0248 -0.9048  0.3649
  557MOL0     H75129   0.004   6.296   0.366  0.8679 -0.8681 -1.5856
  557MOL0     H75130  -0.202   6.467   0.118 -2.2659 -3.5546  0.0659
  557MOL0     H75131  -0.119   6.351   0.222 -0.4751 -0.7028 -3.2782
  557MOL0     H75132  -0.355   6.372   0.281 -0.6715  1.5061 -2.1558
  557MOL0     H75133  -0.272   6.457   0.417  2.4159 -1.7138  0.1111
  557MOL0     H75134  -0.432   6.520   0.175 -1.0883 -1.9554  0.3083
  557MOL0     H75135  -0.486   6.545   0.343  0.0597  1.9666  1.2757
  557MOL0     H75136  -0.333   6.761   0.354 -1.6187  1.2108 -1.3326
  557MOL0     H75137  -0.275   6.702   0.206  0.3171 -1.4025 -0.2325
  557MOL0     H75138  -0.421   6.887   0.177 -0.9167 -0.3324 -1.8388
  557MOL0     H75139  -0.487   6.770   0.086 -0.6848  0.9400  0.3061
  557MOL0     H75140  -0.639   6.707   0.309 -1.1541  0.7977 -1.7809
  557MOL0     H75141  -0.587   6.865   0.352  1.2014  1.2834 -0.3878
  557MOL0     H75142  -0.801   6.887   0.250 -1.1235 -1.0686 -1.1854
  557MOL0     H75143  -0.675   6.937   0.121  1.3947 -2.6089 -2.4574
  557MOL0     H75144  -0.710   6.715   0.017 -2.6929 -2.5509 -0.7003
  557MOL0     H75145  -0.858   6.820   0.021  0.5817 -0.9569 -2.2964
  557MOL0     H75146  -1.062   6.716   0.094  0.7161  1.2607 -0.2478
  557MOL0     H75147  -1.145   6.346   0.204  2.4207  0.3836 -0.9100
  557MOL0     H75148  -1.222   6.502   0.269 -0.1720  2.1088 -0.9329
  557MOL0     H75149  -1.151   6.494  -0.017  3.2659 -0.2655  2.3416
  557MOL0     H75150  -1.265   6.597   0.085  1.0592  1.0490 -2.3839
  557MOL0     H75151  -1.426   6.412   0.087  1.2165  2.7724  1.9935
  557MOL0     H75152  -1.310   6.299   0.036 -1.5080  0.6711  0.4328
  557MOL0     H75153  -1.455   6.341  -0.151  0.7428  0.8844 -2.3922
  557MOL0     H75154  -1.301   6.401  -0.198  2.0001  1.7464  0.9607
  557MOL0     H75155  -1.484   6.651   0.085  1.3885  0.6292 -0.4284
  557MOL0     H75156  -1.591   6.778   0.233  1.3204 -2.4005  3.6918
  557MOL0     H75157  -1.763   6.806   0.211  0.1341 -0.1327 -2.4253
  557MOL0     H75158  -1.702   6.665   0.305  0.9454  1.4414  0.2440
  557MOL0     H75159  -2.204   6.825  -0.183 -1.8352  1.3001 -1.0319
  557MOL0     H75160  -2.455   6.846  -0.171 -0.9782  0.6706 -0.6830
  557MOL0     H75161  -2.672   6.920  -0.099  0.0504 -0.4294 -0.7686
  557MOL0     H75162  -2.679   6.751  -0.116  1.5386  0.7144 -0.3895
  557MOL0     H75163  -2.831   6.732   0.078  0.1114 -0.4346 -0.8850
  557MOL0     H75164  -2.807   6.900   0.105 -0.9112  0.2810 -0.1877
  557MOL0     H75165  -2.949   6.764  -0.138 -0.7939  3.4169 -3.3726
  557MOL0     H75166  -2.913   6.939  -0.132  1.3216 -0.4932 -0.9130
  557MOL0     H75167  -3.100   6.795   0.077 -2.1357 -1.4203 -2.3473
  557MOL0     H75168  -3.063   6.968   0.061 -0.2621  2.9672 -4.3132
  557MOL0     H75169  -3.176   6.799  -0.165 -0.2949  0.0219 -1.3215
  557MOL0     H75170  -3.148   6.966  -0.177 -1.0919  1.3366  2.7699
  557MOL0     H75171  -3.313   6.845   0.056  0.3289 -0.5348 -0.7711
  557MOL0     H75172  -3.300   7.013   0.009  1.3952 -1.2899  1.0142
  557MOL0     H75173  -3.412   6.941  -0.219 -1.0826 -1.6876 -1.2577
  557MOL0     H75174  -3.508   6.916  -0.074 -0.2006 -0.7513  0.3859
  557MOL0     H75175  -3.447   6.680  -0.079  2.5406  1.8273  1.4823
  557MOL0     H75176  -3.364   6.708  -0.235  0.8759  1.3791  0.1332
  557MOL0     H75177  -2.439   6.717   0.224  0.5631 -1.2535 -0.6912
  557MOL0     H75178  -2.205   6.653   0.214  0.5351  0.6863 -0.3555
  557MOL0     H75179  -1.888   6.571  -0.178 -0.9798 -3.6158  2.9432
  557MOL0     H75180  -1.674   6.517  -0.269  1.1239 -0.2872  1.8051
  557MOL0     H75181   0.135   6.714   0.399  0.5672  0.5336 -1.0871
  557MOL0     H75182   0.298   6.644   0.545  0.7350 -0.3340  1.6002
  557MOL0     H75183   0.508   6.326   0.822 -0.5233  1.8581 -1.3230
  557MOL0     H75184   0.695   6.285   0.960 -1.8234 -1.9148  0.1984
  557MOL0     H75185   1.093   6.166   0.735 -1.8680 -1.7507  0.4033
  557MOL0     H75186   1.118   6.315   0.835 -2.3839  0.4090 -0.7301
  557MOL0     H75187   1.113   6.041   0.958 -2.0763  1.3061  0.6898
  557MOL0     H75188   1.120   6.206   1.023 -2.0820 -0.1362 -0.5755
  557MOL0     H75189   1.354   6.131   1.014 -0.9755 -2.9083  0.9161
  557MOL0     H75190   1.343   6.211   0.862 -1.6933  0.5797 -1.2528
  557MOL0     H75191   1.270   6.001   0.751 -0.3959 -0.1987 -0.8352
  557MOL0     H75192   1.295   5.917   0.911 -5.2490  0.1983 -1.1025
  557MOL0     H75193   1.681   5.878   0.743 -0.2718  0.4305 -3.7418
  557MOL0     H75194   0.941   6.276   0.601  0.5952  1.5804  0.8570
  557MOL0     H75195   0.743   6.346   0.469  0.0694 -1.3012 -0.3541
  558MOL0     O75196   5.138   2.908   9.441 -0.1582  0.5494 -0.2217
  558MOL0     C75197   5.233   2.834   9.477 -0.3052 -0.1783  0.4536
  558MOL0     O75198   5.243   2.699   9.454  0.0130 -0.1753  0.0200
  558MOL0     C75199   5.147   2.624   9.396 -0.6940  0.1218  0.0756
  558MOL0     C75200   5.095   2.661   9.273 -0.9115  0.0750 -1.3693
  558MOL0     C75201   4.993   2.585   9.222 -1.0554 -0.3278 -0.3772
  558MOL0     C75202   4.963   2.468   9.270  0.1082  0.4839 -0.0186
  558MOL0     O75203   4.873   2.381   9.204  0.1332 -0.8507 -0.0909
  558MOL0     C75204   4.748   2.358   9.282 -0.5807 -0.2337  0.4771
  558MOL0     C75205   4.731   2.202   9.284 -0.0054  0.5601  0.0469
  558MOL0     C75206   4.604   2.154   9.370  0.1443  0.7039 -0.0968
  558MOL0     C75207   4.487   2.133   9.273 -0.1078  0.2228 -0.8377
  558MOL0     C75208   4.452   1.985   9.257 -0.0670 -0.3996  0.4401
  558MOL0     C75209   4.354   1.966   9.144  0.5041  0.7498 -0.7723
  558MOL0     C75210   4.288   1.832   9.149  0.6640  0.0073 -0.5903
  558MOL0     C75211   4.381   1.701   9.147 -0.3122  0.0145  0.0271
  558MOL0     N75212   4.300   1.578   9.137  0.2921  0.2430 -0.8830
  558MOL0     C75213   4.224   1.523   9.241  0.4496 -0.7340  0.2356
  558MOL0     C75214   4.194   1.408   9.187 -0.9749  0.7587 -0.4454
  558MOL0     C75215   4.093   1.305   9.247 -0.4089  0.8261 -0.3631
  558MOL0     C75216   4.173   1.211   9.338  0.3977 -0.1628 -0.2030
  558MOL0     C75217   4.091   1.119   9.416  0.6930 -0.2629  1.0057
  558MOL0     C75218   4.040   0.995   9.334 -0.5110 -0.1207  0.3412
  558MOL0     O75219   3.933   1.035   9.253  0.3319 -0.6801  0.2535
  558MOL0     C75220   3.835   0.944   9.229 -0.9103 -0.7927  0.2922
  558MOL0     C75221   3.862   0.810   9.205  0.4481  0.7431 -1.0409
  558MOL0     C75222   3.754   0.712   9.192  1.0213  0.3766  0.3490
  558MOL0     C75223   3.792   0.566   9.186 -0.5167 -0.7453 -0.5188
  558MOL0     C75224   3.622   0.753   9.183 -0.0122  0.1490  0.0026
  558MOL0     C75225   3.500   0.658   9.152 -0.3849  0.0200  0.4968
  558MOL0     O75226   3.508   0.557   9.065  0.3073 -0.2457  0.6725
  558MOL0     C75227   3.382   0.505   9.011  0.6884  0.0420  0.2072
  558MOL0     C75228   3.383   0.490   8.876 -0.0038  0.2509  0.6308
  558MOL0     C75229   3.271   0.450   8.802  0.1894 -0.0354 -0.2392
  558MOL0     C75230   3.154   0.415   8.866 -1.0670  0.3849 -0.2468
  558MOL0     O75231   3.049   0.385   8.788  0.2240  0.8886  0.7271
  558MOL0     C75232   2.931   0.360   8.861  0.7084 -1.1175 -0.3878
  558MOL0     C75233   2.811   0.352   8.765  0.5228 -0.5931  0.9788
  558MOL0     C75234   2.680   0.406   8.824  0.0680 -0.3994 -0.5329
  558MOL0     C75235   2.561   0.366   8.731 -0.0234  0.2486  0.3474
  558MOL0     C75236   2.416   0.405   8.768  0.2430 -0.3314 -0.6213
  558MOL0     C75237   2.339   0.379   8.642 -0.0678 -0.2330 -0.2573
  558MOL0     C75238   2.194   0.349   8.680 -0.3353  0.4911 -1.1383
  558MOL0     C75239   2.112   0.315   8.564 -0.4426  0.0343  0.1729
  558MOL0    Cl75240   2.141   0.133   8.524 -0.1686  0.4175 -0.3420
  558MOL0     C75241   3.153   0.420   9.007 -0.3731 -0.5321 -0.3048
  558MOL0     C75242   3.259   0.471   9.079 -0.5751  0.1420 -0.3007
  558MOL0     O75243   3.393   0.698   9.195 -0.2434  0.0637 -0.1045
  558MOL0     C75244   3.602   0.886   9.218 -0.5698 -0.5434  0.3070
  558MOL0     C75245   3.704   0.984   9.240  1.2385  0.4837  0.6189
  558MOL0     N75246   4.247   1.387   9.057 -0.8092  0.5011  0.3265
  558MOL0     N75247   4.317   1.491   9.034 -0.1377  0.0129 -0.4649
  558MOL0     C75248   5.022   2.418   9.381 -1.0811 -0.5657 -0.6390
  558MOL0     C75249   5.115   2.499   9.447 -0.4912 -0.8510  0.3873
  558MOL0     C75250   5.327   2.899   9.563 -0.3862 -0.7398 -0.2137
  558MOL0     C75251   5.335   3.040   9.571  0.4232 -0.3444 -0.2182
  558MOL0     C75252   5.437   3.092   9.651  0.4349  0.2629  0.5313
  558MOL0     C75253   5.523   3.014   9.735  0.3778  0.4774 -0.2511
  558MOL0     O75254   5.616   3.078   9.815  0.5441 -0.3814  0.2314
  558MOL0     C75255   5.708   2.986   9.873 -0.0473  0.4413 -0.0094
  558MOL0     C75256   5.808   3.069   9.951  0.0619 -0.1948  0.0734
  558MOL0     C75257   5.911   2.978  10.009 -0.2584  0.5987 -0.4341
  558MOL0     C75258   6.026   3.064  10.075  0.0632  0.2745 -0.0686
  558MOL0     C75259   6.103   2.985  10.173  0.5047 -0.5338 -0.8684
  558MOL0     C75260   6.145   2.889  10.242  1.1810  0.7424  0.5162
  558MOL0     C75261   5.506   2.866   9.728 -0.1153  0.3305  0.8607
  558MOL0     C75262   5.410   2.816   9.635 -0.5909  0.5365 -0.4393
  558MOL0     H75263   5.115   2.754   9.220 -0.4007 -0.4834 -2.1700
  558MOL0     H75264   4.947   2.622   9.131 -0.4957  1.4403  0.0113
  558MOL0     H75265   4.748   2.401   9.382  2.2263 -0.4358  0.6431
  558MOL0     H75266   4.667   2.397   9.220 -0.0874 -1.3248 -0.9324
  558MOL0     H75267   4.723   2.160   9.183 -0.1231  0.8080 -0.0466
  558MOL0     H75268   4.814   2.157   9.340  1.2658 -1.9411 -3.4352
  558MOL0     H75269   4.639   2.066   9.425  1.7766  0.4195 -1.4803
  558MOL0     H75270   4.569   2.234   9.436  1.7763  0.5906  0.9744
  558MOL0     H75271   4.394   2.186   9.295 -1.7141 -2.3573 -0.9317
  558MOL0     H75272   4.524   2.166   9.176 -1.0184 -0.1608 -1.3289
  558MOL0     H75273   4.540   1.926   9.232 -1.7424 -1.7654 -2.7878
  558MOL0     H75274   4.417   1.947   9.353 -3.4249  1.4535  0.1235
  558MOL0     H75275   4.280   2.046   9.155  1.4673  1.3256  2.7770
  558MOL0     H75276   4.397   1.981   9.044  3.0713  3.7143  0.6101
  558MOL0     H75277   4.224   1.819   9.237  4.1232 -0.1024  2.1189
  558MOL0     H75278   4.219   1.836   9.065 -1.9211  2.5192  1.4298
  558MOL0     H75279   4.455   1.692   9.227 -0.4248 -3.9000 -0.1101
  558MOL0     H75280   4.436   1.706   9.052  1.2037  0.2497  0.8982
  558MOL0     H75281   4.187   1.557   9.337  2.1896  0.4931  0.5136
  558MOL0     H75282   4.010   1.353   9.300  0.4052  0.6124  1.1344
  558MOL0     H75283   4.056   1.254   9.157  4.6331 -1.0599 -1.6825
  558MOL0     H75284   4.238   1.271   9.404  1.9158 -1.1160 -0.7777
  558MOL0     H75285   4.238   1.157   9.268 -0.4512  0.8892 -1.8609
  558MOL0     H75286   4.000   1.174   9.441 -0.5370 -0.6028 -2.2834
  558MOL0     H75287   4.136   1.094   9.513 -0.0847 -0.7494  1.2478
  558MOL0     H75288   4.015   0.921   9.411  1.2090  0.4017  1.4663
  558MOL0     H75289   4.113   0.963   9.259 -0.2928  0.3239  0.3620
  558MOL0     H75290   3.967   0.783   9.207  0.2109 -0.2180  0.6006
  558MOL0     H75291   3.899   0.553   9.207  0.2525  3.8324 -0.5524
  558MOL0     H75292   3.726   0.505   9.248 -0.6021  2.2636  2.6686
  558MOL0     H75293   3.789   0.529   9.083  0.1399  1.1787 -1.2807
  558MOL0     H75294   3.475   0.524   8.829 -0.2966  2.5393  1.5843
  558MOL0     H75295   3.270   0.455   8.693 -1.5996 -1.0612 -0.3020
  558MOL0     H75296   2.937   0.271   8.923  2.4114 -0.6685  0.1228
  558MOL0     H75297   2.910   0.445   8.927 -1.6101  0.6203 -3.1102
  558MOL0     H75298   2.824   0.420   8.681 -1.8612 -0.0632  0.9704
  558MOL0     H75299   2.798   0.246   8.738  0.8988 -0.0581 -1.4863
  558MOL0     H75300   2.682   0.512   8.853  0.0286 -0.1983 -1.2548
  558MOL0     H75301   2.667   0.350   8.917 -0.1628 -2.2735 -1.6459
  558MOL0     H75302   2.575   0.418   8.635 -0.0032 -2.0386 -0.9564
  558MOL0     H75303   2.551   0.259   8.709 -0.4612  0.2783  0.4074
  558MOL0     H75304   2.406   0.512   8.790 -1.5244 -0.7009  0.5345
  558MOL0     H75305   2.387   0.341   8.852  4.1860  1.5760  2.5605
  558MOL0     H75306   2.337   0.462   8.571 -1.6989 -0.3889 -0.4238
  558MOL0     H75307   2.376   0.290   8.591 -0.7279 -0.6598 -0.0101
  558MOL0     H75308   2.152   0.446   8.710 -2.6790  0.1299 -2.9447
  558MOL0     H75309   2.179   0.275   8.759 -2.6283 -1.1031 -2.9116
  558MOL0     H75310   2.133   0.376   8.476  0.3007 -1.5639 -0.7985
  558MOL0     H75311   2.006   0.331   8.588 -0.3284 -0.9493  1.4238
  558MOL0     H75312   3.061   0.386   9.054 -1.3538 -0.4791 -2.0803
  558MOL0     H75313   3.248   0.490   9.185  0.4657 -1.3986  0.1141
  558MOL0     H75314   3.500   0.921   9.209 -0.7593 -0.5938  1.8823
  558MOL0     H75315   3.682   1.087   9.265 -2.1024 -0.4551  2.1147
  558MOL0     H75316   4.991   2.320   9.416 -0.3535 -1.2848 -1.9714
  558MOL0     H75317   5.165   2.470   9.539  1.8600 -2.7328 -1.3502
  558MOL0     H75318   5.275   3.109   9.512  2.0830  0.1264 -1.4313
  558MOL0     H75319   5.434   3.200   9.645 -0.7187  0.2242  0.2087
  558MOL0     H75320   5.670   2.919   9.951  1.3473  0.7292  0.9544
  558MOL0     H75321   5.764   2.936   9.794  1.0044  2.2053 -0.4448
  558MOL0     H75322   5.757   3.130  10.026 -0.0531 -0.1692 -0.0263
  558MOL0     H75323   5.857   3.125   9.870 -1.8055  0.2444 -0.8168
  558MOL0     H75324   5.951   2.915   9.929 -1.8966 -0.2515 -0.6208
  558MOL0     H75325   5.856   2.911  10.076 -0.6206  0.8693 -0.4606
  558MOL0     H75326   5.985   3.148  10.131  1.9063  1.9329 -1.0942
  558MOL0     H75327   6.102   3.094  10.002  1.4920 -1.1857  0.7570
  558MOL0     H75328   6.175   2.815  10.314 -0.1153  0.8279  1.1656
  558MOL0     H75329   5.569   2.792   9.776  1.9117 -0.2226 -2.3090
  558MOL0     H75330   5.398   2.709   9.622  0.4588 -0.0091  2.3312
  559MOL0     O75331   4.797   6.942   4.567 -0.2109 -0.1972  0.4172
  559MOL0     C75332   4.829   6.840   4.632 -0.2923 -0.6292 -0.3547
  559MOL0     O75333   4.749   6.754   4.690  0.8072  0.5264 -0.6045
  559MOL0     C75334   4.611   6.765   4.667 -0.4650 -0.7825 -0.2849
  559MOL0     C75335   4.558   6.738   4.536  0.8476 -0.1257  0.6022
  559MOL0     C75336   4.426   6.759   4.522 -0.2425  0.6038  0.5110
  559MOL0     C75337   4.341   6.791   4.622  0.1172 -0.6007 -0.0687
  559MOL0     O75338   4.206   6.815   4.605 -0.5534 -0.3172 -0.0841
  559MOL0     C75339   4.159   6.784   4.477  0.0978  0.2936  0.7246
  559MOL0     C75340   4.010   6.783   4.475  0.2434  0.3945  0.2736
  559MOL0     C75341   3.941   6.901   4.545  0.1871  0.1747 -0.3273
  559MOL0     C75342   3.793   6.911   4.502  0.2502  1.2703 -0.2812
  559MOL0     C75343   3.719   7.038   4.548 -0.0018  0.1824 -0.1944
  559MOL0     C75344   3.570   7.038   4.522  0.5763 -0.1075  0.0320
  559MOL0     C75345   3.485   7.168   4.569 -0.3474 -0.2760  0.8710
  559MOL0     C75346   3.335   7.160   4.541  1.1139 -0.1529 -0.0557
  559MOL0     N75347   3.264   7.282   4.574  0.0906 -0.6307 -0.0431
  559MOL0     C75348   3.289   7.410   4.518 -0.3195  1.2784 -0.6578
  559MOL0     C75349   3.190   7.490   4.573  0.5546 -1.3896  0.5709
  559MOL0     C75350   3.159   7.633   4.532 -0.2632 -0.5428 -0.5979
  559MOL0     C75351   3.250   7.742   4.600  0.3422  0.7347 -0.0388
  559MOL0     C75352   3.263   7.865   4.523 -0.2043  0.0087  0.0605
  559MOL0     C75353   3.318   7.975   4.613  0.3044  0.1955  0.1777
  559MOL0     O75354   3.435   7.925   4.680  0.0321  1.0173 -0.2545
  559MOL0     C75355   3.541   8.007   4.722  0.7144  0.6744  0.5222
  559MOL0     C75356   3.660   7.933   4.756 -0.1947 -0.3690  0.9397
  559MOL0     C75357   3.775   7.997   4.812 -0.2747  0.3722 -0.1367
  559MOL0     C75358   3.886   7.902   4.858  0.0350 -0.9395  0.4219
  559MOL0     C75359   3.776   8.141   4.813  0.2900 -0.0020  0.5285
  559MOL0     C75360   3.888   8.223   4.871  0.5860 -0.6481 -0.2725
  559MOL0     O75361   3.891   8.357   4.830 -0.4930 -0.4743 -0.4987
  559MOL0     C75362   4.014   8.419   4.853  0.3777  0.5133 -0.0958
  559MOL0     C75363   4.091   8.465   4.747  0.2410  0.5755 -0.2598
  559MOL0     C75364   4.214   8.534   4.760  0.6661  0.6266  0.4057
  559MOL0     C75365   4.252   8.577   4.890  1.2232  0.1461  0.0940
  559MOL0     O75366   4.352   8.666   4.917 -0.2246  0.0594 -0.0208
  559MOL0     C75367   4.461   8.666   4.821 -0.1182  0.0169 -0.9706
  559MOL0     C75368   4.571   8.762   4.857 -0.3122  0.2622 -0.3017
  559MOL0     C75369   4.686   8.760   4.755  0.5777  0.6649  0.1327
  559MOL0     C75370   4.786   8.653   4.799  0.5492  0.4064 -0.2643
  559MOL0     C75371   4.872   8.596   4.685  0.6146 -0.3883 -0.5187
  559MOL0     C75372   4.943   8.708   4.610 -0.1484  0.4024 -0.0093
  559MOL0     C75373   5.080   8.656   4.546  0.4775  0.3867 -0.5889
  559MOL0     C75374   5.167   8.779   4.510  0.0598  0.6593 -0.5083
  559MOL0    Cl75375   5.080   8.892   4.400  0.2061 -0.2298 -0.2814
  559MOL0     C75376   4.161   8.546   4.993 -0.3843  0.4762  0.4455
  559MOL0     C75377   4.055   8.457   4.979  0.5233 -0.0501  0.1603
  559MOL0     O75378   3.947   8.176   4.969 -0.3569  0.0009  0.6800
  559MOL0     C75379   3.657   8.205   4.768 -0.2662 -0.6467  0.0079
  559MOL0     C75380   3.541   8.143   4.727  0.4146 -0.1879 -0.0833
  559MOL0     N75381   3.116   7.414   4.666 -0.5698 -0.2789 -0.6765
  559MOL0     N75382   3.158   7.291   4.656 -0.6150 -0.1591 -0.8769
  559MOL0     C75383   4.397   6.820   4.746  1.1078  0.7112 -0.3838
  559MOL0     C75384   4.533   6.803   4.769 -0.0603  1.0137  0.0789
  559MOL0     C75385   4.971   6.811   4.630  0.3961  0.7520 -0.8139
  559MOL0     C75386   5.058   6.913   4.599  0.0532 -0.4913  0.6162
  559MOL0     C75387   5.197   6.890   4.591  0.4098  0.2482 -0.0773
  559MOL0     C75388   5.249   6.758   4.606 -0.2182 -0.5474 -0.3829
  559MOL0     O75389   5.384   6.731   4.599 -0.3914 -0.8029  0.2047
  559MOL0     C75390   5.454   6.792   4.488  0.3551  0.4493 -0.2412
  559MOL0     C75391   5.413   6.726   4.360  0.0591 -0.5854 -0.9693
  559MOL0     C75392   5.481   6.785   4.246  0.0376 -0.1798  0.2812
  559MOL0     C75393   5.453   6.690   4.135 -0.6225 -0.3280  0.4812
  559MOL0     C75394   5.315   6.660   4.094  0.1425 -0.4379 -0.9487
  559MOL0     C75395   5.199   6.641   4.081  0.1035 -0.1147  0.3146
  559MOL0     C75396   5.154   6.654   4.632 -0.5350  0.3038 -0.1690
  559MOL0     C75397   5.014   6.678   4.641  0.1547  0.2815  1.4496
  559MOL0     H75398   4.621   6.714   4.451  3.3033  0.9346  1.9954
  559MOL0     H75399   4.401   6.740   4.418  2.6505  0.6689 -0.2700
  559MOL0     H75400   4.195   6.856   4.403  1.8810 -2.6675 -1.4981
  559MOL0     H75401   4.210   6.691   4.451  0.9368  0.8000  0.4869
  559MOL0     H75402   3.984   6.770   4.370  0.0588  3.8150 -0.2220
  559MOL0     H75403   3.979   6.687   4.517 -1.4127  1.0758  0.7005
  559MOL0     H75404   3.945   6.888   4.654 -1.2353 -1.5030 -0.4212
  559MOL0     H75405   3.985   6.997   4.516 -0.3148  0.5300  0.0628
  559MOL0     H75406   3.789   6.898   4.394  0.0405 -0.8264 -0.0542
  559MOL0     H75407   3.733   6.830   4.543  0.7061  0.7154 -0.7022
  559MOL0     H75408   3.742   7.035   4.655  1.1306  2.0621 -0.3216
  559MOL0     H75409   3.760   7.130   4.503 -1.3631  1.1410  0.4366
  559MOL0     H75410   3.557   7.030   4.414 -1.4660 -2.4597  0.3685
  559MOL0     H75411   3.520   6.950   4.564  1.7961 -1.5325 -1.3683
  559MOL0     H75412   3.512   7.198   4.670  2.6718 -0.4144  0.2306
  559MOL0     H75413   3.517   7.256   4.513  1.0165 -0.5332  1.1961
  559MOL0     H75414   3.289   7.071   4.586  2.4642 -0.4322  0.8259
  559MOL0     H75415   3.318   7.147   4.433 -2.1024 -0.6442  0.3949
  559MOL0     H75416   3.361   7.430   4.439 -1.3377 -0.3035 -2.0417
  559MOL0     H75417   3.179   7.636   4.424 -0.3360  1.9228 -0.6019
  559MOL0     H75418   3.053   7.656   4.547 -0.2265 -0.8927  0.1975
  559MOL0     H75419   3.343   7.686   4.606 -0.6685 -1.0300 -0.2850
  559MOL0     H75420   3.222   7.758   4.704  1.0949  2.3326 -0.0533
  559MOL0     H75421   3.171   7.893   4.472 -0.5368 -0.4393  0.4068
  559MOL0     H75422   3.336   7.843   4.444 -1.2960  1.1543 -1.3082
  559MOL0     H75423   3.239   8.012   4.680  0.4241 -1.4966  1.3105
  559MOL0     H75424   3.349   8.057   4.549  0.3489  0.6888  0.8152
  559MOL0     H75425   3.652   7.826   4.742 -0.5104 -0.0964 -1.5205
  559MOL0     H75426   3.894   7.803   4.811 -1.8907 -0.2949 -1.4254
  559MOL0     H75427   3.982   7.954   4.854 -0.6278  0.4126  1.2918
  559MOL0     H75428   3.858   7.896   4.963  0.9979 -3.1628  0.6168
  559MOL0     H75429   4.059   8.430   4.650 -0.9932 -1.5194  0.8315
  559MOL0     H75430   4.273   8.557   4.671 -0.8931  1.2232 -0.5142
  559MOL0     H75431   4.508   8.567   4.818 -0.7279 -0.3161 -0.1168
  559MOL0     H75432   4.418   8.699   4.727  1.3769  2.0431 -1.0188
  559MOL0     H75433   4.532   8.863   4.872  1.9325  1.2015 -0.4315
  559MOL0     H75434   4.610   8.733   4.955 -1.9606  0.1320  0.3591
  559MOL0     H75435   4.735   8.856   4.746  0.5253  0.6267 -0.6728
  559MOL0     H75436   4.647   8.738   4.655  1.1454  0.0414  0.0470
  559MOL0     H75437   4.844   8.707   4.873 -1.4764  2.9078 -0.3810
  559MOL0     H75438   4.730   8.576   4.854 -1.8588  1.7836 -0.6481
  559MOL0     H75439   4.820   8.548   4.602  4.9149  1.3604 -4.7275
  559MOL0     H75440   4.938   8.524   4.735 -0.6377 -2.8496 -2.1777
  559MOL0     H75441   4.876   8.750   4.534 -0.4608 -0.0183  0.0231
  559MOL0     H75442   4.960   8.791   4.679  0.1294  2.0451 -1.9667
  559MOL0     H75443   5.065   8.596   4.456  0.5438 -1.0132  0.2954
  559MOL0     H75444   5.127   8.589   4.620  0.7268  1.1986  0.0040
  559MOL0     H75445   5.253   8.751   4.449  1.8801  1.5575  1.5317
  559MOL0     H75446   5.197   8.833   4.600  1.4772 -0.8179 -0.0545
  559MOL0     H75447   4.164   8.587   5.094  0.4517  0.2113  0.5358
  559MOL0     H75448   3.976   8.435   5.050 -0.3458 -0.1792 -0.8345
  559MOL0     H75449   3.654   8.313   4.776 -2.5888 -0.7761  2.0033
  559MOL0     H75450   3.458   8.208   4.697  1.3580  2.3807  2.3849
  559MOL0     H75451   4.328   6.852   4.824 -0.7231 -0.6938 -1.3480
  559MOL0     H75452   4.578   6.813   4.867 -0.2398 -0.0438  0.2865
  559MOL0     H75453   5.021   7.014   4.585  0.9572  0.0146  1.6989
  559MOL0     H75454   5.266   6.972   4.573 -0.2289  0.0523 -4.3362
  559MOL0     H75455   5.449   6.901   4.476  1.0639  0.5197  0.0563
  559MOL0     H75456   5.558   6.759   4.492  0.1085 -0.3458 -0.2325
  559MOL0     H75457   5.304   6.737   4.353 -0.0722  0.4687  1.8719
  559MOL0     H75458   5.431   6.618   4.364 -3.2316 -1.1955  1.5590
  559MOL0     H75459   5.588   6.796   4.264  0.1849 -0.7886 -0.2084
  559MOL0     H75460   5.447   6.887   4.227  2.9685  0.6806 -0.8510
  559MOL0     H75461   5.507   6.597   4.153 -0.8065 -0.3701  0.8425
  559MOL0     H75462   5.484   6.744   4.045 -1.2537 -1.5870 -0.5175
  559MOL0     H75463   5.097   6.617   4.061  1.0515 -3.4614 -1.2282
  559MOL0     H75464   5.194   6.554   4.644  1.3701  1.2724  2.1877
  559MOL0     H75465   4.942   6.599   4.657 -0.7608  1.0177  1.0588
  560MOL0     O75466  10.430   6.562   8.402  0.1974  0.1144  0.1176
  560MOL0     C75467  10.512   6.574   8.490  0.5003 -0.5443  0.6610
  560MOL0     O75468  10.489   6.630   8.613  0.0181 -0.1218 -0.1441
  560MOL0     C75469  10.363   6.673   8.643  0.0354 -0.4416 -0.8878
  560MOL0     C75470  10.290   6.767   8.567 -0.1074  0.0472  0.2842
  560MOL0     C75471  10.156   6.803   8.612  0.4648  0.0594  0.3202
  560MOL0     C75472  10.099   6.740   8.726 -0.5207  0.1369 -0.5273
  560MOL0     O75473   9.971   6.778   8.759 -0.7114  0.5094  0.5352
  560MOL0     C75474   9.926   6.736   8.889  0.1509 -0.0117  0.0819
  560MOL0     C75475   9.791   6.799   8.912 -1.0801 -0.5437 -0.6852
  560MOL0     C75476   9.733   6.739   9.041 -1.1969  0.4652 -0.7562
  560MOL0     C75477   9.593   6.784   9.058  1.0799  0.3785 -0.4519
  560MOL0     C75478   9.537   6.721   9.183 -0.2247 -0.1619  0.6774
  560MOL0     C75479   9.544   6.562   9.190  0.0201 -0.3497  0.9966
  560MOL0     C75480   9.462   6.523   9.320 -0.8518  0.0124  0.1508
  560MOL0     C75481   9.543   6.548   9.448  0.0242 -0.2381  0.6192
  560MOL0     N75482   9.671   6.464   9.465  0.3145 -0.7317 -0.1168
  560MOL0     C75483   9.666   6.337   9.503 -0.8995  1.2777  0.0264
  560MOL0     C75484   9.798   6.293   9.491 -0.4587 -0.1017  0.4287
  560MOL0     C75485   9.834   6.149   9.519  0.7325 -0.2119 -0.0270
  560MOL0     C75486   9.888   6.086   9.392  0.4691 -0.9132  0.2892
  560MOL0     C75487   9.916   5.938   9.391 -0.0268  0.0498  0.8163
  560MOL0     C75488   9.797   5.846   9.428  1.0673 -0.4508  0.7358
  560MOL0     O75489   9.678   5.882   9.361  0.2909  0.0209  0.6661
  560MOL0     C75490   9.573   5.800   9.390  0.1403 -0.0377 -0.0868
  560MOL0     C75491   9.575   5.685   9.465 -0.3222  1.2473  1.1025
  560MOL0     C75492   9.464   5.608   9.502 -0.6541 -0.0771  0.0986
  560MOL0     C75493   9.486   5.487   9.592  0.3288 -0.1946  0.2498
  560MOL0     C75494   9.339   5.658   9.466 -0.0180  0.8942  0.6083
  560MOL0     C75495   9.203   5.596   9.504 -0.2206 -0.8098 -1.0263
  560MOL0     O75496   9.100   5.672   9.454  0.1162 -0.3917  0.4224
  560MOL0     C75497   8.971   5.644   9.496 -0.3468  0.2043  0.0070
  560MOL0     C75498   8.912   5.515   9.480 -0.4251  0.2526 -0.0009
  560MOL0     C75499   8.778   5.485   9.510  0.1572  0.5539 -0.3507
  560MOL0     C75500   8.697   5.579   9.576  0.1639  0.7103 -0.8701
  560MOL0     O75501   8.566   5.554   9.609  0.0180 -0.6992  0.8929
  560MOL0     C75502   8.501   5.449   9.522  0.5648 -0.0448 -0.6136
  560MOL0     C75503   8.352   5.481   9.530  0.3011  0.4750  0.1202
  560MOL0     C75504   8.285   5.455   9.664  0.4219  0.0710  0.6188
  560MOL0     C75505   8.299   5.307   9.708 -0.3281  0.9543 -0.3198
  560MOL0     C75506   8.217   5.291   9.837 -0.6793  0.5424 -0.4917
  560MOL0     C75507   8.204   5.143   9.870 -0.3225 -0.2959  0.8239
  560MOL0     C75508   8.327   5.086   9.945  0.1615 -1.0137  0.5286
  560MOL0     C75509   8.301   4.937   9.974  1.0356  0.2280  0.2412
  560MOL0    Cl75510   8.460   4.851  10.028  0.2899 -0.4319 -0.3951
  560MOL0     C75511   8.756   5.703   9.598  0.2266  0.6789 -0.6684
  560MOL0     C75512   8.888   5.741   9.551  1.3102 -0.9590 -0.0653
  560MOL0     O75513   9.188   5.498   9.577 -0.3484 -0.5671 -0.0723
  560MOL0     C75514   9.343   5.782   9.397  0.2229 -0.1309 -0.0998
  560MOL0     C75515   9.457   5.843   9.359  0.5269  0.2073  0.0619
  560MOL0     N75516   9.878   6.396   9.453 -0.3068 -0.2591  0.3058
  560MOL0     N75517   9.801   6.503   9.436  0.0992  0.1990  0.0066
  560MOL0     C75518  10.172   6.640   8.794  0.3420 -1.0448  0.5311
  560MOL0     C75519  10.304   6.616   8.751  0.7690  0.6128  0.1851
  560MOL0     C75520  10.649   6.520   8.468  0.3234 -0.4787 -1.1157
  560MOL0     C75521  10.755   6.567   8.550  0.4270 -0.6703  0.1628
  560MOL0     C75522  10.881   6.522   8.534  0.5193  0.4590 -0.5376
  560MOL0     C75523  10.920   6.434   8.432  0.2980  0.4976 -0.8953
  560MOL0     O75524  11.049   6.389   8.414  0.1933 -0.6523  0.0830
  560MOL0     C75525  11.081   6.277   8.335 -0.1245  0.7555 -0.1330
  560MOL0     C75526  11.210   6.213   8.368  0.1645  0.1733 -0.2044
  560MOL0     C75527  11.328   6.311   8.364 -0.1483  0.3099  0.1491
  560MOL0     C75528  11.469   6.243   8.373 -0.0478  0.0301 -0.5835
  560MOL0     C75529  11.571   6.332   8.316 -0.6762  0.8691 -0.9605
  560MOL0     C75530  11.670   6.387   8.281  0.4106  0.2233  0.4405
  560MOL0     C75531  10.815   6.393   8.345 -0.2819  0.6600  0.0945
  560MOL0     C75532  10.679   6.429   8.373 -0.5094 -0.0759  0.7130
  560MOL0     H75533  10.335   6.823   8.485  1.9159  1.4914  2.2527
  560MOL0     H75534  10.094   6.873   8.557 -4.2672 -4.3350 -0.6623
  560MOL0     H75535   9.910   6.629   8.870  0.5867 -0.0604 -0.0134
  560MOL0     H75536  10.002   6.750   8.966  0.7211 -3.4869  0.3015
  560MOL0     H75537   9.816   6.904   8.930  0.6051 -1.0750  0.3453
  560MOL0     H75538   9.726   6.791   8.825 -2.4125  0.5802  0.1651
  560MOL0     H75539   9.718   6.631   9.029  0.2734  0.0642  0.6647
  560MOL0     H75540   9.803   6.764   9.121 -1.8488  1.1490 -0.3917
  560MOL0     H75541   9.569   6.891   9.062 -0.4936  0.0377 -0.0823
  560MOL0     H75542   9.534   6.741   8.976 -0.9722  1.0390  0.5871
  560MOL0     H75543   9.582   6.765   9.272  0.0569 -1.7547  1.3649
  560MOL0     H75544   9.433   6.751   9.200  0.3434  3.8171 -1.7887
  560MOL0     H75545   9.493   6.524   9.102  3.5008 -0.4036 -1.1776
  560MOL0     H75546   9.646   6.522   9.193  0.0811 -0.5082 -1.4431
  560MOL0     H75547   9.367   6.574   9.337  0.0124  2.8991 -2.6961
  560MOL0     H75548   9.439   6.416   9.318  1.0561 -0.4186 -1.1459
  560MOL0     H75549   9.473   6.530   9.529 -0.5185  1.2402  0.5135
  560MOL0     H75550   9.582   6.648   9.465 -0.5816  0.3496 -1.1541
  560MOL0     H75551   9.579   6.276   9.523  0.4564 -0.3522  1.2590
  560MOL0     H75552   9.901   6.143   9.606 -1.0715 -0.5347  1.4001
  560MOL0     H75553   9.741   6.098   9.545  0.3004  1.2769  1.5117
  560MOL0     H75554   9.982   6.136   9.364  0.2670 -1.1302 -0.8467
  560MOL0     H75555   9.817   6.113   9.313  0.3524  1.0309  0.9975
  560MOL0     H75556  10.005   5.908   9.447  0.1593  0.8583  0.9568
  560MOL0     H75557   9.950   5.916   9.289 -3.9563  1.2694 -0.9809
  560MOL0     H75558   9.780   5.869   9.533 -1.1260 -2.5916  0.9368
  560MOL0     H75559   9.834   5.743   9.418  0.8746 -0.4526 -0.0553
  560MOL0     H75560   9.668   5.640   9.499 -1.0854 -0.3439  1.1709
  560MOL0     H75561   9.455   5.510   9.695 -0.1091 -1.4765  0.4254
  560MOL0     H75562   9.411   5.412   9.565 -2.4216  2.5138 -0.2373
  560MOL0     H75563   9.586   5.444   9.598 -0.7357 -3.0268 -0.8531
  560MOL0     H75564   8.979   5.436   9.449 -0.2012  0.4947 -0.1399
  560MOL0     H75565   8.747   5.384   9.486 -0.5390  1.3107 -2.9017
  560MOL0     H75566   8.530   5.442   9.417  0.3497 -1.5137 -0.6080
  560MOL0     H75567   8.526   5.351   9.565 -0.4147  0.6090  1.5683
  560MOL0     H75568   8.322   5.583   9.504 -2.0994 -0.5508 -1.4976
  560MOL0     H75569   8.307   5.417   9.453  3.7266 -1.9155 -0.1540
  560MOL0     H75570   8.178   5.479   9.653  0.2846 -0.0029  1.7331
  560MOL0     H75571   8.326   5.527   9.736  0.5207 -0.5486  1.1829
  560MOL0     H75572   8.267   5.232   9.634  1.2142  1.2009 -1.2773
  560MOL0     H75573   8.403   5.276   9.724 -0.5642 -1.3280 -2.5427
  560MOL0     H75574   8.118   5.331   9.812 -1.2039 -1.2595 -1.4457
  560MOL0     H75575   8.273   5.350   9.910 -1.3681  0.2983  0.2487
  560MOL0     H75576   8.114   5.130   9.932 -1.1569  0.9623 -0.0587
  560MOL0     H75577   8.180   5.093   9.776  3.8995  1.2560 -1.3254
  560MOL0     H75578   8.346   5.136  10.040  0.4767 -0.1329  0.0077
  560MOL0     H75579   8.416   5.102   9.884 -0.4759  2.7498  0.3863
  560MOL0     H75580   8.255   4.882   9.891  0.8047 -0.2276  0.6659
  560MOL0     H75581   8.230   4.937  10.057 -0.4594  0.0848 -0.9818
  560MOL0     H75582   8.697   5.779   9.650 -2.8764 -0.7130 -1.8839
  560MOL0     H75583   8.920   5.842   9.572 -0.8953 -0.3955  0.8793
  560MOL0     H75584   9.255   5.833   9.359 -0.3122 -0.2907  0.8836
  560MOL0     H75585   9.450   5.935   9.302 -0.0327 -1.5581 -2.9525
  560MOL0     H75586  10.138   6.595   8.886  2.8071 -0.4268  1.8203
  560MOL0     H75587  10.349   6.529   8.798 -3.8071 -0.9077  2.4185
  560MOL0     H75588  10.729   6.643   8.622  0.1518 -0.9011  0.3113
  560MOL0     H75589  10.962   6.552   8.599  0.6629 -0.8576 -0.0636
  560MOL0     H75590  10.994   6.211   8.348  0.1007  0.6531  0.9493
  560MOL0     H75591  11.085   6.312   8.231  1.9663 -0.5088 -0.5252
  560MOL0     H75592  11.202   6.133   8.293  1.2793 -1.7373  1.5915
  560MOL0     H75593  11.206   6.171   8.469  1.7160 -0.3460 -0.3385
  560MOL0     H75594  11.321   6.398   8.429  3.1254  0.0102  1.0974
  560MOL0     H75595  11.313   6.346   8.262 -2.1245 -2.6194 -0.6980
  560MOL0     H75596  11.475   6.148   8.320  2.0938  0.3682 -1.0502
  560MOL0     H75597  11.497   6.226   8.478  1.6540  1.0787 -0.8314
  560MOL0     H75598  11.763   6.426   8.244  0.1675  0.6235  0.2435
  560MOL0     H75599  10.834   6.326   8.262  1.5963  0.7584  0.4081
  560MOL0     H75600  10.595   6.389   8.317 -0.2785  0.2855  0.0941
  561MOL0     O75601   1.824   2.190   6.636  0.4947  0.1806 -0.4364
  561MOL0     C75602   1.859   2.145   6.747 -0.4443 -0.7094  0.6748
  561MOL0     O75603   1.785   2.077   6.835  0.0937  0.1048 -0.5957
  561MOL0     C75604   1.658   2.036   6.817 -0.4439  0.0060  1.5360
  561MOL0     C75605   1.582   2.042   6.698 -0.5393 -0.1222  0.4574
  561MOL0     C75606   1.455   1.999   6.694 -0.5910 -0.3237  0.4678
  561MOL0     C75607   1.397   1.938   6.806  0.0318 -0.4526  0.9619
  561MOL0     O75608   1.271   1.884   6.820  0.1779 -0.2660  0.4944
  561MOL0     C75609   1.195   1.869   6.698  0.1379  0.4104  0.0819
  561MOL0     C75610   1.081   1.756   6.707 -0.1518 -0.1312  0.3930
  561MOL0     C75611   0.946   1.774   6.634 -0.2457  0.1831 -0.4167
  561MOL0     C75612   0.840   1.841   6.723 -0.0146 -0.1256 -0.8145
  561MOL0     C75613   0.709   1.817   6.660  0.5245  0.2925 -0.4155
  561MOL0     C75614   0.695   1.891   6.526  0.1531 -0.1375 -0.1575
  561MOL0     C75615   0.538   1.875   6.471 -1.3508 -0.5361 -0.1444
  561MOL0     C75616   0.528   1.897   6.320 -0.3415  0.4488  0.3112
  561MOL0     N75617   0.407   1.840   6.256  0.0466 -0.6119  0.0693
  561MOL0     C75618   0.317   1.918   6.187 -0.2850  0.5534 -0.6763
  561MOL0     C75619   0.232   1.823   6.132 -0.8692 -0.3278 -0.0690
  561MOL0     C75620   0.118   1.867   6.036  0.1985 -0.4603 -0.1212
  561MOL0     C75621   0.134   2.005   5.972 -0.0519  0.0630 -0.2723
  561MOL0     C75622   0.100   2.121   6.065 -0.0349 -0.6038 -0.6474
  561MOL0     C75623  -0.031   2.176   6.028 -0.8353  0.6109 -0.3554
  561MOL0     O75624  -0.015   2.235   5.887  0.2726  0.2965 -0.3759
  561MOL0     C75625  -0.126   2.293   5.826 -0.2299  0.3302 -0.2627
  561MOL0     C75626  -0.184   2.234   5.713  0.1799  0.3786 -0.1114
  561MOL0     C75627  -0.302   2.281   5.665 -0.1752  0.2515  0.5181
  561MOL0     C75628  -0.354   2.213   5.540 -0.7346  0.2981  0.3500
  561MOL0     C75629  -0.365   2.399   5.728 -0.4332 -0.0124 -0.6876
  561MOL0     C75630  -0.496   2.464   5.669 -0.2277  0.4389  0.1339
  561MOL0     O75631  -0.533   2.430   5.540  0.1404  0.5930  0.4949
  561MOL0     C75632  -0.667   2.442   5.495  0.6602  0.5659 -0.5557
  561MOL0     C75633  -0.739   2.557   5.516  0.5192 -0.8643  0.4602
  561MOL0     C75634  -0.873   2.574   5.469 -0.3945 -1.0442  0.3496
  561MOL0     C75635  -0.942   2.471   5.400 -0.2607 -0.6060 -0.6529
  561MOL0     O75636  -1.071   2.481   5.353 -0.1116 -0.1699  0.4525
  561MOL0     C75637  -1.144   2.601   5.394 -0.2594 -0.3947  0.1184
  561MOL0     C75638  -1.278   2.618   5.320 -0.1066  0.2402  0.7200
  561MOL0     C75639  -1.356   2.727   5.392  0.4566 -0.0271 -0.9615
  561MOL0     C75640  -1.506   2.732   5.360 -0.4624 -0.1976  0.4499
  561MOL0     C75641  -1.579   2.842   5.449  1.4789  0.8491  0.2551
  561MOL0     C75642  -1.600   2.803   5.596 -1.8896 -0.1282 -0.4561
  561MOL0     C75643  -1.686   2.898   5.681  0.2595  0.8136  0.2580
  561MOL0     C75644  -1.764   2.816   5.779 -0.3285 -0.4580 -0.5314
  561MOL0    Cl75645  -1.851   2.932   5.872  0.6188  0.4374 -0.2227
  561MOL0     C75646  -0.874   2.351   5.378  1.0230 -0.1183 -0.5063
  561MOL0     C75647  -0.735   2.343   5.418  0.3225  0.6187 -0.5962
  561MOL0     O75648  -0.556   2.548   5.737  0.1352 -0.6115  0.0789
  561MOL0     C75649  -0.295   2.455   5.841 -0.6053  0.2670  0.0046
  561MOL0     C75650  -0.184   2.399   5.889 -0.5568 -0.0829 -0.1856
  561MOL0     N75651   0.272   1.697   6.180  1.0106 -1.0770 -0.0940
  561MOL0     N75652   0.378   1.710   6.257 -1.1831  0.0039 -0.1696
  561MOL0     C75653   1.471   1.929   6.924  0.4980  0.6928  0.0444
  561MOL0     C75654   1.606   1.971   6.924  0.9226 -0.0170 -0.1093
  561MOL0     C75655   2.004   2.152   6.777 -0.7254  0.4038  0.1871
  561MOL0     C75656   2.041   2.100   6.897 -0.4195 -0.1120  0.0597
  561MOL0     C75657   2.171   2.119   6.955  0.1309 -0.2912  0.2145
  561MOL0     C75658   2.265   2.209   6.900 -0.1354  0.5913 -0.2549
  561MOL0     O75659   2.393   2.229   6.956 -0.6431  0.2390 -0.2286
  561MOL0     C75660   2.493   2.321   6.905  0.4751 -0.3658  0.6170
  561MOL0     C75661   2.606   2.361   6.995  0.1938 -0.0445  0.1659
  561MOL0     C75662   2.554   2.399   7.133  0.1947 -0.0335  0.9946
  561MOL0     C75663   2.655   2.462   7.221  0.2332 -0.0133  0.6163
  561MOL0     C75664   2.782   2.388   7.234  0.6625 -0.1562 -0.6089
  561MOL0     C75665   2.878   2.333   7.285  0.4507 -0.9909  0.5535
  561MOL0     C75666   2.222   2.269   6.774  0.1699  0.2352 -0.5510
  561MOL0     C75667   2.101   2.232   6.709  1.3219  0.7865 -0.4268
  561MOL0     H75668   1.614   2.101   6.612  0.1286 -2.2863 -0.8444
  561MOL0     H75669   1.407   2.027   6.601  1.9390  1.9181 -0.3354
  561MOL0     H75670   1.139   1.962   6.680 -0.3999  0.3105  1.1668
  561MOL0     H75671   1.265   1.842   6.619 -0.3675 -2.0585  0.4150
  561MOL0     H75672   1.133   1.669   6.666  0.1280  0.4106 -0.4425
  561MOL0     H75673   1.055   1.741   6.812 -0.2467 -0.4823  0.3230
  561MOL0     H75674   0.961   1.810   6.532 -0.8610  0.6512 -0.3444
  561MOL0     H75675   0.906   1.672   6.632  0.3070 -0.0293 -0.9122
  561MOL0     H75676   0.838   1.811   6.828  0.3782  2.1197 -0.1019
  561MOL0     H75677   0.858   1.949   6.736  0.9356 -0.4961  1.2619
  561MOL0     H75678   0.689   1.710   6.655  4.7445 -0.7292  0.2449
  561MOL0     H75679   0.629   1.848   6.728 -1.1401 -4.0634 -0.0888
  561MOL0     H75680   0.728   1.996   6.528  1.6058 -0.5008 -2.1639
  561MOL0     H75681   0.758   1.839   6.453  0.9688 -2.1893  1.9171
  561MOL0     H75682   0.503   1.771   6.480 -2.1253 -0.1763  1.2261
  561MOL0     H75683   0.479   1.952   6.522 -2.0166  0.6129 -2.5064
  561MOL0     H75684   0.611   1.838   6.280 -2.2735  0.0907 -3.5960
  561MOL0     H75685   0.541   2.005   6.307  1.9339  0.5310  2.3962
  561MOL0     H75686   0.308   2.026   6.180 -0.2753  0.7066  1.0532
  561MOL0     H75687   0.118   1.797   5.952 -1.1072  1.1070 -1.4889
  561MOL0     H75688   0.015   1.853   6.069  0.2990 -0.7879  0.0554
  561MOL0     H75689   0.065   2.013   5.887  0.4478 -0.7485 -0.7680
  561MOL0     H75690   0.238   2.003   5.939  0.6596 -1.6798  1.8289
  561MOL0     H75691   0.177   2.198   6.072  1.2001 -1.9329  1.5963
  561MOL0     H75692   0.093   2.075   6.164 -1.7151 -1.4505 -1.1100
  561MOL0     H75693  -0.076   2.244   6.100 -2.4508 -1.3886  0.6306
  561MOL0     H75694  -0.099   2.091   6.039 -0.3097 -0.0090 -1.6314
  561MOL0     H75695  -0.136   2.147   5.669 -0.8993  0.0672 -0.7164
  561MOL0     H75696  -0.461   2.197   5.559 -0.9887  1.3700 -0.1148
  561MOL0     H75697  -0.334   2.273   5.451  1.8753 -1.2045 -0.1766
  561MOL0     H75698  -0.315   2.113   5.519  0.1578  1.0943 -2.2003
  561MOL0     H75699  -0.684   2.625   5.580  0.1570 -0.3671  0.2472
  561MOL0     H75700  -0.913   2.674   5.484  2.1923  0.6674 -2.8009
  561MOL0     H75701  -1.172   2.601   5.500  0.2751  0.7275  0.2724
  561MOL0     H75702  -1.089   2.693   5.375 -0.8353 -0.1878 -0.5857
  561MOL0     H75703  -1.259   2.634   5.213  2.1944 -2.5231  0.5944
  561MOL0     H75704  -1.345   2.532   5.329  0.2351 -0.0166  0.8497
  561MOL0     H75705  -1.321   2.830   5.379  0.9760 -0.3407 -2.2154
  561MOL0     H75706  -1.348   2.713   5.500  0.1032  2.1909 -0.6108
  561MOL0     H75707  -1.516   2.763   5.255 -0.1005 -0.8570  0.2120
  561MOL0     H75708  -1.555   2.635   5.371  2.2298 -1.5196  1.9173
  561MOL0     H75709  -1.681   2.856   5.411  1.4339  0.2183  0.1467
  561MOL0     H75710  -1.532   2.941   5.439 -0.7831  1.8589 -1.2849
  561MOL0     H75711  -1.643   2.703   5.599 -2.3888  0.0887  1.9496
  561MOL0     H75712  -1.499   2.804   5.638 -2.7495  1.7602  1.8318
  561MOL0     H75713  -1.761   2.961   5.631 -3.3782 -1.5023  2.2857
  561MOL0     H75714  -1.618   2.961   5.738  2.6897 -1.2977 -0.1178
  561MOL0     H75715  -1.708   2.746   5.841 -3.0281 -2.0824  0.2743
  561MOL0     H75716  -1.843   2.757   5.731 -1.7072 -1.2565  2.4669
  561MOL0     H75717  -0.909   2.276   5.308  2.2831 -0.1694 -1.1033
  561MOL0     H75718  -0.679   2.252   5.400  0.7863  1.0471 -1.4278
  561MOL0     H75719  -0.327   2.549   5.884 -1.2447  1.5890 -3.0849
  561MOL0     H75720  -0.128   2.452   5.966 -0.5367 -0.0975 -0.1897
  561MOL0     H75721   1.429   1.886   7.014 -1.6692 -3.7866 -2.7094
  561MOL0     H75722   1.658   1.943   7.016 -0.2833 -2.0615  0.0000
  561MOL0     H75723   1.974   2.039   6.958  0.2375  1.2674  2.2731
  561MOL0     H75724   2.193   2.059   7.043  3.8898 -2.3870 -1.9094
  561MOL0     H75725   2.542   2.267   6.824  2.3127 -2.6815  3.1051
  561MOL0     H75726   2.447   2.413   6.867 -1.7867 -1.5247  0.3274
  561MOL0     H75727   2.657   2.447   6.949 -2.1102  1.8828  1.0289
  561MOL0     H75728   2.683   2.283   7.006  0.7737  0.6704  1.3134
  561MOL0     H75729   2.541   2.297   7.171  0.9113 -0.6734 -0.3870
  561MOL0     H75730   2.461   2.456   7.137 -0.8567 -1.7501  3.6250
  561MOL0     H75731   2.611   2.490   7.316 -1.2050 -0.2105  0.0343
  561MOL0     H75732   2.689   2.552   7.169 -1.3583 -0.4362 -1.3240
  561MOL0     H75733   2.946   2.261   7.327  0.0472 -0.4209  2.2708
  561MOL0     H75734   2.288   2.336   6.720  1.1008  1.1157  1.5522
  561MOL0     H75735   2.068   2.265   6.611 -2.0391  0.9666  0.6530
  562MOL0     O75736   2.615  11.163   5.110  0.4583  0.6908  0.1428
  562MOL0     C75737   2.664  11.071   5.043  0.6721  1.4005  0.2500
  562MOL0     O75738   2.586  10.964   5.006 -0.4440 -0.3525 -0.4648
  562MOL0     C75739   2.447  10.962   5.039  0.1839 -0.2589 -0.0784
  562MOL0     C75740   2.374  11.040   5.136  0.2005  1.0111  0.6372
  562MOL0     C75741   2.235  11.035   5.151  0.0449  0.3119  0.2680
  562MOL0     C75742   2.167  10.935   5.087 -0.5267  0.5942 -0.6946
  562MOL0     O75743   2.030  10.925   5.076 -0.2654 -0.6236 -0.2066
  562MOL0     C75744   1.954  11.004   5.163 -0.4760  0.1140 -1.2848
  562MOL0     C75745   1.812  11.006   5.117 -0.0514 -0.1711  0.2270
  562MOL0     C75746   1.711  11.056   5.222 -0.0384 -1.5386  0.1302
  562MOL0     C75747   1.583  11.088   5.160  0.6565 -0.2452  0.0863
  562MOL0     C75748   1.479  11.121   5.268  0.2774 -0.2204  0.3508
  562MOL0     C75749   1.333  11.113   5.217 -0.2866 -0.0861 -0.3315
  562MOL0     C75750   1.229  11.097   5.323 -0.3209 -0.6145  0.4820
  562MOL0     C75751   1.214  10.952   5.365  0.0945 -0.8465 -0.6707
  562MOL0     N75752   1.143  10.940   5.494  0.7476 -0.3468 -0.0860
  562MOL0     C75753   1.006  10.939   5.504  0.5672  0.3689 -0.4838
  562MOL0     C75754   0.988  10.936   5.636 -0.6131  0.7179 -0.3189
  562MOL0     C75755   0.863  10.923   5.716  0.1084  0.4151  0.4449
  562MOL0     C75756   0.735  10.959   5.640  0.6393 -1.1624 -0.7870
  562MOL0     C75757   0.609  10.945   5.731 -0.5949  0.5438 -0.0927
  562MOL0     C75758   0.491  11.022   5.667  0.2101 -0.0871  0.0124
  562MOL0     O75759   0.449  10.963   5.542  0.1058  0.2734 -0.4357
  562MOL0     C75760   0.359  11.034   5.469 -0.4472  0.2058  1.2330
  562MOL0     C75761   0.402  11.110   5.357  0.5468  0.3155 -0.6702
  562MOL0     C75762   0.318  11.203   5.299  0.3108  0.0458  0.4692
  562MOL0     C75763   0.376  11.294   5.192 -0.0985  0.4977 -0.0356
  562MOL0     C75764   0.183  11.212   5.344 -0.2536  0.1951  0.4562
  562MOL0     C75765   0.092  11.316   5.289  0.1385  0.6611 -0.5363
  562MOL0     O75766  -0.030  11.323   5.352  0.0283  0.7770  0.3831
  562MOL0     C75767  -0.132  11.393   5.295 -0.1580 -0.0210  0.3207
  562MOL0     C75768  -0.156  11.527   5.325  0.9195  1.0707  0.2877
  562MOL0     C75769  -0.270  11.595   5.272 -0.4264  0.5910 -0.3576
  562MOL0     C75770  -0.360  11.517   5.197 -0.2720 -0.4922 -0.3866
  562MOL0     O75771  -0.466  11.589   5.148  0.1409 -0.1412 -0.1430
  562MOL0     C75772  -0.554  11.532   5.052 -0.6862 -0.2609 -0.2855
  562MOL0     C75773  -0.667  11.626   5.022 -0.5582  0.5462 -0.9091
  562MOL0     C75774  -0.773  11.566   4.925 -0.0944 -0.2246  0.3504
  562MOL0     C75775  -0.865  11.671   4.863  0.5416  0.3441  0.2090
  562MOL0     C75776  -0.964  11.589   4.765 -0.2854 -0.2111  0.9643
  562MOL0     C75777  -1.093  11.666   4.719  0.1096  0.3101  0.1343
  562MOL0     C75778  -1.167  11.596   4.605 -0.6877 -0.5468 -0.6078
  562MOL0     C75779  -1.276  11.687   4.556 -0.0108 -0.3224  0.1939
  562MOL0    Cl75780  -1.394  11.593   4.456 -0.1844  0.3588 -0.4963
  562MOL0     C75781  -0.332  11.376   5.171 -0.0569  0.1980 -0.9890
  562MOL0     C75782  -0.220  11.318   5.217 -0.1918  0.2596  0.7725
  562MOL0     O75783   0.115  11.375   5.181  0.2067  0.1884 -0.2197
  562MOL0     C75784   0.140  11.130   5.450 -0.1171  0.2034 -0.0376
  562MOL0     C75785   0.227  11.046   5.519 -1.0258  0.2577  0.4489
  562MOL0     N75786   1.107  10.931   5.701 -0.4797  0.2482  0.0001
  562MOL0     N75787   1.201  10.941   5.617  0.1513 -0.3736 -0.1345
  562MOL0     C75788   2.234  10.838   5.013  0.0392  0.0165 -0.4196
  562MOL0     C75789   2.372  10.855   4.992  0.5462 -0.5945 -0.1075
  562MOL0     C75790   2.811  11.062   5.000 -0.6625  0.0678 -0.0752
  562MOL0     C75791   2.881  10.948   4.945 -0.2503 -0.5840  0.5064
  562MOL0     C75792   2.996  10.964   4.874 -0.7081  0.2763 -0.1297
  562MOL0     C75793   3.055  11.093   4.862 -0.1793  0.9091 -0.4226
  562MOL0     O75794   3.177  11.115   4.792  0.7085 -0.2837  0.1071
  562MOL0     C75795   3.241  11.017   4.711  0.6631 -0.2792 -0.5429
  562MOL0     C75796   3.358  11.063   4.632  0.1295 -0.2032  0.3432
  562MOL0     C75797   3.440  10.947   4.584 -0.5700  0.2144  0.3312
  562MOL0     C75798   3.509  10.972   4.436  0.4429 -0.9800 -0.3243
  562MOL0     C75799   3.594  10.858   4.405  0.1516  0.4666 -0.0180
  562MOL0     C75800   3.672  10.775   4.352 -0.6343 -0.0022 -0.6070
  562MOL0     C75801   3.000  11.203   4.926  1.1034  0.4227 -0.1376
  562MOL0     C75802   2.874  11.184   4.999  0.0451 -0.2459  0.1674
  562MOL0     H75803   2.406  11.126   5.192 -1.2379  2.2729 -0.3898
  562MOL0     H75804   2.184  11.104   5.219 -1.1646 -1.0455  0.7957
  562MOL0     H75805   1.948  10.951   5.259  4.1902  2.1169  0.3682
  562MOL0     H75806   1.989  11.107   5.169  2.8783 -1.0023  1.4756
  562MOL0     H75807   1.811  11.073   5.031  1.1953  1.8098  1.6638
  562MOL0     H75808   1.786  10.903   5.093 -4.2577  0.6445  0.5698
  562MOL0     H75809   1.689  10.981   5.300  2.1785 -1.6901  0.6607
  562MOL0     H75810   1.750  11.141   5.279  0.2035 -0.9604 -0.8868
  562MOL0     H75811   1.594  11.173   5.091  0.6211  0.0313  0.4199
  562MOL0     H75812   1.540  11.008   5.099 -1.4997  0.7788  0.1956
  562MOL0     H75813   1.503  11.053   5.350 -0.4565 -0.8576  0.0466
  562MOL0     H75814   1.494  11.217   5.317  1.8954 -1.0880  1.6451
  562MOL0     H75815   1.313  11.205   5.161 -0.3717 -0.1552 -0.4144
  562MOL0     H75816   1.312  11.021   5.163  1.0104  0.3103 -1.5583
  562MOL0     H75817   1.277  11.155   5.403  1.6981 -1.7934  0.1994
  562MOL0     H75818   1.133  11.130   5.282 -0.7343 -0.2891  1.6659
  562MOL0     H75819   1.314  10.912   5.381  0.2564  0.3148  1.8274
  562MOL0     H75820   1.165  10.898   5.284 -2.7309  1.9311 -1.0231
  562MOL0     H75821   0.929  10.931   5.427  2.1117  1.9711 -2.3212
  562MOL0     H75822   0.853  10.816   5.735  2.1443  0.5809  3.0202
  562MOL0     H75823   0.869  10.971   5.814  0.8283 -3.4803  2.4931
  562MOL0     H75824   0.719  10.907   5.545 -2.1399 -0.1578 -0.9557
  562MOL0     H75825   0.741  11.067   5.622  1.6189 -0.7621  1.6181
  562MOL0     H75826   0.630  10.981   5.832 -0.6009 -1.5872  0.7273
  562MOL0     H75827   0.594  10.837   5.738 -2.7496  0.7551 -0.7778
  562MOL0     H75828   0.510  11.129   5.655 -1.7258  0.6190  2.4264
  562MOL0     H75829   0.406  11.024   5.736  0.1779  0.7710 -0.0481
  562MOL0     H75830   0.504  11.082   5.331  0.4429 -0.7129 -0.0525
  562MOL0     H75831   0.479  11.261   5.177 -0.9925 -3.4056  1.3331
  562MOL0     H75832   0.325  11.279   5.096  2.7735 -0.1948 -1.5690
  562MOL0     H75833   0.383  11.401   5.216  1.0702  0.6012 -0.7243
  562MOL0     H75834  -0.082  11.575   5.388  0.4505 -1.3604  2.8679
  562MOL0     H75835  -0.285  11.692   5.319 -2.3015 -1.7088  4.4711
  562MOL0     H75836  -0.504  11.509   4.958  0.5730  2.8691 -0.4715
  562MOL0     H75837  -0.601  11.444   5.098 -0.3724 -0.7036 -0.7991
  562MOL0     H75838  -0.715  11.651   5.117  0.7605 -2.8677  0.8376
  562MOL0     H75839  -0.629  11.717   4.974 -1.5761  0.9715 -0.9274
  562MOL0     H75840  -0.830  11.492   4.982  1.2253 -3.7236 -2.4619
  562MOL0     H75841  -0.729  11.509   4.842  0.8000  0.3521  0.4092
  562MOL0     H75842  -0.939  11.701   4.937  1.1408 -1.7632  1.7781
  562MOL0     H75843  -0.802  11.746   4.814  1.9277 -1.4096 -0.8257
  562MOL0     H75844  -1.003  11.499   4.814 -1.6054 -2.1368 -3.1888
  562MOL0     H75845  -0.901  11.572   4.677  0.0736  1.8384  0.7891
  562MOL0     H75846  -1.166  11.673   4.800 -1.7406 -0.1912 -1.3868
  562MOL0     H75847  -1.062  11.763   4.679 -0.4217  1.4076  2.2449
  562MOL0     H75848  -1.215  11.507   4.648 -1.7958  0.1595 -0.3398
  562MOL0     H75849  -1.094  11.570   4.528 -0.3034 -0.3110 -0.3287
  562MOL0     H75850  -1.226  11.770   4.506 -1.9526  1.0758  0.4778
  562MOL0     H75851  -1.328  11.735   4.640 -0.2779  0.0816 -0.2029
  562MOL0     H75852  -0.400  11.306   5.124 -1.7845 -0.1392  1.8294
  562MOL0     H75853  -0.198  11.212   5.206 -2.9831 -0.7089  3.1692
  562MOL0     H75854   0.044  11.133   5.501  0.4071 -4.0393  1.6031
  562MOL0     H75855   0.199  10.981   5.601 -0.4148  0.2255  0.6427
  562MOL0     H75856   2.176  10.759   4.967 -4.1505  2.0960  0.7131
  562MOL0     H75857   2.424  10.787   4.925 -0.0242 -0.3855 -0.7709
  562MOL0     H75858   2.851  10.843   4.947  0.0391 -0.7910 -2.0522
  562MOL0     H75859   3.042  10.877   4.828 -2.9198 -1.1381  0.2029
  562MOL0     H75860   3.279  10.928   4.763  2.5687 -1.0335 -3.0621
  562MOL0     H75861   3.158  10.985   4.647 -2.8133  1.0751  2.8754
  562MOL0     H75862   3.416  11.135   4.690  1.9852 -2.6325  1.6799
  562MOL0     H75863   3.315  11.121   4.550  0.7228  0.4767  0.5017
  562MOL0     H75864   3.388  10.850   4.584 -1.5935  0.7528 -0.3441
  562MOL0     H75865   3.521  10.934   4.656 -1.1916  0.6860  1.1217
  562MOL0     H75866   3.577  11.057   4.434  0.2812 -0.6939  2.6040
  562MOL0     H75867   3.428  10.991   4.364  0.9629  1.6252 -0.3271
  562MOL0     H75868   3.733  10.706   4.298  0.1428  1.4165 -1.6109
  562MOL0     H75869   3.044  11.302   4.916  2.0995  0.0929  0.8451
  562MOL0     H75870   2.833  11.262   5.061  0.2722  2.1500 -2.4642
  563MOL0     O75871   9.957  10.391   3.267  0.4956  0.6532 -0.0699
  563MOL0     C75872  10.010  10.420   3.373  1.2424 -0.1328 -0.2725
  563MOL0     O75873   9.968  10.386   3.496  0.4012 -0.1657 -0.1342
  563MOL0     C75874   9.844  10.337   3.524 -0.4500  0.0684 -0.6632
  563MOL0     C75875   9.843  10.234   3.608  0.1756 -0.7335  0.5380
  563MOL0     C75876   9.724  10.167   3.634 -0.9424 -0.8055  0.2528
  563MOL0     C75877   9.601  10.213   3.582 -0.6167  0.1937 -0.1029
  563MOL0     O75878   9.474  10.174   3.618  0.2485  0.1898  0.8669
  563MOL0     C75879   9.466  10.084   3.732 -0.2954 -0.4296 -0.0807
  563MOL0     C75880   9.501  10.168   3.856 -0.7201 -0.0391 -0.1132
  563MOL0     C75881   9.534  10.085   3.985  1.1597  0.8412  0.6669
  563MOL0     C75882   9.423   9.992   4.023 -0.6178  0.5680 -0.0475
  563MOL0     C75883   9.457   9.929   4.153  0.4486  0.5037  1.1150
  563MOL0     C75884   9.369   9.811   4.188  0.3394 -0.0855 -0.7686
  563MOL0     C75885   9.430   9.731   4.300  0.8165  0.3111 -0.4929
  563MOL0     C75886   9.446   9.803   4.435  0.3251 -0.7938  0.1035
  563MOL0     N75887   9.316   9.812   4.512 -0.3375  0.7710  0.3987
  563MOL0     C75888   9.278   9.721   4.607 -0.3162 -0.6442 -0.9696
  563MOL0     C75889   9.157   9.771   4.646  0.1887 -0.4600 -0.8224
  563MOL0     C75890   9.076   9.688   4.739 -0.2517 -0.6709 -0.5208
  563MOL0     C75891   8.919   9.714   4.730 -0.0706  0.7591  0.4322
  563MOL0     C75892   8.854   9.611   4.826  0.0011 -0.3664 -0.1828
  563MOL0     C75893   8.715   9.571   4.799  0.3117 -1.0875  0.8545
  563MOL0     O75894   8.729   9.508   4.666  0.3984  0.7471 -0.2921
  563MOL0     C75895   8.623   9.430   4.629  0.7156 -0.5644 -0.7411
  563MOL0     C75896   8.653   9.337   4.530 -0.3041  0.4578  0.2806
  563MOL0     C75897   8.553   9.251   4.474 -0.3671  0.5798  0.2483
  563MOL0     C75898   8.602   9.149   4.371  1.0207 -1.1437  0.6583
  563MOL0     C75899   8.410   9.258   4.520 -0.3166 -0.9519  0.4015
  563MOL0     C75900   8.313   9.168   4.472 -0.1283  1.2555 -0.0345
  563MOL0     O75901   8.199   9.159   4.551 -0.2944  0.4051 -0.4339
  563MOL0     C75902   8.080   9.135   4.490  0.3618  0.5820 -0.1048
  563MOL0     C75903   8.039   9.160   4.358 -0.4290 -0.0673  0.3870
  563MOL0     C75904   7.903   9.165   4.327 -0.0363  0.6367 -0.2063
  563MOL0     C75905   7.809   9.108   4.404 -0.4066 -0.2507 -0.3529
  563MOL0     O75906   7.687   9.079   4.348  0.2215 -0.8776 -0.5222
  563MOL0     C75907   7.611   9.184   4.289  0.0485 -0.5891 -0.0109
  563MOL0     C75908   7.504   9.128   4.188 -0.0557 -0.3126 -0.2462
  563MOL0     C75909   7.384   9.057   4.252  0.3853  0.7535 -0.5679
  563MOL0     C75910   7.263   9.065   4.175 -0.2598 -0.1207  0.7122
  563MOL0     C75911   7.156   8.961   4.207 -0.8363 -0.1357  0.1993
  563MOL0     C75912   7.025   8.973   4.127  0.1449 -0.2249  0.1303
  563MOL0     C75913   6.927   9.043   4.218 -0.0440 -0.2406  0.0285
  563MOL0     C75914   6.826   8.951   4.285  0.2334  0.2525 -0.5091
  563MOL0    Cl75915   6.687   9.051   4.351  0.0082  0.0038  0.4375
  563MOL0     C75916   7.848   9.056   4.526  0.4668  0.7084  0.1253
  563MOL0     C75917   7.983   9.080   4.569  0.3392  0.0731 -0.4413
  563MOL0     O75918   8.328   9.101   4.367 -0.1232  0.4548  0.4866
  563MOL0     C75919   8.386   9.352   4.622  0.1975 -0.3361 -0.6789
  563MOL0     C75920   8.491   9.433   4.682  0.1292 -0.2395  0.2015
  563MOL0     N75921   9.126   9.892   4.589 -0.7175 -0.2045  0.7284
  563MOL0     N75922   9.225   9.916   4.505  0.7465 -0.0763 -0.1174
  563MOL0     C75923   9.604  10.324   3.500 -0.3785 -0.0569  0.3204
  563MOL0     C75924   9.727  10.379   3.463  0.4056  0.0610  0.0772
  563MOL0     C75925  10.144  10.478   3.375 -0.2088  0.7240  0.1696
  563MOL0     C75926  10.185  10.555   3.489 -0.4288 -0.8404  1.1916
  563MOL0     C75927  10.317  10.605   3.501 -0.5316 -0.1722 -0.8865
  563MOL0     C75928  10.407  10.583   3.395 -0.2968 -0.1848  0.7692
  563MOL0     O75929  10.528  10.640   3.389  0.2355 -0.1063  0.2899
  563MOL0     C75930  10.617  10.613   3.490  0.1191 -0.5878 -0.4001
  563MOL0     C75931  10.750  10.600   3.420  0.3293 -0.4631 -0.0044
  563MOL0     C75932  10.765  10.517   3.287  0.2440 -0.2794 -0.4531
  563MOL0     C75933  10.733  10.373   3.323  0.6058  0.6562 -0.1439
  563MOL0     C75934  10.851  10.322   3.402 -0.4581 -0.6508 -0.6223
  563MOL0     C75935  10.945  10.286   3.474 -0.0484  1.0648 -0.2669
  563MOL0     C75936  10.371  10.515   3.278 -0.2020  0.0948  0.7173
  563MOL0     C75937  10.243  10.449   3.278 -1.0269  0.3064  0.9168
  563MOL0     H75938   9.931  10.206   3.665 -0.6257 -0.5034  1.9624
  563MOL0     H75939   9.746  10.078   3.693 -0.0512 -0.5766  0.2641
  563MOL0     H75940   9.360  10.061   3.742 -0.6462  1.0639 -0.1450
  563MOL0     H75941   9.529  10.003   3.694  0.2011  0.8343 -2.1490
  563MOL0     H75942   9.589  10.228   3.829 -0.0992 -1.0641 -0.4179
  563MOL0     H75943   9.420  10.235   3.887 -1.3099 -2.1180  3.3766
  563MOL0     H75944   9.623  10.028   3.956  1.7955  2.5639 -0.9492
  563MOL0     H75945   9.565  10.143   4.072  1.0077  0.7343  0.7922
  563MOL0     H75946   9.325  10.042   4.032 -1.1441 -0.2495 -1.0777
  563MOL0     H75947   9.410   9.915   3.947  0.4740  0.0813  0.2387
  563MOL0     H75948   9.563   9.900   4.150  0.9379  2.1121  1.6198
  563MOL0     H75949   9.449   9.997   4.239 -1.4999 -1.5836  2.7057
  563MOL0     H75950   9.266   9.837   4.213  0.6491 -0.1440  0.6397
  563MOL0     H75951   9.351   9.756   4.095 -2.3930 -1.5309  0.5089
  563MOL0     H75952   9.381   9.635   4.322  0.3595  0.2983 -1.5051
  563MOL0     H75953   9.530   9.715   4.261  0.8990  2.0690 -1.0792
  563MOL0     H75954   9.496   9.897   4.412 -1.3698  0.0299 -0.3381
  563MOL0     H75955   9.514   9.749   4.502  1.0739 -0.7953 -0.6408
  563MOL0     H75956   9.337   9.635   4.640  0.2167  0.4696  1.1606
  563MOL0     H75957   9.088   9.585   4.706  0.5449 -1.4316  1.9343
  563MOL0     H75958   9.112   9.705   4.841 -1.6242 -0.7062 -0.0022
  563MOL0     H75959   8.890   9.706   4.624  0.5426  3.7750 -0.0696
  563MOL0     H75960   8.893   9.818   4.752 -3.7421  0.1041 -0.2327
  563MOL0     H75961   8.864   9.665   4.920  0.5266 -0.5175 -0.1520
  563MOL0     H75962   8.909   9.517   4.815  0.9490  0.3762 -2.6158
  563MOL0     H75963   8.664   9.668   4.793 -1.9253 -2.1746  1.3210
  563MOL0     H75964   8.674   9.514   4.883  0.2813  0.9822  2.3309
  563MOL0     H75965   8.757   9.330   4.502 -0.2807  1.4525  0.0805
  563MOL0     H75966   8.546   9.150   4.277 -2.9302 -0.7264  2.8062
  563MOL0     H75967   8.704   9.162   4.336  0.6977 -2.0703 -0.7105
  563MOL0     H75968   8.580   9.048   4.408 -0.9470 -1.7337 -1.7759
  563MOL0     H75969   8.110   9.202   4.288 -1.3517  0.1391 -0.4465
  563MOL0     H75970   7.887   9.223   4.237  0.6322 -1.0067 -1.4520
  563MOL0     H75971   7.557   9.229   4.372 -2.0556 -0.7151 -1.2359
  563MOL0     H75972   7.662   9.266   4.237 -1.0571 -0.5042 -1.0150
  563MOL0     H75973   7.464   9.216   4.137  0.7854  0.1959 -0.0369
  563MOL0     H75974   7.548   9.058   4.115  0.1999 -0.0619 -0.3354
  563MOL0     H75975   7.365   9.106   4.348 -0.2190 -1.4904  0.5145
  563MOL0     H75976   7.414   8.953   4.266  2.1755  1.1953 -0.9131
  563MOL0     H75977   7.206   9.157   4.184  0.1469  0.1347  0.7135
  563MOL0     H75978   7.291   9.053   4.070  1.1206 -0.1979  1.0658
  563MOL0     H75979   7.134   8.966   4.314 -0.5598  0.5817  0.2292
  563MOL0     H75980   7.199   8.864   4.179 -3.6733 -1.2803 -0.4689
  563MOL0     H75981   7.044   9.023   4.032 -3.2031  1.4955  0.1980
  563MOL0     H75982   6.978   8.878   4.102 -1.7440  1.2221 -2.2285
  563MOL0     H75983   6.876   9.111   4.150  0.0108  0.7915  0.9854
  563MOL0     H75984   6.979   9.107   4.290  0.8129 -2.5526  1.5735
  563MOL0     H75985   6.868   8.886   4.362 -3.0898 -0.7861  0.6021
  563MOL0     H75986   6.781   8.884   4.211 -0.7101  0.8233 -0.4693
  563MOL0     H75987   7.779   9.015   4.599  0.5018  0.6519  0.1267
  563MOL0     H75988   8.009   9.070   4.674 -1.2946  2.3203  0.2452
  563MOL0     H75989   8.287   9.376   4.661  1.4178  0.1879  2.3821
  563MOL0     H75990   8.461   9.507   4.755  1.7444 -1.1303  1.8491
  563MOL0     H75991   9.511  10.361   3.458 -0.5273 -1.6641 -0.8407
  563MOL0     H75992   9.717  10.471   3.405 -2.0945 -0.2496 -0.0968
  563MOL0     H75993  10.112  10.571   3.567 -0.8717 -3.3779  1.4009
  563MOL0     H75994  10.338  10.666   3.588 -1.0954 -0.9352 -0.1999
  563MOL0     H75995  10.616  10.693   3.565  0.0078 -2.1910  1.3628
  563MOL0     H75996  10.594  10.516   3.535  1.3984  0.0699  1.8035
  563MOL0     H75997  10.825  10.572   3.494 -0.4146  0.2582  1.0461
  563MOL0     H75998  10.774  10.701   3.386 -0.2943 -0.7708 -1.4532
  563MOL0     H75999  10.866  10.522   3.245 -0.0891 -0.7176 -1.3438
  563MOL0     H76000  10.695  10.559   3.214 -0.9159 -0.4703  0.5066
  563MOL0     H76001  10.713  10.322   3.229 -3.0636  0.3196  0.6712
  563MOL0     H76002  10.643  10.359   3.384  3.5023 -1.3613  4.1622
  563MOL0     H76003  11.036  10.275   3.529 -1.1309 -0.7590  1.2593
  563MOL0     H76004  10.427  10.504   3.186  0.1777 -0.7288  1.0389
  563MOL0     H76005  10.209  10.383   3.198 -3.9753  1.3607  1.1611
  564MOL0     O76006   5.217   6.413   3.412 -0.2457 -0.1213 -0.6644
  564MOL0     C76007   5.225   6.403   3.531 -0.4777 -0.3640  0.4059
  564MOL0     O76008   5.118   6.372   3.614 -0.6131 -0.4263 -0.2012
  564MOL0     C76009   4.992   6.422   3.582 -0.6790 -0.1324  0.0939
  564MOL0     C76010   4.896   6.318   3.572  0.6151 -0.1936  0.4947
  564MOL0     C76011   4.768   6.346   3.513 -0.1975 -0.7039  1.0383
  564MOL0     C76012   4.736   6.472   3.464 -0.0997 -0.2840  0.5865
  564MOL0     O76013   4.619   6.501   3.395 -0.4184 -0.4313 -0.3991
  564MOL0     C76014   4.505   6.407   3.386 -0.8568 -0.4092 -0.0223
  564MOL0     C76015   4.387   6.491   3.361  0.1418 -0.4738  0.1047
  564MOL0     C76016   4.250   6.414   3.383 -0.4005  0.1461 -0.5350
  564MOL0     C76017   4.127   6.507   3.407  0.1984 -0.5609  0.1471
  564MOL0     C76018   4.007   6.414   3.415  0.0337 -0.0892  0.0097
  564MOL0     C76019   3.880   6.502   3.441 -0.4913  0.2987  0.2789
  564MOL0     C76020   3.754   6.417   3.478 -0.6370 -0.4824  0.6413
  564MOL0     C76021   3.634   6.489   3.532 -1.2332  0.5861 -0.0981
  564MOL0     N76022   3.562   6.569   3.436  1.1387 -0.0068 -0.2057
  564MOL0     C76023   3.437   6.533   3.404  0.1801 -0.0520  0.9928
  564MOL0     C76024   3.373   6.650   3.371  0.2072 -0.2907 -0.8797
  564MOL0     C76025   3.225   6.676   3.364  0.4437  0.6839  0.5786
  564MOL0     C76026   3.165   6.718   3.503  0.0106  0.6881 -0.8399
  564MOL0     C76027   3.018   6.777   3.483 -0.0275 -0.2746 -0.1422
  564MOL0     C76028   2.943   6.759   3.617 -0.3223 -0.2285 -0.2785
  564MOL0     O76029   2.806   6.768   3.610 -0.7853  0.4743  0.4975
  564MOL0     C76030   2.742   6.864   3.680 -0.1590 -0.3859 -0.1877
  564MOL0     C76031   2.613   6.892   3.633 -0.6087  0.7168  1.3888
  564MOL0     C76032   2.535   6.981   3.704  0.9796  0.2296  0.5851
  564MOL0     C76033   2.403   7.024   3.641 -0.7075  0.0991 -0.3949
  564MOL0     C76034   2.583   7.038   3.823  0.1031 -1.2490  0.1313
  564MOL0     C76035   2.497   7.107   3.914 -0.0481  0.2666  0.2464
  564MOL0     O76036   2.512   7.244   3.948  1.0464 -0.8855  0.0549
  564MOL0     C76037   2.440   7.305   4.053  0.1928  0.2882 -0.8467
  564MOL0     C76038   2.496   7.417   4.121  1.5500 -0.2052 -0.1476
  564MOL0     C76039   2.422   7.492   4.202  0.3341  0.3483  0.2290
  564MOL0     C76040   2.287   7.471   4.221 -0.1565  0.3394 -0.6634
  564MOL0     O76041   2.228   7.552   4.320 -0.1072  0.5035 -0.5021
  564MOL0     C76042   2.118   7.509   4.396  0.0144 -0.2631  0.0388
  564MOL0     C76043   2.057   7.624   4.481  0.9021 -0.3137 -0.0471
  564MOL0     C76044   1.982   7.735   4.394 -0.1481  1.3211 -0.1798
  564MOL0     C76045   1.943   7.844   4.490 -0.2765 -0.1128  0.7455
  564MOL0     C76046   1.829   7.943   4.446 -0.6461 -1.1981 -0.6483
  564MOL0     C76047   1.703   7.872   4.406  0.3059  0.1648  1.0861
  564MOL0     C76048   1.589   7.968   4.386 -0.9550  0.1885  0.3554
  564MOL0     C76049   1.472   7.896   4.359  0.3023  0.2221  0.2608
  564MOL0    Cl76050   1.350   7.992   4.307  0.0938  0.1522 -0.0528
  564MOL0     C76051   2.223   7.360   4.156 -0.3279  1.0709 -0.8280
  564MOL0     C76052   2.298   7.282   4.074 -0.2892 -0.0441  0.1356
  564MOL0     O76053   2.428   7.030   3.981  0.6476  0.2004  0.1594
  564MOL0     C76054   2.710   7.010   3.875 -0.2149  0.9408 -0.0462
  564MOL0     C76055   2.793   6.916   3.806 -0.2879 -0.2600  0.2819
  564MOL0     N76056   3.467   6.747   3.377  0.2908 -0.0871  0.5627
  564MOL0     N76057   3.579   6.702   3.415 -0.2456  0.1361  0.2238
  564MOL0     C76058   4.840   6.577   3.483  0.6847  0.6998  0.8156
  564MOL0     C76059   4.962   6.550   3.538  0.4476  0.4620  0.0687
  564MOL0     C76060   5.351   6.450   3.600  0.5531 -0.3970  0.5255
  564MOL0     C76061   5.351   6.471   3.737  0.6149 -0.4717 -0.1787
  564MOL0     C76062   5.454   6.530   3.799 -0.0786 -0.2192 -0.7053
  564MOL0     C76063   5.578   6.563   3.734  0.1492 -0.7035 -1.0332
  564MOL0     O76064   5.696   6.589   3.803  0.1502  0.0306  0.1488
  564MOL0     C76065   5.764   6.475   3.848  0.0560  0.2132 -0.2423
  564MOL0     C76066   5.876   6.528   3.943 -0.6913 -0.1332  0.6939
  564MOL0     C76067   5.824   6.599   4.074  0.0579  0.4300  0.8110
  564MOL0     C76068   5.933   6.609   4.184 -0.0538 -0.2801 -0.4122
  564MOL0     C76069   5.871   6.641   4.316  0.1975  0.4168 -0.4054
  564MOL0     C76070   5.817   6.671   4.425 -0.4327  0.5775  0.4594
  564MOL0     C76071   5.573   6.546   3.597 -0.2754  0.7622  0.3917
  564MOL0     C76072   5.464   6.488   3.527 -0.1568  0.4368 -0.1626
  564MOL0     H76073   4.927   6.217   3.600  0.6389 -0.2642  0.2222
  564MOL0     H76074   4.711   6.254   3.506  1.2071 -1.6291  1.2691
  564MOL0     H76075   4.518   6.323   3.317  2.6186 -1.0325  1.1749
  564MOL0     H76076   4.490   6.371   3.488  0.0213  2.4950  1.2633
  564MOL0     H76077   4.390   6.589   3.408 -0.1998 -0.4798  0.1409
  564MOL0     H76078   4.388   6.510   3.254 -0.4723 -2.2330 -0.2558
  564MOL0     H76079   4.228   6.360   3.290 -0.2797  2.6064 -2.0826
  564MOL0     H76080   4.270   6.352   3.471 -2.1888 -0.5833 -0.6095
  564MOL0     H76081   4.141   6.558   3.503 -1.3147 -1.6804  1.0186
  564MOL0     H76082   4.121   6.587   3.333  0.3584 -0.8401 -0.1697
  564MOL0     H76083   3.981   6.367   3.320 -3.9630  2.2327 -0.2506
  564MOL0     H76084   4.018   6.340   3.496 -0.6941  1.3143  1.4403
  564MOL0     H76085   3.903   6.553   3.535 -0.0321  0.4047  0.1107
  564MOL0     H76086   3.840   6.572   3.368 -1.9827  0.8709  1.5921
  564MOL0     H76087   3.736   6.354   3.391  0.2068 -0.1073  0.1949
  564MOL0     H76088   3.783   6.346   3.557  0.3727  0.1730  0.8751
  564MOL0     H76089   3.688   6.553   3.602 -0.5060  0.6606 -0.7158
  564MOL0     H76090   3.571   6.421   3.590  1.5810 -0.1037  2.4070
  564MOL0     H76091   3.394   6.433   3.402 -3.2566  1.2761 -0.2845
  564MOL0     H76092   3.210   6.760   3.294  0.3746 -1.0741 -1.6411
  564MOL0     H76093   3.166   6.589   3.335  1.0942  0.2390  0.5717
  564MOL0     H76094   3.221   6.795   3.557 -4.8583  3.1785  1.3174
  564MOL0     H76095   3.161   6.624   3.558 -0.2799  1.8451  1.2157
  564MOL0     H76096   2.967   6.722   3.403  1.0519  1.2809 -1.9608
  564MOL0     H76097   3.030   6.881   3.452  3.1941 -0.6644 -0.5062
  564MOL0     H76098   2.997   6.827   3.684 -1.2769  0.7435 -0.4572
  564MOL0     H76099   2.964   6.658   3.651 -1.3806 -0.0586  0.9662
  564MOL0     H76100   2.577   6.849   3.540  2.8120  1.1600 -0.3106
  564MOL0     H76101   2.420   7.057   3.538  1.2272 -2.4962 -1.0063
  564MOL0     H76102   2.335   6.938   3.634 -1.0454  0.3345 -0.0272
  564MOL0     H76103   2.350   7.094   3.707  0.0709 -1.1852  1.6924
  564MOL0     H76104   2.604   7.432   4.129  1.2453  1.7943  0.7205
  564MOL0     H76105   2.456   7.581   4.254  0.2053 -0.2968  1.4628
  564MOL0     H76106   2.041   7.478   4.325  0.5208 -0.3544 -0.4739
  564MOL0     H76107   2.149   7.429   4.463 -4.0788 -2.4091 -0.2895
  564MOL0     H76108   1.987   7.581   4.553 -1.5785  2.4606 -0.6243
  564MOL0     H76109   2.137   7.659   4.546  0.6598  0.3251 -0.0843
  564MOL0     H76110   1.896   7.683   4.351  0.6056 -2.6441  2.5018
  564MOL0     H76111   2.054   7.779   4.324  0.7082 -0.2659 -0.3603
  564MOL0     H76112   1.902   7.794   4.579 -0.5280 -0.5987  0.3652
  564MOL0     H76113   2.028   7.908   4.517  1.1397 -1.6550  0.0874
  564MOL0     H76114   1.870   7.987   4.355  1.1599  0.2036  0.7833
  564MOL0     H76115   1.819   8.018   4.525  0.2856  0.0836 -1.7090
  564MOL0     H76116   1.720   7.804   4.322 -0.6616 -0.0512  1.0560
  564MOL0     H76117   1.665   7.801   4.480 -2.1520 -2.2157 -2.1476
  564MOL0     H76118   1.613   8.044   4.311  1.9279  0.0867  1.0369
  564MOL0     H76119   1.571   8.029   4.475 -2.2972  0.5870 -0.1604
  564MOL0     H76120   1.442   7.851   4.454  2.7131 -0.1163  0.9262
  564MOL0     H76121   1.481   7.816   4.285 -1.1973  2.2988 -2.3471
  564MOL0     H76122   2.116   7.341   4.167  0.0402 -0.1167  1.5883
  564MOL0     H76123   2.246   7.203   4.021  0.7957 -1.4061  1.0200
  564MOL0     H76124   2.743   7.055   3.968  1.1371  1.6008 -0.8137
  564MOL0     H76125   2.891   6.893   3.846 -0.6266  0.8655  1.8414
  564MOL0     H76126   4.825   6.668   3.426 -3.2974 -1.1487 -1.5381
  564MOL0     H76127   5.031   6.634   3.536 -1.7027  2.3244 -2.9457
  564MOL0     H76128   5.265   6.453   3.800  1.3370 -1.3876  0.5748
  564MOL0     H76129   5.442   6.523   3.907 -1.8141  0.7049 -0.7955
  564MOL0     H76130   5.707   6.402   3.905 -1.8138 -0.8823 -3.3126
  564MOL0     H76131   5.802   6.406   3.771  0.7224  0.5827 -0.2583
  564MOL0     H76132   5.949   6.590   3.889 -1.8349  0.3608 -0.3480
  564MOL0     H76133   5.932   6.443   3.982  1.4367  1.0699  0.4097
  564MOL0     H76134   5.743   6.532   4.106 -0.0734  0.7750  1.2065
  564MOL0     H76135   5.779   6.694   4.045  0.3398  0.9160  1.8947
  564MOL0     H76136   5.999   6.690   4.151  0.0943 -1.9574 -4.8684
  564MOL0     H76137   5.998   6.521   4.182  0.3352 -0.2137  3.3119
  564MOL0     H76138   5.769   6.712   4.511 -3.1290  1.9356 -1.5418
  564MOL0     H76139   5.667   6.559   3.546 -0.7569  3.3175  0.0172
  564MOL0     H76140   5.473   6.495   3.419  1.9875  1.7321  0.0402
  565MOL0     O76141   1.632   3.661   7.746  0.0612 -0.7143  0.2282
  565MOL0     C76142   1.611   3.571   7.817  0.1945 -0.2288 -0.4634
  565MOL0     O76143   1.502   3.556   7.887  0.4029  0.5376  0.0388
  565MOL0     C76144   1.393   3.634   7.860  0.0594 -0.2719  0.0802
  565MOL0     C76145   1.269   3.571   7.861  0.1711  0.1125 -0.1397
  565MOL0     C76146   1.145   3.641   7.858  0.1780 -0.5182  0.2211
  565MOL0     C76147   1.140   3.784   7.864 -0.2015  0.4360 -0.1843
  565MOL0     O76148   1.027   3.859   7.862 -0.3942  0.5536 -0.7077
  565MOL0     C76149   0.987   3.915   7.737  0.7327  0.9400  0.1438
  565MOL0     C76150   0.839   3.874   7.706  0.6221  0.3760 -0.5171
  565MOL0     C76151   0.829   3.725   7.659  0.3929  0.1322  1.1171
  565MOL0     C76152   0.685   3.687   7.602 -0.2725  0.9388 -0.0957
  565MOL0     C76153   0.578   3.702   7.715  0.3234  0.5651  0.9914
  565MOL0     C76154   0.457   3.628   7.656 -0.7932  0.4746  0.5739
  565MOL0     C76155   0.344   3.620   7.754 -0.3849 -0.3240 -0.2834
  565MOL0     C76156   0.302   3.751   7.802 -0.1689  0.7566 -0.7001
  565MOL0     N76157   0.170   3.740   7.867  0.2538 -1.2373  0.7056
  565MOL0     C76158   0.131   3.650   7.961 -0.0902 -0.4303  0.0640
  565MOL0     C76159   0.009   3.684   7.997  0.3374 -0.7176  0.9981
  565MOL0     C76160  -0.086   3.622   8.098 -0.4078  0.0247 -0.1169
  565MOL0     C76161  -0.156   3.514   8.015 -0.1012 -0.6931 -0.1568
  565MOL0     C76162  -0.226   3.426   8.118  0.9598 -0.3352 -0.1078
  565MOL0     C76163  -0.345   3.365   8.046 -0.3822 -0.3972 -0.3862
  565MOL0     O76164  -0.420   3.287   8.138  0.0025  0.5261  0.0446
  565MOL0     C76165  -0.527   3.213   8.087  0.7637 -0.9008 -0.2935
  565MOL0     C76166  -0.579   3.106   8.157 -0.1103  0.3467 -0.5115
  565MOL0     C76167  -0.693   3.034   8.106 -0.0326 -0.3849  0.0103
  565MOL0     C76168  -0.748   2.925   8.204  0.1979  0.2641  0.4876
  565MOL0     C76169  -0.753   3.067   7.986 -0.8530 -0.5090  0.0071
  565MOL0     C76170  -0.872   2.998   7.936 -0.2957  0.3232 -0.3721
  565MOL0     O76171  -0.971   3.072   7.883 -0.0723 -0.3236 -0.2587
  565MOL0     C76172  -1.081   3.011   7.827  0.2488 -0.7821 -0.7528
  565MOL0     C76173  -1.110   3.044   7.691  0.6004  0.3187 -0.2268
  565MOL0     C76174  -1.221   2.982   7.625 -0.6261 -0.4800  0.0396
  565MOL0     C76175  -1.311   2.901   7.700  0.3706 -0.8037 -0.9021
  565MOL0     O76176  -1.419   2.835   7.645  0.1395 -0.1971 -0.3280
  565MOL0     C76177  -1.487   2.887   7.533  0.6465 -0.6813  1.1190
  565MOL0     C76178  -1.638   2.837   7.530 -0.2235 -0.1341 -0.5821
  565MOL0     C76179  -1.758   2.911   7.470  0.4506  1.0059 -0.1495
  565MOL0     C76180  -1.896   2.836   7.464  0.9552  0.5345  0.2716
  565MOL0     C76181  -2.013   2.923   7.408 -0.4268  1.3088  0.2129
  565MOL0     C76182  -2.141   2.850   7.434 -0.3196  1.0329  0.2885
  565MOL0     C76183  -2.250   2.958   7.422  0.9233 -0.2046 -0.4323
  565MOL0     C76184  -2.382   2.884   7.455 -0.5781 -0.7975  0.1826
  565MOL0    Cl76185  -2.521   2.988   7.432  0.0566 -0.2701 -0.2733
  565MOL0     C76186  -1.293   2.887   7.838  0.0916 -0.0207 -0.7755
  565MOL0     C76187  -1.178   2.931   7.900 -0.4469  0.1827  0.7838
  565MOL0     O76188  -0.856   2.875   7.922 -0.9400 -0.3461 -0.4222
  565MOL0     C76189  -0.702   3.183   7.919 -0.8196  0.2591  0.1967
  565MOL0     C76190  -0.591   3.249   7.966  0.2666 -0.6357 -0.5766
  565MOL0     N76191  -0.026   3.793   7.926  0.2780 -0.3636  0.7381
  565MOL0     N76192   0.071   3.830   7.851 -0.2549  0.6829  0.6757
  565MOL0     C76193   1.266   3.847   7.866  0.9283  0.1569  0.1047
  565MOL0     C76194   1.389   3.777   7.869  0.6616  0.5249 -0.5193
  565MOL0     C76195   1.719   3.471   7.845 -0.1717  0.4392  0.0748
  565MOL0     C76196   1.832   3.469   7.763 -0.0365 -0.0023  0.1798
  565MOL0     C76197   1.925   3.361   7.780  0.1092  0.0174 -0.3263
  565MOL0     C76198   1.909   3.260   7.880  0.2273  0.3283  0.4834
  565MOL0     O76199   1.989   3.146   7.902 -0.0440 -0.3136 -0.1810
  565MOL0     C76200   2.085   3.101   7.801  0.8229 -0.4018 -0.2458
  565MOL0     C76201   2.019   3.036   7.674 -0.1393  0.0029 -0.1479
  565MOL0     C76202   1.951   2.908   7.699  0.0922  0.3380 -0.3551
  565MOL0     C76203   1.808   2.918   7.738 -0.1014  0.0467  0.4498
  565MOL0     C76204   1.753   2.788   7.763  0.8272  0.4675  1.3664
  565MOL0     C76205   1.711   2.673   7.788 -0.6125 -0.4180 -0.2562
  565MOL0     C76206   1.796   3.275   7.963 -0.0041  0.0338  0.6332
  565MOL0     C76207   1.717   3.380   7.960 -0.2765 -0.5478  0.1748
  565MOL0     H76208   1.276   3.463   7.845  1.3415  0.2148 -0.4054
  565MOL0     H76209   1.050   3.590   7.859  0.7356 -1.5948  1.5034
  565MOL0     H76210   0.994   4.025   7.735  0.6201  0.9421 -0.8971
  565MOL0     H76211   1.050   3.876   7.657  1.2585 -2.6608  2.1181
  565MOL0     H76212   0.780   3.891   7.796 -0.6884 -0.6096 -1.1445
  565MOL0     H76213   0.802   3.936   7.623  1.5388  1.9309  0.2011
  565MOL0     H76214   0.894   3.702   7.574 -4.1652 -2.2780 -2.1811
  565MOL0     H76215   0.858   3.673   7.751 -1.2302 -2.0377  0.4930
  565MOL0     H76216   0.667   3.758   7.520  1.3277  2.0398  0.4602
  565MOL0     H76217   0.690   3.587   7.555 -1.0341  1.2384 -0.8365
  565MOL0     H76218   0.612   3.666   7.812 -0.5346  0.2529  1.1763
  565MOL0     H76219   0.569   3.809   7.732  1.9924  1.0432 -0.6836
  565MOL0     H76220   0.423   3.698   7.580  2.1021  1.9852  0.5458
  565MOL0     H76221   0.482   3.533   7.607 -0.9475  0.7545 -0.0517
  565MOL0     H76222   0.254   3.571   7.714 -2.7657  2.1669  1.6666
  565MOL0     H76223   0.373   3.556   7.837 -1.9150 -1.1213 -0.3225
  565MOL0     H76224   0.292   3.822   7.719  1.5169  0.4901 -1.1769
  565MOL0     H76225   0.381   3.783   7.871 -1.0272 -0.7618  1.0607
  565MOL0     H76226   0.187   3.565   7.999 -0.6493 -0.5842  0.5720
  565MOL0     H76227  -0.036   3.563   8.176  1.8865 -0.8713 -2.1451
  565MOL0     H76228  -0.150   3.701   8.138  0.5035  0.2611  0.9525
  565MOL0     H76229  -0.082   3.451   7.965 -0.3422 -1.3779  0.3258
  565MOL0     H76230  -0.233   3.555   7.949 -0.2291 -1.4858 -0.5094
  565MOL0     H76231  -0.263   3.461   8.215  0.4972 -1.8308  0.2823
  565MOL0     H76232  -0.159   3.346   8.152 -0.4629 -1.5764 -0.0900
  565MOL0     H76233  -0.318   3.302   7.960 -0.1424 -1.3489  0.3679
  565MOL0     H76234  -0.410   3.439   7.999 -0.8051  1.0864  2.3672
  565MOL0     H76235  -0.540   3.077   8.254  2.1504 -1.0924 -1.7560
  565MOL0     H76236  -0.825   2.860   8.160 -1.0155  1.9044  0.0704
  565MOL0     H76237  -0.655   2.872   8.227  1.8237  2.2141 -1.1602
  565MOL0     H76238  -0.793   2.972   8.292 -0.4699  1.5859 -0.5143
  565MOL0     H76239  -1.044   3.114   7.640 -0.0588  0.5467 -0.7785
  565MOL0     H76240  -1.233   2.994   7.518 -4.4226  0.6898  0.4553
  565MOL0     H76241  -1.503   2.995   7.536 -1.6398 -0.9857  1.5159
  565MOL0     H76242  -1.435   2.862   7.440  1.9191  1.6719  1.1238
  565MOL0     H76243  -1.645   2.747   7.469  1.3277 -1.7198  1.4170
  565MOL0     H76244  -1.655   2.813   7.636  2.6824  1.9155  0.4758
  565MOL0     H76245  -1.742   2.934   7.364  0.3700 -0.1126 -0.4264
  565MOL0     H76246  -1.778   2.998   7.532 -0.2834  1.3304 -0.8332
  565MOL0     H76247  -1.892   2.734   7.426 -0.6476  0.3245  0.5914
  565MOL0     H76248  -1.918   2.827   7.571 -0.1279 -1.0117 -0.0589
  565MOL0     H76249  -2.002   2.950   7.303  3.0301  0.2056  0.1845
  565MOL0     H76250  -2.012   3.011   7.473 -0.9302  1.6691 -0.2612
  565MOL0     H76251  -2.152   2.760   7.373  1.7602 -0.2276  1.6513
  565MOL0     H76252  -2.161   2.831   7.540 -2.0234  0.9239 -0.0130
  565MOL0     H76253  -2.250   2.986   7.316  0.6974  0.2002 -0.3286
  565MOL0     H76254  -2.227   3.037   7.495 -0.2595  0.5103 -0.7960
  565MOL0     H76255  -2.375   2.849   7.558  0.7075  0.2892  0.5083
  565MOL0     H76256  -2.382   2.798   7.388  1.6424 -0.7542  0.0600
  565MOL0     H76257  -1.374   2.847   7.898  1.3104 -1.0784  0.2166
  565MOL0     H76258  -1.161   2.904   8.003 -4.8198  1.6260  2.0782
  565MOL0     H76259  -0.733   3.214   7.820 -0.8622  0.5209  0.2905
  565MOL0     H76260  -0.562   3.339   7.912  0.5131 -0.2509  0.1738
  565MOL0     H76261   1.269   3.956   7.867  5.4868  0.2225  0.3535
  565MOL0     H76262   1.485   3.827   7.867  1.8936 -1.4251  2.4094
  565MOL0     H76263   1.852   3.546   7.690 -2.7514 -0.3829 -1.1095
  565MOL0     H76264   2.011   3.353   7.714 -1.6326  0.3715 -2.7899
  565MOL0     H76265   2.148   3.185   7.769  2.1270 -0.6594  1.5086
  565MOL0     H76266   2.142   3.021   7.850  1.0475 -0.7567 -1.0660
  565MOL0     H76267   2.102   3.021   7.605 -0.1346  1.2528 -0.4434
  565MOL0     H76268   1.966   3.117   7.622 -1.7869  0.6518  2.3455
  565MOL0     H76269   2.017   2.860   7.772  3.5503  2.9618 -1.4909
  565MOL0     H76270   1.970   2.841   7.615 -0.4760  1.7431 -1.6352
  565MOL0     H76271   1.751   2.972   7.662  1.1111  3.0705  1.5502
  565MOL0     H76272   1.797   2.967   7.836 -0.8836 -1.2209  1.0313
  565MOL0     H76273   1.677   2.572   7.793  2.9500 -2.0172 -3.4352
  565MOL0     H76274   1.770   3.206   8.043  0.2420  0.8388  1.4193
  565MOL0     H76275   1.633   3.391   8.029 -0.5547  1.8632 -0.4808
  566MOL0     O76276   0.700   0.616   1.940 -0.5379 -0.0324  0.3805
  566MOL0     C76277   0.775   0.712   1.963  0.3314 -0.7038  0.4324
  566MOL0     O76278   0.735   0.839   1.981  0.1274  0.4210 -0.7845
  566MOL0     C76279   0.613   0.871   2.034 -0.3384 -1.2392  0.7151
  566MOL0     C76280   0.492   0.856   1.968 -0.4233 -0.7379  0.9070
  566MOL0     C76281   0.365   0.894   2.032 -0.0753  0.9100  1.3801
  566MOL0     C76282   0.353   0.963   2.155 -1.5199  0.2376 -0.0224
  566MOL0     O76283   0.230   1.013   2.205 -0.0495 -0.4791 -0.6303
  566MOL0     C76284   0.114   0.965   2.144  1.2716  0.2318 -0.1818
  566MOL0     C76285  -0.013   1.020   2.225  0.5165 -1.3929  0.6813
  566MOL0     C76286  -0.146   1.001   2.156 -0.2964  0.2950 -0.6366
  566MOL0     C76287  -0.262   1.064   2.231 -0.6356 -0.2871 -0.6802
  566MOL0     C76288  -0.384   1.027   2.157 -0.0923  0.5462  0.3137
  566MOL0     C76289  -0.506   1.102   2.224  0.1784  0.3680 -0.8982
  566MOL0     C76290  -0.627   1.024   2.207  1.0986  0.2846  0.4686
  566MOL0     C76291  -0.742   1.099   2.264 -0.3141 -0.5679  0.8129
  566MOL0     N76292  -0.867   1.023   2.268 -0.4709 -0.3601 -1.0167
  566MOL0     C76293  -0.974   1.073   2.332 -0.5308  0.7681 -0.9653
  566MOL0     C76294  -1.082   1.011   2.287 -0.3026  0.6094 -0.3170
  566MOL0     C76295  -1.225   1.046   2.329 -0.4754 -0.1157 -0.3158
  566MOL0     C76296  -1.327   0.931   2.306  0.8305  0.0987  1.0560
  566MOL0     C76297  -1.424   0.919   2.423 -0.4289 -0.3875  0.5404
  566MOL0     C76298  -1.560   0.841   2.393 -0.4789 -0.0028  0.1176
  566MOL0     O76299  -1.631   0.887   2.276  0.6384 -1.3537  0.4058
  566MOL0     C76300  -1.748   0.822   2.241 -0.1201  0.3227 -0.1447
  566MOL0     C76301  -1.799   0.707   2.314 -0.6863  0.0163 -0.2389
  566MOL0     C76302  -1.919   0.652   2.280  0.7715  0.1242  0.3601
  566MOL0     C76303  -1.978   0.550   2.384 -0.1050 -0.1445 -0.0468
  566MOL0     C76304  -1.996   0.699   2.171 -0.9952  0.1183 -0.3182
  566MOL0     C76305  -2.133   0.653   2.134 -0.0755 -0.4501  0.5189
  566MOL0     O76306  -2.195   0.724   2.023 -0.6704 -0.1550 -0.6956
  566MOL0     C76307  -2.314   0.679   1.989  0.0874 -0.2092 -0.0991
  566MOL0     C76308  -2.338   0.622   1.869 -0.8332  0.2335 -0.3822
  566MOL0     C76309  -2.467   0.579   1.837  0.0440 -1.2330  0.5175
  566MOL0     C76310  -2.579   0.582   1.926  0.0194 -0.1282 -1.1243
  566MOL0     O76311  -2.707   0.547   1.891  0.0765 -0.5208  0.2952
  566MOL0     C76312  -2.724   0.494   1.758  0.6621 -0.0670  0.1659
  566MOL0     C76313  -2.878   0.474   1.746 -1.2262 -0.4460  0.6353
  566MOL0     C76314  -2.921   0.376   1.627 -0.2831  0.0799 -0.1689
  566MOL0     C76315  -2.841   0.246   1.597 -0.8636  0.7445  0.5863
  566MOL0     C76316  -2.858   0.199   1.451 -1.4209 -0.2616  0.7567
  566MOL0     C76317  -2.823   0.050   1.431  0.9334  0.3250  0.0505
  566MOL0     C76318  -2.837   0.006   1.281 -0.9691  0.4621  0.2820
  566MOL0     C76319  -2.838  -0.143   1.261 -0.4013 -0.1859 -0.3908
  566MOL0    Cl76320  -2.838  -0.148   1.083  0.5144  0.3329 -0.0576
  566MOL0     C76321  -2.547   0.635   2.051 -0.7028  1.1514 -0.4287
  566MOL0     C76322  -2.421   0.686   2.085  0.0827  0.1327  0.2216
  566MOL0     O76323  -2.189   0.567   2.199  0.2176  0.2412 -0.8537
  566MOL0     C76324  -1.946   0.806   2.093  0.1429 -0.3425 -0.2054
  566MOL0     C76325  -1.830   0.864   2.134  0.0868 -0.4818 -0.6018
  566MOL0     N76326  -1.047   0.936   2.173  0.0177  0.5495 -0.1572
  566MOL0     N76327  -0.912   0.940   2.165  0.4942 -1.6208 -0.1474
  566MOL0     C76328   0.478   0.995   2.209  0.7024 -0.1135 -0.0352
  566MOL0     C76329   0.603   0.948   2.153 -0.3454  0.6391 -1.2862
  566MOL0     C76330   0.933   0.687   1.936  1.3676 -0.1180  0.2854
  566MOL0     C76331   1.036   0.788   1.961  0.1538  0.4084  0.9366
  566MOL0     C76332   1.165   0.757   1.946  0.1659  0.7365  0.6765
  566MOL0     C76333   1.206   0.627   1.904  0.4447 -0.2362  0.4885
  566MOL0     O76334   1.339   0.605   1.887 -0.1668 -0.0600 -0.7081
  566MOL0     C76335   1.382   0.479   1.837 -0.0457  1.0651  0.2284
  566MOL0     C76336   1.536   0.474   1.832 -0.2068 -0.9590 -0.0844
  566MOL0     C76337   1.607   0.592   1.756  0.8956  0.1598 -0.1152
  566MOL0     C76338   1.730   0.549   1.683 -0.0589 -0.1252 -0.0079
  566MOL0     C76339   1.700   0.448   1.582  0.2649  0.3000 -0.2354
  566MOL0     C76340   1.677   0.361   1.498 -0.3475  0.1587 -0.3157
  566MOL0     C76341   1.105   0.523   1.884 -0.7380 -0.3811  0.7932
  566MOL0     C76342   0.974   0.561   1.895 -0.1835  0.0691 -0.0689
  566MOL0     H76343   0.504   0.814   1.868  1.4492 -0.4199  0.9640
  566MOL0     H76344   0.278   0.871   1.971  0.8235 -3.0606  1.2917
  566MOL0     H76345   0.108   0.997   2.039 -1.2607 -1.3943 -0.6202
  566MOL0     H76346   0.112   0.856   2.153  0.1926  0.2923  0.5611
  566MOL0     H76347  -0.020   0.970   2.322  1.5820 -1.9676  0.4854
  566MOL0     H76348   0.006   1.127   2.235  0.0009 -1.0055 -1.8849
  566MOL0     H76349  -0.146   1.041   2.055  0.6920 -3.2748 -2.2324
  566MOL0     H76350  -0.164   0.895   2.136 -1.5411  0.0899  1.3092
  566MOL0     H76351  -0.263   1.036   2.336  1.0301  1.0279 -0.2751
  566MOL0     H76352  -0.265   1.173   2.222 -3.1391 -0.4114 -2.3639
  566MOL0     H76353  -0.380   1.059   2.052 -0.2011 -1.8354 -0.4739
  566MOL0     H76354  -0.399   0.918   2.159 -5.3774  1.0093  1.0304
  566MOL0     H76355  -0.499   1.128   2.330 -1.8726  1.7203 -1.0533
  566MOL0     H76356  -0.516   1.198   2.172 -1.1928  0.6582 -0.1300
  566MOL0     H76357  -0.642   0.993   2.103  1.5913 -2.1971  1.0602
  566MOL0     H76358  -0.614   0.926   2.255  1.6945 -1.0540 -2.2093
  566MOL0     H76359  -0.755   1.187   2.200 -0.1556 -0.6150  0.7149
  566MOL0     H76360  -0.713   1.129   2.366  0.5833  1.1841  0.0921
  566MOL0     H76361  -0.970   1.148   2.411 -2.6316 -2.1168  2.1508
  566MOL0     H76362  -1.226   1.088   2.430  0.2122  0.6549 -0.6161
  566MOL0     H76363  -1.262   1.127   2.266  2.1108  0.5838 -1.0246
  566MOL0     H76364  -1.281   0.832   2.295 -0.9715 -0.6161 -0.7920
  566MOL0     H76365  -1.377   0.953   2.210 -2.3225 -2.0729  2.0235
  566MOL0     H76366  -1.454   1.017   2.463 -0.1783  1.1311 -2.7078
  566MOL0     H76367  -1.375   0.873   2.509 -2.6215 -0.4821  1.8312
  566MOL0     H76368  -1.609   0.844   2.490  3.3605 -0.7110  2.3141
  566MOL0     H76369  -1.523   0.739   2.378  1.2466  0.0981  3.0171
  566MOL0     H76370  -1.738   0.662   2.392 -0.3396  1.3778  0.3046
  566MOL0     H76371  -2.020   0.456   2.349 -3.0632  0.3618  1.8409
  566MOL0     H76372  -1.896   0.513   2.446  1.2850  2.6910 -0.0238
  566MOL0     H76373  -2.055   0.603   2.440  1.6565  4.2132 -1.2759
  566MOL0     H76374  -2.256   0.607   1.800 -0.4870  0.9011 -0.1224
  566MOL0     H76375  -2.472   0.545   1.734 -0.8890  1.0263 -0.2355
  566MOL0     H76376  -2.693   0.569   1.684  1.1852 -0.3765  0.0702
  566MOL0     H76377  -2.662   0.405   1.749  2.7360  0.9322  3.0399
  566MOL0     H76378  -2.926   0.439   1.838  1.9234 -0.1659  2.5657
  566MOL0     H76379  -2.919   0.573   1.725  0.1101 -0.0368 -0.2213
  566MOL0     H76380  -2.903   0.443   1.543  4.6501 -2.2922 -1.3622
  566MOL0     H76381  -3.026   0.353   1.645 -0.3255  0.7679  0.5281
  566MOL0     H76382  -2.734   0.262   1.612 -1.1223  3.8970 -0.2072
  566MOL0     H76383  -2.873   0.172   1.671  0.2167 -0.5888 -0.2310
  566MOL0     H76384  -2.787   0.255   1.388  0.4103 -0.5914  2.4081
  566MOL0     H76385  -2.957   0.228   1.415 -0.6057  0.8191 -0.7373
  566MOL0     H76386  -2.727   0.020   1.473  1.4460  0.2810 -1.1183
  566MOL0     H76387  -2.903  -0.009   1.477  2.6482 -1.9332  0.2970
  566MOL0     H76388  -2.744   0.037   1.232 -2.1657  0.7125 -1.9445
  566MOL0     H76389  -2.923   0.054   1.233  0.3844  2.3436 -0.4032
  566MOL0     H76390  -2.924  -0.177   1.318  1.8572 -1.4560  2.5269
  566MOL0     H76391  -2.750  -0.187   1.308 -2.1316 -2.5671  0.7874
  566MOL0     H76392  -2.629   0.649   2.121 -0.7043 -0.1646 -0.1229
  566MOL0     H76393  -2.402   0.735   2.180 -0.8281 -1.5123  1.2908
  566MOL0     H76394  -2.004   0.848   2.011 -0.7720  0.0187  0.5991
  566MOL0     H76395  -1.795   0.946   2.072  0.8082 -2.2210 -2.5779
  566MOL0     H76396   0.481   1.043   2.306 -0.9093 -1.9454  0.9943
  566MOL0     H76397   0.694   0.959   2.210 -1.9445 -0.6146  1.7744
  566MOL0     H76398   1.014   0.892   1.984 -0.6087  0.9631 -1.8806
  566MOL0     H76399   1.234   0.841   1.957 -0.3437  1.2983 -0.2314
  566MOL0     H76400   1.342   0.400   1.900  0.0612 -0.7824 -1.8866
  566MOL0     H76401   1.338   0.452   1.741  0.3975  1.9887 -0.2564
  566MOL0     H76402   1.560   0.376   1.789  1.4945 -0.4224 -0.4328
  566MOL0     H76403   1.563   0.473   1.939 -1.7529  3.4150  0.5419
  566MOL0     H76404   1.640   0.670   1.825 -0.1046 -1.4430  2.3210
  566MOL0     H76405   1.534   0.632   1.686  2.2804  1.0203 -1.1128
  566MOL0     H76406   1.807   0.514   1.753 -0.2270  2.5191  1.6518
  566MOL0     H76407   1.786   0.633   1.639  0.9871 -1.3091 -1.0378
  566MOL0     H76408   1.654   0.278   1.435 -1.5799 -0.1988  0.5693
  566MOL0     H76409   1.144   0.428   1.850  1.7495  1.7766 -3.0265
  566MOL0     H76410   0.899   0.485   1.873 -1.6442  1.5408 -0.3919
  567MOL0     O76411   5.466   4.833   0.705 -0.3674 -0.9116 -0.0400
  567MOL0     C76412   5.484   4.958   0.697 -0.8104  0.5404  0.6805
  567MOL0     O76413   5.392   5.050   0.701 -0.1634 -0.4531 -0.0661
  567MOL0     C76414   5.259   5.015   0.696  0.5132 -0.1124 -0.4982
  567MOL0     C76415   5.180   5.122   0.654 -0.6081  0.0522 -0.0779
  567MOL0     C76416   5.042   5.111   0.626 -1.1843  0.4228  0.5388
  567MOL0     C76417   4.974   4.988   0.654  0.8078  0.1728 -0.5682
  567MOL0     O76418   4.838   4.957   0.627 -0.0496 -1.2066 -0.3643
  567MOL0     C76419   4.741   5.059   0.633 -0.2554  0.1433 -0.1817
  567MOL0     C76420   4.610   4.981   0.628 -0.1360 -0.8817  0.0129
  567MOL0     C76421   4.581   4.943   0.780  0.4328 -0.2835 -0.3488
  567MOL0     C76422   4.449   4.866   0.789  0.3706  0.3041 -0.1494
  567MOL0     C76423   4.433   4.784   0.903 -0.1937  0.6694 -0.3426
  567MOL0     C76424   4.403   4.867   1.024  0.2177 -0.7048 -0.0751
  567MOL0     C76425   4.401   4.779   1.155 -0.2711  1.3009  0.1531
  567MOL0     C76426   4.391   4.849   1.288  0.0735 -0.2917 -0.5889
  567MOL0     N76427   4.489   4.963   1.305  0.5929  0.8297  0.4105
  567MOL0     C76428   4.626   4.964   1.320  0.2782  0.4026 -0.0126
  567MOL0     C76429   4.655   5.090   1.356 -0.0456  0.1902 -0.0882
  567MOL0     C76430   4.789   5.154   1.363  0.4818 -0.3416 -0.1049
  567MOL0     C76431   4.841   5.229   1.240 -0.4762  0.0258  0.1736
  567MOL0     C76432   4.857   5.137   1.115  0.3368 -0.1619  0.2281
  567MOL0     C76433   4.927   5.207   1.004  0.0732 -0.5950  0.5452
  567MOL0     O76434   5.045   5.266   1.052  0.6900  0.5965 -0.5074
  567MOL0     C76435   5.122   5.335   0.974  0.5953 -0.2080  0.4744
  567MOL0     C76436   5.095   5.466   0.940 -0.4471  0.1480  0.5723
  567MOL0     C76437   5.178   5.544   0.867  0.0563  0.0762 -0.1313
  567MOL0     C76438   5.145   5.690   0.827  0.9578  1.0411  0.7789
  567MOL0     C76439   5.307   5.497   0.834 -0.5311  0.3138 -0.2699
  567MOL0     C76440   5.428   5.572   0.768 -0.2686  0.0971 -0.2672
  567MOL0     O76441   5.505   5.498   0.679 -0.2033  1.0240 -0.4341
  567MOL0     C76442   5.619   5.560   0.631 -0.7486  0.7489  0.2591
  567MOL0     C76443   5.728   5.614   0.707 -0.6402 -1.1465 -0.3660
  567MOL0     C76444   5.833   5.678   0.646  0.3091 -0.1276 -0.5973
  567MOL0     C76445   5.835   5.685   0.506  0.8270 -0.6141  0.6057
  567MOL0     O76446   5.943   5.742   0.444 -0.4896  0.0763  0.2083
  567MOL0     C76447   6.077   5.680   0.467 -0.7415  0.6873  0.2816
  567MOL0     C76448   6.155   5.689   0.338  0.0823 -0.0539  1.1646
  567MOL0     C76449   6.303   5.646   0.349 -0.4786 -0.1247 -0.1737
  567MOL0     C76450   6.375   5.628   0.219 -0.1635 -0.3290 -0.7936
  567MOL0     C76451   6.526   5.637   0.224 -0.0677  0.5206  0.0397
  567MOL0     C76452   6.570   5.601   0.077 -0.4169 -0.2327  0.4218
  567MOL0     C76453   6.716   5.571   0.062 -0.0048  0.4454  1.2565
  567MOL0     C76454   6.762   5.545  -0.078 -0.0827 -0.5292  0.8893
  567MOL0    Cl76455   6.712   5.379  -0.120  0.1673 -0.2826  0.1461
  567MOL0     C76456   5.729   5.639   0.432 -0.0239  0.2045  0.1866
  567MOL0     C76457   5.627   5.568   0.494  0.0420  0.0602  0.5417
  567MOL0     O76458   5.445   5.688   0.793  0.1290 -1.1508  0.0288
  567MOL0     C76459   5.343   5.368   0.872  0.0040  0.2760  0.3907
  567MOL0     C76460   5.250   5.284   0.932  0.1778 -0.2872 -0.8071
  567MOL0     N76461   4.542   5.158   1.374  0.5877  0.4014  0.1401
  567MOL0     N76462   4.440   5.084   1.353  0.3694 -0.4903 -0.5652
  567MOL0     C76463   5.054   4.881   0.694  1.1135 -0.1647  0.3009
  567MOL0     C76464   5.196   4.892   0.716 -0.2542  0.1307 -0.3167
  567MOL0     C76465   5.620   5.006   0.680 -0.2198  0.0277  0.2134
  567MOL0     C76466   5.651   5.143   0.668 -0.6768 -0.5923  0.4425
  567MOL0     C76467   5.789   5.179   0.648  0.4252 -0.2110  0.0726
  567MOL0     C76468   5.891   5.081   0.639  0.9407 -0.3084 -1.3846
  567MOL0     O76469   6.019   5.126   0.609  0.1456 -0.1987  0.3311
  567MOL0     C76470   6.122   5.032   0.620 -0.1152 -0.6526  0.7381
  567MOL0     C76471   6.249   5.108   0.600 -0.8154  1.1791  0.0891
  567MOL0     C76472   6.304   5.181   0.719  0.9102 -0.4259  0.0083
  567MOL0     C76473   6.423   5.274   0.697  0.1353 -0.1209  0.0555
  567MOL0     C76474   6.552   5.210   0.648  0.8889 -0.8054  1.7682
  567MOL0     C76475   6.669   5.171   0.635  0.0767 -0.3743 -0.4611
  567MOL0     C76476   5.854   4.944   0.660 -0.9867 -0.0113  0.6938
  567MOL0     C76477   5.723   4.909   0.684 -0.4559  0.0105 -0.3483
  567MOL0     H76478   5.226   5.215   0.624 -1.8761  0.4860 -0.7688
  567MOL0     H76479   4.989   5.202   0.597 -1.2504 -0.2661 -1.7056
  567MOL0     H76480   4.762   5.108   0.729  1.0191 -2.9227  1.2568
  567MOL0     H76481   4.764   5.121   0.547  1.0479 -0.8210 -0.5495
  567MOL0     H76482   4.525   5.035   0.583 -0.4587 -1.6341 -0.2940
  567MOL0     H76483   4.621   4.897   0.559 -0.3757 -0.1400 -0.9554
  567MOL0     H76484   4.656   4.868   0.807 -0.9685 -2.0635 -1.1917
  567MOL0     H76485   4.583   5.028   0.849  0.6741 -0.0951 -0.5879
  567MOL0     H76486   4.370   4.940   0.772 -0.4965 -0.9175 -1.7008
  567MOL0     H76487   4.450   4.802   0.700  0.8225  0.0596  0.0302
  567MOL0     H76488   4.349   4.715   0.893  0.4070 -0.0720 -0.3645
  567MOL0     H76489   4.524   4.725   0.918 -0.9313 -0.6045 -0.6996
  567MOL0     H76490   4.475   4.948   1.037 -0.4623 -0.2676  1.0686
  567MOL0     H76491   4.300   4.905   1.028  0.6071  0.8414 -2.5829
  567MOL0     H76492   4.315   4.714   1.135  0.8288  0.3044 -1.7295
  567MOL0     H76493   4.491   4.716   1.149 -1.5736 -0.5490 -1.9462
  567MOL0     H76494   4.401   4.787   1.377 -2.7177  1.1721  0.8948
  567MOL0     H76495   4.292   4.895   1.290  0.5248  0.6840  0.3273
  567MOL0     H76496   4.698   4.887   1.295  1.5759  1.0755  1.4972
  567MOL0     H76497   4.786   5.216   1.453  1.9355 -0.3264 -0.0430
  567MOL0     H76498   4.865   5.077   1.379 -0.3164 -0.8610  1.2724
  567MOL0     H76499   4.941   5.265   1.269 -0.1400 -1.9370  1.6315
  567MOL0     H76500   4.759   5.301   1.229 -2.2529 -1.6343  1.8165
  567MOL0     H76501   4.761   5.093   1.088 -0.1936  0.4167  1.1197
  567MOL0     H76502   4.927   5.056   1.142 -1.4642 -1.3965  1.4363
  567MOL0     H76503   4.863   5.280   0.954  0.7936  0.0504  0.5439
  567MOL0     H76504   4.959   5.139   0.925  1.7405  1.7012 -0.8941
  567MOL0     H76505   4.998   5.494   0.980 -1.8006 -2.5007 -0.5878
  567MOL0     H76506   5.054   5.726   0.876  1.1920  1.3135  1.0201
  567MOL0     H76507   5.221   5.760   0.863  2.0313  0.2535  0.0634
  567MOL0     H76508   5.140   5.683   0.718  2.1238 -2.0548  0.8260
  567MOL0     H76509   5.730   5.605   0.815 -2.0352 -1.7654 -0.3661
  567MOL0     H76510   5.909   5.729   0.704 -0.9515 -0.0264  1.0588
  567MOL0     H76511   6.134   5.745   0.534  0.3895  1.8105 -1.6484
  567MOL0     H76512   6.077   5.572   0.482  0.6071  0.5021 -0.8279
  567MOL0     H76513   6.105   5.612   0.278 -0.2057  0.7178  0.4036
  567MOL0     H76514   6.155   5.784   0.284  0.8670 -0.3700  0.5781
  567MOL0     H76515   6.309   5.554   0.408  1.1786  0.4483  0.6190
  567MOL0     H76516   6.344   5.728   0.410  0.5648 -0.0225 -0.9796
  567MOL0     H76517   6.343   5.529   0.185  1.6647 -2.1532  2.2848
  567MOL0     H76518   6.327   5.702   0.155 -3.8283  0.3347  2.3319
  567MOL0     H76519   6.563   5.566   0.298 -0.9161  1.5882  1.5504
  567MOL0     H76520   6.564   5.737   0.248 -1.8633  1.8139 -2.0768
  567MOL0     H76521   6.523   5.510   0.038  1.4620 -0.2174 -2.0968
  567MOL0     H76522   6.549   5.691   0.018  1.0929  2.0937  3.1458
  567MOL0     H76523   6.757   5.500   0.134  1.8026  0.2629  0.1079
  567MOL0     H76524   6.773   5.662   0.085  2.6403 -0.7142 -0.2795
  567MOL0     H76525   6.871   5.558  -0.078 -0.0316 -0.9434  0.8196
  567MOL0     H76526   6.711   5.618  -0.141 -2.7696 -2.1367  1.0678
  567MOL0     H76527   5.729   5.643   0.324  2.5218  2.1519  0.1528
  567MOL0     H76528   5.537   5.541   0.439  0.1087 -0.6139  0.7635
  567MOL0     H76529   5.433   5.314   0.846 -0.0752  0.9494 -1.3994
  567MOL0     H76530   5.284   5.188   0.970  1.8850 -0.3582 -2.3808
  567MOL0     H76531   4.997   4.790   0.703  0.2125  0.2887 -0.5421
  567MOL0     H76532   5.250   4.806   0.752  0.4857 -1.1080 -4.0293
  567MOL0     H76533   5.581   5.224   0.682  0.8854  0.7086  0.9813
  567MOL0     H76534   5.783   5.285   0.626 -4.7938 -0.1365  0.5678
  567MOL0     H76535   6.128   5.003   0.725  2.4921  1.2952  1.2442
  567MOL0     H76536   6.107   4.944   0.556  2.2221 -1.5405  1.3367
  567MOL0     H76537   6.228   5.176   0.516 -0.2786  1.0552 -0.1457
  567MOL0     H76538   6.316   5.034   0.557 -2.7605 -0.6160 -0.0290
  567MOL0     H76539   6.327   5.115   0.804  0.2692  1.3437  1.6227
  567MOL0     H76540   6.220   5.245   0.746  0.4236 -0.2508 -1.8298
  567MOL0     H76541   6.464   5.321   0.786  2.4221 -2.8020  0.5695
  567MOL0     H76542   6.399   5.359   0.632 -1.1492  0.4172  1.1814
  567MOL0     H76543   6.772   5.148   0.646 -0.2309 -1.5484  0.0982
  567MOL0     H76544   5.917   4.857   0.649 -3.0902 -1.3792 -1.9072
  567MOL0     H76545   5.697   4.807   0.712 -2.3815  1.0721  1.9881
  568MOL0     O76546   4.219   7.865   5.817  0.8456 -0.7261 -0.3724
  568MOL0     C76547   4.251   7.849   5.698  0.6282 -0.1446 -0.1126
  568MOL0     O76548   4.177   7.790   5.606  0.1186  0.0736 -0.2378
  568MOL0     C76549   4.061   7.741   5.652  0.3900 -0.4342 -0.2219
  568MOL0     C76550   4.068   7.623   5.704 -0.3883 -0.2717 -1.0781
  568MOL0     C76551   3.952   7.552   5.760 -0.4074  0.1484  0.1260
  568MOL0     C76552   3.829   7.614   5.763  0.0975  0.0767 -0.0005
  568MOL0     O76553   3.727   7.531   5.803 -0.2455  0.9209  0.5068
  568MOL0     C76554   3.596   7.590   5.789 -0.2727  0.3353  0.9450
  568MOL0     C76555   3.476   7.514   5.845 -0.1138 -0.0750 -0.2382
  568MOL0     C76556   3.360   7.613   5.870  0.1681 -0.2655  0.5806
  568MOL0     C76557   3.242   7.535   5.923 -0.8990  0.1563  0.3661
  568MOL0     C76558   3.123   7.626   5.951 -0.0190  0.2205  0.0875
  568MOL0     C76559   3.148   7.714   6.074  0.3214 -0.4688 -0.2692
  568MOL0     C76560   3.030   7.803   6.113  0.2983  0.6551  0.2878
  568MOL0     C76561   3.065   7.913   6.216  0.1754  0.5248  0.0925
  568MOL0     N76562   2.978   8.031   6.220  0.3581  0.1382  0.0227
  568MOL0     C76563   2.855   8.048   6.164 -0.0950 -0.9711 -0.5214
  568MOL0     C76564   2.800   8.161   6.214 -0.5792 -0.8279 -1.5726
  568MOL0     C76565   2.666   8.233   6.177  0.0220  0.1605  0.8129
  568MOL0     C76566   2.535   8.143   6.215 -0.7608 -0.2576 -0.6963
  568MOL0     C76567   2.404   8.198   6.144 -0.1319 -1.3055  0.3328
  568MOL0     C76568   2.377   8.342   6.175  0.5340 -0.2350  0.0091
  568MOL0     O76569   2.265   8.392   6.101 -0.2847 -0.1822 -0.3928
  568MOL0     C76570   2.204   8.508   6.150 -0.4822 -0.0720  0.2243
  568MOL0     C76571   2.072   8.528   6.109 -0.0670 -1.4605 -0.4180
  568MOL0     C76572   1.989   8.616   6.183 -0.2902  0.5337  0.2689
  568MOL0     C76573   1.835   8.588   6.168  0.2217 -0.1982  0.0839
  568MOL0     C76574   2.046   8.706   6.264 -0.0565 -0.6400 -0.1279
  568MOL0     C76575   1.960   8.812   6.336 -0.8056 -0.1081  0.4429
  568MOL0     O76576   1.832   8.776   6.369 -0.4621 -0.0511 -0.2220
  568MOL0     C76577   1.752   8.873   6.426  0.2601  0.3929  0.4022
  568MOL0     C76578   1.650   8.928   6.338  0.2976  0.1746 -0.5595
  568MOL0     C76579   1.560   9.017   6.394  0.6060 -0.2614 -0.3391
  568MOL0     C76580   1.567   9.054   6.527  0.0806  0.6969  0.3378
  568MOL0     O76581   1.469   9.140   6.584 -0.0706  0.1826  0.5802
  568MOL0     C76582   1.352   9.171   6.507  0.2469 -0.8136 -0.0884
  568MOL0     C76583   1.246   9.231   6.603  0.1884  0.8904  0.1360
  568MOL0     C76584   1.114   9.264   6.530 -0.4139  0.3006  0.3472
  568MOL0     C76585   1.029   9.368   6.596  0.2949 -0.3323 -0.1628
  568MOL0     C76586   0.892   9.392   6.529 -0.1023  0.1672 -0.5653
  568MOL0     C76587   0.783   9.432   6.629 -0.5676 -0.5924  0.2027
  568MOL0     C76588   0.656   9.485   6.568  0.8191 -0.1016 -0.7471
  568MOL0     C76589   0.565   9.539   6.681  0.0715 -0.1586 -0.3059
  568MOL0    Cl76590   0.429   9.624   6.608  0.0588  0.5122 -0.6574
  568MOL0     C76591   1.659   8.990   6.608 -0.1408  0.1368 -0.6535
  568MOL0     C76592   1.752   8.902   6.564 -0.6344  0.3400  0.7079
  568MOL0     O76593   2.023   8.918   6.369  0.6386 -0.9428  0.1098
  568MOL0     C76594   2.189   8.703   6.270 -0.6972 -0.1153 -0.7561
  568MOL0     C76595   2.273   8.606   6.222  0.2325  0.6475  0.2280
  568MOL0     N76596   2.888   8.203   6.310 -0.5079 -1.1930 -0.5978
  568MOL0     N76597   2.994   8.122   6.317 -0.3485  0.1553  0.2439
  568MOL0     C76598   3.823   7.740   5.703  0.3428  1.2057 -0.5845
  568MOL0     C76599   3.932   7.803   5.655  0.0782 -0.5827 -0.2839
  568MOL0     C76600   4.377   7.914   5.653 -0.2155 -0.3980 -0.7068
  568MOL0     C76601   4.414   7.892   5.519 -0.0607 -0.9811  0.4092
  568MOL0     C76602   4.529   7.958   5.467 -0.5368  0.6815  0.9998
  568MOL0     C76603   4.625   8.026   5.545  0.6208 -0.0876 -0.7154
  568MOL0     O76604   4.732   8.084   5.485  1.1192  0.4404 -0.6134
  568MOL0     C76605   4.841   8.136   5.551 -0.0681  0.3958 -0.1702
  568MOL0     C76606   4.930   8.031   5.608 -0.9845 -0.4244 -0.2511
  568MOL0     C76607   4.944   7.913   5.513  0.6353  0.0683  0.3136
  568MOL0     C76608   5.028   7.792   5.544  0.9145 -0.2226  0.1570
  568MOL0     C76609   5.111   7.772   5.426 -0.2183 -0.7063 -0.3462
  568MOL0     C76610   5.182   7.765   5.328 -0.6993  0.2167  1.0746
  568MOL0     C76611   4.587   8.036   5.684  0.2730 -0.9324  0.0633
  568MOL0     C76612   4.459   7.996   5.736 -0.3989 -0.0152  0.8329
  568MOL0     H76613   4.168   7.582   5.713  0.2364  1.4749  0.9075
  568MOL0     H76614   3.965   7.456   5.808  2.6056 -0.5083 -1.7116
  568MOL0     H76615   3.597   7.690   5.834 -0.2474  0.9037 -0.2906
  568MOL0     H76616   3.563   7.609   5.687 -1.5202  0.2459  1.3185
  568MOL0     H76617   3.444   7.429   5.785  2.7613 -1.9618  0.7055
  568MOL0     H76618   3.503   7.459   5.935 -2.3288  0.6240  0.9055
  568MOL0     H76619   3.402   7.692   5.933  3.4754  0.2601 -1.9580
  568MOL0     H76620   3.347   7.657   5.771  0.6728 -0.5611  0.3776
  568MOL0     H76621   3.212   7.462   5.847  0.8420 -0.1596 -0.0505
  568MOL0     H76622   3.270   7.488   6.018 -1.6416  0.5229  0.7768
  568MOL0     H76623   3.111   7.690   5.863  1.2131 -1.6268 -1.5090
  568MOL0     H76624   3.035   7.562   5.965 -1.1055  1.6746  0.1039
  568MOL0     H76625   3.156   7.640   6.153 -1.4736 -0.2769  0.1302
  568MOL0     H76626   3.237   7.777   6.061  0.5468  1.4881  6.7074
  568MOL0     H76627   3.000   7.853   6.020  1.0443 -0.6525 -0.6953
  568MOL0     H76628   2.947   7.740   6.147  0.6484 -0.8955 -1.5038
  568MOL0     H76629   3.161   7.957   6.189  0.6410 -1.3413 -1.4625
  568MOL0     H76630   3.071   7.879   6.320 -1.9216  2.1456  0.8390
  568MOL0     H76631   2.804   7.995   6.085  1.0423  0.1128 -2.0458
  568MOL0     H76632   2.672   8.322   6.240  0.2255  0.6637  0.0932
  568MOL0     H76633   2.655   8.268   6.074  0.1162  0.2459  0.8322
  568MOL0     H76634   2.522   8.133   6.323 -4.2815 -3.0160 -1.2086
  568MOL0     H76635   2.553   8.044   6.172  0.9054 -0.9052  1.3077
  568MOL0     H76636   2.318   8.138   6.175 -3.0184  1.2484 -2.0014
  568MOL0     H76637   2.417   8.190   6.035  0.3866  2.3137 -0.0116
  568MOL0     H76638   2.465   8.404   6.153  1.7729 -2.0620 -0.5230
  568MOL0     H76639   2.365   8.346   6.284  2.7372  1.4881  0.2646
  568MOL0     H76640   2.025   8.448   6.054  0.0809 -3.7815  2.5485
  568MOL0     H76641   1.812   8.515   6.090  1.2292  0.3083 -0.7088
  568MOL0     H76642   1.791   8.556   6.264  2.9256  0.8274  1.7846
  568MOL0     H76643   1.789   8.682   6.136  0.1766 -0.9787 -2.3600
  568MOL0     H76644   1.639   8.893   6.236  0.9381  0.6013 -0.7826
  568MOL0     H76645   1.489   9.070   6.332  1.6891  0.6659 -0.8261
  568MOL0     H76646   1.381   9.244   6.430  1.8058  1.3494  2.3867
  568MOL0     H76647   1.309   9.082   6.460 -1.7539  1.2162 -2.3522
  568MOL0     H76648   1.229   9.159   6.683  0.2518  2.4668  1.6031
  568MOL0     H76649   1.288   9.317   6.656  0.0813  1.1772 -0.2345
  568MOL0     H76650   1.058   9.174   6.503  1.1752  0.0656 -2.5506
  568MOL0     H76651   1.132   9.297   6.427  0.4833  0.3879  0.5244
  568MOL0     H76652   0.992   9.333   6.693 -1.6958 -0.1589 -0.8051
  568MOL0     H76653   1.089   9.454   6.627 -0.9584 -0.0024  1.4971
  568MOL0     H76654   0.860   9.297   6.485  2.2128 -0.7152 -0.4630
  568MOL0     H76655   0.896   9.474   6.456 -1.7824 -1.3421 -2.4772
  568MOL0     H76656   0.763   9.358   6.706 -2.0362  0.8875  1.3173
  568MOL0     H76657   0.822   9.518   6.684 -0.9280 -1.1439  1.3291
  568MOL0     H76658   0.597   9.404   6.523 -0.5839  0.1486  0.5729
  568MOL0     H76659   0.670   9.563   6.493 -3.5547  0.0294 -1.6749
  568MOL0     H76660   0.625   9.613   6.735  0.6657 -1.5173  0.9712
  568MOL0     H76661   0.536   9.463   6.755 -2.9173  0.8302 -0.3423
  568MOL0     H76662   1.660   9.001   6.716  2.2711 -1.6313 -0.4160
  568MOL0     H76663   1.824   8.853   6.628 -1.8094  2.0600  3.5569
  568MOL0     H76664   2.230   8.779   6.335  0.2113 -0.7866 -0.5249
  568MOL0     H76665   2.376   8.598   6.255 -0.0620 -1.5601  0.7223
  568MOL0     H76666   3.728   7.793   5.702 -0.9055 -0.9177 -0.4646
  568MOL0     H76667   3.921   7.898   5.603  2.3523 -0.0857  0.0548
  568MOL0     H76668   4.357   7.832   5.449  0.9742 -0.2936 -1.0808
  568MOL0     H76669   4.543   7.946   5.360 -0.2201 -0.2590  1.1376
  568MOL0     H76670   4.901   8.196   5.482  1.0086 -1.1774 -0.6522
  568MOL0     H76671   4.812   8.205   5.630 -1.4972 -3.3989  2.9146
  568MOL0     H76672   4.906   7.994   5.708  0.2171  0.2137  0.2971
  568MOL0     H76673   5.030   8.068   5.632 -0.8785 -1.7802  1.6810
  568MOL0     H76674   4.968   7.967   5.421  0.6661  0.5230  0.5830
  568MOL0     H76675   4.846   7.873   5.485  0.9001  0.9008 -2.0128
  568MOL0     H76676   4.976   7.696   5.557  1.4281 -0.8734 -2.2084
  568MOL0     H76677   5.082   7.811   5.637  1.7778 -3.5359  0.4653
  568MOL0     H76678   5.248   7.741   5.246 -1.0986 -2.2412  1.4016
  568MOL0     H76679   4.638   8.107   5.749 -2.0821 -1.5571  2.7688
  568MOL0     H76680   4.426   8.020   5.837  2.4606 -1.5287  2.2570
  569MOL0     O76681   4.841   3.787   3.822 -0.2391  0.4118  0.2827
  569MOL0     C76682   4.826   3.716   3.925 -0.2089 -0.2076  0.6679
  569MOL0     O76683   4.858   3.577   3.929  0.1733  0.6477  0.0272
  569MOL0     C76684   4.928   3.524   3.825  0.3102 -1.0623  0.2831
  569MOL0     C76685   4.853   3.513   3.700  0.6367  0.5491 -0.4457
  569MOL0     C76686   4.928   3.468   3.588 -0.2170 -0.3743 -0.2100
  569MOL0     C76687   5.065   3.424   3.592  0.0078 -0.2676  0.1680
  569MOL0     O76688   5.114   3.360   3.479  0.5686  0.3375  0.1399
  569MOL0     C76689   5.255   3.329   3.479 -0.1275  0.0554 -0.5371
  569MOL0     C76690   5.308   3.271   3.350 -0.2817 -0.2764  0.2242
  569MOL0     C76691   5.269   3.122   3.307 -0.0407 -0.0327 -0.8121
  569MOL0     C76692   5.115   3.107   3.313 -0.3090 -0.2542  0.6037
  569MOL0     C76693   5.074   2.975   3.256  0.7272  0.7800  0.2729
  569MOL0     C76694   4.925   2.979   3.215  0.5059  1.2008  0.4247
  569MOL0     C76695   4.893   2.877   3.107  0.9346  0.4368 -0.0928
  569MOL0     C76696   4.738   2.862   3.089 -0.1462  0.0218 -0.0380
  569MOL0     N76697   4.692   2.751   3.006 -0.7920  1.1043 -0.0143
  569MOL0     C76698   4.686   2.764   2.869  0.1242 -0.0149 -0.6238
  569MOL0     C76699   4.594   2.679   2.834  0.2071 -0.4906 -0.5471
  569MOL0     C76700   4.540   2.668   2.695  1.0083  0.4910 -0.0233
  569MOL0     C76701   4.468   2.802   2.638 -0.0909 -0.3222 -0.2445
  569MOL0     C76702   4.395   2.783   2.504  0.1682 -0.9939 -0.2273
  569MOL0     C76703   4.273   2.695   2.503  0.1420  0.0960 -0.4251
  569MOL0     O76704   4.154   2.752   2.566  0.2168 -0.1714  0.2257
  569MOL0     C76705   4.065   2.830   2.484  0.3812  0.3587 -0.4396
  569MOL0     C76706   4.095   2.859   2.345  1.0383 -0.0298  0.1739
  569MOL0     C76707   4.009   2.944   2.271 -0.0062  0.4371 -0.3682
  569MOL0     C76708   4.035   2.961   2.120  0.8445 -0.2812  1.2526
  569MOL0     C76709   3.891   2.987   2.331 -0.6237  0.0474 -0.0457
  569MOL0     C76710   3.786   3.071   2.264 -1.2334 -0.2548 -0.3542
  569MOL0     O76711   3.653   3.028   2.286  0.0248  0.4035 -0.0972
  569MOL0     C76712   3.550   3.090   2.222 -0.4000  1.1413  0.5774
  569MOL0     C76713   3.516   3.052   2.095  0.1786  0.5100 -0.2545
  569MOL0     C76714   3.399   3.095   2.041  0.0360  0.6667  0.5356
  569MOL0     C76715   3.293   3.161   2.113  0.4408 -0.1570 -0.1855
  569MOL0     O76716   3.164   3.199   2.073 -0.6694  0.5315  0.2880
  569MOL0     C76717   3.109   3.112   1.976  0.7257  0.2325  0.7624
  569MOL0     C76718   3.131   3.180   1.837  0.0534 -1.3645 -0.8888
  569MOL0     C76719   3.042   3.301   1.836 -0.1592  0.0671 -0.3036
  569MOL0     C76720   3.039   3.374   1.706 -0.0115 -0.4890  1.3137
  569MOL0     C76721   2.950   3.499   1.709  0.1529 -0.2552 -0.6111
  569MOL0     C76722   2.934   3.552   1.564 -0.1804 -0.3430 -0.3066
  569MOL0     C76723   2.912   3.703   1.540 -0.4518 -0.0562 -0.1194
  569MOL0     C76724   2.928   3.748   1.397  0.4114 -0.5968  0.9145
  569MOL0    Cl76725   2.790   3.707   1.299  0.1631 -0.0155  0.0559
  569MOL0     C76726   3.337   3.209   2.237 -0.0640  0.1146  0.3080
  569MOL0     C76727   3.464   3.179   2.291  1.0889 -0.7806  0.0938
  569MOL0     O76728   3.815   3.174   2.201 -0.2795 -0.2996 -0.3108
  569MOL0     C76729   3.865   2.959   2.470  1.0654  0.6480 -0.6084
  569MOL0     C76730   3.949   2.882   2.548  0.1709 -0.2175 -1.1132
  569MOL0     N76731   4.542   2.610   2.946 -0.2082  0.4934 -1.2132
  569MOL0     N76732   4.608   2.648   3.045 -0.2948 -0.9380  0.0312
  569MOL0     C76733   5.127   3.433   3.725 -0.8884 -0.2236  0.6143
  569MOL0     C76734   5.056   3.471   3.836 -0.2098  0.0134  0.3366
  569MOL0     C76735   4.751   3.781   4.030 -0.1422  0.0123 -0.5107
  569MOL0     C76736   4.744   3.920   4.050  0.7671  0.1384 -0.6782
  569MOL0     C76737   4.673   3.961   4.164  0.4086 -0.2758  0.3171
  569MOL0     C76738   4.609   3.879   4.256  0.6042  0.3272  0.1863
  569MOL0     O76739   4.518   3.925   4.347 -0.4866 -0.7723  0.1328
  569MOL0     C76740   4.486   4.065   4.343  0.0707 -0.8714 -0.3376
  569MOL0     C76741   4.378   4.086   4.453  0.0955  0.8853  0.6493
  569MOL0     C76742   4.238   4.049   4.385 -0.4139  0.9401  0.4303
  569MOL0     C76743   4.126   4.046   4.487  0.1459 -1.2220  0.0725
  569MOL0     C76744   3.993   4.041   4.421 -0.4062 -0.7831 -0.4039
  569MOL0     C76745   3.879   4.025   4.380 -0.2302 -0.1476  0.1807
  569MOL0     C76746   4.629   3.739   4.243  0.5722 -0.3469 -0.1397
  569MOL0     C76747   4.706   3.695   4.134 -0.0715  0.0856 -0.0537
  569MOL0     H76748   4.749   3.542   3.690 -0.4443 -0.8517  4.0021
  569MOL0     H76749   4.882   3.460   3.490  2.0958  0.5315 -1.4727
  569MOL0     H76750   5.304   3.424   3.499 -2.0527  1.2865 -1.3095
  569MOL0     H76751   5.278   3.261   3.562  1.1512  3.7027  2.3444
  569MOL0     H76752   5.301   3.343   3.267 -0.3485  2.7354  2.6328
  569MOL0     H76753   5.416   3.260   3.363  0.0763  1.8088 -0.5706
  569MOL0     H76754   5.300   3.104   3.204 -1.6792  0.4007 -1.4031
  569MOL0     H76755   5.309   3.054   3.383 -4.0286  0.9811  2.5727
  569MOL0     H76756   5.076   3.127   3.414  0.5382  3.9318  0.2967
  569MOL0     H76757   5.082   3.183   3.242 -0.3538  1.3563  2.2457
  569MOL0     H76758   5.126   2.958   3.161  1.7959  0.5556  0.8789
  569MOL0     H76759   5.089   2.884   3.314  0.4457  0.2357 -0.4917
  569MOL0     H76760   4.858   2.958   3.299 -1.2604  0.0165 -1.1945
  569MOL0     H76761   4.895   3.076   3.175  0.1321  0.8645 -0.1330
  569MOL0     H76762   4.944   2.891   3.011 -2.6109 -0.9971 -2.4257
  569MOL0     H76763   4.929   2.779   3.139  1.4802  1.1479  1.5697
  569MOL0     H76764   4.700   2.954   3.045 -2.8145 -1.6051 -1.3873
  569MOL0     H76765   4.695   2.849   3.189 -0.4409 -0.5511 -0.2313
  569MOL0     H76766   4.728   2.844   2.809 -1.6253  2.5423  1.3582
  569MOL0     H76767   4.614   2.630   2.626 -1.1335 -0.7014 -1.7802
  569MOL0     H76768   4.467   2.587   2.697  0.2744  1.1063 -1.0444
  569MOL0     H76769   4.550   2.871   2.616 -0.8898  0.9683  0.6637
  569MOL0     H76770   4.396   2.848   2.706 -1.8222 -2.0327 -0.8153
  569MOL0     H76771   4.463   2.744   2.427 -3.0339 -2.7731 -2.3663
  569MOL0     H76772   4.370   2.882   2.467  2.2657 -0.3523 -0.0909
  569MOL0     H76773   4.279   2.596   2.548 -0.6705  0.7851  1.2855
  569MOL0     H76774   4.255   2.679   2.396 -2.2078  0.0196 -0.0845
  569MOL0     H76775   4.189   2.833   2.296  0.8772  1.3268 -0.9264
  569MOL0     H76776   3.945   2.974   2.059  2.0795 -2.2680 -1.2399
  569MOL0     H76777   4.103   3.046   2.107 -0.0027  0.6444  2.6538
  569MOL0     H76778   4.084   2.870   2.083  1.9106  0.3864  0.9775
  569MOL0     H76779   3.584   2.980   2.050 -0.5953 -1.1097  1.0412
  569MOL0     H76780   3.398   3.059   1.939  1.0549  2.3421 -0.1096
  569MOL0     H76781   3.151   3.011   1.973  0.0325 -0.0538  0.4806
  569MOL0     H76782   3.003   3.108   2.005  0.8665 -1.6371  1.1820
  569MOL0     H76783   3.234   3.211   1.816 -0.8661  3.2390  0.3315
  569MOL0     H76784   3.094   3.112   1.759 -1.0230  1.7515 -3.3220
  569MOL0     H76785   3.079   3.370   1.913 -3.2673  0.6607  0.8025
  569MOL0     H76786   2.942   3.263   1.857 -0.0251 -0.1702 -0.0928
  569MOL0     H76787   3.140   3.406   1.676 -1.0312  0.4491 -1.5323
  569MOL0     H76788   2.986   3.311   1.634 -1.7133  2.4426 -0.1899
  569MOL0     H76789   2.993   3.576   1.773 -2.4010 -0.8880  2.0789
  569MOL0     H76790   2.849   3.474   1.743 -0.2806  0.6466 -1.1817
  569MOL0     H76791   3.027   3.525   1.514 -0.0158 -1.2080  0.4253
  569MOL0     H76792   2.854   3.503   1.508  0.4530 -2.4365  0.5393
  569MOL0     H76793   2.991   3.756   1.594 -0.2417  0.6634 -1.1018
  569MOL0     H76794   2.813   3.733   1.576 -2.6600 -3.9191 -2.3017
  569MOL0     H76795   3.014   3.700   1.349  0.2685  1.0253 -1.1272
  569MOL0     H76796   2.949   3.855   1.388  1.9833 -1.0213 -1.4302
  569MOL0     H76797   3.282   3.278   2.300 -1.2438 -2.9274  2.8993
  569MOL0     H76798   3.499   3.208   2.389  4.4523 -1.6649 -0.7108
  569MOL0     H76799   3.776   3.003   2.514  0.9090 -0.7050  0.5082
  569MOL0     H76800   3.933   2.869   2.654  2.2354  0.7717 -0.6303
  569MOL0     H76801   5.221   3.392   3.761 -2.5224 -0.4435  5.2360
  569MOL0     H76802   5.098   3.474   3.936  3.1504  0.4590 -0.9478
  569MOL0     H76803   4.787   3.989   3.978  3.6055  0.6480  1.3517
  569MOL0     H76804   4.663   4.069   4.176 -2.1077 -0.2501 -1.1442
  569MOL0     H76805   4.572   4.130   4.363 -1.1093  0.5794  0.2150
  569MOL0     H76806   4.445   4.089   4.245  1.0077 -3.3673 -1.4336
  569MOL0     H76807   4.379   4.192   4.481  2.0434  0.9045  0.6655
  569MOL0     H76808   4.402   4.028   4.542  1.0868  1.8839  1.0501
  569MOL0     H76809   4.232   3.952   4.335  3.2600 -0.5087  2.3888
  569MOL0     H76810   4.222   4.131   4.316  1.9377  0.9317 -0.2191
  569MOL0     H76811   4.139   4.132   4.554 -0.2773  1.1119 -2.6302
  569MOL0     H76812   4.127   3.959   4.553 -2.1407 -3.2271 -2.3106
  569MOL0     H76813   3.779   4.002   4.349  0.5113 -3.8374 -0.0244
  569MOL0     H76814   4.592   3.667   4.315  0.4107  0.6229  0.7799
  569MOL0     H76815   4.717   3.588   4.141 -2.7511 -0.1404  2.8927
  570MOL0     O76816   1.729  10.515   7.616  0.8265 -0.1952  0.1057
  570MOL0     C76817   1.791  10.502   7.718  0.5897  0.0755 -0.4031
  570MOL0     O76818   1.930  10.529   7.730  0.0689 -1.1080  0.3048
  570MOL0     C76819   2.012  10.517   7.620 -0.1504  0.3046 -0.3038
  570MOL0     C76820   2.140  10.563   7.645  0.2209 -0.3596  0.5077
  570MOL0     C76821   2.240  10.554   7.553 -0.4913 -0.3410  0.7488
  570MOL0     C76822   2.214  10.499   7.425 -0.2529 -0.0414 -0.3390
  570MOL0     O76823   2.313  10.481   7.332 -0.1789 -0.3881 -0.4312
  570MOL0     C76824   2.345  10.590   7.247 -0.2089  0.8934 -0.3202
  570MOL0     C76825   2.230  10.641   7.174  0.2701 -0.9213  0.8620
  570MOL0     C76826   2.280  10.731   7.058  0.4366 -0.0258  0.2176
  570MOL0     C76827   2.160  10.791   6.994  0.6341  1.0359  0.9025
  570MOL0     C76828   2.210  10.904   6.903  0.1963  0.5764  0.1785
  570MOL0     C76829   2.100  10.954   6.802 -0.5823 -0.4017  0.0106
  570MOL0     C76830   2.167  11.064   6.708  0.7729  0.8758 -0.4988
  570MOL0     C76831   2.064  11.114   6.611 -0.7971 -0.4945 -0.1461
  570MOL0     N76832   1.972  11.212   6.666  0.4728  1.0724 -0.6398
  570MOL0     C76833   2.006  11.338   6.673 -0.0968  0.5018 -0.5631
  570MOL0     C76834   1.911  11.391   6.756 -0.5868 -0.4673  0.6946
  570MOL0     C76835   1.906  11.531   6.791 -0.5143 -1.3042  0.0038
  570MOL0     C76836   1.754  11.579   6.776 -0.8922  0.5601  0.0933
  570MOL0     C76837   1.746  11.723   6.823  0.2851  0.2580 -1.0165
  570MOL0     C76838   1.616  11.794   6.779  0.1251  0.1996 -0.2192
  570MOL0     O76839   1.518  11.715   6.840 -0.2960 -0.2478  0.0374
  570MOL0     C76840   1.386  11.729   6.819 -0.0926 -0.3865  0.3760
  570MOL0     C76841   1.296  11.628   6.862 -0.1462 -0.0126 -0.1184
  570MOL0     C76842   1.155  11.637   6.830  0.0471  1.1527  0.2317
  570MOL0     C76843   1.068  11.520   6.884 -0.7227 -0.2825 -0.4911
  570MOL0     C76844   1.106  11.741   6.751  0.3309 -0.2092 -0.0530
  570MOL0     C76845   0.961  11.764   6.733 -0.1615 -0.9272 -0.1442
  570MOL0     O76846   0.923  11.884   6.677  0.0595 -0.0445 -0.0870
  570MOL0     C76847   0.790  11.928   6.689 -0.4072 -0.1009 -0.5388
  570MOL0     C76848   0.730  11.920   6.819  0.3816 -0.2186  0.1832
  570MOL0     C76849   0.598  11.969   6.847 -0.2571 -0.3016 -1.0646
  570MOL0     C76850   0.519  12.019   6.744 -0.3207  0.6220  0.1143
  570MOL0     O76851   0.390  12.074   6.756  0.4445  0.1682  0.1255
  570MOL0     C76852   0.310  12.028   6.868  0.0296 -0.3250  0.4201
  570MOL0     C76853   0.175  12.078   6.858 -0.8308 -0.1459 -0.0593
  570MOL0     C76854   0.159  12.227   6.872 -0.7635  0.3685 -1.0960
  570MOL0     C76855   0.036  12.280   6.799  0.5721 -0.3238 -0.5237
  570MOL0     C76856   0.030  12.429   6.855 -0.0835  0.0793  0.4076
  570MOL0     C76857  -0.101  12.493   6.814 -0.2320 -0.3106 -0.4306
  570MOL0     C76858  -0.124  12.640   6.855  0.4056  0.5409  0.1363
  570MOL0     C76859  -0.060  12.740   6.756 -0.3639 -0.2067 -0.9534
  570MOL0    Cl76860  -0.083  12.907   6.831  0.1183  0.0231  0.4038
  570MOL0     C76861   0.587  12.022   6.620  0.0220 -0.5831 -0.0239
  570MOL0     C76862   0.719  11.985   6.589  0.6069 -0.5134 -0.6267
  570MOL0     O76863   0.882  11.677   6.762 -0.3581  0.2272  0.2689
  570MOL0     C76864   1.198  11.834   6.706  0.3132 -0.3625 -0.0262
  570MOL0     C76865   1.336  11.826   6.732 -0.5211 -0.2843  0.0509
  570MOL0     N76866   1.824  11.296   6.803 -0.4664  0.4268  0.5417
  570MOL0     N76867   1.868  11.189   6.754  0.3346 -0.6057 -0.3507
  570MOL0     C76868   2.091  10.442   7.414 -0.2643  0.1089  0.7905
  570MOL0     C76869   1.991  10.444   7.506  0.0733  0.5513 -0.0014
  570MOL0     C76870   1.707  10.465   7.838  0.4081 -0.5611 -0.6948
  570MOL0     C76871   1.758  10.498   7.968 -0.2911  0.0001 -0.1178
  570MOL0     C76872   1.690  10.459   8.080 -0.0271  0.7440 -0.7966
  570MOL0     C76873   1.564  10.393   8.074  0.1532 -0.1551 -0.0335
  570MOL0     O76874   1.509  10.373   8.198  0.4819 -0.9592 -0.3515
  570MOL0     C76875   1.394  10.298   8.204 -0.1287  0.1185  0.2816
  570MOL0     C76876   1.340  10.270   8.344 -0.2665  0.0893  0.8558
  570MOL0     C76877   1.290  10.399   8.402  0.4104  0.6082 -1.3872
  570MOL0     C76878   1.147  10.378   8.451  0.4652 -0.1790 -0.6962
  570MOL0     C76879   1.103  10.514   8.509  0.5545  0.8622  0.5592
  570MOL0     C76880   1.063  10.622   8.543 -1.0242 -0.2100  0.0226
  570MOL0     C76881   1.504  10.363   7.947 -0.2662 -0.1644 -0.0960
  570MOL0     C76882   1.575  10.398   7.830  1.4002  0.3877  0.4003
  570MOL0     H76883   2.170  10.598   7.744  1.8617  2.3676 -0.8478
  570MOL0     H76884   2.341  10.580   7.581 -0.8163 -0.2619  1.9009
  570MOL0     H76885   2.387  10.677   7.299  1.0309  1.3540 -1.9976
  570MOL0     H76886   2.420  10.552   7.177 -0.6090 -2.0940  0.7469
  570MOL0     H76887   2.169  10.556   7.140  1.2963 -2.7426  3.2577
  570MOL0     H76888   2.174  10.702   7.246  0.5744 -0.1747  0.4716
  570MOL0     H76889   2.356  10.802   7.091  0.0766  0.2100  0.5430
  570MOL0     H76890   2.324  10.655   6.992  0.7871  0.8200 -0.5337
  570MOL0     H76891   2.104  10.711   6.945  4.0919 -2.9259  2.8868
  570MOL0     H76892   2.092  10.842   7.063  0.9545  0.3008  1.7758
  570MOL0     H76893   2.264  10.991   6.943 -1.8401  2.4076 -0.8390
  570MOL0     H76894   2.292  10.854   6.849 -0.6435 -0.4840 -0.1510
  570MOL0     H76895   2.046  10.881   6.740 -0.8635  1.4976 -2.0992
  570MOL0     H76896   2.025  11.001   6.866  0.5311  0.3265  0.8057
  570MOL0     H76897   2.204  11.145   6.772 -0.9369  1.6938 -0.5056
  570MOL0     H76898   2.249  11.023   6.648  0.3358 -0.2022 -0.3883
  570MOL0     H76899   2.011  11.035   6.557  0.6828 -0.6512 -1.4702
  570MOL0     H76900   2.121  11.169   6.535 -0.4873 -1.6863 -0.8102
  570MOL0     H76901   2.094  11.382   6.628  1.6073 -0.3199  1.7769
  570MOL0     H76902   1.925  11.539   6.899  0.0702 -1.0743 -0.1132
  570MOL0     H76903   1.969  11.594   6.728  1.6468 -1.5277  1.8347
  570MOL0     H76904   1.691  11.510   6.834  0.2855 -1.3196 -0.7550
  570MOL0     H76905   1.722  11.567   6.672 -5.2296  0.3218  1.2825
  570MOL0     H76906   1.832  11.775   6.780  2.6634 -0.0540  2.9367
  570MOL0     H76907   1.750  11.722   6.932  0.6527 -4.1669 -0.8927
  570MOL0     H76908   1.604  11.804   6.671  0.7203  2.4169 -0.1251
  570MOL0     H76909   1.614  11.897   6.817  0.4517 -0.2147  0.9380
  570MOL0     H76910   1.332  11.547   6.924 -0.2334 -0.9735 -1.2879
  570MOL0     H76911   1.131  11.445   6.932  2.7240  3.3097  1.0669
  570MOL0     H76912   0.999  11.562   6.958  1.0501 -1.7009  2.1008
  570MOL0     H76913   1.013  11.471   6.802  0.1487 -0.2721 -1.0927
  570MOL0     H76914   0.786  11.862   6.891 -0.4290 -0.6348  0.4773
  570MOL0     H76915   0.565  11.988   6.949 -1.4430 -1.5218 -1.1987
  570MOL0     H76916   0.296  11.920   6.863 -1.2106 -0.1590 -0.2294
  570MOL0     H76917   0.357  12.056   6.962 -2.6259 -0.6681  1.9584
  570MOL0     H76918   0.136  12.040   6.763  0.3918  1.8888 -1.4303
  570MOL0     H76919   0.119  12.040   6.945  0.1071  1.4213  1.2801
  570MOL0     H76920   0.249  12.269   6.826  2.4730 -2.4949  2.0309
  570MOL0     H76921   0.152  12.244   6.980  1.7415  0.4525 -0.8862
  570MOL0     H76922   0.047  12.295   6.691 -0.4505  1.4021 -0.4403
  570MOL0     H76923  -0.057  12.230   6.829  0.3721 -0.4676 -1.3686
  570MOL0     H76924   0.116  12.484   6.815  0.0766 -0.4483  0.0224
  570MOL0     H76925   0.035  12.425   6.964  0.8331 -1.2747  0.3485
  570MOL0     H76926  -0.126  12.475   6.708  0.7539 -0.8120 -0.5906
  570MOL0     H76927  -0.174  12.427   6.861 -1.9591  1.1830 -0.8764
  570MOL0     H76928  -0.091  12.662   6.957  2.7602 -3.1106  0.3551
  570MOL0     H76929  -0.232  12.654   6.847 -0.1459 -2.8995  0.2389
  570MOL0     H76930  -0.112  12.743   6.660 -1.0836  2.0455 -0.5599
  570MOL0     H76931   0.045  12.718   6.739 -0.4888  0.2985 -2.5642
  570MOL0     H76932   0.536  12.063   6.533  2.5288 -1.5647 -2.0610
  570MOL0     H76933   0.765  11.996   6.492  0.9419  3.0926 -0.2002
  570MOL0     H76934   1.162  11.912   6.639 -0.5494 -2.1853 -1.8032
  570MOL0     H76935   1.396  11.898   6.676 -1.3301  0.6828  0.4014
  570MOL0     H76936   2.070  10.387   7.323 -0.9894  2.0461 -0.2626
  570MOL0     H76937   1.902  10.385   7.492  0.0320  0.5985  0.0619
  570MOL0     H76938   1.853  10.546   7.993 -0.5211 -1.3343  4.0584
  570MOL0     H76939   1.715  10.484   8.183 -3.0524  1.1101 -0.0662
  570MOL0     H76940   1.320  10.340   8.136 -2.0433 -0.2610  2.0461
  570MOL0     H76941   1.413  10.201   8.156  0.9508  1.5713 -2.4548
  570MOL0     H76942   1.420  10.234   8.409 -2.4001 -0.9325  3.0788
  570MOL0     H76943   1.264  10.192   8.338 -1.2601  0.9342  1.9197
  570MOL0     H76944   1.273  10.471   8.321  0.1224 -0.6624 -2.4815
  570MOL0     H76945   1.346  10.451   8.480  2.5121 -1.4644 -1.3948
  570MOL0     H76946   1.150  10.306   8.533 -1.5881  0.7488  0.2895
  570MOL0     H76947   1.075  10.342   8.377 -0.3287  1.4325 -0.7623
  570MOL0     H76948   1.021  10.713   8.581 -0.6410 -0.9652  2.4071
  570MOL0     H76949   1.411  10.308   7.937  0.9325 -3.0449  2.7034
  570MOL0     H76950   1.549  10.371   7.729  0.4728  0.0714  0.7126
  571MOL0     O76951   8.346   2.319   7.276 -0.5670  0.1562  0.6698
  571MOL0     C76952   8.387   2.412   7.349 -0.3457 -0.0050 -1.0058
  571MOL0     O76953   8.299   2.489   7.428  0.6937 -0.5557  0.2163
  571MOL0     C76954   8.160   2.486   7.407 -0.3928  0.6387 -0.1103
  571MOL0     C76955   8.092   2.370   7.448  0.3070 -0.2633 -0.1772
  571MOL0     C76956   7.954   2.364   7.424 -0.1407 -0.4187 -0.3382
  571MOL0     C76957   7.889   2.471   7.354 -0.1599  0.0701  0.1883
  571MOL0     O76958   7.756   2.477   7.335  0.0275 -0.2350  0.3292
  571MOL0     C76959   7.672   2.435   7.447  0.9761  0.0221  0.3563
  571MOL0     C76960   7.531   2.432   7.387 -0.5681 -0.5573  0.3076
  571MOL0     C76961   7.486   2.574   7.340 -0.0253 -0.7179  0.2752
  571MOL0     C76962   7.339   2.561   7.283 -0.3488 -0.2707  0.1803
  571MOL0     C76963   7.320   2.666   7.177  0.4336  0.2395  0.1049
  571MOL0     C76964   7.191   2.652   7.114  0.6532 -0.1453 -0.0856
  571MOL0     C76965   7.189   2.735   6.981  0.6651  0.3927  0.0794
  571MOL0     C76966   7.060   2.742   6.895  0.0278  0.6469 -0.5726
  571MOL0     N76967   7.062   2.638   6.793 -0.5833 -0.7269  0.2289
  571MOL0     C76968   7.029   2.509   6.808 -0.8400 -0.2637 -0.2298
  571MOL0     C76969   7.076   2.454   6.687  0.0260 -0.3313  0.4599
  571MOL0     C76970   7.066   2.307   6.665  0.2901 -0.2690 -0.3693
  571MOL0     C76971   7.201   2.252   6.701  0.2403  1.8304 -0.0350
  571MOL0     C76972   7.306   2.258   6.587  0.9614 -0.5391 -0.3491
  571MOL0     C76973   7.444   2.194   6.616  0.0211  0.5468 -0.6545
  571MOL0     O76974   7.425   2.061   6.684  1.1823 -0.5589  0.2915
  571MOL0     C76975   7.536   1.996   6.729 -0.0818  0.2403 -0.7666
  571MOL0     C76976   7.511   1.882   6.812  0.7756 -0.6653 -0.3472
  571MOL0     C76977   7.610   1.815   6.877 -0.0446 -0.4462 -0.5200
  571MOL0     C76978   7.589   1.709   6.984 -0.0954 -0.0047 -0.0221
  571MOL0     C76979   7.747   1.843   6.838 -0.3805  0.0260  0.3227
  571MOL0     C76980   7.866   1.781   6.893 -0.2131  0.2107 -0.9479
  571MOL0     O76981   7.957   1.744   6.808  0.4004  0.1023  1.3510
  571MOL0     C76982   8.090   1.726   6.834 -0.3289  0.2580 -1.1207
  571MOL0     C76983   8.156   1.747   6.957  0.1619 -0.0668  0.6706
  571MOL0     C76984   8.297   1.720   6.969  1.5163  0.3766  1.1812
  571MOL0     C76985   8.373   1.666   6.865 -0.4142 -0.4077 -1.0946
  571MOL0     O76986   8.504   1.669   6.897 -0.4937  0.0915 -0.7725
  571MOL0     C76987   8.599   1.606   6.811  0.1133  0.1350 -0.4676
  571MOL0     C76988   8.732   1.583   6.884  0.6591 -0.0713 -0.1465
  571MOL0     C76989   8.820   1.503   6.791  0.1051  0.1185  0.2533
  571MOL0     C76990   8.967   1.513   6.843  0.9303  0.4138 -0.3321
  571MOL0     C76991   9.068   1.436   6.764 -0.0544  0.3109  0.5656
  571MOL0     C76992   9.206   1.485   6.802 -0.3236  0.0653 -0.6720
  571MOL0     C76993   9.308   1.400   6.729  1.4646 -0.3469 -0.7815
  571MOL0     C76994   9.439   1.459   6.764  0.3161 -0.1869  0.4311
  571MOL0    Cl76995   9.551   1.387   6.664 -0.2260 -0.0398 -0.0141
  571MOL0     C76996   8.310   1.644   6.741 -0.5252  0.1112  0.2654
  571MOL0     C76997   8.175   1.674   6.729 -0.2831 -0.3334 -1.1578
  571MOL0     O76998   7.871   1.759   7.016 -0.3096  0.3702 -0.2571
  571MOL0     C76999   7.774   1.934   6.740  0.8140 -0.1729 -0.5160
  571MOL0     C77000   7.670   2.016   6.690  0.0319  1.7273  0.5949
  571MOL0     N77001   7.142   2.553   6.618 -0.7009 -0.1570 -0.3406
  571MOL0     N77002   7.115   2.663   6.675  0.3889 -0.4855  0.1840
  571MOL0     C77003   7.958   2.582   7.329  0.4250  0.1621  0.5715
  571MOL0     C77004   8.091   2.597   7.354 -0.1781 -1.1892 -0.3185
  571MOL0     C77005   8.528   2.439   7.363  1.2389 -0.2206  0.5984
  571MOL0     C77006   8.580   2.554   7.429  0.3157  0.2832  0.0859
  571MOL0     C77007   8.719   2.560   7.441 -0.2488  0.4234  1.0040
  571MOL0     C77008   8.809   2.473   7.377  0.2100 -0.0367 -0.3673
  571MOL0     O77009   8.940   2.518   7.384 -0.4943  0.1988  0.6258
  571MOL0     C77010   9.025   2.472   7.277  1.1470  0.4910  0.6182
  571MOL0     C77011   8.988   2.530   7.139  0.3872 -0.5048 -0.4250
  571MOL0     C77012   8.954   2.681   7.148 -0.4390 -0.0846 -0.8300
  571MOL0     C77013   8.891   2.743   7.023  0.3514 -0.1387 -0.2482
  571MOL0     C77014   9.005   2.750   6.929  0.0562 -0.6717 -0.3752
  571MOL0     C77015   9.097   2.749   6.854 -0.2862  0.5964  0.4568
  571MOL0     C77016   8.752   2.370   7.299 -0.7703  0.4431  0.5413
  571MOL0     C77017   8.618   2.356   7.298 -0.5016 -0.4822  0.0844
  571MOL0     H77018   8.152   2.286   7.480  2.1362  1.1450  0.2282
  571MOL0     H77019   7.901   2.273   7.451 -0.6724 -0.0689 -0.1839
  571MOL0     H77020   7.707   2.338   7.481 -1.8768 -1.3772 -0.3213
  571MOL0     H77021   7.674   2.506   7.530 -0.0331  1.1769 -0.5565
  571MOL0     H77022   7.528   2.357   7.307 -1.9283 -3.5416  2.9457
  571MOL0     H77023   7.465   2.407   7.471  1.5259 -1.6615  1.7124
  571MOL0     H77024   7.485   2.628   7.435 -3.5859 -0.2395  0.1010
  571MOL0     H77025   7.564   2.619   7.278  0.2962  2.2825  2.6375
  571MOL0     H77026   7.321   2.468   7.230 -1.4153 -0.3695  0.6820
  571MOL0     H77027   7.263   2.575   7.361  3.0420 -1.4312  4.0074
  571MOL0     H77028   7.331   2.771   7.208 -3.9965  0.8973  0.0820
  571MOL0     H77029   7.410   2.647   7.118  0.7490 -0.6302  0.8582
  571MOL0     H77030   7.171   2.546   7.093  0.8369  0.1286 -1.7122
  571MOL0     H77031   7.108   2.685   7.177 -2.0166 -1.2215 -2.7867
  571MOL0     H77032   7.185   2.838   7.019 -0.5012  1.6884 -3.1687
  571MOL0     H77033   7.275   2.726   6.913 -1.0825  0.0562 -2.2013
  571MOL0     H77034   7.061   2.842   6.850 -1.5674  0.2923 -1.4708
  571MOL0     H77035   6.966   2.731   6.950  0.7061 -1.8045  0.2350
  571MOL0     H77036   6.987   2.460   6.896  0.9188 -0.3985  0.5805
  571MOL0     H77037   6.986   2.273   6.731 -0.0100 -0.9818 -1.0885
  571MOL0     H77038   7.037   2.274   6.565  1.8761 -1.6565 -0.4198
  571MOL0     H77039   7.186   2.151   6.742 -0.9790  1.0468 -2.2387
  571MOL0     H77040   7.232   2.309   6.789 -5.2365  2.3698  1.8863
  571MOL0     H77041   7.322   2.362   6.557 -0.3838 -0.1856  0.1072
  571MOL0     H77042   7.264   2.195   6.508  0.7058 -0.5745 -0.1833
  571MOL0     H77043   7.505   2.255   6.683 -1.9581  0.3748  1.4487
  571MOL0     H77044   7.499   2.189   6.522 -3.2407  1.1203 -2.7765
  571MOL0     H77045   7.411   1.866   6.851  0.4623  0.8643 -0.4399
  571MOL0     H77046   7.637   1.741   7.077 -2.6500  3.2123  0.3621
  571MOL0     H77047   7.483   1.698   7.007  0.1328 -1.4002  0.5048
  571MOL0     H77048   7.634   1.613   6.956 -0.5790  0.4457 -2.5098
  571MOL0     H77049   8.118   1.800   7.044 -1.3146  0.8677 -0.4935
  571MOL0     H77050   8.340   1.728   7.068  0.1287  2.6708  1.6619
  571MOL0     H77051   8.564   1.511   6.770  0.0511  0.7120 -1.8267
  571MOL0     H77052   8.616   1.673   6.726 -0.3804  2.3658  1.1152
  571MOL0     H77053   8.778   1.680   6.907 -0.5266  0.6602 -0.7381
  571MOL0     H77054   8.715   1.516   6.969  1.6307  0.2180  0.2817
  571MOL0     H77055   8.811   1.536   6.688  0.9264 -0.1019  0.1044
  571MOL0     H77056   8.793   1.397   6.798  2.7207 -0.6214  0.0368
  571MOL0     H77057   8.995   1.619   6.847  0.1266  0.6137  0.6714
  571MOL0     H77058   8.975   1.483   6.948  1.9392  0.9815 -0.2390
  571MOL0     H77059   9.053   1.458   6.658 -0.3510  1.9554  0.9239
  571MOL0     H77060   9.047   1.331   6.788  0.9577 -0.2742 -0.9548
  571MOL0     H77061   9.225   1.586   6.766  1.3168  0.4726  1.2054
  571MOL0     H77062   9.234   1.465   6.906  3.7442 -2.5444 -2.0585
  571MOL0     H77063   9.280   1.407   6.624  4.6034 -2.8725 -1.9721
  571MOL0     H77064   9.308   1.295   6.759 -1.9100  0.2873  2.0259
  571MOL0     H77065   9.469   1.435   6.867 -5.1182 -2.7543  1.8130
  571MOL0     H77066   9.451   1.565   6.740  0.5566 -0.4126 -0.4881
  571MOL0     H77067   8.362   1.614   6.650 -2.3132 -1.7254 -0.2112
  571MOL0     H77068   8.136   1.660   6.629  2.3998 -0.9872 -2.1903
  571MOL0     H77069   7.874   1.961   6.708 -0.5485 -0.5215 -6.0410
  571MOL0     H77070   7.703   2.094   6.623  2.1048  1.6429  1.4578
  571MOL0     H77071   7.904   2.663   7.281 -1.2886 -0.7752  0.8547
  571MOL0     H77072   8.144   2.691   7.341 -2.2463 -0.0669 -1.0502
  571MOL0     H77073   8.521   2.636   7.469  3.4462  2.6975  0.2119
  571MOL0     H77074   8.748   2.652   7.491 -0.8410 -0.0450  2.2370
  571MOL0     H77075   9.122   2.515   7.306  0.6978  1.4434  0.7561
  571MOL0     H77076   9.033   2.364   7.264 -1.4287  0.4033 -0.8869
  571MOL0     H77077   8.901   2.477   7.099 -0.0699 -0.6079  0.6835
  571MOL0     H77078   9.074   2.519   7.072  0.4840  0.1988 -0.4213
  571MOL0     H77079   9.040   2.739   7.182 -1.3017  1.3601 -1.0457
  571MOL0     H77080   8.881   2.682   7.230  0.0512  1.6103 -0.3861
  571MOL0     H77081   8.855   2.840   7.057 -1.2201 -0.7832  0.0114
  571MOL0     H77082   8.814   2.674   6.987  1.1483 -0.6867 -0.9392
  571MOL0     H77083   9.172   2.752   6.777  2.7588 -0.4376  3.1523
  571MOL0     H77084   8.810   2.307   7.232 -0.2835  1.9856 -0.5223
  571MOL0     H77085   8.573   2.275   7.242 -0.0758  0.1156 -1.1349
  572MOL0     O77086   3.567   5.160   2.512  0.7328  0.3298  0.0965
  572MOL0     C77087   3.605   5.170   2.398  0.1593 -0.6710 -0.4920
  572MOL0     O77088   3.523   5.189   2.295 -0.1686  0.0592 -0.2043
  572MOL0     C77089   3.386   5.192   2.310 -0.1539  0.1400 -0.2723
  572MOL0     C77090   3.308   5.092   2.380 -0.1970 -0.2494  0.4059
  572MOL0     C77091   3.169   5.105   2.384 -0.6227  0.6135  0.0887
  572MOL0     C77092   3.116   5.215   2.334  0.0565 -0.5115  0.1150
  572MOL0     O77093   2.975   5.223   2.351 -0.0588  0.0318  0.5359
  572MOL0     C77094   2.915   5.351   2.349  0.4104 -0.5751 -0.1990
  572MOL0     C77095   2.773   5.342   2.384  0.1293  0.2511 -0.4952
  572MOL0     C77096   2.680   5.479   2.384  0.9326 -0.7536 -0.1456
  572MOL0     C77097   2.550   5.467   2.466  0.2975  0.0509 -0.3439
  572MOL0     C77098   2.449   5.583   2.435  0.4813  0.2860 -0.0919
  572MOL0     C77099   2.311   5.562   2.517 -0.8260  0.6466  0.7398
  572MOL0     C77100   2.213   5.445   2.481  0.7354  1.5649 -0.4920
  572MOL0     C77101   2.083   5.432   2.565  0.4629 -1.5862 -0.1278
  572MOL0     N77102   1.999   5.323   2.514 -0.2432  0.0001 -0.9357
  572MOL0     C77103   1.924   5.318   2.404  0.0418  0.8346  0.5242
  572MOL0     C77104   1.867   5.198   2.398  0.4533  0.4490  0.2947
  572MOL0     C77105   1.773   5.153   2.288 -0.4479  0.0279  0.3377
  572MOL0     C77106   1.646   5.246   2.275  0.5695  0.3839  0.3689
  572MOL0     C77107   1.572   5.194   2.154  0.4324  0.2975 -0.2851
  572MOL0     C77108   1.470   5.296   2.110  0.9137  0.3871  1.0982
  572MOL0     O77109   1.370   5.302   2.210  0.1881 -0.2838 -0.7908
  572MOL0     C77110   1.262   5.220   2.200  0.0488  1.1278 -0.4937
  572MOL0     C77111   1.164   5.233   2.295 -0.2987  0.1413 -0.1598
  572MOL0     C77112   1.052   5.140   2.285 -0.0890 -0.9866  0.2649
  572MOL0     C77113   0.967   5.140   2.415  0.2486  0.3615  0.4168
  572MOL0     C77114   1.034   5.045   2.181 -0.7661  0.3338  1.0496
  572MOL0     C77115   0.928   4.939   2.164  0.7162  0.2427 -0.3786
  572MOL0     O77116   0.913   4.866   2.048 -0.3540  0.0644  0.2578
  572MOL0     C77117   0.795   4.809   2.005  0.2650  0.6306  1.1441
  572MOL0     C77118   0.769   4.672   2.012 -0.5107  0.7771 -0.2490
  572MOL0     C77119   0.652   4.610   1.965 -0.6874 -0.2261  0.2667
  572MOL0     C77120   0.564   4.686   1.901  0.7433 -1.4050 -0.4728
  572MOL0     O77121   0.439   4.642   1.861 -0.2745 -0.9200 -0.4245
  572MOL0     C77122   0.420   4.518   1.803  0.0903  0.3635  0.3442
  572MOL0     C77123   0.363   4.524   1.657 -0.2321 -0.1671  0.2236
  572MOL0     C77124   0.464   4.586   1.553 -0.4080  0.7288 -0.3908
  572MOL0     C77125   0.546   4.475   1.488  0.5759  0.1718  0.6838
  572MOL0     C77126   0.636   4.409   1.601 -0.6708 -0.2447  0.2404
  572MOL0     C77127   0.752   4.337   1.531  0.0434 -0.2093 -0.6229
  572MOL0     C77128   0.854   4.308   1.640 -0.3929 -0.0408 -0.2771
  572MOL0     C77129   0.960   4.208   1.598 -0.6838  0.7229  1.0516
  572MOL0    Cl77130   1.055   4.262   1.447 -0.0985 -0.0111 -0.1561
  572MOL0     C77131   0.585   4.829   1.893  0.1305  0.2349  0.6347
  572MOL0     C77132   0.701   4.883   1.938  0.3712 -0.6453  0.1122
  572MOL0     O77133   0.855   4.918   2.264  0.6962  0.4156  0.0307
  572MOL0     C77134   1.139   5.035   2.097 -0.2702 -0.1843 -0.0276
  572MOL0     C77135   1.248   5.119   2.104 -0.1440  0.2239 -0.2118
  572MOL0     N77136   1.908   5.129   2.511  0.0088  0.6332  0.1987
  572MOL0     N77137   1.984   5.205   2.590 -0.0598 -0.3403  0.4961
  572MOL0     C77138   3.189   5.318   2.261  0.5965  0.9938 -0.5056
  572MOL0     C77139   3.326   5.303   2.253 -0.7607  0.2269 -0.4427
  572MOL0     C77140   3.745   5.157   2.368 -1.1494 -0.0747  0.2058
  572MOL0     C77141   3.795   5.221   2.251  0.5487  0.7911 -0.3464
  572MOL0     C77142   3.932   5.211   2.226 -0.3551  0.2932 -0.3992
  572MOL0     C77143   4.019   5.144   2.311  0.4471  0.1098 -0.5106
  572MOL0     O77144   4.154   5.125   2.283  1.0899 -0.5766 -1.0884
  572MOL0     C77145   4.196   4.990   2.288  0.0505  0.5663 -0.1682
  572MOL0     C77146   4.145   4.911   2.166 -0.0379  0.1134  0.5759
  572MOL0     C77147   4.013   4.826   2.185 -0.1348  0.7772 -0.4162
  572MOL0     C77148   3.996   4.733   2.308 -0.4021 -0.2404  0.6148
  572MOL0     C77149   3.878   4.645   2.280 -0.3031  0.3863  0.1238
  572MOL0     C77150   3.797   4.560   2.235 -0.8210  0.3302 -1.0774
  572MOL0     C77151   3.970   5.110   2.439 -0.3800  0.6170 -0.4053
  572MOL0     C77152   3.833   5.101   2.462 -0.3097 -0.6722  0.3162
  572MOL0     H77153   3.353   5.002   2.420 -1.0050 -0.9449 -0.2140
  572MOL0     H77154   3.120   5.028   2.444  3.8683 -1.5799  1.3978
  572MOL0     H77155   2.970   5.427   2.405  0.7370 -0.0168 -1.2373
  572MOL0     H77156   2.904   5.378   2.243  1.2191 -0.2258 -0.2021
  572MOL0     H77157   2.724   5.262   2.327  1.3340 -0.7858 -0.1152
  572MOL0     H77158   2.761   5.303   2.485 -0.5118  1.6018 -0.0229
  572MOL0     H77159   2.733   5.568   2.419  2.3870 -0.0083 -3.7444
  572MOL0     H77160   2.665   5.503   2.278  1.5162  0.0497 -0.0531
  572MOL0     H77161   2.495   5.378   2.433 -1.3186  1.4083 -1.5113
  572MOL0     H77162   2.578   5.472   2.571 -1.3306  0.7564  0.0837
  572MOL0     H77163   2.497   5.678   2.462  0.4335  0.1700  0.4168
  572MOL0     H77164   2.430   5.588   2.327 -1.1790 -4.2450 -0.2173
  572MOL0     H77165   2.347   5.543   2.619  1.0986 -1.4992 -0.2488
  572MOL0     H77166   2.255   5.655   2.505 -0.2531  0.9888  0.6591
  572MOL0     H77167   2.176   5.471   2.381 -4.8061 -1.4832  0.3932
  572MOL0     H77168   2.273   5.354   2.474  0.8773  1.7894 -2.9166
  572MOL0     H77169   2.019   5.518   2.541  0.5585 -1.9063 -1.6181
  572MOL0     H77170   2.097   5.432   2.673 -2.1507 -0.7539  0.2822
  572MOL0     H77171   1.927   5.395   2.328 -1.6263  0.4893  0.0618
  572MOL0     H77172   1.831   5.164   2.197 -1.6012  0.0641 -0.4128
  572MOL0     H77173   1.744   5.048   2.299 -1.5544  0.3569  0.7177
  572MOL0     H77174   1.681   5.348   2.255  0.0088  0.3915 -0.6402
  572MOL0     H77175   1.566   5.245   2.350 -4.0296 -0.9381 -3.9942
  572MOL0     H77176   1.519   5.101   2.177 -1.2657  1.6487  1.6129
  572MOL0     H77177   1.646   5.162   2.081 -0.7893 -1.6156 -0.7607
  572MOL0     H77178   1.423   5.268   2.015  1.3761 -1.6968  1.4211
  572MOL0     H77179   1.518   5.392   2.095  3.5247 -0.6129  2.4394
  572MOL0     H77180   1.178   5.297   2.382  0.6258  0.5625 -0.6017
  572MOL0     H77181   0.968   5.239   2.462  0.8888  0.3502  0.4388
  572MOL0     H77182   0.864   5.109   2.398  0.7755  0.2318 -3.2071
  572MOL0     H77183   1.026   5.070   2.475  1.4887 -0.7916 -2.0276
  572MOL0     H77184   0.843   4.609   2.061  2.6197  2.4303 -2.4619
  572MOL0     H77185   0.628   4.507   1.988 -1.7004  0.1191  0.8157
  572MOL0     H77186   0.510   4.457   1.804  0.2252  0.5514 -0.1002
  572MOL0     H77187   0.349   4.460   1.863 -0.6507 -1.8237 -2.4337
  572MOL0     H77188   0.323   4.424   1.640 -0.2457 -0.2889  0.9271
  572MOL0     H77189   0.275   4.588   1.668 -1.1724 -0.9462 -2.1704
  572MOL0     H77190   0.523   4.668   1.596 -1.9403  0.7842  1.7774
  572MOL0     H77191   0.396   4.630   1.480  0.3781 -0.4800 -1.9177
  572MOL0     H77192   0.484   4.398   1.441 -0.4347  1.4247 -0.1196
  572MOL0     H77193   0.608   4.512   1.406  0.7138 -3.9294 -1.3317
  572MOL0     H77194   0.587   4.336   1.667  1.2549 -3.4498 -1.5666
  572MOL0     H77195   0.694   4.487   1.650 -0.5394 -0.1625 -0.0452
  572MOL0     H77196   0.723   4.247   1.476 -0.0348  0.6078 -1.9635
  572MOL0     H77197   0.800   4.405   1.460 -0.5338 -0.6811 -1.4750
  572MOL0     H77198   0.799   4.272   1.728  1.9520  1.1386  1.7950
  572MOL0     H77199   0.908   4.397   1.674 -0.9671  0.6925 -1.2133
  572MOL0     H77200   0.907   4.115   1.578  1.1335 -0.6324  2.3187
  572MOL0     H77201   1.020   4.191   1.687  0.9017  2.3485  0.3730
  572MOL0     H77202   0.502   4.889   1.857  0.7095 -0.9809 -3.2276
  572MOL0     H77203   0.715   4.991   1.932  1.3656 -0.8616 -3.1900
  572MOL0     H77204   1.130   4.968   2.012  1.5374  0.4459 -0.7649
  572MOL0     H77205   1.330   5.088   2.040  0.7373  2.1161 -0.0363
  572MOL0     H77206   3.142   5.404   2.213 -1.2727  0.3923  0.1734
  572MOL0     H77207   3.396   5.372   2.206  2.3471 -2.2901  0.1205
  572MOL0     H77208   3.726   5.277   2.188 -0.4831 -0.7838 -0.6786
  572MOL0     H77209   3.955   5.270   2.138 -0.5889  1.7889  0.4935
  572MOL0     H77210   4.305   4.990   2.283  0.1359 -2.2543  0.3237
  572MOL0     H77211   4.171   4.941   2.382 -0.3207 -0.8460 -0.9764
  572MOL0     H77212   4.214   4.829   2.145 -0.0922 -0.2052  1.5819
  572MOL0     H77213   4.139   4.978   2.080  1.5743  0.5885  0.7915
  572MOL0     H77214   3.995   4.774   2.090 -1.1761  1.0527 -0.3731
  572MOL0     H77215   3.930   4.897   2.191 -0.3452  0.5853 -1.0295
  572MOL0     H77216   3.986   4.791   2.400  3.6072  0.6887  0.6794
  572MOL0     H77217   4.089   4.675   2.315 -0.6099 -0.4753  1.6984
  572MOL0     H77218   3.722   4.485   2.218 -2.3482  0.8654  2.4472
  572MOL0     H77219   4.044   5.077   2.512 -2.0662  0.4468  1.3084
  572MOL0     H77220   3.801   5.056   2.556 -1.1692 -2.1516 -0.6473
  573MOL0     O77221   5.536   3.260   6.722  0.3958  0.2823 -0.9086
  573MOL0     C77222   5.576   3.169   6.650  1.1013  0.5936 -0.2769
  573MOL0     O77223   5.488   3.080   6.579  0.2054 -0.1091  0.3286
  573MOL0     C77224   5.357   3.109   6.572 -0.9335 -0.1169  0.5218
  573MOL0     C77225   5.304   3.247   6.556  0.6647 -0.2201  0.1849
  573MOL0     C77226   5.166   3.270   6.534  0.4339  0.0943 -0.1499
  573MOL0     C77227   5.079   3.157   6.516  0.1949  0.5610 -0.0205
  573MOL0     O77228   4.945   3.176   6.495  0.2292 -0.1329 -0.7819
  573MOL0     C77229   4.871   3.271   6.583 -0.1788  0.1471 -0.0229
  573MOL0     C77230   4.728   3.225   6.591 -0.7753 -0.5188 -0.0635
  573MOL0     C77231   4.663   3.234   6.448 -0.1977 -0.3964 -0.5642
  573MOL0     C77232   4.546   3.131   6.430 -0.2295  0.2935 -0.0913
  573MOL0     C77233   4.418   3.154   6.511  0.8027  1.0907 -0.5395
  573MOL0     C77234   4.314   3.054   6.476  0.4612  0.1210 -0.0085
  573MOL0     C77235   4.172   3.091   6.525 -0.1199 -0.9247  0.3952
  573MOL0     C77236   4.148   3.132   6.676  0.0400  1.5878  0.4402
  573MOL0     N77237   4.008   3.172   6.697  0.1330 -0.3852  0.0269
  573MOL0     C77238   3.924   3.086   6.756 -0.1234 -0.4948 -0.3025
  573MOL0     C77239   3.808   3.147   6.773 -0.1927 -0.0485  0.5256
  573MOL0     C77240   3.688   3.083   6.837  0.4672  0.3066  0.2753
  573MOL0     C77241   3.700   3.067   6.993  0.3637 -0.2200 -0.1144
  573MOL0     C77242   3.564   3.034   7.051  0.0205  0.4934 -0.2741
  573MOL0     C77243   3.467   3.156   7.058 -0.5533 -0.2554  0.4378
  573MOL0     O77244   3.337   3.116   7.106  0.3899  0.8390 -0.7891
  573MOL0     C77245   3.263   3.011   7.048  0.1852 -0.7624  0.3315
  573MOL0     C77246   3.266   3.002   6.905  0.6758 -0.6118  0.5697
  573MOL0     C77247   3.197   2.912   6.828  0.4192  0.1129 -0.8030
  573MOL0     C77248   3.184   2.946   6.685 -0.5768 -0.2227  0.6580
  573MOL0     C77249   3.120   2.809   6.903 -0.2026 -0.3974 -0.7293
  573MOL0     C77250   3.030   2.708   6.830  0.1635  0.2028 -0.0012
  573MOL0     O77251   3.011   2.699   6.693  0.2579  0.0422 -0.4429
  573MOL0     C77252   2.910   2.625   6.644  0.7561 -0.8552  0.9621
  573MOL0     C77253   2.928   2.502   6.605 -0.2017 -0.1217  0.2144
  573MOL0     C77254   2.825   2.421   6.553 -0.3223  0.0334 -0.7479
  573MOL0     C77255   2.692   2.463   6.552 -0.6098 -0.5430 -0.3855
  573MOL0     O77256   2.575   2.399   6.513 -0.2628 -0.8684 -0.6133
  573MOL0     C77257   2.591   2.281   6.440  0.1251 -1.0955 -0.8883
  573MOL0     C77258   2.461   2.240   6.371 -0.2479 -0.0618 -0.1284
  573MOL0     C77259   2.474   2.093   6.338  1.0010 -0.6807  1.1334
  573MOL0     C77260   2.347   2.046   6.265  0.3258  0.0510 -0.6130
  573MOL0     C77261   2.348   1.898   6.245  1.1282  0.9042 -0.1608
  573MOL0     C77262   2.336   1.801   6.367 -0.1254 -0.6358 -0.1305
  573MOL0     C77263   2.331   1.653   6.341  0.1177  0.2077 -0.5618
  573MOL0     C77264   2.203   1.616   6.273  0.6286  0.5505 -0.1352
  573MOL0    Cl77265   2.182   1.439   6.281  0.2974  0.4066 -0.4179
  573MOL0     C77266   2.676   2.595   6.599  0.6657 -0.8231  1.5554
  573MOL0     C77267   2.779   2.678   6.639  0.0992 -0.5516  0.4123
  573MOL0     O77268   2.963   2.645   6.913 -0.2340  0.2315  0.1364
  573MOL0     C77269   3.127   2.810   7.052 -0.2074  0.6693  1.0505
  573MOL0     C77270   3.194   2.916   7.122  0.0704 -0.4531 -0.4843
  573MOL0     N77271   3.832   3.282   6.739 -0.3294 -0.4668  0.5767
  573MOL0     N77272   3.954   3.301   6.701 -0.4136  0.4859  0.1887
  573MOL0     C77273   5.131   3.023   6.533 -0.2832  0.6552 -0.0692
  573MOL0     C77274   5.271   3.001   6.556  0.5071 -0.4954  0.5385
  573MOL0     C77275   5.714   3.145   6.655  0.2785  0.6723 -0.2647
  573MOL0     C77276   5.811   3.237   6.686  0.2141 -0.5723  0.4842
  573MOL0     C77277   5.939   3.210   6.710  0.4963  0.5329  0.2624
  573MOL0     C77278   5.978   3.082   6.697 -0.5310  0.1718 -1.2601
  573MOL0     O77279   6.116   3.066   6.718  0.1528 -0.1260  0.2679
  573MOL0     C77280   6.182   2.946   6.664  1.0288 -0.2186  0.1415
  573MOL0     C77281   6.218   2.945   6.516  0.2503  0.2342 -0.6298
  573MOL0     C77282   6.103   2.969   6.422  0.7651  0.7041  0.4584
  573MOL0     C77283   6.134   2.918   6.277  0.3641 -0.4688  0.0501
  573MOL0     C77284   6.242   3.004   6.226  0.2713  0.6750  0.0967
  573MOL0     C77285   6.341   3.075   6.207 -0.0557  0.2781  0.0021
  573MOL0     C77286   5.888   2.983   6.668  1.1382  0.8017 -0.3525
  573MOL0     C77287   5.750   3.006   6.651 -0.4808  0.2990 -0.1274
  573MOL0     H77288   5.376   3.326   6.541  1.1485 -0.6289  0.3089
  573MOL0     H77289   5.146   3.374   6.509 -0.9540  0.3211  1.6944
  573MOL0     H77290   4.906   3.268   6.686 -2.4254  1.0466  0.8452
  573MOL0     H77291   4.865   3.375   6.548  0.1048  0.5996  1.2357
  573MOL0     H77292   4.735   3.123   6.630  1.5894  0.2907  1.9195
  573MOL0     H77293   4.673   3.286   6.664 -0.1504  2.4529 -1.9022
  573MOL0     H77294   4.626   3.335   6.428  0.9285  0.1655  0.1085
  573MOL0     H77295   4.732   3.219   6.365 -0.4092 -1.4183 -0.5669
  573MOL0     H77296   4.515   3.126   6.325 -2.2521 -1.9397  0.5053
  573MOL0     H77297   4.589   3.031   6.448  0.0560  0.5601  0.7925
  573MOL0     H77298   4.442   3.149   6.618 -0.6845 -2.3541 -0.2317
  573MOL0     H77299   4.381   3.254   6.488 -1.3335  0.8357  1.4286
  573MOL0     H77300   4.307   3.044   6.367  0.4494  0.3088 -0.0264
  573MOL0     H77301   4.346   2.959   6.518  0.0252  0.0547  0.1825
  573MOL0     H77302   4.136   3.171   6.460 -1.2160 -0.6463  1.3124
  573MOL0     H77303   4.111   3.001   6.513 -0.3480 -0.6337 -0.7406
  573MOL0     H77304   4.212   3.214   6.709  1.0753  0.7177  0.6546
  573MOL0     H77305   4.168   3.041   6.733  0.2986  2.6129  2.0506
  573MOL0     H77306   3.942   2.981   6.779 -1.6370 -0.4438  1.2957
  573MOL0     H77307   3.591   3.120   6.803 -0.2511 -2.2517 -0.7419
  573MOL0     H77308   3.688   2.979   6.800 -2.6072  0.2421  0.2043
  573MOL0     H77309   3.752   3.147   7.046 -0.1557 -1.3208  2.1779
  573MOL0     H77310   3.761   2.977   7.003  1.5042  0.6721  1.2379
  573MOL0     H77311   3.592   3.008   7.153 -0.3429  1.7384  0.1538
  573MOL0     H77312   3.522   2.952   6.991 -0.0394  0.0865  0.3118
  573MOL0     H77313   3.463   3.216   6.966  1.3804  0.9374  1.0632
  573MOL0     H77314   3.515   3.225   7.128  2.7831  0.1563 -1.9969
  573MOL0     H77315   3.321   3.072   6.844  0.8884 -0.6864  0.6764
  573MOL0     H77316   3.079   2.931   6.657 -0.4411 -0.1830  0.1239
  573MOL0     H77317   3.226   3.041   6.650  0.1946 -1.1278 -1.0006
  573MOL0     H77318   3.237   2.875   6.622  0.5971  1.7988 -0.7715
  573MOL0     H77319   3.032   2.469   6.614 -0.4590 -2.3275 -2.9812
  573MOL0     H77320   2.860   2.324   6.517  1.7469  0.9351 -1.3215
  573MOL0     H77321   2.667   2.282   6.362  3.1785  1.0088  1.8469
  573MOL0     H77322   2.623   2.208   6.515  1.8835 -0.1193 -0.6405
  573MOL0     H77323   2.374   2.259   6.433  0.6487 -1.8091  1.7821
  573MOL0     H77324   2.457   2.300   6.280  0.3810  4.2045  2.3820
  573MOL0     H77325   2.486   2.032   6.428  3.0360  2.2386  3.0467
  573MOL0     H77326   2.566   2.074   6.281  0.8394 -1.0618  0.9953
  573MOL0     H77327   2.264   2.085   6.326  1.4543  0.8287  0.4641
  573MOL0     H77328   2.348   2.098   6.169  0.5254  0.3783 -0.4335
  573MOL0     H77329   2.436   1.880   6.183  0.7122  0.6662 -0.6846
  573MOL0     H77330   2.258   1.875   6.189 -0.7155  2.2227  2.0685
  573MOL0     H77331   2.430   1.817   6.420  0.9005 -1.0813 -1.7450
  573MOL0     H77332   2.259   1.834   6.437  0.7846 -0.3731  0.7694
  573MOL0     H77333   2.337   1.608   6.440 -0.6661 -1.0295 -1.0374
  573MOL0     H77334   2.410   1.609   6.280  1.0571  1.4621 -0.2848
  573MOL0     H77335   2.196   1.650   6.169 -0.1557  0.5662 -0.0823
  573MOL0     H77336   2.115   1.650   6.329  0.2680 -0.4411 -0.0648
  573MOL0     H77337   2.577   2.639   6.599 -0.1096 -2.4626  0.4604
  573MOL0     H77338   2.763   2.782   6.665 -0.6902  0.5845 -3.8230
  573MOL0     H77339   3.070   2.733   7.104 -4.1826  2.2830 -0.5414
  573MOL0     H77340   3.207   2.933   7.229  0.6604 -1.1567 -0.4344
  573MOL0     H77341   5.059   2.944   6.517 -2.0686  2.3314 -0.7473
  573MOL0     H77342   5.311   2.900   6.561  2.0851  0.1300  1.5229
  573MOL0     H77343   5.775   3.338   6.701 -0.1882 -0.4638 -1.0629
  573MOL0     H77344   6.009   3.289   6.737 -0.0656  1.1501 -0.0669
  573MOL0     H77345   6.282   2.952   6.709  0.2600  1.2508  1.7898
  573MOL0     H77346   6.133   2.850   6.682 -0.0288  0.2506 -0.1959
  573MOL0     H77347   6.243   2.840   6.496 -2.4075 -1.2024  2.4619
  573MOL0     H77348   6.309   3.003   6.504  1.7631 -0.7786  3.9217
  573MOL0     H77349   6.097   3.079   6.416 -0.1851  0.6518  0.2388
  573MOL0     H77350   6.004   2.937   6.455  0.5451  0.2372 -0.6218
  573MOL0     H77351   6.046   2.928   6.212 -0.4969  0.8734  1.3518
  573MOL0     H77352   6.163   2.813   6.289 -0.4667 -0.5572  1.5716
  573MOL0     H77353   6.422   3.142   6.183 -0.5003 -0.1944 -3.2153
  573MOL0     H77354   5.921   2.880   6.670 -1.6445 -0.1815  0.4498
  573MOL0     H77355   5.681   2.933   6.611  0.6432  0.5142 -2.6811
  574MOL0     O77356   3.407   8.614   2.397  0.1038 -0.9330 -0.4043
  574MOL0     C77357   3.459   8.550   2.490 -0.0387 -0.9747  0.1133
  574MOL0     O77358   3.407   8.465   2.581  0.5727  0.8210 -0.2650
  574MOL0     C77359   3.273   8.457   2.588  0.5099  0.8024 -0.3946
  574MOL0     C77360   3.207   8.488   2.702 -0.3879 -0.3244 -0.9177
  574MOL0     C77361   3.065   8.477   2.705  0.3626  0.2226  0.3139
  574MOL0     C77362   2.999   8.434   2.598  0.4399 -0.3112  1.0803
  574MOL0     O77363   2.858   8.452   2.610 -0.0986  1.1532  0.8008
  574MOL0     C77364   2.775   8.348   2.564 -0.2305 -0.0908  0.2254
  574MOL0     C77365   2.642   8.396   2.523  0.2835  0.0071 -0.8678
  574MOL0     C77366   2.530   8.294   2.474 -0.2491 -0.6443  0.1287
  574MOL0     C77367   2.405   8.375   2.448  0.2239  0.5954 -0.7091
  574MOL0     C77368   2.299   8.306   2.362 -0.0005  1.0144 -0.1239
  574MOL0     C77369   2.249   8.170   2.420 -0.2748  0.9471  0.4995
  574MOL0     C77370   2.145   8.096   2.338 -0.9333  0.5933 -0.1563
  574MOL0     C77371   2.033   8.179   2.286  0.4196  0.9107  0.1972
  574MOL0     N77372   1.926   8.090   2.224 -0.0028 -0.4155  0.2191
  574MOL0     C77373   1.804   8.052   2.274 -0.2696 -0.8022  0.1183
  574MOL0     C77374   1.742   7.979   2.184  0.1372  0.8511  0.3915
  574MOL0     C77375   1.615   7.900   2.182  0.3863 -0.7106 -0.5963
  574MOL0     C77376   1.510   8.000   2.236  0.6211  0.6342 -0.2552
  574MOL0     C77377   1.400   7.922   2.305 -0.0707 -0.2806 -0.5643
  574MOL0     C77378   1.296   8.011   2.374 -0.6002 -0.2128 -0.0766
  574MOL0     O77379   1.215   8.068   2.272  0.1703  0.2840  0.0008
  574MOL0     C77380   1.081   8.055   2.270  0.2030 -0.9692  0.5687
  574MOL0     C77381   1.028   8.130   2.165 -0.3374  0.4400  1.1519
  574MOL0     C77382   0.890   8.127   2.129  0.0539 -0.0410 -0.2058
  574MOL0     C77383   0.842   8.199   2.008  0.3065  0.2474 -0.1471
  574MOL0     C77384   0.805   8.053   2.206  0.2097 -0.0668 -0.1447
  574MOL0     C77385   0.661   8.058   2.181 -0.9009  0.3159 -0.2350
  574MOL0     O77386   0.599   8.166   2.241 -0.0803  0.3136 -0.0601
  574MOL0     C77387   0.465   8.168   2.226  0.1183  0.2351  0.2720
  574MOL0     C77388   0.379   8.177   2.332  0.3819 -0.1207 -0.5840
  574MOL0     C77389   0.239   8.189   2.319  0.6646 -0.4598 -0.6829
  574MOL0     C77390   0.176   8.219   2.202  1.0829  0.7539 -0.3109
  574MOL0     O77391   0.038   8.226   2.188 -0.4353 -0.7299 -0.0529
  574MOL0     C77392  -0.033   8.248   2.312  1.1906 -0.3832 -0.9611
  574MOL0     C77393  -0.177   8.279   2.280 -0.2587  0.3190  0.5195
  574MOL0     C77394  -0.260   8.269   2.411  0.6291  0.1030 -0.1118
  574MOL0     C77395  -0.408   8.305   2.385 -0.7022  0.1615 -0.7175
  574MOL0     C77396  -0.485   8.308   2.522 -1.0327 -0.1335 -0.0846
  574MOL0     C77397  -0.634   8.302   2.506 -0.8216  0.1701 -0.2480
  574MOL0     C77398  -0.715   8.288   2.641  0.2585  0.9565  0.5405
  574MOL0     C77399  -0.860   8.241   2.620  0.1174  0.3092 -1.0103
  574MOL0    Cl77400  -0.909   8.197   2.788  0.3514 -0.3015  0.0109
  574MOL0     C77401   0.258   8.219   2.090 -1.2031 -0.0660 -0.1942
  574MOL0     C77402   0.403   8.193   2.106  0.6993 -0.3861  0.7982
  574MOL0     O77403   0.610   7.974   2.104 -0.1983 -0.2723 -0.5438
  574MOL0     C77404   0.857   7.973   2.310  0.6321 -0.7865 -0.5616
  574MOL0     C77405   0.993   7.979   2.347  0.1703  0.0359 -0.2751
  574MOL0     N77406   1.824   7.978   2.076 -0.0723 -0.5232 -0.4412
  574MOL0     N77407   1.929   8.048   2.097 -0.5526 -0.5796 -0.1216
  574MOL0     C77408   3.065   8.385   2.485  0.0269  0.4686 -0.0269
  574MOL0     C77409   3.199   8.408   2.483  0.5833  0.3104 -0.6196
  574MOL0     C77410   3.609   8.569   2.495 -1.2773  0.4965  0.0313
  574MOL0     C77411   3.682   8.496   2.591  0.5494  0.5261 -0.2643
  574MOL0     C77412   3.821   8.509   2.592  0.3438 -0.3376 -0.3574
  574MOL0     C77413   3.884   8.580   2.494  0.0593  0.2293  0.6249
  574MOL0     O77414   4.021   8.563   2.504  0.2280 -0.0819  0.1145
  574MOL0     C77415   4.100   8.615   2.399  0.0423  0.1800 -0.3258
  574MOL0     C77416   4.246   8.568   2.418 -0.3834 -0.4708  0.2635
  574MOL0     C77417   4.328   8.610   2.292 -0.8065 -0.2323 -1.2799
  574MOL0     C77418   4.477   8.583   2.324  0.3588 -1.0513 -0.1420
  574MOL0     C77419   4.541   8.604   2.198  0.7020 -0.4752 -0.0258
  574MOL0     C77420   4.586   8.640   2.090 -0.2067  0.2936 -0.0100
  574MOL0     C77421   3.814   8.647   2.397  0.2900  0.0771 -0.1229
  574MOL0     C77422   3.677   8.648   2.403 -0.7115  0.0224  0.5012
  574MOL0     H77423   3.259   8.520   2.792 -1.0669  0.1970 -0.6927
  574MOL0     H77424   2.996   8.499   2.785 -1.3580 -0.6620 -0.8770
  574MOL0     H77425   2.824   8.306   2.475  0.9182  0.7127  0.4521
  574MOL0     H77426   2.753   8.272   2.639 -2.2608 -1.0992 -1.2917
  574MOL0     H77427   2.600   8.458   2.603  2.2719 -0.2375  0.4176
  574MOL0     H77428   2.655   8.466   2.440  2.0073 -1.4325 -1.8816
  574MOL0     H77429   2.559   8.249   2.379  0.0272 -1.4111  0.5607
  574MOL0     H77430   2.517   8.214   2.548 -1.8621  0.1150  0.7077
  574MOL0     H77431   2.368   8.405   2.547  2.1581  1.2375 -0.1274
  574MOL0     H77432   2.436   8.466   2.395 -2.8316  2.0176 -0.2654
  574MOL0     H77433   2.210   8.369   2.349 -2.9715 -2.9887 -1.0435
  574MOL0     H77434   2.348   8.291   2.265 -0.0252  1.0411 -0.1401
  574MOL0     H77435   2.333   8.100   2.423  0.8538  2.0014 -2.7106
  574MOL0     H77436   2.202   8.184   2.517 -1.6757  2.4209 -0.3495
  574MOL0     H77437   2.184   8.053   2.245 -0.3667 -3.3981  1.7464
  574MOL0     H77438   2.099   8.015   2.396  0.3377  0.4292  0.6475
  574MOL0     H77439   2.069   8.253   2.214  1.7191  1.5176  1.4132
  574MOL0     H77440   1.996   8.234   2.373 -2.3899  0.8522 -0.8525
  574MOL0     H77441   1.776   8.084   2.374  0.6359  3.3667 -0.7542
  574MOL0     H77442   1.588   7.868   2.081  1.8399 -0.8796 -0.9442
  574MOL0     H77443   1.629   7.814   2.248 -3.8794  0.2229  1.9403
  574MOL0     H77444   1.472   8.065   2.157 -0.7316  0.4888  0.2461
  574MOL0     H77445   1.537   8.073   2.313 -0.2136  3.3632 -2.3738
  574MOL0     H77446   1.443   7.859   2.384 -0.4242  1.0926  0.7715
  574MOL0     H77447   1.347   7.869   2.225  0.8455 -0.8446 -0.8158
  574MOL0     H77448   1.347   8.086   2.436  1.0331 -1.6470  0.3651
  574MOL0     H77449   1.230   7.944   2.429  0.5571 -2.8574 -1.7487
  574MOL0     H77450   1.095   8.182   2.097 -3.4856  1.7391 -1.1774
  574MOL0     H77451   0.788   8.286   2.047 -0.9252 -0.6792  0.2853
  574MOL0     H77452   0.918   8.225   1.934  0.0179  0.7874 -0.2526
  574MOL0     H77453   0.767   8.134   1.961 -0.3193 -0.8823  2.2587
  574MOL0     H77454   0.416   8.175   2.434 -0.5468  0.1551 -0.2335
  574MOL0     H77455   0.177   8.181   2.408 -2.2937  0.1953 -2.5155
  574MOL0     H77456  -0.031   8.167   2.385  3.9088  0.1007 -0.3685
  574MOL0     H77457  -0.004   8.333   2.374 -3.9297  0.2788  0.9869
  574MOL0     H77458  -0.184   8.380   2.239 -1.8497  0.3525  0.7994
  574MOL0     H77459  -0.215   8.214   2.201  0.1573  1.2003 -0.4153
  574MOL0     H77460  -0.207   8.342   2.473  1.1916 -1.0154  0.7600
  574MOL0     H77461  -0.254   8.164   2.441 -3.6231 -1.3181 -3.2210
  574MOL0     H77462  -0.403   8.407   2.345  1.4246  1.4889  2.5307
  574MOL0     H77463  -0.458   8.237   2.315  1.3022 -1.1862 -0.9045
  574MOL0     H77464  -0.465   8.393   2.588  1.0138  0.5756 -1.5259
  574MOL0     H77465  -0.453   8.219   2.576  3.2027 -0.4240 -2.6221
  574MOL0     H77466  -0.664   8.400   2.468  3.6086  1.1896 -1.6644
  574MOL0     H77467  -0.657   8.218   2.440  2.4729  0.3621 -1.8254
  574MOL0     H77468  -0.717   8.385   2.690 -1.1629  0.7074  1.0138
  574MOL0     H77469  -0.669   8.210   2.703 -1.3303 -0.5012 -0.0202
  574MOL0     H77470  -0.854   8.151   2.557 -0.0483 -2.1526  2.2180
  574MOL0     H77471  -0.921   8.314   2.567 -0.8378  0.1945 -0.1049
  574MOL0     H77472   0.219   8.240   1.991  0.0050 -0.7810 -0.8473
  574MOL0     H77473   0.458   8.206   2.013 -0.5619  1.0316  0.2151
  574MOL0     H77474   0.788   7.918   2.374 -1.6090 -0.5267 -2.5923
  574MOL0     H77475   1.031   7.902   2.412  1.8321 -0.7791 -2.0958
  574MOL0     H77476   3.006   8.361   2.397 -1.9161  1.9907  0.7862
  574MOL0     H77477   3.265   8.378   2.401 -0.4204 -0.8607 -1.0373
  574MOL0     H77478   3.626   8.447   2.670  0.2484  4.4646  2.2503
  574MOL0     H77479   3.887   8.463   2.666  0.2648 -1.3606 -0.9070
  574MOL0     H77480   4.066   8.568   2.307  2.0881 -1.0811 -0.4780
  574MOL0     H77481   4.074   8.721   2.388 -1.9538 -0.0351  1.5448
  574MOL0     H77482   4.243   8.459   2.423  2.1985 -0.6955 -0.9423
  574MOL0     H77483   4.275   8.615   2.512  2.2272 -0.5067 -0.4263
  574MOL0     H77484   4.306   8.712   2.259 -1.2884 -1.2194 -4.3317
  574MOL0     H77485   4.286   8.562   2.203 -3.1995 -0.2853 -0.1814
  574MOL0     H77486   4.490   8.476   2.346  3.0119 -0.3351  2.2042
  574MOL0     H77487   4.512   8.655   2.397  1.8058 -0.9820 -0.8747
  574MOL0     H77488   4.610   8.657   1.987 -1.0578 -1.2869 -0.4893
  574MOL0     H77489   3.865   8.689   2.310  0.3056 -1.1480 -0.7317
  574MOL0     H77490   3.626   8.707   2.328 -0.9462 -0.0390  0.6101
  575MOL0     O77491   1.374   7.559   5.657  0.4986 -0.0330 -0.7999
  575MOL0     C77492   1.435   7.453   5.688 -0.0825  0.5006 -0.8576
  575MOL0     O77493   1.403   7.331   5.644  0.1007  0.2965  0.2975
  575MOL0     C77494   1.313   7.320   5.536 -0.4450  0.1298  0.2629
  575MOL0     C77495   1.294   7.411   5.423  0.1339  0.9317 -0.6860
  575MOL0     C77496   1.180   7.392   5.340 -0.6468  0.2482 -0.3502
  575MOL0     C77497   1.083   7.295   5.366  0.3129 -0.2505  0.5142
  575MOL0     O77498   0.958   7.277   5.308 -0.2737  0.3259  0.2584
  575MOL0     C77499   0.944   7.310   5.168  0.5810 -0.1092 -0.3190
  575MOL0     C77500   0.878   7.439   5.130  0.3485 -0.0221  0.2073
  575MOL0     C77501   0.729   7.452   5.176 -0.2371  0.4919  0.3303
  575MOL0     C77502   0.670   7.572   5.119  0.4061 -0.6489 -0.4694
  575MOL0     C77503   0.518   7.587   5.138 -0.8074 -0.2914 -0.5787
  575MOL0     C77504   0.465   7.726   5.105  1.1889 -1.1095  0.3570
  575MOL0     C77505   0.312   7.741   5.144 -0.4986 -1.3459  0.2183
  575MOL0     C77506   0.310   7.728   5.292 -0.0624  0.3003 -0.4103
  575MOL0     N77507   0.209   7.817   5.346  0.1639 -0.2812 -0.3542
  575MOL0     C77508   0.073   7.822   5.312 -0.9465  0.8704 -0.8971
  575MOL0     C77509   0.014   7.914   5.394 -0.3275 -0.5465  0.4568
  575MOL0     C77510  -0.132   7.937   5.391  0.6555  0.7694 -0.1839
  575MOL0     C77511  -0.193   7.963   5.249 -0.2642 -0.0048 -0.7475
  575MOL0     C77512  -0.344   7.934   5.236  0.1476  0.2548 -0.3871
  575MOL0     C77513  -0.430   8.030   5.325 -0.7001  0.2771 -0.0601
  575MOL0     O77514  -0.564   7.975   5.325  0.8892 -0.2167  0.0130
  575MOL0     C77515  -0.658   8.050   5.389  0.1859  0.4340 -0.0424
  575MOL0     C77516  -0.645   8.172   5.453 -0.5332 -0.3042 -0.5031
  575MOL0     C77517  -0.751   8.246   5.518 -0.1964 -0.0065 -0.3155
  575MOL0     C77518  -0.715   8.381   5.578 -0.1468 -0.1582  0.6512
  575MOL0     C77519  -0.873   8.184   5.532 -0.1725  0.6004  0.7291
  575MOL0     C77520  -0.991   8.249   5.593  0.3029 -0.4522  0.8562
  575MOL0     O77521  -1.080   8.164   5.657  0.0964  0.0008 -0.3899
  575MOL0     C77522  -1.202   8.216   5.703 -0.0970  0.0616  0.5773
  575MOL0     C77523  -1.213   8.227   5.843  0.3353  0.1816 -0.2350
  575MOL0     C77524  -1.332   8.290   5.902 -0.4947 -0.0679  0.3239
  575MOL0     C77525  -1.433   8.332   5.823  0.3913 -1.0804 -0.0388
  575MOL0     O77526  -1.541   8.392   5.884  0.4873 -0.7166 -0.1921
  575MOL0     C77527  -1.545   8.533   5.864  1.0324 -0.0029 -0.1485
  575MOL0     C77528  -1.668   8.584   5.942 -0.2840  0.2697  0.6587
  575MOL0     C77529  -1.791   8.517   5.886  0.3211  0.0688 -0.1379
  575MOL0     C77530  -1.920   8.609   5.917  0.3235  0.6649  0.3013
  575MOL0     C77531  -2.054   8.526   5.902  0.2321  0.1043 -0.8671
  575MOL0     C77532  -2.072   8.485   5.756 -0.4821  0.5320 -0.1981
  575MOL0     C77533  -2.197   8.409   5.724 -0.1974 -0.5769 -0.6883
  575MOL0     C77534  -2.213   8.389   5.572  0.6059  0.0176 -0.0084
  575MOL0    Cl77535  -2.083   8.277   5.497  0.1057 -0.1741  0.2393
  575MOL0     C77536  -1.424   8.315   5.681 -0.5414  0.4107 -0.9939
  575MOL0     C77537  -1.308   8.262   5.623  0.4810 -0.2513 -0.2555
  575MOL0     O77538  -1.012   8.369   5.578 -0.7335  0.8930 -0.2341
  575MOL0     C77539  -0.886   8.058   5.476  0.2199 -0.3833 -0.1973
  575MOL0     C77540  -0.782   7.994   5.406  0.2621 -0.8845  0.6037
  575MOL0     N77541   0.109   7.962   5.474  1.2430  0.9351 -0.2761
  575MOL0     N77542   0.221   7.895   5.456 -1.1082 -0.2568  0.6448
  575MOL0     C77543   1.106   7.215   5.479  0.5107  0.0531  0.5115
  575MOL0     C77544   1.222   7.226   5.556  0.5818  0.2368  0.5058
  575MOL0     C77545   1.548   7.464   5.786 -0.1929 -1.1788  0.7040
  575MOL0     C77546   1.637   7.355   5.802 -1.2093 -1.0529 -0.3719
  575MOL0     C77547   1.738   7.374   5.895 -0.0598  1.0799 -0.8743
  575MOL0     C77548   1.766   7.489   5.969  0.1032  0.8758 -0.7890
  575MOL0     O77549   1.869   7.500   6.054 -0.4559 -0.0965 -1.4907
  575MOL0     C77550   1.972   7.594   6.015  0.3847  0.3844  0.5389
  575MOL0     C77551   2.054   7.525   5.903 -0.6156 -0.0169  0.6723
  575MOL0     C77552   2.136   7.401   5.948  0.3924 -0.8761  0.5298
  575MOL0     C77553   2.190   7.311   5.827  0.2514 -0.0437 -0.2672
  575MOL0     C77554   2.296   7.379   5.752  0.0233  0.4840 -0.9424
  575MOL0     C77555   2.389   7.425   5.694 -0.3907 -0.8332 -0.0395
  575MOL0     C77556   1.670   7.597   5.947 -0.0443 -0.0994 -0.9462
  575MOL0     C77557   1.576   7.589   5.852  0.3187  0.1977  0.9790
  575MOL0     H77558   1.374   7.483   5.404  0.9649  0.4750  0.8518
  575MOL0     H77559   1.165   7.452   5.251  2.0093  1.2517 -0.2191
  575MOL0     H77560   1.040   7.299   5.117  0.8335  1.5152 -0.2439
  575MOL0     H77561   0.872   7.240   5.125  2.7314 -0.9593 -2.8072
  575MOL0     H77562   0.930   7.529   5.165 -2.8165  4.3239 -4.6891
  575MOL0     H77563   0.887   7.441   5.021  1.6172  0.4520  0.3139
  575MOL0     H77564   0.671   7.364   5.147  1.1372 -0.6622  0.9129
  575MOL0     H77565   0.737   7.457   5.285 -0.8136 -0.5893  0.4396
  575MOL0     H77566   0.728   7.660   5.149  0.4780  0.6646 -4.0419
  575MOL0     H77567   0.695   7.562   5.013  1.0123 -1.0880 -0.2847
  575MOL0     H77568   0.462   7.516   5.076 -0.5374 -1.9855  1.0429
  575MOL0     H77569   0.505   7.568   5.245  1.9698 -0.2561 -0.1607
  575MOL0     H77570   0.524   7.812   5.138 -0.5450  0.9360 -1.5912
  575MOL0     H77571   0.475   7.727   4.996 -0.8947  1.3332  0.1078
  575MOL0     H77572   0.283   7.840   5.108  3.4379  0.1815  0.7164
  575MOL0     H77573   0.256   7.672   5.080  2.6746 -1.8684 -2.2468
  575MOL0     H77574   0.403   7.738   5.348 -0.5541 -0.2922  0.5528
  575MOL0     H77575   0.280   7.626   5.318  1.2434  0.4114  1.7385
  575MOL0     H77576   0.020   7.779   5.228  0.1598 -0.5001 -0.9233
  575MOL0     H77577  -0.180   7.851   5.438  1.8184 -0.3331 -0.9465
  575MOL0     H77578  -0.161   8.024   5.451 -0.0336  0.6285 -0.3002
  575MOL0     H77579  -0.139   7.905   5.174  0.8441  1.4817 -1.1647
  575MOL0     H77580  -0.176   8.070   5.230  1.2999  0.0717  0.7443
  575MOL0     H77581  -0.369   7.833   5.271 -0.9868  0.1428 -1.4413
  575MOL0     H77582  -0.373   7.942   5.131 -1.9247  0.9150  0.1847
  575MOL0     H77583  -0.423   8.131   5.285 -1.0745 -0.6927 -2.8327
  575MOL0     H77584  -0.392   8.024   5.427 -0.2896  0.5161 -0.1969
  575MOL0     H77585  -0.548   8.220   5.445 -0.3099 -0.0697  2.3351
  575MOL0     H77586  -0.783   8.424   5.652 -2.7094  1.0426 -2.1944
  575MOL0     H77587  -0.620   8.378   5.633 -1.0123  3.3095  2.5993
  575MOL0     H77588  -0.706   8.460   5.504  0.9973  0.0297  0.9778
  575MOL0     H77589  -1.132   8.191   5.906 -1.1263  0.8276  2.1749
  575MOL0     H77590  -1.335   8.284   6.010 -1.6933  0.6971  0.3472
  575MOL0     H77591  -1.446   8.573   5.890  1.4165 -0.3270 -1.0645
  575MOL0     H77592  -1.567   8.566   5.761  1.5533 -0.4357 -0.4026
  575MOL0     H77593  -1.651   8.561   6.048  2.1135 -1.1342  0.0448
  575MOL0     H77594  -1.670   8.692   5.925  1.5538 -0.0281 -2.1142
  575MOL0     H77595  -1.810   8.411   5.910  1.0864 -0.5114 -1.9731
  575MOL0     H77596  -1.778   8.522   5.778  1.2763  0.1618 -0.0309
  575MOL0     H77597  -1.906   8.641   6.021  2.4968 -2.0477  0.9403
  575MOL0     H77598  -1.921   8.695   5.849 -0.3768  0.2125 -0.2666
  575MOL0     H77599  -2.141   8.576   5.945  1.6925  0.5045  1.8201
  575MOL0     H77600  -2.042   8.441   5.970  1.6325  0.6040 -0.4625
  575MOL0     H77601  -2.054   8.568   5.687  3.3970 -0.6928 -0.8976
  575MOL0     H77602  -1.985   8.423   5.732  0.3504  1.5084  0.2482
  575MOL0     H77603  -2.291   8.457   5.753  0.7946  1.7563 -1.1508
  575MOL0     H77604  -2.198   8.315   5.780  4.4106  0.1601  1.0601
  575MOL0     H77605  -2.218   8.487   5.524  1.1908 -0.2812 -0.6873
  575MOL0     H77606  -2.309   8.336   5.568  1.4599 -2.0699  3.3144
  575MOL0     H77607  -1.497   8.351   5.610 -3.2916  1.0185  1.9571
  575MOL0     H77608  -1.293   8.254   5.516  0.7900 -1.0188 -0.1581
  575MOL0     H77609  -0.971   7.994   5.494 -0.5400  1.1068  1.8054
  575MOL0     H77610  -0.798   7.896   5.362  0.9402 -0.1039 -1.5057
  575MOL0     H77611   1.029   7.143   5.503 -1.2795  1.0359 -1.8450
  575MOL0     H77612   1.231   7.168   5.647  2.1494  0.9011  0.8196
  575MOL0     H77613   1.627   7.259   5.753 -0.3745 -0.7334 -1.2088
  575MOL0     H77614   1.802   7.288   5.912  0.8824  2.1606  1.4701
  575MOL0     H77615   1.929   7.686   5.975 -0.5017 -0.4640 -0.5405
  575MOL0     H77616   2.050   7.622   6.086  3.5112  0.7013 -2.7070
  575MOL0     H77617   2.120   7.604   5.868 -0.9602  0.1124  0.3020
  575MOL0     H77618   1.988   7.501   5.819 -2.4182  1.4142  1.6011
  575MOL0     H77619   2.071   7.339   6.010 -1.2450 -0.7525 -0.9834
  575MOL0     H77620   2.217   7.432   6.015  0.8088  1.3963 -0.8811
  575MOL0     H77621   2.104   7.295   5.762  0.5324  3.1580 -1.6138
  575MOL0     H77622   2.231   7.220   5.871 -1.8008 -0.9622 -0.1605
  575MOL0     H77623   2.451   7.483   5.628 -2.1830  2.1200  0.6972
  575MOL0     H77624   1.691   7.690   5.997 -0.7097 -1.8594  2.9436
  575MOL0     H77625   1.507   7.672   5.836  0.5488 -0.0762 -1.9967
  576MOL0     O77626   8.987   4.729   3.659 -0.1831  0.1839  0.3093
  576MOL0     C77627   9.040   4.630   3.596  0.4945 -0.3830 -0.2336
  576MOL0     O77628   8.978   4.507   3.555 -0.6076  0.7686  0.2486
  576MOL0     C77629   8.846   4.493   3.590 -0.0729 -0.0685 -0.0810
  576MOL0     C77630   8.753   4.525   3.493 -0.0456 -0.7683  0.2777
  576MOL0     C77631   8.616   4.532   3.523  0.5163 -0.9029 -0.1132
  576MOL0     C77632   8.566   4.514   3.652  0.0997  0.1975  0.9179
  576MOL0     O77633   8.430   4.516   3.680 -0.4707 -0.4846  0.4858
  576MOL0     C77634   8.369   4.635   3.644  0.5485 -0.9368  0.1825
  576MOL0     C77635   8.234   4.658   3.723 -0.2517 -0.4926  0.4038
  576MOL0     C77636   8.266   4.664   3.878  0.9555  0.4766  0.6654
  576MOL0     C77637   8.132   4.719   3.936 -0.2946 -0.3666 -0.6804
  576MOL0     C77638   8.120   4.670   4.087  0.3815  0.4227  0.7685
  576MOL0     C77639   8.025   4.765   4.173  0.2840  0.8041  0.5674
  576MOL0     C77640   8.051   4.757   4.330  0.2702  0.1108  0.2116
  576MOL0     C77641   8.004   4.623   4.402 -0.5006 -0.4809  0.3905
  576MOL0     N77642   8.006   4.645   4.543  0.1131  0.8412  0.7682
  576MOL0     C77643   8.124   4.636   4.623 -0.2420  0.1055  0.0595
  576MOL0     C77644   8.078   4.683   4.741 -0.4318  0.3109 -0.0519
  576MOL0     C77645   8.180   4.726   4.855  0.0349  1.3787  0.2746
  576MOL0     C77646   8.127   4.815   4.967  0.3207  0.0761 -0.4521
  576MOL0     C77647   8.017   4.767   5.054  0.0310  0.0987  0.0358
  576MOL0     C77648   8.047   4.632   5.111 -0.2070  0.2013  0.5153
  576MOL0     O77649   7.978   4.622   5.239  0.5749 -0.6923  0.6284
  576MOL0     C77650   7.849   4.583   5.233  0.4396  0.2198 -0.0748
  576MOL0     C77651   7.806   4.456   5.232  0.1959  0.3769 -0.7808
  576MOL0     C77652   7.673   4.421   5.232 -0.1383  0.0330 -0.3963
  576MOL0     C77653   7.651   4.270   5.233 -1.0540  0.0322  0.1522
  576MOL0     C77654   7.569   4.524   5.228  0.2754 -0.0098  0.2743
  576MOL0     C77655   7.422   4.487   5.213  0.1294 -0.4736 -0.1510
  576MOL0     O77656   7.341   4.597   5.179 -0.2078  0.3762  0.1274
  576MOL0     C77657   7.206   4.572   5.185  0.5768  0.0493  0.5586
  576MOL0     C77658   7.127   4.630   5.288 -0.0633  0.5383 -0.1304
  576MOL0     C77659   6.991   4.592   5.308  0.3034  0.8366 -0.1927
  576MOL0     C77660   6.919   4.511   5.216  0.2494 -0.3572  0.1097
  576MOL0     O77661   6.791   4.470   5.219  1.2841  0.1706 -0.2408
  576MOL0     C77662   6.704   4.539   5.316 -0.4831 -0.2264  0.1143
  576MOL0     C77663   6.559   4.528   5.276 -0.2118  0.1024  0.1261
  576MOL0     C77664   6.511   4.576   5.143  0.0035 -0.4906 -0.8043
  576MOL0     C77665   6.367   4.542   5.116  0.1776 -0.2022 -0.3639
  576MOL0     C77666   6.268   4.604   5.219 -0.2577 -0.4570  0.1543
  576MOL0     C77667   6.122   4.550   5.201 -0.7390 -0.3119  0.3364
  576MOL0     C77668   6.032   4.602   5.313 -0.2308  1.1699 -0.6692
  576MOL0     C77669   5.995   4.747   5.291 -0.1449 -1.3202  0.3675
  576MOL0    Cl77670   5.893   4.793   5.440  0.0785 -0.0023  0.0375
  576MOL0     C77671   7.002   4.464   5.111  0.8085 -0.4610 -0.6802
  576MOL0     C77672   7.135   4.495   5.090  0.4701  0.0929  0.4763
  576MOL0     O77673   7.381   4.376   5.234 -0.0357  0.5076  0.0017
  576MOL0     C77674   7.619   4.660   5.232  0.2574  0.6947 -0.8307
  576MOL0     C77675   7.755   4.688   5.232  0.0593  0.1987 -0.1049
  576MOL0     N77676   7.939   4.694   4.740  0.0381  1.9602  0.4794
  576MOL0     N77677   7.902   4.667   4.624  0.3986 -0.3626 -0.1306
  576MOL0     C77678   8.659   4.474   3.745  0.3966 -0.6893  0.0800
  576MOL0     C77679   8.797   4.462   3.717 -0.1044  0.0309 -0.3781
  576MOL0     C77680   9.184   4.642   3.561  0.3912  0.3340 -0.4296
  576MOL0     C77681   9.265   4.533   3.542  0.6236  0.6638 -0.3419
  576MOL0     C77682   9.409   4.548   3.525 -0.2510 -0.0873  0.1326
  576MOL0     C77683   9.470   4.667   3.515 -0.7447 -0.0283 -0.0736
  576MOL0     O77684   9.609   4.656   3.498 -0.0591 -0.2780  0.4271
  576MOL0     C77685   9.686   4.772   3.519  0.3022 -0.7875  0.3981
  576MOL0     C77686   9.832   4.722   3.540 -0.2559  1.0455 -0.2644
  576MOL0     C77687   9.881   4.668   3.402 -0.1254  0.2586  0.5112
  576MOL0     C77688  10.007   4.575   3.399  0.4095 -0.0201  0.1329
  576MOL0     C77689  10.126   4.643   3.440  0.8606 -0.1222  0.6507
  576MOL0     C77690  10.224   4.706   3.473 -0.5128  0.2049 -0.9089
  576MOL0     C77691   9.387   4.779   3.528  0.4556  0.1177 -0.5896
  576MOL0     C77692   9.249   4.767   3.543  1.2223  0.5709  0.2319
  576MOL0     H77693   8.785   4.553   3.393 -0.6352  0.9246  0.5231
  576MOL0     H77694   8.536   4.563   3.457  0.9733  0.6930  0.0152
  576MOL0     H77695   8.435   4.722   3.650 -0.7641  0.0433  1.1799
  576MOL0     H77696   8.337   4.614   3.542 -0.9924  0.3152  0.3666
  576MOL0     H77697   8.199   4.757   3.692  2.7920  0.0488 -1.7659
  576MOL0     H77698   8.158   4.582   3.702 -3.1785  2.6462 -1.4421
  576MOL0     H77699   8.282   4.567   3.924 -3.6878 -0.8917 -0.1117
  576MOL0     H77700   8.345   4.737   3.900  1.5819  0.1849 -0.5379
  576MOL0     H77701   8.127   4.828   3.932 -3.3434 -0.2797  1.9894
  576MOL0     H77702   8.047   4.684   3.876  0.6677 -0.5169 -2.0181
  576MOL0     H77703   8.096   4.563   4.093  1.3596  0.1670  0.3017
  576MOL0     H77704   8.219   4.688   4.129  0.2370  4.3116 -0.2365
  576MOL0     H77705   8.062   4.864   4.145 -1.7564  0.7769 -2.8840
  576MOL0     H77706   7.920   4.741   4.152 -0.0580  1.0973  1.8894
  576MOL0     H77707   8.159   4.772   4.338  0.2451  0.8987 -0.7139
  576MOL0     H77708   8.004   4.845   4.375  2.4936  1.0142  0.9171
  576MOL0     H77709   8.078   4.543   4.388  0.1971 -0.1812  2.1568
  576MOL0     H77710   7.905   4.590   4.369 -0.6368  0.6727 -0.4262
  576MOL0     H77711   8.222   4.609   4.584 -0.6129 -0.1689 -0.6986
  576MOL0     H77712   8.218   4.632   4.894 -1.3321  0.8785  0.4454
  576MOL0     H77713   8.260   4.775   4.799  0.3251  0.2615 -0.3103
  576MOL0     H77714   8.087   4.907   4.921  0.6930 -0.1279 -1.2080
  576MOL0     H77715   8.206   4.858   5.029 -0.7194 -0.7837  1.5626
  576MOL0     H77716   7.922   4.747   5.004  0.3596 -0.6577 -0.3040
  576MOL0     H77717   8.000   4.840   5.134  3.3382  3.3786 -1.9382
  576MOL0     H77718   8.156   4.643   5.123  0.2131  3.7143 -4.0118
  576MOL0     H77719   8.022   4.550   5.042  0.9500 -1.6650  2.1851
  576MOL0     H77720   7.878   4.375   5.220  1.7396  1.4465  0.6671
  576MOL0     H77721   7.639   4.232   5.334  1.3285  0.5863  0.6987
  576MOL0     H77722   7.563   4.238   5.175 -0.0898 -2.6501  0.0143
  576MOL0     H77723   7.736   4.215   5.191 -0.3037  0.3447  1.2358
  576MOL0     H77724   7.166   4.711   5.348  1.4386  2.6342 -3.5742
  576MOL0     H77725   6.949   4.636   5.398 -0.6259  0.6918 -0.5540
  576MOL0     H77726   6.717   4.481   5.407  2.2588 -2.9984 -1.8393
  576MOL0     H77727   6.723   4.645   5.328  0.3565 -0.5102  1.4436
  576MOL0     H77728   6.524   4.425   5.276 -0.8521  0.3094  1.3574
  576MOL0     H77729   6.508   4.576   5.359  0.6407 -1.1317  1.4062
  576MOL0     H77730   6.571   4.537   5.061  1.3348  0.4138 -0.2914
  576MOL0     H77731   6.529   4.684   5.138  3.8863 -1.0420 -1.6104
  576MOL0     H77732   6.338   4.572   5.015 -1.3715  2.1467  0.6848
  576MOL0     H77733   6.351   4.434   5.123 -0.1325 -0.0712  1.3519
  576MOL0     H77734   6.272   4.713   5.213 -0.6181 -0.4514  0.0031
  576MOL0     H77735   6.300   4.578   5.320  0.1094  1.7524  0.6762
  576MOL0     H77736   6.081   4.576   5.103  1.5760  4.9226  0.4181
  576MOL0     H77737   6.140   4.442   5.207 -0.7682 -0.5436 -2.3869
  576MOL0     H77738   6.090   4.599   5.406  0.5358 -0.6546 -1.1648
  576MOL0     H77739   5.942   4.539   5.320  0.7069 -0.0392  2.2025
  576MOL0     H77740   5.948   4.754   5.193  0.8940 -0.5724 -0.0991
  576MOL0     H77741   6.080   4.815   5.282 -1.7403  0.9073  1.2826
  576MOL0     H77742   6.952   4.414   5.029 -0.8947  1.3804 -0.8295
  576MOL0     H77743   7.191   4.439   5.016 -0.5883 -2.3682  1.4337
  576MOL0     H77744   7.546   4.740   5.232 -0.2345  0.4738  3.2632
  576MOL0     H77745   7.786   4.791   5.216 -3.8288  1.2664 -1.9130
  576MOL0     H77746   8.613   4.427   3.831 -2.4008 -1.7182 -1.8179
  576MOL0     H77747   8.864   4.428   3.795  0.7119 -0.6973 -1.3782
  576MOL0     H77748   9.215   4.437   3.542  0.9842  0.4719 -0.1287
  576MOL0     H77749   9.466   4.456   3.522  0.1839  0.0919  1.7167
  576MOL0     H77750   9.666   4.852   3.447 -0.9234  0.4594  2.0246
  576MOL0     H77751   9.658   4.829   3.608  1.2724  0.9552 -0.3701
  576MOL0     H77752   9.833   4.636   3.608  2.1647  2.0111  1.0474
  576MOL0     H77753   9.906   4.795   3.574 -1.2562  1.4965  1.0343
  576MOL0     H77754   9.879   4.755   3.337  1.8501 -0.5985 -0.7809
  576MOL0     H77755   9.809   4.589   3.377 -0.3545  0.5969  0.1008
  576MOL0     H77756  10.026   4.542   3.296 -0.7237 -2.9076  0.7719
  576MOL0     H77757   9.986   4.485   3.458 -2.8977  0.7668  0.3373
  576MOL0     H77758  10.321   4.743   3.499  0.5369 -2.7061 -0.3050
  576MOL0     H77759   9.431   4.878   3.533 -0.5275  0.5077  2.7950
  576MOL0     H77760   9.180   4.851   3.541 -0.9578 -1.1366 -0.6696
  577MOL0     O77761   0.283   7.995   4.639  0.4887 -0.0042  0.0988
  577MOL0     C77762   0.333   7.986   4.748  0.1720 -0.4394 -1.0152
  577MOL0     O77763   0.258   7.986   4.862 -0.5981  0.9860 -0.3825
  577MOL0     C77764   0.122   8.015   4.867  0.7181  0.1546  0.3336
  577MOL0     C77765   0.060   8.117   4.937  0.9637  0.2056 -0.7134
  577MOL0     C77766  -0.080   8.124   4.953  0.5852 -0.0478 -0.0010
  577MOL0     C77767  -0.158   8.034   4.884  0.2191  0.7422  0.6910
  577MOL0     O77768  -0.296   8.048   4.886 -0.1896  0.0593 -0.2164
  577MOL0     C77769  -0.363   8.042   4.759 -0.1171  0.0580 -0.1547
  577MOL0     C77770  -0.515   8.031   4.767 -0.9119 -0.0749 -0.0987
  577MOL0     C77771  -0.569   8.118   4.876 -0.6917 -0.5435  0.5563
  577MOL0     C77772  -0.726   8.130   4.867 -0.0930 -0.5005 -0.3075
  577MOL0     C77773  -0.777   8.222   4.979  0.0722  0.0257  0.1323
  577MOL0     C77774  -0.935   8.205   5.002  0.0516  0.2811 -0.3900
  577MOL0     C77775  -1.010   8.328   4.946  0.0004 -0.8288 -0.0292
  577MOL0     C77776  -1.019   8.337   4.792  0.1274 -0.4729  0.6949
  577MOL0     N77777  -1.161   8.343   4.759 -0.6542  0.4059  0.6852
  577MOL0     C77778  -1.247   8.232   4.756 -0.0743 -0.4412  0.4668
  577MOL0     C77779  -1.368   8.293   4.750 -0.0026 -0.1673 -1.0356
  577MOL0     C77780  -1.503   8.218   4.758  0.0041  0.0553  0.3480
  577MOL0     C77781  -1.537   8.167   4.624 -0.0198  0.3017  0.1726
  577MOL0     C77782  -1.622   8.040   4.647  1.1563  0.1086  0.0280
  577MOL0     C77783  -1.708   8.004   4.530  0.0355  0.3771  0.8966
  577MOL0     O77784  -1.621   7.962   4.418  0.4153 -0.8798 -0.5728
  577MOL0     C77785  -1.549   7.845   4.436  0.2423 -0.1350 -0.1629
  577MOL0     C77786  -1.584   7.739   4.517  0.2757 -0.1282 -0.3422
  577MOL0     C77787  -1.500   7.620   4.536 -0.2104 -0.6601  0.7165
  577MOL0     C77788  -1.554   7.501   4.618  0.7894  0.1072  0.1935
  577MOL0     C77789  -1.378   7.607   4.462  1.1807 -0.2600 -0.4362
  577MOL0     C77790  -1.281   7.492   4.475  0.1596 -0.0581  0.0231
  577MOL0     O77791  -1.183   7.486   4.383 -0.1999  0.1895  0.2669
  577MOL0     C77792  -1.099   7.372   4.379  0.3135 -0.2698  0.7098
  577MOL0     C77793  -0.957   7.381   4.389  0.2827 -0.3909 -0.3025
  577MOL0     C77794  -0.874   7.262   4.402 -0.0653  0.5567 -0.4736
  577MOL0     C77795  -0.937   7.138   4.395  0.2873 -0.2619 -0.1585
  577MOL0     O77796  -0.850   7.034   4.411  0.4798 -0.1978  0.0560
  577MOL0     C77797  -0.862   6.947   4.303 -0.5692 -0.2450  0.3898
  577MOL0     C77798  -0.742   6.856   4.305  0.0766  0.0736  0.0512
  577MOL0     C77799  -0.729   6.794   4.443 -0.1721  0.7325 -0.1335
  577MOL0     C77800  -0.603   6.713   4.439  0.1747  0.3494 -0.3414
  577MOL0     C77801  -0.565   6.643   4.572 -0.3473  0.1713  0.7181
  577MOL0     C77802  -0.419   6.624   4.593  0.2104 -0.4245  0.0317
  577MOL0     C77803  -0.348   6.763   4.585  0.7279  0.3503 -0.0753
  577MOL0     C77804  -0.210   6.750   4.644 -0.3101  0.8919 -0.1459
  577MOL0    Cl77805  -0.118   6.621   4.562  0.3815 -0.0480  0.3227
  577MOL0     C77806  -1.066   7.129   4.375  0.2862  1.2060  0.3120
  577MOL0     C77807  -1.150   7.239   4.373  0.6855 -0.7267 -0.0015
  577MOL0     O77808  -1.292   7.413   4.568 -0.4245  0.1076 -0.0436
  577MOL0     C77809  -1.340   7.725   4.382  0.1726  0.6107 -0.0528
  577MOL0     C77810  -1.422   7.836   4.373 -0.0144 -0.4875  0.2206
  577MOL0     N77811  -1.353   8.434   4.734 -0.3343 -0.0062 -0.1153
  577MOL0     N77812  -1.229   8.464   4.741 -0.4850  0.5266 -0.1779
  577MOL0     C77813  -0.102   7.932   4.816 -0.3891  0.2429  0.0676
  577MOL0     C77814   0.039   7.919   4.809 -0.6635 -0.6062  0.8691
  577MOL0     C77815   0.481   7.974   4.769  0.5563  0.9157  0.2377
  577MOL0     C77816   0.570   7.982   4.663  0.3457 -0.1310 -0.0538
  577MOL0     C77817   0.709   7.949   4.683  1.3444 -0.6500 -0.1789
  577MOL0     C77818   0.745   7.909   4.806 -0.3315 -0.4008 -0.5557
  577MOL0     O77819   0.872   7.869   4.815 -0.2710  0.3292 -0.3249
  577MOL0     C77820   0.891   7.743   4.873 -0.5351  0.2407  0.2767
  577MOL0     C77821   1.026   7.743   4.947  0.2685  0.0028 -0.5783
  577MOL0     C77822   1.014   7.840   5.058 -0.0113  0.1394 -0.1073
  577MOL0     C77823   1.121   7.809   5.160  0.2729  0.0182 -0.2341
  577MOL0     C77824   1.265   7.813   5.113  0.1178 -0.1748 -0.3307
  577MOL0     C77825   1.382   7.809   5.087 -0.0852 -1.0951  0.1431
  577MOL0     C77826   0.669   7.926   4.918  0.6702  0.7520  0.5874
  577MOL0     C77827   0.534   7.961   4.899 -0.4434 -0.2876  0.4851
  577MOL0     H77828   0.128   8.190   4.980 -0.1536  0.4464  0.7652
  577MOL0     H77829  -0.123   8.211   5.002  0.3352  0.2761 -0.7751
  577MOL0     H77830  -0.341   8.133   4.701  1.4092 -0.5721 -0.6139
  577MOL0     H77831  -0.326   7.956   4.703  0.9620 -0.2364  0.9707
  577MOL0     H77832  -0.562   8.053   4.670 -0.8404  0.2691 -0.0548
  577MOL0     H77833  -0.524   7.926   4.795  0.6209 -0.3834 -0.6493
  577MOL0     H77834  -0.538   8.086   4.976 -1.4500  0.0851  1.0120
  577MOL0     H77835  -0.526   8.219   4.873  1.5065 -1.4490 -0.7484
  577MOL0     H77836  -0.747   8.173   4.769  1.5099  0.8062 -0.1161
  577MOL0     H77837  -0.769   8.030   4.880  2.2473 -1.3278  1.8565
  577MOL0     H77838  -0.723   8.199   5.071  1.9247 -1.2024 -1.1946
  577MOL0     H77839  -0.746   8.326   4.967 -0.6527  1.0471  4.8121
  577MOL0     H77840  -0.974   8.116   4.952 -0.7194  0.7116 -0.5690
  577MOL0     H77841  -0.938   8.197   5.111 -0.7625  2.9208 -0.1529
  577MOL0     H77842  -1.108   8.339   4.993 -1.0302  1.8137 -2.4517
  577MOL0     H77843  -0.950   8.413   4.981 -1.2045 -0.1388  0.4342
  577MOL0     H77844  -0.977   8.246   4.748  1.1274 -0.3650  1.3958
  577MOL0     H77845  -0.964   8.421   4.748  2.5129 -3.4999 -2.8409
  577MOL0     H77846  -1.217   8.128   4.765  0.1590 -0.3304  1.0541
  577MOL0     H77847  -1.506   8.137   4.831 -0.9761 -1.5463 -1.3576
  577MOL0     H77848  -1.585   8.277   4.800 -1.4456 -3.4643  2.9533
  577MOL0     H77849  -1.448   8.140   4.567  1.1200  1.4862  1.3234
  577MOL0     H77850  -1.598   8.244   4.575 -2.6246 -1.2213  0.8040
  577MOL0     H77851  -1.691   8.066   4.728 -0.0635  0.4998 -1.0961
  577MOL0     H77852  -1.571   7.948   4.679  1.1539  0.2117  0.3291
  577MOL0     H77853  -1.773   8.089   4.505 -3.1566 -1.6561  1.5919
  577MOL0     H77854  -1.789   7.935   4.559  0.4583 -0.5911 -0.1269
  577MOL0     H77855  -1.680   7.747   4.567 -0.5350 -0.5731 -1.7620
  577MOL0     H77856  -1.659   7.520   4.641  0.6126 -1.9420  1.2993
  577MOL0     H77857  -1.552   7.411   4.556 -1.6157  2.3493 -3.5215
  577MOL0     H77858  -1.505   7.488   4.715 -2.0153 -0.0048  1.6894
  577MOL0     H77859  -0.910   7.479   4.390  2.7259 -1.4460  2.3223
  577MOL0     H77860  -0.770   7.266   4.433  0.1523  2.3608 -1.2971
  577MOL0     H77861  -0.960   6.899   4.292 -1.7514  2.3902 -1.6164
  577MOL0     H77862  -0.851   7.005   4.211 -0.8531 -0.7596  0.0281
  577MOL0     H77863  -0.743   6.785   4.222  1.0945 -2.0125  1.7398
  577MOL0     H77864  -0.654   6.921   4.295 -0.4777  0.9582  0.8001
  577MOL0     H77865  -0.812   6.727   4.468  1.5621 -1.6944 -0.5110
  577MOL0     H77866  -0.725   6.867   4.525 -1.8406  0.2068  0.4639
  577MOL0     H77867  -0.626   6.630   4.372 -0.7221 -0.9226  1.4519
  577MOL0     H77868  -0.523   6.780   4.405  1.4338 -0.9128  0.0460
  577MOL0     H77869  -0.608   6.544   4.557  1.4293 -0.3008 -1.9344
  577MOL0     H77870  -0.611   6.694   4.657  0.1222 -1.4842  2.0221
  577MOL0     H77871  -0.421   6.577   4.692  0.6010 -0.3389  0.0848
  577MOL0     H77872  -0.367   6.568   4.514 -0.4931  0.1647 -0.8557
  577MOL0     H77873  -0.398   6.844   4.637  1.4873  0.9082 -0.2030
  577MOL0     H77874  -0.337   6.792   4.480 -2.0467 -0.2031 -0.6032
  577MOL0     H77875  -0.193   6.736   4.751  2.6781  1.4717 -0.4617
  577MOL0     H77876  -0.159   6.840   4.607  0.7526 -1.1588 -4.2319
  577MOL0     H77877  -1.110   7.029   4.372  1.9512  0.2912  2.8311
  577MOL0     H77878  -1.254   7.207   4.368  0.6634 -0.5618 -0.6458
  577MOL0     H77879  -1.242   7.723   4.337  0.5783 -1.4836  0.8518
  577MOL0     H77880  -1.389   7.924   4.319 -2.6391 -0.9848 -2.4257
  577MOL0     H77881  -0.166   7.855   4.773  0.6986 -0.1259 -0.9579
  577MOL0     H77882   0.083   7.823   4.783  2.9294  0.9987  0.3031
  577MOL0     H77883   0.530   8.001   4.564 -3.3065 -1.4130  0.9884
  577MOL0     H77884   0.775   7.964   4.598  0.1516  0.7096 -0.9228
  577MOL0     H77885   0.821   7.724   4.955  0.1780  0.2870  0.9093
  577MOL0     H77886   0.888   7.663   4.798  2.7657  0.1898  0.0662
  577MOL0     H77887   1.114   7.764   4.885  0.6255  1.4309  0.3630
  577MOL0     H77888   1.032   7.642   4.990 -1.8245 -0.0812 -0.3642
  577MOL0     H77889   0.919   7.837   5.113  1.5294  1.6071  2.8384
  577MOL0     H77890   1.031   7.940   5.016 -1.0742  1.2045  1.8719
  577MOL0     H77891   1.105   7.717   5.218  0.7670  0.9592  1.4602
  577MOL0     H77892   1.116   7.897   5.225 -1.4447 -0.1100 -0.1349
  577MOL0     H77893   1.486   7.833   5.078  0.2618 -2.0779  1.2703
  577MOL0     H77894   0.714   7.904   5.015  1.7572 -3.5498 -0.6924
  577MOL0     H77895   0.463   7.972   4.980 -0.3555  0.7249  0.4343
  578MOL0     O77896   9.475   0.368   6.073 -0.2906  0.5086 -0.0069
  578MOL0     C77897   9.454   0.287   5.982  0.6157  0.2487  0.3280
  578MOL0     O77898   9.342   0.290   5.902 -0.5054 -0.1122 -0.1077
  578MOL0     C77899   9.259   0.408   5.903 -0.0530 -0.0337 -0.7366
  578MOL0     C77900   9.144   0.408   5.977  0.1615 -0.8864 -0.2234
  578MOL0     C77901   9.042   0.510   5.975 -0.4272 -1.5599  0.2669
  578MOL0     C77902   9.062   0.617   5.878 -0.1694  0.4997 -0.0629
  578MOL0     O77903   8.958   0.707   5.850  0.6205 -0.2667 -0.1844
  578MOL0     C77904   8.867   0.723   5.957 -0.5236 -0.0533 -1.0312
  578MOL0     C77905   8.792   0.846   5.919 -0.1634 -0.6689  0.0236
  578MOL0     C77906   8.651   0.877   5.973 -0.4875 -0.1766 -0.6539
  578MOL0     C77907   8.666   0.942   6.110 -0.1723  0.3648 -0.4020
  578MOL0     C77908   8.527   0.958   6.178  0.4550  1.0388  0.0682
  578MOL0     C77909   8.443   1.069   6.117  0.4336  0.2341 -1.0487
  578MOL0     C77910   8.310   1.089   6.191  0.3174 -0.6467 -0.0985
  578MOL0     C77911   8.219   1.204   6.141  1.2632  0.3422  0.1124
  578MOL0     N77912   8.169   1.300   6.246  0.7277  0.2766  0.5908
  578MOL0     C77913   8.081   1.265   6.344 -0.6147 -0.3712  0.4540
  578MOL0     C77914   8.084   1.378   6.428  0.1435 -0.7107  0.1607
  578MOL0     C77915   7.999   1.381   6.560 -0.3696 -0.0242  0.1556
  578MOL0     C77916   7.883   1.484   6.557  0.1404 -0.0577  0.4060
  578MOL0     C77917   7.795   1.476   6.679  0.2473 -1.2366 -0.1459
  578MOL0     C77918   7.667   1.557   6.658  0.0157 -0.8455 -0.3552
  578MOL0     O77919   7.598   1.505   6.549  0.4025  0.2920 -0.2763
  578MOL0     C77920   7.467   1.492   6.584  0.0845 -1.0854 -0.6277
  578MOL0     C77921   7.389   1.601   6.623  0.6195  0.1337 -0.3850
  578MOL0     C77922   7.259   1.589   6.676 -0.4664 -0.5707  0.0261
  578MOL0     C77923   7.182   1.717   6.713 -0.7415 -0.0173  0.7401
  578MOL0     C77924   7.201   1.459   6.673 -0.6563  0.3183 -0.2068
  578MOL0     C77925   7.066   1.421   6.708 -0.5985  0.4667  0.0890
  578MOL0     O77926   7.036   1.285   6.698 -0.2462  0.3618 -0.5322
  578MOL0     C77927   6.918   1.231   6.746  0.5025 -0.1177 -0.0753
  578MOL0     C77928   6.923   1.088   6.756 -0.3313  0.2365 -0.3185
  578MOL0     C77929   6.819   1.008   6.801  0.6874 -0.4522 -0.2581
  578MOL0     C77930   6.695   1.067   6.843 -0.6570  0.0741  0.2461
  578MOL0     O77931   6.586   0.997   6.901 -0.0289  0.3178 -0.4345
  578MOL0     C77932   6.558   0.857   6.865  0.6643  0.0579 -0.3607
  578MOL0     C77933   6.461   0.796   6.964  0.4480 -0.1449 -0.2009
  578MOL0     C77934   6.328   0.871   6.960 -0.3018 -0.4382  0.5496
  578MOL0     C77935   6.271   0.869   6.813 -0.2546  0.1112 -0.2088
  578MOL0     C77936   6.131   0.916   6.811 -0.0911 -0.2387  0.8567
  578MOL0     C77937   6.104   0.970   6.672 -0.1007 -0.1977 -0.2456
  578MOL0     C77938   5.951   0.967   6.644 -0.1911  0.4950  0.2273
  578MOL0     C77939   5.861   1.055   6.734  0.6035 -0.2779 -0.6765
  578MOL0    Cl77940   5.696   1.064   6.661 -0.3623  0.0002 -0.4503
  578MOL0     C77941   6.686   1.208   6.830  0.1263 -0.2682  0.0881
  578MOL0     C77942   6.800   1.291   6.793  0.2670  0.4330  0.0813
  578MOL0     O77943   7.004   1.508   6.766 -0.2896  0.0232 -0.0057
  578MOL0     C77944   7.285   1.348   6.635 -0.4926 -0.1478 -0.4321
  578MOL0     C77945   7.416   1.366   6.593  0.7559  1.2691 -0.4708
  578MOL0     N77946   8.178   1.473   6.380 -0.4981 -0.3935  0.4018
  578MOL0     N77947   8.228   1.426   6.272  0.0800  0.4214  0.4661
  578MOL0     C77948   9.182   0.628   5.813 -0.4493 -0.3167  0.5771
  578MOL0     C77949   9.287   0.523   5.825  0.8682 -0.8654 -0.2114
  578MOL0     C77950   9.553   0.178   5.970 -0.2587  0.0547  0.6039
  578MOL0     C77951   9.512   0.064   5.898 -0.1699  0.3303  0.3985
  578MOL0     C77952   9.587  -0.057   5.900 -0.7540 -1.4884 -0.3075
  578MOL0     C77953   9.713  -0.057   5.952 -0.9548  0.4047  0.2955
  578MOL0     O77954   9.796  -0.163   5.920  0.0649 -0.1140  0.2451
  578MOL0     C77955   9.938  -0.154   5.936 -0.4317  0.1353 -0.0135
  578MOL0     C77956  10.001  -0.196   6.063  0.1866 -0.1161  0.2261
  578MOL0     C77957  10.002  -0.347   6.072  0.8663 -0.2902  0.7547
  578MOL0     C77958  10.140  -0.408   6.033 -0.1341 -0.0166  0.1114
  578MOL0     C77959  10.134  -0.557   6.048  0.4334  0.1093  0.1210
  578MOL0     C77960  10.140  -0.677   6.060 -0.7069 -0.0530 -0.3295
  578MOL0     C77961   9.756   0.064   6.020 -0.0118 -0.6989 -0.7330
  578MOL0     C77962   9.677   0.176   6.041  0.4536  1.5041 -0.4693
  578MOL0     H77963   9.126   0.316   6.032  0.9494 -0.2093  1.2263
  578MOL0     H77964   8.962   0.512   6.047 -1.8660  0.4747 -1.2836
  578MOL0     H77965   8.794   0.643   5.968 -0.2182 -0.1637  0.3989
  578MOL0     H77966   8.917   0.740   6.053 -0.4693  3.7748 -1.5783
  578MOL0     H77967   8.855   0.934   5.928 -0.7163 -0.1190 -1.2034
  578MOL0     H77968   8.776   0.833   5.811  0.8786  0.8805 -0.3546
  578MOL0     H77969   8.625   0.956   5.902  1.1231  0.3710 -0.6928
  578MOL0     H77970   8.585   0.791   5.961 -0.0005 -0.7026  0.3519
  578MOL0     H77971   8.726   0.877   6.175 -1.3412  0.8091  1.1730
  578MOL0     H77972   8.724   1.034   6.102  0.5238  0.4021  3.3533
  578MOL0     H77973   8.471   0.863   6.177 -0.4003  1.5299 -0.7024
  578MOL0     H77974   8.545   0.988   6.281  0.9991  1.8202 -0.2519
  578MOL0     H77975   8.505   1.158   6.132  0.5914 -0.1625  1.0164
  578MOL0     H77976   8.431   1.049   6.010  1.1983  1.1954 -1.3348
  578MOL0     H77977   8.258   0.994   6.173  0.0569  0.1294 -4.3102
  578MOL0     H77978   8.319   1.101   6.299 -3.0349  1.7957  0.0795
  578MOL0     H77979   8.129   1.164   6.093  0.2056  2.5648  0.1613
  578MOL0     H77980   8.266   1.262   6.061  2.0701  1.5462  1.4231
  578MOL0     H77981   8.038   1.166   6.356  1.8140 -1.4418  0.8662
  578MOL0     H77982   7.966   1.277   6.572  1.8921 -0.5609  2.8733
  578MOL0     H77983   8.055   1.397   6.653  0.4693 -1.8474  0.0095
  578MOL0     H77984   7.826   1.448   6.471  1.3796  0.7973 -0.8177
  578MOL0     H77985   7.931   1.580   6.536 -0.1215 -0.1387 -0.5987
  578MOL0     H77986   7.848   1.524   6.762  2.5439 -0.1729 -2.1016
  578MOL0     H77987   7.772   1.374   6.711 -1.5403 -0.4219  1.3582
  578MOL0     H77988   7.676   1.665   6.649 -1.8349 -0.1371  3.7927
  578MOL0     H77989   7.601   1.548   6.746  0.1964 -0.1427 -0.1442
  578MOL0     H77990   7.432   1.700   6.612 -3.0040  1.7377 -1.6639
  578MOL0     H77991   7.088   1.729   6.657  0.1475  2.7184 -0.3125
  578MOL0     H77992   7.162   1.718   6.820 -2.2006  2.7232  0.5292
  578MOL0     H77993   7.238   1.811   6.714 -0.7292  0.0357  3.8667
  578MOL0     H77994   7.017   1.039   6.732 -2.5180 -3.5824 -2.0531
  578MOL0     H77995   6.834   0.901   6.813  1.6196 -0.3362 -0.3314
  578MOL0     H77996   6.517   0.841   6.764 -0.6904 -1.6664  0.4066
  578MOL0     H77997   6.650   0.800   6.877 -1.2499 -3.0129  1.0292
  578MOL0     H77998   6.460   0.689   6.942 -0.3690  0.4863 -4.0480
  578MOL0     H77999   6.504   0.816   7.062  0.6468 -0.8992 -0.1282
  578MOL0     H78000   6.331   0.976   6.989 -2.0323 -0.5792  1.3476
  578MOL0     H78001   6.251   0.833   7.028  0.5476  0.7524  2.2415
  578MOL0     H78002   6.335   0.935   6.754 -0.1798  1.6469  1.4725
  578MOL0     H78003   6.287   0.769   6.774 -1.3071  0.1957 -0.8954
  578MOL0     H78004   6.113   0.992   6.887 -2.1514 -0.1001  0.2944
  578MOL0     H78005   6.059   0.840   6.841 -0.6059 -0.5250 -0.9515
  578MOL0     H78006   6.120   1.077   6.653 -4.1671  0.7857  0.8966
  578MOL0     H78007   6.154   0.913   6.594 -1.1111 -0.4756 -0.7025
  578MOL0     H78008   5.918   0.863   6.650  1.0889 -0.0694 -1.7304
  578MOL0     H78009   5.930   0.997   6.541 -4.1431 -2.4321 -0.0869
  578MOL0     H78010   5.909   1.152   6.755  2.1297 -1.2343  0.4886
  578MOL0     H78011   5.838   1.018   6.834 -5.0478  2.1176 -0.7079
  578MOL0     H78012   6.598   1.253   6.877 -1.7111 -1.6070 -1.8718
  578MOL0     H78013   6.784   1.398   6.793 -3.3164  0.0322 -0.7927
  578MOL0     H78014   7.252   1.246   6.649  2.0275 -1.2958 -2.1348
  578MOL0     H78015   7.485   1.282   6.583 -0.1526  0.4444 -0.0763
  578MOL0     H78016   9.208   0.709   5.746 -1.0955 -0.2970  0.3467
  578MOL0     H78017   9.372   0.536   5.760  1.3435  0.3727  0.6220
  578MOL0     H78018   9.413   0.061   5.853 -0.8184  4.0929  1.2919
  578MOL0     H78019   9.554  -0.146   5.847 -1.5286  0.0056 -2.4935
  578MOL0     H78020   9.990  -0.214   5.860 -3.5982 -0.1723 -2.1279
  578MOL0     H78021   9.971  -0.052   5.914 -2.2711  0.8909  0.6115
  578MOL0     H78022   9.950  -0.162   6.153  0.8560 -0.2828  0.6716
  578MOL0     H78023  10.100  -0.149   6.065  0.4962 -0.7551  0.1360
  578MOL0     H78024   9.920  -0.396   6.019 -0.8297  1.5579  1.5372
  578MOL0     H78025   9.979  -0.368   6.177  1.0386 -1.3153  0.5972
  578MOL0     H78026  10.222  -0.366   6.091  0.0960 -2.3659  1.5982
  578MOL0     H78027  10.171  -0.398   5.928 -1.3208 -1.2675 -0.3949
  578MOL0     H78028  10.130  -0.784   6.063  1.1037 -0.2246  2.2036
  578MOL0     H78029   9.847   0.060   6.079 -1.3389  0.5450  1.5188
  578MOL0     H78030   9.709   0.254   6.109  2.0820 -2.1191  3.3699
  579MOL0     O78031   9.088  11.292   7.362 -0.0850  0.1352 -0.4662
  579MOL0     C78032   9.107  11.389   7.430 -0.0588  0.3183  0.1087
  579MOL0     O78033   9.018  11.497   7.446 -0.4454 -0.2795 -0.3423
  579MOL0     C78034   8.912  11.503   7.357 -0.1757  0.7233 -0.0395
  579MOL0     C78035   8.910  11.588   7.248 -0.1379 -0.2480 -0.0314
  579MOL0     C78036   8.796  11.592   7.163 -0.5551 -0.2143 -0.2116
  579MOL0     C78037   8.684  11.517   7.185 -0.1247  0.0592 -0.0644
  579MOL0     O78038   8.576  11.515   7.097 -0.0571  0.5174 -0.0133
  579MOL0     C78039   8.615  11.428   6.986  0.2281  0.3928 -0.2422
  579MOL0     C78040   8.489  11.365   6.922 -0.4788  0.6607  0.3017
  579MOL0     C78041   8.400  11.471   6.860 -0.7974 -0.1543 -0.6068
  579MOL0     C78042   8.275  11.406   6.805 -0.1730  0.7343  0.0883
  579MOL0     C78043   8.161  11.416   6.900 -0.1714 -0.3893  0.0314
  579MOL0     C78044   8.042  11.364   6.831 -0.4580  0.2278 -0.9570
  579MOL0     C78045   7.941  11.310   6.930 -0.0242 -0.0573  0.3767
  579MOL0     C78046   7.835  11.422   6.965 -0.8292 -0.0134  1.0168
  579MOL0     N78047   7.708  11.371   7.014  0.0879  0.1149  0.3269
  579MOL0     C78048   7.594  11.359   6.937 -1.4833  0.5450  0.9120
  579MOL0     C78049   7.501  11.315   7.027  0.4803 -0.8165  0.5036
  579MOL0     C78050   7.363  11.262   6.993  0.2692  0.0271  0.4024
  579MOL0     C78051   7.273  11.253   7.111 -0.6564  0.3728 -0.1080
  579MOL0     C78052   7.129  11.222   7.065 -0.8042 -0.0050 -0.3610
  579MOL0     C78053   7.024  11.249   7.169 -0.7983  0.2610 -0.2921
  579MOL0     O78054   6.909  11.172   7.139 -0.5200 -0.5891  0.6285
  579MOL0     C78055   6.786  11.189   7.204  0.9975  0.6634 -0.1052
  579MOL0     C78056   6.681  11.102   7.171  0.0372 -0.6676 -0.3743
  579MOL0     C78057   6.548  11.114   7.212 -0.1402 -0.8181 -0.2988
  579MOL0     C78058   6.449  11.022   7.154  0.6363  0.2355 -0.3209
  579MOL0     C78059   6.517  11.233   7.283 -0.7886 -0.0669 -0.3360
  579MOL0     C78060   6.384  11.263   7.314 -0.5441 -0.4907 -0.6069
  579MOL0     O78061   6.367  11.387   7.367  0.1604 -0.3522  0.1156
  579MOL0     C78062   6.240  11.437   7.398 -0.3752 -0.0048 -0.0341
  579MOL0     C78063   6.145  11.372   7.476 -0.1037  0.4134  0.5228
  579MOL0     C78064   6.014  11.437   7.502  0.2788  0.6358  0.3487
  579MOL0     C78065   5.981  11.563   7.450  0.1783  0.3874 -0.3714
  579MOL0     O78066   5.866  11.624   7.477 -1.0239 -0.0732  0.4561
  579MOL0     C78067   5.781  11.591   7.592 -0.7824 -0.2905 -0.4770
  579MOL0     C78068   5.655  11.671   7.586 -0.5577 -0.0023  1.2263
  579MOL0     C78069   5.559  11.622   7.692  0.2804 -0.0847 -0.3209
  579MOL0     C78070   5.432  11.713   7.688  0.5905 -0.8091 -0.4766
  579MOL0     C78071   5.331  11.667   7.800  0.5858 -0.2242 -0.1874
  579MOL0     C78072   5.355  11.719   7.940  0.2923 -0.1624  0.2697
  579MOL0     C78073   5.288  11.636   8.044  0.1934 -0.5899 -0.0088
  579MOL0     C78074   5.140  11.652   8.062 -0.1563 -0.4232 -0.0212
  579MOL0    Cl78075   5.054  11.591   7.923  0.5650  0.3614  0.4650
  579MOL0     C78076   6.077  11.617   7.360 -0.4418 -0.3732  0.2684
  579MOL0     C78077   6.199  11.550   7.327  0.0582 -0.4877  0.3068
  579MOL0     O78078   6.294  11.184   7.302 -0.1095  0.0123  0.0269
  579MOL0     C78079   6.619  11.317   7.319 -0.8758 -0.1402 -0.1398
  579MOL0     C78080   6.752  11.293   7.290  0.0426  0.6005  0.1672
  579MOL0     N78081   7.560  11.294   7.143 -0.2863 -0.3362 -0.7753
  579MOL0     N78082   7.682  11.321   7.138  0.1267 -0.2005 -0.3187
  579MOL0     C78083   8.684  11.420   7.290 -0.2956 -0.1450 -0.8562
  579MOL0     C78084   8.798  11.421   7.373  0.2862  0.0589  0.2618
  579MOL0     C78085   9.220  11.365   7.530  0.6410 -0.0677  0.4640
  579MOL0     C78086   9.334  11.291   7.496 -1.0064 -0.4312  0.2266
  579MOL0     C78087   9.433  11.271   7.594  0.7630 -0.3962 -0.5477
  579MOL0     C78088   9.424  11.319   7.725  0.3265  0.1985 -0.0733
  579MOL0     O78089   9.496  11.276   7.831  0.3243 -0.6732 -0.6028
  579MOL0     C78090   9.602  11.190   7.812 -0.4074 -1.3917  0.0407
  579MOL0     C78091   9.657  11.171   7.949 -0.8429 -0.4502  0.1200
  579MOL0     C78092   9.782  11.092   7.954 -0.0414  0.6822 -0.7500
  579MOL0     C78093   9.897  11.160   7.888 -0.0439  0.3244  0.2803
  579MOL0     C78094  10.020  11.085   7.924  0.6805 -0.3891 -0.4450
  579MOL0     C78095  10.112  11.017   7.955  0.3955  0.5028  0.6256
  579MOL0     C78096   9.308  11.379   7.758  0.7930 -0.0412 -0.0680
  579MOL0     C78097   9.206  11.410   7.665  0.0425 -0.0679 -0.1784
  579MOL0     H78098   8.998  11.651   7.240  0.9928 -1.7395  0.2049
  579MOL0     H78099   8.812  11.662   7.082  3.4509  1.8550  2.0848
  579MOL0     H78100   8.666  11.502   6.924  0.1665  1.6476  1.1480
  579MOL0     H78101   8.672  11.340   7.016  0.7205  0.0822 -1.9817
  579MOL0     H78102   8.526  11.303   6.840  1.7464 -1.6154  2.8569
  579MOL0     H78103   8.430  11.301   6.988  0.1083  1.7096  1.9180
  579MOL0     H78104   8.388  11.544   6.940  2.7858 -1.2926  1.1885
  579MOL0     H78105   8.451  11.521   6.777 -3.2681 -0.8391 -2.6807
  579MOL0     H78106   8.233  11.454   6.716 -1.3014 -2.4746 -1.2457
  579MOL0     H78107   8.303  11.302   6.786  2.1874  1.0898  1.2518
  579MOL0     H78108   8.187  11.365   6.993  0.0219  0.4362  0.4365
  579MOL0     H78109   8.143  11.519   6.934 -2.3349 -1.1896  1.5304
  579MOL0     H78110   8.001  11.437   6.761  0.6192  1.3422 -0.4570
  579MOL0     H78111   8.078  11.285   6.765 -1.0149 -0.5627 -0.3377
  579MOL0     H78112   7.885  11.230   6.880  0.9630 -1.3859  1.3337
  579MOL0     H78113   7.979  11.253   7.015 -0.9761 -3.0873 -1.0946
  579MOL0     H78114   7.818  11.475   6.871  2.8527  0.0828  0.2326
  579MOL0     H78115   7.870  11.499   7.034  3.3716  2.0444 -2.8355
  579MOL0     H78116   7.586  11.381   6.831  4.1578  0.7826  0.2114
  579MOL0     H78117   7.321  11.338   6.926  0.3662  2.7546  3.2121
  579MOL0     H78118   7.370  11.171   6.932  1.6290  0.5472 -0.2762
  579MOL0     H78119   7.282  11.350   7.160 -2.1454  1.4015 -1.7357
  579MOL0     H78120   7.302  11.179   7.186 -3.3242 -0.2038  0.4529
  579MOL0     H78121   7.120  11.120   7.025  1.5311  0.5782 -2.6401
  579MOL0     H78122   7.105  11.285   6.979  0.7633 -0.5170 -1.2203
  579MOL0     H78123   6.991  11.353   7.175 -0.3484  0.4687 -1.1838
  579MOL0     H78124   7.060  11.213   7.266 -0.4940 -1.9360 -1.1802
  579MOL0     H78125   6.697  11.030   7.091 -3.7986 -0.7173 -1.3232
  579MOL0     H78126   6.369  11.074   7.101  0.6998 -0.1674 -0.8096
  579MOL0     H78127   6.481  10.941   7.088  2.5854 -0.4080  1.3031
  579MOL0     H78128   6.400  10.978   7.241  3.0242  1.8592  2.0254
  579MOL0     H78129   6.169  11.277   7.523 -0.6328 -0.3467 -0.6999
  579MOL0     H78130   5.941  11.384   7.562 -0.7255  1.8637  0.2615
  579MOL0     H78131   5.757  11.484   7.597  0.0163 -0.5493 -1.8291
  579MOL0     H78132   5.826  11.604   7.691 -0.7233 -2.2479 -0.2152
  579MOL0     H78133   5.687  11.774   7.601 -0.2682  1.2205 -4.9251
  579MOL0     H78134   5.614  11.666   7.484  1.3421  1.0502  0.3521
  579MOL0     H78135   5.605  11.618   7.791 -1.1677  0.2092  0.3939
  579MOL0     H78136   5.524  11.523   7.658  0.3849 -0.0882 -0.4183
  579MOL0     H78137   5.465  11.817   7.686  1.0453 -0.9527 -1.2021
  579MOL0     H78138   5.383  11.699   7.591 -2.2462 -1.6859  0.9723
  579MOL0     H78139   5.317  11.559   7.809 -1.4513  0.1195  1.9744
  579MOL0     H78140   5.230  11.691   7.765  0.2563 -0.1175  0.7956
  579MOL0     H78141   5.460  11.707   7.968 -0.3308  0.2378  3.0452
  579MOL0     H78142   5.315  11.821   7.941 -1.6764 -0.8604 -1.2655
  579MOL0     H78143   5.327  11.667   8.142 -0.5102 -0.9531  0.3927
  579MOL0     H78144   5.312  11.530   8.030  0.7837 -0.8185  2.3041
  579MOL0     H78145   5.101  11.755   8.064  0.8179 -0.0470  0.3094
  579MOL0     H78146   5.111  11.606   8.157 -1.0106 -2.4111 -1.2018
  579MOL0     H78147   6.044  11.712   7.321  1.5643  1.5235  2.8437
  579MOL0     H78148   6.270  11.605   7.266 -2.0327  1.4599 -0.5245
  579MOL0     H78149   6.602  11.410   7.372  2.3584 -0.7706  2.3885
  579MOL0     H78150   6.821  11.367   7.330 -0.6303  2.1459 -1.3835
  579MOL0     H78151   8.600  11.358   7.318 -0.6851  0.7874  0.1097
  579MOL0     H78152   8.806  11.348   7.453  1.8022  0.2863  0.3548
  579MOL0     H78153   9.349  11.255   7.395 -0.7094  2.3825 -0.8308
  579MOL0     H78154   9.512  11.205   7.559  1.2339  1.8161 -4.1812
  579MOL0     H78155   9.574  11.089   7.780 -1.0357 -1.1599 -0.1513
  579MOL0     H78156   9.685  11.226   7.751 -0.3251 -0.3732  0.7280
  579MOL0     H78157   9.576  11.123   8.004 -3.3035  3.5095  0.3554
  579MOL0     H78158   9.678  11.269   7.991 -0.0344  0.9715 -3.2533
  579MOL0     H78159   9.757  11.003   7.896 -2.2438  0.6314  0.1875
  579MOL0     H78160   9.793  11.070   8.061 -0.4155  1.6886 -0.4937
  579MOL0     H78161   9.910  11.264   7.921  2.5006  0.7175 -1.6555
  579MOL0     H78162   9.882  11.165   7.780  0.7577  2.7430  0.2300
  579MOL0     H78163  10.193  10.950   7.976  1.3415  1.2069 -0.6144
  579MOL0     H78164   9.286  11.406   7.861 -2.2977  1.1623 -0.9289
  579MOL0     H78165   9.124  11.472   7.701  2.0247  2.1673  0.7783
  580MOL0     O78166   6.366  11.354   3.230  0.0687 -0.6175  1.2484
  580MOL0     C78167   6.469  11.411   3.260 -0.5503  0.1682  0.0136
  580MOL0     O78168   6.488  11.548   3.284  0.4319 -0.4277 -0.7352
  580MOL0     C78169   6.380  11.625   3.250  0.5934  1.4692 -0.0117
  580MOL0     C78170   6.287  11.667   3.339 -0.1167 -0.2869 -0.1583
  580MOL0     C78171   6.190  11.768   3.306  0.5102  0.7413  0.0345
  580MOL0     C78172   6.176  11.819   3.172 -0.3135 -0.0175 -0.1074
  580MOL0     O78173   6.111  11.939   3.137  0.4226  0.8809  1.4287
  580MOL0     C78174   6.049  12.019   3.228 -0.8088 -0.4855  0.3934
  580MOL0     C78175   5.911  11.988   3.278 -0.6635  0.3623 -0.4431
  580MOL0     C78176   5.825  11.972   3.152  0.2884 -0.3346 -0.3213
  580MOL0     C78177   5.673  11.990   3.183 -0.0003 -0.2081  0.9687
  580MOL0     C78178   5.579  11.985   3.060  0.0745  0.4011 -0.1253
  580MOL0     C78179   5.583  11.844   3.001 -0.1544  0.4808  0.0784
  580MOL0     C78180   5.447  11.829   2.927 -0.9844 -0.3355 -0.6710
  580MOL0     C78181   5.429  11.692   2.852  0.2456  0.5423 -0.2236
  580MOL0     N78182   5.319  11.704   2.758 -0.5447  0.4688  0.5347
  580MOL0     C78183   5.188  11.728   2.774  0.3694  0.5642 -0.7383
  580MOL0     C78184   5.135  11.748   2.651 -0.5329  0.1766  0.7222
  580MOL0     C78185   5.000  11.794   2.611 -0.6914  0.6150 -0.5143
  580MOL0     C78186   4.914  11.852   2.727  0.0114 -0.2379 -0.7047
  580MOL0     C78187   4.763  11.824   2.712 -0.6897  0.5584  0.7970
  580MOL0     C78188   4.687  11.898   2.825  0.5860  0.2400  0.2080
  580MOL0     O78189   4.547  11.872   2.811  0.0240  0.8223 -0.0051
  580MOL0     C78190   4.463  11.965   2.758 -0.6158 -0.0440 -0.3163
  580MOL0     C78191   4.324  11.950   2.772  0.5328 -0.1226 -0.3110
  580MOL0     C78192   4.235  12.022   2.695  0.1197  0.1712 -0.6034
  580MOL0     C78193   4.095  12.000   2.735 -0.6628 -1.2630  0.0359
  580MOL0     C78194   4.274  12.133   2.623  0.3170 -0.3267 -0.5376
  580MOL0     C78195   4.172  12.197   2.537 -0.5677 -0.8534 -0.4818
  580MOL0     O78196   4.107  12.309   2.589  1.1819  0.1839 -0.3698
  580MOL0     C78197   3.999  12.368   2.517 -0.9297 -0.1977  0.0543
  580MOL0     C78198   3.940  12.329   2.392 -0.3206 -0.0861  0.6659
  580MOL0     C78199   3.843  12.408   2.329 -0.1577  0.4557  0.5873
  580MOL0     C78200   3.795  12.526   2.381 -0.2891  0.3007  0.0290
  580MOL0     O78201   3.692  12.589   2.317 -0.2376  0.0248 -0.1198
  580MOL0     C78202   3.658  12.723   2.367  0.0685 -0.9459  0.4011
  580MOL0     C78203   3.543  12.778   2.274  0.1969 -0.0711 -0.0866
  580MOL0     C78204   3.509  12.925   2.313  0.6654 -0.0956  0.2963
  580MOL0     C78205   3.458  12.935   2.455  0.6785 -0.1390 -0.8051
  580MOL0     C78206   3.395  13.073   2.500 -0.8007  0.7118  0.3478
  580MOL0     C78207   3.274  13.130   2.419 -0.5859  0.9201  0.7643
  580MOL0     C78208   3.144  13.085   2.476  0.4970  0.6961  0.2487
  580MOL0     C78209   3.033  13.156   2.383 -0.2410  0.2319 -0.4290
  580MOL0    Cl78210   2.867  13.083   2.414 -0.5245 -0.7196  0.2062
  580MOL0     C78211   3.842  12.562   2.511  0.0205 -0.7236  0.1305
  580MOL0     C78212   3.945  12.487   2.577  0.2506 -0.3951  0.1781
  580MOL0     O78213   4.151  12.131   2.438  0.2786  0.2998 -0.2390
  580MOL0     C78214   4.409  12.159   2.620  0.1950 -0.0291  0.4913
  580MOL0     C78215   4.503  12.075   2.674  0.9883 -0.1952  1.0442
  580MOL0     N78216   5.230  11.719   2.551  0.6552  0.0726 -0.7526
  580MOL0     N78217   5.337  11.698   2.618 -0.6536  0.0424 -0.0605
  580MOL0     C78218   6.266  11.761   3.080 -0.2244 -0.0552 -0.2044
  580MOL0     C78219   6.362  11.665   3.116 -0.1237 -0.4279  0.8160
  580MOL0     C78220   6.592  11.332   3.294  0.0845  0.9472 -0.0882
  580MOL0     C78221   6.716  11.392   3.317 -0.1474  0.9099 -0.5333
  580MOL0     C78222   6.829  11.306   3.341 -0.5832  0.1666  0.2418
  580MOL0     C78223   6.814  11.161   3.369 -0.2068  0.2290  0.7809
  580MOL0     O78224   6.918  11.078   3.386  0.1376 -0.1847 -0.0730
  580MOL0     C78225   7.041  11.127   3.438 -0.1233 -0.0984  0.5748
  580MOL0     C78226   7.137  11.004   3.464  0.1075 -0.2709  0.0543
  580MOL0     C78227   7.270  11.043   3.513  0.3214  0.1540  0.3389
  580MOL0     C78228   7.369  10.923   3.527  0.4811  0.1771 -0.0213
  580MOL0     C78229   7.369  10.822   3.418  0.3652 -0.3005 -1.0346
  580MOL0     C78230   7.352  10.740   3.337  0.0792  0.1128  0.0534
  580MOL0     C78231   6.686  11.102   3.358  0.1436  0.0894 -0.7898
  580MOL0     C78232   6.579  11.190   3.328  0.2910 -0.7911 -0.6912
  580MOL0     H78233   6.299  11.636   3.442 -1.4991 -1.3564 -0.2854
  580MOL0     H78234   6.130  11.811   3.385  1.0455 -1.0231  1.4546
  580MOL0     H78235   6.109  12.041   3.317 -2.0611  1.1725  0.8760
  580MOL0     H78236   6.036  12.118   3.184 -0.2634 -1.0298 -1.0629
  580MOL0     H78237   5.908  11.906   3.350  3.6250  0.1004 -0.3120
  580MOL0     H78238   5.883  12.071   3.345 -0.0795  0.0461  0.2048
  580MOL0     H78239   5.850  12.037   3.068 -0.6121 -0.9483 -1.0788
  580MOL0     H78240   5.846  11.873   3.109  0.3623  0.8319 -3.1736
  580MOL0     H78241   5.648  11.912   3.255  1.0554  0.7600  2.4405
  580MOL0     H78242   5.648  12.089   3.223 -1.9343 -0.2547  0.0085
  580MOL0     H78243   5.476  12.004   3.091 -1.0640 -0.6631 -2.8799
  580MOL0     H78244   5.603  12.056   2.980  0.5134 -1.8069 -2.0905
  580MOL0     H78245   5.667  11.834   2.931  0.5016  2.0963  0.5980
  580MOL0     H78246   5.602  11.770   3.080  3.5140  1.4922  0.3240
  580MOL0     H78247   5.365  11.861   2.992  1.6059  4.0085  0.8888
  580MOL0     H78248   5.443  11.915   2.859 -2.1490  0.4826  0.3895
  580MOL0     H78249   5.411  11.609   2.921  1.1126  2.3682  2.4014
  580MOL0     H78250   5.517  11.667   2.792  0.0125  0.8937 -0.7135
  580MOL0     H78251   5.138  11.728   2.871  0.7770 -0.1650 -0.5186
  580MOL0     H78252   5.005  11.877   2.540 -2.0283  2.0769  1.0170
  580MOL0     H78253   4.949  11.710   2.562 -0.8327  0.5583 -0.2704
  580MOL0     H78254   4.942  11.957   2.729  1.8035 -0.6651 -1.5704
  580MOL0     H78255   4.945  11.802   2.819 -0.1746  1.3212  0.2412
  580MOL0     H78256   4.749  11.717   2.728  1.8207 -0.2423 -1.6657
  580MOL0     H78257   4.724  11.861   2.617 -2.2364  1.9590  1.8914
  580MOL0     H78258   4.706  12.005   2.806 -0.9991  0.5666  0.3722
  580MOL0     H78259   4.724  11.861   2.920 -0.3008 -1.3361 -0.0253
  580MOL0     H78260   4.277  11.882   2.843 -0.9169 -0.0256 -1.1371
  580MOL0     H78261   4.072  11.896   2.760 -0.8099 -1.1218  0.4985
  580MOL0     H78262   4.077  12.056   2.827  1.3295 -1.9398  0.8868
  580MOL0     H78263   4.020  12.037   2.664  1.8462  0.1866 -2.0686
  580MOL0     H78264   3.977  12.231   2.362  2.8743  0.7908  1.4019
  580MOL0     H78265   3.793  12.369   2.241 -2.0020  0.3982  1.6204
  580MOL0     H78266   3.627  12.717   2.472 -1.5450 -2.1597 -0.1064
  580MOL0     H78267   3.744  12.790   2.367  0.9229 -1.9492  2.4031
  580MOL0     H78268   3.575  12.782   2.169 -3.6558 -0.3003 -1.4384
  580MOL0     H78269   3.453  12.716   2.284 -0.5348  1.2247  1.9175
  580MOL0     H78270   3.440  12.962   2.237  1.6651  3.3177  0.8858
  580MOL0     H78271   3.595  12.991   2.300  0.5685  0.5020  2.3422
  580MOL0     H78272   3.380  12.859   2.467  0.9077 -0.2835 -0.1609
  580MOL0     H78273   3.540  12.911   2.524  0.8921 -1.5989 -1.5417
  580MOL0     H78274   3.478  13.142   2.485  0.7426 -1.0706  0.2932
  580MOL0     H78275   3.373  13.064   2.607  0.7535  0.8269  0.6931
  580MOL0     H78276   3.285  13.238   2.427 -0.3781  0.9093  0.6385
  580MOL0     H78277   3.280  13.098   2.315 -1.3937 -2.2413  1.5645
  580MOL0     H78278   3.131  13.110   2.581 -4.0613 -1.1309  0.3854
  580MOL0     H78279   3.140  12.975   2.473  2.0996  0.5076  2.5788
  580MOL0     H78280   3.052  13.134   2.278  1.4684  2.4646 -0.6567
  580MOL0     H78281   3.040  13.265   2.392  2.1111  0.2634 -1.9439
  580MOL0     H78282   3.803  12.644   2.571 -0.1323 -1.2440  0.7580
  580MOL0     H78283   3.971  12.507   2.681 -2.5782  0.7539  0.7713
  580MOL0     H78284   4.452  12.245   2.569 -1.1635 -0.2259 -1.0577
  580MOL0     H78285   4.603  12.099   2.639  0.6413 -0.7117 -0.3817
  580MOL0     H78286   6.279  11.807   2.982  2.6540 -0.8415 -0.2909
  580MOL0     H78287   6.428  11.627   3.038 -0.9123  1.6196 -0.9529
  580MOL0     H78288   6.726  11.499   3.303 -0.3124  1.3824  2.4552
  580MOL0     H78289   6.921  11.362   3.348  0.4405 -1.3707 -0.4483
  580MOL0     H78290   7.090  11.201   3.374 -1.1672  1.1136  1.1402
  580MOL0     H78291   7.025  11.184   3.530  2.5016  0.8631  0.5172
  580MOL0     H78292   7.141  10.939   3.376 -2.6365  4.6455 -4.3279
  580MOL0     H78293   7.094  10.945   3.546  1.0327 -0.0032  0.7495
  580MOL0     H78294   7.270  11.085   3.614  0.6506 -0.8164  0.7534
  580MOL0     H78295   7.311  11.125   3.454 -0.5483 -0.2542 -0.8680
  580MOL0     H78296   7.344  10.883   3.626 -0.7888 -0.3690 -0.5382
  580MOL0     H78297   7.471  10.963   3.531  0.4600  0.1648  2.6374
  580MOL0     H78298   7.358  10.668   3.258  2.9657 -2.5708  2.4714
  580MOL0     H78299   6.653  11.000   3.377 -0.0729  0.5899  1.9961
  580MOL0     H78300   6.477  11.154   3.317 -0.3886  1.1019 -0.8878
  581MOL0     O78301  10.590   5.768  10.071  0.1456  0.4860  0.4681
  581MOL0     C78302  10.551   5.662  10.015  0.5565 -0.1380 -0.2571
  581MOL0     O78303  10.463   5.662   9.905 -0.1207  0.4342  1.3280
  581MOL0     C78304  10.409   5.777   9.865 -0.1596 -0.4753 -0.3632
  581MOL0     C78305  10.406   5.802   9.727 -0.0696 -0.3570 -0.1531
  581MOL0     C78306  10.361   5.924   9.675 -0.0055 -0.0809 -0.2404
  581MOL0     C78307  10.307   6.018   9.770 -0.4471  0.3456  1.4050
  581MOL0     O78308  10.256   6.129   9.730  0.2159  0.6513  0.4617
  581MOL0     C78309  10.274   6.176   9.592  0.5420  0.8042 -0.3101
  581MOL0     C78310  10.225   6.316   9.586  0.1384  0.2717 -0.1887
  581MOL0     C78311  10.310   6.408   9.666  0.3269  0.4977 -0.5415
  581MOL0     C78312  10.261   6.547   9.637 -1.2473  0.1110 -0.4584
  581MOL0     C78313  10.361   6.653   9.688  0.1378 -0.0684 -0.0442
  581MOL0     C78314  10.348   6.651   9.843  0.5604  0.4634  0.5720
  581MOL0     C78315  10.431   6.763   9.902 -0.2824  0.3137  0.0397
  581MOL0     C78316  10.365   6.901   9.890 -1.0389 -0.3277  0.2540
  581MOL0     N78317  10.222   6.906   9.942  0.3780 -0.6895 -0.1275
  581MOL0     C78318  10.121   6.959   9.864  0.0946 -0.6977 -0.3230
  581MOL0     C78319  10.017   6.957   9.952  1.5189 -0.4298 -0.3786
  581MOL0     C78320   9.889   7.019   9.926  0.4867  0.0471  0.1009
  581MOL0     C78321   9.790   6.916   9.864 -0.2324  0.0971  0.4734
  581MOL0     C78322   9.837   6.873   9.728 -0.0781  0.6656 -0.5097
  581MOL0     C78323   9.733   6.808   9.643  0.0082 -0.6004  0.4046
  581MOL0     O78324   9.648   6.916   9.596  0.5172  0.0160 -0.4626
  581MOL0     C78325   9.513   6.876   9.606  0.3990 -0.2887  0.5923
  581MOL0     C78326   9.428   6.929   9.513  0.4098 -0.5959 -0.9378
  581MOL0     C78327   9.298   6.890   9.509  0.4337 -0.0196 -0.0982
  581MOL0     C78328   9.218   6.927   9.390  0.4265  0.6454 -1.3821
  581MOL0     C78329   9.242   6.796   9.600 -0.2443 -0.3572 -0.5684
  581MOL0     C78330   9.105   6.748   9.590 -0.7427 -0.1932  0.5246
  581MOL0     O78331   9.088   6.647   9.492  0.4372 -0.0844  0.5727
  581MOL0     C78332   8.973   6.636   9.428  0.4227 -0.2189  0.1734
  581MOL0     C78333   8.940   6.505   9.379  0.3429  0.7097  0.3695
  581MOL0     C78334   8.819   6.488   9.300  0.7320 -0.2036  0.1091
  581MOL0     C78335   8.734   6.599   9.268 -0.5847  0.1939 -0.6676
  581MOL0     O78336   8.630   6.583   9.181  0.5034 -0.5606  0.2366
  581MOL0     C78337   8.556   6.458   9.189  0.4152 -1.2286 -0.7612
  581MOL0     C78338   8.434   6.468   9.278 -0.4771 -1.0633 -0.2349
  581MOL0     C78339   8.289   6.442   9.228 -0.5057  0.0850 -0.4059
  581MOL0     C78340   8.237   6.577   9.178  0.5370  0.7491 -0.4296
  581MOL0     C78341   8.120   6.553   9.078 -0.1295  0.1729 -0.6743
  581MOL0     C78342   8.062   6.683   9.026  0.8956  0.9395 -0.0331
  581MOL0     C78343   7.972   6.656   8.902  0.0793 -0.0859  0.3735
  581MOL0     C78344   7.884   6.778   8.863 -0.3618 -0.7370  0.5065
  581MOL0    Cl78345   7.796   6.740   8.715  0.3305 -0.1364  0.1563
  581MOL0     C78346   8.767   6.722   9.314 -0.1701 -0.5387 -0.0521
  581MOL0     C78347   8.884   6.745   9.393 -0.2971  0.1787  0.0313
  581MOL0     O78348   9.022   6.820   9.640 -0.0400  0.1538 -0.0097
  581MOL0     C78349   9.318   6.772   9.716 -0.2877 -0.1521  0.5111
  581MOL0     C78350   9.451   6.823   9.719  0.6593  0.0302 -0.2337
  581MOL0     N78351  10.064   6.895  10.068 -0.3738 -0.2233 -0.6056
  581MOL0     N78352  10.184   6.863  10.069 -0.0325 -0.3293  0.0470
  581MOL0     C78353  10.292   5.990   9.904  0.6358 -0.1138 -0.6289
  581MOL0     C78354  10.351   5.871   9.948 -0.2058 -0.1740 -0.6182
  581MOL0     C78355  10.574   5.536  10.088  0.2140  0.1218  0.1226
  581MOL0     C78356  10.634   5.537  10.219 -0.1697 -0.2316  0.5119
  581MOL0     C78357  10.659   5.415  10.284  0.9685  0.1451  0.6547
  581MOL0     C78358  10.620   5.292  10.230 -0.3721  0.1814 -0.6674
  581MOL0     O78359  10.655   5.166  10.282  0.6237 -0.1454  0.2235
  581MOL0     C78360  10.682   5.142  10.423  0.5283 -0.1263  0.0986
  581MOL0     C78361  10.706   4.998  10.471 -0.0429  0.5116  0.4904
  581MOL0     C78362  10.827   4.942  10.411 -0.4487  0.1926 -0.3994
  581MOL0     C78363  10.947   5.026  10.450 -0.2920  0.4402 -0.4007
  581MOL0     C78364  11.075   4.951  10.437  0.2009 -0.0392 -0.0653
  581MOL0     C78365  11.178   4.889  10.426 -0.3027  0.6336 -0.6884
  581MOL0     C78366  10.559   5.290  10.101 -0.1983 -0.8342  0.2199
  581MOL0     C78367  10.541   5.413  10.030 -0.3699  0.5489 -0.6464
  581MOL0     H78368  10.458   5.736   9.658  0.2935 -0.2684  0.0390
  581MOL0     H78369  10.356   5.934   9.567 -0.0771 -1.4255 -0.3810
  581MOL0     H78370  10.377   6.173   9.554  2.8588  2.9297  4.9031
  581MOL0     H78371  10.216   6.120   9.517 -1.2386  2.2412 -0.0927
  581MOL0     H78372  10.239   6.338   9.480  0.9506 -0.3367 -0.2152
  581MOL0     H78373  10.118   6.322   9.607  0.0651 -1.3068  0.0166
  581MOL0     H78374  10.311   6.387   9.774 -0.6677  3.3772  0.1178
  581MOL0     H78375  10.415   6.394   9.637  0.6529  0.9899  0.3606
  581MOL0     H78376  10.265   6.563   9.528 -0.0207 -2.4352 -0.8614
  581MOL0     H78377  10.161   6.567   9.675 -0.8936 -0.0723  0.5939
  581MOL0     H78378  10.465   6.634   9.659  0.4006 -0.6164  1.1680
  581MOL0     H78379  10.329   6.746   9.640 -1.5646 -0.3355  0.5135
  581MOL0     H78380  10.244   6.673   9.864 -0.2486  0.4205 -2.7723
  581MOL0     H78381  10.378   6.551   9.878  1.2726  0.0902 -0.9567
  581MOL0     H78382  10.448   6.739  10.007  0.6849 -0.9589 -0.3770
  581MOL0     H78383  10.528   6.755   9.852  0.9696 -1.9154  2.5802
  581MOL0     H78384  10.367   6.929   9.784  2.6190 -1.0705  0.0073
  581MOL0     H78385  10.436   6.968   9.939  0.3581 -2.1730  0.8905
  581MOL0     H78386  10.137   7.010   9.770  0.8778 -2.3385 -1.1254
  581MOL0     H78387   9.845   7.056  10.019  1.3644  1.6807 -0.0894
  581MOL0     H78388   9.908   7.109   9.866 -1.4291 -0.0203 -0.6864
  581MOL0     H78389   9.690   6.960   9.858 -0.3352  0.0202  1.5480
  581MOL0     H78390   9.789   6.828   9.929 -0.3359 -1.2741 -1.2807
  581MOL0     H78391   9.922   6.807   9.746  0.2780  1.5404  1.2191
  581MOL0     H78392   9.866   6.955   9.662  0.4565  1.0673  0.2141
  581MOL0     H78393   9.685   6.726   9.698  3.6461 -1.8674  2.0256
  581MOL0     H78394   9.778   6.770   9.551 -0.1029 -0.5580  0.3328
  581MOL0     H78395   9.470   6.992   9.435  0.4170  1.2666  0.5031
  581MOL0     H78396   9.118   6.953   9.426  1.5687  1.1336  1.7127
  581MOL0     H78397   9.267   7.021   9.364  3.8591  0.6966  3.8200
  581MOL0     H78398   9.219   6.839   9.325  1.9482 -1.4875  1.3086
  581MOL0     H78399   8.994   6.417   9.410 -1.5829 -1.4114 -1.9200
  581MOL0     H78400   8.793   6.389   9.264  0.7065 -0.7086  1.4284
  581MOL0     H78401   8.523   6.438   9.086 -1.1031  3.6621 -1.4405
  581MOL0     H78402   8.614   6.374   9.229 -1.9412 -2.3258  0.5485
  581MOL0     H78403   8.455   6.408   9.367 -0.7215 -0.3419  0.3182
  581MOL0     H78404   8.436   6.566   9.328  3.5687 -0.2430 -1.6076
  581MOL0     H78405   8.224   6.408   9.309  1.0372  3.1267  2.3579
  581MOL0     H78406   8.291   6.361   9.155  1.9077 -0.8199  0.5741
  581MOL0     H78407   8.204   6.640   9.261  2.7270  1.8817 -0.3447
  581MOL0     H78408   8.320   6.613   9.117  1.2645 -2.3317 -1.4438
  581MOL0     H78409   8.048   6.494   9.135 -1.2019  1.4157 -0.6835
  581MOL0     H78410   8.155   6.506   8.986 -4.0687  1.6203 -3.1699
  581MOL0     H78411   8.012   6.735   9.109  1.6948  1.5055  0.0982
  581MOL0     H78412   8.138   6.753   8.989 -0.0034  1.2946 -1.2841
  581MOL0     H78413   7.902   6.574   8.918 -0.6770  0.4647 -0.0348
  581MOL0     H78414   8.026   6.625   8.811 -1.5551 -2.3023  0.0847
  581MOL0     H78415   7.943   6.869   8.849 -0.9255 -0.6938 -2.2154
  581MOL0     H78416   7.808   6.784   8.941 -1.0273 -1.2667 -0.0759
  581MOL0     H78417   8.702   6.808   9.298  0.8533  0.7353  2.1035
  581MOL0     H78418   8.912   6.847   9.417  1.1673  0.2817 -1.8873
  581MOL0     H78419   9.277   6.723   9.804 -0.2737 -1.2753 -0.0854
  581MOL0     H78420   9.508   6.808   9.810 -2.4295  0.9948  2.0439
  581MOL0     H78421  10.249   6.063   9.972 -0.0548  0.9965 -2.2075
  581MOL0     H78422  10.340   5.856  10.055 -0.0944  1.1650 -0.4018
  581MOL0     H78423  10.651   5.634  10.264 -1.1148  0.1715  0.0411
  581MOL0     H78424  10.706   5.418  10.382  0.4520 -2.8732  1.0910
  581MOL0     H78425  10.765   5.208  10.451  0.0227 -0.3597  2.3145
  581MOL0     H78426  10.591   5.155  10.482  1.3159 -2.2221  1.9066
  581MOL0     H78427  10.627   4.924  10.452  0.7900 -0.0734 -0.8693
  581MOL0     H78428  10.709   4.995  10.580  3.1851  1.5949  0.5374
  581MOL0     H78429  10.822   4.933  10.302 -0.7986 -1.2872 -0.2860
  581MOL0     H78430  10.835   4.838  10.445 -0.6319  0.3208  0.0485
  581MOL0     H78431  10.939   5.060  10.554  1.0936  1.7565 -0.6827
  581MOL0     H78432  10.951   5.113  10.384 -2.5109  2.0384  1.3954
  581MOL0     H78433  11.266   4.830  10.433 -0.2497  0.8145  0.2765
  581MOL0     H78434  10.534   5.195  10.056 -1.1805  0.1870 -1.5348
  581MOL0     H78435  10.493   5.408   9.933  0.1527 -0.5380 -0.8533
  582MOL0     O78436   1.225  10.623   0.400  0.0591  0.2543  0.1963
  582MOL0     C78437   1.314  10.540   0.428 -0.5773 -0.1587 -0.6341
  582MOL0     O78438   1.289  10.418   0.469 -0.1394 -0.5893 -0.3096
  582MOL0     C78439   1.160  10.378   0.500 -1.0970 -0.4810  0.0285
  582MOL0     C78440   1.138  10.328   0.625  0.4284 -0.0993  0.1477
  582MOL0     C78441   1.018  10.269   0.666 -0.4525  0.2440  0.1574
  582MOL0     C78442   0.910  10.265   0.576  1.0363  0.0973 -0.3967
  582MOL0     O78443   0.795  10.200   0.611  0.5031 -0.4749  0.5946
  582MOL0     C78444   0.716  10.143   0.509  0.0231  0.9329 -0.0329
  582MOL0     C78445   0.679   9.998   0.541 -0.0864 -0.1787 -0.0515
  582MOL0     C78446   0.587   9.949   0.426 -0.7502  0.1232  0.3452
  582MOL0     C78447   0.508   9.826   0.474  0.2255  0.6662  0.4573
  582MOL0     C78448   0.395   9.787   0.380 -0.4236 -0.2365 -0.5943
  582MOL0     C78449   0.450   9.774   0.233  0.3398  0.2074 -0.4118
  582MOL0     C78450   0.546   9.661   0.219 -0.3682  1.1296 -0.4055
  582MOL0     C78451   0.564   9.619   0.070 -1.1602  0.4203 -0.4969
  582MOL0     N78452   0.555   9.475   0.046 -0.8027 -0.3045  0.9327
  582MOL0     C78453   0.516   9.434  -0.082  0.3047  0.2710 -0.5102
  582MOL0     C78454   0.537   9.292  -0.073  0.1252 -0.3557  0.0452
  582MOL0     C78455   0.538   9.188  -0.198  0.1374 -1.0470  0.1635
  582MOL0     C78456   0.402   9.161  -0.260  0.1497 -0.2099  0.9986
  582MOL0     C78457   0.390   9.219  -0.396  0.6062 -0.5322 -0.6876
  582MOL0     C78458   0.367   9.369  -0.400 -0.3399  0.4472 -0.2274
  582MOL0     O78459   0.266   9.402  -0.313  0.7193  0.5408  0.2056
  582MOL0     C78460   0.186   9.509  -0.343 -0.2392  0.0682  0.0256
  582MOL0     C78461   0.060   9.511  -0.293 -0.3329 -0.5079  0.2004
  582MOL0     C78462  -0.031   9.613  -0.324  0.5334  0.2773 -0.4508
  582MOL0     C78463  -0.166   9.632  -0.253  0.7723 -0.4201  0.6960
  582MOL0     C78464   0.010   9.708  -0.415  0.5779  0.4469 -0.2724
  582MOL0     C78465  -0.078   9.829  -0.448  0.1697  0.3022 -0.0805
  582MOL0     O78466  -0.143   9.820  -0.569  0.9003 -0.3743 -0.6104
  582MOL0     C78467  -0.238   9.909  -0.608  0.2011 -0.3178  0.5978
  582MOL0     C78468  -0.241   9.937  -0.742  0.2052 -0.4795 -0.0223
  582MOL0     C78469  -0.346  10.000  -0.794  0.5362 -0.4624  0.1776
  582MOL0     C78470  -0.444  10.060  -0.717  0.8847 -0.4370  0.0696
  582MOL0     O78471  -0.548  10.117  -0.786  0.1996  0.2472 -0.3886
  582MOL0     C78472  -0.657  10.173  -0.713  0.1407 -0.8560 -1.0890
  582MOL0     C78473  -0.717  10.290  -0.799  0.5581 -0.1285  0.3393
  582MOL0     C78474  -0.777  10.248  -0.931  0.6718  0.0196  0.3504
  582MOL0     C78475  -0.874  10.350  -0.991  0.7293  0.0966 -0.3320
  582MOL0     C78476  -0.807  10.489  -1.017 -1.0813 -0.2443  0.4215
  582MOL0     C78477  -0.900  10.595  -1.072  0.4606  0.3159 -0.6072
  582MOL0     C78478  -0.956  10.555  -1.210  0.2793  1.1106  0.0846
  582MOL0     C78479  -1.015  10.681  -1.268  0.1278  0.6668  0.6120
  582MOL0    Cl78480  -1.114  10.622  -1.405 -0.3614 -0.4690  0.0391
  582MOL0     C78481  -0.437  10.037  -0.573  0.9300  0.2721  0.0727
  582MOL0     C78482  -0.338   9.960  -0.525 -0.5420 -0.4589 -0.1503
  582MOL0     O78483  -0.063   9.930  -0.381  0.4127 -0.7192  0.0433
  582MOL0     C78484   0.138   9.697  -0.467 -1.0405 -0.2030  0.8593
  582MOL0     C78485   0.233   9.605  -0.423  0.5280  0.0924  0.5841
  582MOL0     N78486   0.585   9.266   0.048 -0.5543  0.3045 -0.1492
  582MOL0     N78487   0.592   9.370   0.123  1.1246  0.6704  0.4341
  582MOL0     C78488   0.920  10.337   0.453  0.1626  0.1188 -0.2111
  582MOL0     C78489   1.048  10.383   0.412 -1.0916  0.2844  0.5871
  582MOL0     C78490   1.461  10.588   0.425  0.3663  0.3352  0.5876
  582MOL0     C78491   1.559  10.499   0.468  0.2966  0.5748 -0.3830
  582MOL0     C78492   1.692  10.525   0.443  0.3402  0.4479 -0.4337
  582MOL0     C78493   1.738  10.647   0.390  0.2064 -0.4864  0.0978
  582MOL0     O78494   1.875  10.669   0.386  0.1246 -0.1707  0.3835
  582MOL0     C78495   1.920  10.788   0.338  0.5909 -0.7472  0.8933
  582MOL0     C78496   2.072  10.805   0.371 -0.7792  0.5664 -0.1842
  582MOL0     C78497   2.161  10.892   0.269 -0.4999 -0.1118 -0.4638
  582MOL0     C78498   2.146  11.042   0.265 -0.7103  0.1062  0.1042
  582MOL0     C78499   2.240  11.106   0.174  0.3026  0.1040  0.3262
  582MOL0     C78500   2.327  11.145   0.100  1.2015 -0.0268  0.3837
  582MOL0     C78501   1.639  10.737   0.351  0.8010 -0.3180  0.0293
  582MOL0     C78502   1.502  10.713   0.372 -0.3699  0.2328  0.5130
  582MOL0     H78503   1.226  10.326   0.688 -0.1016 -0.3469  0.8950
  582MOL0     H78504   1.007  10.208   0.756  0.9448 -0.2618  0.0169
  582MOL0     H78505   0.629  10.209   0.502 -0.6625 -0.0278 -0.9341
  582MOL0     H78506   0.771  10.143   0.414 -2.6752  1.6267 -1.7106
  582MOL0     H78507   0.772   9.941   0.548  0.9319  1.4397  0.0437
  582MOL0     H78508   0.636  10.002   0.642  1.6731  2.6685  0.7049
  582MOL0     H78509   0.525  10.031   0.389 -1.6392 -0.5883  0.2224
  582MOL0     H78510   0.641   9.914   0.338 -2.4109  0.4307 -0.8512
  582MOL0     H78511   0.578   9.742   0.479 -0.3932  0.1959  1.5540
  582MOL0     H78512   0.459   9.850   0.569 -1.3720 -0.5838 -0.0220
  582MOL0     H78513   0.347   9.694   0.411  1.3040 -1.4443 -1.3864
  582MOL0     H78514   0.332   9.876   0.381  2.5710  2.0534  0.4873
  582MOL0     H78515   0.366   9.746   0.169  3.0667 -0.9234 -3.7996
  582MOL0     H78516   0.498   9.865   0.194  0.3831  0.3407 -0.0547
  582MOL0     H78517   0.641   9.690   0.264  0.0033  0.4247 -0.7215
  582MOL0     H78518   0.509   9.584   0.287 -1.6129  3.4449  1.6879
  582MOL0     H78519   0.657   9.647   0.020 -2.1802  0.8105 -2.2554
  582MOL0     H78520   0.491   9.670   0.006  0.0165  2.6004 -0.2071
  582MOL0     H78521   0.479   9.489  -0.168 -2.6672 -1.0015 -0.1587
  582MOL0     H78522   0.602   9.231  -0.275 -0.4894  1.6161  1.0113
  582MOL0     H78523   0.586   9.098  -0.158 -0.0871 -0.2159  2.4649
  582MOL0     H78524   0.316   9.193  -0.200 -1.6675  1.4077 -2.2388
  582MOL0     H78525   0.395   9.052  -0.269 -0.9094 -0.2203  1.7991
  582MOL0     H78526   0.305   9.168  -0.441  0.3924  1.5277 -2.7957
  582MOL0     H78527   0.479   9.204  -0.459  0.4154  2.1730 -1.7482
  582MOL0     H78528   0.337   9.400  -0.501  3.4287  1.2498 -1.2771
  582MOL0     H78529   0.465   9.414  -0.379  0.7742 -1.2168 -1.5506
  582MOL0     H78530   0.030   9.431  -0.226 -2.1510 -0.0843 -0.0664
  582MOL0     H78531  -0.235   9.550  -0.274 -1.1368  1.1988  0.3652
  582MOL0     H78532  -0.162   9.636  -0.143  0.4205  1.8069  0.6772
  582MOL0     H78533  -0.217   9.723  -0.285  0.9294  0.5494  3.0219
  582MOL0     H78534  -0.172   9.877  -0.800 -1.3038 -1.0380 -1.2868
  582MOL0     H78535  -0.355  10.016  -0.901 -2.9372  1.4349  0.6161
  582MOL0     H78536  -0.730  10.095  -0.691 -0.0250 -0.3668  0.1617
  582MOL0     H78537  -0.618  10.218  -0.621  0.4905 -2.7616 -0.2589
  582MOL0     H78538  -0.798  10.335  -0.742 -0.5953  1.4496 -2.3179
  582MOL0     H78539  -0.634  10.359  -0.816 -1.3276  1.5416 -3.2287
  582MOL0     H78540  -0.836  10.156  -0.919 -1.0595  1.0701  0.2303
  582MOL0     H78541  -0.695  10.227  -1.001 -1.2222  2.9208 -3.0714
  582MOL0     H78542  -0.923  10.307  -1.078 -0.9147 -0.7502  0.9441
  582MOL0     H78543  -0.957  10.364  -0.920  1.8465  1.9111  0.7200
  582MOL0     H78544  -0.730  10.481  -1.095 -1.9624  2.4386 -0.8405
  582MOL0     H78545  -0.765  10.530  -0.925  1.0032  2.7165 -1.6759
  582MOL0     H78546  -0.984  10.598  -1.002  1.0503  1.5517  0.0800
  582MOL0     H78547  -0.850  10.693  -1.072 -1.5172  1.4016  0.3940
  582MOL0     H78548  -1.036  10.481  -1.198  2.5741 -1.4092  0.9912
  582MOL0     H78549  -0.878  10.515  -1.275 -1.2032  2.5166 -2.7733
  582MOL0     H78550  -0.936  10.745  -1.310 -1.8723  3.1984  0.4699
  582MOL0     H78551  -1.069  10.736  -1.190 -1.1325  1.8580 -1.0114
  582MOL0     H78552  -0.515  10.066  -0.503 -0.3428 -0.8594 -0.8108
  582MOL0     H78553  -0.322   9.920  -0.425  1.0576 -2.8557 -1.2598
  582MOL0     H78554   0.182   9.764  -0.540 -1.5629 -0.4668  0.2932
  582MOL0     H78555   0.336   9.622  -0.455  0.8116  0.7943  1.7998
  582MOL0     H78556   0.837  10.338   0.384  1.3615 -1.0370 -1.7466
  582MOL0     H78557   1.068  10.423   0.313 -0.0553  0.6889  0.9416
  582MOL0     H78558   1.541  10.397   0.500  1.7900  0.3155 -0.3117
  582MOL0     H78559   1.761  10.446   0.471 -1.5239 -0.6555  1.3949
  582MOL0     H78560   1.893  10.788   0.232 -1.9026  1.5480  1.4108
  582MOL0     H78561   1.863  10.869   0.384  0.5140  0.4871 -1.2294
  582MOL0     H78562   2.110  10.705   0.389 -3.7590 -0.6457  0.0500
  582MOL0     H78563   2.091  10.852   0.469 -0.1170 -0.3896  0.1569
  582MOL0     H78564   2.139  10.850   0.170 -1.0892  0.5276 -0.6143
  582MOL0     H78565   2.267  10.875   0.288  0.4236  2.9633 -2.2629
  582MOL0     H78566   2.157  11.079   0.368 -0.9288 -1.0691  0.5639
  582MOL0     H78567   2.042  11.066   0.240 -0.6398  1.5467  1.0488
  582MOL0     H78568   2.400  11.181   0.031 -0.7812  2.5057 -0.5765
  582MOL0     H78569   1.660  10.831   0.301  0.0047  0.0942  0.4601
  582MOL0     H78570   1.439  10.791   0.330  3.7209  3.3317 -0.5966
  583MOL0     O78571  10.882   0.650   5.018  0.5901 -0.4049  0.2878
  583MOL0     C78572  10.885   0.622   4.900  0.1517  0.4503  0.1661
  583MOL0     O78573  10.824   0.692   4.807  0.0566  0.9699  1.2294
  583MOL0     C78574  10.754   0.800   4.844  0.5978  0.0512  0.5682
  583MOL0     C78575  10.807   0.927   4.823 -0.8403  0.3138  0.1362
  583MOL0     C78576  10.728   1.040   4.856 -0.6372 -0.1285  0.5420
  583MOL0     C78577  10.594   1.039   4.891  0.0661  0.0885 -0.0289
  583MOL0     O78578  10.523   1.147   4.932 -0.3256 -1.2128 -0.4091
  583MOL0     C78579  10.386   1.152   4.940  0.8521 -0.3510  0.0863
  583MOL0     C78580  10.338   1.161   5.087  0.4347  0.1997  1.0989
  583MOL0     C78581  10.185   1.163   5.114 -0.5669  0.3566 -0.3601
  583MOL0     C78582  10.115   1.279   5.055  0.5562 -0.2712  0.1184
  583MOL0     C78583   9.971   1.260   5.060  0.0281  0.0289  0.7668
  583MOL0     C78584   9.887   1.382   5.012  0.5530  0.0411  0.7114
  583MOL0     C78585   9.728   1.367   5.015 -0.1188  0.3495 -0.4587
  583MOL0     C78586   9.667   1.504   4.987 -0.2623 -0.5181  0.2167
  583MOL0     N78587   9.523   1.501   5.014  0.9040 -0.0344 -0.3513
  583MOL0     C78588   9.420   1.472   4.921 -0.2716  0.1327  1.0200
  583MOL0     C78589   9.307   1.515   4.991  0.0441 -1.0031  0.1687
  583MOL0     C78590   9.175   1.520   4.923 -0.1688 -0.6793 -0.6905
  583MOL0     C78591   9.091   1.412   4.990  0.2572  0.4623  0.2238
  583MOL0     C78592   8.949   1.392   4.920 -0.5680  0.3154 -0.3909
  583MOL0     C78593   8.883   1.262   4.976 -0.6159 -0.7820  0.2135
  583MOL0     O78594   8.856   1.289   5.116  0.7455  0.5906  0.9886
  583MOL0     C78595   8.723   1.327   5.143  0.4821 -0.0688 -0.2153
  583MOL0     C78596   8.627   1.233   5.186 -0.5227 -0.3275  0.3855
  583MOL0     C78597   8.503   1.265   5.229 -0.3395  0.8623 -0.1937
  583MOL0     C78598   8.417   1.138   5.259  0.8526  0.1445  0.0886
  583MOL0     C78599   8.473   1.406   5.248 -0.6768  0.0426 -0.4364
  583MOL0     C78600   8.341   1.454   5.297 -0.2465 -0.2313 -0.2136
  583MOL0     O78601   8.330   1.589   5.302 -0.4312 -0.8134  0.0448
  583MOL0     C78602   8.220   1.638   5.360 -0.8081 -0.2257  0.5669
  583MOL0     C78603   8.128   1.694   5.279 -0.2077  0.4951 -0.6768
  583MOL0     C78604   8.012   1.754   5.325 -1.2162  0.4527 -0.7868
  583MOL0     C78605   7.981   1.745   5.462  0.4845 -0.4040 -0.8991
  583MOL0     O78606   7.859   1.779   5.523 -0.8126 -0.1057 -0.1289
  583MOL0     C78607   7.738   1.777   5.449 -0.2348 -0.0417  0.0256
  583MOL0     C78608   7.609   1.762   5.526  0.3935 -0.6326 -0.5570
  583MOL0     C78609   7.595   1.627   5.595 -1.0480  0.3814 -0.2311
  583MOL0     C78610   7.660   1.628   5.730  0.3561  0.1558 -0.2275
  583MOL0     C78611   7.644   1.494   5.806 -0.3091 -1.1320 -0.1885
  583MOL0     C78612   7.719   1.478   5.931 -0.3298 -0.0232  0.5629
  583MOL0     C78613   7.707   1.336   5.966  0.5972  0.1039  0.7447
  583MOL0     C78614   7.797   1.306   6.076 -0.4442  0.2516 -0.3410
  583MOL0    Cl78615   7.794   1.121   6.108 -0.3219  0.0511  0.0096
  583MOL0     C78616   8.072   1.676   5.548  0.7662  0.1476 -0.1579
  583MOL0     C78617   8.196   1.631   5.499 -0.2187 -0.4288 -0.3942
  583MOL0     O78618   8.258   1.373   5.322 -0.1990  0.9156  0.0938
  583MOL0     C78619   8.562   1.502   5.200 -0.0042  0.2839  0.3513
  583MOL0     C78620   8.677   1.455   5.140 -0.1840 -0.3730  0.3202
  583MOL0     N78621   9.340   1.571   5.117  1.4897 -0.4265  0.1455
  583MOL0     N78622   9.467   1.551   5.133 -0.4358  0.6313  0.3546
  583MOL0     C78623  10.544   0.906   4.909  0.2330  0.7152 -0.3946
  583MOL0     C78624  10.623   0.792   4.889  0.5603  0.1162 -0.3093
  583MOL0     C78625  10.966   0.502   4.856  0.2955  0.2143  0.2689
  583MOL0     C78626  10.967   0.460   4.722  1.1385  0.5408  0.7102
  583MOL0     C78627  11.046   0.349   4.688 -0.3725  0.5767 -0.4711
  583MOL0     C78628  11.126   0.280   4.785 -0.0241 -0.7634 -0.5677
  583MOL0     O78629  11.207   0.182   4.740  0.0873  0.2521  0.6179
  583MOL0     C78630  11.254   0.082   4.830  0.0908  0.1585  0.1353
  583MOL0     C78631  11.336  -0.021   4.748 -0.3753 -0.5348 -0.0051
  583MOL0     C78632  11.407  -0.131   4.834 -0.8416  0.4721  0.2633
  583MOL0     C78633  11.322  -0.221   4.933 -0.0077 -0.6381  0.4992
  583MOL0     C78634  11.272  -0.340   4.863  0.1986  0.6439  0.2842
  583MOL0     C78635  11.223  -0.426   4.800 -0.6600  0.0911 -0.3440
  583MOL0     C78636  11.117   0.327   4.920 -0.4809  0.1203 -0.2876
  583MOL0     C78637  11.031   0.430   4.953 -0.3749 -0.6637 -0.0348
  583MOL0     H78638  10.907   0.938   4.781 -1.5123  0.3745 -1.5434
  583MOL0     H78639  10.780   1.134   4.839 -0.5629 -0.4262 -1.0724
  583MOL0     H78640  10.365   1.253   4.903  1.6493 -0.5008 -0.8046
  583MOL0     H78641  10.332   1.084   4.875 -1.0146  0.8041  0.3466
  583MOL0     H78642  10.384   1.073   5.133  2.0286  0.6463  0.4212
  583MOL0     H78643  10.389   1.253   5.117  2.6014  0.0338 -1.6262
  583MOL0     H78644  10.135   1.070   5.086  0.5093  0.0126 -1.2592
  583MOL0     H78645  10.163   1.162   5.221  0.3049 -0.1411 -0.1736
  583MOL0     H78646  10.136   1.371   5.109 -4.7907 -0.1396  2.6408
  583MOL0     H78647  10.138   1.283   4.948  2.2550 -1.8509  0.3720
  583MOL0     H78648   9.951   1.175   4.994  1.9125  1.0715 -1.2584
  583MOL0     H78649   9.941   1.222   5.158 -3.3778 -3.1207 -1.2179
  583MOL0     H78650   9.930   1.461   5.073  0.1124 -0.5041  1.7639
  583MOL0     H78651   9.917   1.400   4.909 -1.5783  2.0146  0.3440
  583MOL0     H78652   9.680   1.295   4.949 -0.4951 -1.4811  1.6767
  583MOL0     H78653   9.708   1.338   5.119  3.0372 -0.2828  0.0651
  583MOL0     H78654   9.704   1.541   4.891 -2.9796  0.2189 -0.6215
  583MOL0     H78655   9.711   1.573   5.060 -2.1896  0.6909  0.2884
  583MOL0     H78656   9.429   1.416   4.828  0.9582  1.7089  0.1198
  583MOL0     H78657   9.127   1.618   4.931  1.7698  0.2222  0.3808
  583MOL0     H78658   9.185   1.487   4.819 -1.3720 -1.2510 -0.6488
  583MOL0     H78659   9.060   1.446   5.090 -0.3536  3.2924 -0.8395
  583MOL0     H78660   9.140   1.315   4.994 -1.8778 -0.7491 -0.9844
  583MOL0     H78661   8.949   1.376   4.812 -0.6528 -0.3607 -0.2969
  583MOL0     H78662   8.895   1.485   4.940 -0.8421  0.5126 -1.9534
  583MOL0     H78663   8.960   1.185   4.979  0.6524  0.4567  0.4936
  583MOL0     H78664   8.795   1.236   4.916 -0.8949 -0.6150  0.5397
  583MOL0     H78665   8.656   1.129   5.176  0.0266 -0.7382  4.4713
  583MOL0     H78666   8.356   1.114   5.172  0.5350 -1.1448  0.6377
  583MOL0     H78667   8.495   1.064   5.278  0.7327  0.6556  2.9340
  583MOL0     H78668   8.356   1.159   5.347  0.4393  3.2526 -0.8161
  583MOL0     H78669   8.150   1.690   5.172 -2.4172  0.0269 -1.1477
  583MOL0     H78670   7.939   1.795   5.256 -0.7849  1.5840 -0.5903
  583MOL0     H78671   7.738   1.878   5.406 -0.8757  1.3901  3.1359
  583MOL0     H78672   7.730   1.701   5.371 -3.0989 -0.4940  0.6620
  583MOL0     H78673   7.613   1.834   5.608  0.4144 -1.6365  0.3360
  583MOL0     H78674   7.521   1.783   5.464 -0.2237 -1.6655 -0.0437
  583MOL0     H78675   7.651   1.557   5.533  1.5313  1.3802  0.8179
  583MOL0     H78676   7.490   1.600   5.609 -0.5611 -3.8706 -3.0128
  583MOL0     H78677   7.764   1.658   5.718  0.8255 -1.9824 -2.1164
  583MOL0     H78678   7.605   1.696   5.796  0.5423  1.9371 -1.8209
  583MOL0     H78679   7.672   1.417   5.733  0.1489 -0.5722 -0.6013
  583MOL0     H78680   7.538   1.481   5.830 -0.0627 -2.7109  0.1778
  583MOL0     H78681   7.824   1.502   5.915 -0.8468  3.2289  1.2452
  583MOL0     H78682   7.670   1.541   6.007 -2.6720 -0.1715 -0.7097
  583MOL0     H78683   7.731   1.263   5.889 -0.8028 -0.8744  1.1924
  583MOL0     H78684   7.600   1.325   5.988 -0.6016  2.1308 -3.1896
  583MOL0     H78685   7.783   1.362   6.169  0.3031 -2.3348  1.4552
  583MOL0     H78686   7.902   1.322   6.051 -0.0338  0.8578  1.5817
  583MOL0     H78687   8.045   1.660   5.652 -2.3226 -0.3991 -0.9635
  583MOL0     H78688   8.275   1.600   5.566 -0.0197 -0.2716 -0.5542
  583MOL0     H78689   8.543   1.609   5.194  0.9086  0.5845  2.0813
  583MOL0     H78690   8.746   1.531   5.106 -0.0457 -0.4631  0.3976
  583MOL0     H78691  10.455   0.886   4.968  1.4253  1.7271  1.8984
  583MOL0     H78692  10.589   0.691   4.908  3.1058 -0.6234  0.6211
  583MOL0     H78693  10.911   0.523   4.653 -0.0097 -0.4195  0.7251
  583MOL0     H78694  11.054   0.314   4.586 -0.2851  1.0908 -0.6449
  583MOL0     H78695  11.316   0.119   4.912  1.3529 -1.6767  0.0662
  583MOL0     H78696  11.167   0.026   4.866 -1.5300  0.4401 -3.0040
  583MOL0     H78697  11.415   0.034   4.696  0.2866 -0.6791  0.8246
  583MOL0     H78698  11.275  -0.074   4.674 -4.0533  1.0569  1.6430
  583MOL0     H78699  11.478  -0.080   4.900 -0.4095  3.6194 -2.3737
  583MOL0     H78700  11.462  -0.202   4.770  1.2744 -1.2793  3.7341
  583MOL0     H78701  11.237  -0.165   4.973 -0.0413 -0.6284  0.4139
  583MOL0     H78702  11.391  -0.256   5.010  2.6090 -0.9336 -1.8190
  583MOL0     H78703  11.179  -0.498   4.735 -4.0061  1.2773  0.4009
  583MOL0     H78704  11.175   0.277   4.997  0.6822  2.2659  0.2982
  583MOL0     H78705  11.046   0.469   5.053 -1.3198  0.5017 -0.3318
  584MOL0     O78706   0.178   0.595   5.895 -0.4833 -0.0223 -0.4577
  584MOL0     C78707   0.278   0.656   5.861 -0.8771  0.1369 -0.2747
  584MOL0     O78708   0.289   0.752   5.767  0.0770  0.1908 -0.2775
  584MOL0     C78709   0.181   0.816   5.700  0.2151 -0.0745 -0.1241
  584MOL0     C78710   0.057   0.842   5.762  0.1615 -0.2133 -0.8715
  584MOL0     C78711  -0.046   0.911   5.692 -0.1459 -0.1633  0.9560
  584MOL0     C78712  -0.033   0.957   5.562  0.0466 -0.1368  1.4389
  584MOL0     O78713  -0.122   1.037   5.495 -0.3313  0.0208 -0.0287
  584MOL0     C78714  -0.258   1.051   5.551 -0.3136  0.7656  0.2585
  584MOL0     C78715  -0.272   1.164   5.652  0.2584  0.4419 -0.2004
  584MOL0     C78716  -0.421   1.190   5.668  0.8776 -0.0910  0.2115
  584MOL0     C78717  -0.427   1.308   5.768 -0.5120 -0.7357  0.0533
  584MOL0     C78718  -0.571   1.364   5.765 -0.0410 -0.8063  0.5220
  584MOL0     C78719  -0.589   1.474   5.875 -0.5447  0.4490  0.3460
  584MOL0     C78720  -0.734   1.503   5.899 -0.1825  0.0056  0.1353
  584MOL0     C78721  -0.778   1.594   5.787  0.1565  0.1240 -0.1796
  584MOL0     N78722  -0.905   1.670   5.797  0.7876 -0.3041 -0.5267
  584MOL0     C78723  -1.025   1.623   5.840  0.6641 -0.6834 -0.3601
  584MOL0     C78724  -1.096   1.737   5.837  0.3291 -0.1617 -0.5936
  584MOL0     C78725  -1.242   1.759   5.846  0.5814 -0.8349  0.0827
  584MOL0     C78726  -1.293   1.850   5.738 -0.0564  0.8714  0.8307
  584MOL0     C78727  -1.322   1.999   5.768 -0.2123  0.3028  0.2306
  584MOL0     C78728  -1.477   2.043   5.795  0.0312  0.2068  0.0279
  584MOL0     O78729  -1.516   2.166   5.725 -0.9878 -0.2246  0.3249
  584MOL0     C78730  -1.647   2.211   5.726  0.2797 -0.4142  1.3248
  584MOL0     C78731  -1.759   2.138   5.767  0.0404 -0.5096 -0.5524
  584MOL0     C78732  -1.886   2.205   5.775 -0.1491  0.1138 -0.2727
  584MOL0     C78733  -2.007   2.114   5.823  0.7448  0.1334  0.8473
  584MOL0     C78734  -1.895   2.343   5.731  0.2340  1.3763  0.3649
  584MOL0     C78735  -2.013   2.417   5.731  0.0961 -1.1036 -0.0702
  584MOL0     O78736  -2.002   2.550   5.705  0.5108  0.0574  0.2945
  584MOL0     C78737  -2.122   2.619   5.712 -0.5506  0.3346 -0.3809
  584MOL0     C78738  -2.145   2.697   5.821  0.3998  0.4959 -0.3712
  584MOL0     C78739  -2.270   2.760   5.821 -0.7159  0.2545 -0.5659
  584MOL0     C78740  -2.365   2.739   5.719  0.1850  0.3392 -0.7714
  584MOL0     O78741  -2.486   2.804   5.724  0.2245 -0.1841 -0.1615
  584MOL0     C78742  -2.502   2.905   5.630 -0.0278  0.4670  1.1477
  584MOL0     C78743  -2.650   2.944   5.621  0.8369 -0.1778  0.1732
  584MOL0     C78744  -2.667   3.061   5.522  0.1059 -0.1810  0.4840
  584MOL0     C78745  -2.672   3.020   5.376 -0.6025 -0.3822  0.3328
  584MOL0     C78746  -2.755   3.111   5.292 -0.5046 -0.0269 -0.4665
  584MOL0     C78747  -2.762   3.056   5.150  0.5587 -0.1470 -1.0576
  584MOL0     C78748  -2.859   3.144   5.061 -0.3498  0.3875  0.1720
  584MOL0     C78749  -2.833   3.098   4.911  0.0958 -0.7230 -0.4170
  584MOL0    Cl78750  -2.975   3.143   4.812 -0.2669  0.4781  0.1936
  584MOL0     C78751  -2.339   2.647   5.622 -0.1702  0.1434  0.7023
  584MOL0     C78752  -2.214   2.587   5.616  0.1864 -0.1396  0.2807
  584MOL0     O78753  -2.118   2.356   5.749 -0.4197 -0.1641  0.4667
  584MOL0     C78754  -1.787   2.412   5.679  0.7432  0.4875  0.2439
  584MOL0     C78755  -1.670   2.336   5.663 -0.8192  0.6831  0.5991
  584MOL0     N78756  -1.015   1.848   5.817 -0.2734  0.4110 -0.5054
  584MOL0     N78757  -0.904   1.806   5.787 -0.1316  0.1226 -1.1094
  584MOL0     C78758   0.099   0.938   5.503  0.2388  0.1055 -0.9943
  584MOL0     C78759   0.203   0.866   5.569  0.7259  2.2266  0.4128
  584MOL0     C78760   0.404   0.609   5.923 -0.1623 -0.0343 -0.7558
  584MOL0     C78761   0.416   0.539   6.047 -0.4791  0.0573  0.7706
  584MOL0     C78762   0.545   0.512   6.103 -1.2442 -0.4660  0.5160
  584MOL0     C78763   0.658   0.534   6.025  0.0527 -0.2917 -0.5119
  584MOL0     O78764   0.789   0.515   6.068  0.5270  0.4206 -0.0662
  584MOL0     C78765   0.815   0.412   6.167  0.2214 -0.4622  0.3158
  584MOL0     C78766   0.970   0.397   6.165  0.3638 -0.8611 -0.2788
  584MOL0     C78767   1.021   0.326   6.287  0.2541  0.7068 -0.4579
  584MOL0     C78768   1.150   0.252   6.261 -1.1320 -0.0640  0.6524
  584MOL0     C78769   1.249   0.249   6.370 -0.3279  0.3774  0.2705
  584MOL0     C78770   1.308   0.234   6.476 -0.0097  0.3087  1.2601
  584MOL0     C78771   0.642   0.610   5.907  0.2935 -0.2323  0.6574
  584MOL0     C78772   0.519   0.645   5.853  0.0800 -0.2869 -0.2142
  584MOL0     H78773   0.050   0.800   5.862 -1.7404 -3.5520 -2.2375
  584MOL0     H78774  -0.140   0.933   5.743  0.7267  0.3362  2.4078
  584MOL0     H78775  -0.335   1.065   5.474 -1.0774 -0.5453  0.7501
  584MOL0     H78776  -0.286   0.954   5.593 -1.2877  0.0111 -1.9480
  584MOL0     H78777  -0.240   1.133   5.752 -1.9497  0.6790  0.6438
  584MOL0     H78778  -0.208   1.246   5.619  1.9504 -0.4351  0.7938
  584MOL0     H78779  -0.458   1.219   5.569  1.3981 -1.8020 -0.5302
  584MOL0     H78780  -0.469   1.100   5.707 -2.7085  0.7406 -1.8257
  584MOL0     H78781  -0.408   1.286   5.873  0.5740  2.2767  0.5803
  584MOL0     H78782  -0.367   1.389   5.726 -1.0010 -0.9704 -1.1508
  584MOL0     H78783  -0.587   1.401   5.663 -1.4554  0.5698  1.2024
  584MOL0     H78784  -0.653   1.292   5.772 -2.3448  1.2303 -2.5761
  584MOL0     H78785  -0.539   1.440   5.967 -0.7443  0.0461  0.3089
  584MOL0     H78786  -0.532   1.563   5.849  1.0009 -0.6946 -0.3091
  584MOL0     H78787  -0.789   1.409   5.894  0.8506 -0.5440 -1.9862
  584MOL0     H78788  -0.745   1.565   5.989  2.3262  0.3182  0.3036
  584MOL0     H78789  -0.788   1.535   5.695 -0.9276 -1.3715  0.8477
  584MOL0     H78790  -0.702   1.666   5.757 -1.1502  1.8355  0.4921
  584MOL0     H78791  -1.065   1.524   5.858  2.1833 -1.2145  0.2656
  584MOL0     H78792  -1.288   1.660   5.841  0.2381 -0.6523 -0.4131
  584MOL0     H78793  -1.273   1.801   5.942  3.1079  0.3678  0.4701
  584MOL0     H78794  -1.381   1.797   5.700  0.6614 -0.2550  0.7158
  584MOL0     H78795  -1.222   1.846   5.655  0.2594 -2.6272  1.1295
  584MOL0     H78796  -1.278   2.061   5.690 -0.9037 -0.1000 -0.4896
  584MOL0     H78797  -1.261   2.023   5.856 -2.8589 -1.1445  2.6563
  584MOL0     H78798  -1.502   2.028   5.900 -1.4898 -1.2694 -0.5049
  584MOL0     H78799  -1.533   1.960   5.752  1.5262 -0.4252 -0.7797
  584MOL0     H78800  -1.745   2.038   5.806  1.4365 -0.5432 -1.0842
  584MOL0     H78801  -2.091   2.157   5.878 -0.0231 -2.5913  1.9373
  584MOL0     H78802  -2.040   2.070   5.729  2.6869 -3.5644  1.7052
  584MOL0     H78803  -1.966   2.037   5.889 -1.0835  1.3539  3.6282
  584MOL0     H78804  -2.075   2.709   5.903 -0.5409  2.8832  0.1516
  584MOL0     H78805  -2.300   2.813   5.911  0.9573 -0.8374  0.7077
  584MOL0     H78806  -2.444   2.997   5.645  0.2212  0.7412 -1.2207
  584MOL0     H78807  -2.491   2.869   5.528 -1.7000  0.2838  0.9979
  584MOL0     H78808  -2.705   2.856   5.586 -1.3264  0.6740  1.2219
  584MOL0     H78809  -2.685   2.985   5.716 -0.1301 -0.7401  0.0794
  584MOL0     H78810  -2.576   3.122   5.518 -0.4843  0.8091 -4.5661
  584MOL0     H78811  -2.758   3.114   5.551 -0.0694 -0.6210  0.7480
  584MOL0     H78812  -2.572   3.008   5.333 -0.6882  0.4082 -0.1077
  584MOL0     H78813  -2.723   2.924   5.376 -0.6576 -0.3547 -0.2273
  584MOL0     H78814  -2.698   3.205   5.296 -1.9584  0.8645  0.5201
  584MOL0     H78815  -2.858   3.118   5.330 -0.2198  1.3060  0.1286
  584MOL0     H78816  -2.661   3.052   5.109  0.1862  1.0251 -2.1525
  584MOL0     H78817  -2.800   2.953   5.151 -2.6421  0.9102  0.1797
  584MOL0     H78818  -2.835   3.250   5.078  1.7139  0.3060 -1.8410
  584MOL0     H78819  -2.966   3.136   5.079 -0.4246  0.2695 -0.3355
  584MOL0     H78820  -2.817   2.991   4.898 -1.8081 -0.9519 -1.1362
  584MOL0     H78821  -2.748   3.152   4.868 -0.9593  2.1949  0.8555
  584MOL0     H78822  -2.402   2.631   5.536 -0.4240  0.6131  0.7968
  584MOL0     H78823  -2.207   2.507   5.542 -2.0143 -2.3403  2.2882
  584MOL0     H78824  -1.787   2.512   5.637  1.7682  2.0857  3.6858
  584MOL0     H78825  -1.584   2.374   5.609 -1.3667  0.2610 -0.6205
  584MOL0     H78826   0.115   0.986   5.406 -1.8299  0.0616 -1.3907
  584MOL0     H78827   0.296   0.845   5.518  0.4539 -1.3449  1.1394
  584MOL0     H78828   0.327   0.539   6.110 -1.3389  3.6162 -0.2275
  584MOL0     H78829   0.560   0.465   6.200  2.0098 -2.0485 -0.5913
  584MOL0     H78830   0.794   0.453   6.266 -2.4083  0.4757 -0.5551
  584MOL0     H78831   0.754   0.322   6.155  1.5156 -1.4771  1.0835
  584MOL0     H78832   1.015   0.496   6.162  0.3171 -0.8187  0.3327
  584MOL0     H78833   0.994   0.339   6.075 -2.4758  1.0711 -2.4666
  584MOL0     H78834   0.954   0.251   6.330  0.3487  1.8719  1.8912
  584MOL0     H78835   1.030   0.394   6.372 -0.6047 -0.1764  0.3628
  584MOL0     H78836   1.201   0.301   6.178 -0.3138 -1.9072 -0.0019
  584MOL0     H78837   1.132   0.146   6.237 -1.5367 -0.7014  3.3992
  584MOL0     H78838   1.352   0.215   6.571 -0.9149  0.5205  1.7295
  584MOL0     H78839   0.728   0.637   5.847 -0.1248  0.6987  0.4649
  584MOL0     H78840   0.513   0.699   5.759 -1.7344 -1.8717 -1.0655
  585MOL0     O78841   8.081   9.864   9.849  0.2430  0.4180  0.3148
  585MOL0     C78842   8.179   9.784   9.852  1.0616 -0.4580 -0.4645
  585MOL0     O78843   8.175   9.653   9.829  0.3563  0.3862  0.0988
  585MOL0     C78844   8.046   9.603   9.803 -0.3871 -0.2310 -0.9845
  585MOL0     C78845   7.951   9.578   9.899  0.5272 -0.1831 -0.9902
  585MOL0     C78846   7.834   9.513   9.857 -0.3159 -0.0897  0.3121
  585MOL0     C78847   7.810   9.464   9.723  0.1983  0.1585 -0.4748
  585MOL0     O78848   7.699   9.402   9.683 -0.5455 -0.4695  1.2439
  585MOL0     C78849   7.649   9.298   9.760 -0.6501 -0.1819  0.1473
  585MOL0     C78850   7.499   9.278   9.726  0.4171  0.6910 -0.5902
  585MOL0     C78851   7.472   9.294   9.577  1.0850 -0.4470  0.2468
  585MOL0     C78852   7.332   9.239   9.536  0.4361  0.5622 -0.2433
  585MOL0     C78853   7.313   9.258   9.387 -0.2484 -0.1755  0.4498
  585MOL0     C78854   7.285   9.411   9.366  0.4626  0.0956  0.2828
  585MOL0     C78855   7.233   9.427   9.219  0.3849 -0.1806  0.0425
  585MOL0     C78856   7.319   9.362   9.119 -0.7292 -0.6444 -0.4795
  585MOL0     N78857   7.254   9.248   9.044 -0.0143 -0.4928 -0.4153
  585MOL0     C78858   7.306   9.121   9.041  0.7253 -0.8985 -0.8791
  585MOL0     C78859   7.214   9.063   8.959  0.9644  0.2762  0.5009
  585MOL0     C78860   7.229   8.918   8.917 -1.1094 -0.3333  1.1558
  585MOL0     C78861   7.340   8.918   8.801  0.6989 -0.2772  0.1524
  585MOL0     C78862   7.313   8.788   8.714  0.3317 -0.2772 -0.0149
  585MOL0     C78863   7.411   8.770   8.593 -0.7838 -0.1556  0.2487
  585MOL0     O78864   7.417   8.896   8.512  0.3106  0.2325  0.3878
  585MOL0     C78865   7.524   8.914   8.425 -0.4827 -0.5521 -0.3815
  585MOL0     C78866   7.523   9.022   8.336 -0.7823 -0.5313  0.1360
  585MOL0     C78867   7.634   9.053   8.244  0.7761 -0.2677 -0.2614
  585MOL0     C78868   7.611   9.169   8.151 -0.2506  0.0435 -0.1123
  585MOL0     C78869   7.745   8.960   8.236  0.4999 -0.3684 -0.1510
  585MOL0     C78870   7.848   8.978   8.142 -0.2352  0.3682 -0.3469
  585MOL0     O78871   7.961   9.014   8.201 -0.7889 -0.0995  0.5687
  585MOL0     C78872   8.075   9.045   8.126 -0.9222  0.2056 -0.2582
  585MOL0     C78873   8.163   8.940   8.086  0.0851 -0.0707 -0.5146
  585MOL0     C78874   8.288   8.975   8.026 -0.1191  0.3838  0.0207
  585MOL0     C78875   8.306   9.100   7.969 -0.6466  0.1281 -0.2491
  585MOL0     O78876   8.412   9.127   7.889 -0.1491  1.0035 -0.6646
  585MOL0     C78877   8.484   9.023   7.822  0.1697 -0.5113 -0.2074
  585MOL0     C78878   8.609   9.082   7.744  0.1596  1.2318 -0.1791
  585MOL0     C78879   8.676   9.205   7.805 -0.9096  0.6137  0.5168
  585MOL0     C78880   8.793   9.240   7.721 -0.3614 -0.3539 -0.7368
  585MOL0     C78881   8.832   9.389   7.734  0.5733 -0.3219 -0.8640
  585MOL0     C78882   8.953   9.425   7.642  0.1219 -0.4542 -0.2748
  585MOL0     C78883   8.979   9.575   7.667  0.1399  0.9196 -0.0703
  585MOL0     C78884   9.066   9.624   7.561  0.3468 -0.5014  0.3114
  585MOL0    Cl78885   8.990   9.624   7.403 -0.3756 -0.3258 -0.2584
  585MOL0     C78886   8.209   9.202   7.991  0.1617 -0.0272  0.5534
  585MOL0     C78887   8.108   9.171   8.086 -0.9586  0.1026 -0.0818
  585MOL0     O78888   7.831   8.964   8.021  0.3668  0.5645  0.1693
  585MOL0     C78889   7.746   8.852   8.333 -0.2233 -0.2423  1.2083
  585MOL0     C78890   7.641   8.834   8.421 -0.3632  0.2334  0.4674
  585MOL0     N78891   7.119   9.145   8.921 -0.1638  0.3191  0.4389
  585MOL0     N78892   7.144   9.259   8.962  0.0090  0.3957  1.0332
  585MOL0     C78893   7.905   9.492   9.633 -0.0831 -0.2813 -0.2927
  585MOL0     C78894   8.019   9.565   9.665 -0.8481 -0.1868  0.0719
  585MOL0     C78895   8.303   9.845   9.903  0.2926 -0.6011 -1.1469
  585MOL0     C78896   8.408   9.757   9.928 -1.0317 -0.0337 -0.0060
  585MOL0     C78897   8.533   9.807   9.948 -0.6235  0.0722  0.7181
  585MOL0     C78898   8.563   9.947   9.953 -0.6259  0.0471 -0.5992
  585MOL0     O78899   8.695   9.985   9.969  0.4140 -1.1580 -0.1860
  585MOL0     C78900   8.718  10.095  10.059 -0.4077 -0.4706  0.5065
  585MOL0     C78901   8.863  10.086  10.100 -0.3785 -0.2038  0.0517
  585MOL0     C78902   8.901   9.958  10.169  0.3327  0.1996  0.0312
  585MOL0     C78903   9.032   9.988  10.251 -0.5207  0.7548  0.2270
  585MOL0     C78904   9.144   9.901  10.202  0.0413  0.5472  0.4982
  585MOL0     C78905   9.228   9.835  10.148  0.6886  0.4827 -0.4289
  585MOL0     C78906   8.459  10.026   9.936 -0.0445  0.2725  0.0384
  585MOL0     C78907   8.318   9.985   9.911 -0.5769 -0.0887 -0.2098
  585MOL0     H78908   7.970   9.614  10.000  0.0856 -1.0730 -0.5794
  585MOL0     H78909   7.755   9.502   9.931  1.2367  0.6163  2.1697
  585MOL0     H78910   7.711   9.210   9.744  0.6495  0.6668  0.3459
  585MOL0     H78911   7.657   9.322   9.866  2.9823 -0.6517  0.1088
  585MOL0     H78912   7.468   9.178   9.756  0.7258  1.2556  1.8085
  585MOL0     H78913   7.439   9.351   9.781  1.1040  0.9415 -0.1640
  585MOL0     H78914   7.479   9.402   9.557  0.1338 -0.8805 -3.1326
  585MOL0     H78915   7.547   9.238   9.522  0.7667 -1.0176  0.3863
  585MOL0     H78916   7.331   9.132   9.558  4.1973  1.0339  3.3865
  585MOL0     H78917   7.245   9.279   9.589 -2.4729 -4.2257 -0.8759
  585MOL0     H78918   7.402   9.229   9.331 -0.5921  0.2900 -0.3414
  585MOL0     H78919   7.234   9.197   9.342  2.6544 -4.5753  0.6299
  585MOL0     H78920   7.204   9.446   9.430 -1.8797  0.8294 -2.8225
  585MOL0     H78921   7.374   9.470   9.389 -0.6405  0.9980  2.4703
  585MOL0     H78922   7.135   9.382   9.202  0.3959 -0.0781 -0.3094
  585MOL0     H78923   7.233   9.535   9.199  0.0230 -0.4921 -1.8161
  585MOL0     H78924   7.420   9.340   9.153  0.1453  2.8697 -0.4603
  585MOL0     H78925   7.334   9.448   9.054 -2.1591  0.3019  0.3796
  585MOL0     H78926   7.407   9.089   9.066  1.3581  3.2323  3.2851
  585MOL0     H78927   7.277   8.855   8.992  0.6975 -1.2346 -0.6674
  585MOL0     H78928   7.134   8.875   8.885 -0.6785 -1.1634  0.9746
  585MOL0     H78929   7.445   8.917   8.834  1.4972 -0.9116 -2.2122
  585MOL0     H78930   7.333   9.014   8.748  1.7049 -1.2992 -1.9570
  585MOL0     H78931   7.213   8.794   8.671 -0.1866 -1.8826  0.9199
  585MOL0     H78932   7.310   8.702   8.781  0.4293  0.6632  1.2324
  585MOL0     H78933   7.390   8.690   8.523  2.6869  1.2158 -2.6573
  585MOL0     H78934   7.512   8.754   8.630 -0.4995  0.4484 -0.2575
  585MOL0     H78935   7.433   9.083   8.336  0.0987  0.8296 -0.4766
  585MOL0     H78936   7.611   9.142   8.045 -4.7397  1.7310 -0.7307
  585MOL0     H78937   7.515   9.216   8.175 -0.3876  0.1577 -0.8567
  585MOL0     H78938   7.682   9.244   8.187 -0.5801  0.1999  0.2226
  585MOL0     H78939   8.145   8.838   8.120  0.0174  0.2220  0.3654
  585MOL0     H78940   8.363   8.897   8.024 -2.0281 -1.6059  1.3341
  585MOL0     H78941   8.525   8.960   7.902  1.7465 -0.3528 -0.8384
  585MOL0     H78942   8.421   8.965   7.755 -0.6422 -2.7315  2.3024
  585MOL0     H78943   8.684   9.007   7.719 -1.3542  0.0568 -1.3695
  585MOL0     H78944   8.575   9.099   7.641  1.2321  0.7318 -0.6250
  585MOL0     H78945   8.705   9.189   7.910 -1.0158 -1.5084  0.2754
  585MOL0     H78946   8.604   9.288   7.802 -0.5336  0.9010 -0.7061
  585MOL0     H78947   8.874   9.176   7.758 -0.6245 -1.3937 -1.9085
  585MOL0     H78948   8.775   9.230   7.614  0.0323  0.3137 -0.8720
  585MOL0     H78949   8.853   9.404   7.840 -2.5573 -0.0292 -0.1844
  585MOL0     H78950   8.741   9.447   7.715 -0.0505 -0.1759  2.2058
  585MOL0     H78951   9.046   9.372   7.664  0.9155  1.5995  1.5762
  585MOL0     H78952   8.926   9.403   7.538 -2.9930 -0.9868  0.5466
  585MOL0     H78953   9.027   9.587   7.764  0.9588 -0.3828 -0.2812
  585MOL0     H78954   8.882   9.626   7.667  0.3392  1.4144 -2.3173
  585MOL0     H78955   9.163   9.572   7.560  1.0849  0.7994  1.4593
  585MOL0     H78956   9.098   9.726   7.585  2.3789 -1.0872  0.2720
  585MOL0     H78957   8.231   9.303   7.959  1.1559 -0.4309 -0.0863
  585MOL0     H78958   8.032   9.243   8.118  0.0958  3.1056 -3.6290
  585MOL0     H78959   7.825   8.777   8.336  1.8805  1.8283  0.5052
  585MOL0     H78960   7.647   8.743   8.479 -0.3946  0.3957  0.7271
  585MOL0     H78961   7.900   9.470   9.526 -1.2707 -0.7482 -0.1587
  585MOL0     H78962   8.095   9.581   9.590  0.0342 -2.1838  0.4628
  585MOL0     H78963   8.387   9.651   9.925 -0.3316 -0.1585 -1.1265
  585MOL0     H78964   8.618   9.740   9.957 -0.1485  0.8792  2.7024
  585MOL0     H78965   8.683  10.186  10.009 -0.8106 -1.6230 -1.4395
  585MOL0     H78966   8.655  10.068  10.144 -1.0869 -2.7116 -0.6287
  585MOL0     H78967   8.885  10.162  10.175 -0.8501  1.5414 -1.4978
  585MOL0     H78968   8.932  10.110  10.019  0.6293  1.3127  1.3040
  585MOL0     H78969   8.922   9.876  10.100 -1.2908  0.7441 -1.1668
  585MOL0     H78970   8.824   9.934  10.244  0.2297 -0.7637 -0.3624
  585MOL0     H78971   9.025   9.968  10.358  2.1858  0.3784  0.3983
  585MOL0     H78972   9.071  10.089  10.241 -0.4296  0.5378 -2.3456
  585MOL0     H78973   9.314   9.776  10.123  1.4509  0.5799  1.7119
  585MOL0     H78974   8.483  10.131   9.949  0.5424  0.1327  0.0939
  585MOL0     H78975   8.243  10.060   9.888 -0.5761  0.1432  0.5340
  586MOL0     O78976   0.273  10.436   3.878  0.5977 -0.4107 -0.4329
  586MOL0     C78977   0.344  10.412   3.784 -0.6454  0.3268 -0.1757
  586MOL0     O78978   0.303  10.382   3.658 -0.1458  0.7788  0.1184
  586MOL0     C78979   0.181  10.326   3.651  0.2577 -0.1878 -0.3551
  586MOL0     C78980   0.065  10.404   3.632  0.1279  0.4041 -0.3242
  586MOL0     C78981  -0.055  10.338   3.649  0.3581 -0.2361  0.1479
  586MOL0     C78982  -0.073  10.206   3.694  0.0618 -1.0862 -0.0244
  586MOL0     O78983  -0.199  10.158   3.703 -0.6900 -0.0822 -0.0514
  586MOL0     C78984  -0.224  10.046   3.788 -0.5680  0.3780 -0.3665
  586MOL0     C78985  -0.385  10.041   3.800  0.0119  1.1214 -0.6163
  586MOL0     C78986  -0.445   9.944   3.909  0.4609 -0.4702  0.3623
  586MOL0     C78987  -0.603   9.946   3.885  0.4571 -0.0600 -0.5552
  586MOL0     C78988  -0.673   9.825   3.944 -0.2275 -0.2456  1.1357
  586MOL0     C78989  -0.820   9.825   3.894  0.5162 -0.5557 -0.1221
  586MOL0     C78990  -0.902   9.948   3.933  0.6147  0.7626 -0.0329
  586MOL0     C78991  -0.938   9.946   4.085  0.7777 -0.1345 -0.2413
  586MOL0     N78992  -1.000   9.823   4.144  0.3432  0.2876 -0.9462
  586MOL0     C78993  -1.007   9.800   4.285 -0.0416  0.3436 -0.2741
  586MOL0     C78994  -1.086   9.689   4.292  1.1091 -0.7656  0.4881
  586MOL0     C78995  -1.131   9.625   4.420  0.3255  0.4919 -0.1168
  586MOL0     C78996  -1.266   9.571   4.422  0.1839 -0.0797  1.2577
  586MOL0     C78997  -1.371   9.681   4.396 -0.0197 -0.0355  0.1113
  586MOL0     C78998  -1.510   9.630   4.420  0.4087 -0.4910  0.1200
  586MOL0     O78999  -1.527   9.581   4.548  0.4877 -0.2401 -0.1869
  586MOL0     C79000  -1.644   9.510   4.565  0.0994  0.0533  0.1092
  586MOL0     C79001  -1.670   9.443   4.693 -0.4974 -0.2995  0.1134
  586MOL0     C79002  -1.778   9.357   4.721  0.9081 -0.2662  0.8187
  586MOL0     C79003  -1.766   9.286   4.856  0.4330 -0.0419 -0.0208
  586MOL0     C79004  -1.884   9.354   4.629 -0.7241  0.2987 -0.4037
  586MOL0     C79005  -2.009   9.269   4.660 -0.9088 -0.8102 -0.1937
  586MOL0     O79006  -2.105   9.278   4.566 -0.0737  0.0984 -0.0959
  586MOL0     C79007  -2.219   9.204   4.599  0.4013 -0.1720  0.3320
  586MOL0     C79008  -2.232   9.070   4.564  0.1378 -0.9489 -0.4196
  586MOL0     C79009  -2.348   9.006   4.602  0.7761  0.1974  0.3102
  586MOL0     C79010  -2.454   9.062   4.676  0.0940 -0.4140  0.5412
  586MOL0     O79011  -2.551   8.986   4.743 -0.3942 -0.9611 -0.2819
  586MOL0     C79012  -2.692   9.022   4.739 -0.6477  0.3317 -0.4422
  586MOL0     C79013  -2.772   8.906   4.767 -0.5063 -0.4782  0.5382
  586MOL0     C79014  -2.916   8.943   4.781  1.0979 -0.4108 -0.4370
  586MOL0     C79015  -3.001   8.822   4.800  0.3099  0.3709 -0.2955
  586MOL0     C79016  -3.144   8.834   4.857  0.0746  0.5066 -0.6751
  586MOL0     C79017  -3.134   8.888   4.997  0.0180  0.1575  0.2959
  586MOL0     C79018  -3.276   8.892   5.054 -0.7985 -0.1835  1.0276
  586MOL0     C79019  -3.265   8.922   5.203  0.9139 -0.0906  0.2453
  586MOL0    Cl79020  -3.261   9.082   5.261 -0.1005 -0.4257  0.1484
  586MOL0     C79021  -2.438   9.206   4.699  0.6149  0.2931 -0.5453
  586MOL0     C79022  -2.323   9.263   4.660 -0.0008 -0.9367 -0.5072
  586MOL0     O79023  -2.011   9.192   4.753  0.0104  0.7311 -0.0354
  586MOL0     C79024  -1.864   9.418   4.504  0.0638  0.0917 -0.1839
  586MOL0     C79025  -1.747   9.485   4.471  0.3946  0.5720  0.8596
  586MOL0     N79026  -1.111   9.647   4.161  0.4844 -0.1605  0.1357
  586MOL0     N79027  -1.067   9.729   4.079  0.3234 -0.7515 -0.0339
  586MOL0     C79028   0.044  10.131   3.709  0.8607  0.3980  0.4250
  586MOL0     C79029   0.168  10.186   3.677 -0.0913  0.6163 -0.8218
  586MOL0     C79030   0.490  10.419   3.810 -0.0843 -0.4519 -0.1281
  586MOL0     C79031   0.576  10.439   3.701  0.2666  0.5635  0.1315
  586MOL0     C79032   0.714  10.446   3.732 -0.6604  0.2961 -0.1107
  586MOL0     C79033   0.759  10.434   3.860 -0.4736 -0.6445 -0.1258
  586MOL0     O79034   0.888  10.460   3.891 -0.7772 -0.0267 -0.5149
  586MOL0     C79035   0.944  10.466   4.029 -1.0691  0.6901  0.2489
  586MOL0     C79036   1.096  10.492   4.034  0.3217  0.2865  0.1711
  586MOL0     C79037   1.181  10.384   3.969  0.0963  0.3624 -0.6625
  586MOL0     C79038   1.207  10.431   3.828  0.3494 -0.0632  0.1580
  586MOL0     C79039   1.328  10.365   3.778 -0.4746 -0.0439  0.6945
  586MOL0     C79040   1.438  10.326   3.734 -0.0272 -1.2270 -1.1465
  586MOL0     C79041   0.671  10.406   3.963  0.0840  0.0385  0.0373
  586MOL0     C79042   0.535  10.396   3.940  0.2764  0.3246 -0.7087
  586MOL0     H79043   0.066  10.512   3.624  1.6937  0.5374  1.0695
  586MOL0     H79044  -0.150  10.389   3.639 -1.4238 -3.2368  0.5401
  586MOL0     H79045  -0.189   9.951   3.747  2.5181  1.9317 -1.6704
  586MOL0     H79046  -0.176  10.059   3.886 -0.2482 -0.6895 -0.3688
  586MOL0     H79047  -0.404  10.144   3.831 -1.1420  0.3493  1.4731
  586MOL0     H79048  -0.421  10.014   3.701  1.1079 -1.6919 -0.3493
  586MOL0     H79049  -0.405   9.842   3.907 -1.9702 -1.4898 -0.0016
  586MOL0     H79050  -0.412   9.983   4.006  2.3038 -1.6576  0.2542
  586MOL0     H79051  -0.636  10.031   3.946  3.3867 -0.2686  1.5577
  586MOL0     H79052  -0.620   9.956   3.778  0.8237 -2.5703 -0.9053
  586MOL0     H79053  -0.625   9.735   3.903 -0.5777  0.6919 -1.5418
  586MOL0     H79054  -0.678   9.840   4.052 -2.0561  1.7557  0.8345
  586MOL0     H79055  -0.812   9.824   3.785  1.6828 -0.7145 -0.0475
  586MOL0     H79056  -0.875   9.736   3.925 -1.8436  0.4678 -1.1673
  586MOL0     H79057  -0.852  10.041   3.903 -2.0243  1.7401 -1.7690
  586MOL0     H79058  -0.987   9.959   3.866  1.2674  0.0925 -0.9995
  586MOL0     H79059  -0.992  10.038   4.110  0.7091 -0.8734  2.6771
  586MOL0     H79060  -0.841   9.955   4.133  1.5865  0.4148 -1.9183
  586MOL0     H79061  -0.956   9.852   4.365  1.1417 -1.5504  0.2808
  586MOL0     H79062  -1.066   9.539   4.442  0.4994  0.5653 -0.3437
  586MOL0     H79063  -1.126   9.697   4.502 -1.9802 -1.0771  1.5364
  586MOL0     H79064  -1.274   9.530   4.523  1.3901  2.7592  2.6178
  586MOL0     H79065  -1.277   9.496   4.344 -3.6875 -0.4560  1.9156
  586MOL0     H79066  -1.367   9.713   4.292  1.9114 -2.2462 -0.5724
  586MOL0     H79067  -1.353   9.762   4.468 -0.7639  0.3662 -0.1508
  586MOL0     H79068  -1.524   9.541   4.358 -0.6361 -1.1210  1.2273
  586MOL0     H79069  -1.591   9.697   4.392 -1.0060 -2.4627 -0.7668
  586MOL0     H79070  -1.594   9.449   4.769  1.3167 -0.5043 -1.6110
  586MOL0     H79071  -1.669   9.297   4.906  0.2793 -0.2279  0.3274
  586MOL0     H79072  -1.822   9.334   4.938  1.4302 -0.9893  1.2636
  586MOL0     H79073  -1.797   9.181   4.852 -1.0888  0.3960 -0.5392
  586MOL0     H79074  -2.151   9.014   4.519  0.8352 -0.4822  0.2206
  586MOL0     H79075  -2.351   8.898   4.608  2.5833  0.2146  2.5261
  586MOL0     H79076  -2.717   9.103   4.808  0.4861 -0.5687  1.1025
  586MOL0     H79077  -2.710   9.052   4.636  0.4327  1.4467 -0.3395
  586MOL0     H79078  -2.762   8.841   4.680  0.8488  4.1709 -3.2311
  586MOL0     H79079  -2.734   8.858   4.857  2.9123 -0.9725 -0.9948
  586MOL0     H79080  -2.951   8.988   4.688  2.1569 -0.8739 -1.0754
  586MOL0     H79081  -2.926   9.014   4.863  2.3116 -0.7130 -0.0078
  586MOL0     H79082  -3.004   8.778   4.700  1.3831  1.0201 -0.6391
  586MOL0     H79083  -2.951   8.764   4.878  0.1278  0.8713  0.2012
  586MOL0     H79084  -3.201   8.741   4.846  0.0041  0.7499 -2.8830
  586MOL0     H79085  -3.193   8.912   4.799 -0.2379 -0.3405 -1.5725
  586MOL0     H79086  -3.080   8.817   5.059 -0.2624 -0.1349  0.2076
  586MOL0     H79087  -3.079   8.981   5.014  0.8580 -0.4851  1.1934
  586MOL0     H79088  -3.325   8.799   5.023  1.9578 -0.6370 -2.7318
  586MOL0     H79089  -3.342   8.970   5.014 -0.0536  0.3820  0.8653
  586MOL0     H79090  -3.181   8.866   5.245  0.5849 -0.1048  0.8957
  586MOL0     H79091  -3.361   8.890   5.245  0.4397 -0.8810 -1.3324
  586MOL0     H79092  -2.514   9.258   4.756  3.0383  0.5062  2.7843
  586MOL0     H79093  -2.317   9.371   4.674 -2.5119 -0.6736 -0.9211
  586MOL0     H79094  -1.941   9.402   4.429  1.4023 -0.8434 -1.4223
  586MOL0     H79095  -1.748   9.537   4.376 -1.5399 -0.0897  0.4925
  586MOL0     H79096   0.024  10.028   3.738 -0.6925  0.8422  1.0234
  586MOL0     H79097   0.257  10.124   3.671  0.6157  0.4457  5.2926
  586MOL0     H79098   0.536  10.443   3.601 -0.5336 -0.9004  0.3681
  586MOL0     H79099   0.796  10.452   3.661  1.2030 -1.4517  1.7586
  586MOL0     H79100   0.893  10.545   4.085 -0.9813  1.8353 -1.2357
  586MOL0     H79101   0.933  10.371   4.081  1.9811 -1.0322 -1.9421
  586MOL0     H79102   1.117  10.497   4.141 -0.6748 -1.1894  0.4664
  586MOL0     H79103   1.111  10.593   3.995  2.2816  0.4159  1.1664
  586MOL0     H79104   1.133  10.286   3.978  2.4240 -1.0239 -2.1665
  586MOL0     H79105   1.276  10.372   4.022  0.6231 -1.6278 -1.9638
  586MOL0     H79106   1.218  10.538   3.810 -3.1780  0.2426 -0.9884
  586MOL0     H79107   1.120  10.410   3.764  1.4431  1.2373 -1.8513
  586MOL0     H79108   1.528  10.298   3.683  1.3535  2.2609 -0.9434
  586MOL0     H79109   0.707  10.402   4.065  0.6262 -0.7267 -0.1668
  586MOL0     H79110   0.461  10.394   4.020 -0.4462 -1.4328 -1.3462
  587MOL0     O79111   7.585   4.504   8.320  0.9045 -0.5024 -0.1836
  587MOL0     C79112   7.620   4.509   8.439  0.6866 -0.1665 -0.5580
  587MOL0     O79113   7.537   4.541   8.537  0.3648 -0.3977 -0.3168
  587MOL0     C79114   7.412   4.589   8.513  0.0113  0.1578 -0.3714
  587MOL0     C79115   7.307   4.498   8.530  0.1936 -0.3521  0.7350
  587MOL0     C79116   7.174   4.547   8.532 -0.3180 -0.4581 -0.4226
  587MOL0     C79117   7.152   4.686   8.511 -0.7897 -0.0564  0.5234
  587MOL0     O79118   7.021   4.715   8.517 -1.0985 -0.0999  0.2202
  587MOL0     C79119   6.974   4.851   8.496  0.1642 -0.5015 -0.7864
  587MOL0     C79120   6.825   4.852   8.499  0.2023 -0.0427  0.0753
  587MOL0     C79121   6.749   4.768   8.401 -0.7801  0.5205 -0.6497
  587MOL0     C79122   6.599   4.781   8.418  0.2591 -0.5469  0.5498
  587MOL0     C79123   6.533   4.730   8.288 -0.8298 -0.9245 -0.0370
  587MOL0     C79124   6.410   4.652   8.323 -0.9485  0.0522  0.0464
  587MOL0     C79125   6.450   4.518   8.379 -0.4480  0.5497  1.3537
  587MOL0     C79126   6.345   4.411   8.376 -0.4579  0.5493  0.9205
  587MOL0     N79127   6.298   4.378   8.509  0.2801 -0.3707 -0.1971
  587MOL0     C79128   6.176   4.402   8.579  0.0655 -0.3364 -0.2373
  587MOL0     C79129   6.198   4.354   8.702  0.2016 -0.1621 -0.0058
  587MOL0     C79130   6.097   4.345   8.814  0.7837 -0.3097 -0.1422
  587MOL0     C79131   5.980   4.451   8.799 -0.2773  0.6902 -0.6829
  587MOL0     C79132   5.877   4.436   8.913 -0.1378 -0.7802 -0.9234
  587MOL0     C79133   5.770   4.326   8.877  0.3263 -0.0174 -0.2039
  587MOL0     O79134   5.677   4.323   8.996 -0.2218 -0.2227  0.4409
  587MOL0     C79135   5.551   4.277   8.977 -0.6466 -0.6647 -0.2935
  587MOL0     C79136   5.513   4.199   8.867  0.2337  1.1820  0.3668
  587MOL0     C79137   5.380   4.145   8.863 -0.0589 -1.4493 -0.5584
  587MOL0     C79138   5.348   4.079   8.731  0.3498 -0.0863 -0.2177
  587MOL0     C79139   5.282   4.179   8.956 -0.6061 -0.3803 -0.3274
  587MOL0     C79140   5.139   4.147   8.944 -0.3662  1.4595  0.2934
  587MOL0     O79141   5.071   4.144   9.069 -0.3551  0.0485  0.8029
  587MOL0     C79142   4.933   4.152   9.054 -0.4032 -0.0766  0.0006
  587MOL0     C79143   4.876   4.275   9.022  0.1353  0.7666  0.1114
  587MOL0     C79144   4.740   4.285   9.000 -0.8083 -0.2644  0.2717
  587MOL0     C79145   4.655   4.180   8.992 -0.3553  0.9234 -0.2769
  587MOL0     O79146   4.527   4.206   8.960 -0.0189  0.5756 -0.1386
  587MOL0     C79147   4.451   4.093   8.907  0.2632 -0.2922  0.0725
  587MOL0     C79148   4.299   4.131   8.872 -0.2161 -0.4227 -0.3573
  587MOL0     C79149   4.219   4.193   8.999 -0.8385 -0.1483  0.6287
  587MOL0     C79150   4.072   4.183   8.990  0.1971 -0.0722  0.2510
  587MOL0     C79151   4.019   4.259   9.112  0.2852 -0.2551  0.8352
  587MOL0     C79152   3.860   4.277   9.101  0.1139 -0.2912  0.2568
  587MOL0     C79153   3.786   4.135   9.102 -0.4185  0.1021  0.0366
  587MOL0     C79154   3.640   4.154   9.131 -0.3682 -0.1420 -0.7442
  587MOL0    Cl79155   3.611   4.166   9.311 -0.0847  0.3150  0.1514
  587MOL0     C79156   4.715   4.047   9.010 -0.2394 -0.3512  0.4666
  587MOL0     C79157   4.856   4.042   9.046 -0.2232  0.0217 -0.6036
  587MOL0     O79158   5.088   4.119   8.836  0.7568  0.1208  0.0362
  587MOL0     C79159   5.322   4.257   9.070  0.4430 -0.0305 -1.1073
  587MOL0     C79160   5.457   4.299   9.077 -0.1345  0.0661  0.4480
  587MOL0     N79161   6.318   4.309   8.707 -0.6347  0.4649 -0.9718
  587MOL0     N79162   6.377   4.314   8.600 -0.1551 -0.9823  0.7931
  587MOL0     C79163   7.254   4.777   8.492  0.4205 -0.5039 -0.1509
  587MOL0     C79164   7.383   4.728   8.495  0.6743  0.2446  0.9790
  587MOL0     C79165   7.754   4.454   8.476  0.5125 -0.6488  0.4274
  587MOL0     C79166   7.809   4.436   8.603  0.4210 -0.7769  0.1376
  587MOL0     C79167   7.943   4.400   8.609  0.6048 -0.2661  0.5929
  587MOL0     C79168   8.023   4.371   8.501 -1.0962 -0.0141  0.4469
  587MOL0     O79169   8.156   4.357   8.524 -0.2010  0.3155 -0.8893
  587MOL0     C79170   8.188   4.254   8.624 -0.4248  0.6719 -1.1729
  587MOL0     C79171   8.310   4.288   8.703 -0.1926  0.7804  0.5434
  587MOL0     C79172   8.437   4.271   8.620 -0.3077  1.0650 -0.0685
  587MOL0     C79173   8.573   4.273   8.685 -0.7621  0.2896 -0.1433
  587MOL0     C79174   8.619   4.413   8.718 -0.5650 -0.3427 -0.2191
  587MOL0     C79175   8.671   4.515   8.745 -0.0273 -0.0575 -1.4962
  587MOL0     C79176   7.966   4.373   8.367  0.4372  0.1784  0.3444
  587MOL0     C79177   7.833   4.409   8.361  0.6115 -0.7872 -0.1391
  587MOL0     H79178   7.334   4.395   8.547 -0.4241 -0.7569 -0.6238
  587MOL0     H79179   7.084   4.488   8.541  0.0011 -0.9988 -0.6939
  587MOL0     H79180   7.035   4.915   8.561 -1.1246 -0.5647  0.5267
  587MOL0     H79181   7.009   4.888   8.400  0.1730  0.2253 -0.5083
  587MOL0     H79182   6.796   4.812   8.597  0.9254 -0.8905 -0.0480
  587MOL0     H79183   6.793   4.957   8.496 -1.6685 -0.5494  0.9783
  587MOL0     H79184   6.776   4.803   8.301  1.4717  0.9463  0.0573
  587MOL0     H79185   6.781   4.663   8.401 -0.8448  0.3947  2.4706
  587MOL0     H79186   6.573   4.735   8.514  0.7579 -1.8460  0.0828
  587MOL0     H79187   6.570   4.887   8.424 -1.4925 -1.0071  0.7374
  587MOL0     H79188   6.501   4.811   8.222  0.3324 -0.2751  0.1804
  587MOL0     H79189   6.605   4.664   8.239  0.1172  0.3052 -0.3660
  587MOL0     H79190   6.343   4.709   8.388  0.9452  0.6720  1.5441
  587MOL0     H79191   6.360   4.632   8.228 -1.9090 -1.6079  0.8503
  587MOL0     H79192   6.540   4.480   8.331 -0.2224 -0.0556  2.2351
  587MOL0     H79193   6.483   4.533   8.482 -1.9986  3.1355  1.5784
  587MOL0     H79194   6.389   4.325   8.324 -1.3173  0.3505  0.5033
  587MOL0     H79195   6.264   4.441   8.309  1.2493  1.0865 -1.0288
  587MOL0     H79196   6.090   4.453   8.536  1.3525  2.2460  0.0272
  587MOL0     H79197   6.050   4.246   8.816 -0.2823  0.1759  3.1700
  587MOL0     H79198   6.147   4.367   8.908  3.2330  1.0703 -1.6602
  587MOL0     H79199   5.924   4.432   8.707 -0.8764 -1.8612  0.1260
  587MOL0     H79200   6.016   4.553   8.790 -0.4088  0.7069 -1.0078
  587MOL0     H79201   5.815   4.521   8.943 -0.9599 -1.9988  1.0008
  587MOL0     H79202   5.931   4.403   9.002 -1.8986 -2.2624 -0.3542
  587MOL0     H79203   5.813   4.228   8.854 -4.8118 -2.9278  1.0965
  587MOL0     H79204   5.722   4.371   8.790 -0.6042  0.0732  0.3507
  587MOL0     H79205   5.572   4.163   8.784 -2.5236  0.8959 -1.5999
  587MOL0     H79206   5.272   4.131   8.673 -1.6536  0.2585  2.5393
  587MOL0     H79207   5.433   4.090   8.662  0.9578  2.1014  0.8119
  587MOL0     H79208   5.316   3.975   8.745  0.4892 -0.0249  0.6192
  587MOL0     H79209   4.936   4.366   9.022 -1.4643  1.8742 -0.0345
  587MOL0     H79210   4.705   4.385   8.978  0.0662 -0.4633 -2.4028
  587MOL0     H79211   4.497   4.069   8.811 -3.0844 -0.6063 -1.5897
  587MOL0     H79212   4.456   4.012   8.981  1.3470 -1.1861 -0.9419
  587MOL0     H79213   4.298   4.201   8.788  1.1471  0.1683  0.0938
  587MOL0     H79214   4.244   4.044   8.835  0.5715 -1.5820  1.0689
  587MOL0     H79215   4.236   4.301   9.004 -0.9172 -0.1841  4.0109
  587MOL0     H79216   4.250   4.138   9.088  0.2234 -0.4768  0.0616
  587MOL0     H79217   4.028   4.218   8.896 -2.1609  0.3151  1.4218
  587MOL0     H79218   4.051   4.078   9.013 -1.0368  0.0168 -0.3885
  587MOL0     H79219   4.074   4.353   9.126  1.4549 -0.3742 -2.2945
  587MOL0     H79220   4.036   4.211   9.209  3.8921  1.5054  1.2318
  587MOL0     H79221   3.830   4.332   9.191 -1.7664 -0.0893 -0.4605
  587MOL0     H79222   3.829   4.320   9.006 -2.0239 -3.5553 -0.6798
  587MOL0     H79223   3.846   4.068   9.165 -0.5690  0.9617  1.1337
  587MOL0     H79224   3.793   4.093   9.001 -6.1325  1.4904 -1.2475
  587MOL0     H79225   3.592   4.061   9.096  1.2980 -0.7211 -1.5903
  587MOL0     H79226   3.603   4.243   9.081 -3.6868 -1.6772 -1.3095
  587MOL0     H79227   4.653   3.958   9.008  0.3276 -0.9135  3.2699
  587MOL0     H79228   4.896   3.941   9.058  0.3443  0.3696  0.5784
  587MOL0     H79229   5.266   4.281   9.160  0.2728 -0.2362 -1.1588
  587MOL0     H79230   5.498   4.347   9.165  1.4253 -2.5630  1.2745
  587MOL0     H79231   7.232   4.884   8.487 -1.2875 -0.7846  0.5273
  587MOL0     H79232   7.469   4.792   8.483 -0.4346  2.1204  2.4849
  587MOL0     H79233   7.751   4.454   8.693  0.7321  1.2043 -0.0147
  587MOL0     H79234   7.989   4.415   8.706  1.6163  3.3972 -0.2736
  587MOL0     H79235   8.113   4.259   8.704 -0.0346  3.3034 -0.8658
  587MOL0     H79236   8.193   4.155   8.578  2.5284  0.0521  0.2562
  587MOL0     H79237   8.322   4.220   8.788 -2.2058  1.1106  1.1526
  587MOL0     H79238   8.315   4.389   8.744  3.0052  1.6531 -1.6392
  587MOL0     H79239   8.433   4.352   8.547  0.2237 -0.1554 -1.4982
  587MOL0     H79240   8.422   4.177   8.567  1.8419  0.8390 -0.3359
  587MOL0     H79241   8.648   4.244   8.611 -0.5982  1.3238 -0.3897
  587MOL0     H79242   8.575   4.205   8.770  0.9256  0.5872  0.0901
  587MOL0     H79243   8.719   4.607   8.768 -1.8725  0.1128  2.6391
  587MOL0     H79244   8.031   4.351   8.283 -1.8495  0.2092 -1.5544
  587MOL0     H79245   7.781   4.422   8.267 -0.6157  0.9613  0.7202
  588MOL0     O79246   5.780   2.568  10.690  0.6049  0.2004 -0.0197
  588MOL0     C79247   5.872   2.598  10.615  0.4118  0.4267 -0.2276
  588MOL0     O79248   5.863   2.668  10.496 -0.0960 -0.3908 -0.4408
  588MOL0     C79249   5.746   2.727  10.457  0.0924  0.2683  0.4192
  588MOL0     C79250   5.613   2.688  10.475  0.2516  0.0672 -0.1372
  588MOL0     C79251   5.505   2.745  10.407  0.0809 -0.8162 -0.3474
  588MOL0     C79252   5.520   2.846  10.311  0.8112  0.2320  0.6959
  588MOL0     O79253   5.423   2.909  10.238  0.6641  0.5595  0.0825
  588MOL0     C79254   5.279   2.868  10.267 -0.0139  0.5909 -0.2074
  588MOL0     C79255   5.187   2.953  10.183  0.6944  0.6620  0.4942
  588MOL0     C79256   5.231   3.100  10.186  1.1544 -0.1742  0.2334
  588MOL0     C79257   5.133   3.168  10.089 -0.0065 -0.6865 -1.2614
  588MOL0     C79258   4.996   3.196  10.163 -0.3846 -0.0249  1.0643
  588MOL0     C79259   4.931   3.318  10.098 -0.4878  0.5128 -0.9028
  588MOL0     C79260   4.811   3.366  10.175 -0.1993 -0.0120  0.0435
  588MOL0     C79261   4.755   3.509  10.138 -0.5598  0.0414  0.1188
  588MOL0     N79262   4.680   3.514  10.018 -1.0404 -0.1741 -0.0414
  588MOL0     C79263   4.565   3.440   9.984 -0.2425 -0.9341 -0.1311
  588MOL0     C79264   4.521   3.488   9.864  0.2123 -1.0108 -0.6249
  588MOL0     C79265   4.385   3.447   9.808 -0.1084  0.0232 -0.3619
  588MOL0     C79266   4.379   3.298   9.762  0.0820 -0.1514 -0.4988
  588MOL0     C79267   4.239   3.273   9.700  0.0219 -1.4245  0.4121
  588MOL0     C79268   4.239   3.144   9.628  0.0975 -0.3778  0.3411
  588MOL0     O79269   4.242   3.040   9.726 -0.7361  0.0838  0.5504
  588MOL0     C79270   4.124   2.993   9.790  0.0133 -0.0184 -0.7684
  588MOL0     C79271   4.149   2.887   9.879  0.5536 -0.6010 -0.0234
  588MOL0     C79272   4.059   2.846   9.973 -0.2381  0.1008 -1.1293
  588MOL0     C79273   4.114   2.743  10.070 -0.2292 -0.2266  0.0433
  588MOL0     C79274   3.926   2.881   9.956  0.4235 -1.1033 -0.6482
  588MOL0     C79275   3.807   2.816  10.025 -0.0495  0.4462  0.4947
  588MOL0     O79276   3.687   2.841   9.956  0.1451 -0.0712  0.1762
  588MOL0     C79277   3.572   2.778   9.986 -0.5885  0.5621 -0.0754
  588MOL0     C79278   3.567   2.637  10.015  0.7476 -0.0079  0.3399
  588MOL0     C79279   3.447   2.566  10.043  0.0452 -1.2645 -0.3127
  588MOL0     C79280   3.324   2.637  10.034  0.4284  0.2504  0.9075
  588MOL0     O79281   3.194   2.587  10.050 -0.3420  0.2050  0.4536
  588MOL0     C79282   3.182   2.485  10.152 -0.0956 -0.9956 -0.3391
  588MOL0     C79283   3.053   2.401  10.134  0.3150  0.1950 -0.3958
  588MOL0     C79284   2.936   2.502  10.146 -0.6074 -0.2582 -0.7429
  588MOL0     C79285   2.813   2.432  10.209 -0.2628 -0.9900  0.3965
  588MOL0     C79286   2.684   2.501  10.176  0.4276 -0.4059 -0.9689
  588MOL0     C79287   2.568   2.467  10.277 -0.0002 -0.0010 -0.0083
  588MOL0     C79288   2.446   2.558  10.263 -0.2500 -1.2495  0.1682
  588MOL0     C79289   2.356   2.514  10.147  0.2401 -0.8018 -0.8461
  588MOL0    Cl79290   2.251   2.385  10.190  0.0275  0.2300 -0.2192
  588MOL0     C79291   3.332   2.773  10.002 -0.0481  0.4244  0.5766
  588MOL0     C79292   3.450   2.844   9.977 -0.5992  0.4315  0.2460
  588MOL0     O79293   3.818   2.743  10.118  0.5626  0.0627  0.0620
  588MOL0     C79294   3.889   2.972   9.854  0.0754 -1.1375  0.7306
  588MOL0     C79295   3.992   3.031   9.772 -0.1017  0.6904 -0.6499
  588MOL0     N79296   4.599   3.597   9.819 -0.2832  0.6223 -0.7289
  588MOL0     N79297   4.695   3.599   9.912 -0.3641  0.1567 -1.3347
  588MOL0     C79298   5.652   2.885  10.289  0.2271 -0.2102  0.5984
  588MOL0     C79299   5.763   2.827  10.358 -0.5709  0.4373  0.1594
  588MOL0     C79300   6.012   2.552  10.665  0.9015 -0.6108 -0.0440
  588MOL0     C79301   6.027   2.460  10.765 -0.1814  0.3913  1.0705
  588MOL0     C79302   6.148   2.418  10.811  0.2656 -0.9358 -0.9074
  588MOL0     C79303   6.265   2.471  10.755 -0.5957  0.9477  0.3540
  588MOL0     O79304   6.397   2.442  10.799 -0.2990 -0.0277  0.1385
  588MOL0     C79305   6.414   2.348  10.908  0.3758 -0.5049  1.1302
  588MOL0     C79306   6.544   2.359  10.981 -0.0799 -0.4079  0.7611
  588MOL0     C79307   6.567   2.483  11.075 -0.0314 -0.0095  0.6362
  588MOL0     C79308   6.484   2.469  11.201  0.1518  0.4370  0.0855
  588MOL0     C79309   6.518   2.567  11.307  0.0043  0.5557 -0.0953
  588MOL0     C79310   6.531   2.656  11.387 -0.3560 -0.0695  0.1251
  588MOL0     C79311   6.255   2.575  10.657 -0.4804  0.0612 -0.4546
  588MOL0     C79312   6.134   2.607  10.610  0.0665  0.1145  0.3925
  588MOL0     H79313   5.576   2.624  10.554  2.3417  0.1964  1.0254
  588MOL0     H79314   5.401   2.720  10.428 -0.9583  2.4116 -1.0680
  588MOL0     H79315   5.260   2.762  10.245 -0.6106  0.3034  1.5878
  588MOL0     H79316   5.258   2.880  10.373  0.7209  0.0161  0.0152
  588MOL0     H79317   5.198   2.921  10.078  0.8150 -1.3619  1.0799
  588MOL0     H79318   5.085   2.941  10.219  0.7930  1.9048  1.2548
  588MOL0     H79319   5.218   3.136  10.288  1.1494  2.6284 -0.6754
  588MOL0     H79320   5.333   3.111  10.148  0.2830 -1.4764 -2.8487
  588MOL0     H79321   5.188   3.257  10.055 -0.6678  0.3339  0.2351
  588MOL0     H79322   5.120   3.110   9.998  4.7873 -1.7263 -1.5311
  588MOL0     H79323   4.937   3.104  10.162  2.5531 -2.1121 -1.6669
  588MOL0     H79324   5.019   3.231  10.264  2.1095  1.0176  0.2183
  588MOL0     H79325   5.009   3.395  10.108  2.1860 -2.1337  0.2820
  588MOL0     H79326   4.916   3.314   9.990 -0.2983 -0.2650 -0.9060
  588MOL0     H79327   4.735   3.292  10.148 -2.3052  1.7335  0.8883
  588MOL0     H79328   4.816   3.367  10.285  0.2247 -2.0003  0.0870
  588MOL0     H79329   4.835   3.584  10.141  0.3801 -0.9499  0.6223
  588MOL0     H79330   4.687   3.544  10.216 -1.2178  0.5933 -0.6885
  588MOL0     H79331   4.513   3.363  10.041  1.1750 -2.0878 -0.3310
  588MOL0     H79332   4.300   3.464   9.875  0.5531  4.1016 -0.3014
  588MOL0     H79333   4.351   3.507   9.723  3.1038  2.2734 -0.2606
  588MOL0     H79334   4.389   3.238   9.853  1.5197  0.5199 -0.1854
  588MOL0     H79335   4.449   3.268   9.684 -1.7303  0.7535 -2.5897
  588MOL0     H79336   4.213   3.360   9.639 -1.3087  0.2891  3.1981
  588MOL0     H79337   4.166   3.269   9.782 -0.6367  1.7351  0.1205
  588MOL0     H79338   4.321   3.133   9.556  0.6894 -3.4612  1.3773
  588MOL0     H79339   4.150   3.130   9.565 -1.3703  0.8111  2.0332
  588MOL0     H79340   4.248   2.844   9.897 -0.6582 -3.3719  0.5364
  588MOL0     H79341   4.219   2.768  10.087  0.6420 -2.2983 -1.8645
  588MOL0     H79342   4.066   2.744  10.168  1.8566 -1.7345  1.1427
  588MOL0     H79343   4.109   2.639  10.038 -0.8053  0.3656 -1.9905
  588MOL0     H79344   3.664   2.590  10.007  0.4275 -0.3776 -2.9763
  588MOL0     H79345   3.449   2.460  10.066 -2.0913 -1.1455  0.6315
  588MOL0     H79346   3.262   2.411  10.142 -0.9803 -1.7594 -2.4008
  588MOL0     H79347   3.182   2.534  10.249 -1.8313  0.0568 -0.8373
  588MOL0     H79348   3.035   2.361  10.034 -2.2815  0.4858 -0.1172
  588MOL0     H79349   3.052   2.317  10.205  0.5325  0.2586 -0.3184
  588MOL0     H79350   2.908   2.529  10.043 -0.2957 -3.0211 -1.6296
  588MOL0     H79351   2.959   2.596  10.197  1.0418 -0.7078 -0.6132
  588MOL0     H79352   2.795   2.330  10.174  0.0634 -1.3991  1.3688
  588MOL0     H79353   2.833   2.426  10.317 -0.0394  0.5868  0.4642
  588MOL0     H79354   2.664   2.460  10.077  2.1530 -0.4270 -1.3326
  588MOL0     H79355   2.698   2.609  10.177 -1.0113 -0.0969  2.5668
  588MOL0     H79356   2.534   2.365  10.258 -0.5563 -0.3069  2.2954
  588MOL0     H79357   2.606   2.472  10.380 -3.5708 -0.5776  1.4800
  588MOL0     H79358   2.468   2.662  10.237 -3.5033 -0.7685 -1.1160
  588MOL0     H79359   2.385   2.567  10.353  0.3442  2.2820  0.3729
  588MOL0     H79360   2.417   2.482  10.063  0.9689  0.6231 -0.8959
  588MOL0     H79361   2.296   2.600  10.115 -0.2286 -0.4125  0.9355
  588MOL0     H79362   3.235   2.822   9.997  0.7033  1.9406  0.2559
  588MOL0     H79363   3.444   2.951   9.963  0.2668  0.5128  0.4234
  588MOL0     H79364   3.787   3.003   9.831 -0.0872 -2.0506  0.1929
  588MOL0     H79365   3.978   3.108   9.696  1.2508  1.4028 -0.2078
  588MOL0     H79366   5.665   2.962  10.214  0.6909 -0.3594  0.5226
  588MOL0     H79367   5.860   2.847  10.315 -0.6326 -3.6582 -2.5611
  588MOL0     H79368   5.932   2.420  10.801 -1.7802  0.2631 -2.7651
  588MOL0     H79369   6.148   2.350  10.895 -0.5428 -0.7871 -0.7825
  588MOL0     H79370   6.332   2.333  10.979 -1.4269 -0.0076 -0.7716
  588MOL0     H79371   6.428   2.249  10.863  2.1248  0.8989 -1.6728
  588MOL0     H79372   6.615   2.378  10.899 -1.3613  2.8007  0.2620
  588MOL0     H79373   6.570   2.259  11.017  1.2295  0.3367  1.9855
  588MOL0     H79374   6.548   2.579  11.027  0.6693 -0.0874  0.1906
  588MOL0     H79375   6.671   2.480  11.107  0.6290  1.9499 -1.1039
  588MOL0     H79376   6.498   2.369  11.243  0.5226  1.6013  2.9838
  588MOL0     H79377   6.376   2.484  11.186 -0.2568 -1.0996  1.1721
  588MOL0     H79378   6.543   2.727  11.466  1.1925  0.1578 -0.2861
  588MOL0     H79379   6.350   2.607  10.614  0.3259  0.0003  1.2200
  588MOL0     H79380   6.138   2.680  10.530  0.7702  1.0134  1.2119
  589MOL0     O79381   1.886   7.091   5.614  0.0251 -0.3932  0.6154
  589MOL0     C79382   1.993   7.136   5.571 -0.2180  0.2154  1.3052
  589MOL0     O79383   2.010   7.233   5.468 -0.4030  0.0736 -0.3363
  589MOL0     C79384   1.898   7.283   5.403  0.2675  0.9176 -1.0329
  589MOL0     C79385   1.869   7.243   5.265 -0.4023 -0.0079 -0.0996
  589MOL0     C79386   1.755   7.296   5.210 -0.2817 -0.4936  0.4517
  589MOL0     C79387   1.664   7.372   5.274  0.0072 -0.8655 -0.3912
  589MOL0     O79388   1.538   7.413   5.235  0.3991 -0.4360  0.2303
  589MOL0     C79389   1.488   7.360   5.111 -1.0530  0.1481 -0.2250
  589MOL0     C79390   1.534   7.437   4.992 -1.0323 -0.4494 -0.4820
  589MOL0     C79391   1.507   7.372   4.860  0.3947 -0.2803  0.0183
  589MOL0     C79392   1.363   7.317   4.837  0.7177 -0.3520 -0.3527
  589MOL0     C79393   1.251   7.424   4.841  0.6056  0.0055 -0.4600
  589MOL0     C79394   1.111   7.378   4.821  0.6800 -0.8265 -0.3806
  589MOL0     C79395   1.068   7.311   4.686  0.8136 -0.6539 -0.2805
  589MOL0     C79396   0.971   7.187   4.706  0.3027 -0.0071  0.4867
  589MOL0     N79397   0.838   7.235   4.755  0.8080  0.2001  0.3878
  589MOL0     C79398   0.751   7.319   4.682  0.1253 -0.6729 -0.1331
  589MOL0     C79399   0.641   7.327   4.766  0.1070 -0.0658 -0.7475
  589MOL0     C79400   0.519   7.408   4.766  0.1569  0.3341  0.0223
  589MOL0     C79401   0.522   7.504   4.642 -0.0203  0.8981 -0.6232
  589MOL0     C79402   0.414   7.617   4.635 -0.1115  0.2775 -0.2419
  589MOL0     C79403   0.266   7.580   4.640  0.1485  1.4059 -0.8813
  589MOL0     O79404   0.199   7.689   4.570 -0.4754  0.0606  0.3932
  589MOL0     C79405   0.062   7.679   4.536 -0.4950 -0.3396  0.5641
  589MOL0     C79406   0.006   7.791   4.476  0.9401 -0.2968  0.0273
  589MOL0     C79407  -0.129   7.797   4.450  0.3586  0.5143 -0.5879
  589MOL0     C79408  -0.169   7.910   4.370 -0.2531  0.4141 -0.1661
  589MOL0     C79409  -0.208   7.688   4.473  0.4489  0.8783  0.7459
  589MOL0     C79410  -0.352   7.677   4.437  0.2769 -0.1018  0.0057
  589MOL0     O79411  -0.429   7.784   4.466  0.2222  1.0330 -0.4357
  589MOL0     C79412  -0.558   7.766   4.508  0.0726 -0.8665  0.1946
  589MOL0     C79413  -0.610   7.661   4.576  0.0014 -0.3336 -0.5942
  589MOL0     C79414  -0.740   7.661   4.625  0.0483 -0.7015 -0.5867
  589MOL0     C79415  -0.821   7.780   4.604  0.5901  0.2811  0.5059
  589MOL0     O79416  -0.950   7.803   4.649 -0.2002  0.0577  0.6538
  589MOL0     C79417  -1.029   7.695   4.705  0.0361 -0.1555  0.3742
  589MOL0     C79418  -1.174   7.726   4.725 -0.5999 -1.5582  0.2973
  589MOL0     C79419  -1.174   7.828   4.843 -0.2357  0.1470 -0.3164
  589MOL0     C79420  -1.311   7.903   4.865  0.4519  0.3805  0.2763
  589MOL0     C79421  -1.411   7.794   4.913 -0.1652  0.0807  0.0330
  589MOL0     C79422  -1.530   7.872   4.962 -0.6106 -0.0911 -0.0707
  589MOL0     C79423  -1.640   7.776   5.015  0.1911 -0.4102 -0.8575
  589MOL0     C79424  -1.704   7.690   4.909 -0.2480 -0.2178  0.9045
  589MOL0    Cl79425  -1.813   7.800   4.813  0.3316  0.1924 -0.0468
  589MOL0     C79426  -0.772   7.886   4.527  0.3690 -0.1455  0.1197
  589MOL0     C79427  -0.641   7.882   4.484 -0.2235 -0.4918  0.2696
  589MOL0     O79428  -0.383   7.577   4.375  0.4032 -0.5391 -0.0150
  589MOL0     C79429  -0.155   7.575   4.535  0.0693  0.5138  0.0558
  589MOL0     C79430  -0.021   7.566   4.562 -0.0169 -0.1377  0.7368
  589MOL0     N79431   0.676   7.262   4.885 -0.1573 -0.3161 -0.0876
  589MOL0     N79432   0.795   7.209   4.879  0.8527 -0.7149  0.4617
  589MOL0     C79433   1.696   7.409   5.404 -0.5261  0.3803 -0.5236
  589MOL0     C79434   1.810   7.367   5.464 -0.2968  0.1139 -0.8925
  589MOL0     C79435   2.119   7.069   5.617 -0.7275 -0.1527  0.5912
  589MOL0     C79436   2.113   6.952   5.695  0.5731 -0.3394  0.4921
  589MOL0     C79437   2.221   6.872   5.725 -0.1128 -0.9346 -0.3399
  589MOL0     C79438   2.351   6.913   5.677 -1.0362 -0.8908  0.1055
  589MOL0     O79439   2.461   6.839   5.716 -0.7685  0.4084 -0.5397
  589MOL0     C79440   2.599   6.872   5.672  0.9996 -0.7016 -0.1488
  589MOL0     C79441   2.700   6.772   5.703  0.1303 -0.3653  0.0688
  589MOL0     C79442   2.838   6.835   5.713 -0.2503  0.0911  0.5014
  589MOL0     C79443   2.937   6.736   5.656 -0.2510  0.2219  0.2625
  589MOL0     C79444   2.921   6.601   5.714 -1.1189 -0.5709  0.1280
  589MOL0     C79445   2.902   6.487   5.743  0.7221 -0.7644  0.5421
  589MOL0     C79446   2.358   7.038   5.608 -0.8279 -0.2328 -0.2439
  589MOL0     C79447   2.245   7.118   5.582 -1.2765 -0.0011  0.6282
  589MOL0     H79448   1.932   7.173   5.211  1.3060  1.7055 -0.4548
  589MOL0     H79449   1.732   7.259   5.111  0.5087 -3.6964  1.3231
  589MOL0     H79450   1.520   7.256   5.101 -1.1237 -0.2137  2.4587
  589MOL0     H79451   1.380   7.349   5.127 -1.4115 -2.1865 -3.2979
  589MOL0     H79452   1.499   7.541   4.994  0.9144  0.2362 -0.7104
  589MOL0     H79453   1.642   7.450   5.001 -0.8437 -0.8704 -1.9552
  589MOL0     H79454   1.522   7.449   4.783 -1.3056 -0.8375 -0.9183
  589MOL0     H79455   1.576   7.287   4.858  0.5511 -0.1728  0.5671
  589MOL0     H79456   1.364   7.262   4.742  0.1755  0.4835 -0.8542
  589MOL0     H79457   1.358   7.231   4.904 -0.2728  0.0409  0.0898
  589MOL0     H79458   1.259   7.478   4.936  0.4653  2.0768 -1.5782
  589MOL0     H79459   1.274   7.495   4.762  0.6513  0.4350 -0.0661
  589MOL0     H79460   1.094   7.311   4.906 -0.6356 -0.8034 -0.6016
  589MOL0     H79461   1.037   7.457   4.837  0.7785 -0.0012 -3.3666
  589MOL0     H79462   1.016   7.388   4.628  1.2974  0.5395  0.8111
  589MOL0     H79463   1.152   7.277   4.625  0.3455 -0.1805 -1.1950
  589MOL0     H79464   0.996   7.095   4.759 -0.6570 -0.1993  0.6138
  589MOL0     H79465   0.943   7.154   4.606 -1.0306  1.8792  0.1874
  589MOL0     H79466   0.761   7.370   4.587  0.4144  2.4045  1.4309
  589MOL0     H79467   0.435   7.339   4.767  2.7567 -3.0725  1.5609
  589MOL0     H79468   0.508   7.473   4.854 -1.5986 -0.5915  0.5304
  589MOL0     H79469   0.514   7.443   4.552 -0.9873  2.8793 -1.9597
  589MOL0     H79470   0.614   7.560   4.624 -0.1694  0.1964 -4.1002
  589MOL0     H79471   0.434   7.680   4.548 -0.0865  1.8054  0.8231
  589MOL0     H79472   0.427   7.687   4.719  3.5342  0.7070 -0.9956
  589MOL0     H79473   0.232   7.546   4.738  2.9026 -1.2826 -0.7072
  589MOL0     H79474   0.255   7.490   4.580 -1.0487  0.6219  0.4578
  589MOL0     H79475   0.064   7.880   4.452 -0.0794  0.7720  1.3942
  589MOL0     H79476  -0.263   7.955   4.403  1.2571  0.9966  3.9881
  589MOL0     H79477  -0.096   7.991   4.368 -0.8377  0.9497 -0.2305
  589MOL0     H79478  -0.184   7.885   4.264 -0.8549  1.7326 -0.4023
  589MOL0     H79479  -0.540   7.581   4.599  0.3538  0.0684 -0.2475
  589MOL0     H79480  -0.773   7.586   4.696 -0.8731  1.3617  1.2751
  589MOL0     H79481  -1.023   7.621   4.625 -1.2820 -0.8983  0.9338
  589MOL0     H79482  -0.989   7.657   4.799 -1.2016  1.8469  1.8006
  589MOL0     H79483  -1.216   7.770   4.634  2.1351  0.9973  0.1284
  589MOL0     H79484  -1.221   7.634   4.762  2.2023 -2.6006  1.4785
  589MOL0     H79485  -1.105   7.911   4.826 -0.3685  0.4242  0.4434
  589MOL0     H79486  -1.148   7.781   4.938  2.2172 -0.5901 -1.2671
  589MOL0     H79487  -1.294   7.983   4.937  0.4273  0.5851  0.0565
  589MOL0     H79488  -1.348   7.941   4.769 -0.5644 -2.9407 -0.8052
  589MOL0     H79489  -1.378   7.725   4.991 -1.4811  0.2235  0.7478
  589MOL0     H79490  -1.447   7.723   4.837 -0.7007 -0.5234  0.8341
  589MOL0     H79491  -1.503   7.935   5.047  2.3896  0.6030 -1.4216
  589MOL0     H79492  -1.566   7.936   4.882 -1.1724 -1.1403 -0.6882
  589MOL0     H79493  -1.714   7.838   5.067  2.7023  1.6451  0.4692
  589MOL0     H79494  -1.597   7.710   5.090  0.2673 -0.5382 -1.0124
  589MOL0     H79495  -1.764   7.619   4.966 -2.7688  1.5217  0.5928
  589MOL0     H79496  -1.641   7.626   4.847  0.7626 -0.6637  2.3391
  589MOL0     H79497  -0.834   7.973   4.505  0.4806 -0.5458 -2.0250
  589MOL0     H79498  -0.608   7.971   4.431  0.0579 -0.0235  1.1967
  589MOL0     H79499  -0.225   7.499   4.566  0.2450  0.0558 -0.6412
  589MOL0     H79500   0.014   7.477   4.613  1.4432 -0.5990 -0.9743
  589MOL0     H79501   1.623   7.471   5.455  1.4366  0.8863  1.8802
  589MOL0     H79502   1.821   7.407   5.565 -1.0378  0.0624 -0.7858
  589MOL0     H79503   2.014   6.922   5.726 -1.0587  1.7418 -2.2544
  589MOL0     H79504   2.197   6.783   5.783  1.9904 -3.0206 -2.4546
  589MOL0     H79505   2.598   6.899   5.566  4.8324  1.6196  0.2180
  589MOL0     H79506   2.630   6.965   5.720  0.0124 -0.1959 -0.4622
  589MOL0     H79507   2.691   6.692   5.629 -1.4445 -2.0150  1.9157
  589MOL0     H79508   2.676   6.727   5.800  0.0905 -0.0725  0.1959
  589MOL0     H79509   2.867   6.851   5.817  1.8315 -0.6764  0.1014
  589MOL0     H79510   2.845   6.923   5.649 -2.2879 -0.3975 -0.4667
  589MOL0     H79511   3.040   6.768   5.673  0.3710 -2.1013  1.2065
  589MOL0     H79512   2.921   6.724   5.548  1.5106  2.0996 -0.2812
  589MOL0     H79513   2.887   6.383   5.764 -3.0704 -0.4453  0.1598
  589MOL0     H79514   2.459   7.074   5.589 -0.4760 -1.3868 -0.6715
  589MOL0     H79515   2.264   7.204   5.519  0.0158 -1.3138 -0.8692
  590MOL0     O79516  10.474   9.798  10.902  0.0623  0.1738 -0.6216
  590MOL0     C79517  10.542   9.812  10.801  1.1071 -0.4481  0.2542
  590MOL0     O79518  10.504   9.883  10.694  0.2046  0.2981  0.4240
  590MOL0     C79519  10.371   9.925  10.700 -0.6854  0.6807 -0.3758
  590MOL0     C79520  10.330  10.035  10.778  0.8116  1.0891  1.2717
  590MOL0     C79521  10.195  10.084  10.771  0.3598  0.2762  0.1455
  590MOL0     C79522  10.095  10.011  10.698  0.0313  0.5106  0.6551
  590MOL0     O79523   9.971  10.070  10.701  0.5349 -0.0851 -0.0605
  590MOL0     C79524   9.874   9.978  10.654 -0.0032  0.2244  0.5448
  590MOL0     C79525   9.754  10.070  10.643  0.0002 -0.3028  0.1640
  590MOL0     C79526   9.628  10.000  10.588 -0.3275  0.2080  0.0155
  590MOL0     C79527   9.513  10.031  10.682 -0.0386 -0.1373 -0.8879
  590MOL0     C79528   9.383   9.969  10.636  0.1538 -0.1702 -0.0702
  590MOL0     C79529   9.267  10.000  10.744  0.0211 -0.5084  0.5407
  590MOL0     C79530   9.127   9.956  10.695 -0.7084  1.0349  0.0009
  590MOL0     C79531   9.001  10.048  10.714  0.2638  0.2970 -0.3343
  590MOL0     N79532   8.887  10.005  10.631  0.0517  0.7452 -0.4844
  590MOL0     C79533   8.799  10.086  10.569  0.3170  0.3159 -0.0157
  590MOL0     C79534   8.711  10.003  10.498 -0.0670 -0.1777  0.6280
  590MOL0     C79535   8.604  10.047  10.410  0.1830  0.7384 -0.1487
  590MOL0     C79536   8.477  10.068  10.485  0.2720 -0.0775 -0.6356
  590MOL0     C79537   8.432   9.945  10.568 -0.8010  0.1052 -0.3603
  590MOL0     C79538   8.287   9.945  10.610  0.8556 -0.1053 -0.4157
  590MOL0     O79539   8.253  10.063  10.681  1.0465 -0.3803  0.2721
  590MOL0     C79540   8.129  10.116  10.652 -0.0109  0.5665 -0.1353
  590MOL0     C79541   8.117  10.256  10.614 -0.0022 -0.9177  0.1562
  590MOL0     C79542   7.992  10.309  10.580 -0.7653  0.1187  0.2839
  590MOL0     C79543   7.986  10.455  10.548  0.1356 -0.2396 -0.7575
  590MOL0     C79544   7.878  10.230  10.592  0.3453 -0.2303 -0.3239
  590MOL0     C79545   7.741  10.288  10.575  0.2614 -0.2261  0.3536
  590MOL0     O79546   7.654  10.210  10.498 -0.1262 -0.2637  0.3566
  590MOL0     C79547   7.520  10.219  10.503  0.1969  0.4880  0.2225
  590MOL0     C79548   7.451  10.124  10.425  0.2086 -0.2032 -0.1641
  590MOL0     C79549   7.313  10.120  10.422  0.7405 -0.4954 -0.0439
  590MOL0     C79550   7.235  10.215  10.490 -0.6074 -0.4738  0.3532
  590MOL0     O79551   7.100  10.203  10.473  0.5134  0.6255 -0.6623
  590MOL0     C79552   7.033  10.108  10.558  0.8746  0.4256  0.9110
  590MOL0     C79553   6.923  10.043  10.469 -0.3556  0.4020 -0.4973
  590MOL0     C79554   6.812  10.129  10.400 -0.4221 -0.2991  0.4650
  590MOL0     C79555   6.729  10.041  10.317  1.4560  0.1130  0.0554
  590MOL0     C79556   6.619  10.105  10.245  0.4833  0.7843  0.2197
  590MOL0     C79557   6.552  10.004  10.154 -0.0001  0.5671 -0.4689
  590MOL0     C79558   6.427  10.063  10.093  1.4203  0.1082  1.1033
  590MOL0     C79559   6.360   9.967  10.000 -0.8864  0.2696  0.0033
  590MOL0    Cl79560   6.205  10.028   9.940 -0.1073 -0.2008  0.2436
  590MOL0     C79561   7.305  10.315  10.559 -0.9647  0.3770 -0.1450
  590MOL0     C79562   7.443  10.315  10.575  0.1743  0.1215 -0.2747
  590MOL0     O79563   7.722  10.388  10.637  1.1388 -0.3591  0.0543
  590MOL0     C79564   7.892  10.099  10.639 -0.2578 -0.4727  0.6441
  590MOL0     C79565   8.010  10.045  10.662 -1.1256  1.4431 -0.0558
  590MOL0     N79566   8.768   9.875  10.499 -0.0041  0.3175  0.5454
  590MOL0     N79567   8.871   9.875  10.584  0.2644 -0.2260  0.6871
  590MOL0     C79568  10.138   9.889  10.638  0.0808  0.1663  0.5519
  590MOL0     C79569  10.275   9.856  10.627  0.0479  0.1428  0.5898
  590MOL0     C79570  10.669   9.730  10.794  0.0299 -0.8001 -1.0516
  590MOL0     C79571  10.748   9.715  10.674 -0.4329 -0.6697  0.3914
  590MOL0     C79572  10.852   9.619  10.660 -0.3206  0.7972  0.7499
  590MOL0     C79573  10.895   9.544  10.764  0.1244  0.0261 -0.2174
  590MOL0     O79574  10.978   9.443  10.770 -0.2184  0.1621  0.4789
  590MOL0     C79575  11.062   9.408  10.669 -0.6483 -0.3789 -0.3361
  590MOL0     C79576  11.179   9.509  10.679  0.8201  0.3719  0.3283
  590MOL0     C79577  11.312   9.459  10.625 -0.0780  0.3011  0.7526
  590MOL0     C79578  11.400   9.373  10.709  0.0085  0.1787 -0.2874
  590MOL0     C79579  11.536   9.370  10.649 -0.7449  0.9958 -0.4675
  590MOL0     C79580  11.647   9.354  10.598 -0.0337  0.4274 -0.2809
  590MOL0     C79581  10.816   9.559  10.882 -1.0681 -0.3770 -0.0710
  590MOL0     C79582  10.709   9.644  10.903 -0.2952  0.1982  0.5357
  590MOL0     H79583  10.415  10.076  10.832  1.4836 -1.2834  2.1161
  590MOL0     H79584  10.172  10.172  10.830  1.4543  1.1298 -0.6433
  590MOL0     H79585   9.900   9.933  10.557  2.0510 -0.9917  1.5740
  590MOL0     H79586   9.858   9.897  10.725 -0.7674 -1.4726 -1.4369
  590MOL0     H79587   9.742  10.099  10.748  1.3773 -2.6017  1.0355
  590MOL0     H79588   9.772  10.162  10.588 -3.6840 -0.8713 -2.3337
  590MOL0     H79589   9.597  10.033  10.489  0.0762 -2.0086 -0.9226
  590MOL0     H79590   9.642   9.891  10.579 -1.8297  0.0953 -1.3634
  590MOL0     H79591   9.536   9.981  10.777  1.6010 -0.7716 -1.5868
  590MOL0     H79592   9.501  10.137  10.707 -0.9253  0.3265 -3.0701
  590MOL0     H79593   9.357  10.019  10.542  0.4602 -0.3756 -0.2683
  590MOL0     H79594   9.392   9.863  10.611  0.7741 -0.1854  0.2038
  590MOL0     H79595   9.294   9.945  10.835 -1.2514 -0.3019  1.0606
  590MOL0     H79596   9.257  10.107  10.760 -1.6242 -0.5279 -0.1587
  590MOL0     H79597   9.139   9.940  10.588  0.9364  1.3790  0.0952
  590MOL0     H79598   9.109   9.861  10.746 -2.2791  0.3491 -1.7451
  590MOL0     H79599   9.013  10.153  10.686 -0.7691  0.4702 -0.1593
  590MOL0     H79600   8.963  10.029  10.815 -2.2835 -3.6068 -1.7924
  590MOL0     H79601   8.794  10.195  10.576 -1.1534  0.4334 -2.0698
  590MOL0     H79602   8.630  10.142  10.362  2.4863  0.5520  0.6042
  590MOL0     H79603   8.584   9.975  10.331  0.9184 -0.5303  0.7881
  590MOL0     H79604   8.388  10.091  10.426 -0.8738  0.5897  1.2520
  590MOL0     H79605   8.487  10.150  10.558  4.4514 -0.3119 -0.7103
  590MOL0     H79606   8.497   9.929  10.654 -2.1787 -1.8715  0.3927
  590MOL0     H79607   8.459   9.864  10.500  1.5123  2.2815 -2.2186
  590MOL0     H79608   8.276   9.852  10.666 -1.5188 -1.5748 -3.0255
  590MOL0     H79609   8.222   9.932  10.523 -1.2951 -1.7912  1.3265
  590MOL0     H79610   8.217  10.298  10.607  0.3524 -1.6604  0.5448
  590MOL0     H79611   7.960  10.521  10.632 -0.7396  0.7314 -1.7628
  590MOL0     H79612   8.085  10.482  10.509  0.5067 -1.1788 -0.4868
  590MOL0     H79613   7.914  10.484  10.472 -0.4909  2.7352  0.8032
  590MOL0     H79614   7.504  10.045  10.373 -0.7330 -2.2657  1.8279
  590MOL0     H79615   7.250  10.051  10.367 -2.8072  3.0250 -0.8126
  590MOL0     H79616   7.101  10.024  10.573  2.3590  0.9906 -1.9713
  590MOL0     H79617   6.991  10.136  10.655 -0.6099 -0.5874  0.5973
  590MOL0     H79618   6.976  10.007  10.381 -2.6697  1.4601 -2.4603
  590MOL0     H79619   6.871   9.957  10.513  2.0007 -0.3001  1.0820
  590MOL0     H79620   6.863  10.200  10.334 -0.1163  0.0149  1.0302
  590MOL0     H79621   6.759  10.190  10.473  3.6252  0.6632  2.8721
  590MOL0     H79622   6.796  10.004  10.239 -0.2766  0.7981 -1.8511
  590MOL0     H79623   6.694   9.968  10.391  0.3988  2.2923  1.8167
  590MOL0     H79624   6.654  10.180  10.173  1.5844  0.9625  0.9302
  590MOL0     H79625   6.547  10.145  10.318  0.3111 -0.1797  0.5857
  590MOL0     H79626   6.621   9.967  10.077  0.2367 -0.8422  0.3841
  590MOL0     H79627   6.523   9.916  10.212 -0.0102  1.2459  0.5688
  590MOL0     H79628   6.453  10.160  10.049 -0.5118  0.8741  1.5969
  590MOL0     H79629   6.351  10.107  10.157 -0.5681 -0.6225 -0.6487
  590MOL0     H79630   6.347   9.867  10.042 -3.8000  0.7091  0.3111
  590MOL0     H79631   6.422   9.949   9.911  0.5507 -1.8063  1.3108
  590MOL0     H79632   7.258  10.401  10.607  0.8234 -0.5355  3.6230
  590MOL0     H79633   7.486  10.392  10.637 -0.1461  0.7255 -0.7852
  590MOL0     H79634   7.802  10.040  10.638 -0.5379 -0.0473  0.1142
  590MOL0     H79635   8.012   9.947  10.708 -0.5332  1.6173  0.3034
  590MOL0     H79636  10.064   9.821  10.596  1.8712  0.6578 -3.8921
  590MOL0     H79637  10.305   9.777  10.559 -1.4067 -0.3528  0.5005
  590MOL0     H79638  10.715   9.757  10.580  3.0989  2.0933  0.1567
  590MOL0     H79639  10.886   9.605  10.557 -1.2175  0.7051  0.4638
  590MOL0     H79640  11.093   9.306  10.695  0.7010  0.2251  0.5211
  590MOL0     H79641  11.026   9.424  10.567  1.5073  2.5096 -0.7721
  590MOL0     H79642  11.186   9.551  10.780  0.5552 -1.1967  1.0171
  590MOL0     H79643  11.149   9.590  10.612 -0.3557  0.6733  1.1786
  590MOL0     H79644  11.380   9.541  10.603 -2.0985  1.6787 -0.7927
  590MOL0     H79645  11.287   9.399  10.537  2.0917  0.3331  0.0655
  590MOL0     H79646  11.357   9.273  10.702  0.6258  0.0456 -3.1823
  590MOL0     H79647  11.405   9.408  10.812 -0.2351 -1.5128  0.3383
  590MOL0     H79648  11.740   9.335  10.547  0.2546  1.0091  0.0167
  590MOL0     H79649  10.850   9.487  10.956  0.8137 -1.5810 -1.9717
  590MOL0     H79650  10.660   9.647  10.999  1.8259 -1.1656  1.7401
  591MOL0     O79651   7.965   5.788   7.733 -0.2823  0.3964  0.0659
  591MOL0     C79652   7.967   5.833   7.848  0.1507  0.0480 -0.2041
  591MOL0     O79653   7.848   5.840   7.925  0.0434 -0.2152 -0.2185
  591MOL0     C79654   7.733   5.768   7.877  0.0976  0.3533  0.1161
  591MOL0     C79655   7.620   5.837   7.853  0.7485 -0.2984 -0.2529
  591MOL0     C79656   7.504   5.771   7.804 -0.3416  0.0764 -0.4170
  591MOL0     C79657   7.502   5.630   7.783 -0.4720  0.0204  0.0321
  591MOL0     O79658   7.394   5.569   7.724 -0.2001 -0.2888  0.0471
  591MOL0     C79659   7.361   5.432   7.756  0.4217 -0.5145  0.1305
  591MOL0     C79660   7.211   5.409   7.745 -0.9928 -0.2252 -0.5955
  591MOL0     C79661   7.164   5.442   7.606  0.6015  0.5321 -0.5039
  591MOL0     C79662   7.121   5.594   7.580  0.0171 -0.3338  0.1004
  591MOL0     C79663   6.983   5.614   7.620  0.8971 -0.0205 -0.3793
  591MOL0     C79664   6.907   5.725   7.537 -0.7403 -0.0854 -0.3552
  591MOL0     C79665   6.862   5.679   7.407 -0.3718  0.7357  0.6866
  591MOL0     C79666   6.784   5.785   7.338 -0.1107  0.3709 -0.0605
  591MOL0     N79667   6.767   5.768   7.186 -0.3582  0.1040 -0.3221
  591MOL0     C79668   6.686   5.669   7.125 -0.2480 -1.1893 -0.2476
  591MOL0     C79669   6.726   5.672   6.993 -0.8027  0.3276 -0.0505
  591MOL0     C79670   6.661   5.588   6.885  0.0341 -0.1467 -0.3755
  591MOL0     C79671   6.744   5.455   6.867  0.5201 -0.0966  0.3991
  591MOL0     C79672   6.680   5.338   6.787  1.2090 -0.0034 -0.1637
  591MOL0     C79673   6.532   5.301   6.814 -0.9827 -0.6528 -1.0132
  591MOL0     O79674   6.455   5.408   6.747  0.6078 -0.1506 -0.0172
  591MOL0     C79675   6.321   5.392   6.752 -0.0770  0.0420  0.6780
  591MOL0     C79676   6.253   5.296   6.826 -0.1724 -0.3488 -0.7862
  591MOL0     C79677   6.122   5.264   6.800  0.6824 -0.5121  0.4747
  591MOL0     C79678   6.058   5.154   6.878  0.7262  1.2260 -0.2375
  591MOL0     C79679   6.055   5.333   6.692 -1.2329 -1.2035 -0.7005
  591MOL0     C79680   5.910   5.329   6.646  0.6887  0.2369 -0.0948
  591MOL0     O79681   5.854   5.437   6.583 -0.0198  0.8888  0.1749
  591MOL0     C79682   5.717   5.434   6.540  0.0977  0.3504 -0.9712
  591MOL0     C79683   5.619   5.519   6.579  0.5170  0.5184  0.3700
  591MOL0     C79684   5.486   5.517   6.529 -0.8786  0.4388 -0.4652
  591MOL0     C79685   5.454   5.417   6.438 -0.2126  0.4008  0.0420
  591MOL0     O79686   5.327   5.405   6.384 -0.2802 -0.3379 -0.0779
  591MOL0     C79687   5.217   5.388   6.474 -0.2789 -0.3305  0.3007
  591MOL0     C79688   5.100   5.347   6.386  0.6483 -0.2846  0.6748
  591MOL0     C79689   4.958   5.374   6.447 -0.1748  0.6612 -0.7922
  591MOL0     C79690   4.840   5.309   6.370 -0.2224  0.9378 -0.7171
  591MOL0     C79691   4.703   5.311   6.441  0.8298 -0.8066  0.3048
  591MOL0     C79692   4.655   5.180   6.479  0.1412  1.2666 -0.2772
  591MOL0     C79693   4.506   5.185   6.507 -0.0380 -0.7560 -0.1084
  591MOL0     C79694   4.421   5.189   6.372 -0.9300 -0.1644 -0.5694
  591MOL0    Cl79695   4.394   5.012   6.322  0.0963 -0.1337  0.5736
  591MOL0     C79696   5.555   5.334   6.392  0.4093 -0.3622 -0.0418
  591MOL0     C79697   5.687   5.341   6.436 -0.0968 -0.8024  0.1236
  591MOL0     O79698   5.845   5.230   6.677  0.2986  0.5984  0.3584
  591MOL0     C79699   6.125   5.443   6.631  0.7509  0.5032  0.5990
  591MOL0     C79700   6.255   5.469   6.656 -0.8143  0.7507 -0.5077
  591MOL0     N79701   6.831   5.757   6.979  0.2266 -0.4665  0.0745
  591MOL0     N79702   6.856   5.819   7.095  0.3570 -0.2401 -0.2551
  591MOL0     C79703   7.627   5.562   7.807 -0.6921 -0.5318  0.5103
  591MOL0     C79704   7.735   5.627   7.870 -0.2326 -0.0773 -1.0042
  591MOL0     C79705   8.090   5.900   7.892 -0.4405 -0.1684 -0.3349
  591MOL0     C79706   8.207   5.914   7.814  0.4157 -0.4353  0.1550
  591MOL0     C79707   8.327   5.973   7.866 -0.1648 -0.3240 -0.3912
  591MOL0     C79708   8.321   6.022   8.003 -0.8488  0.6539 -0.3852
  591MOL0     O79709   8.438   6.086   8.041  0.9808 -0.3668 -0.3454
  591MOL0     C79710   8.444   6.145   8.177  0.3125 -0.0889  0.7630
  591MOL0     C79711   8.587   6.156   8.219  0.0459  0.1730  0.1809
  591MOL0     C79712   8.658   6.269   8.151  0.3786 -0.6333  0.0881
  591MOL0     C79713   8.786   6.310   8.220  0.4940  0.0753 -0.1808
  591MOL0     C79714   8.902   6.233   8.173  0.2573  0.1860  1.3452
  591MOL0     C79715   9.000   6.167   8.133  0.2547  0.4029  0.1858
  591MOL0     C79716   8.203   6.018   8.075  0.1181 -0.3390 -0.4497
  591MOL0     C79717   8.090   5.964   8.021  1.7943 -0.3450 -0.7302
  591MOL0     H79718   7.616   5.944   7.868  2.2639 -0.1128 -1.0048
  591MOL0     H79719   7.420   5.836   7.784  1.5715  2.8945  0.1726
  591MOL0     H79720   7.416   5.377   7.680  0.5340 -1.7028  1.0299
  591MOL0     H79721   7.402   5.400   7.853 -2.2210 -1.9827  0.8716
  591MOL0     H79722   7.210   5.303   7.770  0.9890  0.2534  2.1070
  591MOL0     H79723   7.164   5.457   7.832  0.3470 -3.9100  2.4783
  591MOL0     H79724   7.238   5.406   7.535 -1.4607 -0.8277 -2.0594
  591MOL0     H79725   7.090   5.363   7.590  1.2005 -0.5931  1.8021
  591MOL0     H79726   7.188   5.668   7.625  1.3641 -0.4843 -1.5070
  591MOL0     H79727   7.138   5.607   7.472  0.4530  0.6774  0.2751
  591MOL0     H79728   6.929   5.520   7.610  3.3539 -1.3445 -2.4527
  591MOL0     H79729   6.987   5.648   7.724 -1.1760 -3.5932  1.0787
  591MOL0     H79730   6.813   5.738   7.590 -1.8282 -0.9887 -1.9745
  591MOL0     H79731   6.954   5.824   7.539  2.8301 -1.6155  2.2644
  591MOL0     H79732   6.941   5.664   7.334 -1.6259  0.6919 -0.7111
  591MOL0     H79733   6.807   5.587   7.428  1.8092 -1.3022 -1.8864
  591MOL0     H79734   6.834   5.881   7.352  1.7846 -0.7561  1.5435
  591MOL0     H79735   6.687   5.802   7.384 -0.8321  3.9295 -2.4657
  591MOL0     H79736   6.613   5.600   7.167 -0.3463 -0.1395  1.3926
  591MOL0     H79737   6.557   5.566   6.909  0.0237  2.3423  2.2405
  591MOL0     H79738   6.655   5.645   6.792 -1.6361  1.7453  0.8312
  591MOL0     H79739   6.767   5.409   6.964  0.3456 -2.1429 -0.4599
  591MOL0     H79740   6.836   5.484   6.816  0.8502 -0.4787  0.7624
  591MOL0     H79741   6.737   5.246   6.803  1.6212  0.3584  0.4535
  591MOL0     H79742   6.696   5.362   6.681 -0.0127 -0.8984 -0.5715
  591MOL0     H79743   6.517   5.303   6.922 -0.2167  0.3951 -0.9069
  591MOL0     H79744   6.510   5.203   6.771  1.5838 -0.7265 -2.3703
  591MOL0     H79745   6.296   5.230   6.901 -1.0390 -2.9822 -2.4718
  591MOL0     H79746   6.031   5.071   6.812  0.1277 -1.2267  2.8347
  591MOL0     H79747   6.125   5.105   6.949  1.3512  1.3392 -0.7380
  591MOL0     H79748   5.971   5.197   6.927  0.3060 -0.0461  0.1855
  591MOL0     H79749   5.631   5.598   6.653  3.7151  1.3837 -0.9185
  591MOL0     H79750   5.398   5.562   6.574 -0.3652  0.3694  0.6300
  591MOL0     H79751   5.233   5.313   6.552  1.6895  0.5540  0.8152
  591MOL0     H79752   5.197   5.491   6.504  0.0326  0.6780 -2.6831
  591MOL0     H79753   5.104   5.402   6.292 -2.5082  0.2772  0.7667
  591MOL0     H79754   5.122   5.241   6.368  3.8746  0.5941 -1.4152
  591MOL0     H79755   4.945   5.482   6.454  0.7361  0.8032 -1.1478
  591MOL0     H79756   4.958   5.336   6.550  0.9522  4.3089  0.7252
  591MOL0     H79757   4.837   5.365   6.277 -0.5396  0.9624 -0.6907
  591MOL0     H79758   4.865   5.206   6.344  2.7158  1.6401 -1.0560
  591MOL0     H79759   4.633   5.359   6.373 -0.1515  0.5302  2.1482
  591MOL0     H79760   4.716   5.374   6.530  0.9574  0.4529 -0.5924
  591MOL0     H79761   4.675   5.102   6.406 -0.1874 -2.0908  2.8951
  591MOL0     H79762   4.696   5.143   6.574 -3.4597 -0.8691  0.6478
  591MOL0     H79763   4.481   5.268   6.573  3.2853  0.3386 -0.0325
  591MOL0     H79764   4.474   5.094   6.560  1.5426 -0.9503  0.5620
  591MOL0     H79765   4.468   5.250   6.294  0.0675 -1.6814 -1.2071
  591MOL0     H79766   4.323   5.234   6.389 -0.0764  0.6352  2.8779
  591MOL0     H79767   5.529   5.261   6.317 -0.0333 -0.5273  0.2666
  591MOL0     H79768   5.765   5.279   6.393  0.3236  0.9837 -1.8795
  591MOL0     H79769   6.077   5.502   6.553  2.3707 -4.0263 -4.4582
  591MOL0     H79770   6.293   5.550   6.595 -1.6356  2.3491  1.0288
  591MOL0     H79771   7.633   5.462   7.764 -0.5779 -0.5422  0.5495
  591MOL0     H79772   7.828   5.572   7.877  0.0955  0.4013 -1.5151
  591MOL0     H79773   8.214   5.872   7.714  3.5546 -1.7187  0.7976
  591MOL0     H79774   8.416   5.971   7.805 -1.2525 -4.3868 -2.1739
  591MOL0     H79775   8.392   6.238   8.152 -0.2609 -0.8850 -1.2646
  591MOL0     H79776   8.396   6.083   8.254  1.5882 -2.9817 -0.5985
  591MOL0     H79777   8.639   6.063   8.192  0.5715 -0.2679  2.5468
  591MOL0     H79778   8.603   6.165   8.326 -1.5274  0.8574  0.3764
  591MOL0     H79779   8.584   6.349   8.143  0.8960 -0.0527  0.9397
  591MOL0     H79780   8.691   6.254   8.048  4.0518  3.1337  0.4678
  591MOL0     H79781   8.784   6.312   8.329 -0.6739 -0.7519 -0.1656
  591MOL0     H79782   8.800   6.411   8.179  0.1842  0.3294  0.3191
  591MOL0     H79783   9.078   6.104   8.097 -0.4571  0.0545 -0.8020
  591MOL0     H79784   8.195   6.066   8.173 -4.2598  0.3851 -0.9565
  591MOL0     H79785   7.999   5.962   8.081  2.6908  1.1802  0.7679
  592MOL0     O79786   2.729   4.456   2.281  0.2074 -0.0539 -0.1615
  592MOL0     C79787   2.824   4.458   2.356 -0.1748  0.0815 -0.3362
  592MOL0     O79788   2.822   4.496   2.490  0.3873  0.0843 -0.9998
  592MOL0     C79789   2.723   4.436   2.570  1.0913 -0.0262 -0.2659
  592MOL0     C79790   2.718   4.484   2.707 -0.0710 -0.2300  1.4035
  592MOL0     C79791   2.613   4.453   2.795 -0.1721 -0.2881 -0.5867
  592MOL0     C79792   2.510   4.378   2.752 -0.0724  0.4555  0.6479
  592MOL0     O79793   2.414   4.344   2.838  0.0258  0.1695  0.1625
  592MOL0     C79794   2.290   4.294   2.788  0.9287  0.9552  0.2833
  592MOL0     C79795   2.180   4.284   2.906  0.2363  0.0781 -0.9280
  592MOL0     C79796   2.056   4.199   2.880 -0.7570 -0.0137  0.4307
  592MOL0     C79797   1.941   4.244   2.978 -0.4599 -0.6089 -0.2920
  592MOL0     C79798   1.807   4.182   2.957  0.1366 -0.2853  0.2946
  592MOL0     C79799   1.719   4.218   3.074  0.1401  0.4662 -0.4781
  592MOL0     C79800   1.568   4.198   3.038 -0.6837 -0.2852 -0.4538
  592MOL0     C79801   1.515   4.315   2.958 -0.3367  1.1875 -0.2792
  592MOL0     N79802   1.365   4.295   2.941 -0.5921 -0.1321  0.2751
  592MOL0     C79803   1.280   4.310   3.049  0.1660 -0.8215  0.5324
  592MOL0     C79804   1.160   4.264   3.005 -0.0599  0.1424  0.9815
  592MOL0     C79805   1.040   4.258   3.087 -0.4671  0.5719  0.0886
  592MOL0     C79806   0.942   4.368   3.045 -0.2958 -0.1583  0.0425
  592MOL0     C79807   0.810   4.298   3.035 -0.5558 -0.4147 -0.3426
  592MOL0     C79808   0.698   4.387   3.005  0.1898 -1.2725  0.0097
  592MOL0     O79809   0.585   4.301   2.966 -0.3553 -0.9384 -0.5027
  592MOL0     C79810   0.456   4.346   3.005 -0.1018  0.0610 -0.0217
  592MOL0     C79811   0.412   4.478   2.969 -0.0806 -0.5173  0.6204
  592MOL0     C79812   0.287   4.528   3.005  0.9204 -0.5750  0.5071
  592MOL0     C79813   0.241   4.668   2.951  0.2771  0.1475 -0.4004
  592MOL0     C79814   0.202   4.452   3.089 -0.2127 -0.3532  0.0242
  592MOL0     C79815   0.068   4.497   3.136  0.8010  0.8113  0.3893
  592MOL0     O79816  -0.023   4.389   3.166  0.3023  0.6425  0.0103
  592MOL0     C79817  -0.143   4.416   3.215  0.5058 -0.1296 -0.6396
  592MOL0     C79818  -0.187   4.346   3.337 -0.0444 -0.6585  0.4283
  592MOL0     C79819  -0.320   4.349   3.385  0.1858 -0.4054  0.3289
  592MOL0     C79820  -0.407   4.430   3.310 -0.2689  0.2782 -1.1643
  592MOL0     O79821  -0.541   4.444   3.351 -0.0300  0.0213 -0.5264
  592MOL0     C79822  -0.631   4.331   3.356  0.0181 -0.4648 -0.3071
  592MOL0     C79823  -0.768   4.361   3.424 -0.0695  0.6666  0.0854
  592MOL0     C79824  -0.900   4.299   3.365  0.8703  0.4663 -0.3948
  592MOL0     C79825  -0.894   4.145   3.337  0.0688 -0.0923  0.6458
  592MOL0     C79826  -1.037   4.100   3.312 -0.0856 -0.0450 -0.1679
  592MOL0     C79827  -1.035   3.959   3.261  0.0453  1.6208  0.9590
  592MOL0     C79828  -1.175   3.896   3.253  0.0485  0.2421 -0.5597
  592MOL0     C79829  -1.155   3.751   3.198 -0.4523  0.8262 -0.1775
  592MOL0    Cl79830  -1.118   3.743   3.016 -0.3008 -0.2514  0.0636
  592MOL0     C79831  -0.364   4.514   3.206 -0.4574 -0.0089  0.6854
  592MOL0     C79832  -0.234   4.504   3.160 -0.4335 -0.5004  0.7495
  592MOL0     O79833   0.036   4.616   3.137 -0.2332 -0.6069 -0.2428
  592MOL0     C79834   0.242   4.324   3.123 -0.1729 -0.0338 -0.5454
  592MOL0     C79835   0.372   4.272   3.084  1.1539  0.7426 -0.1095
  592MOL0     N79836   1.181   4.235   2.870 -0.8033  0.1762  0.3442
  592MOL0     N79837   1.305   4.239   2.840 -0.3203 -0.2523  0.3683
  592MOL0     C79838   2.513   4.325   2.619 -0.1236  0.6285  0.2796
  592MOL0     C79839   2.623   4.346   2.529 -0.0266  0.1005 -0.3734
  592MOL0     C79840   2.954   4.421   2.285 -0.4989  0.3198 -0.6423
  592MOL0     C79841   3.083   4.465   2.327  0.3108 -0.1608  0.1419
  592MOL0     C79842   3.194   4.414   2.259  0.0541 -0.2593  0.4834
  592MOL0     C79843   3.183   4.323   2.155  0.5925 -0.9523  0.9437
  592MOL0     O79844   3.299   4.282   2.104 -0.1592 -0.7761 -0.5140
  592MOL0     C79845   3.294   4.212   1.986  0.7564 -0.1327  0.7006
  592MOL0     C79846   3.436   4.207   1.917  0.7780 -0.2930 -0.3478
  592MOL0     C79847   3.482   4.349   1.889 -0.6715  0.2499  0.1153
  592MOL0     C79848   3.640   4.354   1.875 -0.6011 -0.0375  0.1851
  592MOL0     C79849   3.677   4.477   1.811  0.0488 -0.3419  0.6551
  592MOL0     C79850   3.721   4.574   1.750 -0.2205 -0.0612  0.9858
  592MOL0     C79851   3.056   4.273   2.122  0.2674  0.8856  0.1206
  592MOL0     C79852   2.943   4.325   2.185 -0.7989 -0.3743  0.4861
  592MOL0     H79853   2.802   4.544   2.741  1.3459 -1.2685 -0.1323
  592MOL0     H79854   2.627   4.493   2.894  1.7364 -0.2922 -0.8290
  592MOL0     H79855   2.249   4.356   2.707 -0.8049  2.0635  1.9199
  592MOL0     H79856   2.282   4.199   2.735  0.6092  1.0541  0.1493
  592MOL0     H79857   2.220   4.223   2.987 -0.7168  1.7739  0.8948
  592MOL0     H79858   2.145   4.385   2.931 -0.8173 -0.6470  0.6349
  592MOL0     H79859   2.006   4.226   2.786 -0.2969  1.7877  0.6553
  592MOL0     H79860   2.074   4.092   2.894  0.3760  0.3939  2.4667
  592MOL0     H79861   1.962   4.223   3.083 -0.7295  0.2149 -0.0671
  592MOL0     H79862   1.942   4.353   2.973  0.1117 -0.6569 -1.7768
  592MOL0     H79863   1.773   4.205   2.856 -0.9546 -0.2095  0.6700
  592MOL0     H79864   1.820   4.074   2.958  1.7790 -0.1500  2.6212
  592MOL0     H79865   1.750   4.155   3.158  1.8577 -0.0657 -1.4651
  592MOL0     H79866   1.728   4.323   3.102 -0.7853  1.5764 -3.8372
  592MOL0     H79867   1.564   4.103   2.985 -0.9768 -0.3160 -0.3787
  592MOL0     H79868   1.514   4.175   3.130  1.8454 -2.7809  0.5454
  592MOL0     H79869   1.556   4.302   2.857  1.4976 -2.8100  0.7961
  592MOL0     H79870   1.542   4.415   2.993  3.2293  0.6882 -1.2499
  592MOL0     H79871   1.296   4.360   3.144 -1.2797  1.2041 -0.1999
  592MOL0     H79872   1.003   4.156   3.079 -1.1328  0.8290 -0.1529
  592MOL0     H79873   1.054   4.268   3.195 -1.3836 -2.2301  0.5440
  592MOL0     H79874   0.964   4.416   2.949 -0.7551  1.1175  0.5544
  592MOL0     H79875   0.941   4.446   3.123  0.3659 -0.6064  0.5120
  592MOL0     H79876   0.789   4.241   3.126 -0.7963  0.5434  0.2226
  592MOL0     H79877   0.821   4.232   2.949 -0.5190 -1.2701  0.3048
  592MOL0     H79878   0.725   4.454   2.923  1.2826 -1.3023  0.3344
  592MOL0     H79879   0.673   4.462   3.081 -1.7480 -0.3900 -1.4167
  592MOL0     H79880   0.488   4.540   2.922 -0.5346 -0.1743  0.3286
  592MOL0     H79881   0.136   4.669   2.919  0.4325 -1.4591 -1.0407
  592MOL0     H79882   0.259   4.734   3.036 -1.0498 -1.2674  1.0397
  592MOL0     H79883   0.303   4.697   2.866 -1.9404  0.5162 -1.9873
  592MOL0     H79884  -0.104   4.289   3.379 -0.9480 -0.1322  3.1383
  592MOL0     H79885  -0.351   4.288   3.469 -2.8717  1.3653  0.6349
  592MOL0     H79886  -0.650   4.321   3.249  0.1503  1.1739 -0.5172
  592MOL0     H79887  -0.570   4.250   3.398 -0.5703 -0.4833  0.5282
  592MOL0     H79888  -0.753   4.329   3.528 -0.6317  0.2358  0.0330
  592MOL0     H79889  -0.767   4.471   3.424  2.3596  0.7078 -0.0837
  592MOL0     H79890  -0.926   4.355   3.275  0.0247  1.4594  0.4357
  592MOL0     H79891  -0.985   4.317   3.431  1.5271 -1.5368  1.1116
  592MOL0     H79892  -0.827   4.134   3.252  1.4135 -0.8769  1.7569
  592MOL0     H79893  -0.852   4.096   3.425  0.0256  2.7690  2.3948
  592MOL0     H79894  -1.078   4.167   3.236 -0.3447  1.3774  1.1735
  592MOL0     H79895  -1.083   4.109   3.410  2.1848  1.0936  0.8693
  592MOL0     H79896  -0.999   3.956   3.158 -3.5198  1.7390 -0.4246
  592MOL0     H79897  -0.972   3.895   3.324 -0.8963 -0.1313  0.1981
  592MOL0     H79898  -1.248   3.944   3.186 -4.0842 -0.9209  2.6753
  592MOL0     H79899  -1.219   3.881   3.352 -0.8084  0.2081 -0.9342
  592MOL0     H79900  -1.240   3.691   3.232 -2.8041  3.8283 -0.3424
  592MOL0     H79901  -1.068   3.712   3.252  0.8162  0.9362 -2.0651
  592MOL0     H79902  -0.428   4.583   3.151  0.5529  1.9108  1.8263
  592MOL0     H79903  -0.198   4.571   3.083 -0.2691  1.9153  2.7984
  592MOL0     H79904   0.179   4.255   3.178  0.6156  0.5195  1.1220
  592MOL0     H79905   0.395   4.171   3.118 -1.1372  0.6400  1.3477
  592MOL0     H79906   2.439   4.248   2.600  3.2532 -2.8255 -0.1976
  592MOL0     H79907   2.622   4.298   2.432 -1.0861 -2.4604  0.8193
  592MOL0     H79908   3.094   4.533   2.411  0.7639 -0.5167  0.3820
  592MOL0     H79909   3.294   4.448   2.287 -0.4826  0.1210  1.9805
  592MOL0     H79910   3.263   4.109   2.006  0.6288 -0.3031 -0.2877
  592MOL0     H79911   3.229   4.246   1.904  1.0878 -0.3438  0.3451
  592MOL0     H79912   3.424   4.147   1.826  0.9108  0.9931 -1.2284
  592MOL0     H79913   3.498   4.156   1.992 -2.6631 -0.0740  2.9928
  592MOL0     H79914   3.469   4.408   1.980  0.2281  0.5905  0.0354
  592MOL0     H79915   3.437   4.397   1.802  3.5277  3.1831 -0.7842
  592MOL0     H79916   3.681   4.264   1.829 -1.6013 -0.3288 -0.1631
  592MOL0     H79917   3.679   4.343   1.976 -1.1753 -1.7778  0.2465
  592MOL0     H79918   3.771   4.654   1.699  1.4607 -1.8170 -0.2591
  592MOL0     H79919   3.050   4.185   2.059  1.7408  0.4995  0.4740
  592MOL0     H79920   2.845   4.277   2.178 -0.8187 -0.4173  1.0569
  593MOL0     O79921   8.217   4.583   7.207  0.3037 -0.1375  0.0138
  593MOL0     C79922   8.279   4.609   7.308  0.5010 -0.2990  0.3756
  593MOL0     O79923   8.226   4.647   7.429  0.4174 -0.0805  0.1306
  593MOL0     C79924   8.095   4.658   7.433 -0.6155  0.2676  0.5018
  593MOL0     C79925   8.021   4.773   7.375 -0.3549  0.0379 -0.6499
  593MOL0     C79926   7.879   4.764   7.378 -0.7146  0.0465 -0.1537
  593MOL0     C79927   7.812   4.653   7.450  0.1350 -0.1859 -0.1403
  593MOL0     O79928   7.676   4.666   7.453 -0.4005  0.2429 -0.1200
  593MOL0     C79929   7.604   4.574   7.534  0.2905 -0.0890  0.3569
  593MOL0     C79930   7.463   4.624   7.503  0.1829 -0.0418  0.2834
  593MOL0     C79931   7.368   4.560   7.592  0.1020  0.0703  0.5132
  593MOL0     C79932   7.227   4.580   7.536  0.3411 -0.6730  0.5066
  593MOL0     C79933   7.132   4.538   7.635 -0.7509  0.0089 -0.1315
  593MOL0     C79934   6.989   4.556   7.599  0.0366  0.6329 -0.5561
  593MOL0     C79935   6.903   4.484   7.704 -1.0585 -0.0071 -0.4307
  593MOL0     C79936   6.908   4.569   7.830  0.7334 -1.0980  0.2505
  593MOL0     N79937   6.795   4.672   7.847  0.0346 -0.6102 -0.3483
  593MOL0     C79938   6.662   4.629   7.836 -0.3307 -0.3181 -0.3662
  593MOL0     C79939   6.600   4.748   7.843 -0.2632  0.2763 -0.2860
  593MOL0     C79940   6.448   4.762   7.842  0.1834 -0.0917 -0.1270
  593MOL0     C79941   6.398   4.878   7.754 -0.8138 -0.0327  0.0640
  593MOL0     C79942   6.257   4.910   7.782  0.4780 -0.1157  0.4181
  593MOL0     C79943   6.209   5.038   7.708  0.3043  0.1318 -0.5770
  593MOL0     O79944   6.228   5.158   7.780  0.1991  0.9898 -0.2741
  593MOL0     C79945   6.142   5.265   7.757  0.5686  0.4300 -0.7435
  593MOL0     C79946   6.147   5.373   7.849 -0.7377 -0.4942  0.3491
  593MOL0     C79947   6.039   5.453   7.862  0.0123 -0.1839  0.3981
  593MOL0     C79948   6.026   5.531   7.993 -0.7663  1.0739 -0.5722
  593MOL0     C79949   5.930   5.453   7.768  0.8803 -0.3487 -0.6736
  593MOL0     C79950   5.797   5.539   7.774 -0.8189  0.8208  0.1079
  593MOL0     O79951   5.685   5.507   7.702 -0.7365  0.3676 -0.4959
  593MOL0     C79952   5.592   5.608   7.682  0.7301 -0.1771  0.3182
  593MOL0     C79953   5.621   5.727   7.618  0.1595 -0.2569  1.1622
  593MOL0     C79954   5.523   5.826   7.608  0.2145  0.3118  0.4828
  593MOL0     C79955   5.390   5.812   7.662 -0.0044 -0.0388  0.5298
  593MOL0     O79956   5.286   5.902   7.665 -0.4985  0.2016 -0.1265
  593MOL0     C79957   5.312   6.026   7.598  0.3831 -0.3099  0.1569
  593MOL0     C79958   5.296   6.012   7.441  0.9663 -0.2522 -0.3165
  593MOL0     C79959   5.169   5.940   7.395  0.2025 -0.5023  0.4258
  593MOL0     C79960   5.158   5.921   7.238 -0.2880 -0.1970 -0.6860
  593MOL0     C79961   5.035   5.861   7.192 -0.0732  0.6074 -0.1250
  593MOL0     C79962   4.910   5.952   7.200 -0.2397  0.2499  0.3284
  593MOL0     C79963   4.781   5.882   7.149  0.5839  0.0110  0.9314
  593MOL0     C79964   4.648   5.953   7.183 -0.4876  0.2948 -0.4392
  593MOL0    Cl79965   4.515   5.879   7.087 -0.0815  0.2915  0.0551
  593MOL0     C79966   5.361   5.689   7.715 -0.1573  0.7728  0.1133
  593MOL0     C79967   5.465   5.592   7.724  0.6664  0.9550 -0.2459
  593MOL0     O79968   5.812   5.634   7.848  0.1361 -0.5774  0.1370
  593MOL0     C79969   5.947   5.369   7.658 -0.8320 -0.3176 -0.0018
  593MOL0     C79970   6.045   5.263   7.658  0.3954 -0.6121 -0.2430
  593MOL0     N79971   6.677   4.856   7.861 -0.5760 -0.3647 -0.0485
  593MOL0     N79972   6.799   4.807   7.856 -0.2913  0.4462 -0.2711
  593MOL0     C79973   7.885   4.552   7.517 -0.1592 -0.0302  0.1835
  593MOL0     C79974   8.026   4.555   7.497  0.9695  0.0170 -0.1077
  593MOL0     C79975   8.419   4.560   7.302  0.0032 -0.3881 -1.3586
  593MOL0     C79976   8.494   4.558   7.423  0.1231  0.3071 -0.7274
  593MOL0     C79977   8.627   4.533   7.425 -0.4271  0.1853  0.2124
  593MOL0     C79978   8.698   4.498   7.305 -0.6227 -0.6343  0.2327
  593MOL0     O79979   8.832   4.476   7.300 -0.9385 -0.3435  0.2855
  593MOL0     C79980   8.916   4.489   7.414  0.1886  0.8183  0.1671
  593MOL0     C79981   8.901   4.365   7.502  0.3260  0.6266  0.2142
  593MOL0     C79982   8.936   4.371   7.651 -0.1278  0.4906 -0.5182
  593MOL0     C79983   9.067   4.440   7.692 -0.3043  0.5737 -0.3848
  593MOL0     C79984   9.043   4.588   7.697 -0.4912  0.2956  1.4789
  593MOL0     C79985   9.020   4.710   7.674 -0.5791 -0.0920  0.8421
  593MOL0     C79986   8.630   4.494   7.189  0.6061 -1.1949 -0.0915
  593MOL0     C79987   8.496   4.533   7.185 -0.1345 -0.1234  0.7308
  593MOL0     H79988   8.072   4.860   7.336  2.1122 -1.1270 -0.2297
  593MOL0     H79989   7.815   4.839   7.334 -0.1649 -0.0193 -1.0990
  593MOL0     H79990   7.627   4.470   7.507  0.1516 -0.1437  0.4512
  593MOL0     H79991   7.630   4.600   7.637  3.8717  0.1149 -0.4674
  593MOL0     H79992   7.442   4.732   7.509  0.7270  0.2176 -1.6553
  593MOL0     H79993   7.440   4.588   7.402  1.6751 -0.2564  0.0064
  593MOL0     H79994   7.374   4.452   7.606 -2.0388 -0.4277 -1.7726
  593MOL0     H79995   7.387   4.594   7.695  0.2342 -1.1436  0.9137
  593MOL0     H79996   7.205   4.686   7.520 -1.0467 -0.8525  1.0713
  593MOL0     H79997   7.213   4.531   7.440 -3.4212  1.1609 -0.0724
  593MOL0     H79998   7.151   4.430   7.643 -2.1204 -0.3462 -1.2742
  593MOL0     H79999   7.155   4.598   7.723 -0.1812  0.6095 -0.6771
  593MOL0     H80000   6.956   4.660   7.598  0.3473  0.9043  3.1067
  593MOL0     H80001   6.953   4.506   7.509 -2.8698  1.0336  0.2458
  593MOL0     H80002   6.801   4.475   7.667 -0.1722 -2.4169 -2.5431
  593MOL0     H80003   6.940   4.382   7.721  1.1160  0.9570  1.1043
  593MOL0     H80004   7.004   4.615   7.854  1.1678  0.5468 -3.8691
  593MOL0     H80005   6.897   4.493   7.907 -0.2450  0.8171  2.1222
  593MOL0     H80006   6.616   4.531   7.841 -0.7205 -0.1638 -0.8251
  593MOL0     H80007   6.400   4.673   7.799  1.0884  0.1217 -1.6466
  593MOL0     H80008   6.408   4.772   7.944 -0.5022 -1.5852 -0.2242
  593MOL0     H80009   6.416   4.834   7.656  2.2965 -0.7109  0.8320
  593MOL0     H80010   6.467   4.962   7.764  0.0185 -0.6622 -0.1937
  593MOL0     H80011   6.235   4.911   7.889  0.2562 -0.4310  0.3768
  593MOL0     H80012   6.201   4.830   7.732  0.1183  0.5380 -0.2464
  593MOL0     H80013   6.102   5.017   7.703  0.3583 -0.4675  0.4665
  593MOL0     H80014   6.254   5.041   7.608 -0.8073 -0.5253 -1.1166
  593MOL0     H80015   6.231   5.382   7.917  3.4183  1.9253 -4.4418
  593MOL0     H80016   6.115   5.521   8.056 -1.6547  0.2493  0.6030
  593MOL0     H80017   6.002   5.637   7.976 -2.1420  0.5213 -2.3610
  593MOL0     H80018   5.949   5.481   8.052  0.8744  0.1522  0.8868
  593MOL0     H80019   5.722   5.728   7.577 -0.6694 -0.3199 -0.9978
  593MOL0     H80020   5.555   5.920   7.562  0.7416  1.0729  2.3286
  593MOL0     H80021   5.234   6.096   7.630 -2.1845 -1.9075 -2.1677
  593MOL0     H80022   5.406   6.081   7.608 -0.4465  0.8479  2.2190
  593MOL0     H80023   5.298   6.113   7.398 -1.3623  0.2276  0.5280
  593MOL0     H80024   5.384   5.964   7.397 -0.0899 -0.7471 -1.9710
  593MOL0     H80025   5.095   6.014   7.426  0.7400 -0.5347  1.8758
  593MOL0     H80026   5.156   5.852   7.459 -0.1989  0.7842  2.2017
  593MOL0     H80027   5.172   6.015   7.183 -2.3765 -0.3611 -1.5967
  593MOL0     H80028   5.241   5.859   7.205  0.2012 -0.6199  1.2009
  593MOL0     H80029   5.018   5.757   7.221 -1.3454  0.6758 -0.5620
  593MOL0     H80030   5.051   5.847   7.084 -3.0379 -0.3732 -0.5310
  593MOL0     H80031   4.892   5.977   7.305  1.5446 -3.4540  1.7026
  593MOL0     H80032   4.919   6.040   7.135  1.5430 -2.0907 -2.8576
  593MOL0     H80033   4.775   5.788   7.203 -2.2604 -0.3476  0.2039
  593MOL0     H80034   4.781   5.857   7.042 -1.8276 -0.3141  0.9402
  593MOL0     H80035   4.659   6.060   7.165  1.1896  0.3726  0.8202
  593MOL0     H80036   4.629   5.940   7.290 -1.7781  2.7231 -0.2980
  593MOL0     H80037   5.265   5.655   7.752 -0.0926  1.8478  1.3403
  593MOL0     H80038   5.445   5.495   7.768 -1.3734  0.4227 -2.1239
  593MOL0     H80039   5.874   5.373   7.578 -1.2536  2.4583  0.4245
  593MOL0     H80040   6.038   5.191   7.578  0.1900 -0.6317 -0.2076
  593MOL0     H80041   7.835   4.464   7.556 -0.2939  0.2492  0.6512
  593MOL0     H80042   8.083   4.470   7.535 -1.4921 -1.5183  0.4467
  593MOL0     H80043   8.444   4.589   7.515  0.1797 -1.8996  0.1160
  593MOL0     H80044   8.689   4.553   7.512 -0.4393 -3.6413  1.2888
  593MOL0     H80045   9.020   4.501   7.381  0.7680  1.7456  2.1348
  593MOL0     H80046   8.888   4.579   7.470 -2.1029  0.0910  0.2882
  593MOL0     H80047   8.968   4.296   7.452  1.7263  3.5179 -2.2110
  593MOL0     H80048   8.801   4.321   7.491 -0.2083  2.0080 -0.7883
  593MOL0     H80049   8.968   4.271   7.680 -0.3660  0.0571 -1.7111
  593MOL0     H80050   8.844   4.405   7.700 -0.8934  1.6873 -2.6652
  593MOL0     H80051   9.144   4.420   7.617 -1.4949 -1.7080 -1.1005
  593MOL0     H80052   9.092   4.398   7.790  0.3547  0.2022 -0.7057
  593MOL0     H80053   8.980   4.805   7.645  0.0964  0.4661  1.6889
  593MOL0     H80054   8.681   4.465   7.098  1.3316 -0.0228 -0.0771
  593MOL0     H80055   8.430   4.533   7.099 -2.4587 -1.0309  2.4045
  594MOL0     O80056   4.705   4.042   9.926  0.3735  0.0217 -0.1417
  594MOL0     C80057   4.760   4.052  10.031  0.1324 -0.6440 -1.0532
  594MOL0     O80058   4.720   4.132  10.137  0.2229 -0.0298  0.2248
  594MOL0     C80059   4.609   4.205  10.119  0.5585 -0.3455 -0.5825
  594MOL0     C80060   4.612   4.328  10.054 -0.5909 -0.0867  0.5419
  594MOL0     C80061   4.503   4.410  10.036 -0.3989  0.1159  0.2837
  594MOL0     C80062   4.385   4.375  10.099 -0.0749  0.2076 -0.0496
  594MOL0     O80063   4.286   4.473  10.106 -0.4868 -0.3251  0.4691
  594MOL0     C80064   4.264   4.572  10.002  0.5287  0.0463 -1.4572
  594MOL0     C80065   4.126   4.636  10.036  0.0650  1.0987  0.6837
  594MOL0     C80066   4.017   4.534  10.033 -0.4977  0.2475 -0.8604
  594MOL0     C80067   3.873   4.593  10.057 -0.3292  0.3028 -0.1062
  594MOL0     C80068   3.776   4.479  10.073  0.3626 -0.3192  0.0790
  594MOL0     C80069   3.624   4.525  10.055  0.1546  0.7538  0.4983
  594MOL0     C80070   3.578   4.592  10.186 -0.4823  0.6706  0.0853
  594MOL0     C80071   3.432   4.620  10.188 -1.1902 -0.6179  0.2200
  594MOL0     N80072   3.357   4.531  10.272  0.5279  0.2146 -0.4202
  594MOL0     C80073   3.319   4.563  10.400 -0.2253 -0.5410  0.4191
  594MOL0     C80074   3.240   4.460  10.443  0.0758 -0.4075  0.3607
  594MOL0     C80075   3.158   4.453  10.571  0.0248 -0.2958 -0.4560
  594MOL0     C80076   3.145   4.313  10.630 -0.1544 -0.7794  0.2391
  594MOL0     C80077   3.100   4.326  10.782 -0.1473  0.0586 -1.1109
  594MOL0     C80078   2.955   4.292  10.806 -0.8522  0.0660 -0.0343
  594MOL0     O80079   2.867   4.391  10.754 -0.0609 -0.2203  0.4838
  594MOL0     C80080   2.735   4.391  10.791  0.2839  0.2333 -0.8938
  594MOL0     C80081   2.668   4.300  10.891 -0.5669 -0.7169  0.0225
  594MOL0     C80082   2.536   4.305  10.930  0.1473  0.1264  0.9254
  594MOL0     C80083   2.490   4.218  11.037 -0.1522  0.6553 -0.3207
  594MOL0     C80084   2.456   4.396  10.863 -0.3395 -1.1668  0.1674
  594MOL0     C80085   2.307   4.403  10.888 -0.8424  0.3666 -0.6115
  594MOL0     O80086   2.234   4.461  10.788  0.0813  0.5578 -0.0374
  594MOL0     C80087   2.095   4.451  10.804 -0.4156 -0.4605 -0.5265
  594MOL0     C80088   2.023   4.325  10.817 -0.4457 -0.1363 -1.1062
  594MOL0     C80089   1.885   4.322  10.829  0.6486 -0.1811  0.9068
  594MOL0     C80090   1.816   4.448  10.825  0.1830  0.0556 -0.1845
  594MOL0     O80091   1.679   4.459  10.822  0.3074 -0.0173  0.1534
  594MOL0     C80092   1.594   4.345  10.848  0.0946  0.4135  0.1168
  594MOL0     C80093   1.576   4.340  10.999 -0.6622  0.2807 -0.2551
  594MOL0     C80094   1.444   4.403  11.055 -0.1993  0.1003  0.4414
  594MOL0     C80095   1.342   4.290  11.066 -0.2028 -0.2373  0.5203
  594MOL0     C80096   1.223   4.334  11.152  0.4726 -0.3926  0.1566
  594MOL0     C80097   1.101   4.244  11.156  0.5594 -0.0187 -0.0684
  594MOL0     C80098   1.044   4.245  11.294 -0.7766 -0.0353  0.0584
  594MOL0     C80099   0.926   4.154  11.317  0.4275  0.5703 -0.4416
  594MOL0    Cl80100   0.782   4.238  11.265  0.3177 -0.3311  0.1366
  594MOL0     C80101   1.887   4.565  10.824  0.3048 -0.3755  0.6159
  594MOL0     C80102   2.020   4.572  10.816 -0.9822  0.3387 -0.5837
  594MOL0     O80103   2.265   4.374  11.004  0.0821 -0.1968  0.7853
  594MOL0     C80104   2.509   4.480  10.766 -0.1657  0.6644  0.9984
  594MOL0     C80105   2.646   4.473  10.732  0.8985 -0.3661  0.6023
  594MOL0     N80106   3.227   4.377  10.337  0.0487  0.0139 -0.3191
  594MOL0     N80107   3.293   4.420  10.232 -0.1235 -0.1771  0.5356
  594MOL0     C80108   4.379   4.265  10.188  0.3394 -0.0410 -0.2174
  594MOL0     C80109   4.488   4.181  10.193  0.1255 -0.4711 -0.1035
  594MOL0     C80110   4.893   3.990  10.037 -0.0357 -0.1843  0.1514
  594MOL0     C80111   4.928   3.882   9.955 -0.4904 -0.1241 -0.1791
  594MOL0     C80112   5.065   3.841   9.945  0.3139  0.0481 -0.2325
  594MOL0     C80113   5.165   3.907  10.009  0.0322 -0.2043 -0.0357
  594MOL0     O80114   5.292   3.867   9.980 -0.2961 -0.1053 -0.7395
  594MOL0     C80115   5.356   3.953   9.881  0.0289 -0.1640  0.3564
  594MOL0     C80116   5.507   3.956   9.894  0.6061  0.6632 -0.5919
  594MOL0     C80117   5.578   3.828   9.853  0.0168  0.2964  1.0842
  594MOL0     C80118   5.576   3.793   9.700 -0.8958 -0.0020 -0.6252
  594MOL0     C80119   5.658   3.870   9.619 -0.4725  0.2256  0.4929
  594MOL0     C80120   5.735   3.936   9.552 -0.6214 -0.3138 -0.4665
  594MOL0     C80121   5.138   4.011  10.090 -0.4941 -0.8098  0.0035
  594MOL0     C80122   5.004   4.055  10.105  0.6274 -0.4845 -0.6953
  594MOL0     H80123   4.704   4.362  10.008 -1.3406  0.2393 -0.7409
  594MOL0     H80124   4.518   4.508   9.994 -2.4514  0.9443  1.3261
  594MOL0     H80125   4.339   4.652  10.007  2.0770 -1.3192 -1.7930
  594MOL0     H80126   4.269   4.535   9.899  2.0529 -1.1572 -0.9929
  594MOL0     H80127   4.123   4.679  10.137 -1.8726  1.2176  0.6194
  594MOL0     H80128   4.096   4.707   9.959 -0.0724  1.2057  0.8340
  594MOL0     H80129   4.009   4.477   9.940 -2.7056 -0.2153 -0.4600
  594MOL0     H80130   4.034   4.457  10.108 -2.2803 -0.7492 -1.4105
  594MOL0     H80131   3.877   4.656  10.146  1.0887  5.7759 -3.5094
  594MOL0     H80132   3.848   4.649   9.966  0.3541  0.6273 -0.0952
  594MOL0     H80133   3.807   4.407   9.996 -2.0111 -0.7152 -0.5722
  594MOL0     H80134   3.796   4.426  10.167  2.8204  1.6777  0.7863
  594MOL0     H80135   3.614   4.603   9.978 -4.1521  0.4766  0.5365
  594MOL0     H80136   3.559   4.441  10.029 -0.5821  1.0320  1.3823
  594MOL0     H80137   3.599   4.529  10.273 -2.9903  0.2471  0.4370
  594MOL0     H80138   3.624   4.692  10.188 -0.0151  0.4664  2.6739
  594MOL0     H80139   3.405   4.613  10.082 -1.5773 -0.9053  0.3352
  594MOL0     H80140   3.413   4.723  10.218  1.2810  0.0376 -0.2069
  594MOL0     H80141   3.348   4.661  10.438  3.0066 -1.0380 -0.4769
  594MOL0     H80142   3.207   4.518  10.644 -1.9087  3.7631 -2.4421
  594MOL0     H80143   3.061   4.502  10.557  0.3538  2.4042  4.5118
  594MOL0     H80144   3.233   4.249  10.624 -0.2346 -0.7628 -2.4017
  594MOL0     H80145   3.065   4.256  10.582 -0.9345 -1.7220  2.4981
  594MOL0     H80146   3.121   4.423  10.828 -2.5259 -0.5773  1.5409
  594MOL0     H80147   3.163   4.256  10.838  3.3519  4.1054  0.5686
  594MOL0     H80148   2.942   4.275  10.914  0.7276 -2.3586 -0.1577
  594MOL0     H80149   2.948   4.190  10.768 -0.9326  0.1464 -0.2390
  594MOL0     H80150   2.738   4.230  10.936  1.1325  0.7938 -0.1370
  594MOL0     H80151   2.472   4.277  11.127 -2.0987 -2.3098  1.4277
  594MOL0     H80152   2.395   4.168  11.013 -1.3596  0.2961  4.1631
  594MOL0     H80153   2.564   4.140  11.060 -1.7538 -0.9925 -0.5300
  594MOL0     H80154   2.087   4.238  10.808  1.0365  0.8972 -1.0450
  594MOL0     H80155   1.847   4.220  10.836 -0.4807 -0.1316 -2.6100
  594MOL0     H80156   1.497   4.351  10.799  0.3005  0.9980 -0.2322
  594MOL0     H80157   1.630   4.247  10.816  0.5601  0.0037  1.7816
  594MOL0     H80158   1.573   4.234  11.028 -2.6653  0.5932  0.8556
  594MOL0     H80159   1.666   4.383  11.044  0.9282  0.3862 -3.2401
  594MOL0     H80160   1.409   4.489  10.996  1.8679 -0.5248 -1.8429
  594MOL0     H80161   1.466   4.433  11.158 -1.2277  2.6818 -0.0128
  594MOL0     H80162   1.304   4.267  10.966 -0.4255 -0.6697  0.7047
  594MOL0     H80163   1.381   4.200  11.114 -0.6321 -0.7199 -0.0262
  594MOL0     H80164   1.189   4.432  11.117 -2.4073 -1.1565  0.5500
  594MOL0     H80165   1.256   4.363  11.252  1.0831  3.5590 -1.0037
  594MOL0     H80166   1.029   4.281  11.083  0.3976  1.3520  0.7607
  594MOL0     H80167   1.124   4.140  11.129  0.4924 -0.9901  3.1180
  594MOL0     H80168   1.002   4.344  11.312  1.3142  1.3253 -1.9256
  594MOL0     H80169   1.127   4.218  11.359  1.8584 -1.4913 -3.5392
  594MOL0     H80170   0.937   4.139  11.424  0.7536  0.7832 -0.4440
  594MOL0     H80171   0.949   4.056  11.273  3.0481  0.0633  1.7969
  594MOL0     H80172   1.831   4.658  10.832 -1.0727 -1.1195  0.0092
  594MOL0     H80173   2.064   4.671  10.824 -2.2686  0.8247  0.8951
  594MOL0     H80174   2.468   4.558  10.704  1.4758 -0.9241 -2.3614
  594MOL0     H80175   2.671   4.544  10.653 -1.7048 -0.0302 -0.0094
  594MOL0     H80176   4.291   4.242  10.247  1.0364  0.1434  0.9211
  594MOL0     H80177   4.487   4.090  10.254  1.1917  0.1692  0.9217
  594MOL0     H80178   4.842   3.836   9.908 -0.5172  0.9696 -1.2564
  594MOL0     H80179   5.100   3.753   9.892 -1.7247 -0.8055 -0.2345
  594MOL0     H80180   5.340   3.922   9.778  1.5642 -0.1818  0.0963
  594MOL0     H80181   5.309   4.051   9.887 -0.0562 -0.1735 -0.1727
  594MOL0     H80182   5.535   3.980   9.997 -2.2328  0.6712  0.2537
  594MOL0     H80183   5.538   4.040   9.831 -0.8894  1.1308 -0.7412
  594MOL0     H80184   5.542   3.739   9.905  2.1278 -1.0474  0.3789
  594MOL0     H80185   5.681   3.835   9.889 -0.0620 -0.9494  1.6172
  594MOL0     H80186   5.472   3.790   9.667 -0.3086 -2.2496 -2.5186
  594MOL0     H80187   5.605   3.688   9.688  1.3647  0.4925 -0.0260
  594MOL0     H80188   5.799   3.994   9.488 -0.6415  0.3769  0.1331
  594MOL0     H80189   5.211   4.072  10.141  0.4338 -2.5052  0.8007
  594MOL0     H80190   4.980   4.145  10.161  1.9779 -2.0249  2.6168
  595MOL0     O80191   4.736   2.615   7.439  0.3425 -0.1571 -1.2640
  595MOL0     C80192   4.782   2.717   7.498 -0.2152  0.2632  0.3836
  595MOL0     O80193   4.712   2.810   7.575  0.3034  0.0102 -0.1423
  595MOL0     C80194   4.572   2.793   7.583 -1.6439  0.9312 -0.3811
  595MOL0     C80195   4.484   2.789   7.478  0.6876  0.9730 -0.2428
  595MOL0     C80196   4.345   2.782   7.507  0.1446 -0.2626 -0.2542
  595MOL0     C80197   4.298   2.758   7.641  0.7489 -0.0094  0.5050
  595MOL0     O80198   4.155   2.747   7.654 -0.6170 -0.3981 -0.2680
  595MOL0     C80199   4.086   2.764   7.779 -0.7297  0.7242  0.3612
  595MOL0     C80200   4.102   2.908   7.805 -0.1611 -0.7524 -0.5100
  595MOL0     C80201   4.010   2.990   7.693 -0.1061  0.1262 -0.1755
  595MOL0     C80202   4.013   3.145   7.701 -0.4273  0.2500  0.2109
  595MOL0     C80203   3.893   3.200   7.771 -0.8303  0.1659 -0.2118
  595MOL0     C80204   3.755   3.168   7.694 -0.3746  0.4498  0.2725
  595MOL0     C80205   3.740   3.231   7.559 -0.8767  0.4449  0.5102
  595MOL0     C80206   3.626   3.190   7.475  0.1301 -0.2843 -0.6029
  595MOL0     N80207   3.499   3.258   7.494  0.3391  0.0196 -0.1400
  595MOL0     C80208   3.404   3.306   7.406 -0.2330  0.3247  0.1280
  595MOL0     C80209   3.297   3.339   7.491  0.1774 -0.0340  0.6951
  595MOL0     C80210   3.154   3.364   7.441 -0.6052 -0.0159  0.3845
  595MOL0     C80211   3.153   3.470   7.329  0.2815 -0.8829  0.0463
  595MOL0     C80212   3.022   3.559   7.322  0.1063 -0.2023 -0.6484
  595MOL0     C80213   3.033   3.626   7.187 -0.0237  0.0222  0.0592
  595MOL0     O80214   2.916   3.697   7.154  0.0259  0.3121  0.3595
  595MOL0     C80215   2.793   3.642   7.126  0.8688  0.4068 -0.5823
  595MOL0     C80216   2.683   3.716   7.169 -0.2676  0.4380  0.3429
  595MOL0     C80217   2.552   3.666   7.171  0.7199 -0.4761 -0.3062
  595MOL0     C80218   2.456   3.765   7.227 -0.5227 -0.2680 -0.5892
  595MOL0     C80219   2.522   3.547   7.105  0.2304  0.7901 -0.1861
  595MOL0     C80220   2.388   3.491   7.096 -0.4719  0.1811 -0.7410
  595MOL0     O80221   2.321   3.491   7.216 -0.1022 -0.0856  0.0095
  595MOL0     C80222   2.202   3.421   7.228  0.7259 -0.1741  0.2721
  595MOL0     C80223   2.085   3.460   7.161  0.4222  0.0509  0.2969
  595MOL0     C80224   1.959   3.408   7.197 -0.8748  0.0369 -0.0861
  595MOL0     C80225   1.956   3.304   7.286  0.0905 -0.8823  0.5150
  595MOL0     O80226   1.848   3.239   7.329 -0.1694  0.3525  0.2132
  595MOL0     C80227   1.747   3.333   7.356  0.4824  0.2992  0.4453
  595MOL0     C80228   1.644   3.262   7.450 -0.2266  0.0301 -0.5675
  595MOL0     C80229   1.510   3.337   7.460 -0.0474  0.2915  0.1818
  595MOL0     C80230   1.415   3.290   7.350  0.0696 -0.4305  0.4209
  595MOL0     C80231   1.447   3.330   7.205  0.4013  0.2377 -0.8441
  595MOL0     C80232   1.465   3.472   7.173  0.1730 -0.4937  0.4689
  595MOL0     C80233   1.506   3.507   7.026 -0.4449  0.2837 -0.1916
  595MOL0     C80234   1.526   3.657   7.012  1.1274 -0.2837  0.2707
  595MOL0    Cl80235   1.376   3.759   7.043  0.0289  0.4375 -0.6272
  595MOL0     C80236   2.078   3.263   7.344 -0.2091 -0.1861 -0.3211
  595MOL0     C80237   2.199   3.327   7.324 -0.5910 -0.1057 -0.1237
  595MOL0     O80238   2.345   3.445   6.992 -0.6763 -0.1715  0.1251
  595MOL0     C80239   2.633   3.470   7.056 -0.8923  0.2902 -0.4009
  595MOL0     C80240   2.770   3.511   7.077  0.2622 -0.0692  0.4747
  595MOL0     N80241   3.332   3.321   7.622  0.3257 -0.4701 -0.7099
  595MOL0     N80242   3.453   3.269   7.616  0.0751  0.0064 -0.9610
  595MOL0     C80243   4.392   2.757   7.741 -0.0202 -0.4220  0.2039
  595MOL0     C80244   4.526   2.775   7.712 -0.8025 -0.1027 -0.6400
  595MOL0     C80245   4.929   2.734   7.480 -1.0027  1.0260 -0.1894
  595MOL0     C80246   4.996   2.817   7.569 -0.1361 -0.2727 -0.2885
  595MOL0     C80247   5.135   2.817   7.570 -0.2060  0.8063 -0.2408
  595MOL0     C80248   5.202   2.724   7.495 -0.2571  0.6033 -0.4612
  595MOL0     O80249   5.337   2.711   7.513  0.1196 -0.8931 -0.8730
  595MOL0     C80250   5.414   2.614   7.449 -0.5561 -0.5237 -0.8007
  595MOL0     C80251   5.555   2.616   7.508  0.2425  0.0494  0.0375
  595MOL0     C80252   5.612   2.479   7.475 -0.0522  0.4109 -0.0341
  595MOL0     C80253   5.620   2.380   7.601 -0.1906  0.3059 -0.4985
  595MOL0     C80254   5.674   2.252   7.563 -0.0486 -0.1219  0.1843
  595MOL0     C80255   5.715   2.138   7.531  0.3422  0.2320 -0.8070
  595MOL0     C80256   5.126   2.649   7.405 -0.3264  0.4076  0.2118
  595MOL0     C80257   4.995   2.648   7.392  0.3159 -0.3750 -0.3734
  595MOL0     H80258   4.520   2.802   7.377 -1.3944 -1.6670 -1.4602
  595MOL0     H80259   4.278   2.790   7.422  0.1532  0.0946 -0.2271
  595MOL0     H80260   3.983   2.731   7.763 -0.2316 -0.2803 -0.9694
  595MOL0     H80261   4.136   2.703   7.855  0.2602  0.2856 -0.6104
  595MOL0     H80262   4.068   2.936   7.905 -0.3071  0.7317 -0.9576
  595MOL0     H80263   4.203   2.949   7.795 -0.4422  0.0688 -0.0829
  595MOL0     H80264   4.058   2.963   7.599  0.6791 -1.9539  0.7539
  595MOL0     H80265   3.912   2.941   7.698  0.6352 -1.3155  0.9661
  595MOL0     H80266   4.105   3.177   7.751 -0.0117 -0.2829 -0.2064
  595MOL0     H80267   4.010   3.179   7.597 -3.3626 -1.6257 -0.4289
  595MOL0     H80268   3.885   3.152   7.869  1.6957 -1.8229 -0.8801
  595MOL0     H80269   3.906   3.306   7.796  2.2453  0.7515 -3.5076
  595MOL0     H80270   3.731   3.062   7.683 -0.1501  0.1455  2.3830
  595MOL0     H80271   3.676   3.210   7.757 -0.9152  3.1783 -2.0175
  595MOL0     H80272   3.739   3.341   7.565 -0.9864  0.5296 -0.6987
  595MOL0     H80273   3.837   3.220   7.508 -0.9961  0.6916  0.2204
  595MOL0     H80274   3.607   3.083   7.482  1.0969 -0.5004 -1.0098
  595MOL0     H80275   3.633   3.200   7.366 -0.3379 -1.1857 -0.7255
  595MOL0     H80276   3.402   3.296   7.297 -0.2143 -1.2485  0.2498
  595MOL0     H80277   3.115   3.270   7.400  2.4110 -1.6821  1.0432
  595MOL0     H80278   3.094   3.406   7.522 -1.5896  2.0912 -1.3341
  595MOL0     H80279   3.174   3.412   7.238 -0.7110  2.4138 -2.4682
  595MOL0     H80280   3.228   3.543   7.360 -0.4030  0.6270 -1.6478
  595MOL0     H80281   3.028   3.640   7.396  1.5480 -0.7631 -0.0975
  595MOL0     H80282   2.934   3.495   7.328 -0.0828  0.1714  1.0727
  595MOL0     H80283   3.045   3.550   7.110 -0.6965  1.3739 -1.4490
  595MOL0     H80284   3.111   3.703   7.177 -1.4600  1.3085 -2.4207
  595MOL0     H80285   2.706   3.808   7.223  1.2759  0.7278 -0.7496
  595MOL0     H80286   2.503   3.799   7.319 -1.1190  0.8317 -0.6706
  595MOL0     H80287   2.455   3.842   7.150  3.0483 -1.6240 -2.2194
  595MOL0     H80288   2.351   3.741   7.248  0.1420 -2.0140  0.9986
  595MOL0     H80289   2.089   3.513   7.067 -1.9074 -0.8541 -0.3822
  595MOL0     H80290   1.872   3.455   7.151 -0.8877  1.7710  1.6140
  595MOL0     H80291   1.787   3.423   7.405 -1.2559  0.4441  1.6765
  595MOL0     H80292   1.698   3.366   7.264 -1.7532 -2.9325  0.3220
  595MOL0     H80293   1.635   3.157   7.420  1.3564 -0.6866  1.2444
  595MOL0     H80294   1.685   3.261   7.551 -2.3125  2.8037  0.4247
  595MOL0     H80295   1.530   3.443   7.441 -0.0413 -0.0502 -2.0506
  595MOL0     H80296   1.460   3.315   7.554 -1.2803 -3.4663 -1.1437
  595MOL0     H80297   1.396   3.183   7.362  1.5065 -1.2603 -3.3019
  595MOL0     H80298   1.325   3.347   7.369  1.5608  1.5723  1.8863
  595MOL0     H80299   1.373   3.287   7.137  0.2106 -1.1269  0.1900
  595MOL0     H80300   1.539   3.283   7.170  0.6249  1.4553 -1.9910
  595MOL0     H80301   1.364   3.507   7.197 -0.4501 -2.0452  0.2726
  595MOL0     H80302   1.539   3.517   7.240 -0.4201 -0.3541  1.0367
  595MOL0     H80303   1.428   3.471   6.959 -0.2481  2.2069 -1.5412
  595MOL0     H80304   1.598   3.448   7.012 -2.0123 -2.0673 -1.1849
  595MOL0     H80305   1.560   3.666   6.908 -4.2242 -1.0690 -1.8729
  595MOL0     H80306   1.596   3.692   7.088  0.1002  1.6212  0.3995
  595MOL0     H80307   2.073   3.175   7.407 -0.6435 -1.9457 -2.6797
  595MOL0     H80308   2.288   3.297   7.378  0.4463 -0.7186 -2.0876
  595MOL0     H80309   2.612   3.379   7.000 -1.4078  0.3912 -0.3718
  595MOL0     H80310   2.848   3.442   7.046  2.3458  0.6951  3.5560
  595MOL0     H80311   4.377   2.756   7.849  2.5369 -1.6444  0.6139
  595MOL0     H80312   4.598   2.772   7.792 -1.9946 -1.2746  0.4380
  595MOL0     H80313   4.943   2.886   7.633  0.9651  1.5221 -1.2139
  595MOL0     H80314   5.191   2.875   7.643 -2.2902 -2.2117  4.2639
  595MOL0     H80315   5.377   2.512   7.466  0.7397 -0.8874 -0.0578
  595MOL0     H80316   5.419   2.634   7.341  1.2644 -0.2200 -0.6883
  595MOL0     H80317   5.549   2.626   7.617 -0.5513  0.4225 -0.0345
  595MOL0     H80318   5.602   2.696   7.451 -2.4396  0.3479 -1.9258
  595MOL0     H80319   5.717   2.501   7.451 -0.2260  1.5274  0.1898
  595MOL0     H80320   5.572   2.425   7.388  0.8439  0.4949 -0.5115
  595MOL0     H80321   5.520   2.368   7.644  1.3926 -1.6714  3.0108
  595MOL0     H80322   5.696   2.422   7.667 -0.5809  0.7807 -0.3504
  595MOL0     H80323   5.738   2.036   7.506  3.1379  0.9819 -1.7214
  595MOL0     H80324   5.189   2.587   7.342  0.7919 -0.2319  1.8754
  595MOL0     H80325   4.944   2.582   7.322  0.5177 -0.1097 -0.7773
  596MOL0     O80326   1.509  11.247   8.485 -0.4392 -0.1431  0.2281
  596MOL0     C80327   1.555  11.135   8.499  0.7144 -0.3864  0.0700
  596MOL0     O80328   1.482  11.017   8.482 -0.0970 -0.3581  0.5311
  596MOL0     C80329   1.350  11.015   8.450  0.0846  0.1982 -0.0556
  596MOL0     C80330   1.251  11.083   8.524 -0.0039  0.4715 -0.6464
  596MOL0     C80331   1.110  11.070   8.491 -0.2193 -1.8401 -0.8125
  596MOL0     C80332   1.066  10.991   8.387 -0.2218  1.3378  0.3905
  596MOL0     O80333   0.936  10.970   8.358  0.9358  0.6117 -0.3201
  596MOL0     C80334   0.891  10.958   8.216  0.0910 -0.4012 -0.7021
  596MOL0     C80335   0.747  11.021   8.208  0.1188 -0.4511 -0.1685
  596MOL0     C80336   0.640  10.957   8.289  0.3556 -0.1360  0.3185
  596MOL0     C80337   0.573  10.840   8.228  0.3855 -0.3880  0.1579
  596MOL0     C80338   0.431  10.805   8.277  0.3288  0.6940 -0.5750
  596MOL0     C80339   0.391  10.659   8.242  1.4981  0.2090  0.8973
  596MOL0     C80340   0.323  10.651   8.108 -0.5567  0.4061  0.6036
  596MOL0     C80341   0.183  10.709   8.089 -0.2983 -0.5593  0.4709
  596MOL0     N80342   0.090  10.659   8.185 -1.0479 -0.6484 -0.3052
  596MOL0     C80343  -0.010  10.561   8.166 -0.3652  0.2583 -1.3003
  596MOL0     C80344  -0.105  10.579   8.265  0.4798  0.1855  0.4833
  596MOL0     C80345  -0.206  10.475   8.286  0.0931 -0.2231  0.3099
  596MOL0     C80346  -0.333  10.518   8.373  0.3688  0.0567 -0.4488
  596MOL0     C80347  -0.419  10.391   8.392  0.3821  0.0566 -0.3172
  596MOL0     C80348  -0.475  10.342   8.253 -0.4659  0.2847  0.4571
  596MOL0     O80349  -0.535  10.442   8.172 -0.5675  0.5176  0.2218
  596MOL0     C80350  -0.670  10.438   8.174 -0.1280  0.4384  0.1923
  596MOL0     C80351  -0.738  10.522   8.261  0.4784  0.3783 -0.5051
  596MOL0     C80352  -0.880  10.518   8.268 -0.5543 -0.3644 -0.1513
  596MOL0     C80353  -0.932  10.610   8.373 -0.6834 -0.1913 -0.0095
  596MOL0     C80354  -0.958  10.438   8.182  0.0011  0.8420  0.0268
  596MOL0     C80355  -1.113  10.433   8.175  0.7540 -0.5303  0.5386
  596MOL0     O80356  -1.169  10.333   8.104 -0.2917 -0.0248  0.2515
  596MOL0     C80357  -1.298  10.302   8.145  0.0585  0.0550 -0.6665
  596MOL0     C80358  -1.401  10.352   8.067 -0.3681  0.3541 -0.1816
  596MOL0     C80359  -1.531  10.322   8.110 -0.4755  0.8089  1.0212
  596MOL0     C80360  -1.557  10.241   8.224  0.3895 -0.0812 -0.3844
  596MOL0     O80361  -1.679  10.194   8.253  0.3145  0.2604 -0.7746
  596MOL0     C80362  -1.699  10.113   8.368 -0.0292 -0.0209 -0.9644
  596MOL0     C80363  -1.843  10.120   8.426 -0.2875  0.2913  0.4274
  596MOL0     C80364  -1.924  10.000   8.379 -0.0629  0.3176  0.7866
  596MOL0     C80365  -2.075  10.029   8.353 -0.7776  0.6731  0.3719
  596MOL0     C80366  -2.108  10.142   8.241  0.0587  0.0768  0.1916
  596MOL0     C80367  -2.264  10.158   8.233 -0.8402  0.9445 -0.5739
  596MOL0     C80368  -2.296  10.293   8.165 -0.0162  0.3827 -0.3619
  596MOL0     C80369  -2.235  10.328   8.030 -0.0881  0.1259 -0.3462
  596MOL0    Cl80370  -2.316  10.210   7.920 -0.4010 -0.6634 -0.3010
  596MOL0     C80371  -1.444  10.196   8.304  0.5745 -0.1409  0.0795
  596MOL0     C80372  -1.318  10.231   8.259 -0.5666  0.4077 -0.1298
  596MOL0     O80373  -1.177  10.520   8.230 -0.0873 -0.3462 -0.0687
  596MOL0     C80374  -0.886  10.352   8.104 -0.3558 -0.1921 -0.3380
  596MOL0     C80375  -0.745  10.357   8.097 -0.2202  0.1118 -0.5924
  596MOL0     N80376  -0.068  10.689   8.338 -0.0999 -0.1642 -0.2044
  596MOL0     N80377   0.046  10.722   8.298  0.4492 -0.0235  0.8001
  596MOL0     C80378   1.169  10.942   8.298  0.0030  0.4436 -0.3509
  596MOL0     C80379   1.307  10.953   8.332 -0.3240  0.1362 -0.0443
  596MOL0     C80380   1.704  11.129   8.503 -0.2695 -0.2495  0.6754
  596MOL0     C80381   1.767  11.237   8.569 -0.2791  0.4351  0.2018
  596MOL0     C80382   1.896  11.231   8.598 -0.3445  0.7022 -1.3452
  596MOL0     C80383   1.979  11.125   8.570 -0.2122  0.3671  1.7415
  596MOL0     O80384   2.111  11.122   8.597  0.4533 -0.1851  1.3730
  596MOL0     C80385   2.173  11.197   8.701  0.9464  0.4285  0.6971
  596MOL0     C80386   2.298  11.122   8.763  0.5007 -0.1990  0.3366
  596MOL0     C80387   2.267  10.978   8.799  1.4954  0.2091  0.1475
  596MOL0     C80388   2.289  10.875   8.693  0.9116  0.2757  0.0615
  596MOL0     C80389   2.423  10.860   8.651 -0.3069  0.2656 -0.7601
  596MOL0     C80390   2.535  10.841   8.606 -0.4797 -1.0049  0.3805
  596MOL0     C80391   1.916  11.020   8.491 -0.2223 -0.0029 -0.7622
  596MOL0     C80392   1.779  11.019   8.465 -0.5650  0.4410  0.0995
  596MOL0     H80393   1.271  11.155   8.603  0.9162  1.3294 -1.6329
  596MOL0     H80394   1.037  11.111   8.560 -1.0991  0.0485 -2.7408
  596MOL0     H80395   0.963  11.010   8.152  0.3709 -2.5129 -2.2073
  596MOL0     H80396   0.893  10.854   8.184 -2.3408  0.0278 -2.5149
  596MOL0     H80397   0.775  11.124   8.229 -1.0350  0.0109 -0.7557
  596MOL0     H80398   0.731  11.007   8.101  0.3947 -1.7463 -0.0555
  596MOL0     H80399   0.676  10.928   8.388 -0.0603 -0.7293  0.3045
  596MOL0     H80400   0.561  11.031   8.302  1.9928  1.5370  1.2042
  596MOL0     H80401   0.562  10.864   8.121 -2.3426  1.6929  0.7853
  596MOL0     H80402   0.644  10.757   8.235  1.9297  0.0910 -5.0920
  596MOL0     H80403   0.436  10.811   8.386 -1.2896 -2.9196 -0.1782
  596MOL0     H80404   0.360  10.880   8.241  1.5507  2.5350  0.6844
  596MOL0     H80405   0.488  10.609   8.245  1.3846 -0.2297 -1.4142
  596MOL0     H80406   0.335  10.613   8.324  1.2659  3.2274  2.6076
  596MOL0     H80407   0.381  10.693   8.025 -0.6796  0.9932  0.8092
  596MOL0     H80408   0.319  10.544   8.083 -1.1963  0.7136 -0.6687
  596MOL0     H80409   0.152  10.703   7.985  0.1235  0.5594  0.2618
  596MOL0     H80410   0.188  10.818   8.103  0.4508 -0.3498 -1.1703
  596MOL0     H80411  -0.017  10.476   8.098 -2.4069  2.0175 -3.4344
  596MOL0     H80412  -0.237  10.453   8.183  0.1442 -2.4122  0.7300
  596MOL0     H80413  -0.154  10.390   8.330 -1.4798 -0.9414  0.8626
  596MOL0     H80414  -0.379  10.603   8.322 -3.0140 -1.8649 -0.8798
  596MOL0     H80415  -0.310  10.563   8.470  1.7566  1.5298 -1.4089
  596MOL0     H80416  -0.503  10.405   8.460  1.5448 -1.7950  1.6216
  596MOL0     H80417  -0.354  10.312   8.429  0.2797 -0.3413 -0.9547
  596MOL0     H80418  -0.552  10.267   8.275  0.6809 -0.0793  3.6697
  596MOL0     H80419  -0.392  10.291   8.203 -0.4072 -0.3561  1.1998
  596MOL0     H80420  -0.676  10.589   8.321  4.0366 -4.0461  1.3342
  596MOL0     H80421  -1.016  10.670   8.338  0.3874  2.5170  1.7310
  596MOL0     H80422  -0.964  10.550   8.459 -0.5631  1.7468  1.4555
  596MOL0     H80423  -0.849  10.675   8.402  1.7559 -3.8750  2.0527
  596MOL0     H80424  -1.374  10.413   7.981 -3.9035  1.9103 -0.3665
  596MOL0     H80425  -1.627  10.357   8.074 -0.8283  0.4428  1.5956
  596MOL0     H80426  -1.665  10.009   8.370  0.5866  0.1454  2.1168
  596MOL0     H80427  -1.647  10.160   8.452  0.2377 -0.0305 -1.1220
  596MOL0     H80428  -1.838  10.141   8.533 -0.7080  2.9909 -0.0221
  596MOL0     H80429  -1.884  10.214   8.386  1.7310  1.2737  0.5460
  596MOL0     H80430  -1.910   9.913   8.445  2.5540 -0.2004 -0.3349
  596MOL0     H80431  -1.877   9.952   8.293 -0.0053  2.0118 -0.1532
  596MOL0     H80432  -2.130   9.942   8.314 -0.0745  0.3290  0.1210
  596MOL0     H80433  -2.126  10.052   8.447 -4.1830  1.0131 -1.4100
  596MOL0     H80434  -2.072  10.113   8.142 -2.8601 -2.2001 -0.3555
  596MOL0     H80435  -2.061  10.238   8.265  0.5051 -0.2888  0.8046
  596MOL0     H80436  -2.314  10.081   8.173  0.0574  0.8963 -1.2842
  596MOL0     H80437  -2.301  10.153   8.336  2.9159  0.8319  0.9252
  596MOL0     H80438  -2.265  10.363   8.243 -2.8904  1.5857 -0.1856
  596MOL0     H80439  -2.403  10.312   8.153  0.0456  1.0938  0.1605
  596MOL0     H80440  -2.126  10.329   8.019  0.0209 -0.9961  0.4069
  596MOL0     H80441  -2.276  10.421   7.991 -0.0305  0.2133 -0.1965
  596MOL0     H80442  -1.467  10.146   8.398 -3.6447  2.6642  0.7930
  596MOL0     H80443  -1.231  10.199   8.316 -1.4686  1.2551  1.8029
  596MOL0     H80444  -0.926  10.282   8.031  5.1189 -2.4441 -1.6582
  596MOL0     H80445  -0.700  10.278   8.037  2.7749  0.5400  0.9289
  596MOL0     H80446   1.155  10.910   8.196 -0.5581  4.2993 -1.6456
  596MOL0     H80447   1.388  10.906   8.277  0.5865  0.6267  0.8543
  596MOL0     H80448   1.707  11.324   8.593 -0.1401  0.7206 -0.4397
  596MOL0     H80449   1.938  11.317   8.649 -2.1773 -0.9220  3.5513
  596MOL0     H80450   2.220  11.287   8.660 -2.8104  1.9178 -0.7388
  596MOL0     H80451   2.096  11.217   8.776  1.8297  0.5561  1.5940
  596MOL0     H80452   2.326  11.179   8.852 -0.6108  3.1445 -1.3037
  596MOL0     H80453   2.373  11.121   8.684 -0.0875 -1.2743 -0.2228
  596MOL0     H80454   2.165  10.961   8.835  2.1837 -4.3889  0.5979
  596MOL0     H80455   2.335  10.964   8.884  1.6611  1.3677  0.2151
  596MOL0     H80456   2.233  10.900   8.603 -1.9791 -1.6077  1.1697
  596MOL0     H80457   2.238  10.785   8.729 -1.5514  1.8589  0.8150
  596MOL0     H80458   2.634  10.807   8.583  0.5384  1.1972  1.2700
  596MOL0     H80459   1.979  10.932   8.478 -1.6250 -1.0583 -0.6326
  596MOL0     H80460   1.732  10.933   8.419  2.5738 -1.2173 -0.3057
  597MOL0     O80461   2.128   1.947   9.762 -0.5740 -0.5170  0.4099
  597MOL0     C80462   2.033   1.937   9.686  0.2854 -0.3929  0.5455
  597MOL0     O80463   2.040   1.900   9.555 -0.0247  0.1660  0.6481
  597MOL0     C80464   2.158   1.875   9.488 -0.2188 -0.3199 -0.0710
  597MOL0     C80465   2.169   1.753   9.413 -0.8618 -0.3902  1.2695
  597MOL0     C80466   2.290   1.710   9.357  0.6496 -0.1757 -0.5536
  597MOL0     C80467   2.402   1.784   9.372  0.7570  0.4387 -0.0811
  597MOL0     O80468   2.531   1.769   9.330 -0.1680  0.0657  0.2348
  597MOL0     C80469   2.527   1.702   9.210 -0.1703 -0.1272  0.3600
  597MOL0     C80470   2.667   1.682   9.154 -0.0750 -0.2015 -0.0423
  597MOL0     C80471   2.722   1.817   9.108  0.3720 -0.4244  0.3071
  597MOL0     C80472   2.811   1.891   9.214 -0.7545 -0.2998  0.0844
  597MOL0     C80473   2.877   2.017   9.173 -0.7203 -0.5997  0.6818
  597MOL0     C80474   3.004   2.042   9.258 -1.0049  0.1296  0.2510
  597MOL0     C80475   3.077   2.166   9.211  0.1514 -0.0337 -0.4614
  597MOL0     C80476   3.000   2.288   9.263  0.1251 -0.4183  0.0654
  597MOL0     N80477   3.072   2.414   9.239 -0.2727 -0.9253 -1.0093
  597MOL0     C80478   3.176   2.461   9.322 -0.6007 -0.1436  0.2292
  597MOL0     C80479   3.239   2.551   9.241  0.1549  0.5384 -0.1848
  597MOL0     C80480   3.342   2.654   9.273 -0.5227 -0.5963 -0.4801
  597MOL0     C80481   3.474   2.637   9.200 -0.1741 -0.2352  0.0475
  597MOL0     C80482   3.537   2.516   9.258 -0.0745  1.3234 -0.3901
  597MOL0     C80483   3.644   2.442   9.171 -0.1187  0.1899 -0.2033
  597MOL0     O80484   3.626   2.301   9.165 -0.1337 -1.0344  0.5124
  597MOL0     C80485   3.529   2.234   9.102 -0.3361 -0.1289  0.4171
  597MOL0     C80486   3.542   2.091   9.106  0.6650 -0.5147  0.2133
  597MOL0     C80487   3.445   2.007   9.033 -0.3575 -0.7076 -0.4851
  597MOL0     C80488   3.457   1.852   9.045 -1.0045  0.5220 -0.2505
  597MOL0     C80489   3.337   2.072   8.970 -0.6318 -0.7554 -0.5346
  597MOL0     C80490   3.238   2.005   8.888  0.9039 -0.2077  0.3470
  597MOL0     O80491   3.253   1.877   8.846  0.4129  0.0115 -0.1838
  597MOL0     C80492   3.162   1.807   8.778 -0.1358  0.3229 -0.7330
  597MOL0     C80493   3.212   1.706   8.707 -0.2208  0.2570  0.1314
  597MOL0     C80494   3.122   1.617   8.642  0.7594 -0.1184 -0.1750
  597MOL0     C80495   2.985   1.622   8.667 -0.1058  0.9094  0.3198
  597MOL0     O80496   2.893   1.536   8.621 -0.0640 -0.3813 -0.2567
  597MOL0     C80497   2.931   1.412   8.560  0.2436  0.6005  0.6876
  597MOL0     C80498   2.824   1.336   8.500 -0.2440  0.1650  0.2508
  597MOL0     C80499   2.756   1.412   8.382 -0.3093  0.0114 -0.5487
  597MOL0     C80500   2.631   1.338   8.336  0.7928  0.2105  0.0423
  597MOL0     C80501   2.507   1.339   8.430  0.1559 -0.1820  0.4592
  597MOL0     C80502   2.400   1.252   8.372 -0.2206  0.3341  0.2986
  597MOL0     C80503   2.262   1.260   8.427  0.0169 -0.0411  0.2458
  597MOL0     C80504   2.255   1.155   8.543 -0.2460  0.1199 -0.0779
  597MOL0    Cl80505   2.378   1.183   8.677  0.0865  0.5042  0.1735
  597MOL0     C80506   2.936   1.714   8.758  0.2011 -0.1028  0.1772
  597MOL0     C80507   3.026   1.820   8.804 -0.1191  0.5563  0.3257
  597MOL0     O80508   3.147   2.086   8.858 -0.3024 -0.0530  0.2274
  597MOL0     C80509   3.330   2.219   8.974 -0.5511  1.3688 -0.7016
  597MOL0     C80510   3.418   2.293   9.040  1.1028  0.3195 -0.4663
  597MOL0     N80511   3.180   2.556   9.116  1.0160 -0.1596  0.0676
  597MOL0     N80512   3.076   2.480   9.122 -0.3323  0.3150 -0.1804
  597MOL0     C80513   2.401   1.906   9.437 -0.2083 -0.1612  0.0454
  597MOL0     C80514   2.283   1.951   9.498 -0.1151 -0.5229 -0.8722
  597MOL0     C80515   1.896   1.965   9.731  0.2751 -0.9812 -0.4468
  597MOL0     C80516   1.872   1.955   9.872  0.2669 -0.1770  0.4688
  597MOL0     C80517   1.746   1.977   9.917  0.3288 -0.1776  0.4688
  597MOL0     C80518   1.641   2.023   9.826 -0.6757  0.3460 -0.0308
  597MOL0     O80519   1.526   2.056   9.886  0.0635  0.3409  0.2139
  597MOL0     C80520   1.415   2.114   9.813 -0.4422 -0.1495  0.1588
  597MOL0     C80521   1.309   2.150   9.921 -0.6809 -0.5187 -0.0888
  597MOL0     C80522   1.193   2.229   9.850 -0.1036 -0.1671  0.2042
  597MOL0     C80523   1.081   2.256   9.955  0.2974 -0.2326  0.6180
  597MOL0     C80524   0.965   2.297   9.877  0.1964 -0.2202 -0.2990
  597MOL0     C80525   0.868   2.329   9.812  0.0561  0.0062 -0.4484
  597MOL0     C80526   1.667   2.035   9.691 -0.0476  0.8508  1.2018
  597MOL0     C80527   1.792   1.990   9.644  0.9552 -0.2244  0.5187
  597MOL0     H80528   2.078   1.693   9.410 -1.1186  0.0094  0.4457
  597MOL0     H80529   2.286   1.617   9.301 -1.6587 -1.1188  1.0575
  597MOL0     H80530   2.487   1.601   9.224  0.1093 -0.5222 -1.4213
  597MOL0     H80531   2.461   1.751   9.139  0.3058 -0.2245 -0.1611
  597MOL0     H80532   2.734   1.649   9.234  0.0273 -0.3362 -0.1829
  597MOL0     H80533   2.668   1.611   9.071 -4.6014 -0.3204 -0.2400
  597MOL0     H80534   2.782   1.794   9.019 -2.5630 -1.5002 -1.5672
  597MOL0     H80535   2.655   1.894   9.071  0.7166 -0.7050 -0.9636
  597MOL0     H80536   2.750   1.922   9.299 -0.2197  1.6605 -0.2017
  597MOL0     H80537   2.885   1.824   9.259 -1.7032 -0.5418  1.3433
  597MOL0     H80538   2.909   2.008   9.069 -3.5268 -0.9865 -0.2270
  597MOL0     H80539   2.803   2.095   9.190  0.2721  0.6835 -0.6889
  597MOL0     H80540   2.980   2.054   9.364  2.4928  0.2234  1.1543
  597MOL0     H80541   3.071   1.959   9.235 -1.8264 -0.6334  0.5462
  597MOL0     H80542   3.178   2.180   9.251 -0.2240  3.2178 -0.3866
  597MOL0     H80543   3.079   2.164   9.102  0.9449 -2.3388 -0.4513
  597MOL0     H80544   2.990   2.293   9.372 -0.6984 -0.6122  0.0002
  597MOL0     H80545   2.897   2.303   9.229 -0.8903 -0.0567  3.0230
  597MOL0     H80546   3.203   2.435   9.423 -0.8851  0.5650  0.4981
  597MOL0     H80547   3.300   2.749   9.237  0.4685 -0.5592 -1.5721
  597MOL0     H80548   3.373   2.653   9.378  0.3483 -1.1320 -0.7366
  597MOL0     H80549   3.538   2.724   9.211 -2.7038  1.5725  1.9232
  597MOL0     H80550   3.449   2.611   9.097  3.3232 -3.6686 -0.1540
  597MOL0     H80551   3.465   2.439   9.286  1.6099  0.8086  2.9297
  597MOL0     H80552   3.589   2.540   9.351 -1.0418 -0.5357  0.6641
  597MOL0     H80553   3.744   2.454   9.213  0.7394 -1.3209 -1.7120
  597MOL0     H80554   3.632   2.488   9.073  0.3665 -0.3029 -0.4991
  597MOL0     H80555   3.611   2.044   9.175 -1.1188  0.1357  2.5820
  597MOL0     H80556   3.557   1.839   9.088 -1.3577  0.4533  0.5812
  597MOL0     H80557   3.374   1.820   9.109 -0.0001 -0.4566  0.6089
  597MOL0     H80558   3.460   1.798   8.950  4.1240 -1.3370  0.6264
  597MOL0     H80559   3.314   1.671   8.691  0.7061  2.8033  0.0840
  597MOL0     H80560   3.165   1.527   8.599  0.5957 -1.2487  1.8937
  597MOL0     H80561   3.001   1.428   8.478 -1.5224  0.9343 -0.8231
  597MOL0     H80562   2.970   1.333   8.625  1.1642 -0.8199 -1.5026
  597MOL0     H80563   2.861   1.244   8.454 -0.2215  0.5193 -0.4407
  597MOL0     H80564   2.754   1.313   8.582  2.8716 -0.0975  3.0353
  597MOL0     H80565   2.819   1.445   8.299 -3.7868 -3.1650 -4.9753
  597MOL0     H80566   2.728   1.509   8.423  1.4290  0.9085 -1.3864
  597MOL0     H80567   2.598   1.380   8.241 -0.1856  2.7740  1.4236
  597MOL0     H80568   2.664   1.238   8.306  1.1877  0.0380  1.0072
  597MOL0     H80569   2.465   1.439   8.441  1.1894  0.1994  1.0600
  597MOL0     H80570   2.538   1.297   8.526 -1.2415  4.2106  3.0923
  597MOL0     H80571   2.396   1.276   8.265  0.4797 -1.7919 -0.2375
  597MOL0     H80572   2.425   1.146   8.380 -0.3672  0.3519  1.0758
  597MOL0     H80573   2.185   1.269   8.350  1.0551 -0.1101 -0.8160
  597MOL0     H80574   2.254   1.358   8.474 -1.0476 -1.3466  3.0888
  597MOL0     H80575   2.269   1.053   8.506 -0.3060  0.3872 -0.8678
  597MOL0     H80576   2.155   1.145   8.585 -1.1978 -4.3712 -2.7661
  597MOL0     H80577   2.834   1.718   8.794  0.2019  1.9790  0.0510
  597MOL0     H80578   2.982   1.893   8.870  0.0085  0.6908  0.2638
  597MOL0     H80579   3.250   2.269   8.920 -2.5286  0.8890  1.6141
  597MOL0     H80580   3.405   2.400   9.048 -0.2919  0.1436 -0.1461
  597MOL0     H80581   2.486   1.973   9.439 -1.5262  1.5777  1.5240
  597MOL0     H80582   2.276   2.045   9.551 -2.3870 -0.2888 -1.5177
  597MOL0     H80583   1.951   1.916   9.936  0.9776 -0.1134 -0.3493
  597MOL0     H80584   1.728   1.962  10.024 -0.5949  1.0206  0.4905
  597MOL0     H80585   1.446   2.206   9.763  0.4815  0.3306  1.5494
  597MOL0     H80586   1.358   2.042   9.753 -1.2113  1.0338 -0.5683
  597MOL0     H80587   1.346   2.209  10.005  0.2353 -0.9200 -0.1964
  597MOL0     H80588   1.273   2.056   9.965 -4.0873  0.5583 -0.3250
  597MOL0     H80589   1.159   2.187   9.755  0.0711  1.3350 -0.5371
  597MOL0     H80590   1.239   2.324   9.822  2.2891 -1.1635  0.4897
  597MOL0     H80591   1.113   2.337  10.022  1.6682  1.8110 -2.2811
  597MOL0     H80592   1.069   2.161  10.007 -0.1111 -0.5850 -0.1181
  597MOL0     H80593   0.786   2.338   9.744 -2.2242  2.0107  2.3060
  597MOL0     H80594   1.581   2.074   9.636 -0.5015  0.4744  1.6329
  597MOL0     H80595   1.797   1.983   9.536  0.4425 -0.5015  0.5097
  598MOL0     O80596   1.529   7.529   8.510 -0.8535  0.6275 -0.2177
  598MOL0     C80597   1.439   7.526   8.430 -0.6754  0.0090  0.3879
  598MOL0     O80598   1.452   7.533   8.295  0.6359 -0.1615  0.1587
  598MOL0     C80599   1.578   7.549   8.240 -0.7455 -0.7299 -0.5187
  598MOL0     C80600   1.631   7.682   8.224  1.1678 -0.1256 -0.3486
  598MOL0     C80601   1.766   7.717   8.188 -1.0832 -1.0255 -0.6673
  598MOL0     C80602   1.857   7.616   8.186 -0.1632  0.3106 -0.1940
  598MOL0     O80603   1.993   7.629   8.153 -0.0229  0.4483 -0.0979
  598MOL0     C80604   2.082   7.676   8.263 -0.0406 -0.1326  0.3839
  598MOL0     C80605   2.228   7.647   8.209 -0.3175 -0.0379  0.4064
  598MOL0     C80606   2.260   7.675   8.058  0.5578  0.2703 -0.8857
  598MOL0     C80607   2.402   7.664   8.033  0.1195  0.0038 -0.1905
  598MOL0     C80608   2.439   7.722   7.896 -0.2806  0.3410  0.1385
  598MOL0     C80609   2.584   7.717   7.860 -0.1951  0.6093  0.0360
  598MOL0     C80610   2.658   7.799   7.969  0.0936  0.1158  0.0570
  598MOL0     C80611   2.780   7.844   7.902  0.0378 -0.0821 -0.8842
  598MOL0     N80612   2.876   7.747   7.863  0.2544  0.3934  0.1152
  598MOL0     C80613   2.946   7.659   7.941 -0.2439  0.7101  0.5828
  598MOL0     C80614   3.061   7.620   7.874 -0.5235 -0.2408 -0.0380
  598MOL0     C80615   3.173   7.541   7.926 -0.0673  0.7947 -0.2209
  598MOL0     C80616   3.257   7.595   8.040 -0.8063 -0.5478 -0.0022
  598MOL0     C80617   3.323   7.738   8.020 -0.7724 -0.0246 -0.2820
  598MOL0     C80618   3.401   7.756   7.889  0.1884  0.1056 -0.1383
  598MOL0     O80619   3.456   7.887   7.871  0.0836  0.4492 -0.3051
  598MOL0     C80620   3.375   7.992   7.829  0.1066 -0.3986  0.3454
  598MOL0     C80621   3.239   7.991   7.790  0.0445  0.3267  0.1335
  598MOL0     C80622   3.178   8.099   7.742 -0.3616  0.2245 -0.0769
  598MOL0     C80623   3.032   8.090   7.698 -0.5073 -0.4622  0.5493
  598MOL0     C80624   3.252   8.226   7.744  0.5591 -0.2806  0.1019
  598MOL0     C80625   3.202   8.346   7.691  0.0837  0.2360  0.1267
  598MOL0     O80626   3.109   8.341   7.590 -0.7983 -0.4347 -0.0707
  598MOL0     C80627   3.052   8.469   7.558  0.4972  0.5204 -0.0956
  598MOL0     C80628   2.928   8.503   7.615  0.1455  0.0541  0.3418
  598MOL0     C80629   2.859   8.625   7.575  0.5434 -0.3269 -0.5711
  598MOL0     C80630   2.925   8.707   7.477  0.0296 -0.0775  0.4759
  598MOL0     O80631   2.879   8.829   7.440  0.4933 -0.3488  0.1173
  598MOL0     C80632   2.739   8.841   7.407 -0.7328 -0.0443 -0.0272
  598MOL0     C80633   2.704   8.986   7.419  0.3525 -0.1759  0.0348
  598MOL0     C80634   2.660   9.029   7.562 -0.7875  0.9676 -0.0542
  598MOL0     C80635   2.510   9.058   7.579 -0.8142  0.1923  0.4124
  598MOL0     C80636   2.419   8.931   7.603 -0.9916 -0.1658 -0.3678
  598MOL0     C80637   2.287   8.976   7.657 -0.4926  0.4314 -0.0675
  598MOL0     C80638   2.167   9.001   7.563 -0.4970  0.6393  0.6879
  598MOL0     C80639   2.187   9.085   7.443 -0.3576 -0.1454 -0.8061
  598MOL0    Cl80640   2.038   9.125   7.350 -0.1469  0.6409 -0.1718
  598MOL0     C80641   3.059   8.679   7.447 -0.0114 -1.1014 -0.1863
  598MOL0     C80642   3.116   8.565   7.475 -0.6461  0.8842  0.2823
  598MOL0     O80643   3.235   8.449   7.748  0.3362  0.3150  0.3325
  598MOL0     C80644   3.381   8.225   7.798 -0.7128 -0.7557 -0.2984
  598MOL0     C80645   3.433   8.114   7.849 -0.3497  0.1237  0.0125
  598MOL0     N80646   3.061   7.683   7.752  0.3906 -0.3085  0.1314
  598MOL0     N80647   2.952   7.752   7.752  0.3135 -0.4482  0.5720
  598MOL0     C80648   1.810   7.484   8.193  0.7022  0.2050 -0.8185
  598MOL0     C80649   1.674   7.449   8.227  0.3088  0.3649 -0.1160
  598MOL0     C80650   1.296   7.535   8.484 -0.9604  0.3933 -0.1358
  598MOL0     C80651   1.269   7.506   8.618 -0.2425 -0.0779 -0.7252
  598MOL0     C80652   1.135   7.496   8.648  0.0301 -0.2299  0.2697
  598MOL0     C80653   1.030   7.547   8.568 -0.3496  0.2195  0.8913
  598MOL0     O80654   0.894   7.559   8.601  0.3754  0.4770 -0.4883
  598MOL0     C80655   0.851   7.495   8.729  0.2073 -0.1556 -0.0994
  598MOL0     C80656   0.696   7.515   8.744  0.5118  0.0319 -0.0982
  598MOL0     C80657   0.639   7.660   8.768 -0.0780 -0.0794 -0.0127
  598MOL0     C80658   0.657   7.759   8.658  1.3589 -0.3377  0.0741
  598MOL0     C80659   0.608   7.697   8.531  0.3877  0.3390 -1.4341
  598MOL0     C80660   0.553   7.658   8.437  0.0154  1.1080  0.3751
  598MOL0     C80661   1.063   7.600   8.444 -0.7264  0.5327  0.6531
  598MOL0     C80662   1.194   7.586   8.404  0.3198 -0.0091  1.1028
  598MOL0     H80663   1.560   7.762   8.242  1.3210  0.0053 -0.3230
  598MOL0     H80664   1.791   7.821   8.170  0.3556 -1.0442  1.0000
  598MOL0     H80665   2.073   7.783   8.285  0.1620  0.0746 -0.5173
  598MOL0     H80666   2.061   7.633   8.361 -0.3111  2.1981  1.4237
  598MOL0     H80667   2.294   7.705   8.274  1.3112 -2.5479  1.1539
  598MOL0     H80668   2.242   7.540   8.229 -0.2113  0.1374  1.3202
  598MOL0     H80669   2.205   7.606   7.993 -0.0914 -0.3553  0.2909
  598MOL0     H80670   2.248   7.778   8.024 -0.5169  0.6668  0.6015
  598MOL0     H80671   2.454   7.717   8.114  3.0112  1.9397 -3.0781
  598MOL0     H80672   2.431   7.559   8.034  2.9137  0.7051  0.2426
  598MOL0     H80673   2.388   7.647   7.835 -1.6705  0.1606  1.4560
  598MOL0     H80674   2.394   7.818   7.870 -2.5909 -1.0303 -1.2680
  598MOL0     H80675   2.620   7.614   7.856  0.5563  0.5371  4.4406
  598MOL0     H80676   2.605   7.763   7.762  0.8726  0.9376  0.3984
  598MOL0     H80677   2.606   7.886   8.009  0.2548  1.2381 -2.0664
  598MOL0     H80678   2.686   7.726   8.046  0.4920  0.6300  0.4072
  598MOL0     H80679   2.824   7.913   7.974 -1.4039 -0.9261  0.9007
  598MOL0     H80680   2.761   7.908   7.815 -0.1579 -0.8259 -1.3953
  598MOL0     H80681   2.932   7.640   8.047 -0.3123 -3.0490  0.0294
  598MOL0     H80682   3.137   7.438   7.942 -0.6426  1.0429  0.1369
  598MOL0     H80683   3.248   7.527   7.848  1.8410 -0.8060  1.7509
  598MOL0     H80684   3.334   7.526   8.075 -2.1845 -1.2956  1.6997
  598MOL0     H80685   3.190   7.603   8.126 -2.8939  0.5729 -1.6316
  598MOL0     H80686   3.383   7.752   8.110 -1.1217 -0.0175 -0.0500
  598MOL0     H80687   3.246   7.815   8.005 -3.3712 -2.5972 -1.0108
  598MOL0     H80688   3.335   7.726   7.808 -1.7216 -2.2455  2.1095
  598MOL0     H80689   3.483   7.684   7.887  1.8532  1.8929 -3.2881
  598MOL0     H80690   3.175   7.903   7.788 -1.0365  1.0929 -1.3667
  598MOL0     H80691   3.018   8.152   7.609  1.5836  1.1362  1.2386
  598MOL0     H80692   3.011   7.985   7.675 -1.9879  0.3860 -2.4931
  598MOL0     H80693   2.964   8.106   7.783  2.1754 -4.0817  3.7214
  598MOL0     H80694   2.872   8.443   7.686 -1.5080  3.1234  1.8462
  598MOL0     H80695   2.761   8.640   7.618  0.8498 -1.4069  0.5647
  598MOL0     H80696   2.730   8.811   7.302 -2.0572  1.3003 -0.3314
  598MOL0     H80697   2.676   8.770   7.460 -1.6809  0.7820 -0.0341
  598MOL0     H80698   2.791   9.037   7.378  0.0008 -0.0935 -0.6129
  598MOL0     H80699   2.623   9.001   7.347  0.2593 -0.7191  0.0204
  598MOL0     H80700   2.710   9.121   7.592  1.9527 -0.8966  1.4729
  598MOL0     H80701   2.697   8.950   7.627  1.0195  0.7102 -1.3018
  598MOL0     H80702   2.493   9.132   7.657  1.2840 -2.6511  3.8630
  598MOL0     H80703   2.491   9.102   7.481 -0.4992 -0.9728 -0.1885
  598MOL0     H80704   2.472   8.874   7.680  2.1741  2.2984 -0.5260
  598MOL0     H80705   2.412   8.868   7.514 -2.1364  1.8138 -1.7615
  598MOL0     H80706   2.240   8.899   7.719 -1.1914  0.2535 -0.7994
  598MOL0     H80707   2.291   9.061   7.725  0.2230  0.5477 -0.2450
  598MOL0     H80708   2.096   9.055   7.627  0.6217 -0.1468  2.7079
  598MOL0     H80709   2.128   8.901   7.541 -2.9170  1.3056  1.6383
  598MOL0     H80710   2.257   9.042   7.370 -1.1817 -0.3958 -1.4739
  598MOL0     H80711   2.232   9.179   7.476 -3.8171  1.7417 -1.0245
  598MOL0     H80712   3.099   8.764   7.393 -3.1761 -0.6434 -2.0187
  598MOL0     H80713   3.213   8.555   7.426  0.9601  2.5646  2.8786
  598MOL0     H80714   3.443   8.313   7.811  0.2496 -1.6474  1.5035
  598MOL0     H80715   3.534   8.125   7.887 -0.4252  1.1276 -0.0420
  598MOL0     H80716   1.879   7.400   8.193 -2.4565 -2.6461 -1.3373
  598MOL0     H80717   1.638   7.348   8.246 -2.4010  1.4552  0.9737
  598MOL0     H80718   1.347   7.474   8.686  1.4681  0.8752 -2.1563
  598MOL0     H80719   1.113   7.466   8.750  0.5522 -0.2029  0.3925
  598MOL0     H80720   0.868   7.388   8.741 -0.7206 -0.2893  0.1115
  598MOL0     H80721   0.897   7.549   8.812  1.2616  1.0989 -1.4475
  598MOL0     H80722   0.672   7.458   8.835  1.1103 -0.5468 -0.2921
  598MOL0     H80723   0.640   7.471   8.661  0.2065 -1.1699  0.7073
  598MOL0     H80724   0.684   7.692   8.862  1.8121 -0.8285 -0.6104
  598MOL0     H80725   0.536   7.665   8.805  0.6813  3.3986  2.1086
  598MOL0     H80726   0.762   7.786   8.646  1.8283 -1.6198  1.0605
  598MOL0     H80727   0.602   7.851   8.677  1.3303 -0.0551 -1.2769
  598MOL0     H80728   0.496   7.628   8.351  1.1131  2.0196 -0.6993
  598MOL0     H80729   0.987   7.634   8.374 -1.5081 -0.4071  1.0192
  598MOL0     H80730   1.210   7.592   8.297  1.1694 -0.3071  1.2121
  599MOL0     O80731   8.364   0.172   0.157  0.5000 -0.0822 -0.3790
  599MOL0     C80732   8.397   0.115   0.057 -0.1314  0.0643  1.0541
  599MOL0     O80733   8.339   0.117  -0.063  0.4222 -0.2099  0.1589
  599MOL0     C80734   8.234   0.199  -0.100 -0.2035 -0.3659 -0.5809
  599MOL0     C80735   8.244   0.341  -0.072 -0.3748 -0.0277 -0.6827
  599MOL0     C80736   8.145   0.429  -0.123  0.6133 -0.2085  0.2377
  599MOL0     C80737   8.033   0.373  -0.190  0.0682  0.3759 -0.5743
  599MOL0     O80738   7.931   0.452  -0.244  0.2230  0.2068  0.0569
  599MOL0     C80739   7.982   0.575  -0.297 -0.1642  0.0432 -0.1343
  599MOL0     C80740   7.883   0.665  -0.377  0.3627 -0.0942  0.0463
  599MOL0     C80741   7.760   0.733  -0.304 -0.5757 -0.0997 -0.8899
  599MOL0     C80742   7.664   0.798  -0.399 -0.5709  0.1162  0.2357
  599MOL0     C80743   7.527   0.826  -0.331  1.6276 -0.5405 -1.3816
  599MOL0     C80744   7.529   0.905  -0.195 -0.1357  0.2373 -0.0107
  599MOL0     C80745   7.396   0.951  -0.147 -0.1639  0.6038  0.0008
  599MOL0     C80746   7.400   1.039  -0.022  0.1732 -0.0878  0.2360
  599MOL0     N80747   7.268   1.047   0.043 -0.3338  0.8715  0.3745
  599MOL0     C80748   7.190   1.160   0.018 -0.6225  0.9363  0.4839
  599MOL0     C80749   7.070   1.128   0.077  0.2208  0.2797 -0.4328
  599MOL0     C80750   6.945   1.214   0.070  0.2979 -0.1141  0.0897
  599MOL0     C80751   6.970   1.361   0.127 -0.1414 -0.7522  0.0376
  599MOL0     C80752   6.979   1.380   0.281 -0.2860 -0.3153  0.2472
  599MOL0     C80753   6.839   1.395   0.330  0.0405  0.5878 -0.1892
  599MOL0     O80754   6.785   1.505   0.264  0.1883  0.0190  0.1949
  599MOL0     C80755   6.667   1.559   0.306 -0.3513  0.4376  0.2483
  599MOL0     C80756   6.593   1.511   0.405  0.0535  0.2656 -0.4838
  599MOL0     C80757   6.477   1.567   0.453  0.1270 -0.1276 -0.1223
  599MOL0     C80758   6.416   1.514   0.575  0.3455 -0.8106  0.5773
  599MOL0     C80759   6.432   1.688   0.384 -0.0967  0.8073 -0.8987
  599MOL0     C80760   6.307   1.766   0.427 -0.1130 -0.0056  0.5271
  599MOL0     O80761   6.218   1.696   0.504  0.6962 -0.1784  0.1380
  599MOL0     C80762   6.121   1.771   0.568 -0.1412  0.5613 -0.2870
  599MOL0     C80763   6.128   1.813   0.704 -0.2229 -0.5303 -0.1086
  599MOL0     C80764   6.010   1.885   0.758  0.1774  0.0196 -0.1635
  599MOL0     C80765   5.899   1.906   0.676 -0.3017 -0.1365 -0.4046
  599MOL0     O80766   5.792   1.968   0.737  0.3716  0.0867 -0.3187
  599MOL0     C80767   5.668   1.893   0.727  0.4421  0.2177 -0.4143
  599MOL0     C80768   5.581   1.952   0.611 -0.9678  0.9947  0.2752
  599MOL0     C80769   5.438   1.886   0.601 -0.9270  0.2485 -0.3545
  599MOL0     C80770   5.341   1.925   0.716 -0.0793  0.5613 -0.3936
  599MOL0     C80771   5.205   1.875   0.679 -0.3616  0.4150  0.6571
  599MOL0     C80772   5.104   1.986   0.705 -0.2492  0.1659 -0.4913
  599MOL0     C80773   4.955   1.937   0.683 -0.2060 -0.8296 -0.7673
  599MOL0     C80774   4.850   2.031   0.753 -0.3766  1.2046  0.4067
  599MOL0    Cl80775   4.877   2.191   0.691  0.1859  0.2133  0.5495
  599MOL0     C80776   5.893   1.860   0.543  0.4896  0.2662 -0.3797
  599MOL0     C80777   6.004   1.798   0.497  0.7768 -0.3095  0.2152
  599MOL0     O80778   6.282   1.878   0.374  0.2523  0.0539 -0.2797
  599MOL0     C80779   6.515   1.736   0.293 -0.2905  0.2346 -0.1071
  599MOL0     C80780   6.634   1.681   0.255 -0.3452 -0.5017 -0.0432
  599MOL0     N80781   7.077   0.994   0.120  0.2253 -0.0655 -0.6968
  599MOL0     N80782   7.191   0.948   0.094  0.2199 -0.1438  0.3983
  599MOL0     C80783   8.020   0.240  -0.212  0.0376 -0.1996  0.0091
  599MOL0     C80784   8.124   0.148  -0.166 -0.1423  0.0545 -0.1220
  599MOL0     C80785   8.506   0.022   0.075  0.5488  0.2193  0.5283
  599MOL0     C80786   8.527  -0.072  -0.029  0.0737 -0.2068  0.2789
  599MOL0     C80787   8.642  -0.155  -0.023 -0.0365  0.1842 -0.2135
  599MOL0     C80788   8.737  -0.141   0.084 -0.7868  0.1722 -0.5627
  599MOL0     O80789   8.856  -0.220   0.093 -0.3780 -0.4885 -0.1639
  599MOL0     C80790   8.945  -0.208   0.205  0.0405  0.4866 -0.0663
  599MOL0     C80791   9.031  -0.332   0.210  0.0896  0.2303  0.3353
  599MOL0     C80792   9.126  -0.331   0.324 -0.0971  0.7097  0.2819
  599MOL0     C80793   9.206  -0.461   0.320  0.3611 -1.0547 -1.2370
  599MOL0     C80794   9.308  -0.468   0.430  0.3272  0.1746  0.3714
  599MOL0     C80795   9.384  -0.464   0.525 -0.0041  0.3274  0.4308
  599MOL0     C80796   8.704  -0.058   0.185  0.0993 -0.2703  0.5756
  599MOL0     C80797   8.596   0.030   0.180  0.0663  0.1186  0.5754
  599MOL0     H80798   8.328   0.375  -0.013 -1.2741 -1.2236  1.4123
  599MOL0     H80799   8.164   0.535  -0.116  3.7104 -0.4385 -2.5506
  599MOL0     H80800   8.002   0.642  -0.213 -0.6680 -0.3209  0.2812
  599MOL0     H80801   8.069   0.551  -0.359 -0.7872 -1.5762 -0.4454
  599MOL0     H80802   7.928   0.745  -0.437 -0.5349 -1.2493 -2.2834
  599MOL0     H80803   7.842   0.599  -0.454  2.7186  0.6517 -1.9978
  599MOL0     H80804   7.714   0.651  -0.248  2.2630 -1.0053  0.3473
  599MOL0     H80805   7.791   0.803  -0.225 -0.7366  0.2641 -1.1476
  599MOL0     H80806   7.704   0.897  -0.425  0.8750 -0.3066  0.7281
  599MOL0     H80807   7.648   0.742  -0.491  0.6165  0.4510 -0.1888
  599MOL0     H80808   7.461   0.874  -0.404 -0.5983 -0.0288  0.8445
  599MOL0     H80809   7.487   0.727  -0.306  4.5211 -1.8337 -1.4877
  599MOL0     H80810   7.589   0.852  -0.119 -1.8991 -1.4434  0.2938
  599MOL0     H80811   7.585   0.995  -0.221  3.1380 -1.6972 -0.2552
  599MOL0     H80812   7.342   1.001  -0.228  0.4321 -0.1253 -0.8735
  599MOL0     H80813   7.332   0.867  -0.117 -3.0186  1.4655 -3.0144
  599MOL0     H80814   7.436   1.137  -0.053  1.4585 -1.1918 -2.0235
  599MOL0     H80815   7.483   0.995   0.035  1.7906  0.4510 -1.5776
  599MOL0     H80816   7.217   1.235  -0.055  0.7843 -0.5400 -0.5832
  599MOL0     H80817   6.913   1.217  -0.034 -1.1858  0.6501  0.5413
  599MOL0     H80818   6.858   1.167   0.117 -0.0588  3.8932  4.2064
  599MOL0     H80819   6.897   1.431   0.086  1.9320  1.6281  0.1605
  599MOL0     H80820   7.068   1.391   0.088 -0.1901 -1.4602 -0.6665
  599MOL0     H80821   7.033   1.470   0.312  1.0741 -1.0213  0.0071
  599MOL0     H80822   7.023   1.290   0.326  1.9805  0.9131  0.6106
  599MOL0     H80823   6.834   1.395   0.439 -1.4598  0.7383 -0.2278
  599MOL0     H80824   6.777   1.306   0.313 -0.3705  1.1079 -1.5494
  599MOL0     H80825   6.629   1.427   0.463 -0.0421 -0.7182 -1.7888
  599MOL0     H80826   6.387   1.600   0.636 -1.3423  1.2485 -2.8413
  599MOL0     H80827   6.321   1.460   0.566  0.5583 -2.0050  3.9864
  599MOL0     H80828   6.492   1.453   0.624  0.6791 -1.4181 -0.6628
  599MOL0     H80829   6.214   1.790   0.765 -0.9460  0.6560  1.4255
  599MOL0     H80830   6.021   1.885   0.866  1.2241 -3.0906 -0.1573
  599MOL0     H80831   5.676   1.785   0.712  1.6059  0.3020 -0.4373
  599MOL0     H80832   5.617   1.917   0.820  2.3151  1.8151  0.2608
  599MOL0     H80833   5.565   2.056   0.640  1.8429  1.1735  1.4541
  599MOL0     H80834   5.632   1.945   0.515 -1.4961 -3.0471  0.0923
  599MOL0     H80835   5.437   1.777   0.593 -1.4878  0.1144  1.1800
  599MOL0     H80836   5.405   1.922   0.503 -1.0233  3.6102  0.7774
  599MOL0     H80837   5.375   1.881   0.810 -0.9362 -0.8163 -0.6953
  599MOL0     H80838   5.342   2.034   0.727  2.4634  0.3859  2.2239
  599MOL0     H80839   5.173   1.784   0.730 -0.3448  0.1096  0.1278
  599MOL0     H80840   5.189   1.843   0.575 -0.5563 -3.6737  1.7835
  599MOL0     H80841   5.120   2.011   0.810 -1.5920 -4.2654  0.9655
  599MOL0     H80842   5.132   2.070   0.640  1.4270 -1.1366 -1.5272
  599MOL0     H80843   4.941   1.840   0.732 -2.0656  0.5622  1.7302
  599MOL0     H80844   4.928   1.930   0.578 -0.2992  1.0812 -0.8911
  599MOL0     H80845   4.852   2.025   0.862 -2.0591 -0.3430  0.4026
  599MOL0     H80846   4.749   2.001   0.725 -0.1267  1.1068 -0.3990
  599MOL0     H80847   5.815   1.875   0.470  2.1676  2.8469 -1.8030
  599MOL0     H80848   6.009   1.774   0.391  0.1099 -2.4384  0.6166
  599MOL0     H80849   6.499   1.818   0.223  0.3033  0.3578 -0.1087
  599MOL0     H80850   6.700   1.724   0.181 -1.6259  1.7802  0.0386
  599MOL0     H80851   7.934   0.205  -0.267 -2.7967  0.8695  3.3886
  599MOL0     H80852   8.132   0.045  -0.197  1.0181  0.1575 -0.2009
  599MOL0     H80853   8.455  -0.082  -0.110 -0.5717  1.2105  0.6485
  599MOL0     H80854   8.666  -0.224  -0.103 -0.6334  0.7975 -0.9360
  599MOL0     H80855   9.009  -0.120   0.196  0.0166  0.5888  0.7033
  599MOL0     H80856   8.890  -0.216   0.299 -0.0413 -1.5630 -0.2469
  599MOL0     H80857   9.096  -0.342   0.123  0.2812 -1.1787  0.6153
  599MOL0     H80858   8.962  -0.418   0.210  0.4339 -0.0469  0.4440
  599MOL0     H80859   9.070  -0.327   0.418 -1.9774 -1.3815 -0.6523
  599MOL0     H80860   9.193  -0.245   0.314 -2.5426  2.6364 -0.4210
  599MOL0     H80861   9.254  -0.475   0.223  1.1516  3.2743 -1.6480
  599MOL0     H80862   9.133  -0.542   0.328 -1.6814  0.6903 -1.2314
  599MOL0     H80863   9.463  -0.466   0.598  0.8383 -2.8047 -0.4025
  599MOL0     H80864   8.776  -0.052   0.265 -0.1641 -0.3751  0.8245
  599MOL0     H80865   8.593   0.098   0.264 -0.5762  1.5235 -0.5338
  600MOL0     O80866   0.985   9.828   6.677 -0.0800  0.7102 -0.5875
  600MOL0     C80867   1.020   9.786   6.569 -0.3958 -0.6447 -0.1376
  600MOL0     O80868   0.945   9.786   6.453 -0.2310 -0.4780 -0.1389
  600MOL0     C80869   0.813   9.832   6.445 -0.6436  1.0180  0.3781
  600MOL0     C80870   0.722   9.831   6.552 -0.1333 -0.4570  0.2514
  600MOL0     C80871   0.598   9.883   6.528 -0.4600  0.8827 -0.5630
  600MOL0     C80872   0.551   9.939   6.410 -0.0819  0.6637 -0.1844
  600MOL0     O80873   0.427   9.996   6.382 -0.1152  0.7146 -0.3555
  600MOL0     C80874   0.330   9.983   6.490 -0.2821 -0.7521  0.3970
  600MOL0     C80875   0.187  10.005   6.430 -0.0397  0.0516  0.4392
  600MOL0     C80876   0.166  10.133   6.352  0.0391  0.0499 -0.2641
  600MOL0     C80877   0.018  10.183   6.372 -0.4006  0.9668 -0.0523
  600MOL0     C80878   0.008  10.337   6.343 -0.0992 -0.8815 -0.4453
  600MOL0     C80879   0.066  10.388   6.205 -0.0094 -0.4272 -0.3501
  600MOL0     C80880   0.075  10.544   6.205 -0.2602 -0.2918  0.3251
  600MOL0     C80881   0.125  10.588   6.066  0.4761  0.1468  0.4511
  600MOL0     N80882   0.143  10.730   6.059 -0.6747 -0.0151 -0.1886
  600MOL0     C80883   0.040  10.820   6.072 -0.1418 -0.6010  0.0549
  600MOL0     C80884   0.102  10.934   6.040 -0.1057  0.7267 -0.2424
  600MOL0     C80885   0.053  11.072   6.045 -0.3097  0.6656 -0.2771
  600MOL0     C80886   0.040  11.145   5.910  0.3051  0.1653  0.2912
  600MOL0     C80887  -0.052  11.267   5.921 -0.3561 -0.5260  0.3803
  600MOL0     C80888   0.010  11.388   5.986 -0.0544  0.1529 -0.3903
  600MOL0     O80889  -0.045  11.402   6.120 -0.7874 -0.2692  0.2173
  600MOL0     C80890  -0.096  11.527   6.168 -0.2199 -0.7354 -0.5552
  600MOL0     C80891  -0.055  11.650   6.120  0.2619  0.8851 -0.6000
  600MOL0     C80892  -0.120  11.768   6.168 -0.3714 -0.0316  1.0713
  600MOL0     C80893  -0.050  11.900   6.110  0.4035  0.2035  0.1242
  600MOL0     C80894  -0.230  11.764   6.253 -0.0017 -0.5910  0.1749
  600MOL0     C80895  -0.294  11.898   6.308  1.0252  0.3509 -0.4171
  600MOL0     O80896  -0.384  11.871   6.414  0.1430 -1.1775 -0.2360
  600MOL0     C80897  -0.464  11.978   6.463 -0.0377  0.9299 -0.0003
  600MOL0     C80898  -0.571  12.022   6.389 -1.0015 -0.2623 -0.4837
  600MOL0     C80899  -0.651  12.123   6.433  0.2381  0.2980 -0.6556
  600MOL0     C80900  -0.640  12.168   6.564  0.0835  0.9657 -0.3350
  600MOL0     O80901  -0.734  12.238   6.631 -0.2805  0.3647  0.3621
  600MOL0     C80902  -0.861  12.257   6.571  0.5252  1.0773 -0.0554
  600MOL0     C80903  -0.950  12.334   6.667 -0.2556 -0.5588  0.1055
  600MOL0     C80904  -1.076  12.387   6.593  0.4797  0.8608 -0.0230
  600MOL0     C80905  -1.170  12.458   6.685 -0.0611 -0.1968 -0.5391
  600MOL0     C80906  -1.298  12.508   6.611  0.1357  0.0040 -0.1824
  600MOL0     C80907  -1.411  12.535   6.710  0.3088 -0.4740 -0.3185
  600MOL0     C80908  -1.481  12.409   6.764  0.5488  1.0585 -0.9843
  600MOL0     C80909  -1.607  12.440   6.842  0.1204 -0.2041 -0.6052
  600MOL0    Cl80910  -1.568  12.518   6.992 -0.0241  0.0648 -0.1450
  600MOL0     C80911  -0.526  12.135   6.633 -0.1059 -0.1820 -0.5504
  600MOL0     C80912  -0.442  12.031   6.592  0.2333 -0.2149  0.4652
  600MOL0     O80913  -0.280  12.005   6.253 -0.5007 -0.0308  0.1421
  600MOL0     C80914  -0.273  11.641   6.289 -1.1388  0.6909 -0.7648
  600MOL0     C80915  -0.209  11.527   6.257  0.0972 -0.1268 -0.2655
  600MOL0     N80916   0.236  10.913   6.018  0.1976  0.4298 -0.7980
  600MOL0     N80917   0.262  10.786   6.032 -0.5597  0.1496  0.1606
  600MOL0     C80918   0.636   9.928   6.302 -0.7366  0.0987  0.7161
  600MOL0     C80919   0.769   9.883   6.316  0.1975 -0.3494 -0.4048
  600MOL0     C80920   1.164   9.746   6.556 -0.1897 -0.4432  0.1960
  600MOL0     C80921   1.222   9.679   6.447 -0.1705  0.5831  0.5054
  600MOL0     C80922   1.347   9.620   6.454 -0.2244 -0.0856  0.3571
  600MOL0     C80923   1.426   9.634   6.574 -0.3372 -0.1468  0.7914
  600MOL0     O80924   1.561   9.591   6.588  0.3786  0.5234  0.3576
  600MOL0     C80925   1.610   9.481   6.511 -0.2298  0.5957  0.5653
  600MOL0     C80926   1.755   9.492   6.470 -0.2340 -0.2009 -0.8695
  600MOL0     C80927   1.854   9.506   6.588  0.6648  0.7111 -0.5356
  600MOL0     C80928   1.996   9.540   6.542  0.6688 -0.2433  0.2001
  600MOL0     C80929   2.057   9.437   6.464  0.5963 -0.7938  1.0316
  600MOL0     C80930   2.106   9.345   6.393 -0.0794 -0.0559 -0.0054
  600MOL0     C80931   1.384   9.723   6.666  0.3617 -0.1186 -1.2462
  600MOL0     C80932   1.251   9.771   6.669  0.9454  0.4770  0.2149
  600MOL0     H80933   0.751   9.770   6.637  2.5946 -1.2800 -1.1243
  600MOL0     H80934   0.541   9.863   6.618 -0.1654 -0.8098 -0.7297
  600MOL0     H80935   0.321   9.883   6.532 -1.6399 -0.2487  1.3665
  600MOL0     H80936   0.344  10.052   6.574 -0.6824 -3.2009  2.6010
  600MOL0     H80937   0.156   9.930   6.356 -0.1373 -1.1593  1.6529
  600MOL0     H80938   0.112   9.975   6.504  1.0686 -2.0529  0.7935
  600MOL0     H80939   0.233  10.210   6.390  1.6404 -0.6862 -1.4271
  600MOL0     H80940   0.171  10.103   6.246  1.7242 -1.1734  0.1144
  600MOL0     H80941  -0.048  10.127   6.305  0.3600  0.5518 -0.4646
  600MOL0     H80942  -0.018  10.173   6.475  0.9596  1.0746  0.4436
  600MOL0     H80943  -0.096  10.370   6.339  0.3320  0.7116  0.4096
  600MOL0     H80944   0.049  10.389   6.430 -2.4325 -3.8723  2.7307
  600MOL0     H80945   0.163  10.340   6.192 -0.8083 -2.1171 -0.3360
  600MOL0     H80946  -0.004  10.350   6.129 -0.4114 -3.2415  1.2649
  600MOL0     H80947  -0.021  10.583   6.241  0.8759  1.4860  1.6209
  600MOL0     H80948   0.151  10.583   6.274 -1.6517  0.4129  1.5001
  600MOL0     H80949   0.045  10.561   5.996  1.9252 -0.9360 -0.8474
  600MOL0     H80950   0.218  10.536   6.045  0.9397 -0.1268  2.9150
  600MOL0     H80951  -0.058  10.807   6.118  0.2834 -1.5554  0.7208
  600MOL0     H80952  -0.045  11.065   6.093 -0.1155  2.2710  0.4183
  600MOL0     H80953   0.130  11.113   6.110  1.5293 -1.0035 -1.3025
  600MOL0     H80954   0.007  11.074   5.834 -3.9337  1.8950  0.2451
  600MOL0     H80955   0.140  11.172   5.875  0.8671 -3.5748 -1.4096
  600MOL0     H80956  -0.141  11.240   5.977 -0.1314 -2.1009  0.0324
  600MOL0     H80957  -0.077  11.284   5.816  1.8727 -2.2090 -0.5038
  600MOL0     H80958  -0.024  11.474   5.926 -0.6412 -0.2958 -0.7110
  600MOL0     H80959   0.119  11.379   5.986  0.0497  0.0930  3.0736
  600MOL0     H80960   0.031  11.658   6.055  0.9745  1.9182  0.4337
  600MOL0     H80961  -0.061  11.991   6.170 -4.3363  0.3838 -0.6359
  600MOL0     H80962   0.057  11.884   6.100  0.2150 -1.7971  0.9323
  600MOL0     H80963  -0.084  11.921   6.008  1.1886 -2.3934 -0.7443
  600MOL0     H80964  -0.587  11.982   6.289  1.6975  1.3737 -1.6637
  600MOL0     H80965  -0.723  12.171   6.367  1.2888 -0.3830 -2.3800
  600MOL0     H80966  -0.855  12.308   6.474 -2.3587 -1.3326 -1.6386
  600MOL0     H80967  -0.921  12.168   6.551  0.8589  0.7066  0.5473
  600MOL0     H80968  -0.981  12.270   6.750  0.9651 -1.1352  0.1315
  600MOL0     H80969  -0.905  12.423   6.712  1.2662 -0.3570 -1.6965
  600MOL0     H80970  -1.128  12.298   6.556 -0.6341  0.3820  2.4796
  600MOL0     H80971  -1.039  12.455   6.516  0.7682 -0.2814 -0.9221
  600MOL0     H80972  -1.201  12.387   6.762  0.0476 -0.7675 -1.0166
  600MOL0     H80973  -1.113  12.536   6.736 -1.6854 -1.7035  4.1425
  600MOL0     H80974  -1.332  12.430   6.544  0.9209  0.5767 -1.2718
  600MOL0     H80975  -1.274  12.599   6.555 -0.9136 -1.8431 -3.9350
  600MOL0     H80976  -1.371  12.585   6.799 -0.0590  2.1411 -1.5441
  600MOL0     H80977  -1.482  12.601   6.660 -1.3913 -5.9013 -6.4528
  600MOL0     H80978  -1.405  12.356   6.822  0.7922 -0.8900 -2.9838
  600MOL0     H80979  -1.508  12.342   6.683 -2.1422  0.2664  0.4245
  600MOL0     H80980  -1.650  12.341   6.858  3.3951 -1.5133  1.0460
  600MOL0     H80981  -1.679  12.498   6.784  1.7965 -0.4601 -3.0806
  600MOL0     H80982  -0.508  12.194   6.723 -0.1141 -0.4006 -0.4047
  600MOL0     H80983  -0.361  11.991   6.652 -1.5946 -2.5623  1.5020
  600MOL0     H80984  -0.353  11.625   6.361 -0.1546  0.7153  0.3769
  600MOL0     H80985  -0.239  11.429   6.292 -1.0664 -0.0495 -1.0128
  600MOL0     H80986   0.609   9.961   6.202 -0.0239 -4.2189 -1.1308
  600MOL0     H80987   0.834   9.884   6.229 -0.3231  4.9571 -1.0384
  600MOL0     H80988   1.165   9.664   6.356  0.6622 -1.2290  0.2399
  600MOL0     H80989   1.392   9.584   6.362 -1.2458 -1.0115  0.1859
  600MOL0     H80990   1.593   9.389   6.567  0.1043  0.2114  0.0491
  600MOL0     H80991   1.559   9.466   6.415  1.1726 -0.9878  0.0157
  600MOL0     H80992   1.782   9.576   6.405 -0.5510 -0.0190 -0.7652
  600MOL0     H80993   1.771   9.403   6.409  0.7634 -1.5491  1.2214
  600MOL0     H80994   1.860   9.411   6.642 -0.8959 -0.0694 -1.6402
  600MOL0     H80995   1.812   9.579   6.657 -0.2904 -0.9317  0.6941
  600MOL0     H80996   2.061   9.552   6.630  2.9137 -1.5585 -1.1915
  600MOL0     H80997   1.991   9.634   6.486  0.4316 -1.0540 -1.1752
  600MOL0     H80998   2.149   9.270   6.329 -1.7649 -1.6221  0.6132
  600MOL0     H80999   1.432   9.751   6.759 -0.7139  1.2591 -1.0753
  600MOL0     H81000   1.218   9.816   6.763  3.2332 -1.5749  2.1466
  601MOL0     O81001   4.269   2.113   1.260 -0.4699 -0.3744 -0.5054
  601MOL0     C81002   4.331   2.221   1.276 -0.3121 -0.0253  0.1135
  601MOL0     O81003   4.285   2.326   1.346  0.7150 -0.1240 -0.5534
  601MOL0     C81004   4.161   2.317   1.411 -0.1283  0.3142 -0.2922
  601MOL0     C81005   4.151   2.240   1.519 -0.1331  0.4673  0.0063
  601MOL0     C81006   4.034   2.246   1.602  0.5344 -0.4153 -0.3150
  601MOL0     C81007   3.931   2.336   1.573  0.6644  0.6372 -0.9659
  601MOL0     O81008   3.829   2.341   1.665  0.4480 -0.0355 -0.5181
  601MOL0     C81009   3.698   2.362   1.620  0.1004 -0.0778  0.4417
  601MOL0     C81010   3.606   2.313   1.729 -0.1677 -0.3031 -0.4896
  601MOL0     C81011   3.584   2.158   1.705 -0.1304 -0.2430 -0.5581
  601MOL0     C81012   3.506   2.087   1.817 -0.7253 -0.9431  0.3209
  601MOL0     C81013   3.580   2.054   1.934  0.0118 -0.1748 -0.6443
  601MOL0     C81014   3.476   2.046   2.057 -0.7977 -0.4504  0.4042
  601MOL0     C81015   3.516   1.944   2.169  0.5630  0.4428 -0.1339
  601MOL0     C81016   3.633   1.993   2.257 -0.8108 -0.1745 -1.2383
  601MOL0     N81017   3.762   1.938   2.201 -0.1644 -0.3728  0.0719
  601MOL0     C81018   3.864   2.017   2.154 -0.2861 -0.2185  0.7524
  601MOL0     C81019   3.960   1.933   2.118 -0.2668 -0.3266 -0.2023
  601MOL0     C81020   4.088   1.967   2.050  0.9587 -0.1934  0.6701
  601MOL0     C81021   4.061   2.019   1.912  0.0838  0.1644  0.3488
  601MOL0     C81022   3.978   1.940   1.821  0.5949 -0.4943  0.1976
  601MOL0     C81023   4.049   1.819   1.753 -0.5689 -0.2303 -0.5478
  601MOL0     O81024   3.974   1.750   1.656 -1.0307 -0.2445 -0.2209
  601MOL0     C81025   3.845   1.726   1.677 -0.7572 -0.0957  0.0464
  601MOL0     C81026   3.797   1.648   1.780 -0.9941 -0.4100  0.2056
  601MOL0     C81027   3.662   1.669   1.817  0.0559 -0.2117 -0.1005
  601MOL0     C81028   3.634   1.616   1.956  0.4078  0.6237  0.1992
  601MOL0     C81029   3.569   1.733   1.730 -0.2510 -0.6317  0.3544
  601MOL0     C81030   3.427   1.750   1.756  0.4472 -0.2565 -0.4198
  601MOL0     O81031   3.394   1.763   1.880  0.7983  1.1210  0.5580
  601MOL0     C81032   3.264   1.756   1.913  0.0143 -0.2579  0.2805
  601MOL0     C81033   3.174   1.859   1.865 -0.7610 -0.2381 -0.9159
  601MOL0     C81034   3.042   1.844   1.900 -0.0421  0.1069  0.4483
  601MOL0     C81035   2.992   1.739   1.984 -0.2665  0.0667  0.2586
  601MOL0     O81036   2.860   1.735   2.000 -0.3843  0.5669 -0.1051
  601MOL0     C81037   2.811   1.624   2.074  0.1780  0.2353 -0.3248
  601MOL0     C81038   2.660   1.653   2.096  0.1632  1.2029 -0.2722
  601MOL0     C81039   2.586   1.543   2.179 -0.0872 -0.8591  0.4355
  601MOL0     C81040   2.438   1.576   2.190  0.5102 -0.0064  0.5308
  601MOL0     C81041   2.368   1.486   2.298 -0.6685 -0.7221 -0.6266
  601MOL0     C81042   2.224   1.529   2.342  0.2684 -0.8814 -0.1054
  601MOL0     C81043   2.149   1.607   2.233 -0.2361  0.6162 -0.5108
  601MOL0     C81044   2.109   1.538   2.102 -0.5344  0.2159  0.3750
  601MOL0    Cl81045   2.000   1.383   2.154 -0.0367  0.4027  0.2620
  601MOL0     C81046   3.085   1.635   2.020 -0.3917 -0.5764 -0.1439
  601MOL0     C81047   3.225   1.646   1.989  0.4470  0.1889 -0.2222
  601MOL0     O81048   3.348   1.741   1.662 -0.1867  0.3536  0.4876
  601MOL0     C81049   3.618   1.766   1.604  0.6540  0.0431 -0.5372
  601MOL0     C81050   3.751   1.782   1.588 -0.1616 -0.5055 -0.0930
  601MOL0     N81051   3.922   1.800   2.148 -0.4502  0.2920 -0.5922
  601MOL0     N81052   3.802   1.801   2.197 -0.4067 -0.6413 -0.1959
  601MOL0     C81053   3.942   2.402   1.456  0.1577  0.1757  0.2121
  601MOL0     C81054   4.057   2.395   1.376  0.1215 -1.1517  0.0028
  601MOL0     C81055   4.461   2.216   1.203  0.5230  0.3225  0.8156
  601MOL0     C81056   4.508   2.100   1.145 -0.3955  0.1301 -0.5337
  601MOL0     C81057   4.631   2.114   1.070  0.4285  0.4126 -1.1249
  601MOL0     C81058   4.707   2.227   1.066 -0.0790  1.0183 -0.0018
  601MOL0     O81059   4.832   2.214   1.008  0.3381  0.6025  0.0270
  601MOL0     C81060   4.932   2.294   1.069 -0.1753  0.1223  0.4958
  601MOL0     C81061   5.063   2.228   1.033 -0.8135  0.2029  0.3423
  601MOL0     C81062   5.078   2.110   1.123  0.1487  0.0878  0.1087
  601MOL0     C81063   5.204   2.016   1.115 -1.3612  0.1880  0.4201
  601MOL0     C81064   5.188   1.897   1.202 -0.0040 -0.3316 -0.9911
  601MOL0     C81065   5.158   1.805   1.276  0.5110  0.7876 -0.4426
  601MOL0     C81066   4.661   2.347   1.126  0.2007  0.5115 -0.6842
  601MOL0     C81067   4.535   2.341   1.185  0.6136  0.1439 -0.1609
  601MOL0     H81068   4.234   2.174   1.543 -0.5218  0.4304  1.3564
  601MOL0     H81069   4.020   2.201   1.699 -0.0538 -0.5594 -0.4637
  601MOL0     H81070   3.680   2.469   1.607  1.3844 -0.0725 -1.8677
  601MOL0     H81071   3.681   2.305   1.528 -0.9802 -0.9707  1.1630
  601MOL0     H81072   3.660   2.336   1.822  0.2312 -1.9732 -0.2796
  601MOL0     H81073   3.510   2.365   1.729  0.1690  0.3555  0.6639
  601MOL0     H81074   3.532   2.140   1.610  1.2828 -1.5422 -1.1243
  601MOL0     H81075   3.682   2.115   1.684 -0.0188  0.4413 -1.5135
  601MOL0     H81076   3.424   2.151   1.850 -2.1236 -1.6886 -1.4823
  601MOL0     H81077   3.461   1.993   1.783 -2.4431  0.1477 -0.5692
  601MOL0     H81078   3.623   1.954   1.923 -2.0041 -1.3375  1.1826
  601MOL0     H81079   3.653   2.131   1.963 -0.0312 -0.0907 -0.7614
  601MOL0     H81080   3.453   2.147   2.092 -0.1939  0.5305 -1.8392
  601MOL0     H81081   3.379   2.019   2.014 -1.5023  3.6390 -1.0358
  601MOL0     H81082   3.433   1.932   2.240  0.2571 -0.2464 -0.5924
  601MOL0     H81083   3.544   1.848   2.124 -0.1695  0.8134 -1.4390
  601MOL0     H81084   3.632   1.958   2.360  1.2295  1.6410 -0.5354
  601MOL0     H81085   3.634   2.102   2.257 -0.0024 -0.1235 -3.1785
  601MOL0     H81086   3.866   2.124   2.138 -0.6855 -0.4835 -1.4382
  601MOL0     H81087   4.144   2.040   2.110  4.7401 -1.5747 -0.8494
  601MOL0     H81088   4.165   1.889   2.053  2.7551  1.4735  3.2524
  601MOL0     H81089   4.159   2.042   1.868  0.0875 -3.0809 -1.6417
  601MOL0     H81090   4.017   2.119   1.921 -0.9811 -0.0597 -1.7957
  601MOL0     H81091   3.962   2.010   1.738 -0.7580  0.7155  1.4262
  601MOL0     H81092   3.880   1.917   1.863 -0.2459  0.3566 -1.1820
  601MOL0     H81093   4.075   1.748   1.832  1.9834  0.6289 -0.5487
  601MOL0     H81094   4.135   1.858   1.699 -0.6070 -2.2643 -2.1821
  601MOL0     H81095   3.851   1.579   1.844  0.2557  2.0759  2.0373
  601MOL0     H81096   3.594   1.696   2.018 -2.7340  2.2100 -3.4349
  601MOL0     H81097   3.554   1.542   1.939 -2.2092  2.9444  1.6317
  601MOL0     H81098   3.718   1.564   2.002 -0.9953 -4.2294 -1.9830
  601MOL0     H81099   3.202   1.941   1.801  1.2495  1.0197  1.4199
  601MOL0     H81100   2.961   1.908   1.865  1.3618  1.8253  0.2151
  601MOL0     H81101   2.810   1.530   2.019  0.0349  1.4625 -2.5626
  601MOL0     H81102   2.860   1.615   2.171 -3.8928  0.8776  2.0143
  601MOL0     H81103   2.662   1.751   2.145 -1.9894  0.5213  1.3212
  601MOL0     H81104   2.609   1.660   1.999  1.4810  0.1587 -1.0738
  601MOL0     H81105   2.628   1.517   2.277 -1.2255 -0.4637  1.0521
  601MOL0     H81106   2.581   1.450   2.123 -2.5288  0.3419 -1.5190
  601MOL0     H81107   2.435   1.682   2.218 -1.3338  0.6454 -1.8261
  601MOL0     H81108   2.391   1.547   2.096 -0.8471 -0.3344  1.2797
  601MOL0     H81109   2.429   1.493   2.389  1.6362 -2.4568 -1.9394
  601MOL0     H81110   2.369   1.384   2.261  3.7383 -1.0057 -0.2491
  601MOL0     H81111   2.166   1.437   2.356  0.3598 -0.9920 -0.4605
  601MOL0     H81112   2.221   1.595   2.429 -4.0703 -0.2199 -0.5098
  601MOL0     H81113   2.206   1.698   2.211  0.1752  0.4838 -0.0197
  601MOL0     H81114   2.051   1.629   2.275  0.4063 -1.9182  2.6849
  601MOL0     H81115   2.202   1.507   2.054 -0.2587 -0.7659  1.5061
  601MOL0     H81116   2.062   1.598   2.023 -1.2392 -0.3636  0.3402
  601MOL0     H81117   3.044   1.544   2.063 -1.1541 -0.3290 -0.3283
  601MOL0     H81118   3.300   1.579   2.029  1.7893  1.7726  0.0356
  601MOL0     H81119   3.543   1.784   1.528 -1.4896  0.3410  1.5402
  601MOL0     H81120   3.788   1.825   1.496 -0.4822  0.1631  0.0909
  601MOL0     H81121   3.866   2.472   1.421  0.0893  0.0312  0.0727
  601MOL0     H81122   4.050   2.467   1.294 -2.5875  2.0365  2.7262
  601MOL0     H81123   4.460   2.003   1.147  1.0484 -0.6037  1.0718
  601MOL0     H81124   4.665   2.024   1.019 -1.8743 -0.7072 -0.8048
  601MOL0     H81125   4.931   2.395   1.026  0.3229 -1.6002 -4.1736
  601MOL0     H81126   4.925   2.293   1.178  2.1712 -3.7267  0.7868
  601MOL0     H81127   5.144   2.296   1.060 -3.1311  2.8505  1.0322
  601MOL0     H81128   5.078   2.198   0.929  1.9460 -2.2276  1.2984
  601MOL0     H81129   4.996   2.042   1.097  0.1136  1.0710 -2.7549
  601MOL0     H81130   5.061   2.138   1.227  0.4167 -1.7144  0.6821
  601MOL0     H81131   5.290   2.078   1.138 -1.5552  1.6518 -2.3630
  601MOL0     H81132   5.218   1.984   1.011  3.3215  0.9629  0.6125
  601MOL0     H81133   5.126   1.723   1.338  3.2647 -1.8361 -2.2389
  601MOL0     H81134   4.715   2.441   1.123  0.9199  0.3824  3.1769
  601MOL0     H81135   4.493   2.435   1.220  1.1308  1.8991 -3.7868
  602MOL0     O81136   9.935   5.846  10.721 -0.1403 -0.3183 -0.2311
  602MOL0     C81137   9.985   5.762  10.799 -0.5472 -0.1394  0.1213
  602MOL0     O81138   9.906   5.680  10.880 -1.0784  0.8418 -0.0513
  602MOL0     C81139   9.771   5.675  10.881  0.7004  0.2928 -0.2595
  602MOL0     C81140   9.702   5.664  10.760 -0.5126  0.5755  0.0822
  602MOL0     C81141   9.562   5.647  10.767 -0.6022  0.1889  0.8659
  602MOL0     C81142   9.491   5.648  10.891  0.3702 -0.1607  0.3636
  602MOL0     O81143   9.357   5.646  10.884 -0.1018  0.1355  0.0972
  602MOL0     C81144   9.301   5.516  10.870  0.1978 -0.5173  0.6869
  602MOL0     C81145   9.158   5.528  10.811 -0.8527  0.2280 -0.0943
  602MOL0     C81146   9.141   5.602  10.675 -0.0983  0.0538 -0.7928
  602MOL0     C81147   9.196   5.533  10.553 -0.4906 -0.5166  1.0371
  602MOL0     C81148   9.233   5.613  10.429  0.1379  0.5050 -0.5481
  602MOL0     C81149   9.110   5.680  10.370  0.9897 -0.5915 -0.0967
  602MOL0     C81150   9.137   5.763  10.240  0.1576  1.0665 -1.0496
  602MOL0     C81151   9.163   5.671  10.110  0.4403 -0.0322 -0.6681
  602MOL0     N81152   9.171   5.746   9.980 -0.2269 -0.2905 -0.5302
  602MOL0     C81153   9.285   5.803   9.932 -0.2093  1.1283 -0.3891
  602MOL0     C81154   9.253   5.845   9.804  0.3464  0.2047 -0.5821
  602MOL0     C81155   9.361   5.905   9.713  0.4564  0.3070  0.6129
  602MOL0     C81156   9.435   6.017   9.792 -0.7778  0.0590 -0.2835
  602MOL0     C81157   9.356   6.135   9.838 -0.0142  0.8320 -0.9700
  602MOL0     C81158   9.319   6.228   9.724  0.1756 -0.2448 -0.1209
  602MOL0     O81159   9.232   6.335   9.749  0.1146  0.1675 -1.0915
  602MOL0     C81160   9.093   6.308   9.748 -0.0231  0.3285 -0.2927
  602MOL0     C81161   9.021   6.184   9.763 -0.9212  0.1617 -0.1613
  602MOL0     C81162   8.879   6.181   9.761  0.0466  0.1770 -0.4876
  602MOL0     C81163   8.806   6.050   9.777  1.1014 -0.5005 -0.1086
  602MOL0     C81164   8.800   6.299   9.746 -0.2918 -0.3245 -0.2744
  602MOL0     C81165   8.658   6.312   9.742  0.0228 -0.3657  0.2541
  602MOL0     O81166   8.605   6.442   9.719  0.4468  0.3449 -0.1587
  602MOL0     C81167   8.470   6.464   9.702 -0.9375 -0.1777 -0.0246
  602MOL0     C81168   8.441   6.587   9.635 -1.0005  0.7911  0.4177
  602MOL0     C81169   8.313   6.623   9.597  0.8019  0.2565  0.0658
  602MOL0     C81170   8.199   6.543   9.638 -0.8599 -0.5650  0.9624
  602MOL0     O81171   8.066   6.567   9.629 -0.0594 -0.7115  0.5789
  602MOL0     C81172   8.023   6.660   9.534  0.8755  0.1423 -0.0339
  602MOL0     C81173   7.866   6.642   9.514  0.0728 -0.6074 -0.0072
  602MOL0     C81174   7.843   6.547   9.388  0.3696 -0.1178  0.2379
  602MOL0     C81175   7.693   6.544   9.368 -0.0336  0.3552  0.1090
  602MOL0     C81176   7.637   6.453   9.257 -0.3630  0.8412  0.2080
  602MOL0     C81177   7.683   6.485   9.107  0.1240  0.6005  0.0080
  602MOL0     C81178   7.600   6.395   9.011 -0.3248 -0.4988  0.0149
  602MOL0     C81179   7.564   6.458   8.873 -0.4628 -0.6811  0.9736
  602MOL0    Cl81180   7.444   6.589   8.872 -0.0879 -0.1325  0.1824
  602MOL0     C81181   8.229   6.429   9.720 -0.4429 -0.3091  0.0003
  602MOL0     C81182   8.364   6.394   9.744 -0.0528  0.4335  0.2390
  602MOL0     O81183   8.589   6.208   9.741 -0.5454 -0.0976 -0.1539
  602MOL0     C81184   8.879   6.414   9.730 -0.0040  0.1689 -0.7611
  602MOL0     C81185   9.020   6.423   9.727 -0.4753 -0.0754  0.1519
  602MOL0     N81186   9.122   5.808   9.777  0.9776  0.1516 -0.3112
  602MOL0     N81187   9.077   5.746   9.879 -0.0497  0.8897 -0.1131
  602MOL0     C81188   9.561   5.654  11.005 -0.4488  0.5083  1.1593
  602MOL0     C81189   9.703   5.667  11.003  0.4308  0.7315  0.6950
  602MOL0     C81190  10.137   5.768  10.817  0.0063  0.1074  1.1523
  602MOL0     C81191  10.215   5.871  10.757  0.3132 -0.1906 -1.0810
  602MOL0     C81192  10.357   5.867  10.772  0.4977 -0.1834  1.1823
  602MOL0     C81193  10.421   5.768  10.847 -0.6531  0.3346  0.3981
  602MOL0     O81194  10.559   5.780  10.855  0.7870 -0.2805 -0.2445
  602MOL0     C81195  10.634   5.668  10.906  0.3856 -0.3119  0.2428
  602MOL0     C81196  10.786   5.702  10.876 -0.1301 -1.4041  0.0342
  602MOL0     C81197  10.844   5.809  10.969 -0.4283  0.4311 -0.0856
  602MOL0     C81198  10.986   5.843  10.917 -0.0710 -0.4810  0.5624
  602MOL0     C81199  11.087   5.747  10.973 -0.1648 -0.2460 -0.3744
  602MOL0     C81200  11.174   5.678  11.028 -0.7971 -0.5987 -0.4812
  602MOL0     C81201  10.342   5.661  10.900 -0.1408  0.0575 -0.0377
  602MOL0     C81202  10.207   5.672  10.892  0.3417 -0.3665  1.2346
  602MOL0     H81203   9.755   5.666  10.666  0.4972 -2.4714  0.4635
  602MOL0     H81204   9.496   5.623  10.685 -1.3644  1.7288  0.9993
  602MOL0     H81205   9.363   5.460  10.799  1.5988  1.7942  0.0077
  602MOL0     H81206   9.306   5.467  10.968 -2.0409  1.9771  2.2069
  602MOL0     H81207   9.118   5.427  10.799  0.5455 -0.3882  0.2100
  602MOL0     H81208   9.088   5.580  10.878  0.7270  1.1745  0.9009
  602MOL0     H81209   9.036   5.618  10.651 -0.1538  0.5073 -0.2773
  602MOL0     H81210   9.194   5.697  10.687  2.8363 -1.3723 -1.5761
  602MOL0     H81211   9.291   5.492  10.588 -0.0146 -0.7566 -0.4554
  602MOL0     H81212   9.128   5.453  10.523  1.2631 -0.9488 -2.1776
  602MOL0     H81213   9.310   5.678  10.471  0.1103  0.2947 -0.1615
  602MOL0     H81214   9.281   5.552  10.352  1.7370  3.4034 -2.0036
  602MOL0     H81215   9.024   5.612  10.370  1.2731 -0.9593  0.9714
  602MOL0     H81216   9.087   5.758  10.444 -0.8291 -0.4498 -0.7581
  602MOL0     H81217   9.043   5.818  10.234  0.1752  1.9447  3.3704
  602MOL0     H81218   9.218   5.836  10.249 -2.5372  4.7853 -3.8661
  602MOL0     H81219   9.087   5.593  10.099  2.1973 -2.0180  0.6876
  602MOL0     H81220   9.258   5.623  10.132  0.6494 -0.0434 -1.5633
  602MOL0     H81221   9.382   5.814   9.979  0.6193 -0.8379 -1.5422
  602MOL0     H81222   9.429   5.834   9.665  0.0606 -0.0210  0.5294
  602MOL0     H81223   9.298   5.949   9.636 -2.8967 -2.9849  1.1887
  602MOL0     H81224   9.522   6.047   9.733 -0.5022 -0.0904  0.0390
  602MOL0     H81225   9.481   5.976   9.883  1.7481  0.2471 -1.3922
  602MOL0     H81226   9.405   6.197   9.914 -0.7219  1.5694 -1.1007
  602MOL0     H81227   9.270   6.086   9.884  0.5610  0.0055 -0.7487
  602MOL0     H81228   9.273   6.164   9.647 -0.4484  0.6540 -0.5132
  602MOL0     H81229   9.406   6.273   9.677 -0.2084  1.3209  0.6183
  602MOL0     H81230   9.072   6.092   9.788  0.4646  0.5049 -1.5668
  602MOL0     H81231   8.736   6.030   9.695  0.6974 -1.7766  0.5243
  602MOL0     H81232   8.867   5.960   9.785 -2.5277 -3.0152  2.5056
  602MOL0     H81233   8.748   6.062   9.869 -1.3375  1.6899 -1.7645
  602MOL0     H81234   8.523   6.652   9.609 -0.2301 -0.5227 -0.5955
  602MOL0     H81235   8.296   6.724   9.560 -0.4957 -0.3778 -1.1197
  602MOL0     H81236   8.042   6.762   9.568 -0.6117 -0.3055  2.4283
  602MOL0     H81237   8.071   6.644   9.438  1.4746  0.8304  0.1444
  602MOL0     H81238   7.826   6.595   9.604  0.9162  0.4565  0.9605
  602MOL0     H81239   7.809   6.734   9.495 -1.3645 -0.8860  2.5188
  602MOL0     H81240   7.884   6.451   9.420 -0.8784 -0.9476 -0.5698
  602MOL0     H81241   7.899   6.567   9.296  0.3598  3.1882  0.8221
  602MOL0     H81242   7.635   6.525   9.459 -0.6099  0.9062 -0.1367
  602MOL0     H81243   7.671   6.649   9.345  0.7423  0.6277  0.5577
  602MOL0     H81244   7.530   6.436   9.271  0.1837 -1.6443  2.2726
  602MOL0     H81245   7.688   6.361   9.289 -0.8196  0.3963 -0.3237
  602MOL0     H81246   7.656   6.588   9.084 -3.2926 -0.2975 -0.6427
  602MOL0     H81247   7.789   6.474   9.085  0.3923  2.3459  0.3177
  602MOL0     H81248   7.502   6.365   9.051  0.0653  0.4431  1.7985
  602MOL0     H81249   7.655   6.302   9.000  0.3125 -0.1367  0.1118
  602MOL0     H81250   7.533   6.376   8.809  1.5090 -0.7421  0.0156
  602MOL0     H81251   7.661   6.491   8.833 -0.7656  0.0856  0.8435
  602MOL0     H81252   8.156   6.357   9.755  0.1345 -0.2437  1.4028
  602MOL0     H81253   8.393   6.307   9.802 -0.3961  0.4238  0.3990
  602MOL0     H81254   8.826   6.507   9.709  0.7890  0.1882 -2.9186
  602MOL0     H81255   9.061   6.522   9.713 -2.0597  0.2490 -3.0055
  602MOL0     H81256   9.504   5.638  11.096 -0.7848  0.9910  1.0360
  602MOL0     H81257   9.768   5.672  11.090 -1.1426  0.6638  1.9246
  602MOL0     H81258  10.164   5.945  10.696 -0.0064 -0.7582 -1.5144
  602MOL0     H81259  10.419   5.939  10.719  0.9351 -1.0656  0.4512
  602MOL0     H81260  10.629   5.651  11.014  3.0312  0.4500  0.5696
  602MOL0     H81261  10.619   5.569  10.862  0.0352 -0.7188  1.2490
  602MOL0     H81262  10.786   5.743  10.775  0.8826  1.6198  1.1343
  602MOL0     H81263  10.850   5.615  10.894  0.7585 -0.8872 -0.5501
  602MOL0     H81264  10.845   5.781  11.075 -1.3797  3.2577  0.7516
  602MOL0     H81265  10.782   5.899  10.973  1.9668  2.2580 -1.4354
  602MOL0     H81266  11.019   5.943  10.946 -0.7805  0.1694 -0.8209
  602MOL0     H81267  10.991   5.838  10.808  0.7074 -2.3669  0.6358
  602MOL0     H81268  11.256   5.619  11.063  0.6670 -0.5730 -3.5466
  602MOL0     H81269  10.385   5.576  10.953 -0.8023  1.6932  3.4491
  602MOL0     H81270  10.140   5.604  10.943  0.1352  1.7921  4.0965
  603MOL0     O81271   3.588   8.852   3.326 -0.3415 -0.2566  0.2870
  603MOL0     C81272   3.668   8.914   3.254  0.0731  0.1788 -0.8723
  603MOL0     O81273   3.636   9.013   3.166 -0.3761 -0.4764 -0.6193
  603MOL0     C81274   3.512   9.046   3.126 -0.1936  0.4120  0.5691
  603MOL0     C81275   3.390   9.010   3.179 -0.4227  0.2861 -0.6791
  603MOL0     C81276   3.273   9.055   3.125 -0.0005 -1.2150 -1.5894
  603MOL0     C81277   3.271   9.122   3.003 -0.1868 -0.1251 -0.3825
  603MOL0     O81278   3.158   9.160   2.932  0.0318 -0.5572 -0.2334
  603MOL0     C81279   3.029   9.132   2.985  0.1329  0.1199 -0.6675
  603MOL0     C81280   2.911   9.194   2.907 -1.0399 -0.4871  0.7231
  603MOL0     C81281   2.953   9.339   2.848 -0.0001 -0.0807 -0.5993
  603MOL0     C81282   2.927   9.434   2.957  0.2281 -0.0178 -0.4375
  603MOL0     C81283   2.930   9.573   2.897 -0.1259  0.2366  0.3292
  603MOL0     C81284   2.795   9.632   2.876 -0.7041 -0.5677  0.3078
  603MOL0     C81285   2.708   9.574   2.762 -0.2002  0.4974 -0.4821
  603MOL0     C81286   2.745   9.608   2.623  0.0673  0.5462  0.3160
  603MOL0     N81287   2.635   9.557   2.539 -1.0522  0.3718  0.3729
  603MOL0     C81288   2.595   9.426   2.539  0.1549 -0.2103 -0.0073
  603MOL0     C81289   2.511   9.405   2.437  0.5669 -0.3505  0.5024
  603MOL0     C81290   2.457   9.269   2.399  0.3508 -0.0968  0.3688
  603MOL0     C81291   2.351   9.220   2.496  0.4245 -0.3373  0.5834
  603MOL0     C81292   2.298   9.086   2.449 -0.8235  0.5135  0.1918
  603MOL0     C81293   2.241   9.073   2.308 -0.1155  0.1695  0.5165
  603MOL0     O81294   2.122   9.152   2.291  0.2085 -0.2053 -0.0456
  603MOL0     C81295   2.045   9.140   2.179 -0.1907  0.0967 -0.3300
  603MOL0     C81296   2.086   9.051   2.071  0.3898 -0.1937 -0.6950
  603MOL0     C81297   2.018   9.046   1.952  0.2942 -0.2466  0.4979
  603MOL0     C81298   2.083   8.978   1.830  0.4284  0.5139 -1.0791
  603MOL0     C81299   1.895   9.113   1.940  0.0625 -0.2956  0.0087
  603MOL0     C81300   1.812   9.132   1.814 -0.0842 -0.2165 -0.9143
  603MOL0     O81301   1.688   9.187   1.829  0.2848  0.0282  0.4490
  603MOL0     C81302   1.583   9.124   1.771  0.8251 -1.1404  0.2394
  603MOL0     C81303   1.595   9.000   1.718 -0.8855  0.3991  0.0346
  603MOL0     C81304   1.483   8.936   1.660 -0.7278  0.4378  0.2935
  603MOL0     C81305   1.358   9.002   1.646 -0.1565  0.3337  0.6803
  603MOL0     O81306   1.258   8.958   1.565 -0.0583 -0.3576  0.6307
  603MOL0     C81307   1.237   8.816   1.576 -0.8083 -0.9501 -1.1262
  603MOL0     C81308   1.095   8.774   1.547  0.1608  0.1181 -0.0286
  603MOL0     C81309   1.007   8.803   1.671 -0.5431  0.0236 -0.1315
  603MOL0     C81310   0.886   8.708   1.653  0.0619  0.3656  0.6001
  603MOL0     C81311   0.782   8.701   1.768 -0.0247 -0.8177  0.5059
  603MOL0     C81312   0.692   8.587   1.747  0.4623 -1.0149 -0.1985
  603MOL0     C81313   0.612   8.562   1.876 -0.5618 -0.3961  0.4858
  603MOL0     C81314   0.476   8.481   1.875  0.3951  0.5524  0.6385
  603MOL0    Cl81315   0.484   8.333   1.794 -0.1954  0.4913 -0.0862
  603MOL0     C81316   1.343   9.136   1.700  0.3479  0.4824 -0.1189
  603MOL0     C81317   1.460   9.200   1.759 -0.3122 -0.8860  0.3377
  603MOL0     O81318   1.859   9.107   1.706 -0.5506 -0.5668 -0.7745
  603MOL0     C81319   1.848   9.177   2.051  0.5047 -0.4539 -0.7479
  603MOL0     C81320   1.921   9.190   2.172  0.3439 -0.1148  0.2351
  603MOL0     N81321   2.487   9.531   2.384 -0.0295  0.2420 -0.3900
  603MOL0     N81322   2.565   9.622   2.437 -1.2777  0.9226  0.6916
  603MOL0     C81323   3.393   9.168   2.956 -0.1274  0.5412  0.3791
  603MOL0     C81324   3.513   9.134   3.023  0.3349 -0.9425  0.2657
  603MOL0     C81325   3.810   8.891   3.281 -0.0724  0.3679 -0.3219
  603MOL0     C81326   3.850   8.822   3.395  0.0886  0.1551 -0.5433
  603MOL0     C81327   3.983   8.804   3.422 -0.4543 -0.0472  0.5699
  603MOL0     C81328   4.083   8.860   3.338  0.6860  0.3676 -0.1865
  603MOL0     O81329   4.218   8.833   3.337  0.1801  0.6550  0.0932
  603MOL0     C81330   4.259   8.715   3.407  0.4234 -1.0681  0.6832
  603MOL0     C81331   4.383   8.653   3.350  0.1788 -0.4789  0.3359
  603MOL0     C81332   4.493   8.751   3.301  0.2904  0.0143 -0.5014
  603MOL0     C81333   4.498   8.755   3.148 -0.2740 -1.2104  0.4832
  603MOL0     C81334   4.595   8.852   3.099  0.1087 -1.1107 -0.0830
  603MOL0     C81335   4.669   8.936   3.054 -0.0425  1.0528 -0.3739
  603MOL0     C81336   4.041   8.935   3.221  0.4459  0.0086  0.3944
  603MOL0     C81337   3.906   8.946   3.199 -0.1661 -0.5239 -0.3802
  603MOL0     H81338   3.385   8.957   3.274  1.3182  0.9401 -0.1653
  603MOL0     H81339   3.178   9.041   3.176  0.8164 -1.8773 -0.2245
  603MOL0     H81340   3.008   9.027   3.008  1.2349 -0.3565 -1.7082
  603MOL0     H81341   3.034   9.173   3.086 -3.3171 -2.1814  0.6427
  603MOL0     H81342   2.898   9.132   2.818  2.3078 -0.1131 -0.1766
  603MOL0     H81343   2.821   9.209   2.967 -0.4225  2.0798  1.1526
  603MOL0     H81344   3.057   9.341   2.813  0.7006 -0.9801  1.2906
  603MOL0     H81345   2.893   9.354   2.757  2.0517 -1.1350 -2.2181
  603MOL0     H81346   2.831   9.422   3.007  1.0959  3.1427  2.3799
  603MOL0     H81347   3.005   9.434   3.034 -0.6448  4.3662  0.7333
  603MOL0     H81348   2.994   9.633   2.962 -0.9965  1.0054  0.5064
  603MOL0     H81349   2.988   9.572   2.805  0.2785 -2.2799  0.5570
  603MOL0     H81350   2.744   9.626   2.973  0.2440 -2.6972  0.7444
  603MOL0     H81351   2.802   9.739   2.858  1.2697 -0.5999  0.6316
  603MOL0     H81352   2.696   9.466   2.769 -0.8135  0.2752 -3.5391
  603MOL0     H81353   2.610   9.611   2.795 -0.4222 -1.5186  1.3451
  603MOL0     H81354   2.843   9.567   2.596 -0.9267 -1.1359 -0.9072
  603MOL0     H81355   2.759   9.716   2.614  2.0777  0.5429  2.4594
  603MOL0     H81356   2.632   9.348   2.604  4.4357  1.6611  0.1322
  603MOL0     H81357   2.399   9.274   2.306  0.3736  2.0931  0.3991
  603MOL0     H81358   2.539   9.200   2.379 -1.9382 -2.8605 -0.0961
  603MOL0     H81359   2.259   9.280   2.501 -0.2957 -1.2419 -0.8997
  603MOL0     H81360   2.395   9.222   2.596 -0.4020 -0.2307  0.9581
  603MOL0     H81361   2.219   9.040   2.509  0.9210 -1.0993  1.3342
  603MOL0     H81362   2.378   9.011   2.447 -0.5316  0.7084 -3.9908
  603MOL0     H81363   2.200   8.972   2.296  1.3530 -0.2526 -1.5380
  603MOL0     H81364   2.310   9.070   2.223 -0.0263 -1.1639  0.6063
  603MOL0     H81365   2.181   8.998   2.073  0.1416 -0.6978  1.9366
  603MOL0     H81366   2.111   9.054   1.756  0.4100  2.3643  0.7210
  603MOL0     H81367   2.168   8.922   1.870  0.4062  0.6637 -0.8207
  603MOL0     H81368   2.012   8.910   1.782  0.0113 -0.1010  0.3571
  603MOL0     H81369   1.687   8.943   1.728 -1.1097  0.1040  0.3946
  603MOL0     H81370   1.492   8.837   1.618 -0.4462  0.2518  0.7907
  603MOL0     H81371   1.299   8.767   1.501 -1.1803 -1.4824 -1.0995
  603MOL0     H81372   1.283   8.788   1.671  0.2017 -0.3145 -1.4162
  603MOL0     H81373   1.065   8.841   1.466 -0.0403 -1.4645 -1.3032
  603MOL0     H81374   1.087   8.672   1.507  2.4037  0.5226 -1.7223
  603MOL0     H81375   0.980   8.909   1.678  1.9753  0.5988  2.1338
  603MOL0     H81376   1.057   8.780   1.765  1.8420  0.2564 -1.2621
  603MOL0     H81377   0.831   8.717   1.559  4.8790 -1.3686 -2.7425
  603MOL0     H81378   0.928   8.607   1.654 -0.7870  0.0074  0.9081
  603MOL0     H81379   0.739   8.800   1.781  1.3267 -0.0283 -0.8141
  603MOL0     H81380   0.847   8.681   1.853  1.1265 -0.5005 -0.2835
  603MOL0     H81381   0.619   8.604   1.667  0.0073 -2.6666 -0.1572
  603MOL0     H81382   0.746   8.496   1.721 -0.0186 -1.7070  1.1308
  603MOL0     H81383   0.609   8.655   1.932 -0.8829  1.3546 -2.2474
  603MOL0     H81384   0.691   8.506   1.926  0.5040 -0.4041 -1.1309
  603MOL0     H81385   0.393   8.540   1.834 -0.3413  0.5383  2.0318
  603MOL0     H81386   0.447   8.480   1.980 -0.1978  0.4687  0.4784
  603MOL0     H81387   1.245   9.179   1.681 -0.0419 -0.8446 -1.2567
  603MOL0     H81388   1.476   9.306   1.774  3.5758 -0.7553 -3.0624
  603MOL0     H81389   1.747   9.215   2.059  1.1272  1.7571 -2.4546
  603MOL0     H81390   1.872   9.221   2.264 -0.8644  2.2900 -1.1294
  603MOL0     H81391   3.407   9.231   2.868 -0.3324 -0.4267 -0.3708
  603MOL0     H81392   3.609   9.155   2.978 -0.1862 -1.7551 -1.3180
  603MOL0     H81393   3.777   8.787   3.467 -0.3627  0.0590 -1.0387
  603MOL0     H81394   4.013   8.752   3.512  2.7476 -0.2691 -0.4957
  603MOL0     H81395   4.271   8.747   3.511 -5.8312  1.5396  1.0303
  603MOL0     H81396   4.187   8.633   3.406 -1.1846  0.3018  0.2186
  603MOL0     H81397   4.353   8.595   3.263 -1.7720  0.0489  0.6133
  603MOL0     H81398   4.423   8.592   3.432  0.5516  0.1362  0.6215
  603MOL0     H81399   4.593   8.712   3.323  1.0160  2.3495  0.6924
  603MOL0     H81400   4.477   8.849   3.348 -1.2486 -0.0184 -0.8957
  603MOL0     H81401   4.403   8.781   3.100 -0.7548 -0.0178  1.9832
  603MOL0     H81402   4.522   8.657   3.106  0.5938 -0.8554  0.1232
  603MOL0     H81403   4.738   9.012   3.022  0.5195  0.1963 -1.2763
  603MOL0     H81404   4.113   8.963   3.145  1.8439 -0.3145  1.5416
  603MOL0     H81405   3.867   9.006   3.117  2.1856  1.0794 -0.4478
  604MOL0     O81406   7.154   8.863  11.247  0.0797  0.5135  0.4620
  604MOL0     C81407   7.169   8.923  11.351  0.3796 -0.2982  0.0496
  604MOL0     O81408   7.093   8.907  11.461  0.8177 -0.1041  0.0588
  604MOL0     C81409   6.988   8.814  11.474  0.2364  0.0665  0.5387
  604MOL0     C81410   6.993   8.732  11.583 -0.1331  0.2084  0.7077
  604MOL0     C81411   6.887   8.644  11.602  0.3124 -0.3665  0.2306
  604MOL0     C81412   6.781   8.644  11.510  0.4075  0.0917 -0.1155
  604MOL0     O81413   6.674   8.559  11.527  0.4073  0.5622  0.7500
  604MOL0     C81414   6.562   8.557  11.433  0.0275 -1.1865 -0.4324
  604MOL0     C81415   6.461   8.457  11.471 -0.5912  0.2156 -0.0189
  604MOL0     C81416   6.510   8.320  11.448  0.6596  0.9840 -0.0082
  604MOL0     C81417   6.432   8.219  11.520  0.9805 -0.4139 -1.3290
  604MOL0     C81418   6.290   8.203  11.469  0.3031  0.5083 -0.1364
  604MOL0     C81419   6.197   8.100  11.531 -0.4153 -0.0136 -0.2964
  604MOL0     C81420   6.046   8.122  11.495 -0.8126  0.0322  0.7197
  604MOL0     C81421   5.979   8.213  11.596  0.1650  0.8193 -0.1779
  604MOL0     N81422   5.842   8.206  11.566 -0.8337  0.4470  0.3929
  604MOL0     C81423   5.784   8.261  11.454  0.4090  0.3154  0.5562
  604MOL0     C81424   5.654   8.215  11.458 -0.3780  0.4294 -0.1613
  604MOL0     C81425   5.541   8.244  11.351 -0.2566  0.6506 -0.1593
  604MOL0     C81426   5.402   8.217  11.411  0.1135  0.9629 -0.5580
  604MOL0     C81427   5.293   8.274  11.314 -0.5469  1.3237 -0.9718
  604MOL0     C81428   5.153   8.256  11.364  0.3735  0.3583  0.4609
  604MOL0     O81429   5.071   8.184  11.267  0.6054  0.1760  0.8745
  604MOL0     C81430   4.929   8.164  11.299  0.0806 -0.3405 -0.6818
  604MOL0     C81431   4.843   8.116  11.201 -0.1929  0.0185  0.6751
  604MOL0     C81432   4.709   8.096  11.211  0.3089 -0.2031  0.2577
  604MOL0     C81433   4.652   8.003  11.107 -0.3227 -0.0780  1.0207
  604MOL0     C81434   4.650   8.129  11.334  0.1066  0.1402  0.2586
  604MOL0     C81435   4.509   8.080  11.373  0.2830 -0.2096  0.2905
  604MOL0     O81436   4.498   8.050  11.506 -0.1980 -0.3349 -0.2326
  604MOL0     C81437   4.390   7.980  11.558 -1.0120 -1.3897  0.8448
  604MOL0     C81438   4.362   8.014  11.688  0.2810 -0.1341 -0.2345
  604MOL0     C81439   4.247   7.977  11.760 -0.5780 -0.0326  0.1941
  604MOL0     C81440   4.155   7.897  11.689 -0.7493 -0.2251 -0.0722
  604MOL0     O81441   4.039   7.864  11.755 -0.8778  0.2079 -0.9119
  604MOL0     C81442   3.922   7.897  11.685 -0.1574  0.1803  0.4121
  604MOL0     C81443   3.794   7.891  11.771 -0.1750 -0.2759  0.6284
  604MOL0     C81444   3.676   7.945  11.678  0.1841 -0.3346  0.9220
  604MOL0     C81445   3.563   7.982  11.773 -0.7124 -0.0884  0.5392
  604MOL0     C81446   3.429   8.000  11.704 -0.2579 -0.5353 -0.1978
  604MOL0     C81447   3.310   7.987  11.807  0.2092  0.0440  0.8329
  604MOL0     C81448   3.162   7.969  11.749 -0.1614 -0.3157  1.0472
  604MOL0     C81449   3.061   7.965  11.860  0.2607  0.3376  0.1205
  604MOL0    Cl81450   2.904   8.041  11.816 -0.1151 -0.2942 -0.2622
  604MOL0     C81451   4.183   7.863  11.560 -1.4994 -0.4733  0.1055
  604MOL0     C81452   4.299   7.900  11.489 -0.1220 -0.5695  0.0445
  604MOL0     O81453   4.422   8.065  11.286 -0.1792 -0.3036 -0.4436
  604MOL0     C81454   4.732   8.184  11.434 -0.3857 -0.0945 -0.2073
  604MOL0     C81455   4.868   8.209  11.413  0.3007 -0.5339  0.4222
  604MOL0     N81456   5.641   8.143  11.574 -0.7861  0.3350 -0.5348
  604MOL0     N81457   5.752   8.133  11.635 -0.2271 -0.6663  0.1635
  604MOL0     C81458   6.777   8.740  11.403 -0.4401  0.4376 -0.5671
  604MOL0     C81459   6.891   8.815  11.384 -0.2638 -1.1194  0.2165
  604MOL0     C81460   7.277   9.029  11.350 -1.1814  0.5415  0.0470
  604MOL0     C81461   7.322   9.088  11.466 -0.2717  0.7450 -0.9057
  604MOL0     C81462   7.424   9.179  11.465  0.5190  0.2394  0.4605
  604MOL0     C81463   7.486   9.217  11.344 -0.0051  0.9211 -0.1976
  604MOL0     O81464   7.598   9.292  11.339  0.0015 -0.5924 -0.0190
  604MOL0     C81465   7.646   9.374  11.440 -0.4253 -1.2614  0.4376
  604MOL0     C81466   7.772   9.438  11.379 -0.3872  0.6949  0.4525
  604MOL0     C81467   7.868   9.339  11.311 -0.3556 -0.4280  0.6755
  604MOL0     C81468   7.926   9.252  11.418  0.0847  0.4841 -1.1986
  604MOL0     C81469   8.065   9.214  11.390 -0.4279  0.0902  0.4489
  604MOL0     C81470   8.184   9.198  11.377 -0.5796  0.1035 -0.7468
  604MOL0     C81471   7.435   9.167  11.228  0.2272  0.0337  0.0091
  604MOL0     C81472   7.337   9.065  11.219 -0.1874  0.2440  0.3045
  604MOL0     H81473   7.072   8.730  11.658  1.2941  2.1719 -0.6361
  604MOL0     H81474   6.886   8.572  11.683  2.6476  2.1634  2.7476
  604MOL0     H81475   6.522   8.657  11.413  1.1780 -1.0644 -2.3653
  604MOL0     H81476   6.605   8.522  11.339 -1.9885  0.8405 -2.2208
  604MOL0     H81477   6.419   8.475  11.570 -2.3191 -0.3173 -0.6111
  604MOL0     H81478   6.376   8.470  11.402  1.2747  1.7096 -2.1636
  604MOL0     H81479   6.517   8.283  11.346 -0.4375  0.6590  0.0243
  604MOL0     H81480   6.612   8.316  11.488  0.3798  2.5063  0.9595
  604MOL0     H81481   6.472   8.119  11.503 -1.3788 -0.8371 -5.8357
  604MOL0     H81482   6.429   8.240  11.628 -1.0591  3.3750 -1.9582
  604MOL0     H81483   6.244   8.303  11.475 -2.4072 -0.3214 -3.7132
  604MOL0     H81484   6.297   8.182  11.362  1.3871 -1.3677  0.2628
  604MOL0     H81485   6.222   7.998  11.501 -2.1966 -0.3388 -0.7700
  604MOL0     H81486   6.203   8.092  11.640 -0.9283 -2.8046 -0.4102
  604MOL0     H81487   6.031   8.152  11.391  0.5915  0.9878  0.7608
  604MOL0     H81488   6.002   8.022  11.502 -0.7449  0.0318  1.1787
  604MOL0     H81489   6.021   8.314  11.585 -2.1302  1.7393 -1.0795
  604MOL0     H81490   6.000   8.180  11.698 -3.3239 -1.0212  0.0836
  604MOL0     H81491   5.829   8.323  11.377 -0.5518 -0.6036 -0.7824
  604MOL0     H81492   5.547   8.347  11.315  2.6190  0.1433 -1.3877
  604MOL0     H81493   5.563   8.179  11.267  1.4788 -0.7580  1.3130
  604MOL0     H81494   5.395   8.253  11.514  0.9192 -0.5087  0.0423
  604MOL0     H81495   5.395   8.108  11.409  2.9250  0.6635  0.8810
  604MOL0     H81496   5.314   8.227  11.218  1.1209 -0.9369  0.3959
  604MOL0     H81497   5.311   8.381  11.299 -1.7731  1.7735  0.5379
  604MOL0     H81498   5.113   8.357  11.373 -1.0565 -0.1831  0.4265
  604MOL0     H81499   5.159   8.213  11.464 -1.2647  1.4438  1.0693
  604MOL0     H81500   4.892   8.071  11.114 -0.5218 -2.1326  1.5315
  604MOL0     H81501   4.665   7.900  11.142  0.1918 -0.7683 -1.0778
  604MOL0     H81502   4.546   8.025  11.096 -0.2370  0.3581  1.0429
  604MOL0     H81503   4.698   8.021  11.009 -1.8639 -2.1532 -0.1546
  604MOL0     H81504   4.432   8.075  11.745  1.8300  1.8550 -3.8985
  604MOL0     H81505   4.217   8.008  11.860  0.1107 -1.2223  0.7997
  604MOL0     H81506   3.929   8.004  11.663 -0.2199 -0.0530 -0.8332
  604MOL0     H81507   3.905   7.853  11.586 -3.2251  0.9537  0.4948
  604MOL0     H81508   3.767   7.789  11.801  1.3690 -1.3787 -1.3984
  604MOL0     H81509   3.797   7.954  11.860 -1.9298  1.0758 -0.2068
  604MOL0     H81510   3.647   7.868  11.606  1.6588 -1.6519  1.6713
  604MOL0     H81511   3.694   8.035  11.618 -0.6869 -2.6892 -3.2677
  604MOL0     H81512   3.559   7.898  11.843  0.1913 -1.2381 -0.7463
  604MOL0     H81513   3.595   8.073  11.825 -2.1747 -0.0069  1.3749
  604MOL0     H81514   3.404   7.927  11.626 -0.1147 -2.0596  1.1334
  604MOL0     H81515   3.428   8.099  11.659  1.7340 -0.5590 -0.3498
  604MOL0     H81516   3.328   7.898  11.869 -2.2461  0.0862  1.7175
  604MOL0     H81517   3.303   8.078  11.867 -0.9901  0.1186  0.6018
  604MOL0     H81518   3.153   7.880  11.685  0.6423 -0.3732  1.0145
  604MOL0     H81519   3.136   8.047  11.677  2.3085 -1.0950 -0.8060
  604MOL0     H81520   3.103   8.012  11.950  0.6588 -1.6511  1.0181
  604MOL0     H81521   3.041   7.860  11.882  4.7994 -0.2793  2.6783
  604MOL0     H81522   4.096   7.830  11.504 -2.3113 -0.2982  1.2387
  604MOL0     H81523   4.296   7.894  11.380 -0.0128 -0.9132  0.0581
  604MOL0     H81524   4.704   8.192  11.539  1.1893 -0.0636  0.2446
  604MOL0     H81525   4.917   8.249  11.501 -2.2785 -0.0657  1.7678
  604MOL0     H81526   6.698   8.762  11.332 -0.6624  2.9068  0.3759
  604MOL0     H81527   6.910   8.872  11.294 -0.7701 -1.7036 -0.2664
  604MOL0     H81528   7.265   9.073  11.557 -0.0952  2.9578 -0.3888
  604MOL0     H81529   7.460   9.221  11.558  2.1945 -0.6929  0.2777
  604MOL0     H81530   7.573   9.449  11.474 -1.2950  0.2502 -4.0782
  604MOL0     H81531   7.679   9.306  11.519 -1.1274 -1.2959  0.7113
  604MOL0     H81532   7.835   9.471  11.462  2.5561  0.3157 -1.4552
  604MOL0     H81533   7.742   9.521  11.314 -1.4248 -0.4976 -0.6514
  604MOL0     H81534   7.949   9.399  11.270  1.4952 -0.7588  3.5745
  604MOL0     H81535   7.819   9.279  11.233  0.9485 -1.4695  0.6321
  604MOL0     H81536   7.851   9.174  11.435 -1.1156  1.6760 -0.8144
  604MOL0     H81537   7.935   9.302  11.514 -0.7925  0.3726 -1.0441
  604MOL0     H81538   8.290   9.192  11.365 -0.5342 -0.2056 -0.2300
  604MOL0     H81539   7.487   9.197  11.138 -0.5672  0.6738 -0.2378
  604MOL0     H81540   7.300   9.034  11.122 -2.4061  0.2462  1.0898
  605MOL0     O81541   0.672   9.633  10.247 -0.3524 -0.5856 -0.9344
  605MOL0     C81542   0.657   9.753  10.265  0.1849 -0.2673 -0.1427
  605MOL0     O81543   0.532   9.815  10.264 -0.1245  0.1067 -0.4146
  605MOL0     C81544   0.412   9.744  10.256  0.7452  0.1043 -0.0772
  605MOL0     C81545   0.310   9.814  10.190 -0.6519 -0.5667 -0.1425
  605MOL0     C81546   0.177   9.769  10.178 -0.2500  0.0710 -0.3687
  605MOL0     C81547   0.140   9.655  10.249 -0.2470 -0.8068  0.9952
  605MOL0     O81548   0.007   9.619  10.271  0.7014 -0.1479  0.3248
  605MOL0     C81549  -0.093   9.708  10.223 -0.1724 -0.1778 -0.4843
  605MOL0     C81550  -0.227   9.645  10.265 -0.8245  0.1902 -0.8997
  605MOL0     C81551  -0.342   9.711  10.195 -0.8800 -0.0360  0.7919
  605MOL0     C81552  -0.477   9.657  10.216 -0.5739  0.6342  0.9710
  605MOL0     C81553  -0.581   9.750  10.156 -1.2827 -0.4222  0.3502
  605MOL0     C81554  -0.715   9.683  10.167  0.6914 -0.4481  0.2786
  605MOL0     C81555  -0.811   9.789  10.128 -0.1885 -0.3342 -0.8278
  605MOL0     C81556  -0.948   9.747  10.169  0.0997  0.5270 -0.8573
  605MOL0     N81557  -1.060   9.833  10.141  0.2193 -0.0325  0.0239
  605MOL0     C81558  -1.127   9.912  10.232  0.1527 -0.3196 -0.1255
  605MOL0     C81559  -1.235   9.952  10.160 -0.0434 -0.0529  0.6210
  605MOL0     C81560  -1.351  10.039  10.216  0.2876  0.6392 -0.1575
  605MOL0     C81561  -1.326  10.175  10.164 -0.1058  0.3445 -0.4007
  605MOL0     C81562  -1.377  10.208  10.027  0.4696 -0.5479  0.6351
  605MOL0     C81563  -1.320  10.344   9.986 -0.4403 -0.1653 -0.3959
  605MOL0     O81564  -1.333  10.375   9.845  0.6294 -0.0202 -0.2399
  605MOL0     C81565  -1.464  10.411   9.809 -0.0149  0.0688  0.2930
  605MOL0     C81566  -1.567  10.313   9.786 -0.2684  0.5816  0.7605
  605MOL0     C81567  -1.699  10.348   9.779  0.2630 -0.1604 -0.5526
  605MOL0     C81568  -1.798  10.243   9.778  0.0362  0.2646 -0.8028
  605MOL0     C81569  -1.735  10.489   9.788  0.2385  0.2450 -0.3213
  605MOL0     C81570  -1.874  10.536   9.766  0.0981 -0.1244  0.1499
  605MOL0     O81571  -1.889  10.670   9.794 -0.4084  1.0136 -0.1794
  605MOL0     C81572  -2.010  10.718   9.833  0.6140  0.3676  0.6480
  605MOL0     C81573  -2.054  10.835   9.771 -0.3607 -0.2045 -0.5547
  605MOL0     C81574  -2.172  10.886   9.813 -0.1681 -0.1898 -0.7404
  605MOL0     C81575  -2.243  10.834   9.925  0.1718 -1.0644  0.2224
  605MOL0     O81576  -2.361  10.889   9.962 -0.1308 -0.3656  0.2712
  605MOL0     C81577  -2.461  10.915   9.860 -1.1259 -0.7888 -0.2886
  605MOL0     C81578  -2.577  10.969   9.940  0.0790 -0.7681  0.2763
  605MOL0     C81579  -2.668  10.852   9.998 -0.6332  0.7045  0.3667
  605MOL0     C81580  -2.792  10.909  10.074  0.3620  0.9797 -0.2981
  605MOL0     C81581  -2.869  10.812  10.161  0.5114  0.2902  0.6853
  605MOL0     C81582  -3.000  10.873  10.196 -0.1206 -0.5990  0.5631
  605MOL0     C81583  -3.097  10.785  10.274 -0.1983  0.7030 -0.3016
  605MOL0     C81584  -3.172  10.680  10.187 -0.2391  0.4429 -0.1767
  605MOL0    Cl81585  -3.281  10.771  10.084 -0.6825 -0.3918  0.1885
  605MOL0     C81586  -2.202  10.722   9.987 -0.4597  0.0880  0.1307
  605MOL0     C81587  -2.085  10.662   9.937 -0.7339  0.8258 -0.3161
  605MOL0     O81588  -1.958  10.472   9.706  0.1135  0.1736 -0.8648
  605MOL0     C81589  -1.633  10.583   9.816 -0.1222 -0.2684  0.0481
  605MOL0     C81590  -1.498  10.545   9.827  0.3017  0.9729 -0.2355
  605MOL0     N81591  -1.222   9.909  10.030  0.1468  0.1338 -0.3577
  605MOL0     N81592  -1.124   9.835  10.021  0.2497 -0.1554 -0.1513
  605MOL0     C81593   0.242   9.576  10.311 -0.1108 -0.3150 -0.0003
  605MOL0     C81594   0.373   9.624  10.315 -0.7512  0.0095 -0.5623
  605MOL0     C81595   0.768   9.840  10.293 -0.5184 -0.1754  0.5512
  605MOL0     C81596   0.750   9.973  10.330 -0.3685 -0.1453  0.0083
  605MOL0     C81597   0.864  10.049  10.347 -0.3193 -0.3628 -0.5849
  605MOL0     C81598   0.995   9.996  10.329 -0.1889 -0.4936 -1.1739
  605MOL0     O81599   1.096  10.074  10.367 -0.3609  0.6597  0.5323
  605MOL0     C81600   1.209  10.096  10.281 -0.3122  0.1098  1.1420
  605MOL0     C81601   1.167  10.174  10.147  0.6871 -0.9133  0.9075
  605MOL0     C81602   1.292  10.197  10.058 -0.9444  0.5975  0.2587
  605MOL0     C81603   1.256  10.178   9.913  0.1819 -0.4071 -0.0827
  605MOL0     C81604   1.369  10.151   9.814  0.3077 -0.6215  0.1728
  605MOL0     C81605   1.444  10.134   9.722  0.0419 -0.3021  0.2364
  605MOL0     C81606   1.008   9.871  10.288 -0.4252  0.0162 -0.0971
  605MOL0     C81607   0.902   9.792  10.276  0.4882  0.2042 -0.1891
  605MOL0     H81608   0.314   9.907  10.133 -0.8997 -0.5340 -0.1081
  605MOL0     H81609   0.107   9.829  10.120 -1.8451 -1.3197  0.0380
  605MOL0     H81610  -0.088   9.804  10.276 -3.6971 -0.0279 -0.2214
  605MOL0     H81611  -0.085   9.725  10.116 -0.0829 -4.5673 -1.3576
  605MOL0     H81612  -0.238   9.538  10.245 -1.2080 -0.1693  1.0917
  605MOL0     H81613  -0.248   9.666  10.370 -1.6040 -3.6608 -0.1585
  605MOL0     H81614  -0.338   9.813  10.235  0.1834  1.1732 -2.0623
  605MOL0     H81615  -0.324   9.729  10.088  1.6881  1.4533  1.3918
  605MOL0     H81616  -0.489   9.563  10.161 -2.9687  1.6479 -0.4011
  605MOL0     H81617  -0.491   9.629  10.320  1.0025 -2.6778  0.4271
  605MOL0     H81618  -0.571   9.844  10.210  0.1780  0.1044 -0.7719
  605MOL0     H81619  -0.548   9.770  10.054  2.6097  1.8277  1.8590
  605MOL0     H81620  -0.708   9.587  10.115 -0.1101  0.0913 -0.8635
  605MOL0     H81621  -0.735   9.657  10.271 -1.2677  0.1162  0.0674
  605MOL0     H81622  -0.793   9.885  10.176 -1.9253 -0.1198 -0.5593
  605MOL0     H81623  -0.793   9.786  10.020  3.5906 -0.1324 -0.3465
  605MOL0     H81624  -0.952   9.751  10.278 -0.1137  0.9510 -0.8785
  605MOL0     H81625  -0.961   9.649  10.122  0.3292 -0.1110  0.3620
  605MOL0     H81626  -1.111   9.913  10.339  2.4944 -0.1956 -0.4275
  605MOL0     H81627  -1.452  10.001  10.195  0.9498 -3.2387  2.5106
  605MOL0     H81628  -1.337  10.038  10.325  1.5238  1.2433 -0.3051
  605MOL0     H81629  -1.217  10.189  10.162 -0.1333  1.8416  2.8285
  605MOL0     H81630  -1.364  10.249  10.235 -0.1177  1.2674 -1.3464
  605MOL0     H81631  -1.486  10.215  10.028  0.4706  0.0756 -0.7271
  605MOL0     H81632  -1.340  10.133   9.956 -0.0843  1.6085 -2.1503
  605MOL0     H81633  -1.213  10.342  10.007 -0.5466  0.1915  0.1822
  605MOL0     H81634  -1.366  10.427  10.039 -0.8996 -0.6565 -0.0114
  605MOL0     H81635  -1.528  10.212   9.784  1.4546  1.2121 -0.0856
  605MOL0     H81636  -1.846  10.250   9.680 -2.8990  2.7140  0.6507
  605MOL0     H81637  -1.758  10.142   9.791  0.8275  0.9059  2.3984
  605MOL0     H81638  -1.877  10.250   9.854  1.3261 -1.5402  0.8019
  605MOL0     H81639  -1.997  10.888   9.696 -0.8801  2.6917  0.9479
  605MOL0     H81640  -2.213  10.976   9.768  1.3837 -0.4258 -2.8126
  605MOL0     H81641  -2.425  10.994   9.794  0.4131  1.2854  2.7477
  605MOL0     H81642  -2.494  10.833   9.797  1.3262  0.0585 -2.8668
  605MOL0     H81643  -2.543  11.052  10.002  1.4055  1.2679 -2.9355
  605MOL0     H81644  -2.639  11.019   9.865  2.1075 -1.0811 -1.6947
  605MOL0     H81645  -2.613  10.780  10.060  0.8560  1.1522 -0.4159
  605MOL0     H81646  -2.704  10.798   9.910  2.7383  2.1150 -2.0641
  605MOL0     H81647  -2.753  10.991  10.135  0.5608  1.4276 -1.0184
  605MOL0     H81648  -2.857  10.930   9.988  0.9295 -1.4795 -1.4240
  605MOL0     H81649  -2.813  10.791  10.252  2.7102  1.6064 -0.2782
  605MOL0     H81650  -2.873  10.719  10.102  0.5283  1.3053 -0.9881
  605MOL0     H81651  -2.965  10.945  10.270  2.3378  2.3054 -3.0177
  605MOL0     H81652  -3.045  10.933  10.116  0.3253  0.7216  1.2781
  605MOL0     H81653  -3.160  10.847  10.339  3.3595  2.1067  2.0905
  605MOL0     H81654  -3.039  10.728  10.347 -0.7109  2.9519  2.0336
  605MOL0     H81655  -3.219  10.612  10.259  0.6619  3.1236  3.2348
  605MOL0     H81656  -3.101  10.618  10.131  0.7634 -1.0306  2.5069
  605MOL0     H81657  -2.253  10.659  10.059  0.6005 -2.2043 -1.0202
  605MOL0     H81658  -2.047  10.570   9.979  0.5472  1.7177  0.5659
  605MOL0     H81659  -1.652  10.690   9.818  1.6157  0.1021 -1.1209
  605MOL0     H81660  -1.415  10.612   9.848  2.1992 -0.9698 -1.1068
  605MOL0     H81661   0.217   9.486  10.367 -1.6720 -1.4588 -2.3967
  605MOL0     H81662   0.455   9.570  10.361 -1.3493  1.2974  2.1805
  605MOL0     H81663   0.655  10.021  10.350  0.2145  0.6982  0.8226
  605MOL0     H81664   0.856  10.153  10.378  2.4863 -0.4812  0.7967
  605MOL0     H81665   1.293  10.136  10.339  1.0978  0.2624 -0.9226
  605MOL0     H81666   1.257  10.002  10.253 -0.3494 -0.9833  4.3700
  605MOL0     H81667   1.097  10.256  10.167 -0.4362 -2.5025  4.1982
  605MOL0     H81668   1.096  10.108  10.096 -0.9941 -0.4016  2.4776
  605MOL0     H81669   1.373  10.127  10.081 -1.6436  0.2243  1.7040
  605MOL0     H81670   1.338  10.295  10.071  0.2393  0.0835  0.1009
  605MOL0     H81671   1.191  10.257   9.876  1.1154  0.1060 -0.6567
  605MOL0     H81672   1.192  10.089   9.903 -1.5266  0.5672  1.4214
  605MOL0     H81673   1.505  10.122   9.634 -1.5617 -0.4981 -0.8958
  605MOL0     H81674   1.106   9.828  10.271  2.1112  1.6362  6.7847
  605MOL0     H81675   0.909   9.690  10.238 -1.5722 -0.4625  1.0529
  606MOL0     O81676   8.837   2.414   5.449 -0.0165  1.4921  0.1326
  606MOL0     C81677   8.888   2.387   5.343 -0.4856  0.9680  1.1349
  606MOL0     O81678   8.826   2.410   5.219 -0.4454  0.9274 -0.1636
  606MOL0     C81679   8.698   2.474   5.212 -0.6539 -0.4576  0.0351
  606MOL0     C81680   8.607   2.426   5.132  0.3627  0.8468  0.4176
  606MOL0     C81681   8.478   2.473   5.127 -0.4263  0.5215 -0.2397
  606MOL0     C81682   8.435   2.578   5.213 -0.3323 -0.1685 -0.5296
  606MOL0     O81683   8.303   2.622   5.213 -0.3761 -0.0633  0.6799
  606MOL0     C81684   8.211   2.556   5.126 -0.1584 -0.1384  0.1453
  606MOL0     C81685   8.081   2.642   5.137  0.2694  0.8398  0.2236
  606MOL0     C81686   7.966   2.582   5.050 -0.0543 -0.3105  0.1758
  606MOL0     C81687   7.943   2.433   5.087 -0.1629 -0.2315  0.3418
  606MOL0     C81688   7.800   2.380   5.041  0.0541  0.1784  0.0747
  606MOL0     C81689   7.776   2.377   4.890 -0.7760  0.5790  0.8795
  606MOL0     C81690   7.829   2.245   4.827  0.3485  0.2715  0.1715
  606MOL0     C81691   7.839   2.235   4.679  0.7054  0.0712 -0.2148
  606MOL0     N81692   7.717   2.228   4.595 -0.3051 -0.5091 -0.8345
  606MOL0     C81693   7.617   2.154   4.628 -0.6040  0.6667 -0.4211
  606MOL0     C81694   7.513   2.199   4.542  0.1877  0.5373  0.0166
  606MOL0     C81695   7.372   2.160   4.559  0.3941  0.9965  0.1223
  606MOL0     C81696   7.354   2.019   4.500  0.2729  0.8240 -0.0800
  606MOL0     C81697   7.229   2.001   4.417  0.7441 -0.3258 -0.1863
  606MOL0     C81698   7.096   2.015   4.499 -0.3576  0.2578  0.4893
  606MOL0     O81699   6.985   2.009   4.412 -0.6024  0.2715  0.1645
  606MOL0     C81700   6.854   2.011   4.469 -1.3091 -0.3544 -0.4981
  606MOL0     C81701   6.738   2.020   4.386 -0.5834  0.6444 -0.2246
  606MOL0     C81702   6.603   2.011   4.440 -0.0230  0.7119  0.1178
  606MOL0     C81703   6.483   2.039   4.337  0.0979  0.0245 -0.6078
  606MOL0     C81704   6.586   1.990   4.581 -0.0886 -0.2950  0.8530
  606MOL0     C81705   6.460   1.984   4.668  0.5639 -0.1932  0.5692
  606MOL0     O81706   6.341   2.020   4.614 -0.5274  0.1796 -0.5353
  606MOL0     C81707   6.224   1.985   4.679 -0.1634 -0.2657  0.0224
  606MOL0     C81708   6.159   2.070   4.772  0.3339  0.1804 -0.4640
  606MOL0     C81709   6.042   2.038   4.834  0.4272  0.2201  0.4390
  606MOL0     C81710   5.979   1.915   4.810 -0.4171  0.2561 -0.5429
  606MOL0     O81711   5.851   1.883   4.845  0.1316 -0.3151  0.0119
  606MOL0     C81712   5.834   1.898   4.990  0.4022  0.8409  0.7536
  606MOL0     C81713   5.727   1.794   5.022  0.7266  0.2949 -0.5329
  606MOL0     C81714   5.735   1.744   5.165 -0.1148 -0.3250  0.9090
  606MOL0     C81715   5.603   1.684   5.217 -0.2406 -0.3567  0.2704
  606MOL0     C81716   5.616   1.656   5.365  0.5215 -0.5207 -0.0355
  606MOL0     C81717   5.489   1.608   5.428  0.7575  0.2199 -0.1040
  606MOL0     C81718   5.504   1.584   5.571 -0.5978 -0.8770  0.6170
  606MOL0     C81719   5.369   1.549   5.631  0.4507  1.2337 -0.2544
  606MOL0    Cl81720   5.310   1.387   5.595 -0.1319 -0.4058 -0.1048
  606MOL0     C81721   6.034   1.828   4.722  0.6321  0.6833  0.7799
  606MOL0     C81722   6.157   1.857   4.659  0.5255  0.3170  0.1243
  606MOL0     O81723   6.468   1.946   4.786 -0.3593 -0.1290 -0.3742
  606MOL0     C81724   6.704   1.973   4.663  0.8019 -0.4046 -0.2458
  606MOL0     C81725   6.829   1.985   4.606 -0.9330  0.2681 -0.7962
  606MOL0     N81726   7.558   2.295   4.458  0.2302  0.2960  1.1059
  606MOL0     N81727   7.682   2.311   4.487  0.0295 -0.1873  0.4794
  606MOL0     C81728   8.528   2.630   5.303 -0.4400  0.2141 -0.6654
  606MOL0     C81729   8.666   2.580   5.301 -0.1316  0.5036  0.6948
  606MOL0     C81730   9.009   2.303   5.347 -0.1943  0.1234  0.0826
  606MOL0     C81731   9.058   2.267   5.218 -0.2746  0.9914  0.0584
  606MOL0     C81732   9.142   2.155   5.210  0.4537 -0.1542 -0.2407
  606MOL0     C81733   9.193   2.088   5.325 -0.2837 -0.2780 -0.2762
  606MOL0     O81734   9.299   2.000   5.315 -0.7211 -0.1496  0.2466
  606MOL0     C81735   9.360   1.950   5.433 -0.4177 -0.0504 -0.2523
  606MOL0     C81736   9.498   1.876   5.399 -0.2884  0.7554  0.3034
  606MOL0     C81737   9.551   1.796   5.516  0.4332 -0.0768 -0.7288
  606MOL0     C81738   9.703   1.814   5.529  0.8336 -1.1522  0.1601
  606MOL0     C81739   9.769   1.753   5.413 -0.4427  0.4190 -0.3422
  606MOL0     C81740   9.815   1.689   5.326 -1.2749  0.1014 -0.6735
  606MOL0     C81741   9.148   2.140   5.448  0.4479 -1.0639 -0.5556
  606MOL0     C81742   9.055   2.241   5.461  0.0677 -0.1276 -0.0562
  606MOL0     H81743   8.628   2.337   5.073  4.4355  0.9839  1.3165
  606MOL0     H81744   8.413   2.423   5.056  0.1138 -1.0493  0.3427
  606MOL0     H81745   8.247   2.576   5.024  0.6021  2.6849  0.8736
  606MOL0     H81746   8.198   2.449   5.144  1.1059 -1.1009 -3.6062
  606MOL0     H81747   8.039   2.642   5.238  0.6267 -1.8086  0.4277
  606MOL0     H81748   8.100   2.745   5.103  0.5544  0.1673 -1.7666
  606MOL0     H81749   7.876   2.636   5.080  2.6716  4.0775  1.4577
  606MOL0     H81750   7.994   2.601   4.946  1.2959  0.3910  0.6311
  606MOL0     H81751   8.019   2.381   5.029  0.5165  3.0353 -1.9815
  606MOL0     H81752   7.952   2.431   5.196 -1.0867  2.7523  0.5622
  606MOL0     H81753   7.772   2.283   5.084  2.0818 -0.4996 -0.0020
  606MOL0     H81754   7.732   2.450   5.090 -1.3630 -0.8008 -0.4558
  606MOL0     H81755   7.675   2.397   4.855  0.6804  0.7285 -3.9986
  606MOL0     H81756   7.835   2.453   4.839 -1.9261  0.3396 -0.9082
  606MOL0     H81757   7.926   2.222   4.872 -1.3237 -1.4695  3.1996
  606MOL0     H81758   7.761   2.168   4.863 -0.1408  0.1546 -0.9633
  606MOL0     H81759   7.901   2.149   4.652 -0.3953 -0.8774  0.2114
  606MOL0     H81760   7.907   2.312   4.643  1.0997  0.1289  0.6158
  606MOL0     H81761   7.622   2.075   4.702  1.8624  1.4556  0.3612
  606MOL0     H81762   7.322   2.165   4.656 -2.2682  1.6176 -1.1977
  606MOL0     H81763   7.318   2.236   4.503 -0.0269  0.1601 -0.6384
  606MOL0     H81764   7.330   1.957   4.586  1.2484 -1.9650 -1.6913
  606MOL0     H81765   7.436   1.983   4.438 -2.3571 -2.7757 -1.8240
  606MOL0     H81766   7.220   1.899   4.380 -2.7661 -0.2029 -0.0511
  606MOL0     H81767   7.225   2.062   4.327 -1.9335 -1.4143 -0.8939
  606MOL0     H81768   7.095   2.109   4.555 -4.1600  0.0153  1.0883
  606MOL0     H81769   7.086   1.929   4.566 -0.2225 -0.5288 -0.4812
  606MOL0     H81770   6.755   2.022   4.279 -1.5581  0.1397 -0.4076
  606MOL0     H81771   6.421   1.950   4.327 -0.3790  0.4818 -1.9736
  606MOL0     H81772   6.434   2.133   4.367 -2.0286 -0.7866 -1.3790
  606MOL0     H81773   6.523   2.053   4.236  1.5503  3.1184  0.2609
  606MOL0     H81774   6.210   2.164   4.790  0.7943 -0.4648  1.8375
  606MOL0     H81775   5.984   2.115   4.884  0.5648 -0.6034  1.8896
  606MOL0     H81776   5.924   1.861   5.041  0.9850 -1.3904 -1.6850
  606MOL0     H81777   5.808   1.999   5.021 -0.3509  1.2044 -0.9561
  606MOL0     H81778   5.627   1.838   5.014 -0.9267 -3.1192 -0.2625
  606MOL0     H81779   5.741   1.707   4.958  1.4333  2.1590 -3.0575
  606MOL0     H81780   5.758   1.832   5.227  0.5651  1.0223 -1.1559
  606MOL0     H81781   5.817   1.673   5.179 -1.4090 -2.6728 -2.3132
  606MOL0     H81782   5.515   1.747   5.204 -1.0474 -0.8615  2.6901
  606MOL0     H81783   5.577   1.592   5.164 -1.9637 -0.2092  0.8041
  606MOL0     H81784   5.652   1.747   5.414  0.8049  0.3109 -1.7137
  606MOL0     H81785   5.690   1.583   5.398  0.2205 -0.7250  0.1981
  606MOL0     H81786   5.406   1.679   5.418 -0.4164 -1.2359 -1.2384
  606MOL0     H81787   5.453   1.516   5.382  2.9448  0.1490 -1.8192
  606MOL0     H81788   5.543   1.676   5.615  1.7935  0.8981 -4.3859
  606MOL0     H81789   5.571   1.500   5.589 -0.4101 -1.4678 -2.3559
  606MOL0     H81790   5.292   1.619   5.596 -0.7045  1.1190  1.8560
  606MOL0     H81791   5.384   1.552   5.739 -0.4734 -0.9941 -0.0136
  606MOL0     H81792   5.988   1.731   4.704 -0.6217  1.1204  1.5124
  606MOL0     H81793   6.202   1.796   4.581 -0.6633  0.3946 -0.6446
  606MOL0     H81794   6.703   1.968   4.771  0.7031  0.9484 -0.1709
  606MOL0     H81795   6.908   1.957   4.675 -2.6224 -2.7886  0.0704
  606MOL0     H81796   8.496   2.711   5.368  2.4846  2.2949 -1.5867
  606MOL0     H81797   8.742   2.623   5.366 -1.8381  2.1001  1.7505
  606MOL0     H81798   9.030   2.314   5.125 -0.9629  0.8769  0.1970
  606MOL0     H81799   9.182   2.127   5.113 -1.1860 -0.7635 -0.7795
  606MOL0     H81800   9.382   2.036   5.496 -0.9391 -0.9942  1.2838
  606MOL0     H81801   9.295   1.875   5.481 -1.7344  1.7606  0.9126
  606MOL0     H81802   9.567   1.955   5.367 -1.3263  1.5532 -0.0421
  606MOL0     H81803   9.486   1.815   5.309 -1.6874  1.0093  0.2900
  606MOL0     H81804   9.519   1.691   5.516 -0.8413  0.1664  3.0926
  606MOL0     H81805   9.504   1.830   5.608 -0.4814 -4.8177  0.8600
  606MOL0     H81806   9.741   1.769   5.621  0.1446  0.9661  1.5605
  606MOL0     H81807   9.732   1.919   5.536  0.2795 -0.9419 -0.5477
  606MOL0     H81808   9.859   1.637   5.243  0.8678 -0.7991  0.9482
  606MOL0     H81809   9.185   2.101   5.543 -2.8202  0.6487  1.5801
  606MOL0     H81810   9.028   2.269   5.563 -1.0158  1.1541 -0.6692
  607MOL0     O81811   5.061   2.698   1.697 -0.4264 -0.6561  0.0121
  607MOL0     C81812   5.059   2.615   1.607  1.3170 -0.1029 -0.6287
  607MOL0     O81813   4.949   2.567   1.538  0.7421 -0.2640 -0.6586
  607MOL0     C81814   4.823   2.619   1.546  0.2557  1.4355  0.0954
  607MOL0     C81815   4.731   2.554   1.464  1.0253 -0.4864 -0.2258
  607MOL0     C81816   4.597   2.602   1.459 -0.3850 -0.2169 -0.3310
  607MOL0     C81817   4.562   2.713   1.541 -0.6071 -0.0323 -0.2163
  607MOL0     O81818   4.447   2.786   1.531 -0.3277  0.3097 -0.4268
  607MOL0     C81819   4.318   2.739   1.482 -0.7567  0.2541  0.0157
  607MOL0     C81820   4.253   2.625   1.558  0.3728 -0.9955 -0.7435
  607MOL0     C81821   4.185   2.676   1.684  0.0867  0.2459 -0.6177
  607MOL0     C81822   4.083   2.579   1.749  0.6161  0.5482  0.5825
  607MOL0     C81823   4.069   2.594   1.894 -0.3865  0.1124 -0.0251
  607MOL0     C81824   3.985   2.484   1.954 -0.0709  0.6940 -0.1447
  607MOL0     C81825   3.984   2.500   2.101 -0.1235  1.0625 -0.6592
  607MOL0     C81826   3.864   2.422   2.160  0.0055 -0.4194 -0.1870
  607MOL0     N81827   3.866   2.412   2.302  0.2266  0.3716  0.1872
  607MOL0     C81828   3.842   2.510   2.391 -0.5200 -0.3894  0.6941
  607MOL0     C81829   3.844   2.445   2.504 -0.0887  1.0119 -0.0708
  607MOL0     C81830   3.834   2.510   2.632 -0.1253  0.2761  0.0458
  607MOL0     C81831   3.699   2.587   2.641 -0.3723  0.0057 -0.1785
  607MOL0     C81832   3.575   2.501   2.625 -0.4504  0.5173  0.1155
  607MOL0     C81833   3.462   2.561   2.706  0.6715 -0.7201 -0.5738
  607MOL0     O81834   3.341   2.488   2.694  0.3304  0.4581  0.0703
  607MOL0     C81835   3.228   2.557   2.733  0.7819  0.3775  0.3336
  607MOL0     C81836   3.235   2.641   2.836  0.8133 -0.6009  0.0702
  607MOL0     C81837   3.118   2.711   2.873 -0.0616 -0.4518 -0.4270
  607MOL0     C81838   3.138   2.810   3.000 -0.0507  0.7743 -1.0118
  607MOL0     C81839   2.996   2.706   2.792 -0.7600 -0.4608 -0.5503
  607MOL0     C81840   2.871   2.780   2.830  0.1238  0.2716  0.1967
  607MOL0     O81841   2.772   2.795   2.730 -1.1546  0.2552 -0.7491
  607MOL0     C81842   2.644   2.826   2.767 -0.0097 -0.4899  0.2892
  607MOL0     C81843   2.571   2.892   2.666 -0.3343  0.7877 -0.4045
  607MOL0     C81844   2.430   2.904   2.675 -0.0016  0.0780 -0.2280
  607MOL0     C81845   2.359   2.861   2.783 -0.5067  0.0153 -1.1318
  607MOL0     O81846   2.228   2.888   2.776  0.4690 -0.2155 -0.1603
  607MOL0     C81847   2.132   2.827   2.872  0.4476 -0.1200  0.8552
  607MOL0     C81848   1.999   2.836   2.799  0.1461  0.4651  0.0361
  607MOL0     C81849   1.883   2.798   2.891  0.4185 -1.0109 -0.0479
  607MOL0     C81850   1.748   2.766   2.819 -0.6102  0.8990 -1.0923
  607MOL0     C81851   1.717   2.613   2.782  0.2708 -0.8320 -0.8893
  607MOL0     C81852   1.576   2.592   2.749  0.0370  0.0188  1.0304
  607MOL0     C81853   1.542   2.488   2.644 -1.1105  0.2486  0.3954
  607MOL0     C81854   1.551   2.351   2.711 -0.8101  0.1293  0.0325
  607MOL0    Cl81855   1.722   2.307   2.734 -0.1334 -0.1012 -0.1730
  607MOL0     C81856   2.431   2.804   2.884 -0.3418  0.5496 -0.6106
  607MOL0     C81857   2.578   2.790   2.877  0.0815 -0.2377 -0.1105
  607MOL0     O81858   2.874   2.839   2.936 -0.1930  0.0659  0.6602
  607MOL0     C81859   2.998   2.623   2.676 -0.3425  0.5619 -0.1279
  607MOL0     C81860   3.115   2.552   2.648  0.3782 -0.2883 -0.3583
  607MOL0     N81861   3.847   2.312   2.488  0.3766  0.0322  0.7227
  607MOL0     N81862   3.866   2.295   2.362  0.9983 -0.4003  0.0657
  607MOL0     C81863   4.652   2.776   1.619  0.0357  0.8040  0.6170
  607MOL0     C81864   4.783   2.726   1.624  0.5075  0.4197 -0.0561
  607MOL0     C81865   5.191   2.562   1.561 -0.1060  0.2467  0.5689
  607MOL0     C81866   5.318   2.606   1.606 -0.4249 -0.7037 -0.3568
  607MOL0     C81867   5.436   2.559   1.545  0.3961  0.5198 -0.0448
  607MOL0     C81868   5.436   2.466   1.444 -0.0443 -1.1305 -0.9820
  607MOL0     O81869   5.555   2.422   1.395 -0.5417  0.5012  0.0000
  607MOL0     C81870   5.587   2.450   1.263 -0.7433  0.6778  0.0069
  607MOL0     C81871   5.657   2.587   1.257 -0.5098  0.4647 -0.4158
  607MOL0     C81872   5.812   2.576   1.297 -0.6217  0.1351 -0.0627
  607MOL0     C81873   5.850   2.723   1.325  0.0729  0.2560 -0.5669
  607MOL0     C81874   5.998   2.731   1.335 -0.1840 -0.2502  0.3219
  607MOL0     C81875   6.112   2.769   1.339  0.0605 -0.3799 -0.8628
  607MOL0     C81876   5.318   2.410   1.409  0.2741  1.0616 -0.2463
  607MOL0     C81877   5.197   2.450   1.467 -0.3865 -0.6352  0.2219
  607MOL0     H81878   4.774   2.478   1.400  3.0140  0.5506 -0.1921
  607MOL0     H81879   4.523   2.555   1.395  0.7648  0.0567 -1.9033
  607MOL0     H81880   4.263   2.833   1.472  0.4653  0.9262 -0.6909
  607MOL0     H81881   4.326   2.700   1.380 -4.0593  1.5610 -0.8812
  607MOL0     H81882   4.183   2.573   1.493 -0.5314 -0.5325 -0.1626
  607MOL0     H81883   4.338   2.562   1.587 -0.2018 -0.7145  1.8166
  607MOL0     H81884   4.263   2.675   1.761  0.5217  1.1353 -1.0364
  607MOL0     H81885   4.137   2.774   1.674 -0.5756  0.2658  2.0204
  607MOL0     H81886   3.985   2.587   1.703  1.2215 -0.1876 -0.8813
  607MOL0     H81887   4.126   2.481   1.729 -1.7836 -0.9549  2.3590
  607MOL0     H81888   4.166   2.594   1.945  0.1465 -2.9832 -0.8275
  607MOL0     H81889   4.019   2.691   1.900 -3.5568 -1.3013 -1.4098
  607MOL0     H81890   3.887   2.494   1.906 -0.2017 -2.2517 -0.6606
  607MOL0     H81891   4.036   2.389   1.937 -1.1411 -0.4175  2.2443
  607MOL0     H81892   4.083   2.485   2.145 -0.1398 -0.4136 -1.0391
  607MOL0     H81893   3.965   2.604   2.127 -0.6461  0.0159  4.0596
  607MOL0     H81894   3.853   2.322   2.117  3.4409  0.5689 -4.1008
  607MOL0     H81895   3.777   2.479   2.126 -1.0047 -0.5076  2.0437
  607MOL0     H81896   3.837   2.618   2.378 -1.0020 -0.3046  1.5339
  607MOL0     H81897   3.841   2.440   2.716 -0.9908  1.0335  0.7771
  607MOL0     H81898   3.917   2.579   2.648  0.0467 -0.0275  0.4815
  607MOL0     H81899   3.698   2.663   2.563  2.3889  3.0674  2.4121
  607MOL0     H81900   3.699   2.649   2.732 -1.2025 -0.0552 -0.1275
  607MOL0     H81901   3.589   2.405   2.676  0.3539  0.2712 -0.5532
  607MOL0     H81902   3.548   2.482   2.521  0.8176 -1.4145  0.0798
  607MOL0     H81903   3.438   2.665   2.680  0.1417 -0.9626 -1.0569
  607MOL0     H81904   3.496   2.550   2.810  0.2706 -0.7351 -0.4411
  607MOL0     H81905   3.323   2.653   2.898  1.8671 -3.9882 -0.5764
  607MOL0     H81906   3.106   2.911   2.971  0.3149  0.6439 -1.9239
  607MOL0     H81907   3.080   2.772   3.084 -0.0523  3.4511  0.3173
  607MOL0     H81908   3.242   2.805   3.033 -0.3264  0.1124 -0.2172
  607MOL0     H81909   2.611   2.928   2.572  2.3225 -2.9972 -0.9503
  607MOL0     H81910   2.372   2.963   2.605  1.1662  0.1977 -1.1176
  607MOL0     H81911   2.162   2.724   2.895  4.1894  0.3171 -1.2671
  607MOL0     H81912   2.145   2.891   2.959 -0.5287  0.9989  0.2082
  607MOL0     H81913   1.984   2.941   2.772 -0.5997  0.4810  0.4937
  607MOL0     H81914   1.996   2.776   2.708 -0.0670 -1.5298  1.3079
  607MOL0     H81915   1.855   2.885   2.951  0.8713 -0.7476 -0.2177
  607MOL0     H81916   1.905   2.717   2.961 -1.0242 -0.0882  1.5466
  607MOL0     H81917   1.670   2.803   2.886 -0.3568  0.3382 -0.4756
  607MOL0     H81918   1.741   2.831   2.731  0.2145  1.8397 -0.4867
  607MOL0     H81919   1.742   2.550   2.868  0.0233 -0.3560 -0.4602
  607MOL0     H81920   1.776   2.577   2.697 -0.3083 -0.6703 -1.3655
  607MOL0     H81921   1.507   2.578   2.833 -0.9212  1.7388  0.5884
  607MOL0     H81922   1.551   2.685   2.696 -2.4097 -0.4276  1.2584
  607MOL0     H81923   1.620   2.492   2.568 -0.3856 -0.5917  1.0675
  607MOL0     H81924   1.447   2.495   2.591 -1.5796  0.3106  1.2334
  607MOL0     H81925   1.505   2.270   2.655  0.1073 -0.4520  0.1003
  607MOL0     H81926   1.496   2.355   2.806 -1.9588 -1.1567 -0.5527
  607MOL0     H81927   2.383   2.761   2.971 -0.5241 -2.2262 -1.9921
  607MOL0     H81928   2.634   2.739   2.955  0.4178 -0.6833 -0.6384
  607MOL0     H81929   2.908   2.603   2.619 -0.6987  2.4564 -0.2852
  607MOL0     H81930   3.113   2.483   2.565  0.9874  2.5396 -2.9036
  607MOL0     H81931   4.629   2.863   1.680  0.4360  1.7374 -0.5412
  607MOL0     H81932   4.850   2.781   1.689 -0.8357  0.1378  1.6441
  607MOL0     H81933   5.323   2.693   1.670 -1.5556 -0.2253 -0.8948
  607MOL0     H81934   5.529   2.607   1.571  0.2402  0.4501  0.6738
  607MOL0     H81935   5.661   2.376   1.230  1.4996  1.2209  3.3151
  607MOL0     H81936   5.504   2.440   1.192  1.3001  0.3708 -2.4828
  607MOL0     H81937   5.603   2.658   1.320 -1.6383  1.0324 -1.9563
  607MOL0     H81938   5.654   2.631   1.157 -2.0923 -0.0563 -0.6259
  607MOL0     H81939   5.884   2.542   1.222 -0.0604  0.1551  0.4600
  607MOL0     H81940   5.844   2.512   1.380  2.7549  0.9417 -0.5867
  607MOL0     H81941   5.802   2.759   1.416 -0.0797  0.2728 -0.6530
  607MOL0     H81942   5.807   2.782   1.243 -0.7963 -0.3333 -0.5480
  607MOL0     H81943   6.208   2.817   1.335 -0.8094  1.5467  0.1834
  607MOL0     H81944   5.315   2.318   1.351 -0.4548  1.0935 -0.2712
  607MOL0     H81945   5.100   2.420   1.429 -0.8024  0.3670  0.4483
  608MOL0     O81946   9.866   9.747   5.248  0.6587  0.2475 -0.2926
  608MOL0     C81947   9.905   9.655   5.177 -0.2991  0.6046  0.8899
  608MOL0     O81948   9.839   9.602   5.074 -0.2130 -0.1964  0.3043
  608MOL0     C81949   9.705   9.624   5.082  0.5691 -0.7024 -0.1876
  608MOL0     C81950   9.636   9.728   5.015 -0.9256  0.3645 -0.1736
  608MOL0     C81951   9.495   9.730   5.025  0.5483  0.0564 -0.8831
  608MOL0     C81952   9.420   9.626   5.093  0.2765 -0.2453  0.1446
  608MOL0     O81953   9.289   9.614   5.071 -0.1341  0.6926  0.1725
  608MOL0     C81954   9.208   9.622   5.198 -1.3774 -0.6085  0.2921
  608MOL0     C81955   9.072   9.595   5.158 -0.5535 -0.9415  0.3821
  608MOL0     C81956   8.981   9.601   5.285  0.6783  0.0489 -0.0143
  608MOL0     C81957   8.846   9.651   5.250 -0.2235 -0.4006  0.7190
  608MOL0     C81958   8.746   9.646   5.363 -0.6238  0.4998 -0.4568
  608MOL0     C81959   8.611   9.729   5.330  0.2825 -0.1104 -0.5977
  608MOL0     C81960   8.624   9.882   5.333 -0.8589 -0.1088 -0.5044
  608MOL0     C81961   8.487   9.936   5.296  0.5316  0.2358 -0.7421
  608MOL0     N81962   8.474   9.966   5.157  0.0319  0.1788  0.3171
  608MOL0     C81963   8.536  10.068   5.077  0.8688  0.8198 -0.2093
  608MOL0     C81964   8.512  10.034   4.950 -0.2653 -0.5588 -0.2157
  608MOL0     C81965   8.583  10.110   4.844  0.1522 -0.1390 -1.1046
  608MOL0     C81966   8.488  10.221   4.805 -0.2764  0.0278  0.4468
  608MOL0     C81967   8.562  10.320   4.717  0.9626 -0.7743 -0.4886
  608MOL0     C81968   8.458  10.426   4.666  0.2671 -0.0705 -0.6603
  608MOL0     O81969   8.400  10.514   4.769 -0.0598 -0.0293 -0.3751
  608MOL0     C81970   8.273  10.569   4.740  0.2624  0.4805  0.7171
  608MOL0     C81971   8.264  10.645   4.618  0.4647  0.2944  0.0818
  608MOL0     C81972   8.150  10.719   4.588 -0.6430  0.8062  0.0594
  608MOL0     C81973   8.132  10.791   4.456  0.8662  0.0097 -0.0838
  608MOL0     C81974   8.048  10.724   4.683  0.0482  0.4804  0.6103
  608MOL0     C81975   7.924  10.803   4.671 -0.2463  1.4341 -0.4344
  608MOL0     O81976   7.811  10.758   4.734 -0.6508  0.5347 -0.3467
  608MOL0     C81977   7.684  10.808   4.735  0.5257  0.2671 -0.1691
  608MOL0     C81978   7.624  10.833   4.607 -0.5905  0.1466 -0.4366
  608MOL0     C81979   7.494  10.875   4.602 -0.0985  0.4695  0.2241
  608MOL0     C81980   7.415  10.887   4.714  0.3524  0.1053 -0.4122
  608MOL0     O81981   7.286  10.931   4.723 -0.4660 -0.0727  0.3247
  608MOL0     C81982   7.260  11.051   4.659  0.4267 -0.3456 -0.7561
  608MOL0     C81983   7.113  11.082   4.655 -0.1774  0.2733 -0.7112
  608MOL0     C81984   7.038  11.100   4.783 -0.6912  0.3846 -0.0457
  608MOL0     C81985   6.998  10.963   4.842 -0.1703 -0.6165  0.8242
  608MOL0     C81986   6.879  10.885   4.791  1.0508 -0.4757  0.4942
  608MOL0     C81987   6.894  10.735   4.821  0.5620  0.3426 -0.4678
  608MOL0     C81988   6.857  10.702   4.967 -0.4751 -0.2208 -0.8440
  608MOL0     C81989   6.862  10.544   4.999 -0.1121  0.2306 -0.4293
  608MOL0    Cl81990   6.693  10.504   5.047 -0.6106 -0.4017  0.3585
  608MOL0     C81991   7.472  10.872   4.838  0.3418 -0.0128 -0.0966
  608MOL0     C81992   7.605  10.831   4.851  0.1803  0.8322  0.1968
  608MOL0     O81993   7.931  10.908   4.615 -0.2741  0.3752  0.1155
  608MOL0     C81994   8.065  10.658   4.804  1.3602  0.0598  0.1534
  608MOL0     C81995   8.174  10.577   4.831  1.0472 -0.0641 -0.8611
  608MOL0     N81996   8.409   9.938   4.948  0.2828  0.4159 -0.0425
  608MOL0     N81997   8.390   9.899   5.069  0.9056 -0.4485 -0.2312
  608MOL0     C81998   9.493   9.527   5.163  0.1444 -0.1779 -0.3562
  608MOL0     C81999   9.636   9.527   5.153  0.1368 -0.5946 -0.2251
  608MOL0     C82000  10.042   9.599   5.198  0.5537 -0.3103  0.9778
  608MOL0     C82001  10.114   9.622   5.313 -0.2847  0.6499  0.1676
  608MOL0     C82002  10.235   9.569   5.334 -0.9268  0.1881 -0.0277
  608MOL0     C82003  10.307   9.506   5.235 -0.1461  1.5303  0.7455
  608MOL0     O82004  10.439   9.466   5.263  0.3139 -0.0014 -0.1182
  608MOL0     C82005  10.532   9.465   5.152  0.0573 -0.2701  0.9849
  608MOL0     C82006  10.683   9.499   5.181 -0.9444 -0.3522  0.6655
  608MOL0     C82007  10.726   9.491   5.331  0.2425 -0.1485 -0.1102
  608MOL0     C82008  10.876   9.527   5.344  0.2543 -0.4602 -0.5086
  608MOL0     C82009  10.966   9.424   5.286  0.6393  0.4028 -0.5009
  608MOL0     C82010  11.028   9.341   5.219  0.5025  0.1328 -0.1537
  608MOL0     C82011  10.234   9.484   5.115  0.1498  0.8302  0.0504
  608MOL0     C82012  10.115   9.538   5.092  0.1992  0.3366 -0.9690
  608MOL0     H82013   9.691   9.794   4.948  1.4706  0.0685  1.4059
  608MOL0     H82014   9.447   9.807   4.965  0.2178  0.9478  0.4695
  608MOL0     H82015   9.251   9.553   5.270  3.3138 -0.4539 -2.0134
  608MOL0     H82016   9.221   9.719   5.248  0.9651  1.8560 -4.3923
  608MOL0     H82017   9.036   9.680   5.099  0.6795  0.0613  1.0337
  608MOL0     H82018   9.071   9.500   5.105 -0.7968 -2.2476  2.6286
  608MOL0     H82019   8.969   9.501   5.328  0.0867 -0.2591 -0.8814
  608MOL0     H82020   9.023   9.669   5.359 -0.4205  1.4382 -0.6261
  608MOL0     H82021   8.864   9.756   5.224  2.1960 -1.2934 -1.7471
  608MOL0     H82022   8.798   9.603   5.164  0.7320 -0.1028 -0.0037
  608MOL0     H82023   8.720   9.543   5.390  2.2341 -0.4258 -0.8692
  608MOL0     H82024   8.796   9.695   5.446 -0.0119  0.5997 -0.8749
  608MOL0     H82025   8.579   9.698   5.230 -0.6744  1.3784 -0.7851
  608MOL0     H82026   8.533   9.707   5.404  0.8277 -0.9402 -0.2550
  608MOL0     H82027   8.664   9.917   5.428 -1.5681  2.8465 -1.2048
  608MOL0     H82028   8.707   9.905   5.266 -0.0280  0.3327  0.6499
  608MOL0     H82029   8.483  10.035   5.343 -1.4207  0.6501 -1.6645
  608MOL0     H82030   8.400   9.875   5.320 -2.4956  3.7825 -1.7208
  608MOL0     H82031   8.605  10.147   5.105  0.4022  1.1346  0.0535
  608MOL0     H82032   8.679  10.146   4.883  1.3718 -0.6704 -3.3890
  608MOL0     H82033   8.611  10.048   4.758  0.1601 -1.9482  0.1674
  608MOL0     H82034   8.464  10.278   4.896 -1.2455 -0.4928  0.5341
  608MOL0     H82035   8.399  10.194   4.748  0.2970  0.7482 -0.8514
  608MOL0     H82036   8.624  10.282   4.635  1.4720 -0.7541 -0.1177
  608MOL0     H82037   8.636  10.361   4.786 -0.9995 -2.9804  3.2501
  608MOL0     H82038   8.373  10.379   4.615 -1.8030  1.8541  0.8313
  608MOL0     H82039   8.513  10.489   4.596  0.6349  1.4105  0.9129
  608MOL0     H82040   8.344  10.649   4.544  1.5600  2.6526  1.2955
  608MOL0     H82041   8.214  10.775   4.386  0.0998  0.3333 -1.0902
  608MOL0     H82042   8.034  10.763   4.417  1.1931  0.2962 -1.1240
  608MOL0     H82043   8.134  10.900   4.461 -0.0218  0.1466 -1.8860
  608MOL0     H82044   7.679  10.821   4.514 -0.4522 -1.0689 -0.2210
  608MOL0     H82045   7.450  10.897   4.506 -3.1416 -0.1940  1.3741
  608MOL0     H82046   7.303  11.125   4.728  1.7969 -1.2061 -0.6586
  608MOL0     H82047   7.303  11.061   4.559  0.3229  2.7683 -0.6054
  608MOL0     H82048   7.111  11.176   4.598  3.1218 -0.8224 -2.9444
  608MOL0     H82049   7.061  10.999   4.606  0.8361 -1.0988  0.4368
  608MOL0     H82050   6.944  11.150   4.755 -0.5007 -0.0618 -1.5996
  608MOL0     H82051   7.090  11.167   4.851  2.2752  0.3749 -2.1482
  608MOL0     H82052   7.089  10.902   4.838  1.1419  0.9692  3.4451
  608MOL0     H82053   6.980  10.981   4.948 -1.8311  2.3946  0.1584
  608MOL0     H82054   6.879  10.890   4.681  1.1736 -2.2038  0.3862
  608MOL0     H82055   6.784  10.927   4.827  0.8116 -0.2248 -0.4016
  608MOL0     H82056   6.822  10.680   4.760  0.1876  1.4007 -1.0075
  608MOL0     H82057   6.994  10.696   4.798  0.4117 -3.3389  3.7275
  608MOL0     H82058   6.758  10.743   4.987 -0.2041 -0.8419  2.2888
  608MOL0     H82059   6.922  10.747   5.043 -1.4227 -0.0686 -0.1005
  608MOL0     H82060   6.931  10.524   5.081 -0.1170 -0.8186 -0.6683
  608MOL0     H82061   6.895  10.484   4.913  1.6270 -2.4595  1.9447
  608MOL0     H82062   7.403  10.890   4.920  1.6171  1.8791  0.6416
  608MOL0     H82063   7.658  10.814   4.944  2.1832  0.9809 -0.8546
  608MOL0     H82064   7.986  10.655   4.878  0.8225 -2.7762 -0.4072
  608MOL0     H82065   8.167  10.525   4.925 -0.3944  1.8247  0.1585
  608MOL0     H82066   9.449   9.441   5.211  1.8957 -1.4075 -0.8608
  608MOL0     H82067   9.696   9.457   5.210  0.7376 -1.2641 -1.6290
  608MOL0     H82068  10.060   9.669   5.395 -0.3869  2.2088 -0.7498
  608MOL0     H82069  10.285   9.594   5.427 -1.4508 -1.9068  0.8742
  608MOL0     H82070  10.510   9.375   5.094 -2.2254 -0.1744  1.6066
  608MOL0     H82071  10.501   9.559   5.104  0.3813 -0.1195  1.0696
  608MOL0     H82072  10.703   9.599   5.142  0.0991  0.6372  3.5094
  608MOL0     H82073  10.744   9.425   5.128 -2.8240 -1.3738 -0.1868
  608MOL0     H82074  10.711   9.388   5.365  0.3526  0.5118  2.0505
  608MOL0     H82075  10.653   9.550   5.386 -1.1923 -2.5420  0.7220
  608MOL0     H82076  10.898   9.522   5.451  0.9892 -0.6387 -0.6620
  608MOL0     H82077  10.900   9.622   5.294  1.9090 -2.6069 -4.2217
  608MOL0     H82078  11.059   9.254   5.165 -0.0748  1.2883 -2.4522
  608MOL0     H82079  10.285   9.424   5.041 -1.9092  0.9976 -1.5907
  608MOL0     H82080  10.070   9.515   4.995  1.6041  1.0132 -1.8123
  609MOL0     O82081   5.487   2.301   4.654  0.5179  0.0022 -0.0743
  609MOL0     C82082   5.445   2.244   4.556  1.5777  0.2611 -0.9425
  609MOL0     O82083   5.347   2.288   4.487 -0.1404 -0.0339  0.5429
  609MOL0     C82084   5.281   2.407   4.516  0.2690 -0.6922  0.5659
  609MOL0     C82085   5.340   2.525   4.570 -1.0940  0.3350 -1.5687
  609MOL0     C82086   5.259   2.628   4.618  0.2041 -0.1116  0.1957
  609MOL0     C82087   5.122   2.621   4.589 -0.0948  0.0546  0.1430
  609MOL0     O82088   5.053   2.729   4.626 -0.0296 -0.0592 -0.5543
  609MOL0     C82089   4.906   2.721   4.641  0.3951 -0.6131 -0.2306
  609MOL0     C82090   4.847   2.854   4.688 -0.5548 -0.3152  0.0495
  609MOL0     C82091   4.698   2.850   4.723  0.5456  0.8326  0.5165
  609MOL0     C82092   4.633   2.992   4.742  0.3708  0.2651  1.0411
  609MOL0     C82093   4.680   3.060   4.868  0.3177  0.2704  0.0650
  609MOL0     C82094   4.773   3.178   4.847  0.2870  0.6380 -0.2890
  609MOL0     C82095   4.845   3.225   4.970 -0.5620 -0.3438  0.3337
  609MOL0     C82096   4.957   3.326   4.923  0.1480  0.2278 -0.0658
  609MOL0     N82097   5.062   3.328   5.036 -1.0176  0.3315  0.4067
  609MOL0     C82098   5.204   3.349   5.014  0.0233  0.1633  0.0470
  609MOL0     C82099   5.252   3.379   5.136 -0.7217  0.5222 -1.4269
  609MOL0     C82100   5.390   3.428   5.182 -0.3549 -0.1127  0.8567
  609MOL0     C82101   5.418   3.571   5.149 -0.4596 -0.2460  0.3079
  609MOL0     C82102   5.317   3.673   5.207 -0.1342 -0.0273 -0.2759
  609MOL0     C82103   5.366   3.811   5.187 -0.1534 -0.1155 -0.0042
  609MOL0     O82104   5.469   3.836   5.289 -0.1303  0.3626  0.3433
  609MOL0     C82105   5.579   3.908   5.248  0.5406 -0.2170 -0.1436
  609MOL0     C82106   5.590   3.996   5.140  0.2461 -0.9318 -1.4839
  609MOL0     C82107   5.712   4.060   5.110  0.8658 -0.4610  1.3602
  609MOL0     C82108   5.683   4.168   5.001  0.3843  1.1722 -0.1819
  609MOL0     C82109   5.829   4.039   5.182 -0.0171 -0.0168  0.0570
  609MOL0     C82110   5.959   4.108   5.156 -0.3970 -0.1638  0.3464
  609MOL0     O82111   6.064   4.084   5.241 -0.2357  0.4705 -0.7636
  609MOL0     C82112   6.196   4.093   5.202 -0.4279  0.3758 -0.3152
  609MOL0     C82113   6.294   4.103   5.306 -0.4427 -0.2351  0.5141
  609MOL0     C82114   6.432   4.123   5.279  0.0401 -0.0541  0.0194
  609MOL0     C82115   6.474   4.110   5.146 -0.2950 -0.1370 -0.4642
  609MOL0     O82116   6.603   4.123   5.104 -0.2759 -0.0645  0.2361
  609MOL0     C82117   6.709   4.159   5.181  0.1026 -0.2114  0.1210
  609MOL0     C82118   6.748   4.028   5.266 -0.3255  0.3918 -0.0914
  609MOL0     C82119   6.848   4.063   5.367 -0.6074 -0.5650 -0.7377
  609MOL0     C82120   6.987   4.109   5.310 -0.7046  0.3698 -0.1455
  609MOL0     C82121   7.092   4.002   5.266 -0.1877 -0.6302  0.3073
  609MOL0     C82122   7.188   4.059   5.152 -0.0126 -0.2174 -0.2194
  609MOL0     C82123   7.287   3.946   5.110  0.7416 -1.0720 -0.8329
  609MOL0     C82124   7.391   3.894   5.218 -0.8815  0.2349 -0.2296
  609MOL0    Cl82125   7.519   3.812   5.116 -0.0666  0.0826  0.2731
  609MOL0     C82126   6.383   4.076   5.043  0.5988  0.0553  0.2555
  609MOL0     C82127   6.241   4.069   5.070 -0.1272 -0.3254  0.2279
  609MOL0     O82128   5.960   4.175   5.047 -0.8260  0.7329 -0.7369
  609MOL0     C82129   5.820   3.948   5.284 -0.7146 -0.0121 -0.0405
  609MOL0     C82130   5.698   3.883   5.311 -0.1465  0.6203 -0.2413
  609MOL0     N82131   5.142   3.369   5.231  0.4335 -0.0913  0.2911
  609MOL0     N82132   5.034   3.332   5.166  0.4287  0.2859 -0.3115
  609MOL0     C82133   5.066   2.511   4.511 -0.2588 -0.0248  0.0433
  609MOL0     C82134   5.145   2.406   4.484  0.0487 -0.3052 -1.0118
  609MOL0     C82135   5.506   2.112   4.519  0.4761  0.2165  0.8645
  609MOL0     C82136   5.611   2.060   4.599  0.5502 -0.8263 -0.1950
  609MOL0     C82137   5.660   1.931   4.557  0.5687  0.1432 -0.6720
  609MOL0     C82138   5.611   1.868   4.446  1.1238  0.0532  0.0625
  609MOL0     O82139   5.667   1.756   4.389  0.6033 -0.6499 -0.1517
  609MOL0     C82140   5.739   1.662   4.463  0.1551 -1.5242  0.1688
  609MOL0     C82141   5.651   1.599   4.570 -0.1565 -0.0524  0.0039
  609MOL0     C82142   5.731   1.508   4.669 -0.3826 -0.9061  0.1497
  609MOL0     C82143   5.655   1.464   4.792  0.4174  0.4461  0.0192
  609MOL0     C82144   5.712   1.339   4.848 -0.2447  0.7756 -0.4268
  609MOL0     C82145   5.751   1.224   4.877 -0.6236  1.0199  0.1175
  609MOL0     C82146   5.506   1.916   4.369 -0.4467 -0.0068 -0.4729
  609MOL0     C82147   5.450   2.038   4.397  0.1624 -0.8056 -1.1719
  609MOL0     H82148   5.448   2.520   4.577 -1.0940 -0.5645 -2.0802
  609MOL0     H82149   5.295   2.721   4.662  0.8687 -0.7313  0.9986
  609MOL0     H82150   4.856   2.712   4.544 -3.4466 -1.0808  1.6004
  609MOL0     H82151   4.868   2.643   4.708 -0.4515  0.3909  0.5071
  609MOL0     H82152   4.905   2.889   4.774  0.5007  0.5902 -0.9952
  609MOL0     H82153   4.865   2.937   4.618  0.2556 -0.1285  0.4706
  609MOL0     H82154   4.647   2.801   4.640  1.2129  1.2243 -0.1387
  609MOL0     H82155   4.687   2.801   4.821  0.6829  0.0564  0.1486
  609MOL0     H82156   4.651   3.059   4.657 -0.8848 -2.4289 -1.5283
  609MOL0     H82157   4.524   2.985   4.733  0.3050 -0.4075  2.2186
  609MOL0     H82158   4.590   3.105   4.914  0.2218  1.7153 -1.4182
  609MOL0     H82159   4.721   2.981   4.930  1.5990 -0.6480 -1.8505
  609MOL0     H82160   4.847   3.154   4.770  1.7588 -0.3109  1.3376
  609MOL0     H82161   4.726   3.266   4.803  0.2675  0.7742  0.0081
  609MOL0     H82162   4.778   3.269   5.044 -0.8805 -1.7657  0.9117
  609MOL0     H82163   4.892   3.134   5.007 -1.6344 -2.2622 -2.6651
  609MOL0     H82164   4.904   3.421   4.914  1.5799  1.4319  2.8106
  609MOL0     H82165   4.998   3.307   4.824  0.5089 -0.7814  0.2647
  609MOL0     H82166   5.258   3.348   4.920 -0.6214  0.5818 -0.3381
  609MOL0     H82167   5.391   3.401   5.288 -0.8418 -0.3733  0.7981
  609MOL0     H82168   5.464   3.363   5.134 -0.1243  0.6489  0.1637
  609MOL0     H82169   5.416   3.589   5.041 -0.2870 -0.3887  0.2794
  609MOL0     H82170   5.521   3.595   5.177 -0.0581 -1.4191 -0.0935
  609MOL0     H82171   5.300   3.639   5.310 -0.5350 -1.0193 -0.6541
  609MOL0     H82172   5.220   3.674   5.155  2.1023  0.8515 -4.9105
  609MOL0     H82173   5.285   3.884   5.197 -2.5808 -2.7667  1.2439
  609MOL0     H82174   5.410   3.818   5.087 -1.0149  2.0194 -0.2946
  609MOL0     H82175   5.495   4.029   5.101  1.0536  0.0387 -2.7182
  609MOL0     H82176   5.718   4.144   4.900  0.7674  2.1315 -0.2901
  609MOL0     H82177   5.580   4.188   4.971 -0.4346 -2.1590  0.0023
  609MOL0     H82178   5.731   4.260   5.036  1.6779  0.4699 -0.0316
  609MOL0     H82179   6.265   4.126   5.408  0.8233 -0.5163  0.9620
  609MOL0     H82180   6.498   4.151   5.360  1.0892  1.5399 -1.3177
  609MOL0     H82181   6.790   4.208   5.125 -1.4051  0.3300 -1.7169
  609MOL0     H82182   6.692   4.244   5.248  1.0542  1.5472 -1.7430
  609MOL0     H82183   6.667   3.979   5.321 -1.1044  1.7534  0.0129
  609MOL0     H82184   6.804   3.952   5.211 -0.1981 -0.6371  1.3984
  609MOL0     H82185   6.869   3.981   5.437  2.1636 -0.2281 -1.0530
  609MOL0     H82186   6.808   4.149   5.421 -0.8903 -1.6895  0.9207
  609MOL0     H82187   6.973   4.175   5.224  2.0941  1.2894  0.0124
  609MOL0     H82188   7.044   4.165   5.385  1.0450 -1.0417 -0.3544
  609MOL0     H82189   7.036   3.924   5.215  2.2452 -1.7542 -0.7539
  609MOL0     H82190   7.149   3.970   5.354 -0.0851  2.4313  1.5058
  609MOL0     H82191   7.132   4.104   5.069 -1.4288  0.0683  0.8535
  609MOL0     H82192   7.251   4.134   5.200  0.4021 -2.3647  2.8510
  609MOL0     H82193   7.348   3.979   5.026  0.9215  1.8513  0.3452
  609MOL0     H82194   7.230   3.861   5.071 -1.2911 -0.0525 -0.2532
  609MOL0     H82195   7.351   3.830   5.297 -0.6717 -0.3006 -0.5494
  609MOL0     H82196   7.438   3.983   5.260 -0.2416  0.2137 -0.8724
  609MOL0     H82197   6.414   4.073   4.939 -1.4476 -0.7969 -0.3767
  609MOL0     H82198   6.172   4.048   4.989 -1.0732 -0.7536  1.1197
  609MOL0     H82199   5.904   3.916   5.346  0.0795  0.5416 -0.8084
  609MOL0     H82200   5.694   3.806   5.388  4.1364 -1.3100 -1.6552
  609MOL0     H82201   4.965   2.511   4.471  0.8479 -1.9839 -3.1383
  609MOL0     H82202   5.099   2.322   4.432 -0.5725 -0.1628 -0.7037
  609MOL0     H82203   5.652   2.109   4.687 -0.2806 -0.6309  0.0997
  609MOL0     H82204   5.727   1.892   4.632  1.5600  1.9213 -0.5878
  609MOL0     H82205   5.766   1.574   4.405  0.8894 -0.5033 -1.0783
  609MOL0     H82206   5.834   1.704   4.495 -1.4832  2.8814 -0.1103
  609MOL0     H82207   5.570   1.539   4.529 -0.5183 -0.5588  1.3926
  609MOL0     H82208   5.609   1.682   4.628 -0.3687  0.2606 -0.5908
  609MOL0     H82209   5.814   1.565   4.712 -1.0785 -0.4664  0.9357
  609MOL0     H82210   5.766   1.420   4.613 -1.8160  1.3335 -4.8092
  609MOL0     H82211   5.552   1.459   4.756  0.0372  0.6320  1.0640
  609MOL0     H82212   5.651   1.548   4.862 -2.5300  1.1433 -0.8191
  609MOL0     H82213   5.766   1.128   4.921  0.5609  0.9064 -0.5089
  609MOL0     H82214   5.483   1.872   4.273 -0.6089  1.9056 -1.3611
  609MOL0     H82215   5.372   2.082   4.336  0.0543  3.5169  1.6486
  610MOL0     O82216  10.730   1.803   1.413  0.1420  0.9785  0.9095
  610MOL0     C82217  10.780   1.749   1.307  1.3553 -0.8313 -0.2360
  610MOL0     O82218  10.712   1.732   1.192  0.7230  0.1596 -1.0969
  610MOL0     C82219  10.593   1.808   1.183  0.3165 -0.6311 -0.4107
  610MOL0     C82220  10.606   1.935   1.122  0.2198 -0.0014 -0.6567
  610MOL0     C82221  10.488   2.012   1.120  0.1815  0.1392 -0.4629
  610MOL0     C82222  10.359   1.968   1.162 -0.1681 -0.3751  0.1918
  610MOL0     O82223  10.241   2.038   1.148  0.6873 -0.1787  0.0657
  610MOL0     C82224  10.223   2.156   1.065 -0.3401 -0.4707  0.4835
  610MOL0     C82225  10.183   2.112   0.920 -0.3182 -0.1663 -0.2926
  610MOL0     C82226  10.042   2.049   0.911  0.5118  0.1798  0.3381
  610MOL0     C82227  10.016   2.003   0.767 -0.4959  1.0704 -0.3838
  610MOL0     C82228   9.872   1.939   0.760  0.2617 -0.7329  0.2467
  610MOL0     C82229   9.847   1.823   0.851 -0.4053  0.8429  0.0955
  610MOL0     C82230   9.734   1.733   0.803 -0.6074  0.0645  0.4622
  610MOL0     C82231   9.729   1.616   0.906  0.3167  0.6554  0.1628
  610MOL0     N82232   9.628   1.522   0.869  0.1275  0.5113  0.5155
  610MOL0     C82233   9.485   1.545   0.864  0.0269 -0.2477 -1.0653
  610MOL0     C82234   9.443   1.423   0.820  0.0952 -1.0347 -0.8036
  610MOL0     C82235   9.302   1.393   0.783 -0.8315 -0.4441  0.1308
  610MOL0     C82236   9.291   1.267   0.700  0.4472  0.1094  0.8517
  610MOL0     C82237   9.159   1.196   0.693  0.5039  0.2360  0.5915
  610MOL0     C82238   9.055   1.253   0.596 -0.4523 -0.3897  0.1037
  610MOL0     O82239   8.933   1.180   0.608 -0.4300 -0.4540  0.1092
  610MOL0     C82240   8.823   1.220   0.539  0.2892  0.2819 -0.5373
  610MOL0     C82241   8.707   1.139   0.553 -1.5684  0.1763 -0.0542
  610MOL0     C82242   8.577   1.150   0.490 -0.6778  0.7906 -0.9139
  610MOL0     C82243   8.471   1.036   0.502 -0.0295  0.1204 -1.3013
  610MOL0     C82244   8.561   1.261   0.406  0.1542  0.1992 -0.1603
  610MOL0     C82245   8.436   1.289   0.334 -0.2468 -0.2552  0.5703
  610MOL0     O82246   8.446   1.349   0.217  0.3221  0.3004 -0.1853
  610MOL0     C82247   8.331   1.403   0.162 -0.1138 -0.3450  0.4816
  610MOL0     C82248   8.220   1.453   0.240 -1.0719 -0.8450 -0.1816
  610MOL0     C82249   8.109   1.512   0.182  0.2931 -0.4855  0.3759
  610MOL0     C82250   8.112   1.546   0.045 -0.1581 -0.6354  0.0777
  610MOL0     O82251   8.003   1.614  -0.004 -0.0874 -0.0284  0.4357
  610MOL0     C82252   7.897   1.522  -0.045  0.1120 -0.4625 -0.0245
  610MOL0     C82253   7.923   1.453  -0.185 -0.2551 -0.0585  0.2825
  610MOL0     C82254   7.806   1.357  -0.202  0.5669  0.0977  0.5046
  610MOL0     C82255   7.683   1.419  -0.271 -0.2332 -0.0657  0.1937
  610MOL0     C82256   7.563   1.314  -0.267 -0.0130  0.4260  0.2670
  610MOL0     C82257   7.456   1.372  -0.359  0.1722 -0.7824 -0.1480
  610MOL0     C82258   7.327   1.292  -0.346  0.0648 -0.5783  0.2507
  610MOL0     C82259   7.204   1.380  -0.358  0.3964  0.2303  0.4800
  610MOL0    Cl82260   7.062   1.278  -0.369  0.0088  0.0892 -0.1765
  610MOL0     C82261   8.224   1.515  -0.036 -0.5211 -0.7165 -0.0646
  610MOL0     C82262   8.322   1.436   0.022 -0.4491 -0.5474  0.2453
  610MOL0     O82263   8.338   1.244   0.382 -0.1135  0.1997  0.8036
  610MOL0     C82264   8.670   1.344   0.392  0.6643 -0.3912  0.7033
  610MOL0     C82265   8.797   1.329   0.456  0.3502  0.3007  0.9560
  610MOL0     N82266   9.549   1.340   0.820  1.2724  0.3250 -0.6769
  610MOL0     N82267   9.660   1.397   0.845  0.3263 -0.1415  0.1092
  610MOL0     C82268  10.357   1.846   1.218  0.2658  0.1565 -0.0103
  610MOL0     C82269  10.469   1.758   1.232  0.1224 -1.3282  0.0838
  610MOL0     C82270  10.908   1.696   1.330  0.2597 -0.6558 -0.0169
  610MOL0     C82271  10.998   1.712   1.223  0.1653 -0.1043  0.0150
  610MOL0     C82272  11.131   1.675   1.238  1.3737  0.7050  0.6883
  610MOL0     C82273  11.174   1.592   1.335  0.1446 -0.6301  1.3186
  610MOL0     O82274  11.300   1.548   1.349 -0.1329  0.6504  0.5261
  610MOL0     C82275  11.370   1.607   1.460 -0.6019  0.1518  0.9804
  610MOL0     C82276  11.517   1.636   1.408  0.1184 -0.4921  0.5998
  610MOL0     C82277  11.595   1.503   1.379  0.5735 -0.0569  0.8751
  610MOL0     C82278  11.709   1.487   1.483  0.2427  0.5618 -0.0124
  610MOL0     C82279  11.819   1.571   1.445  0.6422  0.6534  0.9794
  610MOL0     C82280  11.907   1.634   1.400  0.3886  0.5883  0.2280
  610MOL0     C82281  11.086   1.559   1.435 -0.2498  0.1829  0.2903
  610MOL0     C82282  10.955   1.617   1.445  0.2250 -0.2590 -0.9601
  610MOL0     H82283  10.698   1.977   1.084  1.6384  1.7103  3.9918
  610MOL0     H82284  10.498   2.113   1.082 -2.6644  0.2568 -1.1671
  610MOL0     H82285  10.141   2.224   1.089 -0.9406 -0.1854 -2.1321
  610MOL0     H82286  10.314   2.217   1.065 -0.3479 -0.3516 -2.1448
  610MOL0     H82287  10.184   2.210   0.871 -1.1591  0.1406  0.2771
  610MOL0     H82288  10.259   2.049   0.873 -0.4383  0.5346 -1.4501
  610MOL0     H82289  10.035   1.965   0.981 -3.3076 -0.4932 -0.6172
  610MOL0     H82290   9.963   2.121   0.930 -0.7522 -1.6458  2.4929
  610MOL0     H82291  10.010   2.087   0.698 -1.4702  0.2784 -1.3091
  610MOL0     H82292  10.098   1.933   0.748 -0.1941  1.6750 -1.3823
  610MOL0     H82293   9.794   2.015   0.774  0.0821  0.1176 -3.9637
  610MOL0     H82294   9.844   1.900   0.661  1.7866 -0.9433 -0.1244
  610MOL0     H82295   9.937   1.763   0.868 -0.3603  0.7703 -0.3919
  610MOL0     H82296   9.823   1.852   0.954 -0.8796  0.6735  0.0357
  610MOL0     H82297   9.642   1.792   0.812 -0.2000  1.2127 -2.0411
  610MOL0     H82298   9.752   1.695   0.702 -0.3507 -4.9576  2.1104
  610MOL0     H82299   9.710   1.659   1.005  1.7541 -0.0024  0.7534
  610MOL0     H82300   9.822   1.559   0.911 -0.3262 -0.8205 -2.7413
  610MOL0     H82301   9.429   1.634   0.888 -0.0633 -0.4084 -0.6770
  610MOL0     H82302   9.247   1.379   0.877 -0.0193  0.1594  0.7106
  610MOL0     H82303   9.264   1.474   0.720 -2.1298 -1.9719 -1.1238
  610MOL0     H82304   9.365   1.196   0.738  1.0255 -0.0158 -0.4726
  610MOL0     H82305   9.335   1.287   0.602 -1.4203 -0.5429 -0.1706
  610MOL0     H82306   9.108   1.185   0.789 -1.1660 -0.1854 -0.3065
  610MOL0     H82307   9.188   1.096   0.660 -1.1987 -0.5898  1.5152
  610MOL0     H82308   9.090   1.243   0.492  0.1080 -0.0123  0.2499
  610MOL0     H82309   9.029   1.356   0.619 -0.5653 -0.4987  0.4605
  610MOL0     H82310   8.716   1.049   0.613 -3.1835 -0.6584 -1.0064
  610MOL0     H82311   8.439   1.013   0.400 -1.1208  1.9906 -1.4299
  610MOL0     H82312   8.501   0.945   0.555 -0.8559  1.1463  1.1040
  610MOL0     H82313   8.382   1.076   0.552 -1.0670 -2.4719 -0.9030
  610MOL0     H82314   8.225   1.451   0.348  3.6298  0.4837 -0.1537
  610MOL0     H82315   8.023   1.541   0.241  0.2178 -1.8926  1.0014
  610MOL0     H82316   7.889   1.447   0.034  0.3462 -0.2063  0.2418
  610MOL0     H82317   7.802   1.574  -0.056 -0.5914 -1.6402  0.3007
  610MOL0     H82318   7.932   1.529  -0.264 -1.5705  1.4939  1.5494
  610MOL0     H82319   8.008   1.385  -0.173 -1.3617 -1.3814  0.8719
  610MOL0     H82320   7.767   1.327  -0.105 -1.2133 -1.0914 -0.5235
  610MOL0     H82321   7.832   1.265  -0.256 -0.4481  0.1106 -0.0360
  610MOL0     H82322   7.659   1.511  -0.217  0.2757  0.3147 -0.2151
  610MOL0     H82323   7.710   1.439  -0.375 -0.7127 -0.2764  0.0275
  610MOL0     H82324   7.525   1.297  -0.166 -0.2366 -0.9356 -0.0277
  610MOL0     H82325   7.599   1.218  -0.306  0.5032  1.2078 -1.2579
  610MOL0     H82326   7.435   1.476  -0.335  2.3193 -0.5130  0.7817
  610MOL0     H82327   7.486   1.367  -0.464 -1.7812 -1.4704 -0.7304
  610MOL0     H82328   7.324   1.228  -0.257  2.1010 -1.8981 -0.5628
  610MOL0     H82329   7.316   1.222  -0.428 -3.3574  0.1605 -0.0537
  610MOL0     H82330   7.214   1.435  -0.453  0.5993  1.1205  1.0065
  610MOL0     H82331   7.193   1.455  -0.280  1.2390  1.9310 -0.9709
  610MOL0     H82332   8.241   1.535  -0.141  1.3746 -4.1492 -0.5649
  610MOL0     H82333   8.398   1.407  -0.050 -0.7584  0.7845 -0.6472
  610MOL0     H82334   8.656   1.426   0.322 -0.3042  0.6475  2.0612
  610MOL0     H82335   8.881   1.396   0.441 -0.4253  1.5522  1.9694
  610MOL0     H82336  10.265   1.804   1.258 -0.1102  1.1121  0.1655
  610MOL0     H82337  10.449   1.659   1.270 -2.8569 -0.7114  0.4325
  610MOL0     H82338  10.966   1.753   1.127 -4.0367 -1.9018  0.4382
  610MOL0     H82339  11.198   1.691   1.154 -0.2367  0.0853 -0.7871
  610MOL0     H82340  11.329   1.702   1.495  1.5110  1.3411  0.3825
  610MOL0     H82341  11.360   1.543   1.549 -1.3637 -1.1565  0.0008
  610MOL0     H82342  11.569   1.704   1.475  0.1488  0.9173 -0.8033
  610MOL0     H82343  11.507   1.689   1.313 -0.3912 -1.4643  0.0926
  610MOL0     H82344  11.645   1.502   1.282 -1.4477  0.5753 -0.2272
  610MOL0     H82345  11.528   1.417   1.380  0.9758 -0.3755  0.7047
  610MOL0     H82346  11.742   1.382   1.482  1.4373  0.9141 -1.6738
  610MOL0     H82347  11.682   1.513   1.586 -0.4047 -1.3471  0.3431
  610MOL0     H82348  11.988   1.687   1.353  1.4852 -1.1736  0.0694
  610MOL0     H82349  11.123   1.499   1.517  0.7036 -0.1577 -0.3773
  610MOL0     H82350  10.890   1.597   1.529 -0.2948  2.9471 -0.4609
  611MOL0     O82351   2.898   0.840   3.452 -0.4079 -0.2374 -0.7480
  611MOL0     C82352   2.887   0.934   3.370 -0.4479  0.9763  0.7005
  611MOL0     O82353   2.802   0.922   3.260 -0.7243 -1.1183  0.2646
  611MOL0     C82354   2.718   0.817   3.247  0.3235  0.0734  1.7451
  611MOL0     C82355   2.699   0.777   3.111 -0.3396  0.4368  0.0468
  611MOL0     C82356   2.608   0.667   3.084 -0.3762  0.5866 -0.4237
  611MOL0     C82357   2.553   0.587   3.192  0.0771 -0.1469 -0.1219
  611MOL0     O82358   2.468   0.477   3.183  0.7121 -0.1640 -0.0667
  611MOL0     C82359   2.392   0.451   3.063  0.1413 -0.4738 -1.3321
  611MOL0     C82360   2.272   0.374   3.094  0.3291  0.4981  0.9687
  611MOL0     C82361   2.190   0.430   3.215  0.2658  0.5525  0.3198
  611MOL0     C82362   2.039   0.396   3.208 -0.1428  0.5148 -0.3597
  611MOL0     C82363   1.954   0.401   3.340  0.4523 -0.0847 -0.6978
  611MOL0     C82364   1.974   0.515   3.433 -0.1240 -0.9304  0.6158
  611MOL0     C82365   1.872   0.545   3.547  0.3339  0.3007  0.2607
  611MOL0     C82366   1.919   0.647   3.648 -0.2088 -0.6187 -0.4772
  611MOL0     N82367   1.947   0.783   3.591  0.2503  0.0257 -0.1915
  611MOL0     C82368   1.855   0.874   3.565 -0.0321  0.2691 -0.5618
  611MOL0     C82369   1.908   0.961   3.481 -0.1579  0.7061  0.5096
  611MOL0     C82370   1.827   1.084   3.430 -0.6136  0.2688 -0.2554
  611MOL0     C82371   1.849   1.197   3.541  0.0002  0.0665  0.2773
  611MOL0     C82372   1.785   1.327   3.493 -0.2473 -0.6324 -0.5890
  611MOL0     C82373   1.637   1.311   3.460  0.4638 -0.1989 -0.0090
  611MOL0     O82374   1.576   1.235   3.559  0.0994 -0.3577 -0.4772
  611MOL0     C82375   1.449   1.183   3.541 -1.0591 -0.2669  0.6917
  611MOL0     C82376   1.403   1.115   3.651  0.0588 -0.7388 -0.4114
  611MOL0     C82377   1.277   1.066   3.645 -0.0999 -0.1425 -0.5900
  611MOL0     C82378   1.241   0.988   3.774  1.0641  0.6292 -0.2279
  611MOL0     C82379   1.189   1.088   3.535 -0.9354  0.0551 -0.4473
  611MOL0     C82380   1.041   1.046   3.523  0.3755 -0.8087  0.5409
  611MOL0     O82381   0.974   1.100   3.415  0.8490  0.0197  0.5837
  611MOL0     C82382   0.838   1.094   3.388 -0.3759  0.6634  0.7693
  611MOL0     C82383   0.801   1.131   3.261 -0.1259 -0.5982 -0.4895
  611MOL0     C82384   0.669   1.137   3.224  0.0444  0.3262 -0.3549
  611MOL0     C82385   0.563   1.099   3.310  1.1975  0.3260  0.0067
  611MOL0     O82386   0.427   1.092   3.278  0.1159  0.5185 -0.1413
  611MOL0     C82387   0.390   1.090   3.142 -0.1372  0.3661 -0.7130
  611MOL0     C82388   0.239   1.059   3.136  0.4314  0.1973 -0.5079
  611MOL0     C82389   0.180   1.074   2.992 -0.5184  1.0841 -0.3205
  611MOL0     C82390   0.215   0.964   2.887  0.3896  0.2111 -0.0304
  611MOL0     C82391   0.295   1.016   2.773  0.4039 -0.0549  0.0038
  611MOL0     C82392   0.344   0.903   2.682 -0.1242  0.2863  0.2445
  611MOL0     C82393   0.230   0.835   2.605  0.4939  0.5702  0.1513
  611MOL0     C82394   0.252   0.680   2.579  0.5528 -0.0581 -0.8420
  611MOL0    Cl82395   0.100   0.619   2.495 -0.2296 -0.1738 -0.1377
  611MOL0     C82396   0.592   1.072   3.440  0.4278 -0.3655  1.1411
  611MOL0     C82397   0.732   1.063   3.473 -0.3931  0.8106  0.2107
  611MOL0     O82398   0.990   0.975   3.610 -0.0340 -0.0242 -0.2558
  611MOL0     C82399   1.238   1.164   3.430  1.0092 -0.5731 -0.5208
  611MOL0     C82400   1.369   1.216   3.431  0.2510  0.0553 -0.4206
  611MOL0     N82401   2.047   0.929   3.461 -0.5278  0.2100  0.0920
  611MOL0     N82402   2.058   0.826   3.532 -0.6079  0.6836  0.9199
  611MOL0     C82403   2.587   0.625   3.324  0.3644  0.9867  0.7676
  611MOL0     C82404   2.660   0.739   3.346  0.7602  0.1597 -0.3115
  611MOL0     C82405   2.967   1.058   3.390  0.4794  0.5592  0.8800
  611MOL0     C82406   2.955   1.173   3.316 -0.0073 -0.2205 -0.3162
  611MOL0     C82407   3.037   1.287   3.339  0.1897 -0.0834  0.1316
  611MOL0     C82408   3.128   1.288   3.443  0.6206  0.1306 -0.4798
  611MOL0     O82409   3.207   1.391   3.481  0.1183 -0.3944 -0.4555
  611MOL0     C82410   3.192   1.510   3.402  0.6192 -0.2616 -0.8894
  611MOL0     C82411   3.281   1.620   3.448  0.9004  0.3397  0.5883
  611MOL0     C82412   3.423   1.575   3.414 -0.9923 -0.2201 -0.3962
  611MOL0     C82413   3.523   1.690   3.408 -0.5327  0.1619  0.2494
  611MOL0     C82414   3.561   1.753   3.533  0.1334  0.3456  0.5986
  611MOL0     C82415   3.586   1.801   3.641 -1.1405 -0.5992 -0.3949
  611MOL0     C82416   3.139   1.169   3.519 -0.0972 -0.3040  0.1779
  611MOL0     C82417   3.063   1.056   3.487  0.7464  0.9957 -0.1485
  611MOL0     H82418   2.755   0.818   3.028  2.9238  0.2315  1.9715
  611MOL0     H82419   2.574   0.644   2.983 -0.4680  1.0651 -0.5035
  611MOL0     H82420   2.353   0.543   3.019 -0.6243  0.9574  1.9987
  611MOL0     H82421   2.465   0.394   3.005  0.6469 -2.3603  0.9929
  611MOL0     H82422   2.199   0.371   3.012 -0.0743  1.2766  1.2900
  611MOL0     H82423   2.300   0.269   3.113  1.5162  0.7069  0.4684
  611MOL0     H82424   2.218   0.390   3.313 -3.5333  0.8994  1.7342
  611MOL0     H82425   2.208   0.537   3.230 -2.2490  1.2527 -1.0429
  611MOL0     H82426   2.001   0.474   3.141 -2.2223 -0.9477 -0.9907
  611MOL0     H82427   2.023   0.297   3.165 -1.2168 -0.3179  1.8029
  611MOL0     H82428   1.851   0.409   3.302 -0.4238 -1.1514  1.2939
  611MOL0     H82429   1.965   0.312   3.404  1.5758 -0.0267 -0.8026
  611MOL0     H82430   2.074   0.500   3.475  1.1552 -0.2494 -1.9782
  611MOL0     H82431   2.003   0.599   3.370  0.6835 -2.3623 -1.0301
  611MOL0     H82432   1.775   0.569   3.504  0.2266 -1.0706 -0.3140
  611MOL0     H82433   1.855   0.457   3.609 -0.2665 -0.7592 -1.3398
  611MOL0     H82434   2.010   0.613   3.698  0.1052  0.6823 -0.1172
  611MOL0     H82435   1.849   0.659   3.731 -0.1005 -0.4601 -0.4085
  611MOL0     H82436   1.751   0.863   3.592 -0.1952 -1.0800 -1.5896
  611MOL0     H82437   1.866   1.112   3.332  2.3118 -1.6533  0.2198
  611MOL0     H82438   1.721   1.057   3.423  0.2495 -3.9085 -0.1537
  611MOL0     H82439   1.957   1.211   3.555  0.5259  2.1020 -4.2241
  611MOL0     H82440   1.804   1.148   3.628 -0.8619 -0.3186 -0.3744
  611MOL0     H82441   1.836   1.360   3.402 -1.0862 -0.7635 -1.1189
  611MOL0     H82442   1.802   1.410   3.562  1.8407 -0.1787 -1.5823
  611MOL0     H82443   1.639   1.256   3.365 -1.7458  3.2979 -2.3467
  611MOL0     H82444   1.589   1.409   3.448 -0.8256 -0.7690  0.2976
  611MOL0     H82445   1.476   1.094   3.729  0.6480 -2.4043 -1.3387
  611MOL0     H82446   1.134   0.998   3.793  0.9033  2.6918 -1.8093
  611MOL0     H82447   1.256   0.880   3.762 -6.5993 -1.2986  2.1327
  611MOL0     H82448   1.300   1.016   3.861  0.0147  0.1174  0.6737
  611MOL0     H82449   0.884   1.164   3.198 -0.3621  1.1149  0.0309
  611MOL0     H82450   0.635   1.152   3.121  1.4766 -1.5398 -1.1529
  611MOL0     H82451   0.414   1.185   3.093  0.7037  0.5932  0.0995
  611MOL0     H82452   0.451   1.011   3.098  2.8499  2.7266 -1.1378
  611MOL0     H82453   0.216   0.955   3.162  0.3462 -0.1635 -1.9349
  611MOL0     H82454   0.183   1.139   3.185 -4.2505 -1.3544 -2.7825
  611MOL0     H82455   0.197   1.169   2.942  2.3153  1.5018  1.2169
  611MOL0     H82456   0.071   1.080   3.008 -0.5048  2.1573 -0.5743
  611MOL0     H82457   0.275   0.883   2.928  0.7018  0.1603 -0.5754
  611MOL0     H82458   0.127   0.914   2.846  0.3672 -0.4271  0.7871
  611MOL0     H82459   0.372   1.085   2.809  0.8776 -1.3212  1.5311
  611MOL0     H82460   0.228   1.072   2.707  0.2695 -3.3881 -2.9407
  611MOL0     H82461   0.415   0.950   2.613  0.1073  3.1900  2.2560
  611MOL0     H82462   0.406   0.827   2.731  1.1062 -0.2575 -1.9935
  611MOL0     H82463   0.227   0.895   2.513 -1.2730  0.4387  0.0992
  611MOL0     H82464   0.134   0.849   2.654 -0.2075 -1.8149 -0.4341
  611MOL0     H82465   0.266   0.631   2.676 -1.1682  0.6854 -0.1788
  611MOL0     H82466   0.335   0.646   2.516  0.0732 -0.7209 -1.1349
  611MOL0     H82467   0.518   1.034   3.509  0.9659  2.9383  3.8171
  611MOL0     H82468   0.741   1.032   3.576  0.3089  0.9661  0.1988
  611MOL0     H82469   1.173   1.196   3.349  0.2136 -3.6725 -1.2539
  611MOL0     H82470   1.409   1.276   3.351  2.4106 -1.5293 -0.6290
  611MOL0     H82471   2.552   0.564   3.407 -1.2083  0.2641 -0.3849
  611MOL0     H82472   2.664   0.749   3.454 -0.0836  0.4287 -0.2969
  611MOL0     H82473   2.871   1.178   3.247 -0.4303 -0.9282  0.1453
  611MOL0     H82474   3.016   1.372   3.275  0.9479 -0.2106 -0.2964
  611MOL0     H82475   3.204   1.494   3.295 -2.9638  0.0175 -1.4442
  611MOL0     H82476   3.091   1.552   3.413  0.2974 -1.5084  1.9841
  611MOL0     H82477   3.270   1.621   3.557 -0.5275  0.1286  0.4549
  611MOL0     H82478   3.239   1.709   3.400  0.9806  1.4619  2.4918
  611MOL0     H82479   3.435   1.525   3.318  3.6103  1.2343 -0.8336
  611MOL0     H82480   3.462   1.508   3.492  0.2052 -2.0197 -2.4417
  611MOL0     H82481   3.483   1.757   3.331 -1.7526 -1.5382 -0.6381
  611MOL0     H82482   3.616   1.654   3.363 -0.2906 -0.1854  1.0100
  611MOL0     H82483   3.614   1.842   3.736  2.7720 -2.3358 -0.6211
  611MOL0     H82484   3.217   1.151   3.593  0.0373 -2.3072 -0.4146
  611MOL0     H82485   3.087   0.970   3.549 -3.3988 -0.2631  0.0011
  612MOL0     O82486   2.389   8.700   4.296 -0.4804 -0.1591 -0.5653
  612MOL0     C82487   2.400   8.796   4.214 -0.1390  0.3316  0.2279
  612MOL0     O82488   2.296   8.878   4.187 -0.4832 -0.7549  0.1554
  612MOL0     C82489   2.160   8.853   4.214 -0.2583 -0.8255  0.0816
  612MOL0     C82490   2.073   8.951   4.270  0.2036  1.1829 -0.8207
  612MOL0     C82491   1.933   8.928   4.278  0.3599  0.4333  0.3467
  612MOL0     C82492   1.879   8.802   4.246 -0.6323 -0.5075  0.3660
  612MOL0     O82493   1.744   8.774   4.255  0.0085 -0.2403 -0.5518
  612MOL0     C82494   1.643   8.856   4.301  0.0287 -0.3668 -0.2996
  612MOL0     C82495   1.551   8.781   4.399  0.5220 -0.5537  0.1575
  612MOL0     C82496   1.428   8.858   4.438  1.5382  0.1206  0.2099
  612MOL0     C82497   1.325   8.789   4.527  0.0286 -0.1739  0.6597
  612MOL0     C82498   1.194   8.875   4.549  0.5716  0.1841 -0.1472
  612MOL0     C82499   1.089   8.802   4.636 -0.2520 -0.1399 -0.3193
  612MOL0     C82500   0.966   8.747   4.559 -0.1122  0.4470 -0.1564
  612MOL0     C82501   0.997   8.683   4.419  0.1492  0.0130 -0.0200
  612MOL0     N82502   0.871   8.645   4.346 -0.6222  0.2451 -0.0129
  612MOL0     C82503   0.770   8.564   4.388  0.2914 -0.3289  0.1892
  612MOL0     C82504   0.687   8.573   4.271 -0.5509 -0.3090  0.1176
  612MOL0     C82505   0.558   8.502   4.247 -0.0196 -0.4998 -0.5964
  612MOL0     C82506   0.453   8.614   4.221  1.1396  0.1398  0.2123
  612MOL0     C82507   0.314   8.572   4.279 -0.1512  0.1526 -0.4626
  612MOL0     C82508   0.301   8.579   4.430 -0.1687 -0.2105 -0.3356
  612MOL0     O82509   0.234   8.697   4.464 -0.4575 -0.0913 -0.5284
  612MOL0     C82510   0.102   8.722   4.428 -0.4227  0.5074 -0.1304
  612MOL0     C82511   0.057   8.854   4.442 -0.5770  0.3958  0.7712
  612MOL0     C82512  -0.075   8.882   4.448  0.3617 -0.0694 -0.0613
  612MOL0     C82513  -0.114   9.016   4.497 -0.5227  0.3202 -0.4367
  612MOL0     C82514  -0.177   8.788   4.401  0.2590  0.0130 -0.1318
  612MOL0     C82515  -0.321   8.817   4.372  0.1250 -0.1880 -0.4560
  612MOL0     O82516  -0.419   8.713   4.371  0.2280  0.3881 -0.4643
  612MOL0     C82517  -0.550   8.751   4.362  0.1247  0.6115  0.5177
  612MOL0     C82518  -0.613   8.831   4.465  0.2128  0.1848 -0.6789
  612MOL0     C82519  -0.749   8.860   4.449 -0.2488 -0.5040 -0.3709
  612MOL0     C82520  -0.821   8.822   4.337 -0.4867 -0.9528 -0.3355
  612MOL0     O82521  -0.956   8.851   4.336  0.1359  0.7031  0.5757
  612MOL0     C82522  -1.043   8.749   4.285 -0.5751 -0.6029 -0.9644
  612MOL0     C82523  -1.178   8.757   4.351 -0.6693  0.6414  0.0828
  612MOL0     C82524  -1.249   8.629   4.332 -0.7997 -0.0050  0.5066
  612MOL0     C82525  -1.393   8.644   4.383 -0.4216 -0.6207  0.1163
  612MOL0     C82526  -1.475   8.512   4.372 -0.1453  0.1737  0.2102
  612MOL0     C82527  -1.617   8.526   4.417  1.0157  0.5110 -0.1256
  612MOL0     C82528  -1.708   8.418   4.351 -0.4646 -0.0820 -0.2096
  612MOL0     C82529  -1.851   8.436   4.375 -0.0852  0.2577  0.3703
  612MOL0    Cl82530  -1.903   8.356   4.534  0.4152  0.2291 -0.1348
  612MOL0     C82531  -0.762   8.737   4.243  0.8708 -0.1577 -1.0339
  612MOL0     C82532  -0.624   8.710   4.252 -0.1744 -0.1331 -0.4100
  612MOL0     O82533  -0.359   8.935   4.362 -0.0510  0.4463  0.2708
  612MOL0     C82534  -0.130   8.656   4.378 -0.7970  0.8984  0.2966
  612MOL0     C82535   0.000   8.628   4.394 -0.3921 -0.3811  0.4027
  612MOL0     N82536   0.744   8.650   4.168  0.1755  0.8795  0.3315
  612MOL0     N82537   0.854   8.697   4.220  0.0275  0.3969  0.1937
  612MOL0     C82538   1.967   8.719   4.173 -0.1315  0.8829 -0.0421
  612MOL0     C82539   2.098   8.742   4.156 -0.3597 -1.2338 -0.8946
  612MOL0     C82540   2.538   8.844   4.180  0.6079 -0.9734 -0.2120
  612MOL0     C82541   2.652   8.778   4.220  0.8576 -0.4441  0.0232
  612MOL0     C82542   2.780   8.820   4.180 -0.7043  0.0657  0.2449
  612MOL0     C82543   2.794   8.936   4.094 -0.2950 -0.6520 -0.5060
  612MOL0     O82544   2.913   8.968   4.053 -0.1690  0.0105  0.6438
  612MOL0     C82545   2.967   9.097   4.081  0.3505  0.5425 -0.0617
  612MOL0     C82546   3.119   9.114   4.056  0.1389  0.2162 -0.6397
  612MOL0     C82547   3.206   9.040   4.157  0.5568  0.4680  0.8261
  612MOL0     C82548   3.361   9.070   4.133  0.9514 -0.3650  0.3466
  612MOL0     C82549   3.400   9.193   4.205  0.2221 -0.1449 -0.1130
  612MOL0     C82550   3.431   9.286   4.276  0.0009  1.3030  0.1275
  612MOL0     C82551   2.677   9.009   4.063 -0.9473 -1.0912 -0.3977
  612MOL0     C82552   2.553   8.961   4.105 -0.2764  0.6353  0.8212
  612MOL0     H82553   2.112   9.047   4.300 -3.9979  3.0499 -0.5697
  612MOL0     H82554   1.868   9.005   4.317 -1.2449 -2.2277  3.4863
  612MOL0     H82555   1.680   8.946   4.350  4.1879 -1.3045 -1.3295
  612MOL0     H82556   1.588   8.892   4.214 -0.0031 -1.8923 -0.9451
  612MOL0     H82557   1.510   8.691   4.352  1.8913 -0.5591 -1.0936
  612MOL0     H82558   1.598   8.761   4.496 -1.0934 -2.1649  0.6670
  612MOL0     H82559   1.454   8.958   4.473 -0.1736  2.0324 -3.4172
  612MOL0     H82560   1.383   8.876   4.340  0.5829 -2.8469 -0.0106
  612MOL0     H82561   1.283   8.707   4.468 -0.5049  0.1785  0.5538
  612MOL0     H82562   1.367   8.744   4.618  2.7388  0.1379 -0.3421
  612MOL0     H82563   1.226   8.968   4.598  2.7209  1.5138 -3.6290
  612MOL0     H82564   1.152   8.908   4.453 -0.9407  0.1324  0.4738
  612MOL0     H82565   1.146   8.715   4.671 -2.9301 -1.5886  0.7011
  612MOL0     H82566   1.056   8.859   4.723  3.4591 -0.4639  1.5118
  612MOL0     H82567   0.900   8.694   4.629 -0.0815 -1.2238 -1.3053
  612MOL0     H82568   0.912   8.838   4.531  0.5264  0.5408 -1.1383
  612MOL0     H82569   1.056   8.596   4.448  0.1442 -0.1172 -0.3980
  612MOL0     H82570   1.065   8.744   4.359  0.2772 -0.0967  0.0120
  612MOL0     H82571   0.752   8.502   4.476  1.7002 -1.6994 -0.4423
  612MOL0     H82572   0.573   8.423   4.172  2.7630  1.1668 -1.9384
  612MOL0     H82573   0.521   8.460   4.341 -2.3397  3.5654  0.5396
  612MOL0     H82574   0.443   8.632   4.114 -0.9418 -0.9540  0.1713
  612MOL0     H82575   0.469   8.707   4.276 -0.7931  1.2437 -0.9706
  612MOL0     H82576   0.299   8.468   4.248  2.6494  0.1430 -2.1565
  612MOL0     H82577   0.234   8.626   4.228 -0.9962 -1.6845 -1.1570
  612MOL0     H82578   0.399   8.579   4.478 -1.4038 -1.7175  2.4579
  612MOL0     H82579   0.242   8.497   4.473 -0.6507  1.4386  2.3939
  612MOL0     H82580   0.129   8.933   4.457 -0.3616  0.3638 -0.0626
  612MOL0     H82581  -0.036   9.068   4.554 -0.3561  1.4053 -1.6184
  612MOL0     H82582  -0.143   9.082   4.416 -2.6127 -1.9280 -1.6593
  612MOL0     H82583  -0.204   9.001   4.558  0.2913 -0.6858  0.5753
  612MOL0     H82584  -0.553   8.878   4.542 -1.4720  1.4251 -0.0711
  612MOL0     H82585  -0.805   8.922   4.517 -0.7060 -0.2946 -0.9299
  612MOL0     H82586  -1.053   8.753   4.176 -1.9905  0.4672 -0.8208
  612MOL0     H82587  -1.014   8.645   4.301 -0.3856 -0.3984  0.0785
  612MOL0     H82588  -1.163   8.789   4.454 -0.1819  0.7813 -0.0316
  612MOL0     H82589  -1.234   8.837   4.300 -0.0752  1.0978  0.1340
  612MOL0     H82590  -1.192   8.547   4.377  2.0573  2.1113  1.0439
  612MOL0     H82591  -1.246   8.610   4.224 -1.3101 -1.8702  0.7838
  612MOL0     H82592  -1.382   8.677   4.487  0.1289  4.6485 -1.3258
  612MOL0     H82593  -1.443   8.729   4.336 -1.2597  0.1518  2.2968
  612MOL0     H82594  -1.426   8.439   4.436  1.5471  1.8381  0.9148
  612MOL0     H82595  -1.471   8.475   4.269 -2.8831  2.3895 -0.8626
  612MOL0     H82596  -1.618   8.511   4.525 -2.1373  0.4996 -0.0717
  612MOL0     H82597  -1.659   8.625   4.396 -0.4344  0.1339  0.8542
  612MOL0     H82598  -1.678   8.324   4.397  0.5731  1.1569  1.7980
  612MOL0     H82599  -1.688   8.418   4.243 -1.7729  2.4100 -0.5329
  612MOL0     H82600  -1.918   8.384   4.306 -2.0293  3.9657 -0.7434
  612MOL0     H82601  -1.889   8.538   4.373 -0.9227  0.0701  2.9978
  612MOL0     H82602  -0.816   8.703   4.155 -2.4586  1.8197  0.0483
  612MOL0     H82603  -0.565   8.647   4.186  0.1867 -1.1802  0.8489
  612MOL0     H82604  -0.192   8.570   4.358  0.6715  0.2215 -1.5883
  612MOL0     H82605   0.039   8.529   4.371  1.5151  0.8105 -2.0500
  612MOL0     H82606   1.927   8.635   4.117 -0.1386  0.4536  0.5970
  612MOL0     H82607   2.156   8.667   4.103  0.9510 -0.3545 -0.7705
  612MOL0     H82608   2.649   8.688   4.281  1.2091 -2.4079 -2.7086
  612MOL0     H82609   2.868   8.764   4.207  0.7793 -0.7023 -5.0839
  612MOL0     H82610   2.907   9.165   4.019 -2.7060 -2.9771 -1.3241
  612MOL0     H82611   2.954   9.127   4.185 -0.8100  1.4607 -0.4552
  612MOL0     H82612   3.138   9.221   4.071  0.9442 -0.2056  1.8520
  612MOL0     H82613   3.145   9.089   3.953  1.0182  0.0007 -0.3673
  612MOL0     H82614   3.177   8.934   4.156 -1.1028  0.8164 -2.9787
  612MOL0     H82615   3.182   9.074   4.258  1.1217  1.7616  0.5469
  612MOL0     H82616   3.382   9.092   4.028 -0.2225  2.0793  0.5453
  612MOL0     H82617   3.429   8.993   4.170 -0.2695 -0.6328  2.1682
  612MOL0     H82618   3.470   9.372   4.327  2.5944  0.6191 -0.5573
  612MOL0     H82619   2.691   9.095   3.997  1.3818  0.6686  2.1268
  612MOL0     H82620   2.464   9.004   4.061 -0.6613 -2.2444 -1.4870
  613MOL0     O82621   7.317   2.083   7.388 -0.0548 -0.7315 -0.4203
  613MOL0     C82622   7.393   2.083   7.294 -0.2414 -0.0897 -1.6031
  613MOL0     O82623   7.350   2.085   7.158 -0.0161 -0.6480 -0.4127
  613MOL0     C82624   7.215   2.072   7.124 -0.0184  0.0074 -0.1711
  613MOL0     C82625   7.151   2.161   7.042  0.1900  0.2704 -0.7292
  613MOL0     C82626   7.012   2.151   7.016 -0.5529 -0.1217 -0.8458
  613MOL0     C82627   6.934   2.038   7.045 -0.2902 -0.3125 -0.7896
  613MOL0     O82628   6.799   2.043   7.024  0.6939  0.5058 -0.3315
  613MOL0     C82629   6.707   1.944   7.077  0.1277  0.2158  0.5074
  613MOL0     C82630   6.567   1.981   7.047 -0.0404 -0.4306  0.0607
  613MOL0     C82631   6.542   2.015   6.898 -1.0779  0.0783  0.2546
  613MOL0     C82632   6.382   2.024   6.866 -0.3945  0.1276 -0.8773
  613MOL0     C82633   6.324   1.886   6.878  0.7629  0.6772 -0.0706
  613MOL0     C82634   6.204   1.858   6.795 -0.1770  0.5063  0.6710
  613MOL0     C82635   6.086   1.938   6.833  0.2983  0.6520  0.4495
  613MOL0     C82636   5.951   1.881   6.810 -0.1455 -0.3847  0.7750
  613MOL0     N82637   5.848   1.968   6.883 -0.9120  0.6429 -0.1946
  613MOL0     C82638   5.795   1.939   7.007 -0.0972 -0.2774  0.2002
  613MOL0     C82639   5.731   2.046   7.048  0.3640  0.5579  0.0342
  613MOL0     C82640   5.648   2.060   7.171  0.3885 -0.1068 -0.9259
  613MOL0     C82641   5.510   1.990   7.161  0.0375 -0.3991  0.2263
  613MOL0     C82642   5.426   1.999   7.278 -0.1827 -0.6544 -0.0103
  613MOL0     C82643   5.390   2.158   7.296 -0.2978  0.8351 -0.3166
  613MOL0     O82644   5.255   2.176   7.346 -0.1331 -0.3866 -0.7478
  613MOL0     C82645   5.248   2.222   7.472  0.3469 -0.1941 -0.7299
  613MOL0     C82646   5.319   2.172   7.585 -0.4123 -0.9631  0.1637
  613MOL0     C82647   5.291   2.224   7.714 -1.4239 -0.1657  0.1726
  613MOL0     C82648   5.343   2.161   7.836 -0.2164  0.1860 -0.2286
  613MOL0     C82649   5.214   2.336   7.729  0.2916  0.0062  0.2655
  613MOL0     C82650   5.170   2.385   7.862 -0.8817 -0.3809 -0.2378
  613MOL0     O82651   5.039   2.420   7.863 -0.4784 -0.4327  1.3964
  613MOL0     C82652   4.985   2.517   7.937 -1.1822  0.2703  0.2932
  613MOL0     C82653   5.043   2.585   8.049 -0.4649  0.1899 -0.0495
  613MOL0     C82654   4.960   2.667   8.130  0.3151 -0.5260 -0.4927
  613MOL0     C82655   4.825   2.686   8.103 -0.3045 -0.2539 -1.0730
  613MOL0     O82656   4.738   2.757   8.191  0.0226  0.7010 -0.0257
  613MOL0     C82657   4.790   2.824   8.317  0.2712 -0.1813  0.6665
  613MOL0     C82658   4.674   2.878   8.397  0.4190 -0.7771  0.5690
  613MOL0     C82659   4.543   2.791   8.392 -0.1096 -0.0713 -0.6439
  613MOL0     C82660   4.566   2.676   8.484  0.5899 -0.1572  0.2037
  613MOL0     C82661   4.481   2.551   8.444  0.2994 -0.3516 -0.2895
  613MOL0     C82662   4.327   2.595   8.462  0.1224  0.8513 -0.2641
  613MOL0     C82663   4.244   2.466   8.480 -0.0674 -0.0103 -0.5145
  613MOL0     C82664   4.100   2.501   8.462  0.0708 -0.1317 -0.3169
  613MOL0    Cl82665   4.016   2.340   8.453 -0.0971 -0.0769  0.4855
  613MOL0     C82666   4.778   2.613   7.997  0.1007 -0.3767  0.4882
  613MOL0     C82667   4.855   2.543   7.910 -0.0406 -0.2225  1.2342
  613MOL0     O82668   5.256   2.408   7.951 -0.4114 -0.0905 -0.0592
  613MOL0     C82669   5.146   2.392   7.616 -0.1406 -0.8637  0.2403
  613MOL0     C82670   5.172   2.333   7.493  0.3652  0.3904 -0.0147
  613MOL0     N82671   5.746   2.143   6.951 -0.0229  0.2986 -0.5140
  613MOL0     N82672   5.817   2.096   6.851  0.2309  0.4899 -0.2219
  613MOL0     C82673   7.002   1.950   7.132  0.0161  0.9234  0.7904
  613MOL0     C82674   7.141   1.966   7.167  0.3636  0.4439 -0.5813
  613MOL0     C82675   7.541   2.076   7.325  0.1697  0.1125 -0.6368
  613MOL0     C82676   7.590   2.107   7.455 -0.4289 -0.5260  0.3784
  613MOL0     C82677   7.720   2.068   7.478 -0.2741  0.1770  0.0205
  613MOL0     C82678   7.814   2.022   7.392  0.7545 -0.3167  0.5919
  613MOL0     O82679   7.942   1.989   7.438  0.6028 -0.0108 -0.9298
  613MOL0     C82680   8.043   1.974   7.334  0.3531 -0.6872 -0.8343
  613MOL0     C82681   8.192   1.962   7.388 -0.2018 -0.3814 -0.8948
  613MOL0     C82682   8.298   1.948   7.274 -0.3871  0.3124  0.0746
  613MOL0     C82683   8.431   1.986   7.335  0.7165  0.5704 -0.4842
  613MOL0     C82684   8.538   2.000   7.234  0.5234  0.5358  0.4502
  613MOL0     C82685   8.632   2.007   7.155 -0.1526  0.8462  0.1478
  613MOL0     C82686   7.762   1.999   7.259  0.7130  1.4207 -0.5472
  613MOL0     C82687   7.621   2.017   7.226  0.4997 -0.8185  0.2075
  613MOL0     H82688   7.188   2.250   6.993  1.3049 -1.2052 -2.7097
  613MOL0     H82689   6.958   2.231   6.967 -3.9732 -2.0313 -0.4882
  613MOL0     H82690   6.731   1.846   7.035  0.7888  0.3219  0.6215
  613MOL0     H82691   6.718   1.931   7.185 -0.2366 -0.6262  0.4477
  613MOL0     H82692   6.513   1.890   7.074  0.4838 -1.4321 -2.0657
  613MOL0     H82693   6.536   2.060   7.116  2.1771 -0.3193  1.0060
  613MOL0     H82694   6.587   2.112   6.877  1.7923 -1.3531 -0.6055
  613MOL0     H82695   6.575   1.941   6.825 -0.0150  1.7825 -1.0794
  613MOL0     H82696   6.325   2.086   6.937  0.5846 -0.5267  0.5297
  613MOL0     H82697   6.371   2.058   6.763  1.0422 -2.6708 -2.0527
  613MOL0     H82698   6.398   1.809   6.852  1.1185  0.4270  1.5451
  613MOL0     H82699   6.302   1.861   6.982 -0.4203  0.8603 -0.2733
  613MOL0     H82700   6.218   1.865   6.687 -0.3247  3.2706  0.7508
  613MOL0     H82701   6.196   1.751   6.815  1.6830  0.2237  0.0911
  613MOL0     H82702   6.104   1.977   6.933 -0.7887  2.8613 -0.1641
  613MOL0     H82703   6.103   2.032   6.781  1.8661  0.4387  0.5375
  613MOL0     H82704   5.947   1.775   6.838  0.5768 -0.5254  0.3506
  613MOL0     H82705   5.930   1.890   6.703 -2.2374 -2.2601  0.9493
  613MOL0     H82706   5.804   1.846   7.062  0.2509 -2.0499 -2.6343
  613MOL0     H82707   5.703   2.010   7.251  0.0907 -0.7521 -1.1212
  613MOL0     H82708   5.644   2.167   7.195 -0.8048 -0.1157 -1.0217
  613MOL0     H82709   5.523   1.882   7.153 -0.4516 -0.4355 -0.1236
  613MOL0     H82710   5.453   2.010   7.070 -0.8136 -4.0877 -0.2067
  613MOL0     H82711   5.478   1.947   7.359  1.0140  0.1545 -0.2231
  613MOL0     H82712   5.330   1.953   7.257 -0.4790 -0.1373  0.1936
  613MOL0     H82713   5.403   2.206   7.198  2.2555  2.0470  0.5268
  613MOL0     H82714   5.459   2.216   7.358 -0.7413  0.9746  0.0488
  613MOL0     H82715   5.386   2.089   7.565 -0.6911 -0.7256 -2.0228
  613MOL0     H82716   5.403   2.076   7.803 -0.7568 -0.1365 -0.4011
  613MOL0     H82717   5.410   2.227   7.893 -0.4664 -0.8855  1.3667
  613MOL0     H82718   5.269   2.136   7.912 -1.4070  0.4497 -1.2716
  613MOL0     H82719   5.149   2.570   8.071 -0.4496 -0.1257 -0.3304
  613MOL0     H82720   5.005   2.722   8.212  0.5599 -1.0529 -0.2707
  613MOL0     H82721   4.854   2.756   8.374 -0.1426 -0.9613  0.2163
  613MOL0     H82722   4.850   2.906   8.275  0.4409  0.1805  1.5977
  613MOL0     H82723   4.717   2.907   8.493  2.0142 -1.4769  0.1170
  613MOL0     H82724   4.649   2.974   8.351 -1.2385 -0.1538  2.6340
  613MOL0     H82725   4.515   2.770   8.289 -5.1165  2.6358 -0.1239
  613MOL0     H82726   4.456   2.844   8.430 -0.5890 -0.6759 -0.8821
  613MOL0     H82727   4.673   2.652   8.482  1.0203  1.6227 -1.3275
  613MOL0     H82728   4.537   2.694   8.588  4.2310 -1.7583  1.6633
  613MOL0     H82729   4.507   2.464   8.506  2.6785  1.1845  1.0163
  613MOL0     H82730   4.503   2.519   8.341 -3.7113 -1.1702 -1.0571
  613MOL0     H82731   4.311   2.659   8.549  0.2466  0.6055 -0.0583
  613MOL0     H82732   4.297   2.639   8.366  0.8523 -0.9571 -1.3864
  613MOL0     H82733   4.270   2.416   8.573 -0.3911 -0.2486 -0.5499
  613MOL0     H82734   4.270   2.391   8.404  0.0271 -3.5188  2.7002
  613MOL0     H82735   4.084   2.565   8.375 -0.8949 -0.9167 -0.7419
  613MOL0     H82736   4.078   2.565   8.548  2.7236 -0.3150  0.5777
  613MOL0     H82737   4.676   2.630   7.965  0.2528  0.6035  0.4970
  613MOL0     H82738   4.801   2.508   7.822  0.8938  2.6708 -0.6138
  613MOL0     H82739   5.075   2.473   7.633  0.7717  0.1335 -0.5352
  613MOL0     H82740   5.112   2.366   7.409 -1.0603  0.3543  0.9519
  613MOL0     H82741   6.957   1.860   7.171  2.1223 -0.4024  0.3763
  613MOL0     H82742   7.192   1.889   7.224  1.1443  1.6923  0.4759
  613MOL0     H82743   7.534   2.160   7.531 -0.5846 -1.3779  0.8624
  613MOL0     H82744   7.764   2.092   7.574  0.3797 -0.3689 -0.1309
  613MOL0     H82745   8.028   1.890   7.265 -1.2274  0.8587 -2.4869
  613MOL0     H82746   8.038   2.060   7.267 -2.9164  1.7893  2.2645
  613MOL0     H82747   8.205   1.878   7.457 -0.1905  0.7842  0.5921
  613MOL0     H82748   8.209   2.051   7.450  1.1629 -2.0720  1.2884
  613MOL0     H82749   8.268   1.987   7.176  0.5416  2.9015  0.7356
  613MOL0     H82750   8.300   1.841   7.254 -0.2424  0.2431  0.4469
  613MOL0     H82751   8.476   1.908   7.396  1.4443  1.0733 -0.3653
  613MOL0     H82752   8.423   2.066   7.409 -1.4031  0.2487 -0.2869
  613MOL0     H82753   8.714   2.008   7.086  0.7990 -0.3341  1.2372
  613MOL0     H82754   7.828   1.965   7.179 -1.5444 -2.2502 -1.0808
  613MOL0     H82755   7.590   1.994   7.125  0.3390  1.2415 -0.2418
  614MOL0     O82756   1.303   9.376   2.630  0.1175 -0.5504  0.1866
  614MOL0     C82757   1.314   9.380   2.507  0.1767  0.0239  0.0396
  614MOL0     O82758   1.429   9.360   2.430  0.0623 -0.5693  0.4251
  614MOL0     C82759   1.549   9.318   2.488  0.0100  0.3702  0.8516
  614MOL0     C82760   1.674   9.371   2.462  0.6996  0.1435  0.2318
  614MOL0     C82761   1.790   9.333   2.535 -0.3513 -0.7746 -0.4670
  614MOL0     C82762   1.781   9.217   2.613 -0.8364  0.2099 -0.8404
  614MOL0     O82763   1.898   9.177   2.672 -0.1210  0.1791  0.1189
  614MOL0     C82764   1.903   9.062   2.764 -0.6293 -0.3234 -0.0137
  614MOL0     C82765   2.052   9.049   2.820  0.4390  0.4970 -0.2401
  614MOL0     C82766   2.118   9.175   2.882 -0.2802 -0.3467 -0.1902
  614MOL0     C82767   2.263   9.136   2.925  0.5698 -0.0087  0.3828
  614MOL0     C82768   2.335   9.250   2.992 -0.1973  0.6500  0.2924
  614MOL0     C82769   2.461   9.189   3.053  0.6244  0.2909  0.0548
  614MOL0     C82770   2.559   9.287   3.110  1.0378  0.8051  0.1979
  614MOL0     C82771   2.661   9.212   3.201 -0.3696 -0.1759 -0.5914
  614MOL0     N82772   2.762   9.305   3.256 -0.3456  0.3360 -0.6736
  614MOL0     C82773   2.761   9.440   3.245 -0.5919  0.9180 -0.6776
  614MOL0     C82774   2.874   9.479   3.311 -0.7737 -1.3630 -0.1940
  614MOL0     C82775   2.928   9.623   3.316 -0.4187  0.2958  0.2437
  614MOL0     C82776   2.857   9.704   3.430  0.7927  0.2121  1.2877
  614MOL0     C82777   2.890   9.857   3.424 -0.2034 -0.3030 -0.1858
  614MOL0     C82778   2.805   9.917   3.540 -0.3286 -0.3676 -0.0281
  614MOL0     O82779   2.661   9.902   3.516 -0.7404 -0.7226 -2.0407
  614MOL0     C82780   2.585   9.875   3.627 -0.3370  0.7149  0.2942
  614MOL0     C82781   2.562   9.968   3.725 -0.2651  0.3800 -0.0094
  614MOL0     C82782   2.476   9.947   3.831 -0.2178 -0.2959  0.2291
  614MOL0     C82783   2.462  10.063   3.923 -0.1249 -0.2837  0.2312
  614MOL0     C82784   2.418   9.820   3.848 -0.0256 -1.2150 -0.8202
  614MOL0     C82785   2.315   9.797   3.954 -0.2162 -0.4062 -0.2436
  614MOL0     O82786   2.319   9.863   4.077 -0.0298 -0.2684 -0.2068
  614MOL0     C82787   2.207   9.880   4.158 -0.6233 -1.0466 -0.7781
  614MOL0     C82788   2.081   9.843   4.129 -0.3070 -0.7909  0.7107
  614MOL0     C82789   1.967   9.864   4.215 -0.8282 -0.2799 -0.2263
  614MOL0     C82790   1.985   9.918   4.342  0.0997  0.6521  0.1432
  614MOL0     O82791   1.894   9.945   4.436 -0.5192  0.0661 -0.4055
  614MOL0     C82792   1.763   9.892   4.413 -0.3084 -0.2095  0.2397
  614MOL0     C82793   1.689   9.922   4.534  0.5630 -0.4296  0.0298
  614MOL0     C82794   1.536   9.891   4.507 -0.3998 -0.2777 -1.1567
  614MOL0     C82795   1.460   9.880   4.644  0.2135  0.4486  0.6715
  614MOL0     C82796   1.330   9.815   4.623  0.4738  0.2436  0.5861
  614MOL0     C82797   1.248   9.776   4.752 -0.7491  0.0460  0.3442
  614MOL0     C82798   1.127   9.688   4.715 -0.6504 -0.0917 -0.4942
  614MOL0     C82799   1.015   9.753   4.635 -0.1551 -0.1299  0.2570
  614MOL0    Cl82800   0.905   9.848   4.735  0.1418 -0.0829 -0.1427
  614MOL0     C82801   2.118   9.954   4.370 -0.2001 -0.4080 -0.7123
  614MOL0     C82802   2.229   9.936   4.281  1.1207  0.5675  0.2854
  614MOL0     O82803   2.227   9.714   3.927 -0.3330  0.4246  0.4269
  614MOL0     C82804   2.452   9.727   3.756  0.4736  0.4562 -0.0335
  614MOL0     C82805   2.537   9.750   3.649 -0.5627 -0.2706 -0.7190
  614MOL0     N82806   2.944   9.362   3.347 -0.3025 -1.0373  0.2134
  614MOL0     N82807   2.875   9.261   3.316  0.0158  0.3484 -0.2323
  614MOL0     C82808   1.658   9.153   2.631 -0.1271 -0.7138 -0.2090
  614MOL0     C82809   1.544   9.213   2.579  0.9698 -1.1544 -0.5117
  614MOL0     C82810   1.184   9.387   2.435 -1.2257 -0.7609  1.0286
  614MOL0     C82811   1.196   9.419   2.298  0.3070 -0.0857 -0.6738
  614MOL0     C82812   1.069   9.430   2.227 -0.3025 -0.2056  0.1063
  614MOL0     C82813   0.943   9.416   2.289 -0.6312  0.4809  0.2939
  614MOL0     O82814   0.824   9.438   2.228  0.1874 -0.2973 -0.4819
  614MOL0     C82815   0.817   9.497   2.101  0.4842 -0.8432  0.2891
  614MOL0     C82816   0.681   9.523   2.045  0.7554 -0.2343 -0.0915
  614MOL0     C82817   0.599   9.598   2.150 -0.4332  0.2421  0.6155
  614MOL0     C82818   0.450   9.631   2.105  1.0087  0.4104 -0.1351
  614MOL0     C82819   0.387   9.723   2.200 -0.5507  0.3774  0.4219
  614MOL0     C82820   0.345   9.800   2.288  0.0448  1.3045  0.0401
  614MOL0     C82821   0.939   9.383   2.427 -0.1222 -0.3742 -0.2098
  614MOL0     C82822   1.060   9.373   2.496 -0.3389 -0.3878  0.0836
  614MOL0     H82823   1.682   9.455   2.393 -0.9419 -0.4474 -0.7604
  614MOL0     H82824   1.884   9.380   2.508 -2.0274  2.2412 -1.4834
  614MOL0     H82825   1.832   9.068   2.847 -0.7094 -0.3372 -0.0819
  614MOL0     H82826   1.881   8.969   2.711  0.6160  0.7002 -2.4618
  614MOL0     H82827   2.060   8.964   2.889 -2.3940 -1.0934 -1.7033
  614MOL0     H82828   2.112   9.018   2.734 -0.0747 -1.2355 -0.0239
  614MOL0     H82829   2.119   9.261   2.815  0.8120  0.9561  1.4424
  614MOL0     H82830   2.062   9.207   2.970  1.5325  0.3379  0.7415
  614MOL0     H82831   2.259   9.045   2.986 -1.1096 -0.5548 -0.4880
  614MOL0     H82832   2.321   9.115   2.835 -0.1351 -1.4941  0.2423
  614MOL0     H82833   2.369   9.326   2.921 -1.8611  2.4351  1.3016
  614MOL0     H82834   2.269   9.295   3.067 -1.1345  1.1742 -0.8057
  614MOL0     H82835   2.425   9.122   3.131 -0.3165 -0.9498 -1.4034
  614MOL0     H82836   2.514   9.126   2.980  0.1001  1.1799 -1.1371
  614MOL0     H82837   2.613   9.323   3.022 -0.7245 -0.8036 -1.6441
  614MOL0     H82838   2.508   9.367   3.164 -0.5862  0.0062 -0.1026
  614MOL0     H82839   2.714   9.132   3.148  2.3541 -1.8048  3.9317
  614MOL0     H82840   2.619   9.158   3.286  2.2159  0.9215  1.5461
  614MOL0     H82841   2.701   9.505   3.182 -1.4120 -0.6699 -1.6286
  614MOL0     H82842   3.037   9.624   3.331 -0.4975  0.7406  0.8171
  614MOL0     H82843   2.918   9.678   3.223  2.9279  0.7071 -0.0003
  614MOL0     H82844   2.892   9.671   3.528  0.2730  0.0980  1.4327
  614MOL0     H82845   2.749   9.689   3.425  0.7344  0.9830 -1.0461
  614MOL0     H82846   2.854   9.914   3.338 -1.5238 -1.7346 -0.6333
  614MOL0     H82847   2.997   9.868   3.442  0.6489 -1.9348 -3.5209
  614MOL0     H82848   2.831  10.024   3.542 -0.8819 -0.1824 -1.4748
  614MOL0     H82849   2.827   9.872   3.637  0.4788 -1.4865 -0.6989
  614MOL0     H82850   2.615  10.062   3.721 -0.3611  0.4274 -0.1370
  614MOL0     H82851   2.511  10.034   4.016  5.1341 -5.5078 -3.4363
  614MOL0     H82852   2.527  10.144   3.889 -2.7539  1.5940 -0.6596
  614MOL0     H82853   2.363  10.104   3.945  0.0331 -0.6395  1.7556
  614MOL0     H82854   2.049   9.795   4.037  2.6986 -1.4841 -0.0560
  614MOL0     H82855   1.864   9.845   4.189 -0.7174 -1.8920  0.4034
  614MOL0     H82856   1.715   9.948   4.333 -2.2947  2.8311  3.2666
  614MOL0     H82857   1.771   9.787   4.384  0.5397 -0.0660 -0.0789
  614MOL0     H82858   1.731   9.867   4.618  2.0527  2.2383  1.1737
  614MOL0     H82859   1.688  10.028   4.562 -0.6866 -0.8262  1.6778
  614MOL0     H82860   1.530   9.794   4.457  1.2415 -1.3373  0.5464
  614MOL0     H82861   1.491   9.967   4.443 -0.8406  2.7053  2.3494
  614MOL0     H82862   1.522   9.823   4.713  0.4217 -0.6106 -0.3527
  614MOL0     H82863   1.446   9.979   4.687 -0.2653  0.4539  0.5130
  614MOL0     H82864   1.336   9.722   4.567  0.6644  0.6555 -0.0904
  614MOL0     H82865   1.268   9.886   4.567  1.1497  1.7096  1.6297
  614MOL0     H82866   1.319   9.734   4.824  0.4264 -0.0712 -0.8557
  614MOL0     H82867   1.205   9.865   4.800  1.5218  2.2882 -1.5101
  614MOL0     H82868   1.082   9.661   4.811 -0.8286  0.2262 -0.4854
  614MOL0     H82869   1.153   9.603   4.652 -0.0442  0.7626 -1.4239
  614MOL0     H82870   0.961   9.671   4.587 -1.0815  0.2319  0.6756
  614MOL0     H82871   1.066   9.817   4.562  1.1555  1.0828  2.1371
  614MOL0     H82872   2.136   9.988   4.471  1.2465  0.7518 -1.3163
  614MOL0     H82873   2.323   9.966   4.325  0.7110  1.6146  0.4983
  614MOL0     H82874   2.416   9.625   3.764  3.0126 -0.5533 -0.5100
  614MOL0     H82875   2.556   9.673   3.576  0.7069 -3.4325  2.6421
  614MOL0     H82876   1.637   9.065   2.691  0.2282  0.0837  1.1233
  614MOL0     H82877   1.453   9.157   2.601  0.9549 -1.2925 -0.9177
  614MOL0     H82878   1.288   9.441   2.245  0.0925  2.1586 -0.2090
  614MOL0     H82879   1.077   9.442   2.120  0.3084  1.3565  0.2998
  614MOL0     H82880   0.864   9.596   2.110  0.5218 -0.9209  0.9806
  614MOL0     H82881   0.876   9.444   2.025 -0.7611 -3.6293  1.1362
  614MOL0     H82882   0.626   9.430   2.026 -1.9646  1.1946  0.2732
  614MOL0     H82883   0.694   9.580   1.952  3.5413 -2.0848 -0.9625
  614MOL0     H82884   0.645   9.691   2.183 -1.6448  0.6411  1.2312
  614MOL0     H82885   0.600   9.548   2.247 -3.2297  0.9848  1.1212
  614MOL0     H82886   0.401   9.534   2.100  2.2342 -0.2444  0.0792
  614MOL0     H82887   0.452   9.680   2.007  1.0650 -2.4980 -1.6764
  614MOL0     H82888   0.319   9.868   2.367  1.7055  3.1817 -0.9415
  614MOL0     H82889   0.842   9.379   2.475 -1.1090  2.9826 -1.6164
  614MOL0     H82890   1.055   9.361   2.604  0.1040  0.0692  0.1563
  615MOL0     O82891   4.715   5.367   4.855 -0.1679  0.4690 -0.7268
  615MOL0     C82892   4.698   5.485   4.823  0.7719  0.3038  1.9557
  615MOL0     O82893   4.612   5.573   4.879  0.6836 -0.6199  0.5014
  615MOL0     C82894   4.508   5.556   4.961  0.8181  0.2237 -0.5448
  615MOL0     C82895   4.491   5.473   5.074  0.4477 -0.3612 -0.3069
  615MOL0     C82896   4.373   5.485   5.155  0.1157  0.2941  0.2872
  615MOL0     C82897   4.271   5.581   5.115  0.5005  0.5117  0.3762
  615MOL0     O82898   4.155   5.617   5.192  0.2737  0.1353 -0.1975
  615MOL0     C82899   4.082   5.515   5.261 -0.4934 -0.3316  0.0778
  615MOL0     C82900   3.950   5.562   5.310  0.3509 -0.0725 -0.1968
  615MOL0     C82901   3.859   5.582   5.184  0.1040 -0.3023 -1.0476
  615MOL0     C82902   3.733   5.667   5.216 -0.5140 -0.2490  0.2575
  615MOL0     C82903   3.621   5.644   5.110 -0.2878 -1.3592 -0.3261
  615MOL0     C82904   3.500   5.710   5.166  0.2902 -1.0835 -0.0520
  615MOL0     C82905   3.386   5.698   5.064  0.2168  0.4559  0.2094
  615MOL0     C82906   3.408   5.773   4.927 -0.1398 -0.2239  0.8990
  615MOL0     N82907   3.319   5.751   4.814  0.5365  0.2110  0.7219
  615MOL0     C82908   3.205   5.817   4.774  0.7140 -0.3041  0.2868
  615MOL0     C82909   3.160   5.766   4.663  0.2897  1.2906 -0.0761
  615MOL0     C82910   3.040   5.789   4.583  0.5353  0.4620 -0.0631
  615MOL0     C82911   2.910   5.826   4.670 -0.9762  0.1000 -0.2849
  615MOL0     C82912   2.800   5.840   4.564  0.3607 -0.4190 -0.0918
  615MOL0     C82913   2.673   5.893   4.628 -0.5122 -0.1644  0.0143
  615MOL0     O82914   2.569   5.902   4.538 -0.4759  0.4517  0.3917
  615MOL0     C82915   2.448   5.928   4.595 -0.5253  0.1933  0.1070
  615MOL0     C82916   2.420   5.956   4.729 -0.0984  0.9190 -0.3858
  615MOL0     C82917   2.284   5.969   4.760  0.5991 -0.7859  0.0351
  615MOL0     C82918   2.263   6.014   4.900 -0.4803 -0.0135  0.1106
  615MOL0     C82919   2.183   5.959   4.663 -0.4316  1.1455 -0.2271
  615MOL0     C82920   2.040   5.960   4.692  0.1584 -0.0333 -0.4559
  615MOL0     O82921   1.978   6.039   4.606  0.2345  0.4072  0.1039
  615MOL0     C82922   1.846   6.068   4.628  0.0898  0.4156 -0.3380
  615MOL0     C82923   1.810   6.152   4.739 -0.3973  0.3533  0.0769
  615MOL0     C82924   1.673   6.188   4.764  0.4361 -0.5203 -0.4625
  615MOL0     C82925   1.575   6.156   4.669 -0.1674 -0.0289  0.2176
  615MOL0     O82926   1.450   6.203   4.700 -0.2592  0.1802 -0.2016
  615MOL0     C82927   1.335   6.184   4.614 -0.5694 -0.6769 -0.7606
  615MOL0     C82928   1.348   6.270   4.491 -0.0123 -0.4727 -0.0031
  615MOL0     C82929   1.336   6.412   4.535  0.8513  0.4860 -0.7912
  615MOL0     C82930   1.360   6.510   4.422 -0.3995 -0.0506 -0.2502
  615MOL0     C82931   1.248   6.525   4.318 -0.2329  0.3510 -0.3852
  615MOL0     C82932   1.119   6.568   4.376 -0.4347 -0.2335  0.0445
  615MOL0     C82933   1.008   6.553   4.272 -0.5056 -0.5462 -0.2993
  615MOL0     C82934   0.908   6.662   4.292 -0.2625  0.1766  0.3269
  615MOL0    Cl82935   0.760   6.660   4.184 -0.2016  0.5173  0.1733
  615MOL0     C82936   1.621   6.091   4.557 -0.0916  0.5362  0.7828
  615MOL0     C82937   1.750   6.043   4.532 -0.1929 -0.1505 -1.0264
  615MOL0     O82938   1.991   5.889   4.779 -0.0017 -0.2106 -0.1999
  615MOL0     C82939   2.226   5.931   4.531  0.2672 -0.7793  0.2329
  615MOL0     C82940   2.355   5.916   4.499 -0.3899 -0.7126  0.2393
  615MOL0     N82941   3.255   5.666   4.620  0.3548 -0.4081 -0.5815
  615MOL0     N82942   3.343   5.660   4.714 -0.4041  1.3907  0.3279
  615MOL0     C82943   4.283   5.659   4.996 -0.0888 -0.2421 -0.0282
  615MOL0     C82944   4.398   5.639   4.920 -0.0809  0.6677 -0.2040
  615MOL0     C82945   4.785   5.536   4.714  0.5059 -0.8421 -0.9920
  615MOL0     C82946   4.864   5.459   4.633 -0.1709 -0.0877 -0.0894
  615MOL0     C82947   4.950   5.511   4.539  0.4163  0.3137  0.3371
  615MOL0     C82948   4.974   5.648   4.530  0.7708 -0.2034 -1.3773
  615MOL0     O82949   5.072   5.686   4.441 -0.3149 -0.2433 -0.3328
  615MOL0     C82950   5.085   5.830   4.414 -0.3306 -0.5137  0.3086
  615MOL0     C82951   5.181   5.849   4.293 -0.1638  0.3634 -0.6798
  615MOL0     C82952   5.327   5.831   4.325 -0.7862  0.1954 -0.7132
  615MOL0     C82953   5.413   5.847   4.195  0.1032  0.2575  0.8219
  615MOL0     C82954   5.556   5.840   4.231  1.0074  1.2135  0.1494
  615MOL0     C82955   5.672   5.830   4.271  0.6236 -0.5353 -1.1432
  615MOL0     C82956   4.886   5.727   4.605  0.4996 -0.7150  0.3939
  615MOL0     C82957   4.795   5.675   4.700 -0.8711  0.0795  0.5520
  615MOL0     H82958   4.583   5.419   5.095  1.7773  1.5117 -0.9948
  615MOL0     H82959   4.366   5.437   5.252 -0.9625  0.4559  0.3009
  615MOL0     H82960   4.071   5.425   5.198  0.1241 -1.5650  1.6657
  615MOL0     H82961   4.145   5.493   5.347 -0.5202  2.2628  0.8200
  615MOL0     H82962   3.895   5.493   5.374 -3.2602  0.0500 -2.8574
  615MOL0     H82963   3.947   5.657   5.365 -3.6488  0.1761 -0.5677
  615MOL0     H82964   3.909   5.641   5.106  1.3241  0.2941  0.1486
  615MOL0     H82965   3.842   5.478   5.154 -0.4595 -0.2402 -0.9494
  615MOL0     H82966   3.690   5.658   5.316  0.1966  1.4279  0.7441
  615MOL0     H82967   3.760   5.772   5.206 -0.3544 -0.2905  0.2423
  615MOL0     H82968   3.643   5.674   5.008 -0.5176 -0.7954 -0.2114
  615MOL0     H82969   3.604   5.535   5.113 -0.9215 -1.2525  1.3376
  615MOL0     H82970   3.479   5.665   5.263 -2.2008  1.1348  0.5404
  615MOL0     H82971   3.498   5.819   5.179  0.9901 -1.1691  0.8102
  615MOL0     H82972   3.370   5.591   5.043  2.1855  0.4535 -1.7215
  615MOL0     H82973   3.293   5.724   5.114  0.3613  0.5031  0.4528
  615MOL0     H82974   3.502   5.735   4.885  0.3840  2.0586 -0.2041
  615MOL0     H82975   3.421   5.881   4.944 -1.2899 -0.1887  1.6049
  615MOL0     H82976   3.153   5.889   4.837  0.1698 -0.5608  0.1434
  615MOL0     H82977   3.063   5.873   4.517 -0.8837  2.0405  1.3428
  615MOL0     H82978   3.039   5.698   4.523  1.2700  0.6776 -0.4206
  615MOL0     H82979   2.930   5.926   4.709 -2.5066  0.0438  0.7309
  615MOL0     H82980   2.883   5.761   4.754 -0.1415 -0.1382 -0.1943
  615MOL0     H82981   2.785   5.747   4.509  2.4178 -0.7994 -0.0934
  615MOL0     H82982   2.828   5.910   4.485  1.0881 -0.0784  0.4610
  615MOL0     H82983   2.687   5.996   4.665 -1.2441 -0.3604  0.8914
  615MOL0     H82984   2.645   5.824   4.708 -2.7238  0.7950  0.1410
  615MOL0     H82985   2.492   5.958   4.810 -0.3753  0.7459 -0.1322
  615MOL0     H82986   2.347   6.067   4.944  0.2012 -1.3969  0.5156
  615MOL0     H82987   2.180   6.084   4.887 -0.5739 -0.1266  0.0916
  615MOL0     H82988   2.237   5.930   4.965 -0.2619 -1.0680 -1.1092
  615MOL0     H82989   1.884   6.176   4.815  0.0461  1.7692 -0.7673
  615MOL0     H82990   1.652   6.227   4.863  3.1463  0.5032 -0.2039
  615MOL0     H82991   1.325   6.078   4.587 -2.9980 -0.1396 -2.2000
  615MOL0     H82992   1.248   6.213   4.674 -0.0716  0.8155 -0.7232
  615MOL0     H82993   1.445   6.254   4.443 -1.6919 -0.3200 -3.7303
  615MOL0     H82994   1.273   6.245   4.416 -1.8162  0.6189  1.3395
  615MOL0     H82995   1.404   6.426   4.619 -0.9985 -1.8835  1.2602
  615MOL0     H82996   1.235   6.416   4.576  0.3230 -2.5004 -1.5378
  615MOL0     H82997   1.387   6.606   4.466  1.6219 -0.2719 -0.9155
  615MOL0     H82998   1.457   6.490   4.376 -0.5758  0.1917 -0.7446
  615MOL0     H82999   1.234   6.433   4.260  1.3211  0.2772 -0.6757
  615MOL0     H83000   1.289   6.592   4.242 -0.0604 -1.8921 -2.3733
  615MOL0     H83001   1.084   6.508   4.460 -0.2321 -2.5761 -1.4534
  615MOL0     H83002   1.124   6.676   4.394  0.8311 -0.0068 -1.3954
  615MOL0     H83003   0.959   6.455   4.274 -2.0862  0.1707 -1.9013
  615MOL0     H83004   1.052   6.569   4.174  1.0496 -2.2662  0.0522
  615MOL0     H83005   0.961   6.754   4.266  2.0518 -0.9271  0.9111
  615MOL0     H83006   0.870   6.683   4.393 -3.4771  0.3000 -0.7665
  615MOL0     H83007   1.547   6.076   4.479 -1.0489  0.9015  1.6084
  615MOL0     H83008   1.777   5.994   4.439  0.2224  0.7958 -1.4209
  615MOL0     H83009   2.150   5.924   4.453  0.7031  0.4939 -0.3436
  615MOL0     H83010   2.382   5.883   4.399 -0.4946 -0.8965  0.2702
  615MOL0     H83011   4.205   5.732   4.973  3.3384  4.2643  1.1260
  615MOL0     H83012   4.404   5.682   4.821  0.8018 -0.6670 -0.7548
  615MOL0     H83013   4.855   5.351   4.645 -3.2949 -0.0227 -1.0060
  615MOL0     H83014   5.018   5.444   4.487 -0.0273 -0.7777  1.1263
  615MOL0     H83015   4.987   5.868   4.385 -0.2138 -0.2296  0.2763
  615MOL0     H83016   5.123   5.874   4.506 -1.7576 -0.3829  0.8518
  615MOL0     H83017   5.161   5.943   4.242 -0.9777 -1.0130 -3.1067
  615MOL0     H83018   5.157   5.762   4.230  1.7607  0.6149 -1.8607
  615MOL0     H83019   5.355   5.734   4.369  2.9367  1.0378 -0.9498
  615MOL0     H83020   5.349   5.912   4.395 -1.0990 -0.5178  0.2301
  615MOL0     H83021   5.395   5.943   4.146  0.4635  1.2061  2.4400
  615MOL0     H83022   5.390   5.767   4.125 -0.6709  1.5369 -0.4158
  615MOL0     H83023   5.773   5.822   4.305  0.1880 -0.1200  0.3132
  615MOL0     H83024   4.905   5.834   4.605  2.8066 -1.0499 -1.2840
  615MOL0     H83025   4.738   5.755   4.747 -0.6513  3.1688 -3.8493
  616MOL0     O83026   3.473   7.174  10.087  0.1604  0.4659  0.4589
  616MOL0     C83027   3.565   7.102  10.128 -0.2190  0.7077  0.2262
  616MOL0     O83028   3.554   6.994  10.215  0.0229 -0.5787 -1.0609
  616MOL0     C83029   3.437   7.003  10.287 -0.0378 -0.4315 -0.6091
  616MOL0     C83030   3.435   7.058  10.424 -0.0331 -0.6303  0.9882
  616MOL0     C83031   3.314   7.049  10.499 -0.7719  0.7838  0.3199
  616MOL0     C83032   3.197   6.994  10.445  0.2489 -0.3503 -0.0827
  616MOL0     O83033   3.083   6.994  10.528 -0.0755 -0.3455  0.7088
  616MOL0     C83034   3.086   6.910  10.646 -0.3835  0.0006  0.4792
  616MOL0     C83035   3.062   6.767  10.613 -0.3680 -0.1761 -0.8801
  616MOL0     C83036   2.916   6.737  10.590 -1.1016  0.5880 -0.2178
  616MOL0     C83037   2.892   6.578  10.586 -0.1277 -1.3191 -0.2733
  616MOL0     C83038   2.748   6.549  10.548  0.3602 -0.1001 -0.2002
  616MOL0     C83039   2.733   6.400  10.512  0.2623 -0.2076  0.3065
  616MOL0     C83040   2.576   6.351  10.520 -0.5781  0.1537 -1.2376
  616MOL0     C83041   2.498   6.415  10.407  0.2457  0.3249 -0.2501
  616MOL0     N83042   2.353   6.391  10.410  0.0298  0.2916  0.2971
  616MOL0     C83043   2.257   6.484  10.441 -0.2844 -0.0799 -0.4775
  616MOL0     C83044   2.137   6.424  10.427  0.4945 -0.5401 -0.3375
  616MOL0     C83045   2.007   6.496  10.426 -0.7078  0.3914  0.1766
  616MOL0     C83046   1.894   6.423  10.354  0.5512 -0.2695  0.1920
  616MOL0     C83047   1.755   6.490  10.373 -0.0136 -0.8333 -0.6934
  616MOL0     C83048   1.682   6.449  10.512  0.0922 -0.3720  0.7404
  616MOL0     O83049   1.643   6.315  10.495 -0.6090 -0.4362 -0.7162
  616MOL0     C83050   1.531   6.290  10.426 -0.1758  0.1015  0.2490
  616MOL0     C83051   1.508   6.163  10.398 -0.4173  0.0894 -0.0254
  616MOL0     C83052   1.408   6.115  10.318 -0.2803  0.9065 -0.4131
  616MOL0     C83053   1.412   5.969  10.286  0.4938 -0.9275 -0.5755
  616MOL0     C83054   1.311   6.206  10.269 -0.4928  0.1463  0.6432
  616MOL0     C83055   1.202   6.179  10.168  0.5813 -1.0159 -0.4188
  616MOL0     O83056   1.100   6.264  10.159  0.1687 -0.5813 -0.2642
  616MOL0     C83057   0.998   6.254  10.071 -0.2798 -0.0478  0.0319
  616MOL0     C83058   0.965   6.355   9.981  0.2320  0.3101  0.8443
  616MOL0     C83059   0.863   6.337   9.883 -0.0540 -0.2438  0.2116
  616MOL0     C83060   0.793   6.218   9.875  0.6934 -0.2036  0.0356
  616MOL0     O83061   0.707   6.209   9.779  0.2965 -0.1324 -0.2092
  616MOL0     C83062   0.574   6.154   9.798 -0.7659  0.2361  0.2495
  616MOL0     C83063   0.462   6.248   9.740  0.7756 -0.0446 -0.2157
  616MOL0     C83064   0.480   6.399   9.780  0.3218  0.2964  0.5722
  616MOL0     C83065   0.467   6.428   9.932 -0.0631 -0.3779  0.0068
  616MOL0     C83066   0.481   6.576   9.967 -0.0584 -0.0696  0.1560
  616MOL0     C83067   0.345   6.645   9.935 -0.1248 -0.0247 -0.1658
  616MOL0     C83068   0.372   6.794   9.909 -0.0753  0.3118 -0.6802
  616MOL0     C83069   0.236   6.864   9.921 -0.3259 -0.2529 -0.5621
  616MOL0    Cl83070   0.143   6.803   9.783 -0.2110  0.0334  0.0102
  616MOL0     C83071   0.820   6.118   9.969 -0.6920 -0.6988 -0.3862
  616MOL0     C83072   0.923   6.138  10.064 -0.0924  0.3584 -0.4205
  616MOL0     O83073   1.207   6.079  10.103 -0.8187 -0.1533  0.1733
  616MOL0     C83074   1.326   6.344  10.305 -0.2500  0.0440 -0.3359
  616MOL0     C83075   1.430   6.386  10.389 -0.1360  0.5148  0.6382
  616MOL0     N83076   2.162   6.293  10.402  0.1660  0.8799  0.4621
  616MOL0     N83077   2.288   6.274  10.394  0.5279  0.1413  0.6074
  616MOL0     C83078   3.198   6.951  10.313 -0.0617 -0.5679 -0.3438
  616MOL0     C83079   3.316   6.951  10.236  0.7454 -0.8834  0.7330
  616MOL0     C83080   3.710   7.136  10.093  0.2411  0.3055 -0.2101
  616MOL0     C83081   3.744   7.242  10.008 -0.3819 -0.2840  0.2896
  616MOL0     C83082   3.879   7.247   9.967  0.5664 -1.1611 -0.3893
  616MOL0     C83083   3.981   7.172  10.020 -0.6494  0.5564  1.0173
  616MOL0     O83084   4.118   7.189   9.998 -0.5243  0.1605 -0.0477
  616MOL0     C83085   4.169   7.287   9.902 -0.3624  0.1030 -1.1055
  616MOL0     C83086   4.158   7.428   9.956 -0.0302 -0.1522  0.6645
  616MOL0     C83087   4.293   7.492   9.975  0.5513 -0.5821  0.7216
  616MOL0     C83088   4.285   7.645  10.013  0.4288  0.6798 -0.4425
  616MOL0     C83089   4.292   7.666  10.162  0.2939  0.2864  0.6738
  616MOL0     C83090   4.288   7.678  10.283 -0.2537  0.7358  0.3952
  616MOL0     C83091   3.948   7.074  10.110  0.2036  0.4573 -0.0112
  616MOL0     C83092   3.817   7.053  10.149  0.8723 -0.1067  0.9794
  616MOL0     H83093   3.526   7.098  10.468  0.6719  0.2238 -1.0959
  616MOL0     H83094   3.305   7.092  10.598  1.9729  0.3018  0.8451
  616MOL0     H83095   3.177   6.920  10.705  0.5378 -0.4528 -0.8116
  616MOL0     H83096   3.001   6.942  10.706 -3.3631  2.6994 -4.4858
  616MOL0     H83097   3.122   6.729  10.530  1.2458  1.5485 -0.5704
  616MOL0     H83098   3.093   6.707  10.700  2.0578 -0.5721 -1.9481
  616MOL0     H83099   2.852   6.777  10.670 -0.4352 -2.3284  1.9597
  616MOL0     H83100   2.894   6.774  10.490  1.4140  1.0540 -0.6433
  616MOL0     H83101   2.957   6.528  10.514  1.8459 -3.5118  2.8039
  616MOL0     H83102   2.926   6.543  10.684  2.9322 -1.5289 -1.3046
  616MOL0     H83103   2.687   6.572  10.636  0.1877  0.6622 -0.5100
  616MOL0     H83104   2.719   6.620  10.470 -1.8909  2.2445  2.5694
  616MOL0     H83105   2.783   6.375  10.418 -0.1644 -0.6842  0.2024
  616MOL0     H83106   2.792   6.342  10.584  3.0144  0.5667 -1.1776
  616MOL0     H83107   2.570   6.243  10.512 -0.6829  0.0434  0.1061
  616MOL0     H83108   2.538   6.370  10.621  1.5411  1.1835 -0.5621
  616MOL0     H83109   2.540   6.363  10.320  1.8307  0.6855  0.2559
  616MOL0     H83110   2.529   6.519  10.395  1.0250  0.5750  2.9992
  616MOL0     H83111   2.282   6.587  10.467  0.3314 -0.4810  0.6065
  616MOL0     H83112   1.979   6.511  10.531 -0.0354  1.4560  0.2164
  616MOL0     H83113   2.021   6.596  10.384  0.4186 -0.0524 -0.5433
  616MOL0     H83114   1.882   6.322  10.395  0.9259 -0.5455 -0.3617
  616MOL0     H83115   1.926   6.404  10.251  1.5050 -3.2444  0.9222
  616MOL0     H83116   1.693   6.467  10.285  1.2010 -0.6511 -1.6141
  616MOL0     H83117   1.764   6.599  10.373  2.1676 -0.8747  2.6598
  616MOL0     H83118   1.599   6.519  10.526 -0.6177 -0.4762 -2.2585
  616MOL0     H83119   1.744   6.458  10.602  1.0871  1.1222 -0.0469
  616MOL0     H83120   1.589   6.095  10.422  0.2107  0.2650 -1.5017
  616MOL0     H83121   1.443   5.965  10.180 -0.7106  2.8946 -1.2030
  616MOL0     H83122   1.476   5.909  10.351  1.5488 -0.2152 -0.9227
  616MOL0     H83123   1.314   5.928  10.313  0.7758 -1.0225  0.3235
  616MOL0     H83124   1.019   6.449   9.982  1.6992 -0.4838  2.1094
  616MOL0     H83125   0.839   6.413   9.809  0.4035  0.6828  1.0036
  616MOL0     H83126   0.564   6.054   9.753  0.7433  0.7016 -1.2125
  616MOL0     H83127   0.552   6.147   9.905  1.1875  1.6167  0.7964
  616MOL0     H83128   0.454   6.241   9.631 -2.5225 -1.3598 -0.0132
  616MOL0     H83129   0.367   6.213   9.782  1.7442 -1.2818  1.0269
  616MOL0     H83130   0.396   6.450   9.732  0.3552 -0.3037 -0.1514
  616MOL0     H83131   0.579   6.427   9.741  0.3074  1.2572  1.2014
  616MOL0     H83132   0.380   6.373   9.968 -0.2239 -3.1011 -3.8662
  616MOL0     H83133   0.559   6.384   9.971  1.1491  0.8637 -1.3152
  616MOL0     H83134   0.561   6.618   9.905  0.8561 -2.5230 -0.4069
  616MOL0     H83135   0.501   6.598  10.072  1.1322 -0.1931 -0.0378
  616MOL0     H83136   0.305   6.599   9.845  0.5665 -0.3266 -0.3283
  616MOL0     H83137   0.278   6.642  10.022  1.6884  1.9335  1.4398
  616MOL0     H83138   0.410   6.810   9.808  1.5819 -1.4202 -0.3724
  616MOL0     H83139   0.438   6.830   9.988 -0.0953 -0.8606 -0.1112
  616MOL0     H83140   0.247   6.972   9.912 -0.5913 -0.1383  0.3538
  616MOL0     H83141   0.185   6.859  10.018 -3.2660  3.9915 -1.6337
  616MOL0     H83142   0.758   6.028   9.965 -0.7287 -0.8571  2.1405
  616MOL0     H83143   0.950   6.063  10.138  0.0463 -0.5720 -1.3935
  616MOL0     H83144   1.252   6.417  10.274 -1.5604 -0.9693  0.3232
  616MOL0     H83145   1.449   6.491  10.406  0.1164  0.5156  0.3457
  616MOL0     H83146   3.113   6.920  10.254 -0.6839  0.5651 -0.0674
  616MOL0     H83147   3.306   6.907  10.137 -1.8232 -0.7410  0.8576
  616MOL0     H83148   3.677   7.311   9.958 -0.9732 -1.0165  0.0500
  616MOL0     H83149   3.906   7.332   9.904  0.6555 -0.6596  0.3196
  616MOL0     H83150   4.271   7.253   9.880 -0.2559  0.0297 -0.5267
  616MOL0     H83151   4.128   7.280   9.801  1.5414 -2.7658 -1.8068
  616MOL0     H83152   4.102   7.441  10.049  0.1095  1.8498  0.5147
  616MOL0     H83153   4.106   7.490   9.882  2.2324  1.6820  0.5109
  616MOL0     H83154   4.335   7.496   9.874  0.9172 -1.6938  0.8244
  616MOL0     H83155   4.363   7.440  10.041  1.0338  0.8639  1.4030
  616MOL0     H83156   4.191   7.686   9.974 -0.5497 -1.3630 -0.3707
  616MOL0     H83157   4.373   7.698   9.975  0.0398  1.6168 -0.0604
  616MOL0     H83158   4.295   7.695  10.388  1.6999 -0.4825  0.5109
  616MOL0     H83159   4.023   7.004  10.145  0.5981  1.2251  0.7110
  616MOL0     H83160   3.795   6.960  10.201  0.1189 -0.6344 -0.2247
  617MOL0     O83161   6.696  10.461   5.482  0.1934  0.4699  0.6428
  617MOL0     C83162   6.719  10.576   5.454  1.4854 -0.1480  0.0616
  617MOL0     O83163   6.627  10.670   5.446  0.4213  0.1481  0.1413
  617MOL0     C83164   6.495  10.656   5.467  0.7976 -0.2318  0.9895
  617MOL0     C83165   6.422  10.551   5.518  0.2474  0.0804  0.3370
  617MOL0     C83166   6.280  10.540   5.527 -1.0259  0.1868  1.3741
  617MOL0     C83167   6.206  10.654   5.489  0.0082 -0.5387 -0.1998
  617MOL0     O83168   6.071  10.661   5.508  0.3767  0.4792  0.1880
  617MOL0     C83169   6.002  10.561   5.577 -0.0627 -0.2927  1.3752
  617MOL0     C83170   5.870  10.619   5.605 -0.5782 -0.0524  0.4007
  617MOL0     C83171   5.873  10.730   5.710  0.5920  0.1910  0.5429
  617MOL0     C83172   5.740  10.818   5.681 -0.3259 -0.0287 -0.1944
  617MOL0     C83173   5.723  10.934   5.786  0.9358  0.5258  0.5084
  617MOL0     C83174   5.714  10.894   5.941 -0.6147 -0.1967  1.2569
  617MOL0     C83175   5.633  10.775   5.987 -0.6011 -0.2480 -0.0496
  617MOL0     C83176   5.500  10.828   6.046 -0.4968  0.5110 -0.0546
  617MOL0     N83177   5.385  10.738   6.045 -0.3121 -0.4074  0.4415
  617MOL0     C83178   5.344  10.672   6.152 -0.5979  0.6732 -0.6650
  617MOL0     C83179   5.231  10.615   6.121 -0.2337  0.3184  0.6342
  617MOL0     C83180   5.131  10.555   6.218  0.6640 -0.5401  0.9148
  617MOL0     C83181   5.054  10.670   6.282 -0.0124 -0.5955  0.7670
  617MOL0     C83182   4.930  10.613   6.362 -0.4148 -0.1170  0.2598
  617MOL0     C83183   4.798  10.614   6.287  0.0407 -0.3675 -0.2762
  617MOL0     O83184   4.702  10.567   6.375  0.0510 -0.0582  0.0514
  617MOL0     C83185   4.573  10.596   6.364 -0.3487 -0.2444  0.0328
  617MOL0     C83186   4.495  10.525   6.276 -0.2365 -0.6833  0.4601
  617MOL0     C83187   4.353  10.548   6.263 -0.8716  0.6837  0.0440
  617MOL0     C83188   4.283  10.436   6.192 -0.4456  0.4607 -0.5604
  617MOL0     C83189   4.297  10.660   6.332 -0.0342 -0.4953 -0.4288
  617MOL0     C83190   4.150  10.701   6.329 -0.4309  0.6524  0.1510
  617MOL0     O83191   4.109  10.795   6.409  0.4501 -0.1472  0.5138
  617MOL0     C83192   3.993  10.858   6.393  0.6101  0.3495  0.0516
  617MOL0     C83193   3.929  10.884   6.271  0.3252  0.2656  0.2240
  617MOL0     C83194   3.808  10.953   6.268  0.1714  0.1081 -0.5286
  617MOL0     C83195   3.758  11.013   6.388 -1.0165  0.0634  0.5156
  617MOL0     O83196   3.663  11.103   6.362 -0.9483 -0.4125  0.1269
  617MOL0     C83197   3.626  11.200   6.456 -0.4108  0.7763 -0.1412
  617MOL0     C83198   3.508  11.140   6.544 -0.1860  0.6237  0.4354
  617MOL0     C83199   3.394  11.067   6.481 -0.0403 -0.1393 -0.3745
  617MOL0     C83200   3.274  11.048   6.567  0.1233 -1.2525  0.4101
  617MOL0     C83201   3.142  11.021   6.492  0.3137 -0.7362  0.3051
  617MOL0     C83202   3.096  11.156   6.442 -0.5985  0.2274 -1.0538
  617MOL0     C83203   2.950  11.157   6.418  0.9094  0.5519 -0.8467
  617MOL0     C83204   2.903  11.307   6.414  0.2075 -0.1519  0.9147
  617MOL0    Cl83205   2.721  11.332   6.404  0.4317 -0.1454 -0.2924
  617MOL0     C83206   3.826  10.987   6.512 -0.4023  0.0044 -0.7216
  617MOL0     C83207   3.942  10.906   6.516 -0.5419 -0.1505  0.4014
  617MOL0     O83208   4.079  10.635   6.256  0.0833 -0.3324  0.3389
  617MOL0     C83209   4.384  10.734   6.408  0.3228  0.3999 -0.3901
  617MOL0     C83210   4.520  10.705   6.421 -0.3565  0.1503 -0.1520
  617MOL0     N83211   5.198  10.653   5.991  0.6761  1.3157  0.1633
  617MOL0     N83212   5.294  10.719   5.943 -0.4674 -1.1210  0.3420
  617MOL0     C83213   6.275  10.769   5.453  0.1778 -0.1831  0.2509
  617MOL0     C83214   6.410  10.767   5.442 -0.1465 -0.0864  0.7417
  617MOL0     C83215   6.851  10.621   5.419 -0.3883  0.5414  0.5799
  617MOL0     C83216   6.875  10.740   5.351  1.7520  0.4536 -0.4089
  617MOL0     C83217   7.003  10.785   5.339  0.1070 -0.3882 -0.4336
  617MOL0     C83218   7.118  10.710   5.383  1.0546 -0.4693 -0.3836
  617MOL0     O83219   7.244  10.775   5.372 -0.0693 -0.0503  1.2173
  617MOL0     C83220   7.363  10.699   5.389  0.6393  0.2847  0.1303
  617MOL0     C83221   7.392  10.574   5.282  0.5885 -0.9831 -0.0380
  617MOL0     C83222   7.369  10.630   5.141 -0.4551 -0.7013  0.6550
  617MOL0     C83223   7.382  10.523   5.039  0.4321  1.4431  0.3349
  617MOL0     C83224   7.342  10.558   4.899 -0.4347  0.1471  0.4594
  617MOL0     C83225   7.334  10.592   4.789  0.2207 -0.6591  0.2795
  617MOL0     C83226   7.091  10.584   5.435 -0.4467 -0.1112  0.1138
  617MOL0     C83227   6.965  10.543   5.461 -1.2453  0.1757 -0.3423
  617MOL0     H83228   6.463  10.453   5.541  0.3601 -0.7380 -2.8321
  617MOL0     H83229   6.243  10.444   5.561  0.4197 -0.2992  1.6733
  617MOL0     H83230   6.008  10.472   5.513  0.4775  2.0232 -2.0592
  617MOL0     H83231   6.048  10.526   5.670 -0.1914  0.3023  1.6691
  617MOL0     H83232   5.840  10.662   5.509  0.8927  0.0219 -0.0491
  617MOL0     H83233   5.806  10.535   5.634  1.5364 -1.4940  1.0682
  617MOL0     H83234   5.869  10.683   5.808 -0.6145 -1.0370 -0.0625
  617MOL0     H83235   5.962  10.790   5.690 -0.7487  2.4734  1.0605
  617MOL0     H83236   5.736  10.859   5.580  1.2595 -1.9692 -1.1071
  617MOL0     H83237   5.657  10.747   5.685  0.5507 -1.3817 -3.2192
  617MOL0     H83238   5.813  10.995   5.773  1.6160 -0.3973  0.7518
  617MOL0     H83239   5.629  10.984   5.759 -0.5459 -1.0522  2.4053
  617MOL0     H83240   5.817  10.868   5.966 -0.9755 -1.0192  1.9145
  617MOL0     H83241   5.697  10.985   5.999 -0.2765  1.3708 -0.9732
  617MOL0     H83242   5.624  10.705   5.903 -2.1488 -1.7143  1.2640
  617MOL0     H83243   5.686  10.707   6.054  0.2929 -1.0712 -1.5349
  617MOL0     H83244   5.477  10.914   5.983  2.0761 -0.0598 -1.9138
  617MOL0     H83245   5.510  10.857   6.151  1.9661  0.4157 -0.2201
  617MOL0     H83246   5.389  10.667   6.250  1.2279 -1.4314 -1.5262
  617MOL0     H83247   5.071  10.472   6.180 -0.6082  0.2235  1.1895
  617MOL0     H83248   5.176  10.498   6.300 -0.5535  0.1375  2.1063
  617MOL0     H83249   5.023  10.742   6.206 -1.7467 -1.7623  0.2889
  617MOL0     H83250   5.117  10.723   6.354 -0.5813  3.2497 -1.3252
  617MOL0     H83251   4.913  10.674   6.451  0.0034  0.5725 -0.1261
  617MOL0     H83252   4.968  10.517   6.400  1.4273 -0.0476 -1.2646
  617MOL0     H83253   4.804  10.542   6.205 -1.1740  2.2001 -2.7528
  617MOL0     H83254   4.785  10.709   6.235  2.5005 -0.9327 -2.0407
  617MOL0     H83255   4.539  10.445   6.217 -0.1939 -2.8041  3.1765
  617MOL0     H83256   4.234  10.470   6.101 -1.2316  1.4022  0.1797
  617MOL0     H83257   4.353  10.355   6.174  1.0346  0.8549  2.6095
  617MOL0     H83258   4.201  10.395   6.252  0.9625 -3.2061 -0.9122
  617MOL0     H83259   3.968  10.844   6.178  0.3112 -0.3394  0.4698
  617MOL0     H83260   3.755  10.971   6.175  2.2103 -1.0401 -1.9947
  617MOL0     H83261   3.711  11.228   6.519 -1.1239  2.3622  0.1576
  617MOL0     H83262   3.586  11.292   6.413 -3.5824  0.7896  2.4677
  617MOL0     H83263   3.550  11.071   6.618  1.0520  0.0259 -0.7694
  617MOL0     H83264   3.475  11.226   6.603  0.5392  0.1718  1.5351
  617MOL0     H83265   3.432  10.976   6.434 -0.9344  0.0359 -1.4957
  617MOL0     H83266   3.365  11.127   6.394  1.5189  1.2199 -0.0193
  617MOL0     H83267   3.294  10.957   6.624  0.7632 -1.2637  0.1784
  617MOL0     H83268   3.262  11.130   6.639 -2.0310 -1.2954  0.1556
  617MOL0     H83269   3.065  10.979   6.558 -0.0192  2.3188  2.0793
  617MOL0     H83270   3.159  10.943   6.417 -0.0292 -0.1067 -0.4494
  617MOL0     H83271   3.110  11.227   6.525  3.4314 -2.0129  0.4367
  617MOL0     H83272   3.141  11.191   6.349 -2.2143  0.4508 -1.7961
  617MOL0     H83273   2.901  11.106   6.502 -0.9524  2.1027 -0.9188
  617MOL0     H83274   2.925  11.099   6.328 -3.1783  0.2486  0.2691
  617MOL0     H83275   2.956  11.349   6.329 -1.3955  1.5440  0.6929
  617MOL0     H83276   2.934  11.361   6.504  2.9638  4.5744 -2.4638
  617MOL0     H83277   3.791  11.025   6.607  0.9264 -0.9225  0.1887
  617MOL0     H83278   4.002  10.901   6.606 -0.1849  0.6220  0.2126
  617MOL0     H83279   4.341  10.814   6.467  1.1420  1.3146 -1.0129
  617MOL0     H83280   4.589  10.770   6.474 -0.5047  0.6098 -0.5128
  617MOL0     H83281   6.225  10.864   5.436  1.5047  0.3279 -1.0325
  617MOL0     H83282   6.450  10.865   5.418 -1.0984  0.0273 -0.4419
  617MOL0     H83283   6.800  10.811   5.317  0.6895 -0.1882  0.5113
  617MOL0     H83284   7.019  10.870   5.273  1.6667 -2.0521 -2.3653
  617MOL0     H83285   7.448  10.767   5.396  0.4221  0.7306 -1.2820
  617MOL0     H83286   7.370  10.661   5.492 -2.4113  1.9333  1.0732
  617MOL0     H83287   7.317  10.496   5.301 -0.2683  0.2432  1.9064
  617MOL0     H83288   7.493  10.533   5.280  0.6152 -0.9147 -0.0659
  617MOL0     H83289   7.435  10.713   5.114  1.1715 -2.1748 -0.1431
  617MOL0     H83290   7.269  10.674   5.132  0.1715  1.0016  1.5256
  617MOL0     H83291   7.315  10.441   5.066 -0.3748  1.8233 -0.4326
  617MOL0     H83292   7.484  10.484   5.039 -0.3069 -0.8976 -2.8063
  617MOL0     H83293   7.313  10.632   4.692 -3.6381  1.2364  1.7025
  617MOL0     H83294   7.174  10.520   5.463  0.0404 -0.4933 -1.9930
  617MOL0     H83295   6.952  10.449   5.512 -0.8540 -0.0657 -0.6848
  618MOL0     O83296   3.918  11.258   2.296  0.0522  0.3335 -0.3009
  618MOL0     C83297   4.021  11.309   2.329 -0.5405  0.1288 -0.8894
  618MOL0     O83298   4.036  11.399   2.425  0.6652 -0.4315 -0.0202
  618MOL0     C83299   3.941  11.451   2.500  0.9929 -0.3987  0.1566
  618MOL0     C83300   3.800  11.427   2.504  0.0251 -0.3140 -0.0504
  618MOL0     C83301   3.716  11.493   2.595  0.5481  0.3462  1.5128
  618MOL0     C83302   3.759  11.579   2.688 -0.3237  0.2790  0.0893
  618MOL0     O83303   3.684  11.653   2.783  0.0848  0.2227  0.3884
  618MOL0     C83304   3.540  11.620   2.775  0.4476  0.2738  0.1823
  618MOL0     C83305   3.466  11.672   2.900 -0.7905 -0.0931 -0.1873
  618MOL0     C83306   3.429  11.824   2.900 -0.2305 -0.1009 -0.8047
  618MOL0     C83307   3.362  11.872   2.775  0.4881  0.6995  0.2406
  618MOL0     C83308   3.290  12.006   2.796 -0.1690  0.3139  0.6518
  618MOL0     C83309   3.138  11.985   2.785 -0.8148 -0.0314 -1.1390
  618MOL0     C83310   3.076  11.897   2.894  0.2511  0.8069  0.6621
  618MOL0     C83311   2.922  11.934   2.909 -0.2334 -1.1499 -0.3452
  618MOL0     N83312   2.856  11.840   2.999 -0.4170  0.1395 -0.4531
  618MOL0     C83313   2.899  11.829   3.131 -0.4049  0.2535 -0.0387
  618MOL0     C83314   2.837  11.720   3.175  0.2587  0.3148  0.2659
  618MOL0     C83315   2.829  11.655   3.313 -0.1753 -0.2692  0.0685
  618MOL0     C83316   2.849  11.505   3.316 -0.6523 -0.4005  0.4120
  618MOL0     C83317   2.856  11.454   3.458  0.3208 -0.6579 -0.0366
  618MOL0     C83318   2.872  11.301   3.477  0.0541  0.4858  0.7800
  618MOL0     O83319   2.884  11.271   3.616 -0.5237  0.9413 -0.3679
  618MOL0     C83320   2.908  11.141   3.657 -0.7884 -1.0265  0.7838
  618MOL0     C83321   2.953  11.030   3.576 -0.8034 -0.1275 -0.2626
  618MOL0     C83322   2.991  10.904   3.637  0.3315  0.3804  0.1143
  618MOL0     C83323   3.069  10.820   3.541 -0.1256 -0.5757 -0.5290
  618MOL0     C83324   2.962  10.880   3.775  0.4454 -0.0437  0.1644
  618MOL0     C83325   2.969  10.754   3.842  0.9138  0.7460 -0.4685
  618MOL0     O83326   2.958  10.754   3.977  0.0276 -0.5746 -0.5485
  618MOL0     C83327   2.978  10.634   4.041 -0.9423  0.6744 -0.1068
  618MOL0     C83328   2.876  10.586   4.120 -0.0767  0.4012  0.0897
  618MOL0     C83329   2.890  10.464   4.184  0.3284  0.3605 -0.3462
  618MOL0     C83330   3.006  10.388   4.179 -0.2391 -0.9249 -0.2632
  618MOL0     O83331   3.005  10.270   4.259  0.6096  0.2061 -0.2624
  618MOL0     C83332   3.129  10.202   4.265  0.5359 -0.0377  0.7145
  618MOL0     C83333   3.204  10.295   4.358  0.2287  0.3599  1.1339
  618MOL0     C83334   3.340  10.225   4.382  0.9082 -0.4974 -0.2327
  618MOL0     C83335   3.435  10.230   4.258  0.4564 -0.2030  0.3536
  618MOL0     C83336   3.576  10.210   4.305  0.4749 -0.8662 -1.1026
  618MOL0     C83337   3.667  10.161   4.196 -0.5773 -0.4118 -0.2753
  618MOL0     C83338   3.819  10.172   4.226 -0.0107 -0.2905 -1.0348
  618MOL0     C83339   3.903  10.159   4.100 -0.3352 -0.0063 -0.3782
  618MOL0    Cl83340   4.071  10.188   4.145  0.0799 -0.0969  0.0098
  618MOL0     C83341   3.113  10.442   4.104 -0.7331  0.7315  0.1555
  618MOL0     C83342   3.109  10.564   4.034  0.3583  1.0339 -0.0643
  618MOL0     O83343   2.993  10.657   3.769 -0.7322  0.4844 -0.1844
  618MOL0     C83344   2.927  10.992   3.845 -1.3263 -0.1404  0.2540
  618MOL0     C83345   2.909  11.119   3.791 -0.9494 -0.2840 -0.4560
  618MOL0     N83346   2.747  11.676   3.078  0.4468  0.1518 -0.2352
  618MOL0     N83347   2.759  11.750   2.970  0.2994  0.1256 -0.1588
  618MOL0     C83348   3.899  11.609   2.685 -0.2771  0.7677  0.2534
  618MOL0     C83349   3.987  11.539   2.604 -0.5523  0.2064  0.2734
  618MOL0     C83350   4.149  11.248   2.281 -0.0135  0.4462 -0.3526
  618MOL0     C83351   4.270  11.321   2.303  0.0651  0.8715 -0.0873
  618MOL0     C83352   4.390  11.269   2.256 -0.5806  0.7219 -0.6873
  618MOL0     C83353   4.396  11.146   2.186 -0.6457  0.0571 -0.4290
  618MOL0     O83354   4.519  11.102   2.151 -0.1809  0.1995 -0.1680
  618MOL0     C83355   4.538  11.086   2.009 -0.1805 -0.6729 -0.2269
  618MOL0     C83356   4.684  11.060   1.981 -0.7793 -0.0845  0.8512
  618MOL0     C83357   4.708  11.067   1.831  0.2733 -0.4742 -0.3781
  618MOL0     C83358   4.799  10.950   1.793  0.0377  0.2146  0.2948
  618MOL0     C83359   4.939  10.976   1.822 -0.5022  0.9674 -0.1034
  618MOL0     C83360   5.047  10.996   1.865 -0.2439  0.1193  0.1018
  618MOL0     C83361   4.278  11.067   2.170  1.0916  0.3647  0.0598
  618MOL0     C83362   4.149  11.117   2.218 -0.2012 -0.2041 -0.2536
  618MOL0     H83363   3.756  11.356   2.435 -2.6782 -1.4384  2.6053
  618MOL0     H83364   3.610  11.473   2.585  0.5203  0.6552  1.1181
  618MOL0     H83365   3.486  11.662   2.690  0.1570  2.2566  1.2639
  618MOL0     H83366   3.526  11.512   2.766 -4.0215  0.5780  1.0154
  618MOL0     H83367   3.373  11.616   2.918 -2.2008  1.2636 -2.6087
  618MOL0     H83368   3.534  11.651   2.982 -1.3591  1.0153  0.6062
  618MOL0     H83369   3.380  11.850   2.995  0.3837 -1.6062 -0.0338
  618MOL0     H83370   3.527  11.873   2.903  0.9982 -2.4573 -0.4135
  618MOL0     H83371   3.441  11.885   2.700  0.3805  1.3786  0.2356
  618MOL0     H83372   3.294  11.800   2.728  0.7618  0.8293 -0.3614
  618MOL0     H83373   3.308  12.034   2.900  2.7209 -1.2796  0.6813
  618MOL0     H83374   3.313  12.075   2.714 -1.6905  0.6827  0.4957
  618MOL0     H83375   3.099  12.086   2.804  0.7687  0.1053  1.9227
  618MOL0     H83376   3.112  11.947   2.686 -3.2934 -1.2533 -0.1100
  618MOL0     H83377   3.073  11.794   2.859 -2.4514 -0.3385  3.8287
  618MOL0     H83378   3.128  11.911   2.989  0.3898 -1.3596  0.9475
  618MOL0     H83379   2.880  11.944   2.808 -1.7650  0.1308  0.3789
  618MOL0     H83380   2.918  12.031   2.960  1.0912 -1.5186  0.5141
  618MOL0     H83381   2.972  11.894   3.179 -0.2855  0.3139 -0.2991
  618MOL0     H83382   2.908  11.699   3.374 -0.1304  1.3776 -1.1265
  618MOL0     H83383   2.730  11.674   3.355  0.4346 -1.9255  2.4721
  618MOL0     H83384   2.939  11.485   3.255 -1.0513  2.3634 -1.2358
  618MOL0     H83385   2.764  11.465   3.260 -0.7233  0.5987 -0.2179
  618MOL0     H83386   2.773  11.489   3.519  0.3068 -1.5372  0.4644
  618MOL0     H83387   2.947  11.505   3.491  0.6469 -0.1049 -1.6971
  618MOL0     H83388   2.950  11.274   3.405 -2.2047  0.1388 -1.6975
  618MOL0     H83389   2.785  11.246   3.440 -1.0945  3.5270 -1.3976
  618MOL0     H83390   2.954  11.034   3.468  0.6403 -0.4932 -0.2820
  618MOL0     H83391   3.109  10.726   3.580 -0.7394 -1.2908 -1.5919
  618MOL0     H83392   3.000  10.794   3.460  1.9990  0.1863 -2.7052
  618MOL0     H83393   3.157  10.877   3.510  0.3157 -0.5921  0.6254
  618MOL0     H83394   2.787  10.648   4.129  0.8534  2.1806 -1.9790
  618MOL0     H83395   2.811  10.418   4.242  1.1233 -2.4173 -1.2924
  618MOL0     H83396   3.109  10.102   4.303 -4.5669  0.3716 -0.1334
  618MOL0     H83397   3.187  10.183   4.175  3.0590 -0.9050  2.4386
  618MOL0     H83398   3.235  10.391   4.315 -2.1033  0.5236 -0.3572
  618MOL0     H83399   3.139  10.305   4.445 -1.8375 -0.5142 -0.2379
  618MOL0     H83400   3.326  10.119   4.406  1.4830 -1.0462 -2.1218
  618MOL0     H83401   3.387  10.278   4.465  2.3803 -2.8747  0.5483
  618MOL0     H83402   3.404  10.157   4.183 -2.9641  1.0052  0.4526
  618MOL0     H83403   3.420  10.330   4.217  1.9396 -0.8789 -2.0831
  618MOL0     H83404   3.575  10.141   4.390 -0.7978  1.7357  1.1705
  618MOL0     H83405   3.611  10.303   4.351 -2.4402 -0.5837  0.8237
  618MOL0     H83406   3.647  10.055   4.178  2.5996 -0.8561 -1.7199
  618MOL0     H83407   3.655  10.223   4.107  2.4164 -0.8876 -1.1167
  618MOL0     H83408   3.854  10.100   4.300 -1.2175  0.9813  0.8535
  618MOL0     H83409   3.818  10.271   4.273  0.7484 -1.3372  1.3149
  618MOL0     H83410   3.854  10.225   4.027 -0.8353  0.7478  0.6221
  618MOL0     H83411   3.897  10.056   4.065 -1.7372  0.3918 -1.4240
  618MOL0     H83412   3.205  10.387   4.090 -1.3077 -0.0600 -0.6317
  618MOL0     H83413   3.190  10.601   3.972 -0.5793 -1.0294 -2.6840
  618MOL0     H83414   2.921  10.984   3.953  1.3963 -1.1457  0.4232
  618MOL0     H83415   2.890  11.207   3.852  1.1906 -2.0604  3.0903
  618MOL0     H83416   3.931  11.688   2.751  2.0780 -0.6398  0.8925
  618MOL0     H83417   4.093  11.559   2.607 -0.1286 -1.7926  3.8421
  618MOL0     H83418   4.266  11.413   2.359  1.6323  1.4060 -0.7903
  618MOL0     H83419   4.479  11.330   2.268  0.1865 -0.3739 -0.5752
  618MOL0     H83420   4.480  11.008   1.958  0.6611  0.2424 -2.7257
  618MOL0     H83421   4.510  11.179   1.959 -0.7027 -0.5370  0.3027
  618MOL0     H83422   4.711  10.957   2.008 -1.8318 -1.6377 -3.2899
  618MOL0     H83423   4.748  11.129   2.037  0.8867 -1.0220  0.1768
  618MOL0     H83424   4.741  11.165   1.796 -2.6153  0.2257 -1.5055
  618MOL0     H83425   4.608  11.051   1.789  0.4555 -0.3113 -0.8688
  618MOL0     H83426   4.788  10.938   1.685 -2.2608  2.8424  0.1129
  618MOL0     H83427   4.757  10.859   1.836 -1.1917  1.1834  1.2361
  618MOL0     H83428   5.143  11.033   1.897  0.0376  0.3891 -0.9951
  618MOL0     H83429   4.287  10.969   2.123  0.0551 -0.4025  1.3791
  618MOL0     H83430   4.053  11.069   2.203 -0.9399  0.6732  1.4569
  619MOL0     O83431   0.298   4.389   9.618  0.0882  0.3645 -0.6342
  619MOL0     C83432   0.349   4.341   9.516  0.1976  0.0037 -0.6252
  619MOL0     O83433   0.294   4.345   9.390 -0.3449 -0.4452 -0.6494
  619MOL0     C83434   0.156   4.357   9.374  0.5027  0.2365  0.1022
  619MOL0     C83435   0.085   4.480   9.365  0.2471  0.1212 -0.3651
  619MOL0     C83436  -0.051   4.488   9.337 -0.6573 -0.3138  0.9196
  619MOL0     C83437  -0.112   4.375   9.292  0.5180  0.3429 -0.4252
  619MOL0     O83438  -0.244   4.370   9.264 -0.5549 -0.0046 -0.1089
  619MOL0     C83439  -0.310   4.254   9.193  0.1145 -0.0273  0.7247
  619MOL0     C83440  -0.455   4.277   9.163  0.3996  0.8786  0.8614
  619MOL0     C83441  -0.537   4.370   9.253  0.2620  0.3301  0.2138
  619MOL0     C83442  -0.545   4.323   9.397 -0.5918 -0.1554  0.2566
  619MOL0     C83443  -0.641   4.416   9.476  0.7202  0.2827 -0.4054
  619MOL0     C83444  -0.641   4.354   9.621 -0.5487 -0.0599  0.8354
  619MOL0     C83445  -0.720   4.447   9.714  0.4851 -0.3942 -0.5161
  619MOL0     C83446  -0.777   4.370   9.836 -0.0234  0.3886  0.4537
  619MOL0     N83447  -0.884   4.447   9.906  0.0800  0.0869  0.0559
  619MOL0     C83448  -0.883   4.467  10.040  0.1158  0.3387  0.1468
  619MOL0     C83449  -0.998   4.525  10.077 -0.2662  0.3641  0.8092
  619MOL0     C83450  -1.044   4.587  10.210  0.0675  0.2526  0.2102
  619MOL0     C83451  -1.196   4.587  10.225  0.8566 -1.4018 -0.0528
  619MOL0     C83452  -1.251   4.467  10.294 -0.4208  1.3919  1.0426
  619MOL0     C83453  -1.401   4.463  10.282 -0.9566 -0.1028 -0.4241
  619MOL0     O83454  -1.459   4.359  10.364 -0.2195  0.5822  0.2429
  619MOL0     C83455  -1.598   4.341  10.376  0.5241 -0.0918  0.0807
  619MOL0     C83456  -1.694   4.404  10.303 -0.4548  0.0179 -0.1197
  619MOL0     C83457  -1.835   4.374  10.314 -0.9664  0.3689 -0.4909
  619MOL0     C83458  -1.931   4.469  10.262 -0.7500 -0.0281 -0.1451
  619MOL0     C83459  -1.881   4.268  10.401 -0.8268 -0.2816  0.2565
  619MOL0     C83460  -2.024   4.229  10.425  0.1647 -0.1859 -0.1920
  619MOL0     O83461  -2.054   4.165  10.547  0.3476 -0.3289 -0.1628
  619MOL0     C83462  -2.184   4.155  10.597  0.2690  0.4487  0.0382
  619MOL0     C83463  -2.282   4.251  10.584 -0.4671  0.0249 -0.3967
  619MOL0     C83464  -2.409   4.228  10.622 -0.6128  0.7455  0.2313
  619MOL0     C83465  -2.456   4.112  10.686 -0.2442 -0.4594 -0.3084
  619MOL0     O83466  -2.584   4.099  10.726 -0.8569 -0.1949 -0.6430
  619MOL0     C83467  -2.691   4.132  10.650  0.1539 -0.0219 -0.5481
  619MOL0     C83468  -2.817   4.061  10.703 -0.0925 -0.6115 -0.3624
  619MOL0     C83469  -2.850   4.090  10.852  0.1418  0.1769 -0.3463
  619MOL0     C83470  -2.929   3.971  10.904 -0.7396  0.0552 -0.8057
  619MOL0     C83471  -3.077   3.957  10.854 -0.0047  0.1628  0.8524
  619MOL0     C83472  -3.139   3.822  10.904  0.4916 -0.9887  0.4943
  619MOL0     C83473  -3.286   3.811  10.848 -0.6218  0.4906  0.2873
  619MOL0     C83474  -3.335   3.669  10.876 -0.2635  0.6046 -0.2968
  619MOL0    Cl83475  -3.487   3.623  10.807 -0.2690 -0.3650 -0.1354
  619MOL0     C83476  -2.355   4.014  10.705  0.5885 -1.4932  0.3173
  619MOL0     C83477  -2.226   4.033  10.660  0.0266 -0.5549 -0.2960
  619MOL0     O83478  -2.102   4.247  10.333  1.2671 -0.5329  0.0837
  619MOL0     C83479  -1.780   4.209  10.474 -0.5972  0.5490 -0.3090
  619MOL0     C83480  -1.644   4.239  10.464 -0.2531 -0.1113  0.0374
  619MOL0     N83481  -1.067   4.528   9.962  0.7172 -0.1630 -0.0163
  619MOL0     N83482  -1.007   4.483   9.858  0.0050  0.7712  0.7257
  619MOL0     C83483  -0.044   4.245   9.306  0.1312 -0.7110  0.8310
  619MOL0     C83484   0.092   4.235   9.349  0.7789 -0.1320 -0.6613
  619MOL0     C83485   0.482   4.280   9.526 -0.0582 -0.5250  0.2631
  619MOL0     C83486   0.559   4.306   9.646 -0.1917 -0.3135 -0.2440
  619MOL0     C83487   0.699   4.286   9.661 -0.3034  0.1408  0.4896
  619MOL0     C83488   0.765   4.222   9.556  0.0963 -0.0088  0.1341
  619MOL0     O83489   0.901   4.187   9.563  0.1327 -0.2155 -0.4181
  619MOL0     C83490   0.981   4.228   9.673  0.3793  1.2444 -0.8262
  619MOL0     C83491   0.969   4.122   9.778  0.2475 -0.2831  0.3429
  619MOL0     C83492   1.046   4.146   9.903 -0.5487 -0.4098  0.3735
  619MOL0     C83493   1.031   4.054  10.017  0.1196  0.3598 -0.0252
  619MOL0     C83494   1.122   4.091  10.120  0.4771 -0.9310  0.3065
  619MOL0     C83495   1.193   4.134  10.200 -0.1007  0.5504  0.0061
  619MOL0     C83496   0.693   4.204   9.440 -0.4714  0.0147 -0.8012
  619MOL0     C83497   0.558   4.227   9.418  0.1086 -0.1276  0.0842
  619MOL0     H83498   0.131   4.570   9.407  0.9496  0.3211 -1.5130
  619MOL0     H83499  -0.095   4.587   9.342  2.5030  1.2073  1.5211
  619MOL0     H83500  -0.254   4.221   9.105  0.6309 -1.2478  1.4816
  619MOL0     H83501  -0.306   4.174   9.268 -3.4991  1.4038  2.7063
  619MOL0     H83502  -0.468   4.311   9.059 -0.4943 -0.6060  0.4676
  619MOL0     H83503  -0.507   4.181   9.163  0.4648  0.8311  0.0902
  619MOL0     H83504  -0.492   4.469   9.243  0.9050 -0.0022 -0.2640
  619MOL0     H83505  -0.639   4.372   9.214 -0.1207  1.9724  1.2064
  619MOL0     H83506  -0.575   4.218   9.410 -0.8206 -0.1519 -0.2454
  619MOL0     H83507  -0.445   4.330   9.441 -1.3985 -0.7947  2.3343
  619MOL0     H83508  -0.603   4.518   9.472  0.3612  0.3894 -1.1648
  619MOL0     H83509  -0.744   4.413   9.439  0.5261 -1.2356  0.1897
  619MOL0     H83510  -0.685   4.254   9.614 -1.0159  0.2702 -3.1735
  619MOL0     H83511  -0.539   4.351   9.660  1.0122  2.3657 -2.6011
  619MOL0     H83512  -0.679   4.545   9.741 -1.1186  0.0827  0.3192
  619MOL0     H83513  -0.809   4.474   9.656  0.9624  1.0000 -0.6482
  619MOL0     H83514  -0.693   4.361   9.905 -0.3124 -1.4579  0.6151
  619MOL0     H83515  -0.810   4.273   9.800 -1.1075  0.5911  0.8689
  619MOL0     H83516  -0.789   4.460  10.095  1.9303 -4.1688 -2.9462
  619MOL0     H83517  -1.010   4.519  10.288  1.5772  0.1990 -0.4449
  619MOL0     H83518  -0.992   4.683  10.208  1.5598 -0.4796 -2.5888
  619MOL0     H83519  -1.242   4.603  10.127  0.9832  1.2588  0.2671
  619MOL0     H83520  -1.214   4.677  10.285 -1.5285 -2.8994  1.6651
  619MOL0     H83521  -1.221   4.464  10.400 -1.1025 -1.0427  1.2280
  619MOL0     H83522  -1.214   4.373  10.251 -2.1068  0.0775  2.2899
  619MOL0     H83523  -1.419   4.443  10.177 -2.7439  2.4271 -0.6839
  619MOL0     H83524  -1.436   4.565  10.300  3.1029  1.3813  0.2759
  619MOL0     H83525  -1.667   4.483  10.233  1.5750  0.9939  1.6649
  619MOL0     H83526  -1.877   4.550  10.211 -0.9899  0.5922  0.5581
  619MOL0     H83527  -2.000   4.425  10.190 -0.8956 -1.1409  0.6491
  619MOL0     H83528  -1.990   4.517  10.341 -2.7447 -0.2493 -1.4382
  619MOL0     H83529  -2.268   4.350  10.542  1.1807  0.7429  1.6508
  619MOL0     H83530  -2.490   4.300  10.614 -0.8498  0.5217  0.6028
  619MOL0     H83531  -2.709   4.240  10.642  3.0725  0.6025  0.4484
  619MOL0     H83532  -2.682   4.092  10.548  0.0547  0.5220 -0.7766
  619MOL0     H83533  -2.898   4.088  10.635  1.7618  1.4287 -1.9087
  619MOL0     H83534  -2.796   3.955  10.684 -3.3848 -1.5122  0.3898
  619MOL0     H83535  -2.910   4.179  10.834 -2.9855 -1.9152 -0.9820
  619MOL0     H83536  -2.764   4.121  10.913  1.3796  1.1361 -2.4572
  619MOL0     H83537  -2.877   3.876  10.886 -1.3375  0.3401 -5.1623
  619MOL0     H83538  -2.933   3.995  11.011  2.5228  0.8311 -0.7648
  619MOL0     H83539  -3.078   3.966  10.745 -1.6638 -3.0803  0.4861
  619MOL0     H83540  -3.139   4.043  10.882 -1.0888  0.1920 -1.4514
  619MOL0     H83541  -3.073   3.740  10.878  1.1309 -1.2411  2.7343
  619MOL0     H83542  -3.148   3.828  11.013 -2.1733  1.5450  0.2796
  619MOL0     H83543  -3.276   3.827  10.740 -4.0134  1.0978 -0.0302
  619MOL0     H83544  -3.342   3.900  10.876 -0.8580  1.0242 -1.7233
  619MOL0     H83545  -3.336   3.648  10.983 -0.9998 -3.0788 -0.9187
  619MOL0     H83546  -3.259   3.606  10.830  0.4781 -0.3632  2.0884
  619MOL0     H83547  -2.378   3.925  10.763  0.3076 -0.4670  1.8417
  619MOL0     H83548  -2.153   3.953  10.669 -0.1237 -0.7737 -0.9477
  619MOL0     H83549  -1.805   4.130  10.545  1.6314  0.6495  0.6685
  619MOL0     H83550  -1.573   4.183  10.524  0.2936  0.6675  0.1204
  619MOL0     H83551  -0.100   4.158   9.276 -1.2714  0.7132 -0.9255
  619MOL0     H83552   0.152   4.145   9.358 -3.7218 -3.3640  1.1990
  619MOL0     H83553   0.505   4.336   9.735  2.0323 -0.7791  1.3312
  619MOL0     H83554   0.752   4.317   9.751 -0.0265 -2.2046  1.2055
  619MOL0     H83555   1.086   4.249   9.647  0.2341  1.3764 -1.3268
  619MOL0     H83556   0.941   4.323   9.710 -1.0995  0.9396 -1.5820
  619MOL0     H83557   1.006   4.031   9.730 -2.2134 -1.9603  1.4069
  619MOL0     H83558   0.865   4.105   9.807 -0.5024  3.3711  0.2605
  619MOL0     H83559   1.028   4.248   9.938 -1.9874 -0.8121  0.9039
  619MOL0     H83560   1.153   4.138   9.881 -0.1542 -3.1359  2.7432
  619MOL0     H83561   1.062   3.952   9.992 -0.2391  0.3818 -0.5822
  619MOL0     H83562   0.926   4.059  10.047 -0.4285  3.3089 -1.9642
  619MOL0     H83563   1.261   4.167  10.276  0.3175  0.4620 -0.3215
  619MOL0     H83564   0.757   4.184   9.355  0.2693 -1.7270  0.1294
  619MOL0     H83565   0.517   4.217   9.318 -1.7833 -2.0149  0.9524
  620MOL0     O83566   6.845   2.207  11.176  0.4965  0.2940  0.3302
  620MOL0     C83567   6.915   2.313  11.176  0.1899 -0.7320  0.3508
  620MOL0     O83568   6.996   2.349  11.072  0.1232 -0.4774 -0.6278
  620MOL0     C83569   6.963   2.311  10.945 -1.2622  0.3773  0.6957
  620MOL0     C83570   6.914   2.407  10.859  0.7297 -0.5382  0.7451
  620MOL0     C83571   6.889   2.373  10.726  0.0491 -0.2552  0.2470
  620MOL0     C83572   6.925   2.244  10.677 -0.0791  0.0486 -0.2927
  620MOL0     O83573   6.879   2.196  10.561  0.6337 -0.0002  0.4220
  620MOL0     C83574   6.740   2.190  10.538 -1.0167  0.2452  0.1306
  620MOL0     C83575   6.697   2.045  10.570  0.1789  0.5711  0.2795
  620MOL0     C83576   6.662   2.038  10.722 -0.5637 -0.9837  0.0642
  620MOL0     C83577   6.631   1.888  10.766  0.4066 -0.0637 -0.8805
  620MOL0     C83578   6.561   1.869  10.910  0.6586 -0.1555 -0.4564
  620MOL0     C83579   6.420   1.920  10.912 -0.4364 -0.1483 -0.4249
  620MOL0     C83580   6.332   1.821  10.981  0.4709 -0.6547 -0.6803
  620MOL0     C83581   6.181   1.857  10.969 -0.1238  0.4347  0.1856
  620MOL0     N83582   6.152   1.979  11.050 -0.0466 -0.3718 -0.0881
  620MOL0     C83583   6.169   1.982  11.185  0.2045  0.3612 -0.7195
  620MOL0     C83584   6.170   2.113  11.226  0.6267  0.4966  0.2621
  620MOL0     C83585   6.207   2.168  11.357  0.9875  0.2911  0.0927
  620MOL0     C83586   6.332   2.102  11.418  0.6874 -0.2423 -0.2880
  620MOL0     C83587   6.378   2.191  11.524 -0.3104 -0.5235  0.3740
  620MOL0     C83588   6.501   2.146  11.604  0.3913 -0.2658 -0.3055
  620MOL0     O83589   6.615   2.124  11.535  0.2511  0.5367  0.3100
  620MOL0     C83590   6.726   2.069  11.598 -0.5710  0.5880  0.9182
  620MOL0     C83591   6.826   2.010  11.509 -0.0245 -0.5287  0.8962
  620MOL0     C83592   6.940   1.933  11.560  0.7090 -0.0622 -0.5738
  620MOL0     C83593   7.032   1.864  11.459 -0.2957  0.3424  0.7136
  620MOL0     C83594   6.958   1.923  11.696  0.6453  0.1424  0.4941
  620MOL0     C83595   7.070   1.844  11.749 -0.2433 -0.8404 -1.1365
  620MOL0     O83596   7.129   1.901  11.863 -0.0320 -0.1232  0.2835
  620MOL0     C83597   7.263   1.873  11.885 -0.2608  0.4390 -0.1016
  620MOL0     C83598   7.350   1.845  11.779 -0.3188 -0.8168  0.4725
  620MOL0     C83599   7.485   1.829  11.807  0.2058 -0.6197 -0.1006
  620MOL0     C83600   7.538   1.853  11.932 -0.4274 -1.0619 -0.2702
  620MOL0     O83601   7.679   1.853  11.933 -0.4396 -0.4147 -0.6577
  620MOL0     C83602   7.741   1.888  12.056 -0.2922  0.2173 -1.1762
  620MOL0     C83603   7.889   1.866  12.052  0.5095  0.4458  0.4404
  620MOL0     C83604   7.934   1.730  12.039 -0.3686 -0.5350  0.1546
  620MOL0     C83605   8.079   1.726  11.970 -0.2515 -0.3391 -0.7687
  620MOL0     C83606   8.184   1.802  12.062  0.7463  0.3810 -0.4220
  620MOL0     C83607   8.331   1.801  12.011  0.2538  0.3697  0.2696
  620MOL0     C83608   8.428   1.868  12.112 -0.2172  0.3686 -1.5892
  620MOL0     C83609   8.398   2.018  12.121 -0.3120 -0.3474 -0.1117
  620MOL0    Cl83610   8.424   2.127  11.980  0.1133  0.4225  0.0097
  620MOL0     C83611   7.453   1.898  12.042  0.3236  0.1750  1.0581
  620MOL0     C83612   7.316   1.909  12.012  0.5243  0.2856  0.2000
  620MOL0     O83613   7.100   1.733  11.699 -0.1597 -0.7021  0.0336
  620MOL0     C83614   6.876   2.006  11.776 -0.0718  0.1343  0.5218
  620MOL0     C83615   6.771   2.077  11.728 -0.5699 -0.6112 -0.3228
  620MOL0     N83616   6.129   2.179  11.113 -0.5114  0.2792  0.3319
  620MOL0     N83617   6.118   2.103  11.010 -0.2343  0.6541  0.3649
  620MOL0     C83618   6.987   2.157  10.766 -0.0749 -0.2072  0.0814
  620MOL0     C83619   7.009   2.184  10.895  0.5091 -0.8044 -0.1383
  620MOL0     C83620   6.917   2.390  11.305  0.5149  0.3455  0.0270
  620MOL0     C83621   7.015   2.492  11.335  0.3594  0.7679  0.4815
  620MOL0     C83622   7.006   2.568  11.450  0.2393  0.4426 -0.0714
  620MOL0     C83623   6.908   2.536  11.547  0.0506 -0.6399  0.0828
  620MOL0     O83624   6.896   2.589  11.672  0.2560  0.1429  0.4276
  620MOL0     C83625   7.005   2.687  11.712 -0.4422  0.7846 -0.8238
  620MOL0     C83626   7.136   2.619  11.757  0.7354  0.0653 -0.4105
  620MOL0     C83627   7.222   2.713  11.846  0.2227 -0.8927  0.4851
  620MOL0     C83628   7.362   2.661  11.879 -0.3569  0.5340 -0.1005
  620MOL0     C83629   7.430   2.770  11.950  0.1641 -0.2362  1.1285
  620MOL0     C83630   7.510   2.850  11.993  0.3103  0.2455  0.3724
  620MOL0     C83631   6.805   2.444  11.518 -0.3842  0.1707  0.6629
  620MOL0     C83632   6.815   2.369  11.397 -0.6920  0.6571 -0.8401
  620MOL0     H83633   6.891   2.503  10.905  2.3395  0.2654 -0.0435
  620MOL0     H83634   6.842   2.448  10.663 -0.6199 -0.4535  0.5062
  620MOL0     H83635   6.678   2.272  10.576 -1.0444  1.1237 -1.6533
  620MOL0     H83636   6.724   2.206  10.431 -2.4466  1.3276  0.4826
  620MOL0     H83637   6.603   2.020  10.520  1.8798 -2.8665 -1.5565
  620MOL0     H83638   6.772   1.971  10.540 -1.0117 -0.6513  0.2377
  620MOL0     H83639   6.739   2.085  10.784 -0.3816 -3.3914  1.7950
  620MOL0     H83640   6.577   2.104  10.746  2.2683  3.1265 -0.2582
  620MOL0     H83641   6.558   1.851  10.693  0.8373 -2.0703 -0.3714
  620MOL0     H83642   6.717   1.820  10.764 -1.6907 -2.9390 -3.2857
  620MOL0     H83643   6.561   1.763  10.936 -2.6849  0.8008  5.0779
  620MOL0     H83644   6.628   1.922  10.979  0.5184  0.7577 -1.0020
  620MOL0     H83645   6.421   2.012  10.970 -0.8512  1.3992 -2.7261
  620MOL0     H83646   6.379   1.950  10.815  0.3967  1.2484 -0.3619
  620MOL0     H83647   6.341   1.722  10.936  2.6773 -1.6377  1.7018
  620MOL0     H83648   6.342   1.811  11.089 -3.1949  2.1187  0.1561
  620MOL0     H83649   6.123   1.772  11.005  1.8110 -1.4180 -0.8704
  620MOL0     H83650   6.161   1.876  10.863  0.4425 -0.1864 -0.0316
  620MOL0     H83651   6.192   1.899  11.250 -2.5882 -1.0591 -1.3744
  620MOL0     H83652   6.216   2.277  11.348  2.2237  0.3376  1.6040
  620MOL0     H83653   6.122   2.141  11.421 -1.5873  0.3647 -3.0329
  620MOL0     H83654   6.409   2.091  11.341  0.8133  1.8504 -0.5237
  620MOL0     H83655   6.317   2.001  11.458  1.4208 -0.3111 -0.1799
  620MOL0     H83656   6.293   2.191  11.593 -1.5646  2.5284 -0.9315
  620MOL0     H83657   6.399   2.288  11.478 -1.3640 -0.9285 -1.0371
  620MOL0     H83658   6.475   2.055  11.658  0.7472  0.4228  1.0799
  620MOL0     H83659   6.527   2.221  11.680  2.2506  0.6891 -1.7836
  620MOL0     H83660   6.819   2.024  11.401  1.8401 -2.1165  0.5092
  620MOL0     H83661   7.021   1.918  11.365 -0.9097 -1.3886 -0.2574
  620MOL0     H83662   7.134   1.851  11.496  0.1893 -1.7374 -1.0966
  620MOL0     H83663   6.988   1.765  11.444 -0.9925  0.2126  3.1227
  620MOL0     H83664   7.318   1.849  11.676  4.1283  0.4422 -1.1271
  620MOL0     H83665   7.544   1.812  11.718 -0.1782  1.4644 -0.8119
  620MOL0     H83666   7.721   1.993  12.078 -0.7108  0.1158 -1.0710
  620MOL0     H83667   7.698   1.832  12.140 -0.7932  0.1239 -1.4895
  620MOL0     H83668   7.934   1.915  11.965  1.5225  0.0843  0.7396
  620MOL0     H83669   7.930   1.903  12.147  0.6173 -0.0856  0.6034
  620MOL0     H83670   7.876   1.659  11.979  1.5010 -3.7422  1.8328
  620MOL0     H83671   7.956   1.679  12.133 -0.9736  0.1091  0.6539
  620MOL0     H83672   8.120   1.625  11.960 -2.1822 -1.4731  1.7561
  620MOL0     H83673   8.087   1.780  11.875  2.7245  0.9765  0.1224
  620MOL0     H83674   8.175   1.758  12.162 -1.2514 -0.7615 -1.0318
  620MOL0     H83675   8.153   1.907  12.064 -0.1732  0.3430 -4.2870
  620MOL0     H83676   8.369   1.698  12.013  1.5539  0.8174 -0.4929
  620MOL0     H83677   8.341   1.849  11.913  0.6064  0.9817  0.6050
  620MOL0     H83678   8.532   1.834  12.108 -0.6214 -1.4303  0.7216
  620MOL0     H83679   8.403   1.826  12.210  2.8138  1.1903 -0.3170
  620MOL0     H83680   8.465   2.057  12.199 -1.1073  1.3260 -0.2059
  620MOL0     H83681   8.300   2.027  12.169 -1.1579 -4.3357 -0.7742
  620MOL0     H83682   7.487   1.926  12.141  1.5031 -1.7231  1.2409
  620MOL0     H83683   7.248   1.940  12.090  0.3182  0.1051  0.0918
  620MOL0     H83684   6.899   2.014  11.882  1.6794 -0.9805  0.2714
  620MOL0     H83685   6.705   2.124  11.801 -0.7563  0.1632 -0.9834
  620MOL0     H83686   7.018   2.063  10.722 -0.6836 -1.2134  1.6965
  620MOL0     H83687   7.077   2.128  10.958  2.6060  0.6214 -1.0042
  620MOL0     H83688   7.083   2.512  11.253  1.5916  0.3530  1.3861
  620MOL0     H83689   7.067   2.658  11.455 -0.8570  1.6346 -4.4780
  620MOL0     H83690   7.033   2.754  11.630  1.8523  0.4330 -0.3749
  620MOL0     H83691   6.964   2.746  11.795 -0.3851  1.7069 -1.4313
  620MOL0     H83692   7.191   2.596  11.665  0.6937  3.0477 -1.2709
  620MOL0     H83693   7.112   2.532  11.819 -1.4930  2.2126  1.9429
  620MOL0     H83694   7.170   2.734  11.939 -1.0638  0.1065 -0.4261
  620MOL0     H83695   7.227   2.801  11.781  0.8110 -1.1140  0.2267
  620MOL0     H83696   7.418   2.631  11.790  3.3057  0.9507  1.8672
  620MOL0     H83697   7.351   2.571  11.940 -0.8800 -0.0219 -1.0018
  620MOL0     H83698   7.586   2.920  12.023 -0.9790  0.7710  2.6170
  620MOL0     H83699   6.728   2.423  11.591  1.7475 -1.3639  2.6594
  620MOL0     H83700   6.739   2.293  11.385  1.1319 -1.1680 -1.3659
  621MOL0     O83701   1.806   5.667   2.537 -0.1307  0.2509  0.0800
  621MOL0     C83702   1.725   5.715   2.613  0.2847 -0.0484 -0.6916
  621MOL0     O83703   1.759   5.794   2.715  0.0041 -0.2512  0.2780
  621MOL0     C83704   1.890   5.802   2.757 -1.0818  0.0189  0.0688
  621MOL0     C83705   1.972   5.682   2.796  0.8786 -0.0555 -0.1716
  621MOL0     C83706   2.109   5.698   2.802 -0.4009 -1.1034 -0.3607
  621MOL0     C83707   2.170   5.823   2.793  0.1591  0.7275  0.5537
  621MOL0     O83708   2.306   5.810   2.799  0.0745  0.4115 -0.2313
  621MOL0     C83709   2.380   5.927   2.847  0.6213  0.0872 -1.5985
  621MOL0     C83710   2.526   5.916   2.871 -0.1039 -0.0485  0.5960
  621MOL0     C83711   2.604   5.865   2.732  0.2613 -0.0931 -0.6358
  621MOL0     C83712   2.748   5.820   2.755  0.2130 -0.2138 -0.4093
  621MOL0     C83713   2.808   5.747   2.629 -0.3140 -0.6600 -0.9767
  621MOL0     C83714   2.958   5.766   2.620 -0.4540 -0.4424 -0.1333
  621MOL0     C83715   3.018   5.898   2.570 -0.7583 -0.8070  0.0220
  621MOL0     C83716   2.972   5.932   2.424 -0.2406 -0.2987  0.1631
  621MOL0     N83717   3.036   5.842   2.319 -0.0877  0.4144 -0.3756
  621MOL0     C83718   3.161   5.842   2.254 -0.1684 -0.1415 -0.1013
  621MOL0     C83719   3.153   5.732   2.169 -1.0288 -0.2992 -0.3709
  621MOL0     C83720   3.269   5.664   2.101 -0.1052 -0.0224  0.0989
  621MOL0     C83721   3.307   5.741   1.976 -0.1186 -0.5145  0.0221
  621MOL0     C83722   3.206   5.712   1.856 -0.4265 -1.1726  0.6618
  621MOL0     C83723   3.165   5.829   1.789  0.5689 -0.0014 -0.8211
  621MOL0     O83724   3.063   5.899   1.872  0.5240  0.5813 -0.1689
  621MOL0     C83725   2.933   5.852   1.866  0.4397 -0.2714  0.1910
  621MOL0     C83726   2.850   5.883   1.971 -0.1341 -0.2345 -0.9287
  621MOL0     C83727   2.715   5.850   1.981 -0.4337 -0.1615  0.4757
  621MOL0     C83728   2.658   5.871   2.104  0.9050 -0.9758 -0.8880
  621MOL0     C83729   2.658   5.774   1.873  0.4957 -0.1553  1.1368
  621MOL0     C83730   2.517   5.730   1.864 -0.2074  0.4177 -0.7020
  621MOL0     O83731   2.479   5.649   1.755 -0.0847  0.3966  0.0144
  621MOL0     C83732   2.357   5.655   1.698  1.1812  0.2974  0.2106
  621MOL0     C83733   2.302   5.765   1.629 -0.4342 -0.1856  0.1744
  621MOL0     C83734   2.182   5.760   1.572  0.6906 -0.1392 -0.4897
  621MOL0     C83735   2.099   5.643   1.583 -0.1231  0.0712  0.8486
  621MOL0     O83736   1.981   5.648   1.512 -0.2182  1.0308 -0.6687
  621MOL0     C83737   1.933   5.519   1.455 -0.4484 -0.5391 -0.1010
  621MOL0     C83738   1.834   5.568   1.358  0.2761  0.6502 -0.3633
  621MOL0     C83739   1.772   5.453   1.276  0.1874 -0.0448 -0.0888
  621MOL0     C83740   1.693   5.359   1.364 -0.0692 -0.0470  0.4027
  621MOL0     C83741   1.656   5.234   1.289  0.8579 -0.4400 -0.2555
  621MOL0     C83742   1.775   5.144   1.270 -1.0533  0.3288 -0.4973
  621MOL0     C83743   1.748   5.019   1.194  0.8321 -0.3068 -0.3736
  621MOL0     C83744   1.868   4.933   1.153  0.3214 -0.1168  0.4893
  621MOL0    Cl83745   1.950   5.017   1.024  0.3483 -0.0163 -0.0049
  621MOL0     C83746   2.152   5.534   1.653  0.2932 -0.0975  0.4217
  621MOL0     C83747   2.280   5.537   1.710 -0.5377 -0.6181 -0.0812
  621MOL0     O83748   2.433   5.780   1.938 -0.4691  0.5158 -0.7374
  621MOL0     C83749   2.744   5.745   1.760  1.2408  0.7049 -0.9236
  621MOL0     C83750   2.875   5.787   1.759  0.0015 -0.2715  0.2292
  621MOL0     N83751   3.034   5.663   2.195  0.0890  0.0477  0.5530
  621MOL0     N83752   2.960   5.737   2.271 -0.3720  0.1950  0.4652
  621MOL0     C83753   2.091   5.939   2.775  0.0399 -0.0954 -0.1425
  621MOL0     C83754   1.952   5.921   2.743 -0.7095 -0.9776 -0.1449
  621MOL0     C83755   1.582   5.675   2.598 -0.9765  0.2946  0.0264
  621MOL0     C83756   1.475   5.718   2.684 -0.0413 -0.1589  0.2438
  621MOL0     C83757   1.346   5.678   2.682  0.9894  0.6843 -0.2505
  621MOL0     C83758   1.308   5.588   2.584 -0.6579  0.4604  0.2311
  621MOL0     O83759   1.174   5.544   2.567 -0.3110 -0.3941  0.5503
  621MOL0     C83760   1.064   5.587   2.647  0.2017  0.1065  0.0860
  621MOL0     C83761   1.064   5.514   2.779 -0.3097  0.6551  0.2338
  621MOL0     C83762   1.036   5.362   2.767  0.5355 -0.6152  0.3217
  621MOL0     C83763   0.899   5.343   2.704 -0.9624  0.0082 -0.9480
  621MOL0     C83764   0.858   5.203   2.713  0.4620 -0.6742  0.6183
  621MOL0     C83765   0.815   5.092   2.721 -0.1586  0.2596  1.0522
  621MOL0     C83766   1.404   5.538   2.497  0.0447 -0.6965  0.7194
  621MOL0     C83767   1.534   5.584   2.504 -0.0836 -0.4979 -0.0821
  621MOL0     H83768   1.919   5.589   2.808  1.0257 -0.1765 -0.4383
  621MOL0     H83769   2.159   5.606   2.831  0.0032 -1.0304 -0.8322
  621MOL0     H83770   2.357   6.022   2.799  0.4365  1.9741  1.8701
  621MOL0     H83771   2.347   5.951   2.949 -0.8683  1.8657 -2.4376
  621MOL0     H83772   2.573   6.005   2.913  2.0075 -0.2128 -1.2026
  621MOL0     H83773   2.546   5.841   2.948  2.7438  2.4721  2.5270
  621MOL0     H83774   2.554   5.778   2.690 -1.6794  0.7238 -0.1049
  621MOL0     H83775   2.603   5.951   2.664 -1.8863 -1.9636 -3.2049
  621MOL0     H83776   2.814   5.902   2.787 -0.5967  0.5541 -0.6925
  621MOL0     H83777   2.746   5.763   2.849 -0.2673  1.2719  0.5108
  621MOL0     H83778   2.776   5.643   2.639 -0.3502 -0.4260  3.1303
  621MOL0     H83779   2.765   5.772   2.532 -0.1566 -2.3256 -1.5042
  621MOL0     H83780   3.000   5.744   2.719 -0.1849 -1.2533 -0.4233
  621MOL0     H83781   2.995   5.696   2.545 -1.1284 -3.1133  1.8847
  621MOL0     H83782   2.988   5.970   2.646 -3.4402  0.7289 -2.3412
  621MOL0     H83783   3.127   5.890   2.568 -0.7267 -0.3275 -1.0700
  621MOL0     H83784   2.993   6.037   2.401  1.9240 -0.2969  1.8571
  621MOL0     H83785   2.864   5.928   2.407 -0.1072 -0.8567 -0.5899
  621MOL0     H83786   3.246   5.907   2.273 -0.1436  0.3558 -1.7915
  621MOL0     H83787   3.349   5.651   2.174  0.6451 -0.9131 -0.8556
  621MOL0     H83788   3.241   5.561   2.074  1.4695 -0.3358 -0.4480
  621MOL0     H83789   3.411   5.716   1.954  0.0477 -1.7980  1.9830
  621MOL0     H83790   3.314   5.847   2.005 -1.5758 -1.1295  3.0239
  621MOL0     H83791   3.116   5.658   1.888 -0.5466 -2.2454 -1.3015
  621MOL0     H83792   3.250   5.650   1.778 -0.3997 -0.4402  0.0894
  621MOL0     H83793   3.134   5.802   1.687 -1.0986 -2.3024  0.2030
  621MOL0     H83794   3.248   5.898   1.771  1.8971 -1.7493 -1.5850
  621MOL0     H83795   2.897   5.939   2.051  0.9729  0.9553 -2.3651
  621MOL0     H83796   2.562   5.923   2.087  2.3032  3.2036  2.1931
  621MOL0     H83797   2.643   5.780   2.162  0.7390 -0.2494  0.2478
  621MOL0     H83798   2.713   5.947   2.161  1.8661 -0.6069 -2.2697
  621MOL0     H83799   2.368   5.851   1.625  2.4982 -1.8859  4.3241
  621MOL0     H83800   2.124   5.842   1.533 -0.3990  0.8210  2.7831
  621MOL0     H83801   2.016   5.479   1.396  0.8694  3.9309 -1.7388
  621MOL0     H83802   1.890   5.445   1.523 -2.1017 -0.1500 -0.6731
  621MOL0     H83803   1.755   5.611   1.420  1.7085  2.8003  0.1142
  621MOL0     H83804   1.873   5.650   1.297  0.0334  0.3863 -0.8801
  621MOL0     H83805   1.858   5.400   1.236  0.1428 -1.9288  2.0991
  621MOL0     H83806   1.717   5.500   1.194  2.1845  0.8804 -0.9573
  621MOL0     H83807   1.735   5.336   1.463  0.3351 -0.6870  0.0879
  621MOL0     H83808   1.592   5.396   1.382  0.7742  1.7682  1.8099
  621MOL0     H83809   1.608   5.250   1.192 -0.0615  1.9662  0.5222
  621MOL0     H83810   1.578   5.178   1.342  2.7531 -0.6357  2.5446
  621MOL0     H83811   1.853   5.196   1.214  1.1372 -0.1351  1.9008
  621MOL0     H83812   1.821   5.130   1.368  1.1509 -0.8153 -1.6135
  621MOL0     H83813   1.690   5.042   1.104 -0.3566 -0.3863  0.3486
  621MOL0     H83814   1.685   4.964   1.265 -0.3783  0.3604 -0.9111
  621MOL0     H83815   1.830   4.837   1.116 -0.8724  1.0815 -1.6355
  621MOL0     H83816   1.936   4.920   1.237  1.0621 -1.8355 -0.3210
  621MOL0     H83817   2.087   5.447   1.662  1.1236 -0.9064 -1.0388
  621MOL0     H83818   2.325   5.447   1.749  0.8286  0.7321  1.6431
  621MOL0     H83819   2.696   5.685   1.683 -0.0101 -1.5950  1.5137
  621MOL0     H83820   2.934   5.748   1.677  0.6036 -0.2861  0.6596
  621MOL0     H83821   2.136   6.035   2.755  0.7498 -0.3712  0.1079
  621MOL0     H83822   1.899   6.013   2.724  1.0213  0.0885 -0.0831
  621MOL0     H83823   1.493   5.791   2.762  1.7696 -0.8470  0.5304
  621MOL0     H83824   1.267   5.717   2.744 -1.7767 -0.7094 -2.6565
  621MOL0     H83825   1.078   5.695   2.658  0.8083  0.2542 -1.7174
  621MOL0     H83826   0.969   5.573   2.595 -2.2593 -1.2266  4.4390
  621MOL0     H83827   1.005   5.559   2.859 -0.1623  1.3190 -0.0315
  621MOL0     H83828   1.163   5.524   2.824 -0.2313 -0.1100  0.2534
  621MOL0     H83829   1.034   5.328   2.871 -1.6603  2.7659  1.5253
  621MOL0     H83830   1.123   5.313   2.721  2.6518  3.0854  0.0203
  621MOL0     H83831   0.910   5.388   2.605  1.6376  7.4901  2.0275
  621MOL0     H83832   0.830   5.402   2.765  0.1505  0.8008 -0.4123
  621MOL0     H83833   0.799   4.987   2.711  1.7860  0.1075 -1.3450
  621MOL0     H83834   1.383   5.465   2.419  0.6149  2.7588 -3.0241
  621MOL0     H83835   1.604   5.551   2.428  0.3365 -0.4274  0.2697
  622MOL0     O83836  10.556   9.501   2.991  0.5746 -0.0906 -0.5209
  622MOL0     C83837  10.531   9.618   2.999  0.2558 -0.2374 -0.5153
  622MOL0     O83838  10.413   9.677   2.971  0.2776 -0.6451  0.6150
  622MOL0     C83839  10.296   9.605   2.981  0.4937  0.3742 -0.0465
  622MOL0     C83840  10.280   9.532   3.104  0.1341 -1.0212 -0.0410
  622MOL0     C83841  10.154   9.467   3.130 -0.8819 -0.2902 -0.4316
  622MOL0     C83842  10.054   9.470   3.038  0.3672  0.0623 -0.5432
  622MOL0     O83843   9.937   9.413   3.086  0.1096 -0.0733 -0.2639
  622MOL0     C83844   9.816   9.415   3.001  1.6273  0.0230  0.1571
  622MOL0     C83845   9.687   9.354   3.060  1.1320 -0.2051  0.0358
  622MOL0     C83846   9.650   9.421   3.198  0.2496 -0.6110 -0.0989
  622MOL0     C83847   9.507   9.412   3.234 -0.7371  0.2486 -0.7330
  622MOL0     C83848   9.467   9.447   3.382  0.3329 -0.6530 -0.1939
  622MOL0     C83849   9.325   9.392   3.418 -0.0479 -0.0601 -0.6645
  622MOL0     C83850   9.305   9.374   3.574 -0.8915 -0.3538 -0.2777
  622MOL0     C83851   9.184   9.294   3.617  0.3579  0.5732 -0.6682
  622MOL0     N83852   9.062   9.347   3.561 -0.2058 -0.3146  0.5722
  622MOL0     C83853   9.003   9.469   3.590 -0.2726  0.2060  1.2104
  622MOL0     C83854   8.905   9.480   3.498  0.2660 -0.0555 -0.0418
  622MOL0     C83855   8.808   9.591   3.492 -0.4253 -0.4747 -0.2825
  622MOL0     C83856   8.760   9.621   3.634 -0.2581  0.4956  0.5600
  622MOL0     C83857   8.643   9.715   3.652 -0.0445  1.1987  0.6782
  622MOL0     C83858   8.504   9.657   3.621  0.3195  0.0499  0.0071
  622MOL0     O83859   8.487   9.540   3.695 -0.0597  0.4461 -0.4067
  622MOL0     C83860   8.364   9.492   3.718 -0.0082  0.0093  0.2293
  622MOL0     C83861   8.352   9.377   3.786  0.0649 -0.4499 -0.2828
  622MOL0     C83862   8.242   9.311   3.818 -0.2739 -0.2439 -0.7936
  622MOL0     C83863   8.245   9.184   3.904 -0.1282  0.0914  1.3803
  622MOL0     C83864   8.124   9.379   3.797 -0.0632  0.4503 -0.1262
  622MOL0     C83865   7.992   9.333   3.849 -0.1561 -0.2835 -0.4605
  622MOL0     O83866   7.921   9.260   3.758  0.4370 -0.1756 -0.5308
  622MOL0     C83867   7.786   9.229   3.770  0.2505 -0.6425 -0.1307
  622MOL0     C83868   7.753   9.116   3.702  1.2053  0.2663 -0.1696
  622MOL0     C83869   7.626   9.063   3.707 -0.0694  0.0527 -0.1199
  622MOL0     C83870   7.523   9.117   3.783 -1.0615 -0.0691  0.6545
  622MOL0     O83871   7.389   9.064   3.784  0.1325  0.9079  0.1373
  622MOL0     C83872   7.362   8.930   3.730  0.6120  0.1435 -0.6520
  622MOL0     C83873   7.218   8.887   3.765 -0.7235  0.6548 -0.2043
  622MOL0     C83874   7.168   8.773   3.675 -0.0729  0.3496 -1.0670
  622MOL0     C83875   7.024   8.733   3.731  1.2087 -0.3873  1.1150
  622MOL0     C83876   6.933   8.851   3.675  0.3692  0.4404  0.3243
  622MOL0     C83877   6.784   8.830   3.658  0.2088  0.4743  0.4439
  622MOL0     C83878   6.691   8.848   3.779  0.3704  0.4072 -0.6933
  622MOL0     C83879   6.650   8.995   3.800  0.1257 -0.2335  0.1774
  622MOL0    Cl83880   6.589   9.008   3.974  0.3765 -0.0999  0.1249
  622MOL0     C83881   7.554   9.236   3.857  1.1390  0.3529 -0.5008
  622MOL0     C83882   7.679   9.291   3.848 -0.5237 -0.2431 -0.4307
  622MOL0     O83883   7.954   9.359   3.963 -0.0415 -0.2316  0.3250
  622MOL0     C83884   8.120   9.497   3.713 -0.2946  0.5370 -0.0383
  622MOL0     C83885   8.243   9.547   3.673 -0.2560 -0.3270  0.4151
  622MOL0     N83886   8.901   9.356   3.425 -0.4935 -0.3402  0.0127
  622MOL0     N83887   9.000   9.286   3.461 -0.3525  0.2182 -0.7797
  622MOL0     C83888  10.072   9.533   2.910 -0.7971 -0.4211  0.1419
  622MOL0     C83889  10.193   9.607   2.884  0.3758 -0.2856  0.0201
  622MOL0     C83890  10.647   9.704   3.039  0.1536  0.6517 -0.0131
  622MOL0     C83891  10.766   9.643   3.076 -0.7085  0.2111 -0.1478
  622MOL0     C83892  10.876   9.730   3.098  0.1380 -0.2795 -0.6069
  622MOL0     C83893  10.871   9.872   3.091 -0.4236 -0.4294 -0.3195
  622MOL0     O83894  10.981   9.941   3.133  0.0758  0.1299  0.1103
  622MOL0     C83895  10.972  10.084   3.140 -0.1817  0.6155  0.9311
  622MOL0     C83896  11.104  10.145   3.161 -0.4075 -0.3734  0.1299
  622MOL0     C83897  11.206  10.054   3.238  0.7966 -0.4069  0.2721
  622MOL0     C83898  11.323  10.137   3.288 -0.8362 -0.6829 -0.4394
  622MOL0     C83899  11.416  10.186   3.185  0.7638 -0.1709  0.3711
  622MOL0     C83900  11.472  10.219   3.087 -0.0897  0.2283 -0.0921
  622MOL0     C83901  10.744   9.925   3.070 -0.0434 -0.0364  0.1460
  622MOL0     C83902  10.636   9.844   3.043 -0.0540  0.7423  0.9879
  622MOL0     H83903  10.344   9.539   3.191  1.9549 -0.9289 -1.3216
  622MOL0     H83904  10.141   9.432   3.232  1.0756  2.0951  0.7380
  622MOL0     H83905   9.792   9.520   2.980  2.2921  0.0595 -0.4596
  622MOL0     H83906   9.841   9.373   2.903  0.3019  1.1596 -0.7051
  622MOL0     H83907   9.606   9.366   2.988  0.8726 -1.0578  0.1777
  622MOL0     H83908   9.706   9.250   3.086  0.6133 -0.3897 -0.3095
  622MOL0     H83909   9.712   9.381   3.278  1.8171  0.2840 -0.8313
  622MOL0     H83910   9.677   9.527   3.198 -3.3662  0.4648 -0.9581
  622MOL0     H83911   9.449   9.471   3.163  0.7650  0.7542 -1.5923
  622MOL0     H83912   9.489   9.305   3.221 -0.1726  0.3549 -2.6734
  622MOL0     H83913   9.542   9.401   3.447  2.1532  1.2196 -0.8375
  622MOL0     H83914   9.473   9.556   3.392 -1.3167 -0.5464 -0.0905
  622MOL0     H83915   9.255   9.464   3.376 -0.8241 -0.4427 -0.0462
  622MOL0     H83916   9.299   9.298   3.367 -1.8176  0.0261  0.0181
  622MOL0     H83917   9.388   9.328   3.629 -0.2447  1.8660  0.7262
  622MOL0     H83918   9.302   9.478   3.609 -1.4163  0.3088 -2.1667
  622MOL0     H83919   9.172   9.280   3.725 -1.3696 -1.6038 -1.0672
  622MOL0     H83920   9.193   9.194   3.574 -1.4129  0.6749 -1.3653
  622MOL0     H83921   9.033   9.536   3.669  1.8867  1.1865 -0.3550
  622MOL0     H83922   8.856   9.679   3.450  2.6218 -2.6687 -1.7962
  622MOL0     H83923   8.717   9.563   3.437 -1.0596 -3.4325  1.9499
  622MOL0     H83924   8.838   9.669   3.695  1.3652 -1.1952 -0.0646
  622MOL0     H83925   8.741   9.526   3.686  1.2994  0.6034  1.4009
  622MOL0     H83926   8.654   9.807   3.594  2.2282 -0.5014 -1.8172
  622MOL0     H83927   8.632   9.736   3.759 -0.4175 -1.7526  1.3229
  622MOL0     H83928   8.493   9.628   3.517  0.6648  0.1020 -0.0466
  622MOL0     H83929   8.431   9.738   3.633  0.1756  0.2851 -2.1752
  622MOL0     H83930   8.446   9.324   3.800 -0.4231 -2.4554 -3.4520
  622MOL0     H83931   8.239   9.101   3.833  1.4145  1.1520 -0.0549
  622MOL0     H83932   8.336   9.188   3.965  0.8527 -1.4925  0.1174
  622MOL0     H83933   8.158   9.188   3.971 -0.7655  0.9044  0.5212
  622MOL0     H83934   7.833   9.059   3.655 -0.4601 -0.2337 -2.5898
  622MOL0     H83935   7.630   8.965   3.661  0.1055 -0.3986  0.8258
  622MOL0     H83936   7.374   8.937   3.621 -0.0552  1.6846 -0.6589
  622MOL0     H83937   7.431   8.852   3.764 -1.0533 -2.2070 -2.3602
  622MOL0     H83938   7.212   8.861   3.871  1.4026 -1.5758 -0.5441
  622MOL0     H83939   7.160   8.980   3.753 -0.2913  0.9968  0.2963
  622MOL0     H83940   7.236   8.689   3.691  0.0966  0.7165  0.2851
  622MOL0     H83941   7.175   8.794   3.568 -0.4966 -4.2151 -2.2053
  622MOL0     H83942   7.003   8.633   3.692  2.9882 -0.4556  0.2356
  622MOL0     H83943   7.015   8.728   3.840  1.3423 -2.2302  1.0821
  622MOL0     H83944   6.970   8.880   3.576 -5.5464 -0.8218 -2.6851
  622MOL0     H83945   6.937   8.939   3.740 -3.3494  2.1494 -1.5231
  622MOL0     H83946   6.741   8.897   3.583 -2.1306 -2.8235 -1.4649
  622MOL0     H83947   6.775   8.729   3.616  0.7396  0.4176  0.4651
  622MOL0     H83948   6.745   8.812   3.868 -0.8648 -1.4865 -0.6496
  622MOL0     H83949   6.605   8.784   3.756  0.4742 -0.9107  2.1079
  622MOL0     H83950   6.569   9.017   3.730 -0.1736 -0.5654  0.4143
  622MOL0     H83951   6.737   9.053   3.768 -0.0373 -1.8551 -3.7702
  622MOL0     H83952   7.469   9.272   3.914 -1.6435 -1.5556 -3.0863
  622MOL0     H83953   7.704   9.380   3.904  1.3451  0.7176 -2.5961
  622MOL0     H83954   8.023   9.541   3.689 -0.4238 -0.1802 -0.9263
  622MOL0     H83955   8.229   9.635   3.610 -3.7425 -2.2063 -1.7999
  622MOL0     H83956   9.989   9.550   2.842 -0.2507  1.8357 -0.0171
  622MOL0     H83957  10.208   9.666   2.795  0.9045  1.6324  1.3197
  622MOL0     H83958  10.785   9.537   3.074  4.4053  0.8931 -0.8663
  622MOL0     H83959  10.976   9.689   3.113  0.5407  0.5669 -0.9216
  622MOL0     H83960  10.934  10.114   3.042 -1.0912 -0.5477  0.9089
  622MOL0     H83961  10.912  10.111   3.227  0.3823 -0.5256  1.6953
  622MOL0     H83962  11.080  10.228   3.229 -3.0814 -0.9294 -0.0345
  622MOL0     H83963  11.155  10.172   3.068 -0.2820 -0.7402  0.0922
  622MOL0     H83964  11.252   9.973   3.180 -0.2973 -1.5092  0.8958
  622MOL0     H83965  11.146  10.021   3.323 -1.2110  0.7161 -0.6352
  622MOL0     H83966  11.385  10.074   3.353  1.0927  2.3724  0.8917
  622MOL0     H83967  11.286  10.220   3.349  1.7676  0.3714 -0.1682
  622MOL0     H83968  11.530  10.251   3.002 -0.0466  4.2636  1.2252
  622MOL0     H83969  10.725  10.030   3.085  1.4390  0.2569  0.1136
  622MOL0     H83970  10.545   9.891   3.006  1.1424  1.0268 -1.8837
  623MOL0     O83971  10.992   3.566   3.719  0.3582  0.1059 -0.2754
  623MOL0     C83972  11.047   3.524   3.622  0.0373  0.0223  0.3915
  623MOL0     O83973  10.990   3.465   3.509 -0.5548 -0.2035  0.0640
  623MOL0     C83974  10.860   3.465   3.508  0.7182  0.0440 -0.3268
  623MOL0     C83975  10.796   3.580   3.446 -0.6732  0.0762  0.0232
  623MOL0     C83976  10.652   3.569   3.433  0.0035  1.0001 -0.2379
  623MOL0     C83977  10.579   3.456   3.479 -0.4202 -0.6198 -0.0118
  623MOL0     O83978  10.440   3.463   3.454 -1.8417  0.1285 -0.6904
  623MOL0     C83979  10.363   3.340   3.438 -0.4669 -0.0693 -0.1713
  623MOL0     C83980  10.376   3.262   3.302  0.3642  0.0315  0.9564
  623MOL0     C83981  10.317   3.369   3.194  0.3107 -0.0986 -0.6729
  623MOL0     C83982  10.321   3.312   3.048  0.1200 -0.5322 -0.5399
  623MOL0     C83983  10.271   3.407   2.943  0.6827  1.0396  1.0432
  623MOL0     C83984  10.215   3.329   2.830  0.9358 -0.5015 -0.1680
  623MOL0     C83985  10.313   3.234   2.764  0.6173  0.3870  0.2699
  623MOL0     C83986  10.229   3.134   2.671 -0.3478 -0.4113 -0.3199
  623MOL0     N83987  10.186   3.212   2.550  0.2033  0.1517 -0.5080
  623MOL0     C83988  10.056   3.237   2.521 -0.2335  0.5557 -0.6688
  623MOL0     C83989  10.054   3.340   2.433  0.1655 -0.9583  0.2119
  623MOL0     C83990   9.927   3.410   2.389 -0.2990 -0.5096  0.0107
  623MOL0     C83991   9.917   3.442   2.236 -1.2161  0.0037 -0.3611
  623MOL0     C83992   9.931   3.333   2.128 -0.6968 -0.4687  0.1319
  623MOL0     C83993   9.847   3.208   2.155  0.1854  0.7135  0.0601
  623MOL0     O83994   9.703   3.225   2.151 -0.2524 -0.0764  0.4990
  623MOL0     C83995   9.636   3.231   2.034  0.0399 -0.6940  0.4233
  623MOL0     C83996   9.499   3.252   2.049  0.0740 -0.1257 -0.5582
  623MOL0     C83997   9.410   3.254   1.936 -0.5641  1.0510 -0.2923
  623MOL0     C83998   9.256   3.262   1.966 -0.7594  0.3985 -0.0472
  623MOL0     C83999   9.471   3.232   1.804  0.7978  0.0353 -0.8367
  623MOL0     C84000   9.396   3.221   1.678  0.3911  0.5541 -0.4701
  623MOL0     O84001   9.270   3.268   1.692 -0.7967  0.8171 -0.0350
  623MOL0     C84002   9.191   3.265   1.576 -0.9738  0.4351  0.2318
  623MOL0     C84003   9.161   3.141   1.507  0.1337  0.1578 -0.2530
  623MOL0     C84004   9.064   3.143   1.406 -0.2582 -0.2667 -0.6128
  623MOL0     C84005   8.995   3.260   1.373 -0.0799 -0.1195 -0.1787
  623MOL0     O84006   8.893   3.264   1.277  0.0560  0.4913 -0.3746
  623MOL0     C84007   8.842   3.142   1.221 -0.3108  0.2351 -0.1028
  623MOL0     C84008   8.713   3.169   1.149 -0.1468  1.2250  0.2655
  623MOL0     C84009   8.631   3.038   1.111  0.1321  0.4380 -0.7333
  623MOL0     C84010   8.503   3.066   1.029 -0.0505  0.6771 -0.1169
  623MOL0     C84011   8.453   2.946   0.943  1.4820  0.4491  0.7004
  623MOL0     C84012   8.319   2.985   0.886 -0.1467 -0.8575 -0.4335
  623MOL0     C84013   8.255   2.884   0.791 -0.6199  0.1743  1.2407
  623MOL0     C84014   8.150   2.945   0.693  0.1046 -0.3349 -0.1461
  623MOL0    Cl84015   8.221   3.035   0.561  0.2472  0.4778  0.3092
  623MOL0     C84016   9.024   3.379   1.447  0.3047 -0.0272  0.2862
  623MOL0     C84017   9.122   3.385   1.539  0.0243  0.3140 -0.7216
  623MOL0     O84018   9.444   3.161   1.575  0.6296  0.0709  0.5085
  623MOL0     C84019   9.617   3.223   1.793  1.1397 -0.5281 -0.0517
  623MOL0     C84020   9.692   3.222   1.911  0.4976 -0.6616 -0.1704
  623MOL0     N84021  10.183   3.361   2.390  0.6863 -0.2215  0.2725
  623MOL0     N84022  10.255   3.285   2.456 -0.7546 -0.5405 -0.1733
  623MOL0     C84023  10.656   3.351   3.533  0.7282  1.0289 -0.0355
  623MOL0     C84024  10.791   3.350   3.540 -0.8676  0.4676  0.4946
  623MOL0     C84025  11.189   3.543   3.614  0.0157  0.7289  0.5778
  623MOL0     C84026  11.271   3.556   3.723 -0.1265  0.4581 -0.3434
  623MOL0     C84027  11.413   3.567   3.714 -0.9145  0.0801  0.4075
  623MOL0     C84028  11.471   3.571   3.580  0.1618  1.0953 -0.6132
  623MOL0     O84029  11.611   3.579   3.587  0.1782  0.0292  0.2580
  623MOL0     C84030  11.680   3.617   3.462 -0.0834 -0.0754 -0.4205
  623MOL0     C84031  11.817   3.674   3.489  0.2347  0.9744  0.1906
  623MOL0     C84032  11.880   3.749   3.377 -0.0301  1.8179  0.2085
  623MOL0     C84033  11.918   3.668   3.246  0.0416 -0.8272 -0.5841
  623MOL0     C84034  11.990   3.749   3.143  0.3541 -0.5518  0.0111
  623MOL0     C84035  12.028   3.823   3.053 -0.0945  0.5419  0.1176
  623MOL0     C84036  11.385   3.556   3.469  0.3711 -0.5333  0.6144
  623MOL0     C84037  11.248   3.535   3.485  0.2342 -0.3133  0.5216
  623MOL0     H84038  10.857   3.658   3.403  0.2860 -1.0194 -0.6808
  623MOL0     H84039  10.599   3.652   3.386  1.0084  2.7957  1.6699
  623MOL0     H84040  10.406   3.271   3.511 -0.4266 -1.3995 -1.4167
  623MOL0     H84041  10.258   3.367   3.454 -0.8057  0.0077 -2.2567
  623MOL0     H84042  10.480   3.235   3.280  0.0798  0.2715 -0.7742
  623MOL0     H84043  10.314   3.173   3.294  1.4258 -0.6363 -0.1937
  623MOL0     H84044  10.214   3.393   3.221  0.2417  0.9894 -1.8040
  623MOL0     H84045  10.371   3.463   3.183  2.1446 -1.1751 -1.2961
  623MOL0     H84046  10.426   3.304   3.021 -0.0080  0.9636 -1.6182
  623MOL0     H84047  10.280   3.211   3.046 -0.3016 -0.6632  3.7722
  623MOL0     H84048  10.196   3.477   2.981 -0.2562 -0.0513  1.2658
  623MOL0     H84049  10.362   3.458   2.913  0.8988  0.0625 -0.0224
  623MOL0     H84050  10.123   3.281   2.864 -0.4560  1.7356 -0.6025
  623MOL0     H84051  10.186   3.399   2.751  1.1977 -0.5152 -0.2810
  623MOL0     H84052  10.398   3.290   2.723 -0.8125  1.5213 -1.2718
  623MOL0     H84053  10.354   3.167   2.840 -1.5306 -1.9152 -0.4589
  623MOL0     H84054  10.130   3.117   2.715 -0.8738  2.7936  0.0039
  623MOL0     H84055  10.287   3.044   2.652  1.6047  1.2232 -2.8299
  623MOL0     H84056   9.964   3.202   2.568 -0.2866  2.3231  0.6653
  623MOL0     H84057   9.836   3.357   2.418 -2.1483  2.7763  0.6159
  623MOL0     H84058   9.917   3.505   2.442 -0.8204  0.3579 -1.5628
  623MOL0     H84059   9.999   3.513   2.218 -1.4676  1.4791  3.3654
  623MOL0     H84060   9.834   3.510   2.214 -1.0063  0.9299  1.4882
  623MOL0     H84061  10.033   3.298   2.110 -1.2412 -0.9072 -2.5756
  623MOL0     H84062   9.900   3.382   2.035  1.7484 -0.8750 -0.9789
  623MOL0     H84063   9.870   3.161   2.251  0.9936  1.2693  0.1545
  623MOL0     H84064   9.879   3.136   2.079 -1.7024  0.9766 -1.0466
  623MOL0     H84065   9.459   3.266   2.149 -0.9308  5.6108 -1.4272
  623MOL0     H84066   9.236   3.254   2.073  0.1626 -0.3396  0.0777
  623MOL0     H84067   9.217   3.360   1.934 -1.1297  0.8562  1.6822
  623MOL0     H84068   9.198   3.181   1.920  1.2202 -0.5810 -0.9178
  623MOL0     H84069   9.205   3.050   1.547  1.8720 -0.0493 -2.4759
  623MOL0     H84070   9.040   3.065   1.335 -4.3723  1.7791 -1.7761
  623MOL0     H84071   8.920   3.085   1.170 -2.1659 -1.1419 -1.5891
  623MOL0     H84072   8.803   3.082   1.304 -0.3285 -0.4175 -0.5744
  623MOL0     H84073   8.640   3.227   1.206 -1.2369 -1.5052  1.8295
  623MOL0     H84074   8.744   3.214   1.054  0.6815 -1.3972 -0.8108
  623MOL0     H84075   8.590   2.988   1.199 -4.6187  2.9813 -1.1589
  623MOL0     H84076   8.691   2.960   1.063 -0.6564 -0.2617 -0.5992
  623MOL0     H84077   8.431   3.084   1.110  0.1483 -0.5871  0.3630
  623MOL0     H84078   8.515   3.152   0.962 -0.4760 -1.4991 -3.1662
  623MOL0     H84079   8.446   2.859   1.008  2.8992  1.4583  2.2951
  623MOL0     H84080   8.516   2.923   0.857 -2.0526 -0.9239 -1.7769
  623MOL0     H84081   8.250   3.000   0.970  0.7388  0.6714  0.0531
  623MOL0     H84082   8.341   3.075   0.828  1.5731 -0.0859  1.3207
  623MOL0     H84083   8.196   2.816   0.853 -1.5783 -1.0686 -0.9368
  623MOL0     H84084   8.326   2.821   0.736 -1.5500  0.4056 -0.2812
  623MOL0     H84085   8.099   3.019   0.756  0.2701 -0.9223  0.6892
  623MOL0     H84086   8.081   2.871   0.651  0.9717 -0.3703 -1.5707
  623MOL0     H84087   8.964   3.467   1.426  1.4751  0.3331 -1.8792
  623MOL0     H84088   9.145   3.475   1.594  1.3109  0.3518 -1.2825
  623MOL0     H84089   9.671   3.225   1.698 -0.4938  0.3199 -1.0042
  623MOL0     H84090   9.800   3.229   1.899  0.5004 -2.0772 -1.1626
  623MOL0     H84091  10.604   3.266   3.576  3.4752 -0.8824 -0.2258
  623MOL0     H84092  10.835   3.264   3.589 -1.7881 -0.7446 -0.7489
  623MOL0     H84093  11.240   3.548   3.827 -1.0216  0.7951 -0.5816
  623MOL0     H84094  11.479   3.562   3.800  1.5832 -0.8285 -1.4608
  623MOL0     H84095  11.680   3.530   3.396 -1.7116 -0.6257  0.2549
  623MOL0     H84096  11.625   3.700   3.416  2.4222  1.6031 -0.6135
  623MOL0     H84097  11.882   3.588   3.508 -0.1919  0.5911 -0.0478
  623MOL0     H84098  11.814   3.731   3.582 -3.1260  0.3820  0.5928
  623MOL0     H84099  11.968   3.788   3.428 -0.0067  2.0391  0.0020
  623MOL0     H84100  11.817   3.837   3.361 -0.8551  1.5042  1.5324
  623MOL0     H84101  11.833   3.607   3.213 -0.1028 -1.2192  0.4658
  623MOL0     H84102  11.993   3.592   3.273 -0.2277  0.0872  3.4634
  623MOL0     H84103  12.066   3.898   2.986 -0.2671  0.4362 -0.1012
  623MOL0     H84104  11.421   3.565   3.367 -0.7255 -0.0248  0.2554
  623MOL0     H84105  11.185   3.525   3.397  1.5751  2.4576 -0.8995
  624MOL0     O84106   3.954   7.796  10.851 -0.2996  0.3223 -0.4441
  624MOL0     C84107   4.066   7.794  10.795  0.5772  0.1941 -0.3242
  624MOL0     O84108   4.169   7.715  10.837 -0.2761  0.5497 -0.2896
  624MOL0     C84109   4.152   7.635  10.950 -0.4048 -0.1988  0.4493
  624MOL0     C84110   4.052   7.544  10.957  0.0830  0.2536 -0.0480
  624MOL0     C84111   4.035   7.456  11.067 -0.1961 -0.1865  0.6978
  624MOL0     C84112   4.137   7.462  11.161 -0.3188 -0.6397 -1.3909
  624MOL0     O84113   4.135   7.389  11.284  0.3175 -0.0352 -0.3717
  624MOL0     C84114   4.107   7.248  11.278 -0.0269 -0.7362 -0.3614
  624MOL0     C84115   4.224   7.166  11.214 -0.8859 -0.8106  0.0250
  624MOL0     C84116   4.341   7.192  11.304 -0.3381  0.2210 -0.1318
  624MOL0     C84117   4.479   7.146  11.251  0.0028  0.6286 -1.2691
  624MOL0     C84118   4.567   7.093  11.366  0.3484 -0.1702  0.3343
  624MOL0     C84119   4.709   7.095  11.318  0.0222  0.1722 -0.2938
  624MOL0     C84120   4.816   7.061  11.421  0.6117  0.6087 -0.1729
  624MOL0     C84121   4.801   6.918  11.493  0.6428  0.0199  0.2493
  624MOL0     N84122   4.900   6.903  11.594 -0.1296 -0.7085  0.6299
  624MOL0     C84123   5.042   6.907  11.566 -0.5288 -0.3762  0.5631
  624MOL0     C84124   5.091   6.898  11.690 -0.7259  0.4451 -0.0230
  624MOL0     C84125   5.233   6.886  11.718  0.1269 -0.1607  0.1282
  624MOL0     C84126   5.260   6.742  11.726 -0.7381  0.0642 -0.8001
  624MOL0     C84127   5.407   6.709  11.704  0.1319  0.4465 -0.8193
  624MOL0     C84128   5.495   6.774  11.809 -0.0899 -0.0006 -0.0270
  624MOL0     O84129   5.468   6.750  11.948  0.6308  0.1848  0.1798
  624MOL0     C84130   5.551   6.811  12.036  0.1268  0.5014  0.4412
  624MOL0     C84131   5.508   6.797  12.168 -0.1877 -0.4517 -1.0799
  624MOL0     C84132   5.583   6.852  12.272 -0.0224  0.5428 -0.7227
  624MOL0     C84133   5.520   6.854  12.417 -0.0357 -0.3405 -0.1415
  624MOL0     C84134   5.710   6.897  12.242  0.5839 -0.0833 -0.2054
  624MOL0     C84135   5.796   6.952  12.347 -0.2617  0.3264  0.1209
  624MOL0     O84136   5.752   7.058  12.419  0.1143  0.0218 -0.2020
  624MOL0     C84137   5.846   7.125  12.486  0.2234  1.0579  0.5853
  624MOL0     C84138   5.894   7.248  12.427  0.3545  0.1978 -0.7696
  624MOL0     C84139   6.001   7.321  12.488 -0.0730  0.7380 -0.1942
  624MOL0     C84140   6.053   7.276  12.612 -0.9001 -0.7352 -0.1590
  624MOL0     O84141   6.149   7.349  12.680  0.0189  0.2842  0.1568
  624MOL0     C84142   6.168   7.483  12.625  0.0786  0.9603 -0.9212
  624MOL0     C84143   6.244   7.555  12.728  0.8173  0.2988  0.0348
  624MOL0     C84144   6.171   7.610  12.851 -0.8156 -0.3530  0.3879
  624MOL0     C84145   6.286   7.661  12.946 -0.2811  0.3534  0.4514
  624MOL0     C84146   6.239   7.760  13.046  0.3865  0.2689 -0.6316
  624MOL0     C84147   6.341   7.785  13.171  0.2097  1.1567  0.6857
  624MOL0     C84148   6.356   7.660  13.260 -0.3883 -0.0768 -0.7516
  624MOL0     C84149   6.333   7.696  13.412  0.3106  0.8595 -0.3152
  624MOL0    Cl84150   6.283   7.545  13.489  0.4569  0.0791 -0.1296
  624MOL0     C84151   6.008   7.154  12.661  0.2917  0.5159  0.2495
  624MOL0     C84152   5.910   7.075  12.595 -0.1166 -0.0809 -0.0086
  624MOL0     O84153   5.911   6.904  12.337 -0.2754  0.0846 -0.4472
  624MOL0     C84154   5.755   6.905  12.111 -0.6204 -0.3248  0.1953
  624MOL0     C84155   5.680   6.851  12.008  0.1964 -0.1185 -0.3340
  624MOL0     N84156   4.998   6.893  11.785 -0.0216 -1.3317  0.8807
  624MOL0     N84157   4.884   6.897  11.730  0.7932  0.5474  0.0471
  624MOL0     C84158   4.236   7.557  11.163  0.6284 -0.1459  0.5592
  624MOL0     C84159   4.248   7.642  11.049  1.1230 -0.9794 -0.1715
  624MOL0     C84160   4.103   7.870  10.675 -0.2004 -0.1623 -0.4768
  624MOL0     C84161   4.000   7.948  10.619  0.4201 -0.9077  0.4527
  624MOL0     C84162   4.035   8.024  10.499 -0.1476 -0.0763  0.7860
  624MOL0     C84163   4.164   8.024  10.443  0.8502  0.7755 -1.2870
  624MOL0     O84164   4.207   8.107  10.351  0.1313  0.3400  0.9159
  624MOL0     C84165   4.247   8.045  10.223  0.7398 -0.0983  0.1173
  624MOL0     C84166   4.274   8.163  10.114  0.6208 -0.2242  0.4463
  624MOL0     C84167   4.409   8.243  10.131  0.2621  0.0002  0.3539
  624MOL0     C84168   4.522   8.208  10.029  0.1328 -0.5540 -0.5613
  624MOL0     C84169   4.500   8.299   9.912 -0.0870  0.4737  0.4325
  624MOL0     C84170   4.497   8.373   9.817  0.8484 -0.5352  0.7492
  624MOL0     C84171   4.251   7.936  10.502 -0.0061  0.1932 -0.0068
  624MOL0     C84172   4.228   7.868  10.617 -0.1699 -0.7716  0.1375
  624MOL0     H84173   3.979   7.549  10.878  0.6059 -0.0141 -0.5517
  624MOL0     H84174   3.954   7.383  11.073  1.2538 -2.2261 -2.1019
  624MOL0     H84175   4.074   7.210  11.376  1.4170 -0.5967  0.1943
  624MOL0     H84176   4.015   7.241  11.218  0.6345  2.1588 -1.9154
  624MOL0     H84177   4.208   7.058  11.207  0.0725 -0.8609 -2.8667
  624MOL0     H84178   4.252   7.201  11.114  3.8432 -1.0337  1.0399
  624MOL0     H84179   4.341   7.296  11.336 -2.4626  0.4549 -0.7864
  624MOL0     H84180   4.316   7.123  11.385  1.2948 -0.9439 -0.5534
  624MOL0     H84181   4.452   7.064  11.183 -1.3379  0.9013 -1.1050
  624MOL0     H84182   4.537   7.229  11.211  0.5689  3.0584  3.8171
  624MOL0     H84183   4.553   7.158  11.453  1.4643  1.5922 -0.7623
  624MOL0     H84184   4.538   6.988  11.379 -1.2348 -0.2874 -3.0252
  624MOL0     H84185   4.716   7.030  11.231 -1.3632 -2.0501  1.1626
  624MOL0     H84186   4.732   7.199  11.290  0.2158 -0.0032 -0.8044
  624MOL0     H84187   4.916   7.061  11.377  1.1299 -3.4879  0.5820
  624MOL0     H84188   4.819   7.138  11.499 -0.7483 -0.6047  1.1571
  624MOL0     H84189   4.790   6.836  11.422 -1.0192 -0.1649  0.6844
  624MOL0     H84190   4.707   6.920  11.549  1.0066 -0.0026  0.8798
  624MOL0     H84191   5.099   6.934  11.477  3.8470  1.8433  3.6937
  624MOL0     H84192   5.295   6.926  11.638 -1.4274  0.3075 -0.8866
  624MOL0     H84193   5.258   6.942  11.809 -0.0990 -0.1299  0.1729
  624MOL0     H84194   5.211   6.684  11.647 -4.9384  1.3370  0.5734
  624MOL0     H84195   5.216   6.699  11.817  1.5309 -1.9868 -0.5866
  624MOL0     H84196   5.451   6.745  11.610 -1.1436 -2.9116 -2.8790
  624MOL0     H84197   5.428   6.605  11.730  0.0069  1.0784  2.2019
  624MOL0     H84198   5.487   6.880  11.781  0.3930  0.5982  1.9401
  624MOL0     H84199   5.594   6.738  11.778  0.5502  1.2026  0.5465
  624MOL0     H84200   5.419   6.739  12.190 -1.1011  1.9684  2.4532
  624MOL0     H84201   5.472   6.953  12.425  1.5893  0.3268  3.8776
  624MOL0     H84202   5.455   6.770  12.440  1.5670 -2.0922 -1.6265
  624MOL0     H84203   5.589   6.843  12.501 -0.2149  1.6361  0.3171
  624MOL0     H84204   5.847   7.274  12.332 -1.5057 -0.6862 -0.1430
  624MOL0     H84205   6.037   7.413  12.442 -1.2904  3.0380  3.0716
  624MOL0     H84206   6.211   7.484  12.524 -0.0614  1.7168 -0.9813
  624MOL0     H84207   6.074   7.539  12.616 -0.5242  0.4592  1.6525
  624MOL0     H84208   6.326   7.489  12.757 -0.0403 -0.2511  1.3083
  624MOL0     H84209   6.293   7.634  12.671  2.1967 -0.1311  0.5790
  624MOL0     H84210   6.110   7.537  12.906 -0.8927  0.5706  1.5525
  624MOL0     H84211   6.092   7.680  12.823  0.0379  0.5767  0.2728
  624MOL0     H84212   6.323   7.573  13.000 -2.8505 -0.6173  0.7630
  624MOL0     H84213   6.363   7.707  12.883 -2.0457  5.0609  1.3333
  624MOL0     H84214   6.140   7.732  13.082  0.4558  1.1030  0.2608
  624MOL0     H84215   6.233   7.858  12.999  0.8490 -0.0150 -1.3129
  624MOL0     H84216   6.437   7.816  13.127 -0.9113  2.0683 -1.2768
  624MOL0     H84217   6.319   7.875  13.229 -0.9840  0.4101  1.4238
  624MOL0     H84218   6.458   7.624  13.241 -0.8589 -0.5850 -2.4610
  624MOL0     H84219   6.282   7.585  13.232  1.0586 -0.7423 -3.1144
  624MOL0     H84220   6.247   7.765  13.413 -1.4544 -1.1007 -3.1043
  624MOL0     H84221   6.414   7.752  13.458  1.4099 -1.6387  0.9641
  624MOL0     H84222   6.055   7.115  12.751 -1.1546 -1.9943  0.0289
  624MOL0     H84223   5.869   6.980  12.627 -0.9864  0.7736  1.5521
  624MOL0     H84224   5.857   6.939  12.099 -1.3204  2.9832  2.4696
  624MOL0     H84225   5.720   6.854  11.907  2.9433 -0.1384  0.6887
  624MOL0     H84226   4.313   7.564  11.240  0.0129  1.6531  1.0574
  624MOL0     H84227   4.322   7.720  11.031  0.9722 -0.8399 -0.1941
  624MOL0     H84228   3.899   7.967  10.653  0.8014  0.8405  0.7052
  624MOL0     H84229   3.962   8.082  10.443 -0.9905 -2.8841 -1.2857
  624MOL0     H84230   4.334   7.979  10.226  0.8200 -0.3155 -3.0703
  624MOL0     H84231   4.157   7.985  10.205  0.6212 -0.0365  0.4991
  624MOL0     H84232   4.181   8.220  10.108  1.5740  1.5963  1.9266
  624MOL0     H84233   4.290   8.114  10.018  2.2193  1.5369 -0.2466
  624MOL0     H84234   4.433   8.239  10.237 -2.2868  0.1032  0.9932
  624MOL0     H84235   4.374   8.345  10.111 -1.4320  0.0702  3.1829
  624MOL0     H84236   4.524   8.101  10.005 -0.9503 -0.6852 -0.1127
  624MOL0     H84237   4.616   8.233  10.079 -2.1921  0.2647  3.8848
  624MOL0     H84238   4.476   8.424   9.725  1.8286 -2.4007 -0.5849
  624MOL0     H84239   4.352   7.936  10.463  0.7224 -1.0021  1.7491
  624MOL0     H84240   4.307   7.810  10.665  1.3405  1.1269  0.0930
  625MOL0     O84241   9.686   9.668   8.402  0.5896  0.2584  0.2623
  625MOL0     C84242   9.723   9.605   8.297  0.0659 -0.8862  0.0385
  625MOL0     O84243   9.642   9.528   8.216 -0.1254 -0.5151 -0.5447
  625MOL0     C84244   9.509   9.521   8.221  0.6687  0.0621 -0.6718
  625MOL0     C84245   9.427   9.622   8.269 -1.0535 -0.0617  0.0662
  625MOL0     C84246   9.287   9.594   8.261 -0.2282 -0.1106  0.2223
  625MOL0     C84247   9.241   9.470   8.209  0.0484  0.7494  0.2337
  625MOL0     O84248   9.116   9.456   8.164  0.0517 -0.3227 -0.1395
  625MOL0     C84249   9.080   9.550   8.054 -0.5357  0.1070 -0.6776
  625MOL0     C84250   8.972   9.638   8.112 -0.6456 -0.1911 -0.1386
  625MOL0     C84251   8.918   9.748   8.017  0.1805  0.3208  0.8641
  625MOL0     C84252   8.802   9.829   8.076  0.1168  0.1698 -1.2137
  625MOL0     C84253   8.728   9.921   7.980  0.2836 -0.3081  1.2761
  625MOL0     C84254   8.639  10.026   8.049 -0.3543  0.8218 -0.8654
  625MOL0     C84255   8.541   9.986   8.154 -0.5722 -0.6565  0.2471
  625MOL0     C84256   8.431   9.891   8.097 -0.6928 -0.0720 -0.7771
  625MOL0     N84257   8.343   9.949   8.005  0.3752  0.0507  0.0730
  625MOL0     C84258   8.244  10.028   8.040  0.9305 -0.3972 -0.0883
  625MOL0     C84259   8.165  10.039   7.934 -0.9113  0.1987 -0.5325
  625MOL0     C84260   8.030  10.101   7.913  0.0020 -0.9018  1.3079
  625MOL0     C84261   7.988  10.229   7.972  0.0983  0.7941 -0.6866
  625MOL0     C84262   7.886  10.296   7.879 -0.3664  0.0888 -0.8530
  625MOL0     C84263   7.839  10.431   7.937 -1.2010  0.5463 -0.6384
  625MOL0     O84264   7.752  10.415   8.048  0.2922 -0.3450  0.2561
  625MOL0     C84265   7.632  10.361   8.010 -0.6746  0.2332  0.0348
  625MOL0     C84266   7.544  10.432   7.922  0.5257 -0.1660 -0.5722
  625MOL0     C84267   7.417  10.385   7.899 -0.3096  0.3225  0.6266
  625MOL0     C84268   7.339  10.443   7.786 -0.2920  0.6923 -0.3258
  625MOL0     C84269   7.373  10.266   7.964  0.1653 -0.8254 -1.0698
  625MOL0     C84270   7.236  10.226   7.946  1.1683  0.2803  0.1442
  625MOL0     O84271   7.218  10.092   7.936  0.6418  0.8357  0.2258
  625MOL0     C84272   7.103  10.025   7.931  0.1382 -0.4131 -0.3950
  625MOL0     C84273   7.027  10.028   7.810 -0.1918  0.1379 -0.5538
  625MOL0     C84274   6.912   9.948   7.803 -0.1448 -0.0150  0.0422
  625MOL0     C84275   6.870   9.870   7.918  0.4956 -0.7029 -0.8307
  625MOL0     O84276   6.768   9.779   7.902 -0.2650  0.6180 -1.3818
  625MOL0     C84277   6.633   9.834   7.914 -0.3496  0.6057  0.9814
  625MOL0     C84278   6.528   9.737   7.860  1.2828  0.3220  0.6325
  625MOL0     C84279   6.504   9.606   7.938  0.4828  0.3134  0.4120
  625MOL0     C84280   6.395   9.627   8.047  0.4981 -0.2323 -0.3711
  625MOL0     C84281   6.438   9.712   8.174  0.0014  0.7288  0.2051
  625MOL0     C84282   6.338   9.694   8.284 -0.0749 -0.3386  1.1620
  625MOL0     C84283   6.384   9.768   8.413 -0.2725 -0.1014  0.5952
  625MOL0     C84284   6.293   9.735   8.530 -0.4315  1.1591 -0.1119
  625MOL0    Cl84285   6.125   9.786   8.506 -0.1337  0.2070  0.2111
  625MOL0     C84286   6.945   9.872   8.033 -0.7201  0.0891 -0.0384
  625MOL0     C84287   7.059   9.951   8.040 -0.7758 -0.3537 -0.6749
  625MOL0     O84288   7.149  10.313   7.957 -0.8120 -0.3829 -1.0123
  625MOL0     C84289   7.460  10.198   8.052  1.4085 -0.2872 -0.3661
  625MOL0     C84290   7.591  10.245   8.078 -0.6689 -0.3743  1.0270
  625MOL0     N84291   8.217   9.967   7.832 -0.1321  0.5391 -1.0244
  625MOL0     N84292   8.331   9.916   7.869  0.3405 -0.5465  0.3330
  625MOL0     C84293   9.327   9.365   8.178  0.3848  0.1830  0.4576
  625MOL0     C84294   9.458   9.391   8.181  0.1581  0.7744  0.9322
  625MOL0     C84295   9.866   9.591   8.277  0.0399  0.2340  0.2066
  625MOL0     C84296   9.926   9.529   8.167  0.4561  0.1455  0.2257
  625MOL0     C84297  10.060   9.497   8.159 -0.4350  0.1106 -0.2083
  625MOL0     C84298  10.146   9.536   8.265  0.1292 -0.7219  0.8634
  625MOL0     O84299  10.279   9.507   8.265  0.0342  1.5164 -0.1152
  625MOL0     C84300  10.320   9.385   8.324  1.0324  0.7541  0.0812
  625MOL0     C84301  10.332   9.388   8.483  0.3503  0.4908  0.3941
  625MOL0     C84302  10.402   9.266   8.530 -0.0147 -0.1759  0.0143
  625MOL0     C84303  10.460   9.276   8.672 -1.1959 -0.0015  1.0849
  625MOL0     C84304  10.538   9.163   8.724  1.1879  0.8491  0.1397
  625MOL0     C84305  10.616   9.063   8.741 -0.1624  0.1796 -0.6437
  625MOL0     C84306  10.090   9.601   8.377 -0.9297  0.1706  0.4170
  625MOL0     C84307   9.955   9.628   8.383  0.5480  0.4537 -0.1794
  625MOL0     H84308   9.469   9.719   8.295 -1.4158  0.1249 -0.0394
  625MOL0     H84309   9.218   9.676   8.272 -1.0405 -0.3185 -2.4559
  625MOL0     H84310   9.172   9.598   8.019 -1.8716  0.0646 -4.7156
  625MOL0     H84311   9.047   9.489   7.970  1.6113 -3.7323  1.0066
  625MOL0     H84312   8.884   9.584   8.147 -1.5473  1.8026  0.7889
  625MOL0     H84313   9.019   9.680   8.201 -0.3030 -1.9263  0.5537
  625MOL0     H84314   8.999   9.810   7.975  1.9319 -2.5265 -0.2599
  625MOL0     H84315   8.871   9.692   7.936 -0.8422  0.3722  1.4106
  625MOL0     H84316   8.733   9.765   8.132  0.7109 -0.2142 -0.9125
  625MOL0     H84317   8.851   9.891   8.151 -0.2533  0.3785 -1.1437
  625MOL0     H84318   8.796   9.966   7.907  0.2721 -3.4059 -0.8203
  625MOL0     H84319   8.658   9.861   7.921  2.3990 -2.3058  0.6651
  625MOL0     H84320   8.708  10.097   8.097 -0.4903  1.5902 -1.7725
  625MOL0     H84321   8.579  10.081   7.976 -2.1059 -0.8897 -0.8010
  625MOL0     H84322   8.591   9.938   8.238  0.1573 -0.5327 -0.1096
  625MOL0     H84323   8.496  10.079   8.191  0.0187 -1.1437  2.2872
  625MOL0     H84324   8.376   9.838   8.175 -1.5003 -0.6828 -1.7302
  625MOL0     H84325   8.481   9.803   8.053 -1.5873 -0.4909 -0.9845
  625MOL0     H84326   8.217  10.062   8.139 -3.4943  1.3341 -1.6234
  625MOL0     H84327   8.014  10.099   7.804  0.8179 -1.1665  1.1815
  625MOL0     H84328   7.960  10.023   7.944  0.8495 -1.8126  0.9980
  625MOL0     H84329   8.068  10.305   7.970  1.1699 -0.2244  1.0168
  625MOL0     H84330   7.943  10.205   8.069  3.6173 -0.5717  0.7934
  625MOL0     H84331   7.796  10.237   7.863 -0.6372  0.5123 -0.9018
  625MOL0     H84332   7.925  10.306   7.777  0.1629 -4.1176 -1.2450
  625MOL0     H84333   7.799  10.491   7.855  1.2247 -0.1926 -2.5100
  625MOL0     H84334   7.924  10.483   7.983 -0.4741 -1.5216  0.5094
  625MOL0     H84335   7.580  10.525   7.880  4.0292 -1.1551 -0.0737
  625MOL0     H84336   7.280  10.527   7.826 -1.0106 -0.0946  0.2952
  625MOL0     H84337   7.398  10.483   7.703  3.4014  0.2812  1.8533
  625MOL0     H84338   7.269  10.378   7.733  0.7866  0.6889 -1.7900
  625MOL0     H84339   7.057  10.089   7.725 -0.3572 -0.1049 -0.7888
  625MOL0     H84340   6.861   9.957   7.708 -0.2373 -1.2232 -0.0495
  625MOL0     H84341   6.606   9.854   8.019  0.0381  2.3373  0.7936
  625MOL0     H84342   6.622   9.932   7.866 -3.4508  0.0584  0.3608
  625MOL0     H84343   6.434   9.787   7.836  2.0520  1.2675 -0.4757
  625MOL0     H84344   6.559   9.708   7.759  3.1464  1.1900  0.9087
  625MOL0     H84345   6.594   9.580   7.993 -1.4427 -0.4195  3.4914
  625MOL0     H84346   6.475   9.526   7.869 -0.6662  0.4559  0.7098
  625MOL0     H84347   6.311   9.683   8.006  0.0739  0.4357  1.3397
  625MOL0     H84348   6.360   9.532   8.088  3.8381 -2.0924 -1.4058
  625MOL0     H84349   6.452   9.818   8.151  0.2128  0.3015 -1.7880
  625MOL0     H84350   6.531   9.673   8.216 -1.0270 -0.1628  1.7591
  625MOL0     H84351   6.246   9.736   8.244 -0.1829 -1.8025 -0.2388
  625MOL0     H84352   6.327   9.587   8.308  2.3648 -0.7758  0.5679
  625MOL0     H84353   6.383   9.878   8.408  0.4820 -0.0158  1.8305
  625MOL0     H84354   6.487   9.744   8.441 -1.0744 -2.6354  1.5707
  625MOL0     H84355   6.331   9.787   8.619  1.5070  0.7585 -0.6586
  625MOL0     H84356   6.292   9.627   8.549 -1.3199  1.1752 -0.0190
  625MOL0     H84357   6.917   9.802   8.111  1.9665 -2.6758 -1.3536
  625MOL0     H84358   7.109   9.958   8.136 -1.3652  2.0437 -0.4732
  625MOL0     H84359   7.415  10.111   8.098  0.7326 -0.4562 -1.3098
  625MOL0     H84360   7.643  10.206   8.165  3.2256 -0.6724 -1.2298
  625MOL0     H84361   9.291   9.272   8.137  0.2582  1.1251 -1.7203
  625MOL0     H84362   9.523   9.316   8.137 -2.3128 -0.9698  0.0026
  625MOL0     H84363   9.869   9.481   8.089  0.2694 -2.1583  1.6695
  625MOL0     H84364  10.094   9.444   8.071 -3.9740  0.6234 -2.0805
  625MOL0     H84365  10.249   9.303   8.308  0.0283  1.2904  1.5943
  625MOL0     H84366  10.414   9.349   8.281  0.5247 -4.1897  2.3911
  625MOL0     H84367  10.232   9.404   8.523 -0.1425 -1.4803  0.0454
  625MOL0     H84368  10.398   9.469   8.513  0.3122  0.9498 -0.7107
  625MOL0     H84369  10.481   9.228   8.464  0.9676  2.2498 -0.3042
  625MOL0     H84370  10.322   9.191   8.525 -1.1596  1.0657 -3.9499
  625MOL0     H84371  10.386   9.312   8.744  1.2952  1.4908  3.0428
  625MOL0     H84372  10.538   9.353   8.674 -2.2431  1.1405 -0.0763
  625MOL0     H84373  10.680   8.981   8.769  0.0080  0.1669 -1.0531
  625MOL0     H84374  10.153   9.619   8.464 -2.1427  0.3208  1.2948
  625MOL0     H84375   9.920   9.670   8.477  1.8361  0.6255  0.2478
  626MOL0     O84376   7.011   9.302   6.732 -0.1687  0.2614 -0.4311
  626MOL0     C84377   7.100   9.254   6.664 -0.3763 -0.0883  1.4997
  626MOL0     O84378   7.082   9.157   6.569  0.0130  0.4371 -0.4457
  626MOL0     C84379   6.961   9.090   6.561  0.8935 -0.6541  0.5176
  626MOL0     C84380   6.863   9.131   6.463  0.2132  0.0503  0.1435
  626MOL0     C84381   6.751   9.060   6.435  0.0943 -1.0927 -0.4607
  626MOL0     C84382   6.718   8.959   6.525 -0.0453  0.6540  0.3816
  626MOL0     O84383   6.596   8.898   6.494  0.0056 -0.6152  0.0280
  626MOL0     C84384   6.547   8.797   6.590  0.5037  1.1225  0.1583
  626MOL0     C84385   6.403   8.761   6.549 -0.6313 -0.2440  0.6624
  626MOL0     C84386   6.300   8.866   6.545  0.5221 -0.5528 -0.0378
  626MOL0     C84387   6.175   8.812   6.471  0.2913  0.2024 -0.1592
  626MOL0     C84388   6.054   8.912   6.512  0.3393  0.5930 -0.3152
  626MOL0     C84389   5.942   8.887   6.417 -0.9001  0.2697 -0.2268
  626MOL0     C84390   5.818   8.963   6.455 -0.0887 -0.0364  0.7680
  626MOL0     C84391   5.692   8.917   6.374  0.1480  1.0209 -0.2136
  626MOL0     N84392   5.561   8.968   6.424  0.2756 -1.1699 -0.0367
  626MOL0     C84393   5.526   9.095   6.460  0.0128 -0.0643  0.2512
  626MOL0     C84394   5.396   9.077   6.495 -1.4142  0.1131  0.2486
  626MOL0     C84395   5.295   9.186   6.543 -0.2627 -0.6129  0.5956
  626MOL0     C84396   5.206   9.221   6.413 -0.2372  0.0423  1.0401
  626MOL0     C84397   5.085   9.125   6.426 -0.2230 -0.2218 -0.1626
  626MOL0     C84398   4.987   9.135   6.306  0.3251  0.1841  0.2089
  626MOL0     O84399   4.952   9.268   6.306  0.3365 -1.4407  0.2143
  626MOL0     C84400   4.855   9.306   6.221 -0.9963  0.1259  0.3067
  626MOL0     C84401   4.771   9.221   6.141  0.2790  0.2368 -0.3870
  626MOL0     C84402   4.671   9.276   6.061 -0.6520 -0.4057 -0.0655
  626MOL0     C84403   4.586   9.175   5.980 -1.0514  0.1366 -0.2895
  626MOL0     C84404   4.646   9.415   6.057 -0.9367 -0.0495 -0.1913
  626MOL0     C84405   4.527   9.484   5.991  0.2061 -0.1097  0.6177
  626MOL0     O84406   4.408   9.428   6.015 -0.5959 -0.1639  0.0721
  626MOL0     C84407   4.290   9.484   5.974  1.1342  0.2577 -0.2880
  626MOL0     C84408   4.190   9.391   5.999 -0.4285 -1.0828  0.8285
  626MOL0     C84409   4.062   9.404   5.950  0.3170 -0.1169 -0.1127
  626MOL0     C84410   4.033   9.528   5.889 -0.0575 -0.4316  0.1232
  626MOL0     O84411   3.908   9.552   5.851  0.2404 -0.4217 -0.2712
  626MOL0     C84412   3.844   9.682   5.835 -0.3461  0.7875  0.4451
  626MOL0     C84413   3.853   9.768   5.962 -0.0097 -0.3123 -0.6708
  626MOL0     C84414   3.775   9.713   6.082  0.5627  0.5664 -0.0698
  626MOL0     C84415   3.627   9.754   6.092  0.7559 -0.5127  0.3456
  626MOL0     C84416   3.592   9.893   6.151 -0.2821 -0.0197  0.1990
  626MOL0     C84417   3.447   9.911   6.212 -0.0988  1.5107  0.6917
  626MOL0     C84418   3.403   9.800   6.319  0.2151 -0.9330  0.3544
  626MOL0     C84419   3.285   9.862   6.409  0.0963 -0.1475  1.3353
  626MOL0    Cl84420   3.134   9.887   6.296  0.0185 -0.0887 -0.5446
  626MOL0     C84421   4.128   9.630   5.866  0.5768  0.7800 -1.0756
  626MOL0     C84422   4.257   9.606   5.916  0.2807  0.2500 -0.6303
  626MOL0     O84423   4.556   9.585   5.927 -0.4272 -0.1529  0.0640
  626MOL0     C84424   4.732   9.495   6.128  0.4949 -0.2672  0.2060
  626MOL0     C84425   4.832   9.442   6.210  0.2425  0.3020  0.0496
  626MOL0     N84426   5.358   8.942   6.479  0.3107  0.0433  0.2212
  626MOL0     N84427   5.454   8.878   6.443 -0.0048  0.3118  0.6234
  626MOL0     C84428   6.801   8.919   6.628 -0.3564  0.2891  0.0003
  626MOL0     C84429   6.926   8.984   6.645  0.2812 -0.6493  1.0030
  626MOL0     C84430   7.234   9.315   6.675 -0.0050 -0.3529 -0.6394
  626MOL0     C84431   7.330   9.299   6.571 -0.0468 -1.3107  0.8590
  626MOL0     C84432   7.463   9.337   6.592 -0.5880 -0.6090  0.2754
  626MOL0     C84433   7.502   9.401   6.715 -0.9863 -0.9212 -0.4536
  626MOL0     O84434   7.636   9.428   6.725 -0.2139 -0.4386  0.0711
  626MOL0     C84435   7.695   9.482   6.848 -0.2765  0.4057  0.1918
  626MOL0     C84436   7.837   9.513   6.816 -0.2091 -0.3458 -1.0176
  626MOL0     C84437   7.916   9.389   6.767 -0.5725 -0.1795 -0.3132
  626MOL0     C84438   8.061   9.412   6.763  0.0044 -0.4190  0.4782
  626MOL0     C84439   8.128   9.291   6.713  0.0907 -0.2073 -0.0904
  626MOL0     C84440   8.189   9.195   6.666 -0.4784 -0.5064  0.4663
  626MOL0     C84441   7.403   9.426   6.817  0.5198 -0.8889 -0.3406
  626MOL0     C84442   7.274   9.375   6.800 -0.4974 -0.1507 -0.0979
  626MOL0     H84443   6.880   9.217   6.398 -0.8322 -0.2286 -0.5291
  626MOL0     H84444   6.680   9.098   6.363  0.6663 -0.7627 -0.8601
  626MOL0     H84445   6.609   8.706   6.593 -3.7372 -2.1726 -1.5266
  626MOL0     H84446   6.551   8.845   6.689 -0.1783  3.1000 -0.7316
  626MOL0     H84447   6.415   8.713   6.452 -0.0513 -0.7411  0.9724
  626MOL0     H84448   6.364   8.674   6.604  0.0278 -1.3346 -0.5334
  626MOL0     H84449   6.265   8.882   6.648  0.9004 -1.0472  0.1750
  626MOL0     H84450   6.329   8.963   6.503 -1.6883 -0.6064 -1.8397
  626MOL0     H84451   6.193   8.798   6.364 -0.4056 -0.4257 -0.2078
  626MOL0     H84452   6.151   8.716   6.518 -1.1203  1.9438  2.9998
  626MOL0     H84453   6.029   8.892   6.616  2.8166  0.3913  0.3089
  626MOL0     H84454   6.099   9.011   6.507  2.0331 -0.1990 -2.7803
  626MOL0     H84455   5.979   8.911   6.317  1.3428  0.1880  0.5381
  626MOL0     H84456   5.913   8.782   6.424  4.0188 -1.4646 -1.8421
  626MOL0     H84457   5.815   8.959   6.564  2.1403  2.2442  1.0078
  626MOL0     H84458   5.834   9.069   6.435  1.1969 -0.1064  1.3779
  626MOL0     H84459   5.669   8.811   6.371 -2.0157  1.4108  0.7596
  626MOL0     H84460   5.690   8.942   6.267  0.2003 -1.1807 -0.7640
  626MOL0     H84461   5.576   9.191   6.464 -1.5747  0.8446 -0.7077
  626MOL0     H84462   5.238   9.155   6.631 -2.7918  1.5900 -0.1207
  626MOL0     H84463   5.350   9.275   6.573 -1.1758  0.6320 -1.2024
  626MOL0     H84464   5.269   9.201   6.326  0.3227  2.4786  0.8181
  626MOL0     H84465   5.167   9.323   6.403  1.0743  0.2966 -3.6471
  626MOL0     H84466   5.026   9.146   6.516 -1.1453  1.3495 -1.1079
  626MOL0     H84467   5.118   9.020   6.428 -1.8266 -0.7816 -1.2576
  626MOL0     H84468   4.899   9.071   6.311 -0.2754  0.8580 -1.3002
  626MOL0     H84469   5.045   9.106   6.217 -0.6069 -1.4030  0.0760
  626MOL0     H84470   4.785   9.113   6.142 -0.7391  0.0694  1.7745
  626MOL0     H84471   4.496   9.140   6.032 -1.7484 -1.2551 -2.3439
  626MOL0     H84472   4.557   9.233   5.892  0.1859  0.5449 -0.4439
  626MOL0     H84473   4.636   9.084   5.947 -1.1705 -0.2151  0.4801
  626MOL0     H84474   4.209   9.293   6.042 -3.3734 -3.4201 -2.5634
  626MOL0     H84475   3.993   9.321   5.959  0.7910 -0.5997 -0.8662
  626MOL0     H84476   3.894   9.733   5.753 -2.0850 -1.1243 -1.9713
  626MOL0     H84477   3.737   9.669   5.814 -0.9973  3.3050  1.8258
  626MOL0     H84478   3.954   9.777   6.004 -0.5070  0.4890  0.3989
  626MOL0     H84479   3.815   9.869   5.941 -1.9580 -1.1934 -1.5646
  626MOL0     H84480   3.816   9.745   6.178  0.7049  0.5757 -0.1331
  626MOL0     H84481   3.780   9.604   6.091 -0.9855  0.3433 -1.4561
  626MOL0     H84482   3.584   9.745   5.992 -0.5441 -2.1536  1.0158
  626MOL0     H84483   3.576   9.676   6.149 -1.0335  0.3863  0.0284
  626MOL0     H84484   3.615   9.973   6.079  0.0719 -0.1790  0.1312
  626MOL0     H84485   3.659   9.906   6.236  3.1402  3.1414 -2.6175
  626MOL0     H84486   3.434  10.015   6.242 -0.2661  1.3552  1.1617
  626MOL0     H84487   3.374   9.888   6.134  1.9718  0.9976 -1.2150
  626MOL0     H84488   3.489   9.770   6.380 -0.3765  1.8528  2.8486
  626MOL0     H84489   3.351   9.728   6.257  0.7500  1.7691 -3.6105
  626MOL0     H84490   3.315   9.962   6.443 -1.0774  1.4364 -1.9291
  626MOL0     H84491   3.272   9.793   6.493  0.6104 -3.4846 -1.1071
  626MOL0     H84492   4.105   9.724   5.817  2.6891  1.5584 -0.6877
  626MOL0     H84493   4.331   9.682   5.894 -0.9756  0.9085 -2.9111
  626MOL0     H84494   4.734   9.603   6.119  2.2444 -0.2341  0.7515
  626MOL0     H84495   4.902   9.515   6.250  1.5836 -1.5873  1.2967
  626MOL0     H84496   6.762   8.847   6.699 -0.3259  0.5217  0.2569
  626MOL0     H84497   6.998   8.952   6.719 -0.3351 -1.4844  1.2487
  626MOL0     H84498   7.303   9.236   6.487  0.8642 -1.3849  0.6089
  626MOL0     H84499   7.546   9.326   6.524  1.3148  2.3621  1.9143
  626MOL0     H84500   7.653   9.579   6.877  0.4563  1.2255 -1.3955
  626MOL0     H84501   7.688   9.413   6.933  0.6604 -0.0336 -0.0744
  626MOL0     H84502   7.883   9.551   6.908 -0.5864  1.1999 -1.4295
  626MOL0     H84503   7.839   9.591   6.740 -4.0543  0.3771 -0.5912
  626MOL0     H84504   7.885   9.367   6.664 -3.4111  0.3941  0.3458
  626MOL0     H84505   7.881   9.302   6.823 -3.3586  0.8461 -0.2782
  626MOL0     H84506   8.101   9.438   6.862 -0.2850  2.3223 -0.0481
  626MOL0     H84507   8.073   9.501   6.700  0.8569  1.3090  2.9329
  626MOL0     H84508   8.245   9.109   6.638  2.2842  0.3609  2.7972
  626MOL0     H84509   7.433   9.466   6.913  1.3387  0.2597 -1.0486
  626MOL0     H84510   7.205   9.385   6.883  0.2437 -0.1697  0.5317
  627MOL0     O84511   7.801  10.136   4.143  0.0746  0.2180  0.4687
  627MOL0     C84512   7.766  10.013   4.135 -0.4695 -0.0208  0.4217
  627MOL0     O84513   7.642   9.961   4.108  0.2778 -0.2257 -0.3215
  627MOL0     C84514   7.537  10.054   4.094  0.1735  0.2493 -0.4174
  627MOL0     C84515   7.433  10.036   4.181  0.1023 -0.5479 -0.2820
  627MOL0     C84516   7.335  10.137   4.184 -0.3658  0.6453  0.1401
  627MOL0     C84517   7.344  10.250   4.101 -0.0090 -0.0323 -0.6832
  627MOL0     O84518   7.252  10.347   4.104 -0.2265 -0.9305 -0.5478
  627MOL0     C84519   7.115  10.310   4.140  0.4261 -0.1532 -0.3485
  627MOL0     C84520   7.025  10.414   4.064  0.3629 -0.3755 -0.0147
  627MOL0     C84521   6.886  10.418   4.131  0.1842 -0.5318  0.8953
  627MOL0     C84522   6.778  10.501   4.067 -0.1453  0.4245  1.1844
  627MOL0     C84523   6.738  10.454   3.919 -0.5733  0.0539  0.4026
  627MOL0     C84524   6.618  10.543   3.863 -0.2394 -0.4551 -0.5118
  627MOL0     C84525   6.588  10.515   3.722 -1.0524  0.0366 -0.0660
  627MOL0     C84526   6.473  10.586   3.666  0.4731 -0.3291 -0.3796
  627MOL0     N84527   6.457  10.550   3.527  0.3136  0.5060  0.1797
  627MOL0     C84528   6.398  10.433   3.479  0.6866  0.2709 -0.1677
  627MOL0     C84529   6.383  10.464   3.344  0.8816 -0.1954  0.4047
  627MOL0     C84530   6.349  10.367   3.230 -0.3854 -0.1641 -0.4341
  627MOL0     C84531   6.213  10.411   3.163 -0.3046  0.4508 -0.6189
  627MOL0     C84532   6.179  10.327   3.046 -0.1542  0.9129  0.1543
  627MOL0     C84533   6.126  10.188   3.081 -0.4746 -0.1314  0.0325
  627MOL0     O84534   6.169  10.100   2.972 -0.9048 -0.3836  0.2900
  627MOL0     C84535   6.116  10.123   2.848 -0.2386  1.1967 -0.4336
  627MOL0     C84536   5.983  10.171   2.823  0.5605  0.4597  0.0334
  627MOL0     C84537   5.949  10.196   2.690  0.0801  0.6168 -0.0253
  627MOL0     C84538   5.819  10.267   2.669  0.2618 -0.1916 -0.1679
  627MOL0     C84539   6.040  10.170   2.585 -0.0107 -0.3655  0.5855
  627MOL0     C84540   5.997  10.172   2.438 -1.1724 -0.3612  0.4418
  627MOL0     O84541   6.093  10.183   2.342  0.5601 -0.3070  0.2588
  627MOL0     C84542   6.063  10.187   2.206 -0.7770 -0.4203 -1.0100
  627MOL0     C84543   6.139  10.102   2.132  0.5166  0.4771  0.3887
  627MOL0     C84544   6.116  10.093   1.996 -0.1395  0.3930 -0.5067
  627MOL0     C84545   6.019  10.167   1.931  0.3207  0.6874  0.6694
  627MOL0     O84546   6.001  10.153   1.798 -0.1872 -0.1746  0.5865
  627MOL0     C84547   5.906  10.231   1.725  0.3493  0.0201 -0.5144
  627MOL0     C84548   5.924  10.198   1.577  0.0039  0.6931  0.6563
  627MOL0     C84549   5.901  10.051   1.540 -0.5988  0.8588 -0.7254
  627MOL0     C84550   5.768  10.002   1.594  0.2661 -0.6035 -0.0338
  627MOL0     C84551   5.731   9.862   1.548  0.3037  0.1279  0.2802
  627MOL0     C84552   5.604   9.817   1.615 -0.8041 -0.9852  0.6991
  627MOL0     C84553   5.567   9.673   1.576  0.7300  0.1403 -0.4499
  627MOL0     C84554   5.426   9.631   1.610 -0.0396  0.0125  0.0545
  627MOL0    Cl84555   5.398   9.668   1.774 -0.1878 -0.5212 -0.5348
  627MOL0     C84556   5.942  10.254   2.012  0.2476 -0.3049  0.1253
  627MOL0     C84557   5.969  10.270   2.143 -0.6648 -0.3127  0.6401
  627MOL0     O84558   5.885  10.136   2.415  0.1890 -0.1710 -0.3453
  627MOL0     C84559   6.163  10.121   2.614 -0.8193 -0.3443  0.2115
  627MOL0     C84560   6.207  10.085   2.743 -0.2906 -0.1394 -0.1493
  627MOL0     N84561   6.435  10.588   3.319  0.5131 -0.7735  0.3777
  627MOL0     N84562   6.489  10.628   3.425 -0.1916 -0.0634 -0.3881
  627MOL0     C84563   7.433  10.254   3.999  0.1387 -0.3419  0.2606
  627MOL0     C84564   7.537  10.160   3.997 -0.4636  0.3940  0.0328
  627MOL0     C84565   7.867   9.916   4.159 -0.3914  0.1598 -0.1633
  627MOL0     C84566   7.841   9.778   4.130  0.1524  0.0434  0.9784
  627MOL0     C84567   7.936   9.680   4.136  0.4200  0.7847 -0.7106
  627MOL0     C84568   8.066   9.721   4.175  0.6497  0.3770  0.0813
  627MOL0     O84569   8.180   9.641   4.182 -0.0239  0.0998 -0.0314
  627MOL0     C84570   8.180   9.502   4.145  0.3318 -0.1984 -0.0314
  627MOL0     C84571   8.315   9.439   4.190  0.3998  0.5136  0.2801
  627MOL0     C84572   8.426   9.508   4.113 -0.4563 -0.3577 -1.0040
  627MOL0     C84573   8.559   9.420   4.091  0.1436 -0.5588  0.3739
  627MOL0     C84574   8.663   9.495   4.004  1.3887  0.4775 -0.8247
  627MOL0     C84575   8.750   9.554   3.949 -0.6448 -0.0989  0.2991
  627MOL0     C84576   8.091   9.852   4.206  0.4749 -0.2745 -0.9723
  627MOL0     C84577   7.996   9.953   4.192  0.2326  0.8910 -0.0573
  627MOL0     H84578   7.438   9.968   4.265  0.7418  0.3935  0.4617
  627MOL0     H84579   7.253  10.132   4.255  0.2041  1.2494  0.8494
  627MOL0     H84580   7.084  10.205   4.135  0.2918 -0.3250  2.5335
  627MOL0     H84581   7.099  10.332   4.246 -3.5855 -0.6056 -0.7297
  627MOL0     H84582   7.061  10.517   4.054 -3.5496  1.0979 -0.6269
  627MOL0     H84583   7.010  10.368   3.966 -0.9755 -1.5205  0.6988
  627MOL0     H84584   6.847  10.316   4.132  2.9356 -1.7974 -2.5276
  627MOL0     H84585   6.912  10.460   4.229  0.1464 -1.5766  1.3631
  627MOL0     H84586   6.686  10.500   4.127  0.3064 -2.2635  1.9589
  627MOL0     H84587   6.812  10.604   4.055 -0.7692  0.3499 -2.5260
  627MOL0     H84588   6.825  10.462   3.853 -1.7863  2.2495 -1.0559
  627MOL0     H84589   6.711  10.349   3.921  1.7886 -0.6715  4.1150
  627MOL0     H84590   6.527  10.536   3.924  0.8805 -0.8990  1.1984
  627MOL0     H84591   6.650  10.647   3.870 -1.2370 -0.2201  1.3525
  627MOL0     H84592   6.675  10.526   3.657  0.4454 -3.6272  1.1083
  627MOL0     H84593   6.559  10.410   3.713  1.6623 -0.8874  0.9898
  627MOL0     H84594   6.482  10.694   3.676 -0.7940 -0.0862 -1.5675
  627MOL0     H84595   6.394  10.552   3.733  1.8407  0.9906  2.0248
  627MOL0     H84596   6.384  10.340   3.533 -0.9196 -1.0512 -2.6973
  627MOL0     H84597   6.430  10.376   3.157 -1.0578 -0.4481 -1.2428
  627MOL0     H84598   6.353  10.265   3.269  1.7468 -0.6281 -1.7000
  627MOL0     H84599   6.210  10.512   3.122 -0.7685  0.0560 -1.6049
  627MOL0     H84600   6.133  10.394   3.235  1.5502  1.9187  1.9490
  627MOL0     H84601   6.267  10.309   2.984 -0.6209 -3.4208  0.4884
  627MOL0     H84602   6.118  10.378   2.971 -0.0362 -0.3156 -0.8055
  627MOL0     H84603   6.017  10.180   3.078 -0.3889 -2.8809  1.0637
  627MOL0     H84604   6.161  10.160   3.181 -0.3075 -1.0706 -0.2760
  627MOL0     H84605   5.917  10.201   2.904  0.5045 -1.1791  0.6245
  627MOL0     H84606   5.743  10.188   2.677  1.5991 -1.4875  0.2690
  627MOL0     H84607   5.809  10.351   2.738  2.5919 -0.2216  0.2691
  627MOL0     H84608   5.805  10.313   2.571  0.5989  1.2153  0.4261
  627MOL0     H84609   6.217  10.042   2.177 -0.5904 -2.3203 -1.1587
  627MOL0     H84610   6.179  10.024   1.942 -2.2848 -1.1707 -1.1848
  627MOL0     H84611   5.808  10.201   1.765 -0.4888  2.0029 -0.9680
  627MOL0     H84612   5.926  10.337   1.744  0.0872 -0.2622  1.5681
  627MOL0     H84613   5.856  10.266   1.525 -0.4938  0.4112  0.9366
  627MOL0     H84614   6.025  10.217   1.539 -0.3510 -1.5375 -1.7018
  627MOL0     H84615   5.989   9.998   1.576  0.4528  1.1807 -2.6893
  627MOL0     H84616   5.912  10.045   1.431  2.9293 -0.9888 -0.3768
  627MOL0     H84617   5.777  10.002   1.703  1.3773  0.0928 -0.1118
  627MOL0     H84618   5.688  10.068   1.558  1.1155  0.9250  0.7814
  627MOL0     H84619   5.811   9.789   1.564  0.7391  0.8496  1.6031
  627MOL0     H84620   5.719   9.874   1.440  2.8974  2.6716  0.1313
  627MOL0     H84621   5.628   9.828   1.721  2.1830  2.0542 -0.1230
  627MOL0     H84622   5.527   9.893   1.598  0.2321  1.4546  5.2340
  627MOL0     H84623   5.641   9.606   1.621  0.7064  1.4532  1.6750
  627MOL0     H84624   5.580   9.655   1.469 -1.2448 -0.0721 -0.6901
  627MOL0     H84625   5.403   9.528   1.579  1.4193  0.0824 -1.3341
  627MOL0     H84626   5.365   9.705   1.558  0.1525 -0.9665 -1.6099
  627MOL0     H84627   5.862  10.304   1.959  0.9939  0.4019 -0.3532
  627MOL0     H84628   5.922  10.356   2.191  1.3062  0.9805  0.4113
  627MOL0     H84629   6.223  10.102   2.526 -2.8966 -0.1604 -1.3156
  627MOL0     H84630   6.308  10.046   2.756  0.4077  1.8501  0.8665
  627MOL0     H84631   7.430  10.337   3.929 -0.5642  2.4341  3.3440
  627MOL0     H84632   7.618  10.165   3.925 -1.3104  1.4658 -0.8701
  627MOL0     H84633   7.745   9.749   4.089 -0.1158  3.6077 -1.3998
  627MOL0     H84634   7.910   9.578   4.109 -3.0770  1.4410 -0.2543
  627MOL0     H84635   8.095   9.457   4.198 -0.2744 -0.8094 -1.4777
  627MOL0     H84636   8.166   9.481   4.039 -1.7056  2.8482 -0.4875
  627MOL0     H84637   8.313   9.331   4.174 -1.4451  0.3377  1.4185
  627MOL0     H84638   8.335   9.455   4.296  2.7294 -0.1532 -0.0206
  627MOL0     H84639   8.445   9.596   4.174 -0.8235 -1.2136  0.3966
  627MOL0     H84640   8.384   9.535   4.015 -0.8290 -2.3327 -1.4351
  627MOL0     H84641   8.537   9.327   4.037 -2.6499  1.1554 -1.7110
  627MOL0     H84642   8.594   9.402   4.193  2.5364 -1.8193 -0.5639
  627MOL0     H84643   8.830   9.611   3.908 -0.2709 -0.3178  0.7164
  627MOL0     H84644   8.194   9.866   4.235  1.1324 -0.5776 -2.9575
  627MOL0     H84645   8.014  10.060   4.199 -1.1113  1.1069  0.4383
  628MOL0     O84646   2.668   3.432  11.063  0.4856  0.4012 -0.2339
  628MOL0     C84647   2.672   3.420  10.941  0.4495  0.7768  0.4234
  628MOL0     O84648   2.566   3.397  10.865 -0.4475 -0.2008 -0.5298
  628MOL0     C84649   2.441   3.419  10.891 -0.4025 -1.0938 -0.7440
  628MOL0     C84650   2.392   3.506  10.981  0.8171 -0.1356 -0.7036
  628MOL0     C84651   2.250   3.528  10.995  0.2498 -0.6299  0.7749
  628MOL0     C84652   2.161   3.445  10.923  0.7867 -0.2349  0.7945
  628MOL0     O84653   2.029   3.478  10.914 -0.1231  0.3890  0.4604
  628MOL0     C84654   1.995   3.612  10.903  0.6640 -0.1909 -0.1829
  628MOL0     C84655   1.842   3.623  10.880  0.0572 -0.0481 -0.6397
  628MOL0     C84656   1.752   3.562  10.978 -0.2466  0.2702 -0.6315
  628MOL0     C84657   1.609   3.598  10.947  0.5533 -0.3970  0.5276
  628MOL0     C84658   1.564   3.554  10.808  0.5770  0.2980 -0.2062
  628MOL0     C84659   1.416   3.592  10.794 -0.2537 -0.3580 -0.8529
  628MOL0     C84660   1.354   3.566  10.656 -0.3910 -0.0718 -0.2952
  628MOL0     C84661   1.398   3.670  10.549  0.3571  0.8379 -0.1973
  628MOL0     N84662   1.325   3.803  10.558 -1.1923 -0.2824  0.6800
  628MOL0     C84663   1.206   3.836  10.624 -0.0809  0.4643 -0.1322
  628MOL0     C84664   1.190   3.965  10.612  0.8953 -0.1454  0.8713
  628MOL0     C84665   1.079   4.043  10.676 -0.4350  1.0325 -0.0373
  628MOL0     C84666   0.949   3.984  10.635  0.4707  0.3884 -0.5417
  628MOL0     C84667   0.916   4.012  10.490  0.6442  0.1714  0.7217
  628MOL0     C84668   0.781   3.946  10.453 -1.4785 -0.0293  0.0785
  628MOL0     O84669   0.675   4.009  10.533 -0.4895  0.0260 -0.3092
  628MOL0     C84670   0.556   3.943  10.531 -0.2555 -0.1208  0.0787
  628MOL0     C84671   0.521   3.860  10.425  0.1275  0.3380 -0.0970
  628MOL0     C84672   0.397   3.790  10.414 -0.0163  0.9001  0.9287
  628MOL0     C84673   0.394   3.685  10.303  0.3853  0.4606 -0.2891
  628MOL0     C84674   0.303   3.807  10.511  0.0092 -0.2377 -0.6960
  628MOL0     C84675   0.175   3.743  10.518  0.6715 -0.2897 -0.0695
  628MOL0     O84676   0.089   3.810  10.608 -0.1970  0.9658  0.2141
  628MOL0     C84677  -0.043   3.766  10.636 -0.3516 -0.1975 -0.5538
  628MOL0     C84678  -0.092   3.633  10.616 -1.3007  0.3690 -0.9145
  628MOL0     C84679  -0.223   3.601  10.666 -1.4943 -0.1599 -0.2359
  628MOL0     C84680  -0.300   3.692  10.730 -0.7713 -0.4203 -0.2002
  628MOL0     O84681  -0.409   3.649  10.802  0.4917  0.2099  0.3246
  628MOL0     C84682  -0.517   3.739  10.835 -0.7754 -0.3434  0.9935
  628MOL0     C84683  -0.631   3.659  10.896  0.7624 -0.7500 -0.5157
  628MOL0     C84684  -0.687   3.551  10.800 -0.3599 -0.7408 -0.1536
  628MOL0     C84685  -0.808   3.471  10.857 -0.0274 -1.0024  1.1255
  628MOL0     C84686  -0.949   3.542  10.856 -0.7325  0.3197 -0.2937
  628MOL0     C84687  -1.042   3.441  10.921 -0.0678 -0.1333  0.2517
  628MOL0     C84688  -1.190   3.470  10.900 -0.3544 -0.0162  0.5043
  628MOL0     C84689  -1.273   3.391  11.004  1.1976  0.6195  0.1854
  628MOL0    Cl84690  -1.446   3.400  10.968 -0.0572  0.1549 -0.0675
  628MOL0     C84691  -0.252   3.824  10.746  0.3755  0.6151  0.4804
  628MOL0     C84692  -0.128   3.858  10.707  0.5138 -0.1409 -0.1691
  628MOL0     O84693   0.149   3.651  10.443 -0.0559 -0.1851  0.2333
  628MOL0     C84694   0.333   3.902  10.618  0.1399  0.5554  0.0917
  628MOL0     C84695   0.455   3.971  10.622 -0.3964 -0.2223 -0.6782
  628MOL0     N84696   1.304   4.019  10.548 -0.1633  0.6827  0.6571
  628MOL0     N84697   1.388   3.920  10.514  0.9511  0.7291  0.6433
  628MOL0     C84698   2.216   3.349  10.842  0.1189 -0.2385 -0.1634
  628MOL0     C84699   2.351   3.345  10.820 -1.0101  0.5810  0.5759
  628MOL0     C84700   2.811   3.435  10.889  0.2056 -0.4825  0.8551
  628MOL0     C84701   2.854   3.406  10.756  0.9464  0.0319 -0.0449
  628MOL0     C84702   2.982   3.440  10.718  0.2942  0.4897 -0.9125
  628MOL0     C84703   3.073   3.506  10.797 -0.3435 -0.4443 -0.3366
  628MOL0     O84704   3.195   3.528  10.737  0.0175  0.4826  0.7224
  628MOL0     C84705   3.305   3.569  10.822  0.6351 -0.2782  0.7729
  628MOL0     C84706   3.426   3.581  10.745 -0.0903 -0.1158  0.1878
  628MOL0     C84707   3.468   3.445  10.686  0.0881  0.4093  0.4210
  628MOL0     C84708   3.536   3.375  10.803 -0.2839  0.6303  1.0960
  628MOL0     C84709   3.629   3.277  10.754 -0.2216  1.2704  0.2987
  628MOL0     C84710   3.702   3.185  10.709 -0.1051 -0.1716 -0.1812
  628MOL0     C84711   3.034   3.536  10.929  0.7417 -0.9541 -0.5429
  628MOL0     C84712   2.907   3.495  10.972 -0.3075 -0.4064  1.2641
  628MOL0     H84713   2.466   3.566  11.036  2.7582 -2.1388 -0.9866
  628MOL0     H84714   2.223   3.608  11.064  0.3075 -0.8421  1.0470
  628MOL0     H84715   2.026   3.671  10.990  0.5083  0.0033 -0.2570
  628MOL0     H84716   2.039   3.662  10.815 -2.4511  3.4253  0.0642
  628MOL0     H84717   1.816   3.729  10.880 -0.3173 -0.1386 -0.2436
  628MOL0     H84718   1.827   3.577  10.782 -1.9193 -1.3253  0.1897
  628MOL0     H84719   1.768   3.454  10.967  0.0100  0.3607 -1.1575
  628MOL0     H84720   1.785   3.584  11.080  0.9853  0.4560 -1.0580
  628MOL0     H84721   1.550   3.547  11.024 -1.6411  1.9551  0.5294
  628MOL0     H84722   1.609   3.707  10.957  3.5747 -0.4302  2.6466
  628MOL0     H84723   1.621   3.607  10.730 -1.6318 -1.5044 -3.2841
  628MOL0     H84724   1.581   3.447  10.799 -0.4194  0.2606 -2.2077
  628MOL0     H84725   1.354   3.542  10.869  0.2955  0.2267  0.0241
  628MOL0     H84726   1.403   3.699  10.813 -0.7269 -0.7823  1.5114
  628MOL0     H84727   1.375   3.464  10.623 -3.5790 -0.8217 -0.2906
  628MOL0     H84728   1.245   3.562  10.662 -0.3194 -0.8090  0.5790
  628MOL0     H84729   1.393   3.629  10.447  3.2135  0.3137 -0.1938
  628MOL0     H84730   1.505   3.690  10.559  0.1407  1.1917  1.7238
  628MOL0     H84731   1.135   3.768  10.670  1.6711  0.4403  2.7864
  628MOL0     H84732   1.087   4.032  10.785 -0.1263  0.1864 -0.1307
  628MOL0     H84733   1.080   4.149  10.652  0.7527  0.9490 -0.4066
  628MOL0     H84734   0.867   4.020  10.698  1.1444  0.6373  0.2081
  628MOL0     H84735   0.940   3.875  10.644 -3.1642  0.7290  2.2781
  628MOL0     H84736   1.000   3.972  10.432 -0.2164 -0.3649 -0.1942
  628MOL0     H84737   0.911   4.121  10.480 -0.9602  0.1217  0.7627
  628MOL0     H84738   0.783   3.839  10.474  0.4924 -0.1318 -0.3799
  628MOL0     H84739   0.772   3.957  10.344 -0.2974 -0.7376 -0.1101
  628MOL0     H84740   0.590   3.847  10.341 -1.1970 -1.1225 -1.0217
  628MOL0     H84741   0.400   3.588  10.353 -0.1799  1.7739  2.5349
  628MOL0     H84742   0.295   3.678  10.257  0.0769 -1.6105  0.5865
  628MOL0     H84743   0.475   3.692  10.231  2.6781 -0.7917  2.0202
  628MOL0     H84744  -0.033   3.556  10.566  0.4766  2.2276 -1.8188
  628MOL0     H84745  -0.253   3.497  10.672 -1.2452 -0.1374  2.4562
  628MOL0     H84746  -0.489   3.823  10.899  1.4491  0.7493 -1.2937
  628MOL0     H84747  -0.550   3.790  10.744 -0.5528  0.8861  1.5869
  628MOL0     H84748  -0.604   3.624  10.996 -1.3468 -0.6079  0.1528
  628MOL0     H84749  -0.715   3.729  10.904  0.3495 -1.0200 -2.1544
  628MOL0     H84750  -0.610   3.479  10.768 -0.7473 -1.5998  0.8015
  628MOL0     H84751  -0.717   3.594  10.704 -0.0332 -0.9458 -0.3503
  628MOL0     H84752  -0.808   3.372  10.811  1.1366 -1.4165  1.9686
  628MOL0     H84753  -0.784   3.451  10.962  1.0604  0.7024  1.2489
  628MOL0     H84754  -0.983   3.561  10.754  1.1147  2.3292 -0.6030
  628MOL0     H84755  -0.944   3.628  10.924 -0.8376 -0.9333  1.3709
  628MOL0     H84756  -1.022   3.340  10.885 -0.4501 -0.9072  2.1177
  628MOL0     H84757  -1.013   3.436  11.026 -0.5335 -0.5784  0.3635
  628MOL0     H84758  -1.216   3.437  10.799 -1.5558  0.5313  0.6098
  628MOL0     H84759  -1.215   3.576  10.895 -1.9399 -0.3933 -0.2028
  628MOL0     H84760  -1.267   3.441  11.101 -0.2216 -0.0128  0.6190
  628MOL0     H84761  -1.232   3.290  11.004  0.4455  0.2860 -1.3800
  628MOL0     H84762  -0.306   3.896  10.806  0.4853 -0.6943  2.2430
  628MOL0     H84763  -0.094   3.952  10.750  0.3321 -1.5851  3.5683
  628MOL0     H84764   0.262   3.906  10.699 -0.6356 -2.4082 -0.3440
  628MOL0     H84765   0.473   4.054  10.689 -1.9811  1.3714 -2.1085
  628MOL0     H84766   2.152   3.286  10.781  2.6121 -1.0932 -2.0794
  628MOL0     H84767   2.389   3.277  10.744 -0.3975 -0.8997  2.1499
  628MOL0     H84768   2.798   3.340  10.690 -1.9691  1.0476  1.2542
  628MOL0     H84769   3.015   3.408  10.620 -4.3076 -0.0826 -2.5268
  628MOL0     H84770   3.292   3.667  10.869 -0.5151 -0.2702  0.4859
  628MOL0     H84771   3.316   3.487  10.893  1.3722 -2.0894 -1.3094
  628MOL0     H84772   3.506   3.619  10.809 -0.5930  0.0553  0.7199
  628MOL0     H84773   3.404   3.653  10.666 -0.0168  1.2870  1.4057
  628MOL0     H84774   3.533   3.448  10.599  0.0026  0.4362  0.3574
  628MOL0     H84775   3.381   3.388  10.650  1.8775 -0.9043 -2.1272
  628MOL0     H84776   3.467   3.315  10.863  3.2568 -2.9509  2.0040
  628MOL0     H84777   3.598   3.447  10.856 -1.2624  0.9011  1.9034
  628MOL0     H84778   3.751   3.112  10.647  0.4969 -0.6615  0.8545
  628MOL0     H84779   3.093   3.588  11.004 -0.0644  1.6130 -1.5940
  628MOL0     H84780   2.893   3.497  11.080 -0.7778  2.8386  1.2616
  629MOL0     O84781   4.728   9.347   6.714  0.2895 -0.0310 -0.0327
  629MOL0     C84782   4.738   9.233   6.662 -0.4874 -0.1443 -0.3571
  629MOL0     O84783   4.683   9.189   6.554  0.5381 -0.2882  0.7822
  629MOL0     C84784   4.563   9.236   6.496  0.7378 -0.6848 -0.8632
  629MOL0     C84785   4.523   9.170   6.384  0.4960 -0.8428 -0.1535
  629MOL0     C84786   4.401   9.216   6.320 -0.6657  0.8376  0.6703
  629MOL0     C84787   4.314   9.306   6.386  0.9752  0.0807 -0.6185
  629MOL0     O84788   4.196   9.313   6.324  0.5454 -0.0536  0.3284
  629MOL0     C84789   4.068   9.344   6.392 -0.0729  1.0336 -0.1505
  629MOL0     C84790   4.010   9.479   6.346 -0.0233  1.2069  0.2944
  629MOL0     C84791   3.863   9.487   6.396 -0.1232  0.1804 -0.2776
  629MOL0     C84792   3.861   9.488   6.545  0.5239  0.1638 -0.3187
  629MOL0     C84793   3.733   9.567   6.593  0.8210 -0.3576 -0.7025
  629MOL0     C84794   3.614   9.477   6.560  0.0515  0.0794 -1.3635
  629MOL0     C84795   3.486   9.530   6.640 -0.5194 -0.7684 -0.4139
  629MOL0     C84796   3.370   9.454   6.582 -0.1400 -0.1525  0.7990
  629MOL0     N84797   3.248   9.530   6.584  0.6511 -0.5363 -0.0638
  629MOL0     C84798   3.151   9.541   6.487  1.0452  0.3203  0.1340
  629MOL0     C84799   3.054   9.626   6.544  1.4659 -0.1029  0.1828
  629MOL0     C84800   2.927   9.668   6.471  1.0468 -0.5817  0.0246
  629MOL0     C84801   2.917   9.611   6.332 -0.1819  0.0767 -0.0897
  629MOL0     C84802   2.782   9.628   6.259  0.0573  0.2321 -0.0333
  629MOL0     C84803   2.748   9.780   6.237  0.9592  0.4829 -0.2844
  629MOL0     O84804   2.652   9.805   6.129 -0.5414  0.1218 -0.2606
  629MOL0     C84805   2.521   9.829   6.172  0.6119 -0.4629  0.1748
  629MOL0     C84806   2.436   9.870   6.070 -0.7245 -0.2373  0.1630
  629MOL0     C84807   2.300   9.901   6.090  0.1773  0.2382  0.9349
  629MOL0     C84808   2.235   9.970   5.972 -0.1495  0.3288  1.1731
  629MOL0     C84809   2.244   9.865   6.219  0.2627 -0.0551  0.6704
  629MOL0     C84810   2.101   9.877   6.251  0.3889 -0.2640  0.8878
  629MOL0     O84811   2.006   9.909   6.149  0.2930  0.6669 -0.2576
  629MOL0     C84812   1.880   9.924   6.177 -0.1161 -0.9767  0.2712
  629MOL0     C84813   1.808   9.819   6.247  0.7962  0.5298 -0.1771
  629MOL0     C84814   1.677   9.837   6.279  1.2275 -0.3874 -0.2164
  629MOL0     C84815   1.611   9.953   6.256 -0.2466 -0.2285  0.7968
  629MOL0     O84816   1.484   9.956   6.305  0.3508 -0.2895  0.1403
  629MOL0     C84817   1.416  10.081   6.315 -0.9653  0.6488 -0.4516
  629MOL0     C84818   1.270  10.053   6.359  0.7988  0.7133 -0.3243
  629MOL0     C84819   1.173  10.176   6.388 -0.7519  0.3696  0.3269
  629MOL0     C84820   1.029  10.136   6.410  0.4211 -0.0064  0.0528
  629MOL0     C84821   0.949  10.255   6.460 -0.2749  0.7419 -0.5650
  629MOL0     C84822   0.797  10.217   6.461 -0.5440  0.2789 -0.0809
  629MOL0     C84823   0.715  10.324   6.522  0.2965 -0.3855  0.3187
  629MOL0     C84824   0.571  10.279   6.539 -0.3730  0.7641 -0.5228
  629MOL0    Cl84825   0.451  10.412   6.561  0.3061 -0.0411 -0.3498
  629MOL0     C84826   1.686  10.061   6.197 -0.5972  0.3735  1.6156
  629MOL0     C84827   1.817  10.049   6.150 -0.3076  0.5065 -0.3873
  629MOL0     O84828   2.074   9.852   6.365  0.4083 -0.1347 -0.1311
  629MOL0     C84829   2.336   9.841   6.324  0.3728 -0.0671  1.0787
  629MOL0     C84830   2.467   9.818   6.300 -0.2253  0.0942 -0.3114
  629MOL0     N84831   3.095   9.671   6.662  0.3859  1.1413 -0.0283
  629MOL0     N84832   3.213   9.609   6.688 -0.5429  0.2596  0.2737
  629MOL0     C84833   4.344   9.349   6.510  0.3236 -0.4077 -0.4189
  629MOL0     C84834   4.466   9.327   6.557 -0.2260  0.7930 -0.2106
  629MOL0     C84835   4.826   9.133   6.728  0.4352 -0.7731 -0.2322
  629MOL0     C84836   4.893   9.170   6.846 -0.7147  0.3179  0.3203
  629MOL0     C84837   4.973   9.084   6.911  0.6829  1.0456  0.4565
  629MOL0     C84838   4.990   8.953   6.860 -0.1500  0.1941  0.5770
  629MOL0     O84839   5.058   8.871   6.950 -0.1725  0.5757 -0.7344
  629MOL0     C84840   5.112   8.751   6.902  0.4563 -0.0183  0.4664
  629MOL0     C84841   5.231   8.783   6.803  0.2289  0.2496 -1.0998
  629MOL0     C84842   5.342   8.860   6.889  1.0648 -0.6277  0.0406
  629MOL0     C84843   5.478   8.850   6.827 -0.4531 -0.1205 -0.2861
  629MOL0     C84844   5.586   8.873   6.921  0.5824 -0.1015  0.0627
  629MOL0     C84845   5.687   8.879   6.996  0.2551  0.5927  0.2426
  629MOL0     C84846   4.933   8.918   6.742 -1.1230 -1.0785 -0.6439
  629MOL0     C84847   4.836   8.998   6.682 -0.1127 -0.3413  0.6300
  629MOL0     H84848   4.598   9.100   6.350  0.0898 -1.8764  0.9779
  629MOL0     H84849   4.385   9.186   6.217  2.8961 -0.1174  0.2697
  629MOL0     H84850   3.999   9.265   6.358 -1.4667  2.0748  0.1409
  629MOL0     H84851   4.071   9.328   6.500  0.0975  2.1061  0.0101
  629MOL0     H84852   4.075   9.560   6.380 -0.6902  2.5342 -1.4166
  629MOL0     H84853   4.014   9.483   6.237 -1.0780 -0.9153  0.1326
  629MOL0     H84854   3.818   9.579   6.357 -1.4876 -0.3325  0.0308
  629MOL0     H84855   3.804   9.406   6.354  0.5214  1.1468 -3.3030
  629MOL0     H84856   3.869   9.386   6.585  2.4687  0.3147 -0.2694
  629MOL0     H84857   3.943   9.549   6.583  0.2037  0.5365 -0.2216
  629MOL0     H84858   3.740   9.583   6.701 -2.0672 -4.6568  0.4150
  629MOL0     H84859   3.717   9.669   6.557  0.6560  1.0410  2.8927
  629MOL0     H84860   3.595   9.466   6.453  0.0330 -1.0353 -1.2544
  629MOL0     H84861   3.641   9.379   6.600 -0.8866 -1.0480 -3.3483
  629MOL0     H84862   3.494   9.510   6.747 -0.1028 -2.0126 -0.6651
  629MOL0     H84863   3.475   9.637   6.621 -1.3906 -0.6291  0.7360
  629MOL0     H84864   3.355   9.356   6.629 -0.9506  0.4801  1.9379
  629MOL0     H84865   3.388   9.430   6.477 -2.3855 -0.4849  0.4251
  629MOL0     H84866   3.143   9.482   6.396 -1.5976 -1.7371  1.5613
  629MOL0     H84867   2.839   9.644   6.531 -0.8556  1.5412 -1.6651
  629MOL0     H84868   2.929   9.778   6.471  2.0651 -0.5235  2.8214
  629MOL0     H84869   2.926   9.502   6.335  0.7508 -0.0260 -3.1625
  629MOL0     H84870   2.993   9.648   6.263  0.1086  0.2578  0.3256
  629MOL0     H84871   2.702   9.575   6.312  0.0525  0.0817 -0.1912
  629MOL0     H84872   2.799   9.580   6.162  0.0787  1.7230 -0.8005
  629MOL0     H84873   2.833   9.841   6.203  1.3115  2.9015  4.1780
  629MOL0     H84874   2.728   9.837   6.329 -0.6284 -0.4277 -0.0255
  629MOL0     H84875   2.471   9.867   5.967  1.8615  2.1728  0.8697
  629MOL0     H84876   2.314   9.994   5.900  0.9778  1.0351  2.5874
  629MOL0     H84877   2.175   9.892   5.926  3.5448 -1.3323 -1.3176
  629MOL0     H84878   2.174  10.053   6.010 -3.0043 -1.0464 -0.1303
  629MOL0     H84879   1.854   9.725   6.275 -0.3190  0.7662  2.7291
  629MOL0     H84880   1.623   9.755   6.325 -0.0708  0.6121  0.1149
  629MOL0     H84881   1.468  10.133   6.396  1.5912 -2.5465  0.1590
  629MOL0     H84882   1.426  10.142   6.225 -0.3524  0.7873 -0.2891
  629MOL0     H84883   1.225   9.991   6.280  0.2358  2.2104 -1.2260
  629MOL0     H84884   1.273   9.991   6.448 -0.6021  0.1652 -0.6374
  629MOL0     H84885   1.167  10.244   6.302 -1.8674 -1.0289 -0.7357
  629MOL0     H84886   1.215  10.231   6.473 -1.2307  1.7657 -0.3030
  629MOL0     H84887   1.006  10.103   6.309  1.6190  0.6649 -0.4490
  629MOL0     H84888   1.023  10.055   6.483 -1.9108 -0.2922 -0.3777
  629MOL0     H84889   0.967  10.335   6.387  0.9601  1.9632  1.0079
  629MOL0     H84890   0.996  10.283   6.555  0.2825  2.0394 -1.1991
  629MOL0     H84891   0.758  10.197   6.361  0.4472  1.5646 -0.7730
  629MOL0     H84892   0.783  10.122   6.513  0.7200 -0.7670 -1.5721
  629MOL0     H84893   0.713  10.402   6.445  0.5170 -2.8011 -2.3079
  629MOL0     H84894   0.750  10.371   6.614 -3.2410 -0.1808  1.7030
  629MOL0     H84895   0.563  10.205   6.618 -0.7878 -2.0212 -3.0003
  629MOL0     H84896   0.538  10.226   6.449 -1.8314 -0.4167  0.6424
  629MOL0     H84897   1.643  10.159   6.181  1.3760  1.0095 -0.2281
  629MOL0     H84898   1.869  10.128   6.095 -2.2027  1.3869 -1.0024
  629MOL0     H84899   2.303   9.832   6.428 -3.9781 -0.0496 -0.0939
  629MOL0     H84900   2.529   9.765   6.372 -2.2940 -3.0968 -0.7088
  629MOL0     H84901   4.274   9.408   6.568  0.6865  1.2971 -1.6398
  629MOL0     H84902   4.496   9.362   6.656 -0.7500  0.6169  0.0110
  629MOL0     H84903   4.886   9.271   6.885  0.0444  0.2854  0.5708
  629MOL0     H84904   5.024   9.114   7.002 -1.4242  2.4062  1.2505
  629MOL0     H84905   5.153   8.688   6.982  3.5271  1.4901  0.2372
  629MOL0     H84906   5.042   8.687   6.849 -0.3328  0.7705  0.5398
  629MOL0     H84907   5.196   8.842   6.718 -0.0378  0.0043 -1.1597
  629MOL0     H84908   5.272   8.689   6.765 -0.5272 -0.6545  0.1948
  629MOL0     H84909   5.353   8.809   6.985  3.5563 -1.0935 -0.4173
  629MOL0     H84910   5.313   8.965   6.898 -1.9612 -1.2623 -1.1614
  629MOL0     H84911   5.488   8.923   6.746  1.0316  0.5578  0.4647
  629MOL0     H84912   5.494   8.746   6.796 -2.0088 -0.9778  1.5921
  629MOL0     H84913   5.777   8.864   7.052  0.1264  2.8989  1.1951
  629MOL0     H84914   4.947   8.821   6.695  2.0546 -1.6603  1.2076
  629MOL0     H84915   4.787   8.978   6.587 -2.6597  0.2810  1.7392
  630MOL0     O84916   2.149   8.639   7.266  0.3147  0.1703 -0.8162
  630MOL0     C84917   2.215   8.607   7.167  0.2104  0.1793  0.2537
  630MOL0     O84918   2.205   8.487   7.105  0.0561  0.3596 -0.7643
  630MOL0     C84919   2.101   8.401   7.135 -0.1529  0.6034 -0.9099
  630MOL0     C84920   1.973   8.427   7.172  0.7187 -0.9645 -0.2846
  630MOL0     C84921   1.876   8.329   7.200 -0.0742  0.3935  0.6105
  630MOL0     C84922   1.913   8.194   7.191  0.1135 -0.0245  0.7492
  630MOL0     O84923   1.813   8.102   7.211 -0.4868  0.1972  0.1159
  630MOL0     C84924   1.849   7.963   7.224  0.1091  0.0868 -0.1186
  630MOL0     C84925   1.728   7.869   7.211  0.8598  0.3106  0.1990
  630MOL0     C84926   1.667   7.862   7.070  0.5383  0.6296  0.5325
  630MOL0     C84927   1.531   7.780   7.060 -0.9779 -1.0185 -0.7244
  630MOL0     C84928   1.509   7.735   6.915  1.2474 -0.2271 -0.3927
  630MOL0     C84929   1.404   7.625   6.901  0.1721  0.1138 -0.3096
  630MOL0     C84930   1.412   7.505   7.001 -0.3642 -0.3660 -0.0356
  630MOL0     C84931   1.328   7.368   6.973  0.1448 -0.0986  0.0998
  630MOL0     N84932   1.185   7.384   6.965 -0.8962  0.2389  0.3005
  630MOL0     C84933   1.101   7.345   7.068  0.3635 -0.7353  0.4302
  630MOL0     C84934   0.980   7.382   7.024  0.2311  0.7843 -0.5255
  630MOL0     C84935   0.856   7.377   7.107  0.7338  0.4827  0.9705
  630MOL0     C84936   0.810   7.233   7.129 -0.2895 -0.2829  0.3631
  630MOL0     C84937   0.770   7.158   7.005  0.4236  0.0993  0.3312
  630MOL0     C84938   0.737   7.005   7.019 -0.0967  0.0859 -0.6721
  630MOL0     O84939   0.827   6.918   7.104  1.1856 -0.1753  0.1342
  630MOL0     C84940   0.971   6.933   7.088 -0.3624  0.5867  0.8404
  630MOL0     C84941   1.044   6.950   7.200  0.3126 -0.0539 -0.0716
  630MOL0     C84942   1.179   6.969   7.201 -0.4538 -0.2628  0.0956
  630MOL0     C84943   1.240   6.977   7.342  0.6779  0.2878  0.6862
  630MOL0     C84944   1.257   6.982   7.078  0.5895  0.1128 -0.8795
  630MOL0     C84945   1.399   7.017   7.066  0.5359  0.2236 -0.0441
  630MOL0     O84946   1.444   7.041   6.939  0.0118 -0.4249 -0.6392
  630MOL0     C84947   1.579   7.037   6.905 -0.1791  0.5469  0.5092
  630MOL0     C84948   1.641   6.919   6.920 -1.1857 -0.0783 -0.2076
  630MOL0     C84949   1.776   6.914   6.890  0.4335  0.1677 -0.4756
  630MOL0     C84950   1.853   7.027   6.843 -0.5516  0.4994 -0.0884
  630MOL0     O84951   1.992   7.019   6.831  0.7280 -0.2350  0.0298
  630MOL0     C84952   2.067   6.933   6.916  0.4134 -0.1104 -0.8245
  630MOL0     C84953   2.210   6.987   6.945  0.7093  0.3254 -0.3674
  630MOL0     C84954   2.282   6.902   7.058  0.8690 -0.0710 -0.2000
  630MOL0     C84955   2.422   6.928   7.047  0.9278  0.4645  0.2761
  630MOL0     C84956   2.509   6.862   7.148  0.2178 -0.4934  0.2995
  630MOL0     C84957   2.487   6.705   7.128  0.1248 -1.1651 -0.8028
  630MOL0     C84958   2.549   6.630   7.013  0.3410 -0.2411 -0.5446
  630MOL0     C84959   2.699   6.640   7.006 -0.3605 -1.0813  1.0657
  630MOL0    Cl84960   2.787   6.602   7.151 -0.5046  0.1428  0.2168
  630MOL0     C84961   1.782   7.147   6.841 -0.5488 -0.1946 -1.0030
  630MOL0     C84962   1.646   7.157   6.870 -0.6493  0.0169  0.0242
  630MOL0     O84963   1.469   7.015   7.161 -0.0523 -0.0055 -0.3586
  630MOL0     C84964   1.189   6.971   6.958 -0.4581 -0.0562 -0.0731
  630MOL0     C84965   1.049   6.946   6.963 -0.3325  0.5264 -0.6663
  630MOL0     N84966   0.986   7.427   6.894  0.2899 -0.4098  0.0340
  630MOL0     N84967   1.112   7.423   6.855 -0.5245  0.0159 -1.1246
  630MOL0     C84968   2.042   8.163   7.147  0.7712 -0.6035 -0.1634
  630MOL0     C84969   2.144   8.267   7.134  0.8060  0.4983  1.0411
  630MOL0     C84970   2.314   8.696   7.113 -0.3875 -0.1216 -0.1201
  630MOL0     C84971   2.396   8.660   7.004 -0.3187 -0.2858  0.2752
  630MOL0     C84972   2.493   8.740   6.943  0.6606  0.2072  1.4451
  630MOL0     C84973   2.524   8.867   6.998 -0.2699 -0.2960 -0.2783
  630MOL0     O84974   2.618   8.960   6.938  0.3921  1.0012 -0.0435
  630MOL0     C84975   2.719   8.902   6.852 -0.3453 -0.1585 -0.0478
  630MOL0     C84976   2.784   9.028   6.795 -0.3094 -0.5020 -0.9359
  630MOL0     C84977   2.879   9.099   6.900 -0.7254 -0.5005 -0.2628
  630MOL0     C84978   2.849   9.252   6.891  0.8612  0.3993 -0.0957
  630MOL0     C84979   2.880   9.297   6.758  0.7679  1.0358 -0.0383
  630MOL0     C84980   2.883   9.345   6.649  1.1872  0.2239 -0.7954
  630MOL0     C84981   2.431   8.917   7.097 -0.0596  0.1646 -0.5307
  630MOL0     C84982   2.334   8.830   7.151  1.5031 -0.8900  0.6343
  630MOL0     H84983   1.936   8.529   7.181 -0.0211 -1.2047 -0.5531
  630MOL0     H84984   1.774   8.359   7.219  0.1811 -0.0259  2.9967
  630MOL0     H84985   1.926   7.929   7.155  2.2342 -1.8465  2.9574
  630MOL0     H84986   1.893   7.946   7.322 -0.7750 -0.8868  0.1398
  630MOL0     H84987   1.754   7.767   7.239 -1.0752 -1.3445 -3.3415
  630MOL0     H84988   1.643   7.889   7.277  0.1963 -3.0420  0.5116
  630MOL0     H84989   1.648   7.963   7.032  0.7681  1.0289  1.4507
  630MOL0     H84990   1.751   7.822   7.012  0.2173  0.0888  0.4370
  630MOL0     H84991   1.536   7.696   7.130 -1.3731 -1.5758 -1.3534
  630MOL0     H84992   1.451   7.850   7.085 -0.3504 -0.0004 -1.5135
  630MOL0     H84993   1.479   7.816   6.848 -0.7685 -1.6291 -1.2902
  630MOL0     H84994   1.605   7.696   6.880  1.5464 -0.1919  0.3718
  630MOL0     H84995   1.305   7.672   6.911 -0.0668 -0.5136  0.4046
  630MOL0     H84996   1.415   7.584   6.800  1.3436 -0.3027 -0.0217
  630MOL0     H84997   1.519   7.486   7.005  0.0633  1.4037 -1.5000
  630MOL0     H84998   1.387   7.536   7.104  4.7229 -1.9302  1.9566
  630MOL0     H84999   1.350   7.292   7.049 -0.1633 -1.6245 -1.2804
  630MOL0     H85000   1.356   7.337   6.872 -0.9701  5.3155 -2.2084
  630MOL0     H85001   1.124   7.292   7.161 -0.0129 -1.8821 -0.1040
  630MOL0     H85002   0.875   7.427   7.202 -0.7784 -2.0784  2.7428
  630MOL0     H85003   0.776   7.430   7.053  1.7058  1.0533  0.0600
  630MOL0     H85004   0.722   7.242   7.193 -2.9644  0.8097 -3.1181
  630MOL0     H85005   0.883   7.178   7.187 -1.0331 -0.6615  0.9533
  630MOL0     H85006   0.846   7.174   6.928  2.7104 -0.7701  2.2987
  630MOL0     H85007   0.679   7.201   6.961 -1.2664 -3.5032 -0.0785
  630MOL0     H85008   0.728   6.966   6.917 -0.6866 -1.6068 -0.0105
  630MOL0     H85009   0.637   7.001   7.064 -0.2736 -3.3247 -1.0870
  630MOL0     H85010   0.993   6.947   7.295  1.2363  0.7293  0.4616
  630MOL0     H85011   1.158   7.007   7.408 -2.0214 -3.7320 -0.5194
  630MOL0     H85012   1.302   6.892   7.373  0.8724  0.4565  0.7723
  630MOL0     H85013   1.309   7.062   7.347  1.7536 -0.5900  1.4224
  630MOL0     H85014   1.597   6.823   6.943 -0.4570  0.1255  2.2878
  630MOL0     H85015   1.813   6.813   6.906 -2.7469 -1.0210  0.3302
  630MOL0     H85016   2.008   6.921   7.008 -1.7758 -0.7952 -2.2180
  630MOL0     H85017   2.065   6.833   6.872  1.4348  0.1295 -1.4315
  630MOL0     H85018   2.258   6.990   6.847  1.5044  1.3116  0.0200
  630MOL0     H85019   2.201   7.089   6.985 -3.2187  0.5030 -1.3672
  630MOL0     H85020   2.268   6.794   7.045  2.0698 -0.5469  1.9396
  630MOL0     H85021   2.262   6.934   7.160  0.5348  0.0462 -0.3026
  630MOL0     H85022   2.465   6.896   6.951  1.7822  1.7260  0.2101
  630MOL0     H85023   2.434   7.037   7.054  1.4306  0.4638 -0.4499
  630MOL0     H85024   2.472   6.892   7.247  0.3839 -0.6290  0.4039
  630MOL0     H85025   2.612   6.897   7.139  0.8374 -2.4548 -1.0413
  630MOL0     H85026   2.538   6.656   7.212  1.4743  1.6050  0.1203
  630MOL0     H85027   2.383   6.675   7.141  0.8948 -3.2612  1.1125
  630MOL0     H85028   2.508   6.657   6.916 -0.4186 -3.5428 -1.2608
  630MOL0     H85029   2.515   6.528   7.035 -1.5825  0.7199  1.4113
  630MOL0     H85030   2.725   6.739   6.967  2.5929 -1.7467  1.0598
  630MOL0     H85031   2.739   6.577   6.926  0.7209  1.0999 -0.2126
  630MOL0     H85032   1.831   7.243   6.831 -4.3772  2.0136 -0.8678
  630MOL0     H85033   1.599   7.254   6.884 -1.1280 -0.3475  1.0427
  630MOL0     H85034   1.242   6.976   6.864  1.9380 -0.2868  1.1898
  630MOL0     H85035   0.986   6.944   6.875 -0.9948  2.1153 -0.2667
  630MOL0     H85036   2.067   8.058   7.153 -1.2901 -1.0588  4.0921
  630MOL0     H85037   2.245   8.248   7.099 -0.2989  0.3149 -2.3681
  630MOL0     H85038   2.397   8.559   6.965  1.2663  0.3378 -1.4612
  630MOL0     H85039   2.542   8.696   6.857 -0.7524  1.4304 -0.0367
  630MOL0     H85040   2.799   8.847   6.902 -0.6816 -0.3925  0.2346
  630MOL0     H85041   2.685   8.848   6.763  1.9110 -2.9241  0.6413
  630MOL0     H85042   2.705   9.096   6.761  2.2432  3.2835  0.0047
  630MOL0     H85043   2.844   9.002   6.708  2.5475  0.1849  0.6778
  630MOL0     H85044   2.987   9.090   6.890  0.2502  2.7912  4.0011
  630MOL0     H85045   2.858   9.076   7.005 -0.2778  4.1853  1.1150
  630MOL0     H85046   2.914   9.306   6.960  0.8384  0.9896 -0.5293
  630MOL0     H85047   2.743   9.266   6.914  0.5112 -1.5085 -0.3716
  630MOL0     H85048   2.891   9.380   6.548  0.5267  0.6829 -0.6989
  630MOL0     H85049   2.446   9.014   7.142 -1.6878 -0.9933  2.9650
  630MOL0     H85050   2.269   8.872   7.228 -0.0183 -1.3647 -0.3495
  631MOL0     O85051  10.998   6.234  11.086 -0.8076 -0.3053  0.4237
  631MOL0     C85052  11.059   6.301  11.168  0.9370  0.8710  0.6753
  631MOL0     O85053  11.022   6.430  11.208 -0.1930 -0.9256 -0.6652
  631MOL0     C85054  10.903   6.484  11.164 -0.3122 -0.5475 -0.1677
  631MOL0     C85055  10.896   6.508  11.026  1.0384  0.0312  0.2293
  631MOL0     C85056  10.777   6.551  10.970  0.0022  0.2365  0.3803
  631MOL0     C85057  10.664   6.562  11.051  0.3989 -0.3859  0.4333
  631MOL0     O85058  10.554   6.626  10.995 -0.8821  0.2532  0.2160
  631MOL0     C85059  10.456   6.700  11.076  0.3030  0.6162 -0.3131
  631MOL0     C85060  10.334   6.756  11.001  0.0514 -0.3395  0.5240
  631MOL0     C85061  10.251   6.861  11.083  0.0635  0.9841 -1.3952
  631MOL0     C85062  10.161   6.788  11.187  0.3881 -0.6972  0.2755
  631MOL0     C85063  10.089   6.894  11.280 -0.1437  0.4365 -1.2419
  631MOL0     C85064   9.988   6.989  11.216  0.3803 -0.3534 -0.7282
  631MOL0     C85065   9.861   6.913  11.162 -1.0338  0.2924 -0.7082
  631MOL0     C85066   9.761   7.010  11.098 -0.5895 -0.4132  0.0167
  631MOL0     N85067   9.680   7.076  11.192  0.6807  0.7951 -0.2051
  631MOL0     C85068   9.574   7.019  11.269 -1.2765  0.4731  0.0996
  631MOL0     C85069   9.528   7.124  11.345  0.6250  0.4519 -0.2634
  631MOL0     C85070   9.412   7.116  11.435 -0.8453 -0.8178 -0.1315
  631MOL0     C85071   9.281   7.152  11.356 -0.2901  0.4739 -0.3324
  631MOL0     C85072   9.164   7.146  11.456 -0.4040 -0.9089  0.6005
  631MOL0     C85073   9.044   7.185  11.380  0.4139  0.9330  0.7957
  631MOL0     O85074   8.919   7.149  11.444  0.5359 -0.0763 -0.1774
  631MOL0     C85075   8.808   7.199  11.379  0.1967 -0.6893  1.1183
  631MOL0     C85076   8.794   7.240  11.238  0.4842 -0.7151 -0.1572
  631MOL0     C85077   8.675   7.285  11.183  0.0858  0.1579 -0.4055
  631MOL0     C85078   8.684   7.346  11.040 -0.4983  0.0801  0.5260
  631MOL0     C85079   8.555   7.273  11.258  0.5154  0.1740 -0.6410
  631MOL0     C85080   8.417   7.291  11.203  1.0118  0.4672  0.8446
  631MOL0     O85081   8.309   7.250  11.278  0.0624 -0.3164 -0.9612
  631MOL0     C85082   8.174   7.256  11.234 -0.5666  0.8082  0.2022
  631MOL0     C85083   8.073   7.295  11.321  0.0176 -0.1219  0.1934
  631MOL0     C85084   7.945   7.301  11.269 -0.5283 -0.2380  0.1137
  631MOL0     C85085   7.916   7.266  11.137  0.4079 -0.8478  0.0206
  631MOL0     O85086   7.791   7.298  11.082 -0.3777  0.5250  0.3375
  631MOL0     C85087   7.671   7.254  11.157  1.0852 -0.0938 -0.5675
  631MOL0     C85088   7.612   7.124  11.093 -0.9009 -0.4270 -0.3038
  631MOL0     C85089   7.535   7.158  10.971  0.0576  0.4690  0.0182
  631MOL0     C85090   7.387   7.181  10.971 -0.4472  0.1660 -0.0011
  631MOL0     C85091   7.335   7.224  10.832 -0.0635  0.6580 -0.5119
  631MOL0     C85092   7.180   7.219  10.827 -0.0623  0.7168  0.2306
  631MOL0     C85093   7.131   7.157  10.696  0.5030 -0.3301  0.3935
  631MOL0     C85094   6.978   7.147  10.691  0.4457  0.6557  0.5504
  631MOL0    Cl85095   6.906   7.059  10.830 -0.0211 -0.2452  0.1044
  631MOL0     C85096   8.009   7.212  11.060 -0.8830  0.3320  0.2824
  631MOL0     C85097   8.142   7.208  11.099  0.1487  0.1189 -0.3580
  631MOL0     O85098   8.414   7.324  11.083  0.4521 -0.3192  0.0890
  631MOL0     C85099   8.570   7.225  11.399 -0.3302  0.0700  0.4511
  631MOL0     C85100   8.692   7.203  11.450 -0.6196  0.0170  0.8492
  631MOL0     N85101   9.601   7.237  11.315  0.0924  0.1328  0.1332
  631MOL0     N85102   9.695   7.203  11.233  0.0582  0.1780  0.3558
  631MOL0     C85103  10.672   6.526  11.187  0.9911  0.2235  0.0004
  631MOL0     C85104  10.794   6.492  11.251 -0.4614  0.3894 -0.1099
  631MOL0     C85105  11.182   6.247  11.222 -0.5229 -0.8642  0.1605
  631MOL0     C85106  11.281   6.342  11.248 -1.0017  0.0690  1.1298
  631MOL0     C85107  11.402   6.304  11.311 -0.2426 -0.2954 -0.4965
  631MOL0     C85108  11.419   6.164  11.328 -0.4601  0.5997 -0.1294
  631MOL0     O85109  11.523   6.102  11.391 -0.7033 -0.2866 -0.2210
  631MOL0     C85110  11.609   6.176  11.483 -0.1421 -0.0506 -0.6476
  631MOL0     C85111  11.732   6.256  11.424 -0.7260 -0.0874 -0.1354
  631MOL0     C85112  11.768   6.388  11.501  0.0994  0.3529  0.4162
  631MOL0     C85113  11.900   6.459  11.464 -0.7520 -0.6201 -0.3064
  631MOL0     C85114  11.910   6.520  11.328  0.2043 -0.3306  0.0553
  631MOL0     C85115  11.928   6.551  11.210  0.1639 -0.3843 -0.4377
  631MOL0     C85116  11.324   6.071  11.292  0.1738  0.3767  0.7378
  631MOL0     C85117  11.205   6.110  11.221 -0.2022  0.4218 -0.1404
  631MOL0     H85118  10.977   6.490  10.957 -1.0919  0.2718 -2.5154
  631MOL0     H85119  10.766   6.571  10.864  2.2472  0.1663  0.0811
  631MOL0     H85120  10.406   6.628  11.143 -1.6871  1.1190 -1.1710
  631MOL0     H85121  10.514   6.775  11.130  1.1199 -1.6151  2.1676
  631MOL0     H85122  10.362   6.800  10.905 -0.8373  1.8932  1.2296
  631MOL0     H85123  10.278   6.666  10.974  1.5817 -1.3683  0.6972
  631MOL0     H85124  10.308   6.934  11.142 -0.8572  1.8857 -1.5959
  631MOL0     H85125  10.189   6.917  11.012 -1.3550 -0.8018 -1.6219
  631MOL0     H85126  10.087   6.722  11.141 -0.4234  0.0718  0.4572
  631MOL0     H85127  10.230   6.730  11.248 -0.3758  1.1859  3.1185
  631MOL0     H85128  10.048   6.842  11.367 -1.4393 -1.2362 -2.7863
  631MOL0     H85129  10.168   6.959  11.320 -0.0201 -1.0327  1.1102
  631MOL0     H85130   9.953   7.057  11.294 -0.6072 -0.1812 -1.3096
  631MOL0     H85131  10.032   7.045  11.134 -1.0748  2.3373  0.2117
  631MOL0     H85132   9.900   6.836  11.093 -0.4442 -2.0754  2.0661
  631MOL0     H85133   9.805   6.849  11.230 -0.0353  0.0321 -0.1045
  631MOL0     H85134   9.695   6.957  11.029 -2.0482  1.6471 -0.2706
  631MOL0     H85135   9.828   7.070  11.035  1.1335 -1.1773  1.0392
  631MOL0     H85136   9.534   6.919  11.278 -0.7117  0.3128  1.0266
  631MOL0     H85137   9.403   7.020  11.486  0.2402 -1.4046 -1.0159
  631MOL0     H85138   9.432   7.193  11.511  2.8411 -2.7315  1.0655
  631MOL0     H85139   9.261   7.076  11.280 -0.8661 -0.5635  0.8236
  631MOL0     H85140   9.303   7.245  11.304  2.2839  1.1186  1.7115
  631MOL0     H85141   9.192   7.214  11.537  0.0521 -0.2637 -0.0844
  631MOL0     H85142   9.149   7.044  11.492  3.4930 -1.6263  0.5921
  631MOL0     H85143   9.055   7.128  11.288 -2.5404 -0.5841  1.2681
  631MOL0     H85144   9.052   7.292  11.357  0.0156  1.5388  3.1283
  631MOL0     H85145   8.879   7.244  11.170  1.1008 -1.2439  0.5807
  631MOL0     H85146   8.613   7.299  10.972 -0.0189 -0.3682  0.3291
  631MOL0     H85147   8.662   7.453  11.034  0.0449  0.2658  1.6415
  631MOL0     H85148   8.787   7.323  11.009 -1.3840 -2.3677 -0.8240
  631MOL0     H85149   8.092   7.324  11.424 -2.8719 -1.6200  1.2596
  631MOL0     H85150   7.867   7.351  11.326 -0.7452 -1.1646  0.6292
  631MOL0     H85151   7.692   7.224  11.260  1.2468  0.8693 -0.3137
  631MOL0     H85152   7.596   7.332  11.142 -1.7009 -2.2987  0.7441
  631MOL0     H85153   7.706   7.069  11.077  0.3561  1.2744  0.9170
  631MOL0     H85154   7.558   7.071  11.171  0.3178 -0.8900  0.2565
  631MOL0     H85155   7.554   7.078  10.899  0.1324  0.6708 -0.1857
  631MOL0     H85156   7.578   7.245  10.921  1.0178 -0.0918 -0.1415
  631MOL0     H85157   7.345   7.083  10.996 -0.8182 -0.3344 -2.3136
  631MOL0     H85158   7.367   7.266  11.037  0.5624 -0.4825  1.1549
  631MOL0     H85159   7.373   7.155  10.756  2.3299 -0.1862  1.3025
  631MOL0     H85160   7.382   7.319  10.806  2.6329 -0.8519 -1.6160
  631MOL0     H85161   7.146   7.154  10.907  0.9971 -0.2990 -0.1077
  631MOL0     H85162   7.142   7.321  10.838 -1.6104  0.0371  1.5950
  631MOL0     H85163   7.167   7.054  10.701  0.6476 -0.2159  2.9168
  631MOL0     H85164   7.159   7.217  10.609 -0.9753  0.7113  0.5974
  631MOL0     H85165   6.944   7.095  10.600 -2.3829  1.2002  1.1924
  631MOL0     H85166   6.942   7.251  10.690 -1.7327 -0.0373  0.2383
  631MOL0     H85167   7.994   7.184  10.956  0.5307 -0.5119  0.2734
  631MOL0     H85168   8.220   7.175  11.031 -0.3593  0.7175 -1.2661
  631MOL0     H85169   8.476   7.224  11.453 -1.8430  1.2367 -1.9502
  631MOL0     H85170   8.705   7.198  11.558  0.2785 -0.3252  0.7386
  631MOL0     H85171  10.590   6.537  11.257  1.9571 -0.2081  1.2531
  631MOL0     H85172  10.793   6.474  11.359  0.4718  4.4913  0.7321
  631MOL0     H85173  11.254   6.447  11.238 -1.3676 -0.0624  0.6481
  631MOL0     H85174  11.467   6.379  11.355 -1.1034  0.5322 -0.6192
  631MOL0     H85175  11.543   6.244  11.536 -0.1057  1.7984 -2.8324
  631MOL0     H85176  11.648   6.097  11.548  0.8642  0.1868 -0.9446
  631MOL0     H85177  11.704   6.274  11.319  2.4677 -1.0999 -1.2626
  631MOL0     H85178  11.818   6.189  11.419  2.1102  3.1656  0.9553
  631MOL0     H85179  11.780   6.361  11.607 -0.6375 -1.3228  0.1067
  631MOL0     H85180  11.683   6.455  11.490  0.1753  0.1660 -1.5051
  631MOL0     H85181  11.984   6.389  11.464 -0.2982 -0.0815  0.2419
  631MOL0     H85182  11.907   6.535  11.542 -1.6753 -2.2142  1.4155
  631MOL0     H85183  11.947   6.589  11.112  2.7174 -2.1523 -0.7309
  631MOL0     H85184  11.349   5.967  11.309  0.5200  0.7594  2.9036
  631MOL0     H85185  11.133   6.036  11.188 -1.9516  1.4852  1.0830
  632MOL0     O85186   3.246   9.978   5.896  0.0545  0.2168  0.6968
  632MOL0     C85187   3.285   9.935   5.790  0.5984  0.1995  0.9699
  632MOL0     O85188   3.219   9.853   5.700 -0.1064  0.2461  0.6058
  632MOL0     C85189   3.089   9.796   5.720 -0.4473 -0.1286 -0.4861
  632MOL0     C85190   3.035   9.785   5.851 -0.5885  0.2803  1.2246
  632MOL0     C85191   2.904   9.730   5.872  0.7806 -0.3055  0.0900
  632MOL0     C85192   2.829   9.686   5.764 -0.1683 -0.3504  0.5524
  632MOL0     O85193   2.700   9.643   5.772 -0.6162 -0.2677 -0.5078
  632MOL0     C85194   2.704   9.502   5.784  0.0572 -0.1830 -0.1023
  632MOL0     C85195   2.568   9.454   5.805 -0.7278  0.4530  0.5279
  632MOL0     C85196   2.479   9.535   5.904 -0.0958 -0.1418 -0.1100
  632MOL0     C85197   2.351   9.458   5.920 -0.7905  0.2728  0.1435
  632MOL0     C85198   2.228   9.537   5.978 -0.3162 -0.5134 -0.6170
  632MOL0     C85199   2.112   9.439   5.995 -0.5007 -0.4564 -0.3707
  632MOL0     C85200   1.977   9.500   6.042 -0.1351  0.3974 -0.0992
  632MOL0     C85201   1.867   9.397   6.003 -0.0132  0.5600  0.0078
  632MOL0     N85202   1.738   9.460   6.028  0.1795  0.0667 -0.7079
  632MOL0     C85203   1.675   9.576   5.976  0.4339 -0.4924  0.4398
  632MOL0     C85204   1.572   9.606   6.060  1.0113 -0.5100  0.2372
  632MOL0     C85205   1.474   9.710   6.035  0.0532  0.5852 -0.6354
  632MOL0     C85206   1.335   9.655   5.995 -0.1475 -0.4506 -0.2754
  632MOL0     C85207   1.252   9.778   5.969  0.0515 -0.2718  0.1137
  632MOL0     C85208   1.112   9.739   5.920  0.4373 -0.4981 -0.5151
  632MOL0     O85209   1.030   9.855   5.931  0.5534  0.2404  0.2726
  632MOL0     C85210   0.916   9.861   5.861 -0.0436  0.4240 -0.8830
  632MOL0     C85211   0.854   9.986   5.863 -0.2959 -0.5853  0.3046
  632MOL0     C85212   0.736  10.004   5.790  0.6588 -0.7519  0.3286
  632MOL0     C85213   0.679  10.144   5.778 -0.2210  1.1163 -0.0461
  632MOL0     C85214   0.659   9.892   5.734  0.5693  0.2810  0.2439
  632MOL0     C85215   0.521   9.909   5.653 -0.1765 -0.3624 -1.0629
  632MOL0     O85216   0.482   9.803   5.583  0.3194 -0.3035 -0.2945
  632MOL0     C85217   0.368   9.813   5.519  1.2220  0.4214  0.0428
  632MOL0     C85218   0.242   9.831   5.580  0.3632  0.7631 -0.5737
  632MOL0     C85219   0.125   9.860   5.507  0.1971  0.1813 -1.0953
  632MOL0     C85220   0.123   9.857   5.370 -0.1558  0.8077 -0.1920
  632MOL0     O85221   0.009   9.865   5.305  0.2350 -0.1151  0.3443
  632MOL0     C85222   0.018   9.947   5.192  0.4720 -1.0055 -0.0192
  632MOL0     C85223  -0.111  10.032   5.195  0.5972  0.6138 -0.0819
  632MOL0     C85224  -0.228   9.951   5.132  0.0030 -0.2643  0.2190
  632MOL0     C85225  -0.344  10.047   5.094  0.5926 -0.0912  0.1001
  632MOL0     C85226  -0.425   9.975   4.983  0.9243 -0.6727  1.0079
  632MOL0     C85227  -0.556  10.044   4.969 -0.3190 -0.1462 -0.6681
  632MOL0     C85228  -0.660   9.983   4.872 -0.4220  0.0122 -0.6166
  632MOL0     C85229  -0.787  10.066   4.863 -0.0417 -0.3247 -0.0091
  632MOL0    Cl85230  -0.752  10.218   4.782  0.5396  0.2767 -0.2529
  632MOL0     C85231   0.246   9.837   5.307  0.2428  0.6552  0.1397
  632MOL0     C85232   0.364   9.809   5.379 -0.0479  0.3826 -0.0131
  632MOL0     O85233   0.455  10.011   5.663  0.0116 -0.0456  0.9048
  632MOL0     C85234   0.722   9.762   5.743 -0.1756 -0.5683 -0.1274
  632MOL0     C85235   0.850   9.750   5.796 -0.3910 -0.1937  0.4810
  632MOL0     N85236   1.579   9.518   6.168  0.4732  1.0832 -0.0320
  632MOL0     N85237   1.679   9.443   6.149  1.2775 -0.2905 -0.1642
  632MOL0     C85238   2.883   9.689   5.636 -0.2213  0.1869 -0.1590
  632MOL0     C85239   3.007   9.749   5.615  0.5226  0.1266 -0.2471
  632MOL0     C85240   3.423   9.982   5.752  0.2229 -0.7419  0.8902
  632MOL0     C85241   3.516   9.909   5.668  0.7640 -0.3140 -0.5398
  632MOL0     C85242   3.648   9.948   5.647 -0.6538  0.4003  0.4107
  632MOL0     C85243   3.690  10.062   5.709 -0.8600 -0.3599  0.3079
  632MOL0     O85244   3.817  10.125   5.698  0.2126  0.1190 -0.3644
  632MOL0     C85245   3.895  10.087   5.588  0.2275  0.8803 -0.1332
  632MOL0     C85246   4.010  10.187   5.557 -0.1542 -0.2864 -0.4265
  632MOL0     C85247   3.965  10.331   5.586  0.2892  0.0351  0.0409
  632MOL0     C85248   4.073  10.437   5.577 -0.2942  0.0383  0.0796
  632MOL0     C85249   4.159  10.436   5.695 -0.0893  0.5773  0.1032
  632MOL0     C85250   4.240  10.444   5.783  0.1385 -0.8814  0.3652
  632MOL0     C85251   3.606  10.137   5.790 -1.0610  1.1217 -0.0260
  632MOL0     C85252   3.476  10.090   5.824 -0.1829 -0.5960 -0.8172
  632MOL0     H85253   3.084   9.806   5.945 -0.3112 -0.2333  1.1978
  632MOL0     H85254   2.861   9.714   5.970  3.7443 -1.6108  1.2968
  632MOL0     H85255   2.748   9.470   5.688 -0.8062  1.4533 -1.0961
  632MOL0     H85256   2.763   9.470   5.870 -2.9900 -2.1301  1.4509
  632MOL0     H85257   2.522   9.453   5.706 -2.5596  5.6180  0.9864
  632MOL0     H85258   2.579   9.349   5.833  0.5346 -0.4375 -2.8758
  632MOL0     H85259   2.530   9.552   6.000  1.4004 -0.6553 -0.7827
  632MOL0     H85260   2.455   9.635   5.867  0.0931 -0.6155 -1.5644
  632MOL0     H85261   2.321   9.419   5.823 -0.9690  2.0684 -0.5762
  632MOL0     H85262   2.371   9.373   5.986 -1.6245  0.9496  1.3145
  632MOL0     H85263   2.240   9.588   6.074 -1.9072 -0.9984 -0.1290
  632MOL0     H85264   2.208   9.610   5.898 -0.6240  0.2901  0.1814
  632MOL0     H85265   2.090   9.399   5.896 -1.1929 -0.9802 -0.0109
  632MOL0     H85266   2.150   9.357   6.056 -0.9750 -2.0724 -2.1423
  632MOL0     H85267   1.979   9.504   6.151  0.0704 -3.0816  0.1374
  632MOL0     H85268   1.961   9.595   5.990 -1.6232 -0.0294 -0.4683
  632MOL0     H85269   1.879   9.305   6.061 -0.1129  1.8615  2.1879
  632MOL0     H85270   1.876   9.378   5.895  1.6921 -0.6803  0.3294
  632MOL0     H85271   1.710   9.634   5.892  0.4584  1.7832  1.9428
  632MOL0     H85272   1.460   9.766   6.128  0.3315  1.5696 -1.1641
  632MOL0     H85273   1.514   9.772   5.954 -1.0707  0.1567 -1.5459
  632MOL0     H85274   1.295   9.592   6.075 -2.6055 -0.0005 -1.0493
  632MOL0     H85275   1.342   9.595   5.904 -1.5550 -1.8267  0.4619
  632MOL0     H85276   1.300   9.834   5.888 -0.7306 -1.0573 -0.9367
  632MOL0     H85277   1.234   9.833   6.062  0.9543 -2.1134  1.4394
  632MOL0     H85278   1.071   9.659   5.982 -0.6473  1.0911  0.9187
  632MOL0     H85279   1.117   9.708   5.815 -1.2029  1.6676 -1.3117
  632MOL0     H85280   0.899  10.068   5.918  0.2717 -1.7315  1.6229
  632MOL0     H85281   0.625  10.152   5.684 -3.1448 -0.6609  1.3346
  632MOL0     H85282   0.596  10.152   5.849 -1.2246 -0.1748 -1.0215
  632MOL0     H85283   0.757  10.218   5.798 -0.2603  1.1660 -0.0770
  632MOL0     H85284   0.237   9.852   5.686 -4.8665  1.5408 -0.6824
  632MOL0     H85285   0.029   9.883   5.551  1.2474  0.0655  1.4072
  632MOL0     H85286   0.102  10.017   5.187 -0.5650  0.3003  0.3138
  632MOL0     H85287   0.023   9.890   5.098  1.1154  1.8088 -1.7952
  632MOL0     H85288  -0.137  10.070   5.294  1.2839  0.1391  0.2898
  632MOL0     H85289  -0.097  10.117   5.128  0.9286 -0.6284 -1.6570
  632MOL0     H85290  -0.260   9.865   5.192 -1.9355 -0.7028 -1.3027
  632MOL0     H85291  -0.202   9.911   5.033  3.5107  1.0629  0.5011
  632MOL0     H85292  -0.400  10.077   5.183  0.3281 -0.7391  0.1593
  632MOL0     H85293  -0.304  10.132   5.039  0.9339 -0.6207 -0.4808
  632MOL0     H85294  -0.444   9.871   5.009  2.0022 -0.1942  4.2967
  632MOL0     H85295  -0.359   9.985   4.896  0.7124  3.5380  1.1425
  632MOL0     H85296  -0.612  10.048   5.063  0.0820 -0.7321 -0.4015
  632MOL0     H85297  -0.530  10.148   4.945  1.5374 -0.2800  0.5495
  632MOL0     H85298  -0.677   9.882   4.911  1.1454 -0.3332 -0.7675
  632MOL0     H85299  -0.625   9.974   4.769  0.6975  1.4249 -0.3937
  632MOL0     H85300  -0.832  10.098   4.957  0.3549 -0.9187  0.3865
  632MOL0     H85301  -0.862  10.011   4.805 -0.9897 -0.1826  1.0568
  632MOL0     H85302   0.250   9.826   5.199 -0.6534 -1.3503  0.2723
  632MOL0     H85303   0.462   9.786   5.338 -0.3694 -1.9580  0.4167
  632MOL0     H85304   0.678   9.670   5.704 -0.9536  0.8140 -2.7764
  632MOL0     H85305   0.883   9.648   5.811  0.8727  0.3271  1.4374
  632MOL0     H85306   2.830   9.640   5.555  2.4017 -2.6686 -0.3177
  632MOL0     H85307   3.050   9.758   5.516  0.8691  1.1608 -0.0158
  632MOL0     H85308   3.487   9.809   5.636  0.1236  0.1447 -1.4213
  632MOL0     H85309   3.714   9.890   5.583  0.2810 -0.0012  1.6865
  632MOL0     H85310   3.928   9.982   5.595  0.2891  0.9384  0.5163
  632MOL0     H85311   3.828  10.096   5.502 -2.0835  2.5593  1.7164
  632MOL0     H85312   4.028  10.189   5.450 -1.0141 -4.8402 -0.8822
  632MOL0     H85313   4.101  10.152   5.608 -0.2315  1.2609  0.8413
  632MOL0     H85314   3.927  10.338   5.688  0.1277  0.1696 -0.0281
  632MOL0     H85315   3.880  10.362   5.524  0.3310 -1.5834 -0.8934
  632MOL0     H85316   4.012  10.528   5.580  2.2838  1.9287 -0.7731
  632MOL0     H85317   4.144  10.433   5.494 -0.0598 -3.4055  0.3210
  632MOL0     H85318   4.308  10.449   5.865  3.0110  0.7922 -1.8979
  632MOL0     H85319   3.653  10.227   5.829 -0.4732 -0.0636  2.1057
  632MOL0     H85320   3.415  10.153   5.889  0.5987  0.6431 -1.2539
  633MOL0     O85321   4.296   4.770   2.531 -0.5603 -0.4096  0.1058
  633MOL0     C85322   4.297   4.667   2.592  0.2915  0.6280 -0.9105
  633MOL0     O85323   4.190   4.609   2.654  0.2157 -0.6548 -0.0667
  633MOL0     C85324   4.070   4.676   2.671 -0.2513  0.3088  0.5744
  633MOL0     C85325   4.076   4.798   2.746 -0.2508 -0.5866 -0.1584
  633MOL0     C85326   3.956   4.868   2.762 -0.1618  0.4919 -1.3524
  633MOL0     C85327   3.828   4.815   2.718 -0.3793 -0.3163  0.6380
  633MOL0     O85328   3.719   4.893   2.755  0.4220  0.4201 -0.4734
  633MOL0     C85329   3.592   4.818   2.743 -0.1479 -0.7568  0.1066
  633MOL0     C85330   3.492   4.869   2.843  0.3491 -0.4091  0.3625
  633MOL0     C85331   3.458   5.019   2.820  0.6962 -0.4212  0.2812
  633MOL0     C85332   3.370   5.077   2.923  0.0108  0.3363  0.2405
  633MOL0     C85333   3.223   5.036   2.904 -1.0540  0.9457  0.1199
  633MOL0     C85334   3.153   5.094   3.033  0.1649 -0.3859 -0.0120
  633MOL0     C85335   3.005   5.084   3.016 -0.1514  0.4384 -0.0893
  633MOL0     C85336   2.936   5.131   3.148 -0.2020 -0.1491 -0.7282
  633MOL0     N85337   2.808   5.068   3.161  0.0419  0.0775 -0.5322
  633MOL0     C85338   2.778   4.933   3.165 -0.4582  0.0559  0.4825
  633MOL0     C85339   2.645   4.923   3.171  0.0446  0.2735  0.5192
  633MOL0     C85340   2.566   4.791   3.166 -0.1921  1.2323 -0.3264
  633MOL0     C85341   2.421   4.808   3.133  0.0479 -0.7446 -0.6538
  633MOL0     C85342   2.349   4.667   3.108  0.5220 -0.1243 -0.1692
  633MOL0     C85343   2.204   4.661   3.058 -0.0806  0.1437 -0.3359
  633MOL0     O85344   2.125   4.760   3.131  0.4869  0.6372 -0.5269
  633MOL0     C85345   2.024   4.706   3.204 -1.0019  0.3150  0.1195
  633MOL0     C85346   1.896   4.711   3.156  0.2489  0.0547 -0.7452
  633MOL0     C85347   1.783   4.654   3.226 -0.2195  0.6712 -0.3216
  633MOL0     C85348   1.650   4.660   3.152  0.9156 -0.5987  1.5682
  633MOL0     C85349   1.806   4.594   3.357 -0.4690  0.0827  0.0728
  633MOL0     C85350   1.696   4.520   3.432 -0.6048  0.8102 -0.9945
  633MOL0     O85351   1.724   4.484   3.559 -0.4878  0.0806  0.0324
  633MOL0     C85352   1.632   4.413   3.629  0.8257 -0.4617  0.0450
  633MOL0     C85353   1.594   4.289   3.589  0.3269  0.2929  0.6113
  633MOL0     C85354   1.496   4.214   3.651 -0.1999  0.4357 -0.1419
  633MOL0     C85355   1.434   4.265   3.763 -0.8374 -0.6292 -0.1145
  633MOL0     O85356   1.320   4.214   3.819  0.2854 -0.1807  0.4640
  633MOL0     C85357   1.276   4.097   3.748 -0.2770  0.9170 -0.1129
  633MOL0     C85358   1.137   4.044   3.813  0.2438  0.6601 -0.1746
  633MOL0     C85359   1.008   4.088   3.741 -0.9106  0.6416 -0.5240
  633MOL0     C85360   0.887   4.053   3.824  0.6225  0.4817 -0.1768
  633MOL0     C85361   0.751   4.096   3.756  0.1645 -0.3422 -0.0202
  633MOL0     C85362   0.630   4.018   3.817 -0.1346 -0.3356 -0.0389
  633MOL0     C85363   0.615   4.030   3.972 -0.1047 -0.7158  0.2177
  633MOL0     C85364   0.467   4.012   4.012  0.1529  0.3203 -0.3630
  633MOL0    Cl85365   0.418   3.848   3.946 -0.3032  0.1594  0.4136
  633MOL0     C85366   1.461   4.394   3.804  0.2519  0.3419  0.7487
  633MOL0     C85367   1.562   4.469   3.733 -0.6443  0.7495 -1.3826
  633MOL0     O85368   1.598   4.488   3.369  0.0699  0.1660 -0.1241
  633MOL0     C85369   1.934   4.616   3.414 -0.2005  0.2863  0.7122
  633MOL0     C85370   2.038   4.672   3.345 -0.2936 -0.4989  0.8457
  633MOL0     N85371   2.591   5.049   3.174  0.4419 -0.0615 -0.5982
  633MOL0     N85372   2.689   5.141   3.164  0.0388 -0.3121  0.2084
  633MOL0     C85373   3.833   4.705   2.630 -0.7654 -0.7220 -0.4668
  633MOL0     C85374   3.951   4.635   2.609  0.7463 -0.5560  0.7003
  633MOL0     C85375   4.415   4.571   2.573  0.2306 -1.0469  0.5679
  633MOL0     C85376   4.401   4.445   2.623 -0.3354  0.2924 -0.6297
  633MOL0     C85377   4.513   4.359   2.612 -1.0438  0.1807  0.0110
  633MOL0     C85378   4.630   4.401   2.545 -0.3652 -0.6140  0.4299
  633MOL0     O85379   4.733   4.312   2.542  0.2380  0.1291  0.3222
  633MOL0     C85380   4.807   4.293   2.418  0.1353  0.2182  0.3254
  633MOL0     C85381   4.940   4.382   2.410 -0.5983  0.2106 -0.5885
  633MOL0     C85382   5.040   4.324   2.511 -0.1657 -0.0897 -0.0669
  633MOL0     C85383   5.181   4.375   2.486 -0.3599 -0.0411 -0.5254
  633MOL0     C85384   5.197   4.522   2.464 -1.0173 -0.0256  0.2430
  633MOL0     C85385   5.257   4.626   2.460  0.7297  1.3817  0.2267
  633MOL0     C85386   4.642   4.531   2.503  0.0281 -0.2528  0.4549
  633MOL0     C85387   4.533   4.622   2.511 -1.0302 -0.1909 -0.8887
  633MOL0     H85388   4.163   4.839   2.798  1.0241 -0.7815 -2.0496
  633MOL0     H85389   3.967   4.966   2.807  0.0948 -0.8091  1.6512
  633MOL0     H85390   3.547   4.835   2.645  2.0130  0.7620 -0.6838
  633MOL0     H85391   3.601   4.710   2.762 -1.7489 -0.7126  1.3993
  633MOL0     H85392   3.402   4.812   2.818  1.6938 -0.8413 -4.2630
  633MOL0     H85393   3.532   4.845   2.943 -0.7174 -4.6637 -0.0217
  633MOL0     H85394   3.557   5.060   2.839  0.5491 -1.6012  4.8059
  633MOL0     H85395   3.432   5.041   2.717  1.0808  1.3199  0.5342
  633MOL0     H85396   3.403   5.039   3.020 -2.1527  0.4099  1.0673
  633MOL0     H85397   3.384   5.185   2.929  0.1485  0.2370  2.0763
  633MOL0     H85398   3.180   5.073   2.811  3.5561 -0.2467 -2.8014
  633MOL0     H85399   3.221   4.927   2.894  0.5402  0.9153 -0.0432
  633MOL0     H85400   3.175   5.032   3.120  1.3340 -1.4020 -1.0031
  633MOL0     H85401   3.186   5.198   3.045 -1.3391  0.2799 -1.2342
  633MOL0     H85402   2.988   5.152   2.931  2.1384  2.0508  0.6365
  633MOL0     H85403   2.982   4.981   2.989  3.2540 -0.6441  0.7665
  633MOL0     H85404   2.930   5.241   3.146  0.2414 -0.0493  1.4598
  633MOL0     H85405   2.997   5.092   3.229 -2.6107  0.1145  1.3106
  633MOL0     H85406   2.845   4.849   3.154  1.5782  1.9549 -3.1470
  633MOL0     H85407   2.625   4.729   3.098  1.0926  3.8440 -1.7502
  633MOL0     H85408   2.576   4.745   3.265 -1.7893 -0.7774 -1.0225
  633MOL0     H85409   2.424   4.878   3.049  3.2946 -1.5387 -1.3276
  633MOL0     H85410   2.372   4.866   3.212  0.7777 -0.6912 -0.2403
  633MOL0     H85411   2.341   4.620   3.207  2.1232  0.3586  0.2239
  633MOL0     H85412   2.411   4.601   3.048  1.1606 -1.4677  1.8640
  633MOL0     H85413   2.162   4.562   3.077 -3.2977  1.7437  1.7841
  633MOL0     H85414   2.212   4.678   2.950 -0.0064 -0.5969 -0.4514
  633MOL0     H85415   1.890   4.766   3.063  2.5256  2.3485  0.3210
  633MOL0     H85416   1.663   4.704   3.052 -0.9306 -0.9804  1.1232
  633MOL0     H85417   1.601   4.563   3.144 -2.7806  1.0975  1.3152
  633MOL0     H85418   1.585   4.718   3.218 -2.3406 -0.1346 -1.7096
  633MOL0     H85419   1.637   4.246   3.499  1.4373  3.0439 -0.2872
  633MOL0     H85420   1.467   4.121   3.602  1.6561 -0.7562  0.9230
  633MOL0     H85421   1.261   4.118   3.641  3.1643 -2.3500 -1.4882
  633MOL0     H85422   1.341   4.009   3.755 -2.6363 -0.8518  0.8959
  633MOL0     H85423   1.137   3.935   3.826 -0.3949  0.7828  0.9188
  633MOL0     H85424   1.130   4.073   3.918 -0.2077 -0.5301  0.1418
  633MOL0     H85425   1.004   4.039   3.644  0.0645  2.1363 -1.3570
  633MOL0     H85426   1.019   4.195   3.723 -3.6461  1.0627 -0.1043
  633MOL0     H85427   0.893   3.953   3.866 -0.6557  1.3889  2.3953
  633MOL0     H85428   0.901   4.115   3.913  1.3201  0.5491 -0.3297
  633MOL0     H85429   0.763   4.085   3.648  4.8245  0.4875  0.2050
  633MOL0     H85430   0.736   4.202   3.776  0.9099 -0.2446  0.0369
  633MOL0     H85431   0.543   4.063   3.767  0.3077  1.9589  1.1173
  633MOL0     H85432   0.644   3.917   3.778  0.7992 -0.2649  0.0743
  633MOL0     H85433   0.638   4.131   4.006 -0.0298  0.1491 -2.2271
  633MOL0     H85434   0.680   3.954   4.016  1.0555  1.0860  1.7617
  633MOL0     H85435   0.405   4.093   3.970 -2.1079 -1.2155 -0.1602
  633MOL0     H85436   0.468   4.003   4.121 -0.0953  6.3124  0.4661
  633MOL0     H85437   1.413   4.440   3.890 -1.9007  2.2614 -1.3600
  633MOL0     H85438   1.576   4.574   3.754  4.0157  0.8759 -3.8366
  633MOL0     H85439   1.951   4.594   3.518  2.3152  0.8360  0.4794
  633MOL0     H85440   2.131   4.686   3.400 -1.2886  1.0169  2.2060
  633MOL0     H85441   3.739   4.665   2.593 -0.1121 -3.0577  0.1999
  633MOL0     H85442   3.961   4.547   2.547  0.9748 -0.7463  1.0022
  633MOL0     H85443   4.315   4.413   2.682  1.3271 -1.1308  1.1477
  633MOL0     H85444   4.513   4.257   2.651  1.8556  0.7414  1.8292
  633MOL0     H85445   4.820   4.185   2.423 -5.2011 -0.6924  0.7750
  633MOL0     H85446   4.750   4.309   2.326 -2.5108  0.1537  1.8487
  633MOL0     H85447   4.934   4.488   2.436  2.4223  1.0362 -2.6695
  633MOL0     H85448   4.977   4.370   2.307 -0.8126  0.7988 -0.7362
  633MOL0     H85449   5.046   4.215   2.505  0.3247 -0.1659  1.4335
  633MOL0     H85450   5.005   4.357   2.609 -0.6661  2.0055 -0.8864
  633MOL0     H85451   5.214   4.319   2.398 -2.0249 -0.9370 -0.6102
  633MOL0     H85452   5.231   4.347   2.580 -5.1632  0.9894  2.7107
  633MOL0     H85453   5.308   4.720   2.457 -1.4299  2.5952 -1.0737
  633MOL0     H85454   4.737   4.558   2.460 -0.0870 -0.2831  0.1772
  633MOL0     H85455   4.552   4.722   2.472  0.5459  0.6774  1.8363
  634MOL0     O85456   5.416   1.349  10.832  0.4293 -0.7586 -0.3494
  634MOL0     C85457   5.380   1.235  10.846 -0.0936  0.2090 -0.0502
  634MOL0     O85458   5.275   1.188  10.919  0.5850  0.4519  0.1271
  634MOL0     C85459   5.195   1.266  10.999  0.1883  0.0750 -0.5308
  634MOL0     C85460   5.053   1.229  11.022 -1.2220  1.1966 -0.6820
  634MOL0     C85461   4.975   1.292  11.125 -1.3493 -0.4116  0.6839
  634MOL0     C85462   5.018   1.403  11.188  0.1870 -0.7957  0.5267
  634MOL0     O85463   4.929   1.470  11.268  0.1702  0.6884  0.0137
  634MOL0     C85464   4.944   1.618  11.282  0.1052  0.6634  0.6939
  634MOL0     C85465   4.813   1.687  11.314 -0.2502  0.5231 -0.5937
  634MOL0     C85466   4.737   1.703  11.187  0.1818  0.4700  0.3223
  634MOL0     C85467   4.594   1.763  11.215  0.1729  0.3595 -0.0247
  634MOL0     C85468   4.513   1.790  11.087 -0.3340 -0.9302  0.3197
  634MOL0     C85469   4.442   1.671  11.035 -0.1951 -0.2808 -0.1068
  634MOL0     C85470   4.326   1.715  10.953 -0.3574 -0.0078 -0.3925
  634MOL0     C85471   4.245   1.597  10.899  1.4204 -0.0955  0.2949
  634MOL0     N85472   4.116   1.640  10.834  0.4413  0.6298  0.5368
  634MOL0     C85473   3.993   1.580  10.830 -0.8136  0.1564 -0.0324
  634MOL0     C85474   3.919   1.647  10.743  0.2945 -0.1442  0.3650
  634MOL0     C85475   3.777   1.613  10.706 -0.0299  0.1651 -0.3592
  634MOL0     C85476   3.691   1.531  10.806 -0.2416 -0.3972  0.0501
  634MOL0     C85477   3.559   1.482  10.748 -0.2847 -0.2466  0.0964
  634MOL0     C85478   3.452   1.577  10.774  0.2663  0.1073 -1.2417
  634MOL0     O85479   3.328   1.538  10.709  0.5854  0.4807  0.4771
  634MOL0     C85480   3.198   1.562  10.759 -0.3854  0.0670  0.6641
  634MOL0     C85481   3.162   1.647  10.860 -0.7706  0.0855 -0.2279
  634MOL0     C85482   3.029   1.680  10.891 -0.1754 -0.5186  0.7712
  634MOL0     C85483   2.999   1.783  11.000 -1.1929 -0.4289  0.6976
  634MOL0     C85484   2.927   1.621  10.818  1.2793 -0.6728  0.4185
  634MOL0     C85485   2.779   1.652  10.821 -0.1541 -0.3933  1.2730
  634MOL0     O85486   2.691   1.552  10.795  0.8656  0.5106 -1.0735
  634MOL0     C85487   2.554   1.580  10.787 -0.0226 -0.4757  0.7083
  634MOL0     C85488   2.489   1.553  10.667  0.3789 -0.3166  0.2392
  634MOL0     C85489   2.352   1.586  10.655  0.6967  0.0766  0.2174
  634MOL0     C85490   2.296   1.667  10.753 -0.2794 -0.0700 -0.2212
  634MOL0     O85491   2.158   1.697  10.754  0.2431  0.4468 -0.7543
  634MOL0     C85492   2.055   1.607  10.702 -0.4573 -0.5062  0.4574
  634MOL0     C85493   1.914   1.651  10.762 -0.3451 -0.2332  0.0839
  634MOL0     C85494   1.850   1.768  10.674  0.0348  0.2194  0.0054
  634MOL0     C85495   1.729   1.814  10.740  0.6152  0.2063  0.3366
  634MOL0     C85496   1.603   1.774  10.653  0.0523 -0.0125 -0.0929
  634MOL0     C85497   1.483   1.814  10.732 -0.1358 -0.6214  0.4718
  634MOL0     C85498   1.364   1.732  10.685  0.1139  0.0513  0.3316
  634MOL0     C85499   1.238   1.807  10.702  0.0010 -0.6607  0.2538
  634MOL0    Cl85500   1.093   1.706  10.684  0.0842  0.5523  0.2165
  634MOL0     C85501   2.358   1.697  10.866  0.5022 -0.6038  0.8092
  634MOL0     C85502   2.487   1.655  10.881 -0.4619  0.0772 -0.4201
  634MOL0     O85503   2.754   1.768  10.837 -0.1336  0.3077  0.0213
  634MOL0     C85504   2.962   1.523  10.729  1.1028 -0.5339  0.3237
  634MOL0     C85505   3.094   1.493  10.697  0.1804  0.3986  0.2527
  634MOL0     N85506   3.995   1.749  10.691 -0.0219 -0.5856 -0.4311
  634MOL0     N85507   4.121   1.739  10.737 -0.2172  0.1762 -0.2787
  634MOL0     C85508   5.152   1.450  11.165  0.7192  0.1863  0.9033
  634MOL0     C85509   5.235   1.377  11.082 -0.5754 -0.3683 -0.8202
  634MOL0     C85510   5.476   1.141  10.791 -0.5679  0.3594 -0.4156
  634MOL0     C85511   5.560   1.169  10.684  0.4866  1.2220  0.1233
  634MOL0     C85512   5.650   1.073  10.633  0.4647 -0.1467 -0.1372
  634MOL0     C85513   5.659   0.951  10.685 -1.0037 -0.2807  0.5994
  634MOL0     O85514   5.749   0.850  10.649  0.9650 -0.0465  0.2297
  634MOL0     C85515   5.812   0.846  10.518 -0.0548 -0.7268 -1.2725
  634MOL0     C85516   5.969   0.821  10.523 -0.3307 -0.2244  0.3689
  634MOL0     C85517   6.061   0.932  10.574 -0.1922  0.0105 -0.4375
  634MOL0     C85518   6.045   1.068  10.516 -0.4572  0.0231  0.0839
  634MOL0     C85519   6.102   1.074  10.378 -0.3654  0.5621 -0.3539
  634MOL0     C85520   6.143   1.067  10.264  0.8239  0.1142 -0.2584
  634MOL0     C85521   5.575   0.908  10.790  0.3998 -1.0273  0.4481
  634MOL0     C85522   5.477   1.001  10.833 -0.2668 -0.1739  0.4360
  634MOL0     H85523   5.006   1.148  10.966  3.0558 -0.2813 -2.5769
  634MOL0     H85524   4.873   1.257  11.134 -0.7323 -2.5099  0.3132
  634MOL0     H85525   5.028   1.638  11.349  1.8126 -1.5274 -0.6210
  634MOL0     H85526   4.977   1.652  11.183 -1.3311  1.0927  0.3481
  634MOL0     H85527   4.756   1.635  11.391  2.2567  0.5336  1.4398
  634MOL0     H85528   4.852   1.780  11.358  0.0825  0.7260 -1.2984
  634MOL0     H85529   4.799   1.772  11.129 -1.8350 -1.5645 -4.8414
  634MOL0     H85530   4.726   1.604  11.143  0.2150 -0.2768  1.9188
  634MOL0     H85531   4.546   1.691  11.283  0.5991  0.5201  0.4518
  634MOL0     H85532   4.607   1.847  11.283  0.7161 -0.7146  1.2398
  634MOL0     H85533   4.443   1.868  11.120  0.2449  0.8038 -2.2547
  634MOL0     H85534   4.579   1.829  11.009 -1.5082 -2.7678 -1.7002
  634MOL0     H85535   4.506   1.605  10.976 -0.9618 -2.1970  1.1131
  634MOL0     H85536   4.409   1.610  11.120  0.8940 -1.0020 -0.1828
  634MOL0     H85537   4.268   1.785  11.014  1.1320  1.2560 -0.3561
  634MOL0     H85538   4.373   1.768  10.869  2.2725 -1.2410  0.2071
  634MOL0     H85539   4.217   1.525  10.977  0.2460  1.4353  1.3595
  634MOL0     H85540   4.306   1.548  10.823  1.3171  0.6189 -0.2532
  634MOL0     H85541   3.964   1.497  10.895 -1.5558  2.5481  2.9089
  634MOL0     H85542   3.722   1.704  10.682 -1.1071 -0.1395  0.8342
  634MOL0     H85543   3.784   1.539  10.626  0.4501 -1.6765  1.3070
  634MOL0     H85544   3.682   1.585  10.901 -0.9610 -0.4921  0.0432
  634MOL0     H85545   3.741   1.441  10.842  0.0434 -1.2727 -2.3389
  634MOL0     H85546   3.538   1.383  10.791  0.8429 -0.2763  0.6075
  634MOL0     H85547   3.571   1.462  10.641  0.5135 -0.1204  0.1628
  634MOL0     H85548   3.487   1.679  10.754  2.1830 -0.6239 -1.7481
  634MOL0     H85549   3.432   1.583  10.882 -1.9630 -0.5088 -1.5634
  634MOL0     H85550   3.244   1.690  10.916  1.2239 -0.2946 -2.6919
  634MOL0     H85551   2.895   1.765  11.030 -1.4135 -1.0556 -0.3773
  634MOL0     H85552   3.061   1.751  11.084  2.0570 -0.1443 -1.4325
  634MOL0     H85553   3.024   1.888  10.983  1.5223 -1.5316 -3.7743
  634MOL0     H85554   2.534   1.498  10.586 -0.8388  0.6924 -1.1830
  634MOL0     H85555   2.302   1.557  10.563 -2.1796  2.8386  0.7279
  634MOL0     H85556   2.053   1.596  10.594 -1.4326  0.3586  0.3672
  634MOL0     H85557   2.063   1.504  10.738 -2.9882 -0.1558  2.3621
  634MOL0     H85558   1.845   1.568  10.751 -0.7022  0.1266 -0.3875
  634MOL0     H85559   1.919   1.668  10.870 -1.6970  1.0582 -0.0229
  634MOL0     H85560   1.829   1.754  10.568 -1.9970  4.3914 -0.3820
  634MOL0     H85561   1.926   1.847  10.670 -0.4676  0.6691 -0.8555
  634MOL0     H85562   1.730   1.779  10.843  1.1411 -3.1576 -0.7112
  634MOL0     H85563   1.742   1.922  10.756  3.1054 -0.3228  2.3413
  634MOL0     H85564   1.598   1.665  10.641 -2.8858  0.0096  0.2971
  634MOL0     H85565   1.599   1.825  10.556 -3.0171  3.0384  1.4207
  634MOL0     H85566   1.516   1.777  10.830  2.7578  0.1374 -0.1123
  634MOL0     H85567   1.473   1.922  10.719 -1.4018 -0.6493  1.0066
  634MOL0     H85568   1.357   1.646  10.752  0.0341  2.4182  3.5968
  634MOL0     H85569   1.369   1.692  10.583  3.0794  2.1449 -0.4787
  634MOL0     H85570   1.239   1.883  10.623 -0.6117 -1.9843 -1.0807
  634MOL0     H85571   1.226   1.855  10.799  0.9745 -0.1235  0.1325
  634MOL0     H85572   2.315   1.749  10.951 -3.7006 -2.0574 -0.1699
  634MOL0     H85573   2.549   1.692  10.963 -1.2367  1.2020 -0.3147
  634MOL0     H85574   2.891   1.462  10.675 -0.3183  0.3654  1.0763
  634MOL0     H85575   3.100   1.416  10.620 -3.7274 -0.1706  0.3058
  634MOL0     H85576   5.178   1.550  11.198 -2.5649  1.1206  1.0114
  634MOL0     H85577   5.335   1.416  11.071 -0.6057  0.5533  1.4901
  634MOL0     H85578   5.553   1.262  10.628  1.5292  1.1557 -0.1484
  634MOL0     H85579   5.704   1.103  10.543 -1.3355  0.8388 -0.9377
  634MOL0     H85580   5.766   0.765  10.461  0.1492 -0.1572 -2.2578
  634MOL0     H85581   5.795   0.933  10.454  1.2302 -0.1957 -0.9105
  634MOL0     H85582   5.988   0.806  10.416  0.3771  3.0601 -0.0677
  634MOL0     H85583   5.993   0.730  10.579  1.9350  0.8128  1.2047
  634MOL0     H85584   6.161   0.895  10.549  0.8850  0.8170  2.2353
  634MOL0     H85585   6.052   0.935  10.683  2.2674 -1.2374 -0.1248
  634MOL0     H85586   6.104   1.142  10.570  1.0471  0.7330 -2.3897
  634MOL0     H85587   5.941   1.104  10.517 -0.6598 -0.5596  0.7361
  634MOL0     H85588   6.168   1.053  10.161 -0.6583  1.7940 -0.9139
  634MOL0     H85589   5.573   0.802  10.814  0.0207 -1.0475  0.3365
  634MOL0     H85590   5.399   0.963  10.899 -2.5685 -0.5310 -2.2896
  635MOL0     O85591   6.645   6.540   7.951  0.9115 -0.4946  0.1983
  635MOL0     C85592   6.764   6.566   7.960  0.5119 -0.1510 -0.4195
  635MOL0     O85593   6.852   6.519   8.048 -0.3493 -1.0496 -0.3911
  635MOL0     C85594   6.812   6.448   8.159  0.8128  0.6941 -0.3183
  635MOL0     C85595   6.734   6.328   8.143  0.1546  0.5212 -0.0564
  635MOL0     C85596   6.708   6.249   8.245 -0.1362  0.4485  0.0229
  635MOL0     C85597   6.750   6.283   8.371 -0.3721 -0.8551 -0.2951
  635MOL0     O85598   6.728   6.204   8.478  0.1680 -0.0244  0.2710
  635MOL0     C85599   6.618   6.112   8.475  0.5680 -0.1130  0.5685
  635MOL0     C85600   6.577   6.055   8.612  1.1473 -0.7351 -0.9353
  635MOL0     C85601   6.683   5.977   8.688  0.2024  0.4080  0.1570
  635MOL0     C85602   6.796   6.059   8.733 -0.5098  0.3219  0.1566
  635MOL0     C85603   6.884   5.982   8.847 -0.0392  0.1455  0.3142
  635MOL0     C85604   7.027   6.044   8.857 -0.3587 -0.8856 -0.2524
  635MOL0     C85605   7.007   6.185   8.928 -0.0618  0.0823  0.2043
  635MOL0     C85606   7.126   6.215   9.022  0.0227  0.0206  0.1340
  635MOL0     N85607   7.105   6.340   9.099  0.3686 -0.2245 -0.6056
  635MOL0     C85608   7.138   6.473   9.055 -0.2951  0.2755 -0.4211
  635MOL0     C85609   7.139   6.556   9.163  0.5246 -0.0164  0.1770
  635MOL0     C85610   7.186   6.698   9.174 -0.0661 -0.0794  0.0617
  635MOL0     C85611   7.324   6.708   9.235  0.0662  0.4510 -0.4488
  635MOL0     C85612   7.366   6.852   9.247  0.6150 -0.7162 -0.0043
  635MOL0     C85613   7.500   6.865   9.306  0.1829  0.1878  1.0068
  635MOL0     O85614   7.510   6.993   9.365 -0.2872 -0.0420  0.6928
  635MOL0     C85615   7.577   6.994   9.482  1.4019  0.4261  0.0278
  635MOL0     C85616   7.702   7.040   9.484 -0.1580 -0.1444 -0.0655
  635MOL0     C85617   7.786   7.022   9.592  0.0323 -0.5571 -0.2950
  635MOL0     C85618   7.910   7.111   9.595  0.3642  0.0296  1.0170
  635MOL0     C85619   7.745   6.957   9.707  0.0078 -0.4109 -0.4090
  635MOL0     C85620   7.832   6.934   9.832  1.1506 -0.3402  0.9260
  635MOL0     O85621   7.944   6.999   9.863 -0.0229  0.0001  0.5366
  635MOL0     C85622   8.036   6.943   9.953 -0.9144 -0.0407 -0.2800
  635MOL0     C85623   8.101   7.024  10.053  0.5598 -0.1115  0.3225
  635MOL0     C85624   8.194   6.967  10.138  0.0089 -0.1141 -0.3911
  635MOL0     C85625   8.235   6.828  10.120 -0.5187  0.1811 -0.3716
  635MOL0     O85626   8.332   6.775  10.200 -0.1303  0.6224  0.4842
  635MOL0     C85627   8.455   6.852  10.213  0.6426 -0.3149  0.4959
  635MOL0     C85628   8.574   6.761  10.227 -0.8038 -0.6223  0.6402
  635MOL0     C85629   8.613   6.690  10.095  0.1114 -0.3148 -0.0671
  635MOL0     C85630   8.714   6.575  10.102 -0.9320  0.4298 -0.5097
  635MOL0     C85631   8.656   6.439  10.139  1.1261 -0.0983 -0.2802
  635MOL0     C85632   8.748   6.315  10.128 -0.0696  0.4422  0.4324
  635MOL0     C85633   8.839   6.318  10.250 -0.4491 -0.5710  0.3226
  635MOL0     C85634   8.944   6.217  10.238  0.7026  0.3132  1.0408
  635MOL0    Cl85635   9.052   6.239  10.082  0.2282  0.0081 -0.2598
  635MOL0     C85636   8.161   6.745  10.039 -0.8038  0.1335  0.7634
  635MOL0     C85637   8.069   6.808   9.951 -0.1253  0.8219  0.5558
  635MOL0     O85638   7.782   6.838   9.891  0.0044  0.3228 -0.3911
  635MOL0     C85639   7.612   6.908   9.704  0.5798  0.2925 -0.1918
  635MOL0     C85640   7.544   6.913   9.589  0.3974  0.5772  1.1006
  635MOL0     N85641   7.093   6.477   9.266  1.1412  0.6796 -1.0669
  635MOL0     N85642   7.082   6.350   9.235  0.0042  0.3774 -0.4951
  635MOL0     C85643   6.828   6.400   8.384 -0.2453  0.8671  0.3503
  635MOL0     C85644   6.848   6.487   8.273  0.2512 -0.0489 -0.2719
  635MOL0     C85645   6.803   6.685   7.875  0.0952  0.0043 -0.0993
  635MOL0     C85646   6.722   6.763   7.803  0.7976 -0.6328 -0.3805
  635MOL0     C85647   6.754   6.870   7.716 -0.3255  0.4886  0.2480
  635MOL0     C85648   6.880   6.903   7.706  0.6024  0.0691  0.2626
  635MOL0     O85649   6.906   7.016   7.631  0.6159 -0.2675  0.7548
  635MOL0     C85650   7.026   7.085   7.661 -0.7410  0.2551 -0.8452
  635MOL0     C85651   7.023   7.222   7.592 -0.3066 -0.6430  0.4145
  635MOL0     C85652   7.170   7.277   7.573  0.1630 -0.0800 -0.8817
  635MOL0     C85653   7.159   7.411   7.495  0.7371  0.8173 -0.2488
  635MOL0     C85654   7.069   7.513   7.560  0.4225  0.1589  0.3924
  635MOL0     C85655   6.996   7.607   7.590 -0.9539  0.2539  0.4053
  635MOL0     C85656   6.973   6.826   7.783  0.2383 -0.4793  0.7783
  635MOL0     C85657   6.938   6.720   7.862 -0.5308 -0.3234 -0.1650
  635MOL0     H85658   6.697   6.303   8.044  0.6706  0.7172 -0.2996
  635MOL0     H85659   6.650   6.158   8.229 -1.3397  1.1135  0.4233
  635MOL0     H85660   6.536   6.167   8.428  2.7938  2.5395 -0.4525
  635MOL0     H85661   6.640   6.025   8.413  0.3873  0.0753  0.2391
  635MOL0     H85662   6.550   6.139   8.677 -0.7439 -0.2753 -2.2136
  635MOL0     H85663   6.501   5.977   8.599  1.3666 -1.1184  0.0264
  635MOL0     H85664   6.623   5.932   8.768  0.4870 -1.2038 -0.4911
  635MOL0     H85665   6.722   5.904   8.617  2.1412  1.6058 -0.0566
  635MOL0     H85666   6.871   6.083   8.656 -1.3364  0.2521 -0.6831
  635MOL0     H85667   6.759   6.156   8.767  1.9975  0.8456  1.6508
  635MOL0     H85668   6.835   5.992   8.944 -2.4782 -0.9320 -0.7351
  635MOL0     H85669   6.899   5.877   8.824 -1.3733  0.2675 -1.2361
  635MOL0     H85670   7.093   5.987   8.922  0.8172  0.4319 -0.2295
  635MOL0     H85671   7.073   6.067   8.760  2.1330  1.9435  1.4097
  635MOL0     H85672   6.995   6.271   8.862  1.2491  2.9259  3.3493
  635MOL0     H85673   6.910   6.189   8.978 -1.5099  0.9300 -2.4891
  635MOL0     H85674   7.213   6.226   8.956  1.3738 -3.2122  1.1652
  635MOL0     H85675   7.133   6.128   9.089 -2.6158  0.0085  0.4904
  635MOL0     H85676   7.178   6.495   8.957  2.5995  0.9399  0.8251
  635MOL0     H85677   7.204   6.724   9.069  2.9224  2.7699  1.1094
  635MOL0     H85678   7.115   6.773   9.211  0.0035 -0.4053  0.8540
  635MOL0     H85679   7.399   6.668   9.167 -0.3860 -0.1585 -0.5915
  635MOL0     H85680   7.320   6.641   9.321  3.3815 -2.1101 -2.0650
  635MOL0     H85681   7.297   6.910   9.308 -2.1895 -3.0687 -0.7174
  635MOL0     H85682   7.364   6.914   9.157 -1.1002 -1.0932 -0.2627
  635MOL0     H85683   7.577   6.849   9.230 -0.8670 -1.1040  0.1823
  635MOL0     H85684   7.518   6.785   9.380 -2.6410 -1.0818  0.4263
  635MOL0     H85685   7.733   7.102   9.400 -1.9858 -0.9307 -1.3910
  635MOL0     H85686   7.889   7.180   9.677  0.8299  1.0931  0.2741
  635MOL0     H85687   8.000   7.055   9.623  0.1047 -1.3482 -0.7261
  635MOL0     H85688   7.931   7.160   9.500  2.0146  1.1567  1.9070
  635MOL0     H85689   8.080   7.130  10.067 -1.6902 -0.4911  0.0639
  635MOL0     H85690   8.250   7.025  10.210  1.5232 -1.4703 -0.4384
  635MOL0     H85691   8.456   6.930  10.137  2.9181 -0.4619  0.2992
  635MOL0     H85692   8.446   6.913  10.303 -0.2096  1.5633 -0.7911
  635MOL0     H85693   8.661   6.816  10.265 -0.8768 -0.8620  1.1636
  635MOL0     H85694   8.544   6.683  10.298 -0.8304 -0.6769  0.5683
  635MOL0     H85695   8.664   6.776  10.051  2.0914 -0.0790  2.4503
  635MOL0     H85696   8.522   6.652  10.047  0.9482 -3.5358  0.6029
  635MOL0     H85697   8.758   6.553  10.004  2.8572 -3.5735  1.7149
  635MOL0     H85698   8.807   6.598  10.155  0.8376 -1.7540 -2.4341
  635MOL0     H85699   8.573   6.416  10.071  1.7173  0.0531 -1.0721
  635MOL0     H85700   8.619   6.443  10.241  1.3271  0.1689 -0.2158
  635MOL0     H85701   8.682   6.229  10.115 -1.4471  1.5296 -0.0951
  635MOL0     H85702   8.804   6.317  10.034  0.4771  2.7046  0.7582
  635MOL0     H85703   8.779   6.301  10.340  1.8915  1.6850  2.4423
  635MOL0     H85704   8.890   6.414  10.261 -0.0775 -0.8599  1.2409
  635MOL0     H85705   8.908   6.114  10.248  1.4452  0.0586  1.1656
  635MOL0     H85706   9.000   6.220  10.331  0.9135 -0.7048  0.9596
  635MOL0     H85707   8.186   6.640  10.026 -3.6177 -0.3374 -2.4559
  635MOL0     H85708   8.020   6.747   9.877  0.1755 -0.9990  1.7810
  635MOL0     H85709   7.573   6.850   9.788  0.2902 -1.2455 -1.3530
  635MOL0     H85710   7.447   6.863   9.593  0.6754  0.0901  2.0284
  635MOL0     H85711   6.866   6.426   8.483  0.4541  1.7437 -0.1404
  635MOL0     H85712   6.899   6.580   8.298  2.4686 -1.0500 -0.8252
  635MOL0     H85713   6.615   6.752   7.820  1.0300 -2.6143 -0.0037
  635MOL0     H85714   6.670   6.921   7.670 -0.2937  1.0320  0.7879
  635MOL0     H85715   7.035   7.100   7.769  0.9563 -1.6818 -0.6478
  635MOL0     H85716   7.115   7.031   7.628 -1.1051 -1.7170  1.1340
  635MOL0     H85717   6.963   7.293   7.650 -1.0322  0.3027 -1.4218
  635MOL0     H85718   6.966   7.217   7.499 -0.1179 -2.8621  0.3611
  635MOL0     H85719   7.228   7.207   7.512  0.0904 -0.6450 -0.3137
  635MOL0     H85720   7.230   7.294   7.664 -0.7161  1.2854 -0.5348
  635MOL0     H85721   7.108   7.389   7.401  0.9140  0.1971 -0.2048
  635MOL0     H85722   7.255   7.449   7.459  1.6700 -0.9127  0.2700
  635MOL0     H85723   6.941   7.692   7.623 -2.1821 -0.9417  1.5799
  635MOL0     H85724   7.078   6.851   7.776  0.4247 -1.5251 -0.6965
  635MOL0     H85725   7.015   6.663   7.912 -0.7161  0.4026  1.0165
  636MOL0     O85726   4.642   3.455   8.485  0.0300 -0.4867 -0.5753
  636MOL0     C85727   4.709   3.358   8.444 -0.2038 -0.2306  0.3429
  636MOL0     O85728   4.670   3.264   8.348  0.6994  0.7454  0.6345
  636MOL0     C85729   4.535   3.269   8.311 -0.7594  0.4121  0.2926
  636MOL0     C85730   4.473   3.342   8.211  0.4169  0.1403  0.5382
  636MOL0     C85731   4.336   3.355   8.200  0.9824  0.4961  0.7019
  636MOL0     C85732   4.250   3.285   8.291  0.0742 -0.7263 -0.8887
  636MOL0     O85733   4.115   3.261   8.275 -0.4269 -0.2027 -0.1915
  636MOL0     C85734   4.048   3.339   8.174  0.1667 -0.4251 -0.6678
  636MOL0     C85735   3.898   3.329   8.195 -0.0701  0.4886 -0.0896
  636MOL0     C85736   3.828   3.439   8.126  0.4396 -0.2740  0.6450
  636MOL0     C85737   3.671   3.440   8.133 -0.1808 -0.0464  0.0884
  636MOL0     C85738   3.612   3.567   8.064  0.1105  0.2587 -0.1122
  636MOL0     C85739   3.493   3.525   7.973  0.2483 -0.0389 -0.6826
  636MOL0     C85740   3.427   3.648   7.899 -0.2956  0.5901 -0.8261
  636MOL0     C85741   3.383   3.755   7.990  0.5230 -0.1327 -0.8682
  636MOL0     N85742   3.304   3.716   8.107 -0.8354  0.4181 -0.0225
  636MOL0     C85743   3.192   3.633   8.114 -0.2566 -0.5256 -0.6325
  636MOL0     C85744   3.172   3.629   8.249 -0.4345  0.2228 -0.1220
  636MOL0     C85745   3.073   3.540   8.322 -0.2558  0.9873  0.0814
  636MOL0     C85746   2.980   3.578   8.437 -0.5158 -0.8981 -0.4596
  636MOL0     C85747   2.899   3.457   8.491  0.0861 -0.2849 -0.3777
  636MOL0     C85748   2.786   3.489   8.592 -0.0378  0.4280  0.0222
  636MOL0     O85749   2.787   3.364   8.666  0.2709  0.1545 -0.2110
  636MOL0     C85750   2.670   3.334   8.732 -0.5939 -0.1978 -0.9110
  636MOL0     C85751   2.536   3.381   8.713  0.7190  0.7815 -0.2807
  636MOL0     C85752   2.429   3.341   8.794 -0.3511 -0.4047 -0.2788
  636MOL0     C85753   2.290   3.398   8.758  0.4349  0.8085 -0.4685
  636MOL0     C85754   2.449   3.243   8.892  0.0943  0.5555  0.5458
  636MOL0     C85755   2.348   3.168   8.965  0.0958 -0.1722 -0.7276
  636MOL0     O85756   2.219   3.180   8.928 -0.1085 -0.1472 -0.0607
  636MOL0     C85757   2.129   3.087   8.986 -0.6862  1.2270  0.5860
  636MOL0     C85758   2.048   3.004   8.908  0.4719  0.9157 -0.1779
  636MOL0     C85759   1.956   2.912   8.966  0.0275 -0.2424  0.0820
  636MOL0     C85760   1.943   2.912   9.109 -0.5426 -0.1911 -0.7864
  636MOL0     O85761   1.855   2.824   9.162  0.3161 -0.3239 -0.2263
  636MOL0     C85762   1.845   2.817   9.307 -0.3106 -0.2422  0.5424
  636MOL0     C85763   1.764   2.687   9.340 -0.2859 -0.4240 -0.2461
  636MOL0     C85764   1.628   2.692   9.282 -0.9821  0.2550 -0.0028
  636MOL0     C85765   1.517   2.630   9.364 -0.4038  0.0601 -0.3036
  636MOL0     C85766   1.375   2.626   9.303  1.2909  0.3956  0.0888
  636MOL0     C85767   1.306   2.765   9.303 -1.1466  0.5960 -0.4817
  636MOL0     C85768   1.168   2.745   9.242 -0.1237  0.2983  0.0028
  636MOL0     C85769   1.091   2.866   9.274  0.6316 -0.3607  0.3493
  636MOL0    Cl85770   0.930   2.866   9.203 -0.1145 -0.2749 -0.4568
  636MOL0     C85771   2.028   2.999   9.179 -0.5098  0.8018 -0.1085
  636MOL0     C85772   2.115   3.086   9.124  0.3223 -0.0761  0.3320
  636MOL0     O85773   2.393   3.079   9.041  0.2722  0.1432 -0.1374
  636MOL0     C85774   2.583   3.199   8.905 -0.2621 -1.1217  0.2744
  636MOL0     C85775   2.687   3.242   8.827  0.4680 -0.6803 -0.1355
  636MOL0     N85776   3.270   3.698   8.311 -0.3157  0.1524 -1.2347
  636MOL0     N85777   3.354   3.739   8.230 -1.0391 -0.2610 -0.0584
  636MOL0     C85778   4.317   3.210   8.392  0.5028 -0.0917  0.8352
  636MOL0     C85779   4.449   3.209   8.401 -0.1068  0.2799 -0.6170
  636MOL0     C85780   4.852   3.362   8.474 -0.2774  0.3630 -0.2728
  636MOL0     C85781   4.894   3.447   8.577  0.2505 -0.6686  0.4074
  636MOL0     C85782   5.030   3.443   8.615 -0.0418 -0.9253 -0.3660
  636MOL0     C85783   5.121   3.375   8.549 -0.1203 -0.5348  0.1975
  636MOL0     O85784   5.253   3.362   8.583  0.5624 -0.3165 -0.3675
  636MOL0     C85785   5.295   3.424   8.708 -0.4473  0.2082  0.6701
  636MOL0     C85786   5.449   3.406   8.719  0.8124  0.3659 -0.5285
  636MOL0     C85787   5.475   3.257   8.743 -0.3182 -1.0693 -0.2152
  636MOL0     C85788   5.629   3.227   8.749  0.6409  0.1057  0.0500
  636MOL0     C85789   5.662   3.118   8.851 -0.4795 -0.6454  0.3790
  636MOL0     C85790   5.703   3.032   8.929 -0.5063  0.0048 -0.1797
  636MOL0     C85791   5.080   3.297   8.436  0.0611  0.5528 -0.6870
  636MOL0     C85792   4.944   3.287   8.399 -0.4406 -0.5598 -0.0252
  636MOL0     H85793   4.539   3.393   8.142  1.3404 -0.4707  0.9427
  636MOL0     H85794   4.293   3.398   8.110  0.5433 -1.1726  0.0940
  636MOL0     H85795   4.093   3.438   8.185  3.4958 -1.8283 -0.4399
  636MOL0     H85796   4.071   3.301   8.074 -0.4891  1.0178 -1.4047
  636MOL0     H85797   3.868   3.235   8.148  0.8180  1.0489 -1.8850
  636MOL0     H85798   3.863   3.329   8.299 -1.9594  0.2263 -0.6955
  636MOL0     H85799   3.871   3.534   8.158 -0.1953  0.5891 -0.9615
  636MOL0     H85800   3.853   3.422   8.021 -2.2666  0.7202 -0.2540
  636MOL0     H85801   3.628   3.349   8.091  0.1398 -0.2903  0.2880
  636MOL0     H85802   3.636   3.447   8.236  2.2878 -0.1817  1.0044
  636MOL0     H85803   3.563   3.636   8.134  1.7954  1.7972 -0.4026
  636MOL0     H85804   3.687   3.611   7.999  0.4364  0.1697  0.2011
  636MOL0     H85805   3.530   3.461   7.892  0.5379 -0.4122 -0.2601
  636MOL0     H85806   3.417   3.470   8.029  1.4872 -1.8332 -0.6450
  636MOL0     H85807   3.498   3.703   7.836  1.9150 -1.0919  0.0780
  636MOL0     H85808   3.337   3.614   7.846 -1.5453 -1.3946  2.2722
  636MOL0     H85809   3.331   3.833   7.934  0.0892 -0.9806 -1.6499
  636MOL0     H85810   3.474   3.811   8.017 -0.5465  1.2250  0.1056
  636MOL0     H85811   3.124   3.594   8.039 -1.7377 -0.8865  0.8378
  636MOL0     H85812   3.002   3.500   8.249 -1.8557 -3.9971  3.8068
  636MOL0     H85813   3.132   3.455   8.357 -1.8628 -0.7025 -1.1293
  636MOL0     H85814   2.902   3.648   8.406 -1.3436 -0.5562  2.1665
  636MOL0     H85815   3.041   3.617   8.519  1.7068 -2.7360 -1.1230
  636MOL0     H85816   2.967   3.395   8.550 -2.4142 -2.3032  0.5768
  636MOL0     H85817   2.861   3.400   8.406  0.7310 -1.4944  0.1184
  636MOL0     H85818   2.691   3.507   8.541 -0.2494 -1.4918 -0.3673
  636MOL0     H85819   2.817   3.565   8.663  0.4503  0.9551 -0.7411
  636MOL0     H85820   2.512   3.457   8.640  1.1401  0.4300 -0.7934
  636MOL0     H85821   2.315   3.485   8.697 -1.2058  0.5755 -1.5062
  636MOL0     H85822   2.239   3.333   8.687 -2.8004  3.8084 -1.1374
  636MOL0     H85823   2.227   3.430   8.841 -0.8790  1.7878 -1.7891
  636MOL0     H85824   2.052   3.003   8.799  3.5802 -1.3572 -0.1871
  636MOL0     H85825   1.904   2.831   8.916 -0.4194 -0.0256  0.1945
  636MOL0     H85826   1.939   2.809   9.362 -1.0463 -0.4519  1.8064
  636MOL0     H85827   1.793   2.907   9.340 -2.6225 -1.7211  1.1162
  636MOL0     H85828   1.826   2.609   9.293 -1.9074 -1.7956 -0.2074
  636MOL0     H85829   1.755   2.674   9.449  1.1288  0.0283 -0.0507
  636MOL0     H85830   1.634   2.640   9.186  0.2374  0.0495  0.1742
  636MOL0     H85831   1.606   2.798   9.266  0.7071  0.8341  1.2863
  636MOL0     H85832   1.535   2.522   9.374 -2.6269 -0.7674 -3.6264
  636MOL0     H85833   1.523   2.681   9.461  0.8018  0.2498 -0.4650
  636MOL0     H85834   1.310   2.555   9.355  0.9857 -0.3999 -1.3416
  636MOL0     H85835   1.382   2.601   9.197 -1.7839 -3.8401  0.6329
  636MOL0     H85836   1.299   2.804   9.405  0.8280  2.9301 -1.1458
  636MOL0     H85837   1.362   2.847   9.256  0.2256  0.2995  0.5634
  636MOL0     H85838   1.122   2.659   9.291  0.7256 -0.0787  0.1533
  636MOL0     H85839   1.168   2.724   9.135 -0.8037  0.9856 -0.1396
  636MOL0     H85840   1.147   2.956   9.246  2.3880 -1.1391  1.1766
  636MOL0     H85841   1.082   2.866   9.383  3.6412 -2.3653  0.7342
  636MOL0     H85842   2.019   3.007   9.286  1.9784  0.7248  0.1665
  636MOL0     H85843   2.178   3.152   9.182 -0.2344  1.7081 -0.9783
  636MOL0     H85844   2.601   3.111   8.965 -0.5728 -1.2995  0.1089
  636MOL0     H85845   2.776   3.181   8.832  0.1256 -1.2885 -1.1183
  636MOL0     H85846   4.267   3.162   8.475 -0.4173  0.1868  0.4613
  636MOL0     H85847   4.509   3.162   8.478 -0.2777 -1.5499 -1.5493
  636MOL0     H85848   4.819   3.500   8.634  0.9677  2.5846 -1.4637
  636MOL0     H85849   5.063   3.501   8.701 -0.6005 -3.2176  1.4853
  636MOL0     H85850   5.260   3.525   8.687 -4.9361 -1.1766  0.5327
  636MOL0     H85851   5.243   3.381   8.794  0.8968 -1.4922  0.6979
  636MOL0     H85852   5.466   3.473   8.805  0.2582  0.9311 -0.8505
  636MOL0     H85853   5.511   3.450   8.640  2.7927  0.7635  1.1578
  636MOL0     H85854   5.419   3.205   8.665  1.9766 -4.5931  0.2762
  636MOL0     H85855   5.430   3.227   8.838  1.6360 -4.7262 -0.2703
  636MOL0     H85856   5.688   3.313   8.779  1.5134 -0.7047  0.7064
  636MOL0     H85857   5.657   3.196   8.648 -0.4953 -0.3732 -0.1361
  636MOL0     H85858   5.723   2.955   9.001  0.1848  1.1143  0.8574
  636MOL0     H85859   5.147   3.251   8.364 -3.5794 -0.8004 -3.4843
  636MOL0     H85860   4.921   3.227   8.312 -0.1159  0.3185 -0.7349
  637MOL0     O85861   2.703   4.083   2.252 -0.4183 -0.6501 -0.1023
  637MOL0     C85862   2.669   4.025   2.144  0.4177 -0.1902 -0.4611
  637MOL0     O85863   2.539   4.013   2.097 -0.5061 -0.2114 -0.0059
  637MOL0     C85864   2.440   4.075   2.169 -0.7193 -0.0752 -0.3066
  637MOL0     C85865   2.454   4.212   2.220  0.2926  0.1595  1.4747
  637MOL0     C85866   2.345   4.273   2.286 -0.7016 -0.4983 -0.8911
  637MOL0     C85867   2.225   4.202   2.308  0.1307  1.1923  0.6576
  637MOL0     O85868   2.109   4.253   2.374  0.3411 -0.1433 -0.3134
  637MOL0     C85869   2.090   4.394   2.368 -0.2324  0.5968  0.1521
  637MOL0     C85870   2.044   4.440   2.219 -0.1223  0.3362  0.3033
  637MOL0     C85871   1.907   4.397   2.197 -0.4238  0.6025  0.8230
  637MOL0     C85872   1.852   4.419   2.057  0.1026 -0.2494  0.0356
  637MOL0     C85873   1.724   4.333   2.033  0.2880 -0.7758  0.3920
  637MOL0     C85874   1.615   4.386   1.941  1.0925 -0.5340  0.3515
  637MOL0     C85875   1.661   4.417   1.806  0.3203  0.2634  0.4069
  637MOL0     C85876   1.739   4.302   1.741 -1.3628 -0.2327  0.5467
  637MOL0     N85877   1.659   4.180   1.721  0.5194 -0.3918 -0.0781
  637MOL0     C85878   1.526   4.176   1.692  0.3834 -0.3642 -0.2497
  637MOL0     C85879   1.493   4.049   1.695  0.2624  0.9019  0.3367
  637MOL0     C85880   1.356   4.003   1.652 -0.3585  0.7905 -0.1331
  637MOL0     C85881   1.341   3.850   1.678  0.2745  0.8097 -0.4874
  637MOL0     C85882   1.189   3.810   1.657  0.2207 -0.4642 -0.2360
  637MOL0     C85883   1.091   3.877   1.754 -0.0351 -0.4072 -0.1442
  637MOL0     O85884   0.969   3.806   1.737 -0.4407  0.1793 -0.8844
  637MOL0     C85885   0.854   3.877   1.753 -0.3552 -0.1041 -0.4217
  637MOL0     C85886   0.763   3.897   1.651  0.7597 -1.0979 -0.5458
  637MOL0     C85887   0.636   3.967   1.678  0.1076  0.6110  0.4822
  637MOL0     C85888   0.529   3.969   1.574 -0.0561  0.2569 -0.8040
  637MOL0     C85889   0.621   4.022   1.811 -0.4117 -0.7357 -0.1513
  637MOL0     C85890   0.499   4.093   1.859  0.0058  0.0277  0.0071
  637MOL0     O85891   0.379   4.033   1.828  0.4079  0.6421  0.0441
  637MOL0     C85892   0.272   4.115   1.820 -0.1810  0.4198 -0.1399
  637MOL0     C85893   0.221   4.136   1.695  0.3861 -0.4382 -0.6161
  637MOL0     C85894   0.115   4.230   1.677 -0.4475 -0.5520 -0.4658
  637MOL0     C85895   0.074   4.305   1.787 -0.4678  0.2793  0.2366
  637MOL0     O85896  -0.034   4.392   1.768  0.2781  0.3257  0.2370
  637MOL0     C85897  -0.051   4.518   1.838  0.3446 -0.0709 -0.4547
  637MOL0     C85898  -0.200   4.565   1.828  0.5961  0.2101  0.5263
  637MOL0     C85899  -0.206   4.719   1.880 -0.3640  0.1042 -0.1482
  637MOL0     C85900  -0.345   4.768   1.838 -0.5224 -0.0725 -0.1179
  637MOL0     C85901  -0.383   4.896   1.905 -1.1436 -0.0643  0.1864
  637MOL0     C85902  -0.507   4.960   1.839 -0.9729  0.6882 -0.5055
  637MOL0     C85903  -0.620   4.863   1.838 -0.8067 -0.2205 -0.2841
  637MOL0     C85904  -0.753   4.940   1.821 -0.0682 -0.3330  0.1792
  637MOL0    Cl85905  -0.736   5.019   1.665  0.1223 -0.0967 -0.2299
  637MOL0     C85906   0.128   4.282   1.910  0.4240  0.2332 -0.1740
  637MOL0     C85907   0.222   4.187   1.936 -0.5279  0.2931 -0.1565
  637MOL0     O85908   0.514   4.181   1.946  0.1483 -1.0231  0.2731
  637MOL0     C85909   0.726   4.012   1.902 -0.1162 -0.2888 -0.0121
  637MOL0     C85910   0.842   3.941   1.871 -0.5244  0.6433 -0.8648
  637MOL0     N85911   1.604   3.969   1.711 -0.0765 -0.3907  0.8225
  637MOL0     N85912   1.696   4.053   1.745 -0.6389  0.1936  0.5110
  637MOL0     C85913   2.225   4.062   2.273  0.8524 -0.2212  0.6555
  637MOL0     C85914   2.325   4.003   2.204  0.5722  0.3877  0.8506
  637MOL0     C85915   2.780   3.968   2.069  1.4320  0.2459 -0.3794
  637MOL0     C85916   2.767   3.980   1.929 -1.2119 -0.3760  0.1051
  637MOL0     C85917   2.878   3.939   1.855 -0.4986 -1.2190 -0.0474
  637MOL0     C85918   2.995   3.882   1.913  0.6517 -0.6387 -0.3256
  637MOL0     O85919   3.089   3.835   1.825 -0.1252  0.1744 -0.6660
  637MOL0     C85920   3.215   3.791   1.883  0.0019  0.3383  0.1100
  637MOL0     C85921   3.320   3.795   1.769  0.1674 -0.0152  0.0382
  637MOL0     C85922   3.303   3.677   1.679 -0.4106  0.8713 -0.2909
  637MOL0     C85923   3.362   3.699   1.546  0.1444 -0.5628  0.2836
  637MOL0     C85924   3.325   3.588   1.465  1.1219  0.5661  0.5998
  637MOL0     C85925   3.280   3.491   1.404  0.1629  0.2048 -0.0001
  637MOL0     C85926   3.001   3.859   2.051  0.1191  0.0011 -0.1659
  637MOL0     C85927   2.894   3.906   2.127  0.4134 -0.0135  0.5076
  637MOL0     H85928   2.548   4.258   2.192  1.3501 -4.1854 -3.9151
  637MOL0     H85929   2.363   4.377   2.313  2.1776 -0.9552 -0.7785
  637MOL0     H85930   2.014   4.426   2.440 -1.3868  0.2168 -0.8581
  637MOL0     H85931   2.174   4.455   2.404  0.4027  0.8643 -1.6993
  637MOL0     H85932   2.058   4.549   2.223  2.5216  0.0853 -0.4698
  637MOL0     H85933   2.105   4.395   2.141 -0.0942 -0.5260  0.8142
  637MOL0     H85934   1.898   4.291   2.222  0.2831  0.1153 -0.8756
  637MOL0     H85935   1.843   4.456   2.264 -1.5678 -0.0524  0.3248
  637MOL0     H85936   1.839   4.525   2.035  2.6504 -0.3453 -2.5348
  637MOL0     H85937   1.922   4.384   1.980 -0.5012  0.6823 -0.9627
  637MOL0     H85938   1.754   4.237   1.990 -1.7461 -0.5393 -1.7390
  637MOL0     H85939   1.670   4.310   2.125 -2.8650  1.3267 -0.7877
  637MOL0     H85940   1.532   4.317   1.934 -0.3909  1.2520 -0.7435
  637MOL0     H85941   1.577   4.479   1.984 -2.2650 -2.0449  0.9041
  637MOL0     H85942   1.579   4.454   1.742  0.2685  2.0605  1.4519
  637MOL0     H85943   1.727   4.505   1.808  0.4419  0.3793 -2.6755
  637MOL0     H85944   1.836   4.287   1.790 -0.4612  2.8897 -0.0471
  637MOL0     H85945   1.760   4.337   1.640  0.4404 -1.3187  0.4940
  637MOL0     H85946   1.463   4.260   1.667 -1.8644 -1.6285  0.8385
  637MOL0     H85947   1.288   4.058   1.717 -2.1492 -0.5159 -0.8097
  637MOL0     H85948   1.345   4.030   1.547  0.0589  2.1173  0.1534
  637MOL0     H85949   1.383   3.830   1.777  0.5646 -0.0044 -0.7685
  637MOL0     H85950   1.400   3.787   1.611  0.5233 -0.2912  0.7413
  637MOL0     H85951   1.174   3.702   1.663  0.1567 -0.4419  0.0511
  637MOL0     H85952   1.157   3.843   1.558  0.0256  0.5025  0.1408
  637MOL0     H85953   1.094   3.983   1.724  1.0249  0.6116  3.1939
  637MOL0     H85954   1.117   3.881   1.860 -1.4485  1.0726  0.1872
  637MOL0     H85955   0.790   3.858   1.553  0.3281 -1.2727 -0.5945
  637MOL0     H85956   0.517   4.068   1.530 -0.7634  1.0215  1.0012
  637MOL0     H85957   0.554   3.889   1.503  1.8207  1.9651 -2.1775
  637MOL0     H85958   0.436   3.943   1.625 -0.6417  1.4783 -1.2100
  637MOL0     H85959   0.263   4.081   1.611  4.7368 -2.1818  2.3400
  637MOL0     H85960   0.067   4.246   1.581  4.3159 -1.1397 -3.3145
  637MOL0     H85961  -0.019   4.525   1.942  2.5178 -1.8593 -0.9143
  637MOL0     H85962   0.007   4.592   1.782 -0.8005  1.8823  0.8157
  637MOL0     H85963  -0.243   4.551   1.728  1.3177  3.1605 -0.2842
  637MOL0     H85964  -0.253   4.508   1.905  2.1933  0.9084  2.1929
  637MOL0     H85965  -0.121   4.776   1.842 -0.7744  2.1670  1.8206
  637MOL0     H85966  -0.200   4.713   1.989  0.5076 -2.2944 -0.2650
  637MOL0     H85967  -0.349   4.776   1.729 -0.2617 -0.2974 -0.1451
  637MOL0     H85968  -0.428   4.702   1.865 -1.0093 -0.3272 -2.1259
  637MOL0     H85969  -0.304   4.968   1.879 -1.9637  0.0718 -2.1802
  637MOL0     H85970  -0.404   4.880   2.011  2.7822 -1.0997  0.9574
  637MOL0     H85971  -0.525   5.038   1.914 -1.1014 -1.8170  2.2522
  637MOL0     H85972  -0.482   5.010   1.745  3.5949  0.2431  0.2580
  637MOL0     H85973  -0.621   4.799   1.927  3.3193 -3.0470 -1.9890
  637MOL0     H85974  -0.620   4.790   1.756  1.0446 -1.8216  1.0568
  637MOL0     H85975  -0.766   5.021   1.893  1.0238  0.2412 -0.2325
  637MOL0     H85976  -0.841   4.875   1.815 -2.3578  2.7025 -3.2055
  637MOL0     H85977   0.087   4.327   2.000 -0.6116  0.9110 -0.9559
  637MOL0     H85978   0.255   4.182   2.039 -0.8834  1.0334 -0.0020
  637MOL0     H85979   0.703   4.058   1.997 -2.0030  0.6347 -0.8653
  637MOL0     H85980   0.917   3.928   1.949  1.9144  0.4708 -3.1165
  637MOL0     H85981   2.137   4.006   2.304  2.4754 -2.4348  1.4659
  637MOL0     H85982   2.308   3.901   2.171  1.1822  0.7831 -0.7675
  637MOL0     H85983   2.678   4.025   1.884 -2.7950 -1.9237  1.5328
  637MOL0     H85984   2.879   3.943   1.747  3.8088 -1.5198 -0.1661
  637MOL0     H85985   3.255   3.865   1.952  1.7783 -1.2587  0.8867
  637MOL0     H85986   3.213   3.693   1.932  0.4254 -0.6416 -1.7071
  637MOL0     H85987   3.416   3.796   1.822 -1.2797  0.0369  2.8462
  637MOL0     H85988   3.307   3.894   1.725  2.0768  1.4288  2.4456
  637MOL0     H85989   3.197   3.658   1.661 -0.4833  0.5063  0.4790
  637MOL0     H85990   3.347   3.585   1.719  1.8167  0.7864 -2.6394
  637MOL0     H85991   3.470   3.708   1.535  0.1924 -2.7429 -2.0622
  637MOL0     H85992   3.313   3.788   1.505  0.1348  0.3706  2.2249
  637MOL0     H85993   3.239   3.412   1.345 -0.5058  1.2890 -1.0385
  637MOL0     H85994   3.082   3.800   2.092 -1.1686 -1.7472 -0.0542
  637MOL0     H85995   2.905   3.888   2.233 -1.5214 -1.3910  0.5227
  638MOL0     O85996   2.287   7.527   6.548 -0.2538  0.5007 -0.2262
  638MOL0     C85997   2.355   7.439   6.502  0.0104 -0.4359  0.3437
  638MOL0     O85998   2.312   7.319   6.463  0.4453 -0.0684 -0.4006
  638MOL0     C85999   2.179   7.288   6.446 -0.0207 -0.1458 -0.3885
  638MOL0     C86000   2.130   7.181   6.521  0.4832  0.1713 -0.7198
  638MOL0     C86001   1.991   7.151   6.512 -0.8519  0.8737  0.2641
  638MOL0     C86002   1.909   7.208   6.419  0.5217  0.1415  0.9475
  638MOL0     O86003   1.778   7.161   6.420 -0.5262 -0.1046  0.4009
  638MOL0     C86004   1.689   7.195   6.314 -0.6895 -0.5159 -0.2982
  638MOL0     C86005   1.580   7.299   6.350 -0.0201 -0.0966 -1.0314
  638MOL0     C86006   1.483   7.235   6.449 -0.0092  0.7698 -0.7351
  638MOL0     C86007   1.392   7.346   6.499  0.8141  0.1018 -0.4193
  638MOL0     C86008   1.268   7.291   6.571  1.4567 -0.2915  0.5077
  638MOL0     C86009   1.160   7.241   6.475  0.2146  0.2835 -0.2165
  638MOL0     C86010   1.030   7.213   6.570 -0.8149  0.3066 -0.6381
  638MOL0     C86011   0.939   7.102   6.533  0.2036  0.0313  0.5008
  638MOL0     N86012   0.897   7.122   6.394 -0.2411  0.1473 -0.1856
  638MOL0     C86013   0.818   7.221   6.347 -1.0918 -0.7978 -0.7496
  638MOL0     C86014   0.817   7.223   6.209  0.5530  0.2921 -0.5137
  638MOL0     C86015   0.744   7.323   6.130 -0.1277  0.7327  0.4414
  638MOL0     C86016   0.593   7.283   6.103  0.1196 -0.7352 -0.7430
  638MOL0     C86017   0.511   7.323   6.225  0.4365  0.6342 -0.5447
  638MOL0     C86018   0.357   7.292   6.200 -0.6920  0.4478 -0.1152
  638MOL0     O86019   0.318   7.157   6.238  0.2032 -0.7656  0.4099
  638MOL0     C86020   0.191   7.117   6.204 -0.6100 -0.5722  0.2397
  638MOL0     C86021   0.140   7.008   6.272  0.4952  0.4154 -0.5608
  638MOL0     C86022   0.003   6.979   6.273  0.2200 -0.0857  1.3212
  638MOL0     C86023  -0.040   6.859   6.349  1.1151  0.7202 -0.2044
  638MOL0     C86024  -0.091   7.062   6.203 -0.3514  0.2422  0.1084
  638MOL0     C86025  -0.237   7.030   6.197  0.3020  0.4189  0.4395
  638MOL0     O86026  -0.287   6.920   6.272 -0.3181 -0.0274  0.9403
  638MOL0     C86027  -0.418   6.897   6.280 -0.7299  0.0564  0.4885
  638MOL0     C86028  -0.522   6.994   6.286  0.0928 -0.8240 -0.0738
  638MOL0     C86029  -0.650   6.964   6.320  1.2314  0.7939 -0.8246
  638MOL0     C86030  -0.682   6.824   6.349  0.3129 -0.4579  0.0448
  638MOL0     O86031  -0.807   6.788   6.395  0.5152 -0.4992  1.0285
  638MOL0     C86032  -0.858   6.674   6.320 -0.5817  0.0689  0.3685
  638MOL0     C86033  -1.014   6.675   6.312  0.0095  0.1171 -0.7660
  638MOL0     C86034  -1.080   6.770   6.214 -0.0732  0.0341  0.3591
  638MOL0     C86035  -1.232   6.735   6.192  0.4503 -0.3076 -1.0297
  638MOL0     C86036  -1.287   6.836   6.085 -0.1633 -0.7757 -1.0583
  638MOL0     C86037  -1.431   6.803   6.042 -0.5701  0.2347  0.3251
  638MOL0     C86038  -1.484   6.897   5.933 -0.3430  0.2334 -0.4934
  638MOL0     C86039  -1.635   6.924   5.946  0.1384 -1.0250 -0.3017
  638MOL0    Cl86040  -1.736   6.770   5.917  0.2788  0.2324 -0.3683
  638MOL0     C86041  -0.579   6.733   6.336  0.0164  1.1190  0.2654
  638MOL0     C86042  -0.450   6.769   6.291  0.2267  0.8206 -0.8430
  638MOL0     O86043  -0.310   7.105   6.129  0.3156 -0.0473  0.4451
  638MOL0     C86044  -0.036   7.162   6.124 -0.2742  0.7856 -0.1676
  638MOL0     C86045   0.102   7.196   6.134  0.3281 -0.1478  0.1133
  638MOL0     N86046   0.898   7.113   6.177  0.2572  0.0726  0.2278
  638MOL0     N86047   0.941   7.052   6.283  0.0040 -0.4598  0.1063
  638MOL0     C86048   1.967   7.308   6.337  0.2274  0.3419  0.2976
  638MOL0     C86049   2.096   7.349   6.353 -0.1490 -0.3730 -0.0712
  638MOL0     C86050   2.501   7.466   6.493 -0.2385  0.7820 -0.6119
  638MOL0     C86051   2.568   7.574   6.557  0.4073  0.6442  0.6072
  638MOL0     C86052   2.704   7.594   6.529  0.5909  0.4593  0.1619
  638MOL0     C86053   2.776   7.514   6.442  0.2979 -0.0987 -0.7531
  638MOL0     O86054   2.911   7.513   6.422 -0.1268  0.1173 -0.0777
  638MOL0     C86055   2.980   7.627   6.473 -0.4550  0.6248  0.8085
  638MOL0     C86056   3.028   7.599   6.618 -0.5059 -0.5295 -0.6293
  638MOL0     C86057   3.094   7.712   6.690 -0.3457 -0.3710 -0.3042
  638MOL0     C86058   3.117   7.694   6.839 -0.1430 -0.4618  0.7352
  638MOL0     C86059   3.178   7.813   6.895  1.0104  0.3478  0.8658
  638MOL0     C86060   3.256   7.884   6.955  0.0752 -0.1364  0.3925
  638MOL0     C86061   2.711   7.412   6.385  0.7571  0.1354 -0.0149
  638MOL0     C86062   2.574   7.390   6.406 -0.1817  0.3688 -0.9085
  638MOL0     H86063   2.202   7.124   6.579 -0.0924  0.2512  0.0809
  638MOL0     H86064   1.941   7.072   6.568  1.7145 -2.8935 -2.3318
  638MOL0     H86065   1.744   7.222   6.224 -0.8479 -2.2910 -0.9737
  638MOL0     H86066   1.639   7.099   6.298 -0.4919 -1.7246  4.5713
  638MOL0     H86067   1.620   7.387   6.401  0.3683  0.0054 -1.5084
  638MOL0     H86068   1.532   7.336   6.259  1.1005  1.7860 -0.9019
  638MOL0     H86069   1.422   7.164   6.393 -0.2164  0.3414  0.0271
  638MOL0     H86070   1.525   7.186   6.537  3.2006  2.8692 -0.9083
  638MOL0     H86071   1.439   7.400   6.581  0.0259  0.8117 -0.4282
  638MOL0     H86072   1.378   7.414   6.415  0.9766 -2.7791 -2.9814
  638MOL0     H86073   1.290   7.211   6.643 -0.2642  0.7241  2.2881
  638MOL0     H86074   1.231   7.378   6.627  1.0964  0.8797 -1.4419
  638MOL0     H86075   1.147   7.324   6.404 -2.1510  2.9797  3.0821
  638MOL0     H86076   1.194   7.146   6.432 -1.7676 -1.9928  2.8609
  638MOL0     H86077   1.065   7.183   6.669  0.2770 -0.3975 -1.2073
  638MOL0     H86078   0.986   7.311   6.590  0.3856  0.2985  2.6981
  638MOL0     H86079   0.852   7.094   6.599  1.2116 -2.6959  1.6515
  638MOL0     H86080   0.995   7.008   6.542  3.1963  1.6427  0.1756
  638MOL0     H86081   0.766   7.299   6.402 -1.4395  0.8332 -3.2726
  638MOL0     H86082   0.763   7.424   6.168 -3.7718  0.7852  2.6024
  638MOL0     H86083   0.782   7.319   6.027 -1.0134 -1.1810  0.1495
  638MOL0     H86084   0.594   7.178   6.071  0.5023 -0.0811 -3.1099
  638MOL0     H86085   0.554   7.345   6.021 -0.2862  1.6898  1.1622
  638MOL0     H86086   0.517   7.431   6.241 -2.6026  0.8138  0.0345
  638MOL0     H86087   0.537   7.263   6.313 -1.8797 -0.2728 -0.3889
  638MOL0     H86088   0.338   7.310   6.094 -1.7890  0.7856  0.1214
  638MOL0     H86089   0.301   7.360   6.265 -0.2011  2.0688 -1.3170
  638MOL0     H86090   0.196   6.950   6.344 -1.9073 -0.2281  0.9077
  638MOL0     H86091  -0.108   6.903   6.422 -3.1608  1.3868 -4.1296
  638MOL0     H86092  -0.095   6.799   6.276 -1.1306  1.0922  1.0779
  638MOL0     H86093   0.041   6.801   6.395 -1.3189 -2.7767  0.0606
  638MOL0     H86094  -0.520   7.096   6.248  2.7829 -1.3476 -1.5476
  638MOL0     H86095  -0.732   7.034   6.332  1.0110  0.1678  1.8797
  638MOL0     H86096  -0.836   6.673   6.213 -0.7428 -2.5071  0.3134
  638MOL0     H86097  -0.835   6.577   6.365 -2.6695  0.2386  1.9797
  638MOL0     H86098  -1.023   6.575   6.268  3.0508 -1.1663  1.1789
  638MOL0     H86099  -1.042   6.683   6.417  4.1322  2.5123  0.3997
  638MOL0     H86100  -1.024   6.771   6.121  1.1022 -1.9794  0.9805
  638MOL0     H86101  -1.071   6.868   6.261 -0.7439 -0.6086  1.9130
  638MOL0     H86102  -1.243   6.640   6.138  0.3564  1.9531 -5.4393
  638MOL0     H86103  -1.287   6.726   6.286 -2.2263  2.1537 -2.1838
  638MOL0     H86104  -1.215   6.847   6.004 -1.1040 -1.7146 -2.0492
  638MOL0     H86105  -1.285   6.933   6.137 -0.8882 -1.8906  1.1968
  638MOL0     H86106  -1.428   6.701   6.003  1.7696  0.6841 -0.8823
  638MOL0     H86107  -1.493   6.811   6.132  1.5230  1.5763  1.7569
  638MOL0     H86108  -1.462   6.851   5.836  1.3295  0.0232 -0.0448
  638MOL0     H86109  -1.437   6.994   5.952 -1.9356  0.9586 -0.0682
  638MOL0     H86110  -1.689   6.997   5.886 -0.4146 -2.0306 -1.0543
  638MOL0     H86111  -1.640   6.951   6.052 -2.1200  1.8113 -1.0275
  638MOL0     H86112  -0.596   6.627   6.351 -3.0776  1.6735  1.4111
  638MOL0     H86113  -0.376   6.689   6.283 -0.2374  0.5023 -2.0928
  638MOL0     H86114  -0.098   7.228   6.064 -1.4470 -0.6398 -0.5873
  638MOL0     H86115   0.129   7.285   6.078 -2.1297  2.3985  2.6994
  638MOL0     H86116   1.911   7.367   6.266 -0.5518  0.0839  0.6808
  638MOL0     H86117   2.125   7.439   6.299 -0.6205  0.6544  1.3500
  638MOL0     H86118   2.516   7.640   6.626  2.6629 -0.3116  3.4599
  638MOL0     H86119   2.761   7.669   6.583  1.0221 -1.3793  2.4054
  638MOL0     H86120   3.067   7.628   6.405 -0.9669  2.4331  0.1094
  638MOL0     H86121   2.926   7.721   6.459 -3.4304 -1.3750 -3.3812
  638MOL0     H86122   3.085   7.505   6.620 -0.6707 -0.6690 -1.7474
  638MOL0     H86123   2.938   7.580   6.677  1.3772 -1.7338  2.0741
  638MOL0     H86124   3.041   7.806   6.671 -0.5040 -0.2828  0.5506
  638MOL0     H86125   3.188   7.714   6.635  1.2339  1.3397  2.2446
  638MOL0     H86126   3.187   7.611   6.854  1.5094  0.8168  0.2872
  638MOL0     H86127   3.026   7.670   6.896 -2.7428  3.3743 -1.3356
  638MOL0     H86128   3.311   7.955   7.013 -2.3644  2.4324 -0.2367
  638MOL0     H86129   2.763   7.340   6.321 -2.1007 -0.6354 -1.6761
  638MOL0     H86130   2.532   7.313   6.341 -1.4217 -1.0058  1.3781
  639MOL0     O86131   3.173   9.061   9.145 -0.0952 -0.1687 -0.0570
  639MOL0     C86132   3.226   9.166   9.153  0.0644  0.0958 -0.3484
  639MOL0     O86133   3.186   9.268   9.237  0.6476  0.3145  0.3034
  639MOL0     C86134   3.104   9.233   9.350 -0.5014 -0.5213  0.4302
  639MOL0     C86135   3.153   9.147   9.449 -0.8620  0.1962  0.1285
  639MOL0     C86136   3.076   9.118   9.560 -0.3290 -1.2320  0.3727
  639MOL0     C86137   2.942   9.164   9.571 -1.0256 -0.2403  0.6429
  639MOL0     O86138   2.869   9.118   9.684 -0.7912 -0.1658  0.7090
  639MOL0     C86139   2.775   9.209   9.729 -0.1842  0.0054  0.4650
  639MOL0     C86140   2.697   9.157   9.841 -0.2089  0.3535  0.0137
  639MOL0     C86141   2.568   9.243   9.871 -1.0310  0.9807  1.0094
  639MOL0     C86142   2.501   9.178   9.991 -0.2530  0.2113  0.7022
  639MOL0     C86143   2.373   9.268  10.026 -0.4671  0.2376 -0.0352
  639MOL0     C86144   2.235   9.223   9.947  0.0028  0.9967 -0.4369
  639MOL0     C86145   2.114   9.302   9.999 -0.0896 -0.2303  0.1874
  639MOL0     C86146   2.073   9.275  10.142 -0.4079  0.2892 -0.5249
  639MOL0     N86147   2.052   9.133  10.172 -0.0203  0.5444  0.5101
  639MOL0     C86148   1.930   9.048  10.154  0.0499 -0.2742  0.6039
  639MOL0     C86149   1.983   8.929  10.192 -0.1463  0.5499 -1.6864
  639MOL0     C86150   1.901   8.800  10.205 -1.1914  0.3674 -0.1356
  639MOL0     C86151   1.874   8.758  10.347 -0.1755 -0.7763  0.6512
  639MOL0     C86152   1.769   8.859  10.406  0.0620  0.6741  0.4556
  639MOL0     C86153   1.636   8.848  10.356  0.6513 -0.2404 -0.2051
  639MOL0     O86154   1.565   8.965  10.400 -0.8701  0.2682  0.3089
  639MOL0     C86155   1.426   8.971  10.388  0.2404  1.0103  1.5964
  639MOL0     C86156   1.370   9.094  10.363  0.6685 -1.0871 -0.1994
  639MOL0     C86157   1.235   9.100  10.327 -0.1440 -0.9865  0.4640
  639MOL0     C86158   1.172   9.235  10.294 -0.2194 -0.3023 -1.0163
  639MOL0     C86159   1.154   8.993  10.310  0.0527  0.1387 -0.5902
  639MOL0     C86160   1.011   8.988  10.263  0.0353  0.2239 -1.3806
  639MOL0     O86161   0.969   8.866  10.216 -0.0415  0.0839 -0.2832
  639MOL0     C86162   0.841   8.842  10.168  0.4269  0.4080  0.0556
  639MOL0     C86163   0.739   8.936  10.120 -0.0459  0.4984  0.3281
  639MOL0     C86164   0.612   8.903  10.088  0.4624 -0.0213  0.1471
  639MOL0     C86165   0.575   8.767  10.103  0.5560  0.6095  0.1486
  639MOL0     O86166   0.460   8.714  10.040 -0.1419 -0.4059 -0.0520
  639MOL0     C86167   0.359   8.799   9.999 -0.8721  0.8406  0.0242
  639MOL0     C86168   0.386   8.854   9.854  0.0289 -0.0018  0.3474
  639MOL0     C86169   0.272   8.817   9.757 -0.3625 -0.5611 -0.2241
  639MOL0     C86170   0.150   8.903   9.782  0.2243 -1.0571  0.2241
  639MOL0     C86171   0.027   8.878   9.694  0.3974 -0.3550  0.0811
  639MOL0     C86172  -0.075   8.990   9.690 -0.3917 -1.1033 -1.1365
  639MOL0     C86173  -0.191   8.952   9.591 -0.4730 -0.6161  0.4830
  639MOL0     C86174  -0.287   9.072   9.581  0.3529 -0.6503 -0.7140
  639MOL0    Cl86175  -0.401   9.067   9.446  0.4256  0.2516  0.3938
  639MOL0     C86176   0.663   8.674  10.151  1.1429 -0.0643  0.2638
  639MOL0     C86177   0.790   8.715  10.176  0.0845 -0.3851 -0.3871
  639MOL0     O86178   0.937   9.087  10.277 -0.4371 -0.3222 -0.0478
  639MOL0     C86179   1.206   8.870  10.341 -0.1140  0.0255 -0.5906
  639MOL0     C86180   1.340   8.859  10.366  0.2075 -0.3527 -0.8901
  639MOL0     N86181   2.120   8.928  10.213  0.1024 -0.4814 -0.3368
  639MOL0     N86182   2.152   9.051  10.211  0.2940  0.2158 -0.3917
  639MOL0     C86183   2.899   9.257   9.474 -0.3171 -0.8979  1.2001
  639MOL0     C86184   2.981   9.293   9.365 -0.5804 -0.0834 -0.4079
  639MOL0     C86185   3.348   9.207   9.069  0.1426 -0.7408  0.3317
  639MOL0     C86186   3.405   9.116   8.984 -0.3552 -0.5529 -0.8718
  639MOL0     C86187   3.522   9.156   8.920 -0.1730 -0.0100  0.0867
  639MOL0     C86188   3.578   9.274   8.929  0.3377  0.3661  0.1182
  639MOL0     O86189   3.688   9.312   8.850 -0.2996  0.6154  0.9276
  639MOL0     C86190   3.742   9.229   8.748  0.6639 -0.2741  0.4463
  639MOL0     C86191   3.869   9.298   8.686  0.4667 -0.0887 -0.7520
  639MOL0     C86192   3.855   9.443   8.644  1.4003 -0.4325 -0.8697
  639MOL0     C86193   3.982   9.507   8.593  0.5298  0.9923 -0.2597
  639MOL0     C86194   4.064   9.581   8.691 -0.1256  0.5668 -0.0362
  639MOL0     C86195   4.123   9.641   8.778  0.2851  0.3102  0.3495
  639MOL0     C86196   3.517   9.372   9.014 -0.2326  0.0059 -0.1482
  639MOL0     C86197   3.396   9.341   9.073 -0.1904 -0.2555  0.2819
  639MOL0     H86198   3.249   9.096   9.449 -0.3946  0.5386  5.5144
  639MOL0     H86199   3.116   9.064   9.645 -0.8784  1.4360  2.4502
  639MOL0     H86200   2.826   9.304   9.748 -0.7965  0.6354 -0.8744
  639MOL0     H86201   2.703   9.227   9.648 -0.3045  0.7542  0.7291
  639MOL0     H86202   2.676   9.056   9.804 -0.3244  0.0059  1.0190
  639MOL0     H86203   2.752   9.164   9.935  0.9989  2.5216 -0.7711
  639MOL0     H86204   2.606   9.342   9.898 -0.0686  0.6905  0.7546
  639MOL0     H86205   2.516   9.245   9.775  0.2161  1.1836  0.3176
  639MOL0     H86206   2.474   9.074   9.972  0.5044  0.5070 -2.5838
  639MOL0     H86207   2.570   9.186  10.075  1.5868  0.2526 -0.7532
  639MOL0     H86208   2.353   9.270  10.134  2.0274 -2.8429  0.6480
  639MOL0     H86209   2.396   9.368   9.988  1.5710 -0.6608 -1.3383
  639MOL0     H86210   2.239   9.245   9.840  0.1091  0.3107 -0.5750
  639MOL0     H86211   2.218   9.118   9.970 -1.7449  1.8917  3.3125
  639MOL0     H86212   2.143   9.407   9.989 -0.5871 -0.1357 -0.2545
  639MOL0     H86213   2.023   9.297   9.939  0.1964  1.3848 -0.4244
  639MOL0     H86214   1.984   9.333  10.163 -0.5307 -0.0162 -0.1984
  639MOL0     H86215   2.152   9.310  10.210 -0.4071  3.0404 -1.8194
  639MOL0     H86216   1.824   9.069  10.142 -0.2421 -1.8536  0.2068
  639MOL0     H86217   1.814   8.827  10.145  0.4358  1.0453 -2.3636
  639MOL0     H86218   1.956   8.722  10.151  2.2520  1.9843  0.7010
  639MOL0     H86219   1.969   8.767  10.400 -0.0116 -1.7503  0.5391
  639MOL0     H86220   1.836   8.655  10.350 -0.5216 -0.6544  0.4889
  639MOL0     H86221   1.809   8.956  10.375  0.8303 -0.0137 -0.7934
  639MOL0     H86222   1.770   8.867  10.515 -1.6656  1.9051  0.4264
  639MOL0     H86223   1.588   8.754  10.383 -0.5133  0.4977  0.3723
  639MOL0     H86224   1.634   8.855  10.247  3.5377 -2.1086 -0.4920
  639MOL0     H86225   1.428   9.185  10.369 -1.3533  0.2297  0.7024
  639MOL0     H86226   1.091   9.246  10.367 -0.7133 -1.6329 -1.3448
  639MOL0     H86227   1.238   9.318  10.324 -1.8543  0.6339  0.1381
  639MOL0     H86228   1.120   9.255  10.200 -1.9077  1.2795  0.1848
  639MOL0     H86229   0.754   9.038  10.084  1.9323  0.7787  1.7873
  639MOL0     H86230   0.544   8.975  10.044 -1.1874 -0.3629  2.0211
  639MOL0     H86231   0.260   8.753  10.001 -0.6418  0.2493 -1.3967
  639MOL0     H86232   0.356   8.872  10.080 -0.3476 -0.8342  1.6132
  639MOL0     H86233   0.420   8.958   9.852  0.1988 -0.0300 -2.4157
  639MOL0     H86234   0.472   8.802   9.811  0.1935  1.2859 -0.9718
  639MOL0     H86235   0.237   8.716   9.780 -1.5511  0.3401  2.4058
  639MOL0     H86236   0.309   8.829   9.655  2.7988  1.3911  1.0046
  639MOL0     H86237   0.120   8.892   9.887 -1.1088 -1.7063 -0.1915
  639MOL0     H86238   0.186   9.006   9.777  1.4120 -1.3853  1.4051
  639MOL0     H86239  -0.020   8.780   9.709 -0.8206  0.4273  1.6116
  639MOL0     H86240   0.068   8.862   9.594  3.8375  1.2246  1.0681
  639MOL0     H86241  -0.118   9.015   9.788 -2.9675  0.9903 -2.6838
  639MOL0     H86242  -0.023   9.081   9.661 -0.2568 -0.9890 -0.5513
  639MOL0     H86243  -0.237   8.865   9.639  2.0184 -1.3733  1.6377
  639MOL0     H86244  -0.154   8.927   9.491  0.6494 -2.2520  1.2781
  639MOL0     H86245  -0.237   9.168   9.592 -0.8973 -0.1515  1.1200
  639MOL0     H86246  -0.345   9.069   9.674  2.4381  3.0603  0.9143
  639MOL0     H86247   0.646   8.567  10.158 -2.6174  0.2594 -1.3362
  639MOL0     H86248   0.864   8.639  10.201  0.8469  0.1747 -0.8662
  639MOL0     H86249   1.140   8.785  10.352  1.1113 -0.8202  0.4776
  639MOL0     H86250   1.380   8.758  10.369  0.6788 -0.1383  0.4628
  639MOL0     H86251   2.801   9.304   9.465  0.5978  0.9093  0.1812
  639MOL0     H86252   2.942   9.355   9.285  0.1587  0.3146 -0.4717
  639MOL0     H86253   3.364   9.015   8.990 -1.2482 -0.1657 -0.2586
  639MOL0     H86254   3.572   9.080   8.860  1.1839  0.7917  0.1532
  639MOL0     H86255   3.769   9.127   8.778  0.0978 -0.4718  0.2824
  639MOL0     H86256   3.667   9.225   8.669  1.8954 -0.5891 -0.7603
  639MOL0     H86257   3.908   9.251   8.594  0.2571  0.3684 -1.0762
  639MOL0     H86258   3.946   9.301   8.764 -2.4743  2.0351  2.3239
  639MOL0     H86259   3.819   9.501   8.730  1.5919  1.0637 -1.7587
  639MOL0     H86260   3.778   9.455   8.568  2.8099  0.7965 -2.1751
  639MOL0     H86261   3.943   9.572   8.515 -0.6524  0.4636 -0.1343
  639MOL0     H86262   4.040   9.435   8.535 -1.2983  0.0938 -1.0322
  639MOL0     H86263   4.185   9.699   8.844  2.7845 -1.2313 -0.4715
  639MOL0     H86264   3.561   9.471   9.025  1.3197 -0.7297  0.7635
  639MOL0     H86265   3.357   9.410   9.148 -0.8196 -0.5235  0.2142
  640MOL0     O86266   3.360   0.425  10.162  0.1093  0.3266 -0.3338
  640MOL0     C86267   3.421   0.347  10.085 -0.1031  0.5156  0.3213
  640MOL0     O86268   3.367   0.251  10.005  0.2292 -0.3542  0.5234
  640MOL0     C86269   3.229   0.249   9.990  0.3856 -0.4034  0.1770
  640MOL0     C86270   3.155   0.167  10.075  0.5467 -0.0238 -0.2842
  640MOL0     C86271   3.013   0.185  10.076 -0.7093  0.5022 -0.1681
  640MOL0     C86272   2.947   0.276   9.993  0.1459  0.4544 -0.6473
  640MOL0     O86273   2.810   0.292   9.976 -0.6109 -0.9306  0.0611
  640MOL0     C86274   2.720   0.214  10.058  0.3949  0.0134 -0.2129
  640MOL0     C86275   2.576   0.258  10.022 -0.5470  0.2166 -0.0373
  640MOL0     C86276   2.548   0.235   9.873  0.3442 -0.3609  0.8566
  640MOL0     C86277   2.398   0.261   9.869 -0.3885 -0.3435  0.1387
  640MOL0     C86278   2.337   0.247   9.730  0.0264  0.3313  0.4740
  640MOL0     C86279   2.185   0.213   9.736  0.0670  0.0437  0.6584
  640MOL0     C86280   2.116   0.337   9.792  0.3075  0.2861 -0.4123
  640MOL0     C86281   1.966   0.310   9.807  0.3818  0.0421 -0.4321
  640MOL0     N86282   1.875   0.427   9.836 -0.2345 -0.3375  0.2933
  640MOL0     C86283   1.909   0.538   9.912  0.2839  0.1958  0.2456
  640MOL0     C86284   1.805   0.616   9.913 -0.0253 -0.2161 -0.1685
  640MOL0     C86285   1.803   0.752   9.989  0.3448  0.9716 -0.2159
  640MOL0     C86286   1.935   0.829   9.953  0.2782  0.2389  0.2299
  640MOL0     C86287   1.964   0.842   9.798  0.6181  0.3860  0.5470
  640MOL0     C86288   2.110   0.885   9.775  0.0640  0.2843  0.1671
  640MOL0     O86289   2.200   0.776   9.794  0.0673 -0.1421 -0.3403
  640MOL0     C86290   2.334   0.786   9.753  1.4099 -0.4784  0.0198
  640MOL0     C86291   2.423   0.702   9.804  0.2124  0.9387  0.3340
  640MOL0     C86292   2.561   0.703   9.782 -0.3335 -0.0279  0.1874
  640MOL0     C86293   2.645   0.601   9.868  0.2425 -0.4828 -1.3319
  640MOL0     C86294   2.618   0.809   9.703 -0.0181  0.3895  0.7373
  640MOL0     C86295   2.761   0.829   9.676 -0.0701  0.3791  0.8143
  640MOL0     O86296   2.842   0.726   9.722  0.1032 -0.3591  0.5982
  640MOL0     C86297   2.972   0.741   9.690 -1.0513 -0.4915  0.3937
  640MOL0     C86298   3.032   0.707   9.570  0.0730  0.1114 -0.1131
  640MOL0     C86299   3.165   0.744   9.535  0.7871  0.3401 -0.6265
  640MOL0     C86300   3.244   0.802   9.637 -0.6775  0.2344  0.9182
  640MOL0     O86301   3.381   0.815   9.605  0.5894  0.4672 -0.2080
  640MOL0     C86302   3.481   0.795   9.703 -0.6771 -0.2989  0.0872
  640MOL0     C86303   3.617   0.798   9.632  0.5252 -0.8891 -0.1011
  640MOL0     C86304   3.736   0.797   9.729  0.2313 -0.2048  0.6751
  640MOL0     C86305   3.815   0.925   9.715 -1.3550  0.3238 -0.4105
  640MOL0     C86306   3.938   0.916   9.800 -0.6006  0.1481  0.6444
  640MOL0     C86307   4.002   1.049   9.831 -0.5372 -0.0597  0.1664
  640MOL0     C86308   4.135   1.034   9.895 -0.3107  0.8650 -0.7632
  640MOL0     C86309   4.229   1.148   9.859 -0.5033  0.2775  0.2952
  640MOL0    Cl86310   4.399   1.127   9.919 -0.1416  0.1780  0.2193
  640MOL0     C86311   3.191   0.829   9.764  0.1146  0.2375  0.4150
  640MOL0     C86312   3.057   0.789   9.797 -0.5247 -0.3557 -0.0946
  640MOL0     O86313   2.803   0.934   9.618 -0.3123 -0.0596 -0.3304
  640MOL0     C86314   2.522   0.897   9.651  0.6704 -0.1950 -0.0199
  640MOL0     C86315   2.387   0.882   9.673  0.5653 -0.0919  0.6709
  640MOL0     N86316   1.702   0.554   9.845  0.8599 -0.2063 -0.3573
  640MOL0     N86317   1.748   0.447   9.794  0.2304  0.0979 -0.5616
  640MOL0     C86318   3.026   0.346   9.907  0.8200 -0.5644 -0.6163
  640MOL0     C86319   3.162   0.334   9.900 -0.3390  0.4915  0.4541
  640MOL0     C86320   3.561   0.376  10.062 -0.6959  0.1629  0.5201
  640MOL0     C86321   3.636   0.280   9.990 -0.0645 -0.8541 -0.4753
  640MOL0     C86322   3.773   0.305   9.966  0.1248  0.3488  0.5992
  640MOL0     C86323   3.843   0.423   9.997  0.5879  0.4690 -0.5652
  640MOL0     O86324   3.974   0.442   9.965 -0.8348 -0.4237 -0.7328
  640MOL0     C86325   4.030   0.575   9.974  0.1343 -0.3876  0.1262
  640MOL0     C86326   4.093   0.609  10.102 -0.1179  0.7034 -0.2798
  640MOL0     C86327   4.129   0.758  10.120  0.1971  0.0514  0.8582
  640MOL0     C86328   4.157   0.796  10.267 -0.2966  1.1646  0.7129
  640MOL0     C86329   4.244   0.914  10.281 -0.0002  0.6537 -0.3493
  640MOL0     C86330   4.316   1.010  10.283 -0.7338 -1.3425 -0.0544
  640MOL0     C86331   3.766   0.518  10.071  0.5862 -0.4257  1.2043
  640MOL0     C86332   3.625   0.498  10.106 -0.7063 -0.0054 -0.0975
  640MOL0     H86333   3.206   0.100  10.142  0.2818 -1.6153 -1.5872
  640MOL0     H86334   2.964   0.116  10.144  2.5895  0.8573  2.9178
  640MOL0     H86335   2.736   0.110  10.029  0.1764  0.5604 -2.4988
  640MOL0     H86336   2.755   0.232  10.160  0.6646  0.1121 -0.3221
  640MOL0     H86337   2.516   0.178  10.067 -0.0898 -0.3945 -0.4907
  640MOL0     H86338   2.549   0.353  10.067 -1.8524 -0.7185  1.2532
  640MOL0     H86339   2.599   0.303   9.804  0.7815 -1.0272  0.5062
  640MOL0     H86340   2.570   0.134   9.838  0.1026  0.0383 -0.4980
  640MOL0     H86341   2.345   0.190   9.933 -1.2983  0.3718  0.2041
  640MOL0     H86342   2.378   0.361   9.910  1.7374  0.5401 -0.8330
  640MOL0     H86343   2.347   0.343   9.678 -1.1137  0.2060 -0.0005
  640MOL0     H86344   2.394   0.166   9.684  0.7448  0.7239  0.6547
  640MOL0     H86345   2.147   0.196   9.635 -1.7283 -3.1551  1.7057
  640MOL0     H86346   2.174   0.121   9.794 -1.5870  1.7173  3.2465
  640MOL0     H86347   2.170   0.379   9.878 -1.1596  3.0738 -0.7136
  640MOL0     H86348   2.124   0.418   9.719 -0.9901  0.5798 -0.2473
  640MOL0     H86349   1.960   0.235   9.887  0.1066 -0.2552 -0.7250
  640MOL0     H86350   1.918   0.254   9.726  1.4913 -2.7961  0.7190
  640MOL0     H86351   2.005   0.558   9.958  1.3854 -0.2120 -1.7730
  640MOL0     H86352   1.722   0.816   9.954 -1.2846 -0.8079  0.1054
  640MOL0     H86353   1.785   0.724  10.093 -3.4923  0.3393 -0.8769
  640MOL0     H86354   2.018   0.776   9.999 -0.1043  1.2187  2.1330
  640MOL0     H86355   1.945   0.931   9.992  2.7395  0.2168 -0.2195
  640MOL0     H86356   1.892   0.917   9.763 -0.4321  0.1632  2.1153
  640MOL0     H86357   1.945   0.746   9.750 -0.5825  0.6272  0.5165
  640MOL0     H86358   2.119   0.968   9.845 -2.2615 -0.2647  1.2070
  640MOL0     H86359   2.113   0.913   9.669  1.4943 -1.0692 -0.1780
  640MOL0     H86360   2.385   0.614   9.855  1.3398 -1.6548 -2.9301
  640MOL0     H86361   2.694   0.650   9.952  1.1011 -4.2600  0.5750
  640MOL0     H86362   2.571   0.526   9.898  0.4930 -0.6574 -1.1538
  640MOL0     H86363   2.727   0.550   9.817  1.9199 -2.3409  2.8317
  640MOL0     H86364   2.975   0.660   9.491  0.0498 -0.3689  0.1842
  640MOL0     H86365   3.208   0.725   9.437 -1.2092  4.0844 -2.4183
  640MOL0     H86366   3.481   0.859   9.792  0.1440 -1.0662  0.6594
  640MOL0     H86367   3.474   0.696   9.749 -0.4333  0.4891  1.9188
  640MOL0     H86368   3.612   0.705   9.576 -0.6976  0.1730 -1.8810
  640MOL0     H86369   3.622   0.883   9.563  0.0039  0.0207  0.9362
  640MOL0     H86370   3.805   0.725   9.684  1.6281  1.0267  0.7565
  640MOL0     H86371   3.698   0.767   9.827 -1.6036 -5.4990 -1.3193
  640MOL0     H86372   3.839   0.958   9.613  0.4529  0.5006  0.0413
  640MOL0     H86373   3.751   1.004   9.757 -0.8380 -0.2020  1.4489
  640MOL0     H86374   4.013   0.858   9.745 -3.7804 -1.9457 -1.8331
  640MOL0     H86375   3.917   0.876   9.900 -0.5521  2.5447  1.6734
  640MOL0     H86376   4.007   1.116   9.745  0.9165  1.5198  1.4301
  640MOL0     H86377   3.932   1.102   9.897 -3.6144 -3.9475  0.3963
  640MOL0     H86378   4.182   0.940   9.865 -2.9155 -1.0497  0.7747
  640MOL0     H86379   4.117   1.030  10.003  0.7984 -2.5280 -0.5754
  640MOL0     H86380   4.192   1.241   9.903 -0.7633  0.5411 -0.4600
  640MOL0     H86381   4.238   1.159   9.751  2.6988 -0.9925  0.3046
  640MOL0     H86382   3.250   0.886   9.835  0.1993 -1.6163  1.8929
  640MOL0     H86383   3.005   0.812   9.889  0.1105 -1.2202  0.5017
  640MOL0     H86384   2.554   0.984   9.596  0.7423 -0.6033 -0.6402
  640MOL0     H86385   2.327   0.958   9.623  4.0418  2.0417 -0.6640
  640MOL0     H86386   2.983   0.430   9.853  1.1956  0.4005  0.5274
  640MOL0     H86387   3.224   0.402   9.842  0.4206  0.5869  1.3564
  640MOL0     H86388   3.583   0.192   9.955  0.0427 -0.1022 -2.6575
  640MOL0     H86389   3.832   0.224   9.924  1.3871  1.9226 -0.8002
  640MOL0     H86390   4.105   0.590   9.896 -0.5737  2.6567 -0.0786
  640MOL0     H86391   3.950   0.642   9.941 -0.9725 -1.5966  0.2798
  640MOL0     H86392   4.187   0.554  10.112 -1.1039 -1.2773 -1.3600
  640MOL0     H86393   4.037   0.573  10.189 -1.0424  1.6762 -0.4508
  640MOL0     H86394   4.046   0.806  10.066  2.2904 -0.6444 -3.3984
  640MOL0     H86395   4.216   0.786  10.061 -2.0316  0.5206 -2.4964
  640MOL0     H86396   4.214   0.718  10.318  1.3155  0.0733 -2.4833
  640MOL0     H86397   4.058   0.822  10.307  0.6226  1.0662  3.2018
  640MOL0     H86398   4.400   1.076  10.275  0.9752 -3.5708 -1.7696
  640MOL0     H86399   3.812   0.610  10.106 -1.2992  0.6042  1.1216
  640MOL0     H86400   3.573   0.572  10.165  0.2733  1.6345 -1.2039
  641MOL0     O86401   1.715   6.460   3.467  0.0141 -0.3680  0.0333
  641MOL0     C86402   1.761   6.570   3.492  0.5564 -0.4246 -0.3726
  641MOL0     O86403   1.686   6.673   3.559  0.4190 -1.2035  0.4968
  641MOL0     C86404   1.547   6.669   3.592  0.5439  0.5048  0.3727
  641MOL0     C86405   1.500   6.716   3.719  0.1052  0.6123  0.1847
  641MOL0     C86406   1.367   6.705   3.755  0.1538 -0.2501 -0.0944
  641MOL0     C86407   1.269   6.653   3.674 -0.0329  0.8118  0.1432
  641MOL0     O86408   1.140   6.644   3.706  0.4961  0.1847 -0.3165
  641MOL0     C86409   1.099   6.597   3.830  0.5858  0.7869  0.3368
  641MOL0     C86410   0.974   6.506   3.800  0.4239 -0.3279  0.4652
  641MOL0     C86411   0.915   6.447   3.925  0.2160  0.1286 -0.1734
  641MOL0     C86412   0.802   6.347   3.902  0.2699 -0.8647 -0.4176
  641MOL0     C86413   0.655   6.399   3.909 -0.8419 -0.5717  1.5821
  641MOL0     C86414   0.571   6.267   3.894 -0.4671 -0.2418  0.2403
  641MOL0     C86415   0.562   6.205   3.748  0.1308  0.7222  0.4886
  641MOL0     C86416   0.454   6.101   3.750  0.9350 -0.1912 -0.1320
  641MOL0     N86417   0.437   6.034   3.616 -0.1047  0.0768 -0.3433
  641MOL0     C86418   0.355   6.069   3.506  0.0954  0.5756 -0.6168
  641MOL0     C86419   0.362   5.978   3.407 -0.5235 -0.1844 -0.1888
  641MOL0     C86420   0.301   5.977   3.276 -0.2098 -1.1186  0.0503
  641MOL0     C86421   0.153   5.975   3.283 -0.3990 -0.0644 -0.5072
  641MOL0     C86422   0.092   5.930   3.152  0.0848  0.8223  0.2047
  641MOL0     C86423  -0.065   5.926   3.165 -0.1048 -1.0769 -0.5105
  641MOL0     O86424  -0.110   6.058   3.205  1.4443 -0.2397 -0.4717
  641MOL0     C86425  -0.244   6.073   3.192 -0.6913 -0.0539 -0.6728
  641MOL0     C86426  -0.294   6.201   3.226 -0.0480  0.8119  0.1239
  641MOL0     C86427  -0.425   6.246   3.203 -0.8498 -0.3196  0.1131
  641MOL0     C86428  -0.459   6.387   3.241  0.6068 -0.6825  0.6587
  641MOL0     C86429  -0.513   6.147   3.164  0.3098 -0.5698 -0.2861
  641MOL0     C86430  -0.654   6.180   3.140  0.6059 -0.2544 -0.8474
  641MOL0     O86431  -0.685   6.193   3.012  0.1262  0.2233 -0.5785
  641MOL0     C86432  -0.806   6.247   2.979  0.6269  0.5447  0.0769
  641MOL0     C86433  -0.813   6.381   2.922  0.2448  0.2902 -0.8908
  641MOL0     C86434  -0.932   6.443   2.889 -0.0949 -0.7140  0.1813
  641MOL0     C86435  -1.053   6.380   2.926 -0.4220 -0.7510 -0.2084
  641MOL0     O86436  -1.176   6.434   2.915 -0.0001 -0.5435  0.0971
  641MOL0     C86437  -1.190   6.526   2.808  0.9816  0.4404 -0.0910
  641MOL0     C86438  -1.341   6.578   2.808 -0.0753 -0.2803 -0.0179
  641MOL0     C86439  -1.340   6.703   2.727  0.3960 -0.4450  0.0299
  641MOL0     C86440  -1.474   6.777   2.761 -0.0687 -0.2830 -0.0872
  641MOL0     C86441  -1.580   6.752   2.653  0.1203  0.6198  0.1230
  641MOL0     C86442  -1.695   6.856   2.656  0.9499 -0.0333 -0.0617
  641MOL0     C86443  -1.784   6.821   2.537  0.5622 -0.4861 -1.0134
  641MOL0     C86444  -1.912   6.901   2.532  0.5810  0.7636 -0.5437
  641MOL0    Cl86445  -2.023   6.868   2.664  0.5545  0.5630 -0.3942
  641MOL0     C86446  -1.049   6.248   2.973  0.0346  1.2529  0.2414
  641MOL0     C86447  -0.927   6.189   3.004 -0.2024  0.5138 -0.3606
  641MOL0     O86448  -0.727   6.211   3.233 -0.4966 -0.0643 -0.2502
  641MOL0     C86449  -0.474   6.016   3.150 -0.1623  0.6878  0.5257
  641MOL0     C86450  -0.340   5.974   3.169  0.3946  0.1691  0.8381
  641MOL0     N86451   0.437   5.874   3.464 -0.4100 -0.8945 -0.1646
  641MOL0     N86452   0.490   5.911   3.581 -0.0784  0.0636 -0.1116
  641MOL0     C86453   1.310   6.604   3.548  0.7489 -0.6847 -0.0542
  641MOL0     C86454   1.438   6.619   3.503  0.1360  0.1221  0.8534
  641MOL0     C86455   1.902   6.575   3.464 -0.7540  0.3008  0.7326
  641MOL0     C86456   1.974   6.470   3.407  0.2478 -0.1120  0.2749
  641MOL0     C86457   2.113   6.486   3.370 -0.1446  0.3484  0.1683
  641MOL0     C86458   2.185   6.606   3.410 -0.3107  0.2015 -0.0942
  641MOL0     O86459   2.316   6.642   3.373  0.1200  0.4860 -0.6181
  641MOL0     C86460   2.401   6.550   3.320  0.1424 -0.2260  0.5531
  641MOL0     C86461   2.544   6.595   3.307 -0.2408 -0.5733  0.1988
  641MOL0     C86462   2.650   6.488   3.294 -0.1131  0.2346 -0.4585
  641MOL0     C86463   2.785   6.532   3.342  0.2013  0.3159  0.2248
  641MOL0     C86464   2.897   6.443   3.293 -0.5279 -0.9474  0.5159
  641MOL0     C86465   2.975   6.371   3.235 -0.4650 -0.7517 -0.1692
  641MOL0     C86466   2.109   6.712   3.476 -0.0427 -0.4226  0.1001
  641MOL0     C86467   1.970   6.694   3.499  0.3838 -0.5127 -0.0370
  641MOL0     H86468   1.570   6.754   3.793 -2.7477  1.0367  2.8891
  641MOL0     H86469   1.345   6.753   3.850  1.6653 -1.2129  0.7758
  641MOL0     H86470   1.179   6.546   3.886  1.2105  2.6506  1.2440
  641MOL0     H86471   1.070   6.684   3.890 -3.5973  0.5757 -1.0831
  641MOL0     H86472   0.902   6.560   3.737 -0.7800 -1.6851  0.6249
  641MOL0     H86473   1.006   6.427   3.731 -1.5970 -0.5156 -0.3355
  641MOL0     H86474   1.001   6.404   3.978  0.7812  0.5994 -0.6969
  641MOL0     H86475   0.882   6.536   3.980 -0.9090 -0.6102  0.3920
  641MOL0     H86476   0.817   6.283   3.815  0.7581 -3.8394  1.7180
  641MOL0     H86477   0.822   6.277   3.984  4.3481 -0.5404 -0.9306
  641MOL0     H86478   0.619   6.458   3.994 -2.1943  4.4353 -2.0230
  641MOL0     H86479   0.630   6.467   3.827  5.0948  1.5293  1.0589
  641MOL0     H86480   0.601   6.204   3.978 -1.2645 -2.9217 -1.3731
  641MOL0     H86481   0.474   6.302   3.930  0.1804  1.4912  0.3820
  641MOL0     H86482   0.533   6.277   3.671  3.6815  0.5514 -1.1937
  641MOL0     H86483   0.661   6.166   3.724 -0.3489  0.7396 -1.6828
  641MOL0     H86484   0.364   6.143   3.794 -0.0327 -1.1116 -1.1757
  641MOL0     H86485   0.467   6.015   3.817  2.4979 -0.6877 -1.0096
  641MOL0     H86486   0.288   6.155   3.512  0.8135  1.0460  3.3538
  641MOL0     H86487   0.336   6.065   3.221  1.2707 -1.0806  0.9753
  641MOL0     H86488   0.337   5.886   3.227 -0.3603 -1.4671  0.5775
  641MOL0     H86489   0.120   6.075   3.314  2.0682 -0.3771  3.9363
  641MOL0     H86490   0.118   5.910   3.364 -1.2861  1.1968  0.1542
  641MOL0     H86491   0.121   5.827   3.127 -2.4805  0.3681 -1.1815
  641MOL0     H86492   0.129   5.998   3.074 -1.4347  0.4271 -0.8956
  641MOL0     H86493  -0.087   5.860   3.250  1.2837  1.0305  1.6177
  641MOL0     H86494  -0.110   5.898   3.069 -1.0219 -0.0739 -0.3889
  641MOL0     H86495  -0.219   6.271   3.259 -1.2172  0.9120  2.8153
  641MOL0     H86496  -0.367   6.444   3.254  1.5457 -1.9380 -0.1883
  641MOL0     H86497  -0.502   6.430   3.150  1.3936  0.7300  0.9303
  641MOL0     H86498  -0.525   6.393   3.328 -1.3270 -2.9901 -0.5143
  641MOL0     H86499  -0.717   6.427   2.901  0.7107 -0.5001 -0.5374
  641MOL0     H86500  -0.925   6.533   2.829 -0.8131 -0.7711 -0.0051
  641MOL0     H86501  -1.124   6.613   2.821  1.0881  0.2845  0.4521
  641MOL0     H86502  -1.171   6.488   2.708 -1.7948  1.6758 -1.1787
  641MOL0     H86503  -1.405   6.500   2.767 -0.2724 -0.6793  1.0036
  641MOL0     H86504  -1.374   6.593   2.911 -1.9206 -1.7179 -0.3525
  641MOL0     H86505  -1.316   6.684   2.622 -1.0491  2.9120 -1.0435
  641MOL0     H86506  -1.253   6.762   2.757  0.0719 -0.3594  0.8203
  641MOL0     H86507  -1.517   6.760   2.860  1.6929  1.5116  1.0439
  641MOL0     H86508  -1.454   6.884   2.770 -0.3992  0.1676 -3.3558
  641MOL0     H86509  -1.604   6.646   2.661 -0.5078  0.7693  0.2720
  641MOL0     H86510  -1.524   6.768   2.560 -0.8445  2.2394 -0.2217
  641MOL0     H86511  -1.747   6.851   2.752  1.9784 -1.7140  0.4527
  641MOL0     H86512  -1.642   6.952   2.647  1.0051 -0.1445 -1.0040
  641MOL0     H86513  -1.806   6.714   2.545 -2.1187  0.0544  0.1226
  641MOL0     H86514  -1.735   6.858   2.446 -0.7111  0.3396 -1.4001
  641MOL0     H86515  -1.953   6.869   2.436  0.7817 -0.4975 -0.2237
  641MOL0     H86516  -1.886   7.007   2.526  0.7423  1.2084  3.9439
  641MOL0     H86517  -1.144   6.200   2.996 -2.1691  4.5699 -1.1402
  641MOL0     H86518  -0.941   6.098   3.061 -0.5887  1.0332  0.3788
  641MOL0     H86519  -0.547   5.939   3.127  2.0872 -1.8980  1.4109
  641MOL0     H86520  -0.326   5.866   3.166 -1.6315 -0.1359  0.9024
  641MOL0     H86521   1.242   6.553   3.480 -3.0975  0.2342  2.8024
  641MOL0     H86522   1.460   6.587   3.402  3.5191  0.9009  1.1983
  641MOL0     H86523   1.928   6.382   3.365  2.4444  0.1883 -3.0841
  641MOL0     H86524   2.156   6.405   3.312  2.5105  2.1945 -0.6374
  641MOL0     H86525   2.412   6.453   3.369  2.0049 -0.4076 -0.1197
  641MOL0     H86526   2.370   6.539   3.215 -2.8644  1.9236  1.0814
  641MOL0     H86527   2.571   6.656   3.394 -1.9638  0.2380  0.2101
  641MOL0     H86528   2.557   6.663   3.223  2.6251  0.4673  1.3302
  641MOL0     H86529   2.655   6.447   3.192  1.4256 -1.0964  0.1111
  641MOL0     H86530   2.633   6.396   3.351 -0.4199  1.8773  2.2252
  641MOL0     H86531   2.794   6.524   3.450  1.0775 -1.2498  0.0725
  641MOL0     H86532   2.794   6.635   3.306  0.8735 -0.4090 -1.8336
  641MOL0     H86533   3.041   6.320   3.168 -1.3897 -1.3719 -0.6231
  641MOL0     H86534   2.163   6.802   3.503  1.7949 -1.9966  1.9863
  641MOL0     H86535   1.909   6.774   3.538 -2.3231 -1.7828 -1.3993
  642MOL0     O86536   3.008   0.283  11.158  0.6622 -0.3204 -0.7092
  642MOL0     C86537   3.071   0.325  11.260  0.8533  0.5777  0.7575
  642MOL0     O86538   3.014   0.330  11.390 -0.3201  0.1077 -0.5032
  642MOL0     C86539   2.889   0.300  11.431  0.1693 -0.2831 -0.1935
  642MOL0     C86540   2.812   0.208  11.369  0.9685  1.8437  0.1389
  642MOL0     C86541   2.678   0.185  11.407 -0.7958 -0.2354 -0.0236
  642MOL0     C86542   2.631   0.253  11.521 -0.3903 -0.2634  0.7909
  642MOL0     O86543   2.503   0.233  11.556 -0.6579 -0.0279  0.6294
  642MOL0     C86544   2.496   0.172  11.682  0.3259  0.5892 -0.4183
  642MOL0     C86545   2.361   0.115  11.705 -0.4009  1.2880  1.4269
  642MOL0     C86546   2.242   0.214  11.690  0.0453 -0.3942 -0.4303
  642MOL0     C86547   2.108   0.155  11.744 -0.0574 -0.3104  0.3324
  642MOL0     C86548   2.000   0.259  11.732 -0.6847 -0.9024 -0.3918
  642MOL0     C86549   1.874   0.200  11.792 -0.1440 -0.8014 -0.1711
  642MOL0     C86550   1.755   0.300  11.773 -0.1155  0.2993 -0.0152
  642MOL0     C86551   1.619   0.228  11.833  0.1646 -0.0785  0.0602
  642MOL0     N86552   1.504   0.318  11.854  0.0068  0.1551 -0.3167
  642MOL0     C86553   1.379   0.272  11.861  1.0125  0.9330  0.0833
  642MOL0     C86554   1.308   0.365  11.934  0.3421  0.6784 -0.1208
  642MOL0     C86555   1.171   0.337  11.988 -0.2580  1.1045  0.8579
  642MOL0     C86556   1.057   0.403  11.902  0.9983  0.1438  0.0741
  642MOL0     C86557   0.930   0.362  11.986  0.0293 -0.2463 -0.3879
  642MOL0     C86558   0.808   0.419  11.928  0.6536  0.1664  0.3172
  642MOL0     O86559   0.688   0.365  11.995 -0.1035 -0.7219  0.6726
  642MOL0     C86560   0.570   0.415  11.948 -0.8011 -0.6830  0.6048
  642MOL0     C86561   0.457   0.371  12.023  0.3551  1.1931 -0.3285
  642MOL0     C86562   0.333   0.402  11.991  0.7637 -0.2164  0.2024
  642MOL0     C86563   0.212   0.343  12.062 -0.3478 -0.2793 -0.2964
  642MOL0     C86564   0.305   0.492  11.884  0.7681 -0.7103 -0.2494
  642MOL0     C86565   0.167   0.526  11.840 -0.0956 -0.5678 -0.0438
  642MOL0     O86566   0.154   0.490  11.716  0.5432 -0.0186  0.6478
  642MOL0     C86567   0.067   0.547  11.627 -0.3144  0.0600  0.8088
  642MOL0     C86568  -0.071   0.571  11.645  0.6139 -0.4310 -0.1001
  642MOL0     C86569  -0.140   0.626  11.536 -0.2857  1.5354 -0.3152
  642MOL0     C86570  -0.084   0.663  11.411  0.1483 -0.7844 -0.0383
  642MOL0     O86571  -0.157   0.706  11.305  0.2606 -0.8277 -0.9544
  642MOL0     C86572  -0.288   0.737  11.322 -0.3033  0.0107  0.2937
  642MOL0     C86573  -0.349   0.787  11.197 -0.1371  0.6104  0.6621
  642MOL0     C86574  -0.499   0.815  11.225  0.0865 -0.9745 -0.1808
  642MOL0     C86575  -0.592   0.795  11.105 -1.1180 -0.2730  0.7031
  642MOL0     C86576  -0.732   0.747  11.149 -0.0803 -0.1484  0.3016
  642MOL0     C86577  -0.726   0.598  11.197  0.4810  0.2739 -0.4786
  642MOL0     C86578  -0.853   0.557  11.281  0.2624  0.3028  0.1984
  642MOL0     C86579  -0.964   0.513  11.191  0.4976 -0.6855  0.1149
  642MOL0    Cl86580  -0.931   0.349  11.115 -0.0546  0.2300 -0.4472
  642MOL0     C86581   0.055   0.668  11.410  0.0775  0.4072  0.0921
  642MOL0     C86582   0.125   0.598  11.506 -0.1022  0.2522  0.2185
  642MOL0     O86583   0.082   0.582  11.906  0.2601  0.1463  0.3146
  642MOL0     C86584   0.416   0.520  11.791 -0.0045 -0.6474 -0.6068
  642MOL0     C86585   0.547   0.489  11.833 -0.9865  0.6754 -0.1350
  642MOL0     N86586   1.395   0.473  11.963 -0.6747  0.2745 -0.3076
  642MOL0     N86587   1.515   0.446  11.913  0.1279  0.5824  0.0612
  642MOL0     C86588   2.710   0.349  11.589  0.6535  0.4442 -0.9292
  642MOL0     C86589   2.837   0.372  11.538  0.5081  0.4186  0.7530
  642MOL0     C86590   3.218   0.339  11.243 -0.9704 -0.7181  0.2667
  642MOL0     C86591   3.287   0.407  11.345  0.2914 -0.6998 -0.3390
  642MOL0     C86592   3.429   0.425  11.364 -0.3623  0.6768  0.0424
  642MOL0     C86593   3.504   0.381  11.250  0.1128  0.5186  0.0109
  642MOL0     O86594   3.643   0.376  11.241  0.3745 -0.2634  0.1990
  642MOL0     C86595   3.712   0.438  11.343 -0.4662 -0.2419 -0.5380
  642MOL0     C86596   3.859   0.413  11.316 -0.9573  0.3910 -0.5093
  642MOL0     C86597   3.947   0.493  11.405 -0.0154 -0.0972  0.3463
  642MOL0     C86598   4.092   0.476  11.380 -0.9745 -0.1307  0.6010
  642MOL0     C86599   4.178   0.552  11.476 -0.8186  0.1155  0.5680
  642MOL0     C86600   4.271   0.602  11.539  0.7540  0.8665  0.7498
  642MOL0     C86601   3.442   0.316  11.141  0.2454  0.4071  0.4801
  642MOL0     C86602   3.305   0.291  11.147  0.0711  0.0188  0.3501
  642MOL0     H86603   2.849   0.156  11.282  1.1452  0.2174  1.1446
  642MOL0     H86604   2.608   0.132  11.342  0.2086  0.9838 -2.2254
  642MOL0     H86605   2.562   0.085  11.689  1.8065  1.7597  1.1934
  642MOL0     H86606   2.526   0.251  11.751 -2.6187  1.8003 -0.3968
  642MOL0     H86607   2.355   0.036  11.629 -1.7925  3.8983 -1.4435
  642MOL0     H86608   2.360   0.066  11.802 -3.6274  1.0717  1.3944
  642MOL0     H86609   2.254   0.301  11.755  0.4869 -1.2819  0.6975
  642MOL0     H86610   2.228   0.243  11.585  2.3114 -0.5401 -0.8271
  642MOL0     H86611   2.085   0.059  11.697  0.5484 -2.4708  4.1004
  642MOL0     H86612   2.111   0.129  11.850 -0.8199 -0.3123  0.3606
  642MOL0     H86613   2.021   0.352  11.784  0.7110 -1.1844 -0.3994
  642MOL0     H86614   1.992   0.273  11.624 -0.1669 -0.0351 -0.3236
  642MOL0     H86615   1.850   0.111  11.733  1.1553 -0.2778 -1.5260
  642MOL0     H86616   1.873   0.171  11.898 -2.6527  1.2598  0.4629
  642MOL0     H86617   1.770   0.395  11.826 -3.6851  1.1816 -0.3389
  642MOL0     H86618   1.729   0.324  11.669 -1.6198 -2.2357 -0.2855
  642MOL0     H86619   1.640   0.192  11.934  1.0165 -0.6657 -0.3064
  642MOL0     H86620   1.590   0.149  11.763  1.9220 -1.4142  0.7589
  642MOL0     H86621   1.340   0.177  11.827  4.9804 -1.1403  0.7202
  642MOL0     H86622   1.139   0.233  11.992 -2.2754  1.7173  1.9969
  642MOL0     H86623   1.170   0.380  12.089 -0.0647  1.8737  0.5388
  642MOL0     H86624   1.048   0.357  11.803 -1.2197 -1.2298  0.8596
  642MOL0     H86625   1.075   0.511  11.892  0.8221  0.1458 -0.2551
  642MOL0     H86626   0.939   0.400  12.088  0.0421  1.2337 -0.9139
  642MOL0     H86627   0.918   0.254  11.987  1.0152 -0.4200  2.6677
  642MOL0     H86628   0.811   0.379  11.826  1.5269 -2.5297  1.3091
  642MOL0     H86629   0.808   0.528  11.932 -1.4845  0.1609  3.3906
  642MOL0     H86630   0.481   0.298  12.100  4.0952  1.5609 -0.9482
  642MOL0     H86631   0.182   0.420  12.133  0.2430 -1.8155  1.7112
  642MOL0     H86632   0.136   0.306  11.992 -0.0551 -2.5342  0.4815
  642MOL0     H86633   0.244   0.259  12.125  0.8646  1.5985  1.7201
  642MOL0     H86634  -0.118   0.540  11.737  0.0398 -0.2796 -0.3383
  642MOL0     H86635  -0.248   0.621  11.542 -0.3662  0.7441 -1.9619
  642MOL0     H86636  -0.342   0.650  11.360  1.7222 -1.0018  0.9874
  642MOL0     H86637  -0.304   0.819  11.393 -0.2673 -0.8747  1.3509
  642MOL0     H86638  -0.311   0.886  11.173 -1.7670  1.0112 -0.3754
  642MOL0     H86639  -0.333   0.716  11.116  0.6660  0.4897  0.9203
  642MOL0     H86640  -0.512   0.919  11.257 -1.1501 -1.0417 -0.4202
  642MOL0     H86641  -0.543   0.759  11.308 -2.8762  0.6215 -0.5364
  642MOL0     H86642  -0.601   0.893  11.056 -0.7867 -0.6736 -0.1851
  642MOL0     H86643  -0.547   0.721  11.038  0.4267 -0.9705  2.4314
  642MOL0     H86644  -0.796   0.745  11.060 -0.7116 -1.0334  0.7671
  642MOL0     H86645  -0.779   0.813  11.222 -3.4228 -1.2148 -0.7454
  642MOL0     H86646  -0.723   0.527  11.113  2.1515 -0.8845  0.5005
  642MOL0     H86647  -0.639   0.575  11.258  1.2275  2.7253 -0.4930
  642MOL0     H86648  -0.897   0.636  11.343 -1.7097  0.6539 -1.5611
  642MOL0     H86649  -0.817   0.482  11.352  2.8608 -0.1518 -1.4462
  642MOL0     H86650  -0.980   0.591  11.116 -2.6410 -3.2860 -2.2242
  642MOL0     H86651  -1.056   0.510  11.250  0.4228  0.4420  0.0792
  642MOL0     H86652   0.113   0.707  11.327  1.8736 -1.2411  0.5257
  642MOL0     H86653   0.233   0.599  11.498 -0.1722  1.8857 -1.0438
  642MOL0     H86654   0.411   0.582  11.702 -1.2147 -1.0306 -0.8266
  642MOL0     H86655   0.621   0.525  11.763 -1.3581  0.8674 -0.4336
  642MOL0     H86656   2.672   0.403  11.675 -3.5553 -0.8414 -1.7218
  642MOL0     H86657   2.897   0.447  11.589  3.4744 -2.1072  1.3425
  642MOL0     H86658   3.239   0.437  11.437 -0.4408 -1.5929 -0.4168
  642MOL0     H86659   3.472   0.469  11.455 -1.4055  0.1913  0.7840
  642MOL0     H86660   3.687   0.544  11.336 -3.6071 -0.9636 -2.8000
  642MOL0     H86661   3.682   0.405  11.443  1.6487  1.5112  0.7633
  642MOL0     H86662   3.878   0.447  11.214 -1.5471  0.2674 -0.6642
  642MOL0     H86663   3.883   0.306  11.329  0.4938  0.8351  0.7957
  642MOL0     H86664   3.917   0.472  11.508 -2.9890 -0.4315 -0.5106
  642MOL0     H86665   3.926   0.600  11.391  0.4453 -0.0059  0.3156
  642MOL0     H86666   4.119   0.512  11.280 -1.6828  1.6051  1.0030
  642MOL0     H86667   4.120   0.371  11.385 -1.4838 -0.3631 -1.0376
  642MOL0     H86668   4.353   0.654  11.586  0.5100  1.6008  0.3929
  642MOL0     H86669   3.497   0.279  11.055  1.6876  2.2863  0.5279
  642MOL0     H86670   3.259   0.219  11.080 -1.9236  1.9318 -0.4683
  643MOL0     O86671   1.594   7.464   1.318  0.0438 -0.4523 -0.6282
  643MOL0     C86672   1.655   7.375   1.373 -0.1013  0.2959  0.0508
  643MOL0     O86673   1.608   7.247   1.403 -0.1142 -1.0159  1.0376
  643MOL0     C86674   1.481   7.215   1.368  0.4636 -0.5121  0.0646
  643MOL0     C86675   1.477   7.095   1.296  0.4987  0.4541 -0.2109
  643MOL0     C86676   1.344   7.046   1.274 -0.1805  0.9415 -0.4895
  643MOL0     C86677   1.224   7.115   1.314 -0.6623 -0.2666 -0.6269
  643MOL0     O86678   1.101   7.068   1.292  0.6149 -0.7334  0.2431
  643MOL0     C86679   1.068   7.001   1.163  0.3953  0.4964 -0.0985
  643MOL0     C86680   0.918   6.982   1.162 -0.5569 -0.3876 -0.2494
  643MOL0     C86681   0.836   7.107   1.190 -1.6181  0.1872  0.0893
  643MOL0     C86682   0.697   7.091   1.247  0.5093  0.5802  0.3299
  643MOL0     C86683   0.630   7.224   1.293 -0.5278 -0.1654  0.8962
  643MOL0     C86684   0.479   7.206   1.296 -0.2007 -0.3770 -0.2330
  643MOL0     C86685   0.405   7.335   1.341  0.6173  0.4788 -0.2472
  643MOL0     C86686   0.268   7.301   1.415 -0.4653  0.6516 -0.5622
  643MOL0     N86687   0.271   7.240   1.551  0.4829  1.0340  1.1470
  643MOL0     C86688   0.382   7.232   1.637 -0.3345 -0.2587  1.0667
  643MOL0     C86689   0.346   7.135   1.724  0.4458 -0.1009  0.1901
  643MOL0     C86690   0.428   7.080   1.838 -0.1415 -0.3563 -0.0905
  643MOL0     C86691   0.546   7.173   1.878 -0.3528 -0.5540  0.0204
  643MOL0     C86692   0.622   7.129   2.006  0.1242  0.3481  0.0358
  643MOL0     C86693   0.745   7.208   2.055  0.3717 -0.2273 -0.5468
  643MOL0     O86694   0.828   7.262   1.946 -0.4785 -0.2685  0.0097
  643MOL0     C86695   0.955   7.299   1.953 -0.8284  0.1622 -0.4508
  643MOL0     C86696   1.020   7.352   1.837  0.9108  0.5829  0.9990
  643MOL0     C86697   1.161   7.381   1.831  0.8044  0.2432 -0.5013
  643MOL0     C86698   1.219   7.396   1.692  0.6403 -0.3414 -0.0960
  643MOL0     C86699   1.234   7.371   1.951  0.4928  0.1298  0.1555
  643MOL0     C86700   1.384   7.387   1.951 -1.0808 -0.7793  0.1721
  643MOL0     O86701   1.437   7.476   1.860  0.0085 -0.3424  0.3696
  643MOL0     C86702   1.567   7.507   1.872  0.2341 -0.1397  0.0937
  643MOL0     C86703   1.607   7.582   1.980 -0.2765 -0.9939 -0.7208
  643MOL0     C86704   1.739   7.635   1.990 -0.4760  0.4111 -0.2650
  643MOL0     C86705   1.831   7.589   1.891  0.4553 -0.3203  0.2512
  643MOL0     O86706   1.963   7.609   1.894  0.0888  0.2583  0.3133
  643MOL0     C86707   2.015   7.717   1.972  0.2717 -0.1579 -0.1992
  643MOL0     C86708   2.162   7.717   1.935  0.5907 -0.9538 -0.0981
  643MOL0     C86709   2.239   7.812   2.024 -0.1094 -0.3435 -0.4735
  643MOL0     C86710   2.390   7.767   2.022 -0.4146  0.0300 -0.3063
  643MOL0     C86711   2.467   7.829   1.905  0.2408 -0.2423 -0.8144
  643MOL0     C86712   2.613   7.795   1.903  0.6707  0.1285  0.2754
  643MOL0     C86713   2.666   7.802   1.759  0.2136  0.0778 -0.0684
  643MOL0     C86714   2.820   7.783   1.762  0.4194  0.6061 -0.3183
  643MOL0    Cl86715   2.855   7.616   1.816  0.0669  0.0542 -0.1487
  643MOL0     C86716   1.785   7.518   1.786 -0.6619  0.8367  0.2104
  643MOL0     C86717   1.662   7.478   1.772  0.1529  0.3965 -0.3831
  643MOL0     O86718   1.454   7.320   2.036  0.3615 -0.7252  0.4230
  643MOL0     C86719   1.165   7.322   2.068  0.5277 -1.1825  0.5836
  643MOL0     C86720   1.034   7.286   2.069  0.6047 -0.3325 -0.3905
  643MOL0     N86721   0.212   7.101   1.707  0.2518 -0.7459 -0.1104
  643MOL0     N86722   0.163   7.175   1.603 -0.4531 -1.0093 -0.1301
  643MOL0     C86723   1.237   7.228   1.393  0.4928 -0.1395 -0.2408
  643MOL0     C86724   1.365   7.284   1.417  0.0281  0.5489 -0.1505
  643MOL0     C86725   1.794   7.402   1.406  0.5101 -0.7676  0.3586
  643MOL0     C86726   1.828   7.530   1.441 -0.1296 -0.8202 -0.8467
  643MOL0     C86727   1.961   7.562   1.482  0.0406 -0.4623  0.0335
  643MOL0     C86728   2.058   7.465   1.477 -1.2780 -0.0929 -0.5494
  643MOL0     O86729   2.197   7.488   1.519  0.2265 -0.7057 -0.0826
  643MOL0     C86730   2.298   7.411   1.455 -0.4855  0.6134  0.5117
  643MOL0     C86731   2.425   7.501   1.458 -0.2830  0.1282 -0.3447
  643MOL0     C86732   2.422   7.626   1.365  0.4477 -0.1998  0.0271
  643MOL0     C86733   2.459   7.593   1.216  0.2926  0.2879 -0.9116
  643MOL0     C86734   2.611   7.585   1.190 -0.2704  0.3470 -0.7399
  643MOL0     C86735   2.730   7.563   1.165  0.2314 -0.6980  0.1357
  643MOL0     C86736   2.028   7.335   1.431 -0.4424  0.6139  0.3296
  643MOL0     C86737   1.900   7.303   1.399 -0.1042  0.9172 -0.2113
  643MOL0     H86738   1.566   7.042   1.266 -0.1348 -0.3820 -0.6593
  643MOL0     H86739   1.329   6.952   1.222  1.4163  0.7971 -0.7439
  643MOL0     H86740   1.106   7.061   1.081  2.0788  0.6144  0.7056
  643MOL0     H86741   1.118   6.904   1.150  1.4343  1.1128 -0.8239
  643MOL0     H86742   0.886   6.931   1.071  2.2733 -0.9837 -1.0025
  643MOL0     H86743   0.899   6.908   1.240  1.1098 -3.2387 -2.3785
  643MOL0     H86744   0.885   7.162   1.272 -0.8209 -2.4076  1.4675
  643MOL0     H86745   0.837   7.170   1.101  1.1053 -2.7410 -2.1537
  643MOL0     H86746   0.641   7.048   1.163  1.0696  0.2771  0.1035
  643MOL0     H86747   0.696   7.018   1.328 -0.0972  0.2025 -0.0063
  643MOL0     H86748   0.672   7.239   1.393 -0.6884 -0.1717  0.9637
  643MOL0     H86749   0.655   7.299   1.218 -2.0664 -0.5133  0.0099
  643MOL0     H86750   0.453   7.188   1.191 -1.3903 -1.3950  0.2207
  643MOL0     H86751   0.449   7.118   1.353 -1.1688 -0.3840 -0.7406
  643MOL0     H86752   0.472   7.381   1.415  2.5813 -1.2006 -0.9119
  643MOL0     H86753   0.393   7.396   1.251 -1.1471  0.0600 -0.3247
  643MOL0     H86754   0.220   7.221   1.357  3.3801 -2.4892  0.1475
  643MOL0     H86755   0.203   7.388   1.409  2.8258  3.5060  1.4478
  643MOL0     H86756   0.478   7.279   1.615 -0.7018  0.7389  1.5093
  643MOL0     H86757   0.368   7.057   1.926 -1.2655 -1.0004 -0.9934
  643MOL0     H86758   0.462   6.984   1.797  0.6244  0.6529 -1.9595
  643MOL0     H86759   0.505   7.273   1.888  2.4611  0.7483 -0.5651
  643MOL0     H86760   0.620   7.162   1.798 -2.7915 -0.8189 -2.3522
  643MOL0     H86761   0.634   7.021   1.997 -0.9012 -0.1213  3.0585
  643MOL0     H86762   0.549   7.148   2.086 -1.1702  2.3330 -1.4959
  643MOL0     H86763   0.806   7.135   2.110  1.1138  3.0251  3.3710
  643MOL0     H86764   0.725   7.287   2.128 -2.0520  1.8727 -3.2432
  643MOL0     H86765   0.954   7.357   1.752  0.3274 -1.9856  1.2125
  643MOL0     H86766   1.139   7.354   1.630 -2.1672  4.4512 -0.2206
  643MOL0     H86767   1.224   7.504   1.677 -2.6468  0.1756  1.6130
  643MOL0     H86768   1.320   7.355   1.684  1.5690  1.3863  1.8790
  643MOL0     H86769   1.535   7.625   2.049 -0.4392 -2.0347 -0.2232
  643MOL0     H86770   1.763   7.702   2.072  1.5724  1.2579 -1.4948
  643MOL0     H86771   1.971   7.813   1.942  0.1988 -0.9644 -2.9402
  643MOL0     H86772   2.001   7.694   2.078  0.9114  0.4775  0.0323
  643MOL0     H86773   2.187   7.614   1.959 -0.6444 -0.8219  1.9490
  643MOL0     H86774   2.182   7.727   1.828  2.1203  0.9360  0.3069
  643MOL0     H86775   2.206   7.819   2.128  2.4482  4.1897  0.2765
  643MOL0     H86776   2.227   7.913   1.986  4.2013  1.1203  1.4148
  643MOL0     H86777   2.429   7.799   2.120 -0.1157 -0.1261 -0.3729
  643MOL0     H86778   2.407   7.659   2.017 -2.8881 -0.3990 -0.8457
  643MOL0     H86779   2.462   7.938   1.902  2.5480 -0.0739 -3.3886
  643MOL0     H86780   2.426   7.789   1.812 -3.6952  0.3840  0.4637
  643MOL0     H86781   2.657   7.869   1.970  0.6300  1.7659 -1.4487
  643MOL0     H86782   2.632   7.692   1.937  0.2042 -0.3899 -0.9584
  643MOL0     H86783   2.649   7.903   1.721  0.2848  0.7346  1.5363
  643MOL0     H86784   2.624   7.722   1.698  1.4923 -0.2169 -0.5882
  643MOL0     H86785   2.862   7.866   1.819 -0.2191  1.0955 -0.5491
  643MOL0     H86786   2.864   7.793   1.662  3.2393  1.3161  0.9014
  643MOL0     H86787   1.860   7.469   1.726 -0.5730 -1.7196  2.2520
  643MOL0     H86788   1.641   7.418   1.684  0.4289 -0.2220 -0.0358
  643MOL0     H86789   1.230   7.317   2.155  1.7887 -1.5382 -0.3437
  643MOL0     H86790   0.994   7.259   2.166 -0.9545 -2.0224 -1.4466
  643MOL0     H86791   1.144   7.270   1.428  1.7522 -0.4421  3.9954
  643MOL0     H86792   1.381   7.382   1.459 -1.1711  0.1961  1.1967
  643MOL0     H86793   1.762   7.616   1.451  1.1028 -0.0687  1.5297
  643MOL0     H86794   1.989   7.660   1.519 -1.6745  0.0137  0.1783
  643MOL0     H86795   2.309   7.308   1.492 -0.5231  0.3345 -0.2357
  643MOL0     H86796   2.267   7.404   1.350 -2.3965  1.9179  0.9224
  643MOL0     H86797   2.515   7.444   1.433 -0.1753 -0.2669  0.8421
  643MOL0     H86798   2.441   7.523   1.564 -0.9869 -1.7836  0.2085
  643MOL0     H86799   2.495   7.703   1.388  1.6367 -0.8110 -1.5252
  643MOL0     H86800   2.324   7.675   1.367 -0.1187 -1.2482 -0.8611
  643MOL0     H86801   2.421   7.677   1.159 -0.5037  0.2499 -0.4456
  643MOL0     H86802   2.412   7.502   1.177  2.5224 -0.7118 -1.4714
  643MOL0     H86803   2.828   7.556   1.123 -0.8920 -0.6251 -2.6843
  643MOL0     H86804   2.101   7.256   1.422 -2.0857 -0.8269 -1.1894
  643MOL0     H86805   1.882   7.200   1.369  1.1776  0.2821  1.1243
  644MOL0     O86806   3.079   0.794   4.597  0.4552  0.2666  0.6339
  644MOL0     C86807   3.093   0.803   4.476 -0.1059 -0.0541  0.2280
  644MOL0     O86808   3.220   0.813   4.409  0.2008  0.1895 -0.4253
  644MOL0     C86809   3.341   0.772   4.466 -0.2283  0.1392 -0.0785
  644MOL0     C86810   3.360   0.686   4.581  0.2382  1.4020  0.0953
  644MOL0     C86811   3.491   0.663   4.625  0.4867  0.2871 -0.8529
  644MOL0     C86812   3.605   0.721   4.576  0.6555 -0.4173  0.2613
  644MOL0     O86813   3.718   0.719   4.649  0.2025 -0.2319  0.0408
  644MOL0     C86814   3.835   0.781   4.596 -0.9641  0.7428 -1.2852
  644MOL0     C86815   3.935   0.781   4.705 -0.2531  0.0933  0.0855
  644MOL0     C86816   4.033   0.663   4.703 -1.6174 -0.5518  0.3255
  644MOL0     C86817   4.144   0.707   4.809  0.3659  1.0215 -0.4781
  644MOL0     C86818   4.246   0.599   4.828  0.1701  0.2658  0.6518
  644MOL0     C86819   4.337   0.628   4.955  1.1869 -0.6212 -1.0423
  644MOL0     C86820   4.426   0.520   4.997 -0.0046  0.7821  0.7012
  644MOL0     C86821   4.508   0.554   5.118 -0.1326 -0.0087  0.2964
  644MOL0     N86822   4.592   0.666   5.085  0.7731 -0.2407  0.5205
  644MOL0     C86823   4.673   0.681   4.977 -1.2235  0.7357  0.6956
  644MOL0     C86824   4.719   0.809   4.982 -0.0983  0.2819  0.0694
  644MOL0     C86825   4.812   0.877   4.883  0.0764  0.3321  0.0090
  644MOL0     C86826   4.726   0.957   4.782 -0.7625  0.2933  0.3108
  644MOL0     C86827   4.711   1.102   4.832 -0.2356 -0.8880  0.4996
  644MOL0     C86828   4.607   1.187   4.746 -0.9546 -0.3668  0.0720
  644MOL0     O86829   4.595   1.128   4.620  0.1123 -0.2870  0.2222
  644MOL0     C86830   4.468   1.093   4.597  0.6452 -0.1759  0.9595
  644MOL0     C86831   4.457   0.969   4.535  0.1228 -1.1267  0.4004
  644MOL0     C86832   4.333   0.916   4.488  0.6792  0.6601  1.0729
  644MOL0     C86833   4.348   0.776   4.433  0.6766 -0.4931 -0.1415
  644MOL0     C86834   4.225   1.002   4.475  0.2192  0.8555 -0.6852
  644MOL0     C86835   4.093   0.967   4.410 -0.5315 -0.9439 -1.0728
  644MOL0     O86836   3.996   1.055   4.448 -0.1112 -0.4965  0.0222
  644MOL0     C86837   3.880   1.059   4.376  0.7918 -0.2878  0.1112
  644MOL0     C86838   3.857   1.020   4.245  0.1973  1.2476  0.0255
  644MOL0     C86839   3.734   1.016   4.180  0.6876 -0.2243 -0.5784
  644MOL0     C86840   3.619   1.070   4.241  0.3094  0.5119 -0.0382
  644MOL0     O86841   3.498   1.088   4.182 -0.9079 -0.1171 -0.4300
  644MOL0     C86842   3.475   0.993   4.078  0.3875  0.0139 -0.7474
  644MOL0     C86843   3.342   0.996   4.031 -0.0695  0.3503  0.8664
  644MOL0     C86844   3.304   0.876   3.940 -0.6005 -1.1830 -0.5692
  644MOL0     C86845   3.183   0.893   3.854  1.0601 -0.2875  0.9075
  644MOL0     C86846   3.132   0.758   3.811 -0.0723 -0.7904 -0.7917
  644MOL0     C86847   2.974   0.766   3.789 -0.2150  0.4248  0.0030
  644MOL0     C86848   2.923   0.643   3.712 -0.6904  0.4448  0.1560
  644MOL0     C86849   2.928   0.510   3.775  0.5263  0.2535 -1.2654
  644MOL0    Cl86850   2.841   0.517   3.935  0.3028  0.0983  0.0914
  644MOL0     C86851   3.639   1.129   4.369 -0.0068  0.3487 -0.4222
  644MOL0     C86852   3.771   1.116   4.439  0.6635  0.5928 -0.1972
  644MOL0     O86853   4.075   0.855   4.356  0.6329  0.5997  0.4659
  644MOL0     C86854   4.233   1.129   4.537 -0.1610  0.0218  0.2905
  644MOL0     C86855   4.355   1.182   4.590 -0.0724  0.9718  1.2106
  644MOL0     N86856   4.675   0.867   5.092  0.1062  0.1982  0.4632
  644MOL0     N86857   4.590   0.784   5.153 -0.3404  0.2027  0.4715
  644MOL0     C86858   3.584   0.792   4.460  0.3897  0.3783 -0.3687
  644MOL0     C86859   3.456   0.822   4.402  0.4713  0.2022  1.0161
  644MOL0     C86860   2.972   0.799   4.391  0.5075 -0.2351 -0.4237
  644MOL0     C86861   2.856   0.729   4.438 -0.3151 -0.5834  0.5763
  644MOL0     C86862   2.743   0.715   4.361 -0.7780  0.4165  0.0141
  644MOL0     C86863   2.740   0.770   4.230  1.0260  0.0536 -0.3941
  644MOL0     O86864   2.630   0.751   4.147  0.0720  0.1567  0.6603
  644MOL0     C86865   2.498   0.722   4.208 -0.6358 -0.1181  0.7046
  644MOL0     C86866   2.389   0.749   4.098 -0.4226  0.6332 -0.1254
  644MOL0     C86867   2.249   0.725   4.151 -0.0847  1.0476 -0.7747
  644MOL0     C86868   2.149   0.687   4.041 -0.2147 -0.1516  0.5662
  644MOL0     C86869   2.157   0.778   3.925 -0.3183  0.4036  0.3268
  644MOL0     C86870   2.162   0.867   3.845  0.6984 -0.3278 -0.4803
  644MOL0     C86871   2.854   0.835   4.186 -0.2058 -1.2687  0.7917
  644MOL0     C86872   2.973   0.849   4.261 -0.1940 -0.3316 -0.5625
  644MOL0     H86873   3.273   0.636   4.622  0.1821  0.5956 -0.9814
  644MOL0     H86874   3.502   0.602   4.714  1.1797 -1.9409 -2.3887
  644MOL0     H86875   3.888   0.741   4.509  2.8085  0.5406  0.8849
  644MOL0     H86876   3.813   0.887   4.582 -0.8329  0.8332 -0.8363
  644MOL0     H86877   3.994   0.873   4.699  0.8645 -0.6499 -0.4765
  644MOL0     H86878   3.885   0.791   4.802  2.6947 -2.4485  2.0434
  644MOL0     H86879   3.991   0.563   4.720  1.0453 -2.5728 -3.4398
  644MOL0     H86880   4.077   0.666   4.602 -0.7542 -0.2636  0.6968
  644MOL0     H86881   4.194   0.800   4.783  0.4087  1.0839 -0.1716
  644MOL0     H86882   4.089   0.711   4.904  1.9932  2.6467  0.4746
  644MOL0     H86883   4.200   0.505   4.860  1.8064 -0.6825  0.3163
  644MOL0     H86884   4.303   0.588   4.736  0.9629 -2.8552  1.3940
  644MOL0     H86885   4.407   0.710   4.934  1.6014 -0.4894  0.7534
  644MOL0     H86886   4.270   0.661   5.035  0.4464 -0.1286 -1.8338
  644MOL0     H86887   4.377   0.428   5.030  0.9748  0.1888  0.5361
  644MOL0     H86888   4.487   0.494   4.910  1.4222 -1.2791  2.2339
  644MOL0     H86889   4.576   0.471   5.136  2.1086  1.7267  0.3988
  644MOL0     H86890   4.439   0.584   5.198 -1.4677 -0.4574 -0.6549
  644MOL0     H86891   4.683   0.609   4.896 -0.3641  2.1152 -0.4760
  644MOL0     H86892   4.877   0.946   4.937 -1.1177  0.8609  0.7975
  644MOL0     H86893   4.863   0.795   4.831 -1.2773 -0.3907 -0.2359
  644MOL0     H86894   4.631   0.906   4.762 -0.6963 -0.0039  0.7428
  644MOL0     H86895   4.772   0.955   4.683 -0.1320 -0.1102  0.6034
  644MOL0     H86896   4.804   1.159   4.821 -0.9361 -0.1233 -2.3389
  644MOL0     H86897   4.699   1.115   4.940  2.1836 -2.2566  1.0182
  644MOL0     H86898   4.649   1.288   4.747  0.0755 -0.6631 -3.1554
  644MOL0     H86899   4.510   1.188   4.797 -0.3457 -1.6274  1.3144
  644MOL0     H86900   4.543   0.904   4.543  1.7788  0.6954 -1.3882
  644MOL0     H86901   4.272   0.711   4.477 -0.0371  0.5201  0.1523
  644MOL0     H86902   4.333   0.774   4.325  1.9784 -0.2325 -0.3483
  644MOL0     H86903   4.442   0.720   4.435  0.1794 -1.5837 -2.8009
  644MOL0     H86904   3.946   1.003   4.185  1.9906  1.8955  2.3779
  644MOL0     H86905   3.721   0.978   4.079 -0.4797  3.9917 -2.2559
  644MOL0     H86906   3.540   1.015   3.992  2.8351 -5.2856 -0.6980
  644MOL0     H86907   3.498   0.890   4.106 -0.9910 -0.0891  0.0794
  644MOL0     H86908   3.279   0.993   4.120  0.6131  2.8879  1.5320
  644MOL0     H86909   3.323   1.093   3.982  0.9080  0.6847  1.1261
  644MOL0     H86910   3.284   0.791   4.005 -3.7501  0.7822  1.2712
  644MOL0     H86911   3.389   0.856   3.874  0.4279  1.8956 -0.3493
  644MOL0     H86912   3.098   0.936   3.908 -1.1283 -3.6340  0.4428
  644MOL0     H86913   3.210   0.949   3.764 -1.0566 -0.2740  0.2143
  644MOL0     H86914   3.165   0.684   3.884  3.6042 -0.4037 -1.8527
  644MOL0     H86915   3.175   0.732   3.714 -0.3408  4.2503 -2.5397
  644MOL0     H86916   2.922   0.781   3.884  1.3738  1.6242  0.7411
  644MOL0     H86917   2.957   0.854   3.725 -1.6051 -0.3040 -0.6644
  644MOL0     H86918   2.996   0.654   3.632  0.7742  4.3728  1.7755
  644MOL0     H86919   2.823   0.658   3.670 -1.1181  1.3892  1.4341
  644MOL0     H86920   3.031   0.478   3.796  0.8819  1.6118 -0.8015
  644MOL0     H86921   2.869   0.441   3.714 -0.1134 -0.7841  0.4759
  644MOL0     H86922   3.559   1.170   4.431 -0.5238 -4.1978  2.3941
  644MOL0     H86923   3.787   1.156   4.538  3.4198  0.6988 -0.6240
  644MOL0     H86924   4.152   1.200   4.527  1.9710  2.3890 -1.5325
  644MOL0     H86925   4.372   1.279   4.635  4.3280  1.1940 -0.4212
  644MOL0     H86926   3.677   0.820   4.411 -0.6848  0.2374 -2.6076
  644MOL0     H86927   3.442   0.888   4.318 -0.7602 -0.5397  0.6132
  644MOL0     H86928   2.866   0.687   4.538  3.5619  0.7598  0.9079
  644MOL0     H86929   2.653   0.675   4.407 -0.9363  1.5958  0.7847
  644MOL0     H86930   2.486   0.627   4.260 -1.1885  0.4512  1.6541
  644MOL0     H86931   2.477   0.798   4.284 -0.3920 -1.2260  1.9064
  644MOL0     H86932   2.419   0.673   4.025  1.0751 -0.2904  1.3696
  644MOL0     H86933   2.401   0.848   4.054  2.7090  0.4596  0.1137
  644MOL0     H86934   2.220   0.807   4.217 -0.9478 -1.0245  1.5938
  644MOL0     H86935   2.255   0.647   4.228 -1.2633  3.1163  1.5663
  644MOL0     H86936   2.047   0.669   4.075 -0.8726  1.0831 -0.6567
  644MOL0     H86937   2.183   0.589   4.009  0.8503  0.9902 -2.0687
  644MOL0     H86938   2.166   0.941   3.768  2.5612  1.8661  1.5963
  644MOL0     H86939   2.848   0.854   4.079 -0.2937 -0.2325  0.9639
  644MOL0     H86940   3.059   0.891   4.210 -0.8875  0.8706 -0.7759
  645MOL0     O86941   1.511   8.139   4.939  0.1423  0.0997 -0.2082
  645MOL0     C86942   1.594   8.088   4.868 -0.6195 -0.0809 -0.3473
  645MOL0     O86943   1.581   7.976   4.792  0.2055 -0.3890  0.1959
  645MOL0     C86944   1.464   7.917   4.753  0.4569 -0.6042  0.2099
  645MOL0     C86945   1.342   7.989   4.731 -0.0380 -0.2933 -0.4214
  645MOL0     C86946   1.232   7.920   4.676  0.4479 -0.7501  0.4702
  645MOL0     C86947   1.233   7.793   4.638 -0.6304  0.5666  1.1027
  645MOL0     O86948   1.126   7.727   4.575 -0.5407  0.2463  0.1467
  645MOL0     C86949   1.027   7.809   4.510  0.1573  0.0225  0.0528
  645MOL0     C86950   0.917   7.710   4.472  0.2040 -0.0849  0.1101
  645MOL0     C86951   0.806   7.769   4.387  0.8851  1.8565 -0.1981
  645MOL0     C86952   0.720   7.656   4.310 -0.5881  0.6199 -0.5955
  645MOL0     C86953   0.602   7.731   4.243 -0.0139 -1.3796 -0.3200
  645MOL0     C86954   0.508   7.633   4.158  0.5677  1.0838 -0.2184
  645MOL0     C86955   0.402   7.721   4.081 -0.8091 -0.0240  1.1374
  645MOL0     C86956   0.270   7.655   4.043  0.4773  0.3944  0.0147
  645MOL0     N86957   0.188   7.748   3.964 -0.0052  0.3269 -0.1250
  645MOL0     C86958   0.085   7.827   4.025  0.1886  1.0989 -0.1612
  645MOL0     C86959   0.041   7.913   3.927 -0.0989  0.6357 -0.5158
  645MOL0     C86960  -0.059   8.023   3.939 -0.1046 -0.2611 -0.3872
  645MOL0     C86961  -0.115   8.083   3.810 -0.7586  0.4064 -0.2928
  645MOL0     C86962  -0.254   8.153   3.820 -0.4474  0.1816 -0.6393
  645MOL0     C86963  -0.314   8.173   3.674 -0.1608  0.5331 -0.0878
  645MOL0     O86964  -0.428   8.268   3.670  0.6076  0.1393  0.4392
  645MOL0     C86965  -0.550   8.222   3.628 -0.3291  0.4534  0.2951
  645MOL0     C86966  -0.641   8.325   3.597 -0.1134  0.7483 -0.1028
  645MOL0     C86967  -0.772   8.310   3.548 -0.4716  0.2504 -0.0991
  645MOL0     C86968  -0.868   8.423   3.525  0.0323  0.2733  0.5726
  645MOL0     C86969  -0.813   8.175   3.522  0.2455 -0.3882  0.4704
  645MOL0     C86970  -0.952   8.144   3.468 -0.1822  0.5304  0.1347
  645MOL0     O86971  -1.044   8.171   3.557 -0.0830 -0.2567  0.0386
  645MOL0     C86972  -1.165   8.122   3.529  0.8692  0.7491 -0.3455
  645MOL0     C86973  -1.218   8.015   3.610 -0.3224 -0.8552 -0.3482
  645MOL0     C86974  -1.337   7.957   3.584 -0.1660  0.0822  0.2622
  645MOL0     C86975  -1.425   8.019   3.487  0.4757  0.1983 -0.2049
  645MOL0     O86976  -1.546   7.974   3.445  0.2055  0.4547 -0.7270
  645MOL0     C86977  -1.583   7.843   3.485  0.5434  0.3902 -0.5808
  645MOL0     C86978  -1.730   7.804   3.447  0.1464  0.8050  0.5818
  645MOL0     C86979  -1.827   7.850   3.551  0.3355  0.0607  0.2554
  645MOL0     C86980  -1.969   7.795   3.534 -0.5837  0.4090  0.1337
  645MOL0     C86981  -2.028   7.824   3.666  1.2123 -0.1657  0.1909
  645MOL0     C86982  -2.177   7.813   3.670  0.1773 -0.7118 -0.2290
  645MOL0     C86983  -2.227   7.672   3.704 -1.2747  0.0187 -0.2957
  645MOL0     C86984  -2.371   7.643   3.662 -0.3145  0.0693  0.5517
  645MOL0    Cl86985  -2.464   7.777   3.736  0.2424  0.0655  0.0587
  645MOL0     C86986  -1.384   8.139   3.429 -0.1249 -0.2385  0.5225
  645MOL0     C86987  -1.257   8.187   3.454 -1.3545  1.5267  0.4287
  645MOL0     O86988  -0.964   8.102   3.352 -0.3110  0.0173 -0.2688
  645MOL0     C86989  -0.725   8.070   3.541  0.1310  0.8281  0.2184
  645MOL0     C86990  -0.593   8.087   3.590  0.0223  0.1868  0.3179
  645MOL0     N86991   0.104   7.870   3.809 -0.6036  0.1555  0.2377
  645MOL0     N86992   0.190   7.771   3.830 -0.7507 -0.3257 -0.0154
  645MOL0     C86993   1.350   7.731   4.652  0.9257  0.1520  0.8658
  645MOL0     C86994   1.461   7.784   4.706  0.3788 -0.3421 -1.1154
  645MOL0     C86995   1.729   8.162   4.852  0.0807  0.1476 -0.2018
  645MOL0     C86996   1.745   8.294   4.887 -0.4618 -0.3759 -0.0079
  645MOL0     C86997   1.875   8.356   4.874  0.1400  0.1515 -0.0796
  645MOL0     C86998   1.987   8.290   4.823 -0.5140 -0.3399 -0.7827
  645MOL0     O86999   2.099   8.364   4.813 -0.3103  0.8930  0.4285
  645MOL0     C87000   2.210   8.311   4.742 -0.0743  0.2583  0.5875
  645MOL0     C87001   2.316   8.415   4.711  0.4668 -0.2510 -0.8007
  645MOL0     C87002   2.357   8.490   4.843 -0.3692  0.5890 -0.1413
  645MOL0     C87003   2.445   8.601   4.788  0.7038 -1.0516  0.1497
  645MOL0     C87004   2.493   8.687   4.896 -0.4653 -1.4018  0.4823
  645MOL0     C87005   2.521   8.760   4.993 -0.2636  0.8285 -0.0312
  645MOL0     C87006   1.969   8.157   4.790  0.2451  0.1439 -0.5002
  645MOL0     C87007   1.842   8.094   4.800  0.4217 -0.1475 -0.8295
  645MOL0     H87008   1.333   8.090   4.771 -0.2276  0.6351 -2.6760
  645MOL0     H87009   1.145   7.984   4.666  1.5560  1.3069  2.9278
  645MOL0     H87010   0.986   7.877   4.585  0.5375  0.6448 -0.2939
  645MOL0     H87011   1.068   7.865   4.426 -3.1960  0.0099 -1.7451
  645MOL0     H87012   0.962   7.629   4.414  0.3677 -0.6715  1.0193
  645MOL0     H87013   0.878   7.669   4.567  1.2758  0.0569  0.6284
  645MOL0     H87014   0.731   7.819   4.448  0.0629  0.9934 -0.4825
  645MOL0     H87015   0.842   7.838   4.310 -3.3366  1.7584 -2.5576
  645MOL0     H87016   0.782   7.607   4.235  2.0384  1.1700  1.0715
  645MOL0     H87017   0.676   7.577   4.372 -0.4957  1.0274 -0.0014
  645MOL0     H87018   0.541   7.788   4.313  1.2951  0.0087 -0.2589
  645MOL0     H87019   0.641   7.800   4.168  0.8935  0.3834  1.6999
  645MOL0     H87020   0.566   7.578   4.083  0.6888 -1.0797  1.3816
  645MOL0     H87021   0.449   7.559   4.213  0.8948  0.4486 -0.7035
  645MOL0     H87022   0.388   7.811   4.142 -1.4875  0.7275 -0.0978
  645MOL0     H87023   0.449   7.764   3.993  1.0363  0.2624  2.2135
  645MOL0     H87024   0.210   7.622   4.128 -1.7774 -0.6217 -1.8656
  645MOL0     H87025   0.299   7.564   3.990 -0.5818 -2.1508  3.4351
  645MOL0     H87026   0.056   7.827   4.129  2.0576  0.1181  0.4121
  645MOL0     H87027  -0.138   7.972   3.994 -0.6875 -0.9029 -1.7752
  645MOL0     H87028  -0.013   8.105   3.996  0.1570 -1.7340  1.6139
  645MOL0     H87029  -0.133   7.993   3.751  1.0439  0.1020 -0.4456
  645MOL0     H87030  -0.036   8.134   3.752 -0.0788  0.1017  0.3487
  645MOL0     H87031  -0.251   8.247   3.876 -1.1313  0.6169 -1.3050
  645MOL0     H87032  -0.327   8.085   3.865 -1.2009  0.0911 -1.9271
  645MOL0     H87033  -0.341   8.079   3.626 -0.6978  1.4779 -1.6932
  645MOL0     H87034  -0.242   8.217   3.604 -0.4211  0.2755 -0.5222
  645MOL0     H87035  -0.590   8.421   3.600  3.5116 -1.0073  0.0310
  645MOL0     H87036  -0.827   8.524   3.536 -1.7922  0.9424  1.7968
  645MOL0     H87037  -0.906   8.420   3.422  0.3869  2.3640  0.3324
  645MOL0     H87038  -0.958   8.418   3.586 -1.0345  1.4147 -0.8278
  645MOL0     H87039  -1.160   7.969   3.689 -2.5209  0.0730  1.9421
  645MOL0     H87040  -1.358   7.871   3.648  1.3419 -1.0939 -0.7346
  645MOL0     H87041  -1.515   7.762   3.456 -1.2366 -1.9467  1.3561
  645MOL0     H87042  -1.577   7.840   3.594 -0.7494 -1.3582 -0.5271
  645MOL0     H87043  -1.760   7.846   3.351 -1.6774  2.5373  1.8258
  645MOL0     H87044  -1.737   7.696   3.437  3.4174  0.5592 -0.3449
  645MOL0     H87045  -1.828   7.960   3.548  3.9936  0.1756 -0.5136
  645MOL0     H87046  -1.788   7.807   3.644  0.4472  0.9293  0.6257
  645MOL0     H87047  -2.014   7.860   3.458 -0.7073 -1.3489 -1.3625
  645MOL0     H87048  -1.967   7.688   3.513  3.5765  0.6648 -1.8126
  645MOL0     H87049  -1.999   7.926   3.695  0.4359  0.5923 -1.5549
  645MOL0     H87050  -1.985   7.757   3.741  2.0195 -0.1954 -0.2921
  645MOL0     H87051  -2.211   7.870   3.757  2.4690 -2.0087  1.6420
  645MOL0     H87052  -2.219   7.834   3.572 -0.9505 -2.1792 -0.0912
  645MOL0     H87053  -2.223   7.651   3.811  1.6738 -0.4093 -0.4064
  645MOL0     H87054  -2.157   7.599   3.662  1.2007  2.1185 -0.0029
  645MOL0     H87055  -2.411   7.545   3.690  1.5876 -1.3819 -1.4832
  645MOL0     H87056  -2.376   7.656   3.554 -3.6486  1.9664  0.7972
  645MOL0     H87057  -1.452   8.192   3.363  0.2487  0.8454  0.9798
  645MOL0     H87058  -1.245   8.282   3.403  0.0259  0.2685 -1.7739
  645MOL0     H87059  -0.756   7.968   3.518 -0.2118  0.8978  0.3515
  645MOL0     H87060  -0.539   7.996   3.615 -0.4456 -0.3053 -0.4268
  645MOL0     H87061   1.342   7.631   4.609 -1.5420  1.3796 -1.8310
  645MOL0     H87062   1.548   7.724   4.730 -0.6072 -1.4128 -0.1173
  645MOL0     H87063   1.659   8.354   4.917  2.4631  4.4721 -0.1349
  645MOL0     H87064   1.894   8.460   4.897  2.0134  0.3500 -2.2020
  645MOL0     H87065   2.265   8.248   4.813 -1.1525  0.2219  1.4120
  645MOL0     H87066   2.187   8.252   4.652  2.8742  0.0910 -0.1722
  645MOL0     H87067   2.277   8.484   4.635  1.9839 -0.1509 -1.5264
  645MOL0     H87068   2.405   8.368   4.670  0.8448 -1.6482  1.4330
  645MOL0     H87069   2.420   8.435   4.913  0.1546  4.0226  2.2891
  645MOL0     H87070   2.266   8.529   4.891 -2.3236  0.1899 -3.2305
  645MOL0     H87071   2.401   8.668   4.713  0.3530  0.1311  1.3610
  645MOL0     H87072   2.540   8.559   4.753  0.3985 -0.5217 -1.4047
  645MOL0     H87073   2.565   8.820   5.070  0.1975  1.1422 -0.5336
  645MOL0     H87074   2.057   8.104   4.753  0.7172  1.4694 -1.3414
  645MOL0     H87075   1.821   7.991   4.771 -0.3992 -0.5413  0.9871
  646MOL0     O87076   7.194   9.799   8.438 -0.4057  0.2171  0.5829
  646MOL0     C87077   7.177   9.753   8.549 -0.5577  1.0055 -0.4337
  646MOL0     O87078   7.089   9.807   8.644  0.2391  0.2557  0.7056
  646MOL0     C87079   6.992   9.874   8.593  0.3443 -0.7332  0.6977
  646MOL0     C87080   6.905   9.816   8.505  0.4855 -0.1955 -0.1869
  646MOL0     C87081   6.793   9.886   8.457  0.0545 -0.1365  0.8714
  646MOL0     C87082   6.764  10.011   8.498  0.5718 -0.1253  0.1572
  646MOL0     O87083   6.640  10.062   8.466 -0.0089  0.3285 -0.5720
  646MOL0     C87084   6.577  10.132   8.568  0.5650  0.5881 -0.4019
  646MOL0     C87085   6.429  10.154   8.530  0.9901 -0.5648  0.6772
  646MOL0     C87086   6.366  10.245   8.638 -0.3805 -0.5117  0.0421
  646MOL0     C87087   6.344  10.175   8.769  0.3264 -0.1449  0.0322
  646MOL0     C87088   6.203  10.110   8.781  0.0075  1.3220  0.3507
  646MOL0     C87089   6.184  10.038   8.911 -0.0006  0.4846  0.6334
  646MOL0     C87090   6.076   9.934   8.894 -0.3379 -0.5306 -0.8529
  646MOL0     C87091   6.084   9.835   9.007  0.5080  0.9546  0.5186
  646MOL0     N87092   6.203   9.751   8.991  0.1016  0.3890  0.3023
  646MOL0     C87093   6.226   9.653   8.898  0.1324 -0.2959 -1.0303
  646MOL0     C87094   6.337   9.596   8.942 -0.6016 -0.5732 -0.1811
  646MOL0     C87095   6.408   9.480   8.867  0.5098  0.5015 -0.5548
  646MOL0     C87096   6.415   9.356   8.956 -0.1663  0.7411  0.2102
  646MOL0     C87097   6.441   9.227   8.870  0.8463  0.3971  0.4806
  646MOL0     C87098   6.313   9.156   8.817  0.7449  0.9389  0.4362
  646MOL0     O87099   6.244   9.253   8.733 -0.2657 -0.1752 -0.6572
  646MOL0     C87100   6.145   9.219   8.652 -0.4524 -0.0464 -0.9446
  646MOL0     C87101   6.086   9.329   8.593  0.3263 -0.0844 -0.1758
  646MOL0     C87102   5.965   9.324   8.517 -0.2428  0.1939  0.1749
  646MOL0     C87103   5.913   9.448   8.457  0.8345 -0.1802 -0.0641
  646MOL0     C87104   5.915   9.195   8.485 -0.0034 -0.8494  0.1100
  646MOL0     C87105   5.791   9.171   8.402 -0.3384  0.3555 -0.8397
  646MOL0     O87106   5.742   9.040   8.410  0.0546 -0.7819 -0.5939
  646MOL0     C87107   5.611   9.030   8.369  0.3566  0.6963  1.1816
  646MOL0     C87108   5.595   8.918   8.281  0.0065 -0.3507  0.2208
  646MOL0     C87109   5.461   8.880   8.253 -0.0983 -0.2009 -0.8139
  646MOL0     C87110   5.354   8.958   8.301  0.6167  0.5188 -0.1340
  646MOL0     O87111   5.220   8.934   8.265 -0.0222  0.7259  0.2325
  646MOL0     C87112   5.188   8.793   8.262 -0.0974 -0.5393  0.2331
  646MOL0     C87113   5.050   8.779   8.210 -0.5827  0.5971 -0.1516
  646MOL0     C87114   4.932   8.838   8.295  0.6639  0.1221 -1.0308
  646MOL0     C87115   4.808   8.789   8.237  0.1184 -0.4492 -0.9761
  646MOL0     C87116   4.689   8.844   8.309  0.0297  0.2494  0.2819
  646MOL0     C87117   4.571   8.807   8.240  0.1381  0.1580 -0.7566
  646MOL0     C87118   4.436   8.857   8.304  0.1597 -0.1596  0.6928
  646MOL0     C87119   4.406   8.819   8.455  0.0452 -0.6092 -0.6228
  646MOL0    Cl87120   4.400   8.636   8.477 -0.3441  0.1621  0.0737
  646MOL0     C87121   5.375   9.068   8.378 -0.7347 -0.1115  0.8075
  646MOL0     C87122   5.500   9.099   8.417 -1.1042  0.5194  0.2978
  646MOL0     O87123   5.749   9.250   8.321  1.0072 -0.0778  0.0762
  646MOL0     C87124   5.984   9.085   8.538 -0.0408  0.2482  0.3945
  646MOL0     C87125   6.099   9.096   8.622 -1.0617 -0.2163  0.0329
  646MOL0     N87126   6.377   9.650   9.065 -0.6210 -0.3281  0.2155
  646MOL0     N87127   6.299   9.743   9.087 -0.6415  0.5626  0.4087
  646MOL0     C87128   6.853  10.073   8.585 -0.5407 -0.1189  0.4206
  646MOL0     C87129   6.969  10.010   8.632  0.5627  0.3362  0.0249
  646MOL0     C87130   7.263   9.654   8.609 -0.0899  0.1325  0.7458
  646MOL0     C87131   7.237   9.573   8.717  0.1972  1.1451 -0.0910
  646MOL0     C87132   7.329   9.473   8.758 -0.8506  0.1701  0.1923
  646MOL0     C87133   7.453   9.454   8.689 -0.1785  0.4136 -0.2058
  646MOL0     O87134   7.544   9.368   8.748  0.1982 -0.1161  0.8474
  646MOL0     C87135   7.601   9.278   8.652 -1.6008  0.1080  0.3779
  646MOL0     C87136   7.606   9.143   8.725 -0.1677 -0.2825 -0.3121
  646MOL0     C87137   7.731   9.134   8.819 -0.5120  0.1121  0.1696
  646MOL0     C87138   7.726   9.015   8.926  0.4183 -0.4573  0.7675
  646MOL0     C87139   7.856   9.004   8.993  0.3965  0.1312 -0.6344
  646MOL0     C87140   7.960   9.020   9.050  0.3122  0.3633  0.4301
  646MOL0     C87141   7.484   9.536   8.577 -0.4408 -0.8937  0.4986
  646MOL0     C87142   7.386   9.631   8.541 -0.2998  0.1450  0.2386
  646MOL0     H87143   6.920   9.713   8.475  0.0143 -0.3998  0.2767
  646MOL0     H87144   6.741   9.829   8.381  0.3489  1.2597 -0.4086
  646MOL0     H87145   6.572  10.067   8.655 -0.5266 -1.7325 -2.1101
  646MOL0     H87146   6.620  10.227   8.602  1.0279  0.7888 -1.4906
  646MOL0     H87147   6.417  10.216   8.440  3.0424  1.3916  1.6427
  646MOL0     H87148   6.376  10.059   8.528 -2.8159  1.3687  0.6038
  646MOL0     H87149   6.442  10.322   8.654  2.0401 -2.9240  0.9638
  646MOL0     H87150   6.268  10.285   8.612  0.6940  2.5408  0.3583
  646MOL0     H87151   6.421  10.101   8.791  0.1935 -0.5823 -0.9411
  646MOL0     H87152   6.341  10.260   8.838 -0.7263  1.5675 -1.9999
  646MOL0     H87153   6.121  10.182   8.778 -1.2331  0.0547  2.0349
  646MOL0     H87154   6.197  10.038   8.699 -2.7171 -0.6169  2.0727
  646MOL0     H87155   6.280   9.994   8.936  1.3739  0.5053 -3.7453
  646MOL0     H87156   6.156  10.110   8.988 -0.0106  0.4316  0.6788
  646MOL0     H87157   5.986   9.996   8.902  1.8300  2.8424 -0.5718
  646MOL0     H87158   6.070   9.879   8.799 -1.0747 -1.7059 -0.1497
  646MOL0     H87159   5.992   9.776   9.013  1.0785 -0.6391 -3.4170
  646MOL0     H87160   6.075   9.886   9.103  1.0844  0.2083  0.9746
  646MOL0     H87161   6.163   9.625   8.815 -1.1285 -0.9504  0.1085
  646MOL0     H87162   6.346   9.466   8.779  2.1101 -2.5173 -1.3297
  646MOL0     H87163   6.512   9.508   8.846  0.6970 -1.4084 -2.4571
  646MOL0     H87164   6.327   9.354   9.021  0.1705  0.2389  0.6502
  646MOL0     H87165   6.496   9.379   9.025  0.1030  0.3239  0.0325
  646MOL0     H87166   6.499   9.147   8.917  0.7975 -0.2671 -0.5559
  646MOL0     H87167   6.511   9.254   8.791 -0.3292 -1.2941 -1.2355
  646MOL0     H87168   6.260   9.134   8.911  0.9134 -3.4439 -0.2799
  646MOL0     H87169   6.347   9.064   8.770  2.3677  0.4305  2.4410
  646MOL0     H87170   6.134   9.425   8.610  0.3974 -0.1597  0.0572
  646MOL0     H87171   5.956   9.532   8.512 -0.6203 -0.0378  0.9375
  646MOL0     H87172   5.946   9.463   8.354  1.3657 -0.0003  0.1272
  646MOL0     H87173   5.803   9.450   8.457  0.8229  2.2510 -1.5038
  646MOL0     H87174   5.664   8.836   8.266 -0.9414 -0.8107 -2.0676
  646MOL0     H87175   5.439   8.786   8.205 -1.6887 -2.6807  4.1608
  646MOL0     H87176   5.259   8.742   8.198  1.8054  0.5684  1.3705
  646MOL0     H87177   5.206   8.750   8.361 -2.5867  0.4607  1.2082
  646MOL0     H87178   5.040   8.815   8.107 -1.3329 -0.3843 -0.4390
  646MOL0     H87179   5.033   8.671   8.215  0.2311  0.4490 -0.4646
  646MOL0     H87180   4.935   8.946   8.278  1.5274  0.3607  0.4074
  646MOL0     H87181   4.954   8.808   8.398  0.7152  0.3252 -0.9818
  646MOL0     H87182   4.820   8.816   8.132  3.5747  0.4703 -0.4917
  646MOL0     H87183   4.814   8.680   8.239  1.7227 -0.4079 -1.8024
  646MOL0     H87184   4.686   8.953   8.313 -0.5926  0.2053  1.2343
  646MOL0     H87185   4.694   8.810   8.413  1.3576  2.5887  1.0577
  646MOL0     H87186   4.572   8.839   8.136 -1.0711 -0.8065 -1.0830
  646MOL0     H87187   4.561   8.698   8.245 -2.7303  0.2866 -1.6662
  646MOL0     H87188   4.348   8.824   8.247 -0.8191  1.8868  0.9290
  646MOL0     H87189   4.428   8.966   8.294  0.3264  0.0684  2.7366
  646MOL0     H87190   4.307   8.863   8.471  0.6745  0.7096 -0.1876
  646MOL0     H87191   4.465   8.869   8.532  0.6410 -3.1719  0.7018
  646MOL0     H87192   5.283   9.121   8.401 -0.1751  1.9722 -1.3986
  646MOL0     H87193   5.524   9.182   8.483  1.6756  3.3910 -3.7961
  646MOL0     H87194   5.949   8.986   8.513  0.1780  0.0854  0.7146
  646MOL0     H87195   6.155   9.007   8.649  1.4524  1.5651  1.1615
  646MOL0     H87196   6.826  10.168   8.627 -1.3465 -0.3321  0.3967
  646MOL0     H87197   7.034  10.076   8.689  2.1425 -0.1620 -1.1227
  646MOL0     H87198   7.147   9.602   8.770  0.4121  2.0907 -0.2140
  646MOL0     H87199   7.312   9.426   8.855 -1.8255  0.0952 -0.0101
  646MOL0     H87200   7.544   9.260   8.560  0.1650 -0.3067 -0.6883
  646MOL0     H87201   7.698   9.314   8.617 -2.0749  1.0353 -0.0176
  646MOL0     H87202   7.598   9.057   8.658 -0.5615 -1.9682  1.7977
  646MOL0     H87203   7.517   9.140   8.789  0.8609 -1.4911  1.1421
  646MOL0     H87204   7.738   9.230   8.871  1.4911 -0.1445  0.4608
  646MOL0     H87205   7.813   9.110   8.751 -0.9972 -0.5408 -0.2017
  646MOL0     H87206   7.695   8.922   8.878 -1.0219 -0.7722  2.1886
  646MOL0     H87207   7.643   9.029   8.996 -1.1277 -0.3160 -1.0354
  646MOL0     H87208   8.050   9.041   9.105  0.9017  2.1648 -1.1493
  646MOL0     H87209   7.576   9.518   8.521 -0.8829  1.3407 -1.1228
  646MOL0     H87210   7.412   9.690   8.453  2.1540 -2.6920 -1.1023
  647MOL0     O87211   5.567   6.853   9.503  0.3095  0.6119  0.5234
  647MOL0     C87212   5.619   6.862   9.609 -0.3306  0.8331 -0.9308
  647MOL0     O87213   5.576   6.807   9.729  0.3932 -0.4784 -0.3412
  647MOL0     C87214   5.448   6.768   9.734 -0.3573  0.5563 -0.7713
  647MOL0     C87215   5.440   6.634   9.782  0.3950  0.5968  0.1742
  647MOL0     C87216   5.318   6.577   9.817 -0.9529  0.4078 -0.6097
  647MOL0     C87217   5.201   6.663   9.796 -0.3486 -0.9020 -0.4729
  647MOL0     O87218   5.079   6.612   9.827 -0.5443 -0.9620 -0.1773
  647MOL0     C87219   5.071   6.548   9.955 -0.7292  0.1834 -0.1215
  647MOL0     C87220   4.930   6.508   9.984  0.5608 -0.2024  0.2332
  647MOL0     C87221   4.921   6.436  10.123  0.0851  0.0908  0.7297
  647MOL0     C87222   4.773   6.392  10.134  0.6670  0.7483 -0.5844
  647MOL0     C87223   4.732   6.314  10.258 -0.0089  0.1476 -0.0629
  647MOL0     C87224   4.594   6.248  10.238 -0.7668  0.2332  0.6917
  647MOL0     C87225   4.477   6.351  10.246 -0.1479 -0.5134  0.5333
  647MOL0     C87226   4.345   6.281  10.281  0.1892 -0.2154  0.2740
  647MOL0     N87227   4.235   6.358  10.322  0.4010 -1.0506  0.5430
  647MOL0     C87228   4.126   6.398  10.250  0.5174  0.0533 -0.2209
  647MOL0     C87229   4.021   6.422  10.337 -0.0927 -0.7459  0.0514
  647MOL0     C87230   3.884   6.477  10.293 -0.6961 -0.1986 -0.3566
  647MOL0     C87231   3.804   6.363  10.233  0.1124 -0.0820 -0.4012
  647MOL0     C87232   3.786   6.252  10.337 -1.1069  0.5519 -0.2470
  647MOL0     C87233   3.692   6.145  10.284 -0.4386 -0.1697 -0.7577
  647MOL0     O87234   3.562   6.207  10.267 -0.8173 -0.0194  0.3380
  647MOL0     C87235   3.454   6.126  10.293 -0.2527 -0.3721 -0.1731
  647MOL0     C87236   3.348   6.200  10.347 -0.7960 -0.3248  0.3296
  647MOL0     C87237   3.227   6.135  10.377  0.5228 -0.3483 -0.3837
  647MOL0     C87238   3.110   6.220  10.437  0.3807 -0.3678  0.1792
  647MOL0     C87239   3.205   5.998  10.332 -0.3688  0.0795  0.4433
  647MOL0     C87240   3.076   5.929  10.334  0.5757 -0.1421 -0.8228
  647MOL0     O87241   2.965   6.005  10.323 -0.0411 -0.4684  0.0053
  647MOL0     C87242   2.847   5.953  10.362  0.9767  0.5439 -0.4911
  647MOL0     C87243   2.758   5.900  10.270 -0.5864  0.4403  0.4975
  647MOL0     C87244   2.640   5.836  10.315  0.7368  0.2263 -0.0833
  647MOL0     C87245   2.607   5.824  10.449  0.3204  0.0345 -0.6400
  647MOL0     O87246   2.492   5.753  10.476 -0.4208  0.1457 -0.7285
  647MOL0     C87247   2.412   5.810  10.577  0.2356 -0.1250 -0.5312
  647MOL0     C87248   2.276   5.757  10.552  0.4939  0.7733 -0.6039
  647MOL0     C87249   2.163   5.839  10.616  0.4828 -0.0899 -0.3736
  647MOL0     C87250   2.027   5.769  10.597 -0.1503 -0.8773  0.2097
  647MOL0     C87251   1.909   5.861  10.619  0.1340 -0.3569 -0.1053
  647MOL0     C87252   1.772   5.805  10.581  0.1959  0.0640 -0.4285
  647MOL0     C87253   1.688   5.740  10.694 -0.4823 -0.4974 -0.1715
  647MOL0     C87254   1.567   5.654  10.634 -0.0147 -0.0052  1.2664
  647MOL0    Cl87255   1.496   5.564  10.786 -0.0051 -0.4288  0.3705
  647MOL0     C87256   2.698   5.879  10.537  0.3014  0.0740 -0.1549
  647MOL0     C87257   2.815   5.938  10.499 -0.3953 -0.0058 -0.0499
  647MOL0     O87258   3.076   5.802  10.348 -0.8704  0.2949  0.4137
  647MOL0     C87259   3.320   5.926  10.285 -0.1302 -0.6814 -0.2512
  647MOL0     C87260   3.432   5.994  10.255  0.5053  0.1869  0.5150
  647MOL0     N87261   4.080   6.391  10.459  0.5176 -0.3363 -0.4245
  647MOL0     N87262   4.206   6.351  10.449  0.9372 -0.5143  0.6745
  647MOL0     C87263   5.207   6.780   9.726  0.3744 -1.4173 -0.8116
  647MOL0     C87264   5.333   6.838   9.702 -0.8409 -0.1397 -0.7338
  647MOL0     C87265   5.754   6.919   9.610  0.6708  0.5194 -1.2488
  647MOL0     C87266   5.855   6.856   9.688  0.0059 -0.1430 -0.2455
  647MOL0     C87267   5.984   6.908   9.684 -0.2836 -0.1965  0.2516
  647MOL0     C87268   6.009   7.032   9.633  0.1416 -0.5778  0.5407
  647MOL0     O87269   6.132   7.083   9.630 -0.3423 -0.5218  0.9082
  647MOL0     C87270   6.182   7.220   9.578 -0.2030  0.6703 -0.2580
  647MOL0     C87271   6.286   7.285   9.684  0.8236 -0.0108  0.0024
  647MOL0     C87272   6.370   7.410   9.626 -0.2111  0.9121 -0.5321
  647MOL0     C87273   6.512   7.413   9.681 -0.7581  0.3740  0.4833
  647MOL0     C87274   6.586   7.543   9.645  0.7425 -0.8075 -0.1773
  647MOL0     C87275   6.641   7.647   9.626  0.4216  0.0260 -0.0410
  647MOL0     C87276   5.902   7.089   9.557  0.0084  0.0759 -0.0565
  647MOL0     C87277   5.773   7.036   9.546  0.1083 -0.3951 -0.2146
  647MOL0     H87278   5.532   6.579   9.801  0.1355 -0.3118 -1.0797
  647MOL0     H87279   5.312   6.479   9.863  2.2097  1.7065  3.2046
  647MOL0     H87280   5.135   6.461   9.966 -0.8561  0.2356  1.1970
  647MOL0     H87281   5.105   6.616  10.035  1.9150  1.1924 -1.9739
  647MOL0     H87282   4.867   6.597   9.978  0.5555 -0.3023 -2.7378
  647MOL0     H87283   4.893   6.451   9.897 -0.8492  0.7408  0.1810
  647MOL0     H87284   4.982   6.346  10.127  0.9103  0.6517  0.9907
  647MOL0     H87285   4.943   6.493  10.214  0.0467 -0.1718  0.9053
  647MOL0     H87286   4.715   6.485  10.123  0.3736  0.9849  2.3532
  647MOL0     H87287   4.754   6.327  10.048 -3.9991 -0.3955  1.0269
  647MOL0     H87288   4.810   6.239  10.273 -0.6476 -0.3594  0.8636
  647MOL0     H87289   4.733   6.391  10.335  6.2990  2.2631 -1.6495
  647MOL0     H87290   4.593   6.193  10.144  2.7816  0.7417  0.2256
  647MOL0     H87291   4.583   6.192  10.332 -0.6951 -1.1263 -0.0907
  647MOL0     H87292   4.497   6.425  10.324  2.6927 -0.8590  0.2451
  647MOL0     H87293   4.449   6.406  10.155 -1.0846  0.9567  1.6480
  647MOL0     H87294   4.378   6.218  10.364  0.8578  1.0213  0.9709
  647MOL0     H87295   4.319   6.217  10.196 -1.7151  0.7044  0.1289
  647MOL0     H87296   4.130   6.409  10.142  0.0161 -0.2911 -0.2779
  647MOL0     H87297   3.826   6.520  10.375 -2.2641 -4.2194  0.9027
  647MOL0     H87298   3.911   6.552  10.218 -0.1278  0.0617  0.0941
  647MOL0     H87299   3.857   6.315  10.150  1.1589 -1.7413  1.1601
  647MOL0     H87300   3.712   6.410  10.199 -0.1012 -0.3984 -0.2692
  647MOL0     H87301   3.753   6.295  10.432  1.1481 -1.3164  1.4960
  647MOL0     H87302   3.882   6.200  10.343 -2.1963 -1.9143 -2.2101
  647MOL0     H87303   3.683   6.063  10.357 -1.5929 -0.0637 -0.7619
  647MOL0     H87304   3.738   6.104  10.193 -0.8950  1.5134 -1.7818
  647MOL0     H87305   3.372   6.299  10.383  1.8229 -0.5668 -0.5428
  647MOL0     H87306   3.032   6.234  10.361  3.0333 -1.1511 -2.8918
  647MOL0     H87307   3.062   6.161  10.516 -1.3091 -3.3581 -2.7734
  647MOL0     H87308   3.150   6.316  10.469  2.5648 -1.0314 -0.3807
  647MOL0     H87309   2.794   5.900  10.167  0.3767 -1.3727  0.7957
  647MOL0     H87310   2.575   5.776  10.251  0.6881 -0.4753  0.6165
  647MOL0     H87311   2.458   5.785  10.673 -2.3802  0.6187  0.9901
  647MOL0     H87312   2.398   5.918  10.568  0.3023 -0.1970 -1.7249
  647MOL0     H87313   2.261   5.755  10.443 -0.8809 -0.7137 -0.4131
  647MOL0     H87314   2.262   5.653  10.582 -0.5051  0.3777 -2.3065
  647MOL0     H87315   2.164   5.937  10.567  3.1711 -0.9638 -2.3129
  647MOL0     H87316   2.184   5.843  10.723  4.8056 -2.5527 -0.8991
  647MOL0     H87317   2.030   5.736  10.492  3.8700 -1.3367  0.2974
  647MOL0     H87318   2.018   5.685  10.666 -0.7044  0.0947  1.3547
  647MOL0     H87319   1.928   5.958  10.571  1.9471 -0.4960  0.2588
  647MOL0     H87320   1.904   5.879  10.727 -3.1216  0.3954 -0.2845
  647MOL0     H87321   1.715   5.891  10.543 -0.4649  0.9016  2.2163
  647MOL0     H87322   1.794   5.730  10.505  3.7844  0.5595 -0.0173
  647MOL0     H87323   1.643   5.805  10.770 -0.5301 -0.5861 -0.1240
  647MOL0     H87324   1.755   5.678  10.753  0.0757 -0.1966 -0.4803
  647MOL0     H87325   1.589   5.586  10.552 -1.0417 -1.1707  1.9397
  647MOL0     H87326   1.483   5.719  10.609  0.9305  1.0405  0.6840
  647MOL0     H87327   2.669   5.867  10.641 -0.2350  2.0795 -0.0253
  647MOL0     H87328   2.888   5.962  10.576 -0.9497 -1.6333  1.0518
  647MOL0     H87329   3.300   5.829  10.241 -0.3239  1.2055 -4.9217
  647MOL0     H87330   3.504   5.937  10.197  0.1601 -0.4804  0.7310
  647MOL0     H87331   5.109   6.821   9.706  0.3946 -0.2773  1.2029
  647MOL0     H87332   5.346   6.938   9.663 -1.9672 -0.5142 -2.1494
  647MOL0     H87333   5.840   6.763   9.742 -1.1390  1.9352  3.3920
  647MOL0     H87334   6.070   6.857   9.727  0.2946  2.3686  2.4177
  647MOL0     H87335   6.233   7.208   9.482  0.4983  0.5228  0.1249
  647MOL0     H87336   6.115   7.304   9.557  1.4549  2.6927  2.1090
  647MOL0     H87337   6.353   7.199   9.691  1.7512  0.5466 -1.6927
  647MOL0     H87338   6.238   7.314   9.778  1.9398 -1.5679  1.0951
  647MOL0     H87339   6.335   7.508   9.661  0.9301  1.1642 -0.0643
  647MOL0     H87340   6.366   7.406   9.517 -0.0769  1.2483 -0.5530
  647MOL0     H87341   6.570   7.335   9.630 -1.8932  0.6311 -1.2986
  647MOL0     H87342   6.517   7.404   9.789  0.7346 -0.2674  0.3920
  647MOL0     H87343   6.698   7.738   9.617  0.1733  0.3751  1.5872
  647MOL0     H87344   5.919   7.183   9.506 -0.7274  0.0906 -0.2874
  647MOL0     H87345   5.690   7.093   9.504 -0.1277  0.5255  1.3973
  648MOL0     O87346   2.480   9.436   8.801  0.0110 -0.0538  0.3534
  648MOL0     C87347   2.394   9.353   8.832 -1.0303 -0.7562 -0.9570
  648MOL0     O87348   2.375   9.225   8.794  0.6994 -0.3925  0.0842
  648MOL0     C87349   2.461   9.141   8.722 -0.3101 -0.0535 -0.3960
  648MOL0     C87350   2.409   9.028   8.659 -0.3417 -0.4426 -0.2400
  648MOL0     C87351   2.491   8.961   8.561 -0.3052 -0.0463 -0.3292
  648MOL0     C87352   2.629   8.992   8.545 -0.2384 -0.2996  0.3192
  648MOL0     O87353   2.699   8.921   8.450 -1.0000 -0.5952  0.3654
  648MOL0     C87354   2.841   8.893   8.467  0.3880  0.0941  0.8284
  648MOL0     C87355   2.891   8.838   8.334 -1.1344 -0.5741 -1.1158
  648MOL0     C87356   3.032   8.777   8.339  1.1833 -1.4894  0.2599
  648MOL0     C87357   3.063   8.681   8.222  0.2981 -0.5340  0.0764
  648MOL0     C87358   3.206   8.634   8.228 -0.1523  0.5739  0.1304
  648MOL0     C87359   3.252   8.559   8.101  0.1857  0.5675  0.3397
  648MOL0     C87360   3.405   8.575   8.077  0.3662 -0.4979  0.6128
  648MOL0     C87361   3.513   8.491   8.143  0.3283  0.1706 -0.0813
  648MOL0     N87362   3.486   8.481   8.284 -0.2112  0.1098  0.7068
  648MOL0     C87363   3.399   8.384   8.331 -0.5684  0.0012  0.0868
  648MOL0     C87364   3.423   8.399   8.464  1.0312  0.7580  0.5144
  648MOL0     C87365   3.361   8.309   8.569 -0.5220 -0.0428  0.9251
  648MOL0     C87366   3.205   8.297   8.557  0.2481  0.5227 -1.4821
  648MOL0     C87367   3.130   8.431   8.595  0.4849  0.8604  0.8407
  648MOL0     C87368   2.991   8.428   8.536 -0.3843 -1.1061 -0.1656
  648MOL0     O87369   2.911   8.531   8.593 -0.9993 -0.4396 -0.1719
  648MOL0     C87370   2.790   8.550   8.536  0.2846  0.2227 -0.0685
  648MOL0     C87371   2.747   8.499   8.410 -0.1539 -1.2401  0.1631
  648MOL0     C87372   2.628   8.550   8.353  0.7017 -0.1441 -1.0280
  648MOL0     C87373   2.616   8.538   8.202 -0.5675  0.4396 -1.0171
  648MOL0     C87374   2.532   8.615   8.433  0.2103 -0.1801 -0.9130
  648MOL0     C87375   2.394   8.656   8.387  0.1081 -0.1094  1.1266
  648MOL0     O87376   2.295   8.667   8.488 -0.6373  0.1382  0.6195
  648MOL0     C87377   2.175   8.725   8.454  0.0850  0.2209 -0.3246
  648MOL0     C87378   2.055   8.664   8.468 -1.2696 -0.2316 -0.8083
  648MOL0     C87379   1.932   8.727   8.459 -0.1445 -0.1575  0.5025
  648MOL0     C87380   1.927   8.861   8.412  0.1826 -0.4884 -0.8095
  648MOL0     O87381   1.811   8.926   8.397 -0.4860 -0.2217  0.8609
  648MOL0     C87382   1.696   8.856   8.345 -1.7078 -0.2784  0.3115
  648MOL0     C87383   1.574   8.954   8.369  0.0281 -1.2129  0.2268
  648MOL0     C87384   1.436   8.893   8.322 -0.3252  0.2008 -1.2076
  648MOL0     C87385   1.448   8.836   8.170 -0.3143 -0.3472 -0.9675
  648MOL0     C87386   1.304   8.802   8.112  0.3462 -0.0682 -0.4616
  648MOL0     C87387   1.233   8.691   8.201 -0.3126 -0.3505  0.2936
  648MOL0     C87388   1.099   8.641   8.141 -0.0144  0.0029 -0.3268
  648MOL0     C87389   0.998   8.751   8.117 -0.3999 -0.0224 -0.2755
  648MOL0    Cl87390   0.838   8.681   8.098  0.4173 -0.4718 -0.1055
  648MOL0     C87391   2.055   8.925   8.394 -0.7356 -0.9925  0.5912
  648MOL0     C87392   2.177   8.862   8.423 -0.2387  0.6755  1.3953
  648MOL0     O87393   2.370   8.669   8.265 -0.4488 -0.3770 -0.1688
  648MOL0     C87394   2.568   8.637   8.572 -0.3530  0.3040 -0.1007
  648MOL0     C87395   2.700   8.621   8.615  0.1058  0.1002 -0.2116
  648MOL0     N87396   3.504   8.509   8.489 -0.6504  0.0450 -0.3101
  648MOL0     N87397   3.542   8.551   8.374 -0.2085 -0.3951 -0.7599
  648MOL0     C87398   2.678   9.109   8.606  0.3486  0.1050 -0.3061
  648MOL0     C87399   2.594   9.177   8.683 -0.5090 -0.5289  0.1822
  648MOL0     C87400   2.296   9.418   8.919 -0.2940 -0.6459 -0.3871
  648MOL0     C87401   2.235   9.533   8.893 -0.1139  0.0815  0.7226
  648MOL0     C87402   2.164   9.614   8.979 -0.3220 -0.1478  0.1771
  648MOL0     C87403   2.150   9.569   9.110  0.1888 -0.5307  0.6828
  648MOL0     O87404   2.086   9.655   9.192 -0.3861  0.7122 -0.1316
  648MOL0     C87405   2.053   9.602   9.329 -0.1942 -0.8859 -0.3502
  648MOL0     C87406   1.961   9.687   9.424  0.5667 -0.5454  0.1047
  648MOL0     C87407   2.024   9.811   9.483 -0.1007 -0.5451 -0.2155
  648MOL0     C87408   1.933   9.880   9.581  0.4294  0.3684 -0.5675
  648MOL0     C87409   1.822   9.952   9.528 -0.0222  0.2139  0.6405
  648MOL0     C87410   1.724  10.005   9.482 -0.7892 -0.7128  0.1978
  648MOL0     C87411   2.221   9.453   9.150 -0.0001  0.9945 -0.7253
  648MOL0     C87412   2.289   9.376   9.051  0.4970  0.4185 -0.0006
  648MOL0     H87413   2.301   9.015   8.658 -0.5466  0.9566 -2.1426
  648MOL0     H87414   2.454   8.876   8.504  0.5749 -0.9857  0.4608
  648MOL0     H87415   2.898   8.986   8.474  1.5314 -0.3136 -1.9930
  648MOL0     H87416   2.846   8.829   8.556  1.4318 -3.1644 -1.4344
  648MOL0     H87417   2.821   8.764   8.295 -0.3635 -0.8059 -2.1242
  648MOL0     H87418   2.896   8.929   8.273 -1.7604  2.2812  2.7159
  648MOL0     H87419   3.108   8.855   8.348 -0.2721  0.1647 -1.0839
  648MOL0     H87420   3.043   8.720   8.432  1.1315 -1.4124  0.3142
  648MOL0     H87421   2.983   8.607   8.219 -1.7228  1.5657 -1.8932
  648MOL0     H87422   3.062   8.735   8.127  2.6349 -0.2362  0.1598
  648MOL0     H87423   3.279   8.715   8.241 -0.3794  0.8475 -0.2889
  648MOL0     H87424   3.221   8.573   8.318 -2.2009 -0.0036  0.1259
  648MOL0     H87425   3.218   8.457   8.116  0.2625  0.5898  0.6714
  648MOL0     H87426   3.211   8.590   8.005  1.6479  0.0426 -0.4922
  648MOL0     H87427   3.425   8.564   7.970  3.8982  2.8066  0.7142
  648MOL0     H87428   3.435   8.680   8.088  0.5001 -0.4557 -0.1110
  648MOL0     H87429   3.606   8.549   8.132 -1.2839  3.1617  0.8321
  648MOL0     H87430   3.541   8.399   8.091  1.5126  1.1173 -1.2006
  648MOL0     H87431   3.332   8.327   8.269 -0.9591  2.5139 -1.9780
  648MOL0     H87432   3.405   8.209   8.555  1.8046  0.8041  1.6420
  648MOL0     H87433   3.414   8.339   8.660 -0.5236  5.8937 -0.6792
  648MOL0     H87434   3.164   8.218   8.620 -0.3812  1.8762 -0.1156
  648MOL0     H87435   3.188   8.279   8.451 -0.4144  0.2682 -1.3326
  648MOL0     H87436   3.180   8.524   8.569 -0.3239  0.8948 -0.6750
  648MOL0     H87437   3.124   8.440   8.704 -2.1190  0.2006  0.8123
  648MOL0     H87438   2.940   8.332   8.543 -0.1698 -1.1931  0.1986
  648MOL0     H87439   2.994   8.432   8.427 -1.6228  1.0308 -0.1905
  648MOL0     H87440   2.807   8.434   8.347  1.1771  1.6475 -1.7469
  648MOL0     H87441   2.701   8.496   8.148 -0.0535  0.6865 -0.4078
  648MOL0     H87442   2.535   8.469   8.178  2.8460 -3.5085 -2.2330
  648MOL0     H87443   2.593   8.639   8.165 -2.6639 -0.4961 -2.5046
  648MOL0     H87444   2.060   8.567   8.516  0.1110 -0.2361 -0.9053
  648MOL0     H87445   1.845   8.664   8.479  0.1698 -1.1816 -1.1517
  648MOL0     H87446   1.708   8.848   8.237  3.0071 -1.6866  0.7358
  648MOL0     H87447   1.684   8.764   8.402  1.9328 -0.4307  1.0242
  648MOL0     H87448   1.573   8.988   8.473 -0.4393  0.6997 -0.3576
  648MOL0     H87449   1.592   9.051   8.321  1.5201 -0.3864  2.2896
  648MOL0     H87450   1.361   8.972   8.332  1.4925  1.9390 -0.5455
  648MOL0     H87451   1.400   8.811   8.384  3.1426 -0.9375 -0.5010
  648MOL0     H87452   1.504   8.907   8.108 -0.1776  1.0618  0.7013
  648MOL0     H87453   1.504   8.742   8.160 -0.9424 -0.6590 -1.5849
  648MOL0     H87454   1.316   8.765   8.009 -0.6217  0.7638 -0.8847
  648MOL0     H87455   1.251   8.897   8.109 -1.6232 -1.0687  0.6108
  648MOL0     H87456   1.308   8.614   8.217  0.8259  0.7804  0.5814
  648MOL0     H87457   1.203   8.723   8.301  0.2127  0.1070  0.3103
  648MOL0     H87458   1.055   8.568   8.210 -0.8079  1.1919  0.4762
  648MOL0     H87459   1.122   8.587   8.048 -2.6481 -0.9156 -0.5475
  648MOL0     H87460   1.033   8.808   8.031 -3.0559  0.4997 -1.1103
  648MOL0     H87461   0.996   8.811   8.208  2.6308 -0.3819  0.1156
  648MOL0     H87462   2.058   9.021   8.344 -1.5882 -0.9721  0.5579
  648MOL0     H87463   2.270   8.917   8.419 -1.0895  2.3033  2.9136
  648MOL0     H87464   2.502   8.687   8.642 -0.6210 -1.6006  1.0420
  648MOL0     H87465   2.743   8.664   8.705  2.7031 -1.4199 -0.6254
  648MOL0     H87466   2.777   9.139   8.574  1.2869  1.1893  3.2125
  648MOL0     H87467   2.630   9.273   8.719 -0.7354 -0.4511  0.2024
  648MOL0     H87468   2.235   9.569   8.790 -0.6083  0.3948  0.8275
  648MOL0     H87469   2.103   9.696   8.941 -2.8263 -2.6276 -1.6244
  648MOL0     H87470   2.009   9.502   9.322 -0.9705 -0.5612 -0.2923
  648MOL0     H87471   2.151   9.597   9.378  0.2548  1.9387 -0.8201
  648MOL0     H87472   1.910   9.625   9.498 -0.3726  0.3942  0.2758
  648MOL0     H87473   1.882   9.722   9.356  0.5243 -0.4526  0.2019
  648MOL0     H87474   2.021   9.879   9.397 -0.3111  0.2260  0.3941
  648MOL0     H87475   2.123   9.794   9.525 -0.0888  1.7946  0.8852
  648MOL0     H87476   2.004   9.952   9.624 -3.1435  1.6273  4.0767
  648MOL0     H87477   1.897   9.820   9.665  0.8073  0.7290 -0.1399
  648MOL0     H87478   1.635  10.058   9.454  1.0836  2.7493  0.2630
  648MOL0     H87479   2.247   9.430   9.253  0.5524 -0.0130 -1.0715
  648MOL0     H87480   2.343   9.285   9.076  0.8217  0.2349 -1.3192
  649MOL0     O87481   7.964   8.661   0.583  0.2640  0.0560  0.1197
  649MOL0     C87482   8.035   8.579   0.641  0.4237  0.0607  0.3487
  649MOL0     O87483   7.997   8.467   0.704  0.8161  0.7645  0.1008
  649MOL0     C87484   7.860   8.440   0.714 -0.2113 -0.4450 -0.7893
  649MOL0     C87485   7.772   8.462   0.610  1.2385 -0.5987  0.4913
  649MOL0     C87486   7.642   8.426   0.623 -0.0133  0.0131 -0.1270
  649MOL0     C87487   7.592   8.367   0.742 -0.9542  0.8607  0.0338
  649MOL0     O87488   7.458   8.330   0.743 -0.0593  0.4219 -0.1458
  649MOL0     C87489   7.423   8.216   0.820  0.7684  0.8742  0.4752
  649MOL0     C87490   7.282   8.188   0.800  0.7875 -1.0632 -0.4204
  649MOL0     C87491   7.237   8.054   0.877  0.5586 -1.0885  0.6939
  649MOL0     C87492   7.094   7.995   0.812 -1.1252 -1.2070  0.3699
  649MOL0     C87493   7.012   7.893   0.889 -0.2840 -0.3493 -0.4195
  649MOL0     C87494   6.913   7.941   1.003  0.1500 -0.0659 -0.0638
  649MOL0     C87495   6.833   8.072   0.987  0.0145  0.5732 -0.1167
  649MOL0     C87496   6.725   8.090   1.103  0.8944  0.1193 -0.6415
  649MOL0     N87497   6.685   8.235   1.105 -0.6108 -0.2381  0.0573
  649MOL0     C87498   6.615   8.308   1.011 -0.4156  0.1556  0.9264
  649MOL0     C87499   6.588   8.422   1.067 -0.5521 -0.6325 -0.2086
  649MOL0     C87500   6.521   8.545   1.018  1.1157 -0.1565  0.5851
  649MOL0     C87501   6.369   8.524   0.971 -0.4529  0.2025  0.4636
  649MOL0     C87502   6.315   8.665   0.955  0.6059  0.2408 -0.7771
  649MOL0     C87503   6.170   8.666   0.896  0.6644 -0.1058  0.2062
  649MOL0     O87504   6.089   8.596   0.985  0.0371  0.4428  0.5598
  649MOL0     C87505   5.952   8.602   0.956  0.4177 -0.3942  0.2587
  649MOL0     C87506   5.885   8.661   0.843  1.0151  0.1989 -1.5500
  649MOL0     C87507   5.749   8.648   0.823 -0.4491  0.1929 -0.2698
  649MOL0     C87508   5.699   8.719   0.704  0.1130 -0.3171 -0.2817
  649MOL0     C87509   5.675   8.570   0.905  0.0985  0.8158 -0.1560
  649MOL0     C87510   5.528   8.538   0.895 -0.3976 -0.5543 -0.3674
  649MOL0     O87511   5.476   8.437   0.968  0.8331 -0.1556 -0.9103
  649MOL0     C87512   5.342   8.433   0.990 -0.7138 -0.2718  0.4387
  649MOL0     C87513   5.292   8.308   1.022  0.8752  0.0429  0.6760
  649MOL0     C87514   5.147   8.290   1.024  0.1750  0.2525  1.3146
  649MOL0     C87515   5.061   8.392   1.008  0.9261 -0.2834 -0.1485
  649MOL0     O87516   4.929   8.361   1.023 -0.7821  0.5615  0.5364
  649MOL0     C87517   4.843   8.473   1.027 -0.6043 -0.5904  0.7599
  649MOL0     C87518   4.698   8.420   1.012 -0.0642 -0.0368  0.0984
  649MOL0     C87519   4.584   8.526   1.008 -0.3348  0.6207 -0.3897
  649MOL0     C87520   4.544   8.568   0.869 -0.2580 -0.0731 -0.1669
  649MOL0     C87521   4.445   8.691   0.879  0.5708  0.1760 -0.2648
  649MOL0     C87522   4.304   8.662   0.935 -0.4903  0.2516  0.9167
  649MOL0     C87523   4.226   8.551   0.862  0.6942  0.1626  0.1428
  649MOL0     C87524   4.071   8.561   0.844  0.3850 -0.3230  0.0821
  649MOL0    Cl87525   3.979   8.498   0.985  0.1544 -0.8168 -0.1672
  649MOL0     C87526   5.114   8.519   0.996 -0.6931 -0.8277 -0.6124
  649MOL0     C87527   5.253   8.541   0.978  0.2288  0.8656 -0.7115
  649MOL0     O87528   5.468   8.595   0.813  0.0869 -0.2362  0.6963
  649MOL0     C87529   5.738   8.504   1.008 -0.9812 -0.9311 -0.0157
  649MOL0     C87530   5.875   8.516   1.032  0.7356  0.0263  1.0606
  649MOL0     N87531   6.660   8.425   1.191 -0.0052  0.4612  0.3425
  649MOL0     N87532   6.718   8.314   1.207 -0.2768 -0.3121  0.6019
  649MOL0     C87533   7.679   8.351   0.850 -0.1950 -0.7938 -0.5762
  649MOL0     C87534   7.814   8.396   0.835  0.3946 -0.8756  0.3967
  649MOL0     C87535   8.180   8.614   0.638  0.3101  0.2994 -0.0613
  649MOL0     C87536   8.228   8.741   0.596 -0.4172 -0.4144  0.1498
  649MOL0     C87537   8.365   8.780   0.598  0.2148 -0.3634  0.1464
  649MOL0     C87538   8.459   8.687   0.650  0.6447 -0.9220  0.1057
  649MOL0     O87539   8.592   8.707   0.661 -0.7028  1.3920  0.2691
  649MOL0     C87540   8.654   8.826   0.616 -0.4342 -0.1558 -1.1295
  649MOL0     C87541   8.783   8.836   0.706 -0.0069  0.5214  0.7648
  649MOL0     C87542   8.888   8.748   0.626 -0.1203  0.2241 -0.9838
  649MOL0     C87543   8.995   8.670   0.717 -0.4076  0.4764 -0.3860
  649MOL0     C87544   9.091   8.759   0.795  0.0457  0.5458  0.1926
  649MOL0     C87545   9.157   8.824   0.876  0.6312  0.5670 -0.3239
  649MOL0     C87546   8.410   8.566   0.702 -0.2406  0.1531 -0.6335
  649MOL0     C87547   8.273   8.523   0.691  0.0058  0.3705 -0.1134
  649MOL0     H87548   7.812   8.494   0.515 -0.0968 -4.1845 -1.4649
  649MOL0     H87549   7.579   8.440   0.536 -0.3873 -0.1737  0.1106
  649MOL0     H87550   7.477   8.125   0.793 -0.9290  0.5258 -2.0135
  649MOL0     H87551   7.448   8.239   0.924  1.3142 -0.2789  0.6067
  649MOL0     H87552   7.223   8.263   0.853 -1.2210 -1.5867 -1.8299
  649MOL0     H87553   7.247   8.185   0.697 -1.1481  2.1973 -0.0099
  649MOL0     H87554   7.323   7.986   0.870  1.6314  0.3478 -0.8891
  649MOL0     H87555   7.229   8.078   0.983  0.8912  1.3112  0.2323
  649MOL0     H87556   7.027   8.076   0.783 -2.2808 -1.3437  2.4687
  649MOL0     H87557   7.125   7.951   0.717  0.4351 -0.2700  0.4159
  649MOL0     H87558   6.951   7.839   0.816 -1.2849  0.1028  0.0689
  649MOL0     H87559   7.068   7.811   0.936 -1.1189 -1.2020 -0.8994
  649MOL0     H87560   6.849   7.853   1.019 -0.3353 -0.4075 -3.2854
  649MOL0     H87561   6.971   7.963   1.094  0.0269  4.3792 -0.8461
  649MOL0     H87562   6.910   8.149   0.993  3.1287 -2.4423  3.5003
  649MOL0     H87563   6.775   8.074   0.894 -5.0102 -0.4459  2.6596
  649MOL0     H87564   6.773   8.071   1.200  2.0905 -0.2291 -1.2881
  649MOL0     H87565   6.636   8.027   1.093  0.0055  0.7723  2.1952
  649MOL0     H87566   6.590   8.270   0.912 -0.2533 -0.6408  1.1838
  649MOL0     H87567   6.516   8.611   1.104 -0.3235  1.0593 -0.3872
  649MOL0     H87568   6.571   8.599   0.937 -1.4393 -0.8665 -1.6151
  649MOL0     H87569   6.305   8.477   1.046 -3.5620 -0.8025 -2.5542
  649MOL0     H87570   6.380   8.457   0.885  1.8348 -2.9248  2.9314
  649MOL0     H87571   6.381   8.728   0.894 -0.7239  0.7120 -1.7867
  649MOL0     H87572   6.321   8.712   1.054  3.5467  1.1145 -1.2658
  649MOL0     H87573   6.166   8.614   0.800 -0.3992  0.9494 -0.3463
  649MOL0     H87574   6.132   8.767   0.876 -0.2190 -0.4873 -0.0365
  649MOL0     H87575   5.938   8.727   0.775 -1.5923  2.7092 -1.3463
  649MOL0     H87576   5.647   8.644   0.644 -1.0218 -1.0213  1.4958
  649MOL0     H87577   5.622   8.784   0.745  0.7398 -0.9861  2.1757
  649MOL0     H87578   5.777   8.775   0.653 -1.9403  2.0248 -0.9910
  649MOL0     H87579   5.357   8.221   1.024  0.7965 -0.0651 -0.6048
  649MOL0     H87580   5.105   8.193   1.045  1.4249  0.1132  3.5464
  649MOL0     H87581   4.849   8.534   1.118  0.1272 -1.9538  1.6655
  649MOL0     H87582   4.855   8.537   0.939 -1.9006 -1.3170  0.0211
  649MOL0     H87583   4.689   8.344   0.934 -0.2936  1.2447 -1.1552
  649MOL0     H87584   4.682   8.358   1.101  0.6724 -2.2013 -1.2076
  649MOL0     H87585   4.623   8.608   1.070  0.5550 -2.0034  2.7933
  649MOL0     H87586   4.501   8.487   1.068  1.7603  0.3252  2.5832
  649MOL0     H87587   4.630   8.597   0.809  0.4959 -1.1982  0.3333
  649MOL0     H87588   4.488   8.486   0.823  1.2263 -0.8411 -0.6520
  649MOL0     H87589   4.429   8.720   0.775 -0.4523 -0.8986 -0.4253
  649MOL0     H87590   4.493   8.777   0.927  0.6892 -0.2003  0.2969
  649MOL0     H87591   4.317   8.622   1.036  1.5080 -3.5392 -0.6084
  649MOL0     H87592   4.236   8.747   0.934  0.0506  1.0245 -4.7134
  649MOL0     H87593   4.255   8.456   0.908  2.3757 -0.2532 -1.6487
  649MOL0     H87594   4.258   8.555   0.758  1.4309 -0.7501  0.3236
  649MOL0     H87595   4.044   8.495   0.761 -1.1336 -0.2631  0.4979
  649MOL0     H87596   4.044   8.662   0.813  0.2235  0.8911  3.6432
  649MOL0     H87597   5.051   8.606   0.983  1.3852  0.7549 -0.4724
  649MOL0     H87598   5.276   8.645   0.960  1.2921  0.7685  0.0012
  649MOL0     H87599   5.685   8.433   1.070 -1.9383  0.5503  0.9204
  649MOL0     H87600   5.921   8.470   1.120 -0.2273  3.6399  3.6676
  649MOL0     H87601   7.654   8.293   0.938 -1.2384 -1.1013 -1.0610
  649MOL0     H87602   7.882   8.382   0.919 -1.0115  2.9831  2.4571
  649MOL0     H87603   8.151   8.812   0.566 -0.6349 -0.0449  1.5090
  649MOL0     H87604   8.398   8.878   0.566 -1.3205  0.0399 -0.2621
  649MOL0     H87605   8.680   8.821   0.510  1.0789  0.5322 -0.8097
  649MOL0     H87606   8.604   8.922   0.630  0.4385  0.4177 -1.8515
  649MOL0     H87607   8.764   8.804   0.808 -0.4986  0.7835  0.7573
  649MOL0     H87608   8.835   8.932   0.718  1.0039 -0.0997  1.4943
  649MOL0     H87609   8.944   8.809   0.556 -0.4777 -0.0985 -1.5592
  649MOL0     H87610   8.829   8.671   0.575 -0.7743 -0.9893  1.4547
  649MOL0     H87611   9.033   8.580   0.668  0.1970  0.2462  0.5010
  649MOL0     H87612   8.941   8.628   0.802 -0.4747  3.3262  1.1169
  649MOL0     H87613   9.216   8.862   0.956 -1.4408  1.3280  0.9234
  649MOL0     H87614   8.480   8.499   0.752  2.9765  0.7736 -3.8398
  649MOL0     H87615   8.235   8.430   0.733 -2.0833  1.4840  0.6133
  650MOL0     O87616   3.207   2.303   0.841 -0.3137  0.1571  0.1527
  650MOL0     C87617   3.238   2.311   0.726 -0.6066 -0.7540 -0.6340
  650MOL0     O87618   3.153   2.350   0.626 -0.5173 -0.6238  0.4891
  650MOL0     C87619   3.021   2.374   0.643  0.3583 -0.3308  1.0058
  650MOL0     C87620   2.940   2.328   0.750  0.6654  0.7130 -0.4672
  650MOL0     C87621   2.797   2.366   0.765 -0.1910  0.3642  0.2022
  650MOL0     C87622   2.737   2.453   0.671 -0.2529  0.3928 -0.6425
  650MOL0     O87623   2.604   2.493   0.691  0.2879  0.3865 -0.0802
  650MOL0     C87624   2.531   2.576   0.597  0.8715 -0.4440  0.6464
  650MOL0     C87625   2.472   2.510   0.475  0.2584  0.2245  0.3111
  650MOL0     C87626   2.347   2.578   0.422  0.7092  0.1926 -0.4124
  650MOL0     C87627   2.323   2.526   0.278 -0.3074 -0.0213  0.4303
  650MOL0     C87628   2.194   2.580   0.218 -0.5654 -0.4355 -0.2981
  650MOL0     C87629   2.073   2.588   0.316 -0.1573  0.5358  0.9950
  650MOL0     C87630   1.930   2.634   0.247  0.6956 -0.2909  0.5030
  650MOL0     C87631   1.808   2.593   0.338  0.7328  0.1304  0.0207
  650MOL0     N87632   1.696   2.540   0.262  0.3558 -0.6403 -0.0211
  650MOL0     C87633   1.598   2.619   0.209  0.2920 -0.4875 -0.2563
  650MOL0     C87634   1.540   2.537   0.120  0.9138 -0.0181 -0.1134
  650MOL0     C87635   1.416   2.577   0.046  0.5562  0.5783  0.0189
  650MOL0     C87636   1.287   2.584   0.139 -0.7921  0.4607  0.9101
  650MOL0     C87637   1.264   2.452   0.202 -0.3955  0.8157  0.0617
  650MOL0     C87638   1.139   2.456   0.286  0.3903  0.3068 -0.0516
  650MOL0     O87639   1.022   2.492   0.216  0.8158 -0.2341 -0.6380
  650MOL0     C87640   0.909   2.532   0.280  0.0633  0.0405  0.6794
  650MOL0     C87641   0.889   2.527   0.418 -0.4658 -0.2406  0.0217
  650MOL0     C87642   0.775   2.584   0.477  0.6745 -1.2180  0.0743
  650MOL0     C87643   0.780   2.585   0.624 -0.4012 -0.3478 -0.6852
  650MOL0     C87644   0.672   2.654   0.405 -0.1351  0.1260  0.3454
  650MOL0     C87645   0.556   2.721   0.469 -0.8113 -0.7076 -0.1677
  650MOL0     O87646   0.465   2.763   0.387  1.5132  0.2102  0.8453
  650MOL0     C87647   0.334   2.776   0.422 -0.1145  0.7151 -0.1527
  650MOL0     C87648   0.252   2.668   0.430 -0.2062 -0.8460 -0.3133
  650MOL0     C87649   0.128   2.683   0.495  0.3075  0.2628 -0.2197
  650MOL0     C87650   0.072   2.806   0.530  0.2712 -1.2319  0.3578
  650MOL0     O87651  -0.057   2.816   0.571 -0.6284 -0.3567  0.0938
  650MOL0     C87652  -0.151   2.758   0.477  0.1557  0.5730  0.2827
  650MOL0     C87653  -0.283   2.823   0.489  0.4025 -0.2907 -0.2660
  650MOL0     C87654  -0.266   2.973   0.443  0.7544 -0.8201  0.3548
  650MOL0     C87655  -0.395   3.054   0.455  0.0285 -0.4848 -0.4464
  650MOL0     C87656  -0.384   3.208   0.422 -0.0603 -0.9849 -0.2060
  650MOL0     C87657  -0.502   3.293   0.465 -0.9338  0.7083  0.9733
  650MOL0     C87658  -0.478   3.433   0.407  0.8999 -1.1962  0.1146
  650MOL0     C87659  -0.586   3.530   0.459 -0.7970 -0.3103 -0.5518
  650MOL0    Cl87660  -0.544   3.686   0.374  0.6281 -0.2477 -0.1964
  650MOL0     C87661   0.148   2.921   0.498  0.1729  0.5547 -0.3104
  650MOL0     C87662   0.277   2.896   0.451 -0.1386 -0.0270 -0.5563
  650MOL0     O87663   0.547   2.736   0.594  0.2653  0.1484  0.2463
  650MOL0     C87664   0.699   2.662   0.275 -0.3149  0.0506  0.0821
  650MOL0     C87665   0.804   2.591   0.213 -0.4764  0.4977  0.5390
  650MOL0     N87666   1.599   2.415   0.126  0.8692  0.2147 -0.2111
  650MOL0     N87667   1.691   2.415   0.213 -0.4053  0.3380  0.3590
  650MOL0     C87668   2.817   2.506   0.564  0.5812 -0.3097  1.0374
  650MOL0     C87669   2.955   2.460   0.551  0.5634  0.4293  0.4369
  650MOL0     C87670   3.380   2.291   0.695  0.3476 -0.0318  0.5857
  650MOL0     C87671   3.460   2.230   0.797  0.0823 -0.5272  0.4790
  650MOL0     C87672   3.593   2.196   0.771  0.2760 -0.2022 -0.6049
  650MOL0     C87673   3.646   2.193   0.644  0.0539 -0.2417  0.3277
  650MOL0     O87674   3.772   2.143   0.623  0.2237 -0.2242 -0.3457
  650MOL0     C87675   3.805   2.012   0.655 -0.2691 -0.1786  0.3368
  650MOL0     C87676   3.941   2.001   0.732 -0.7321 -0.5544 -0.1835
  650MOL0     C87677   3.991   1.852   0.737  0.4021  0.3925 -0.3855
  650MOL0     C87678   4.107   1.827   0.838 -0.0237  0.5989  0.6958
  650MOL0     C87679   4.231   1.907   0.832  0.6675  0.3449  0.1892
  650MOL0     C87680   4.331   1.977   0.841  0.9689  0.3997  0.4747
  650MOL0     C87681   3.568   2.235   0.540  0.5538  0.2031 -0.0120
  650MOL0     C87682   3.440   2.290   0.564 -0.8879  0.5801  0.1183
  650MOL0     H87683   2.971   2.261   0.829  1.4584 -1.3999 -2.4628
  650MOL0     H87684   2.741   2.337   0.853  2.4692 -0.0065  1.9076
  650MOL0     H87685   2.445   2.629   0.640 -1.4511 -1.5425 -2.3095
  650MOL0     H87686   2.590   2.656   0.552  1.6679 -0.7624  1.1224
  650MOL0     H87687   2.552   2.517   0.401  0.9521  2.0341  1.1550
  650MOL0     H87688   2.454   2.405   0.497  1.9108 -0.1939 -0.2333
  650MOL0     H87689   2.273   2.552   0.498 -1.7341  2.9483 -1.6519
  650MOL0     H87690   2.361   2.685   0.408  2.2208 -0.1569 -1.9375
  650MOL0     H87691   2.402   2.569   0.216  0.0039  0.4750  1.1504
  650MOL0     H87692   2.330   2.417   0.270  2.5155  0.1613 -1.0268
  650MOL0     H87693   2.209   2.683   0.184 -4.9346 -0.1618 -2.1619
  650MOL0     H87694   2.172   2.519   0.130 -1.6336  0.4703 -0.6781
  650MOL0     H87695   2.052   2.490   0.360 -0.9325  0.2235 -0.0311
  650MOL0     H87696   2.085   2.666   0.391 -0.7326  1.5438  0.0788
  650MOL0     H87697   1.923   2.740   0.223  2.4021 -0.4002 -0.7091
  650MOL0     H87698   1.925   2.579   0.152 -0.8535 -1.3341  1.1422
  650MOL0     H87699   1.787   2.684   0.395  0.3754 -0.4249  0.7982
  650MOL0     H87700   1.841   2.511   0.403  0.0872  0.0160  0.2161
  650MOL0     H87701   1.593   2.727   0.224  1.6818 -0.1106 -2.1622
  650MOL0     H87702   1.430   2.667  -0.013 -2.0341  0.9266 -0.1484
  650MOL0     H87703   1.401   2.496  -0.027 -0.8893  1.7093 -0.9780
  650MOL0     H87704   1.196   2.619   0.089  0.4992  1.0717 -1.1217
  650MOL0     H87705   1.307   2.659   0.216  4.6850  0.2413  0.0708
  650MOL0     H87706   1.346   2.423   0.269 -2.3041 -1.2574  1.6614
  650MOL0     H87707   1.226   2.381   0.128 -1.5971  1.0089  0.4697
  650MOL0     H87708   1.152   2.529   0.367 -0.3632 -0.0603  0.4110
  650MOL0     H87709   1.126   2.361   0.338  2.7433  0.5482  1.1279
  650MOL0     H87710   0.973   2.499   0.481  1.5052  0.1978 -2.2517
  650MOL0     H87711   0.861   2.526   0.669  1.6442  1.8395 -1.2792
  650MOL0     H87712   0.787   2.685   0.668 -1.0121 -0.5178 -0.2032
  650MOL0     H87713   0.682   2.547   0.653 -0.1848  0.3269  1.0415
  650MOL0     H87714   0.280   2.568   0.398 -0.0264 -0.5473 -1.1106
  650MOL0     H87715   0.067   2.594   0.510 -0.4416  0.9512  0.9797
  650MOL0     H87716  -0.115   2.775   0.375  1.5292 -0.1410  0.6212
  650MOL0     H87717  -0.158   2.649   0.487  1.1157 -0.3266 -5.4733
  650MOL0     H87718  -0.341   2.769   0.414  1.8270 -1.2446 -0.7258
  650MOL0     H87719  -0.324   2.808   0.589  2.3526  1.8995  0.9814
  650MOL0     H87720  -0.251   2.990   0.336 -0.7893  5.3215  0.7633
  650MOL0     H87721  -0.189   3.026   0.499  1.7528  2.0091 -3.3245
  650MOL0     H87722  -0.472   3.003   0.395 -0.1379 -0.4063 -0.3009
  650MOL0     H87723  -0.430   3.041   0.558 -0.9420 -0.3941 -0.7505
  650MOL0     H87724  -0.370   3.220   0.315  2.2835 -1.8305 -0.0494
  650MOL0     H87725  -0.306   3.245   0.489 -0.0937 -2.8607  0.9413
  650MOL0     H87726  -0.597   3.255   0.425  0.2386  0.9675 -2.4255
  650MOL0     H87727  -0.512   3.289   0.574  1.8096  0.0263  1.2892
  650MOL0     H87728  -0.478   3.440   0.298 -1.1883  0.2720  0.1428
  650MOL0     H87729  -0.387   3.476   0.450  1.5011  0.5040 -2.5948
  650MOL0     H87730  -0.577   3.539   0.568 -1.1546 -2.2995 -0.3185
  650MOL0     H87731  -0.683   3.487   0.431 -1.1384  1.5701 -2.5108
  650MOL0     H87732   0.109   3.019   0.524 -3.4395 -0.7776 -0.1459
  650MOL0     H87733   0.349   2.976   0.438 -0.5160  0.1000 -2.0126
  650MOL0     H87734   0.628   2.725   0.222 -0.0479  1.2809  1.1463
  650MOL0     H87735   0.820   2.617   0.109 -2.1275  1.0031  0.3938
  650MOL0     H87736   2.771   2.562   0.483 -0.0171 -1.3352  0.6581
  650MOL0     H87737   3.005   2.498   0.462  0.2551  1.6760  0.7695
  650MOL0     H87738   3.413   2.213   0.894 -2.0705 -1.5102 -0.6665
  650MOL0     H87739   3.659   2.171   0.854  0.6652  1.3439 -0.4288
  650MOL0     H87740   3.735   1.961   0.723 -0.8908  1.8722  1.3449
  650MOL0     H87741   3.808   1.955   0.562  0.3947  0.1350  0.1580
  650MOL0     H87742   3.936   2.050   0.829  1.4976 -2.8060  1.1813
  650MOL0     H87743   4.015   2.062   0.679  1.5312 -1.3314  1.9265
  650MOL0     H87744   4.024   1.831   0.635 -2.8021  0.1543 -1.4731
  650MOL0     H87745   3.906   1.789   0.764 -1.0235  2.2919 -0.2045
  650MOL0     H87746   4.141   1.724   0.820 -0.6876  0.7032 -1.4539
  650MOL0     H87747   4.064   1.839   0.937  0.1410  1.1435  0.7051
  650MOL0     H87748   4.428   2.017   0.859  2.2166 -1.6880 -1.1715
  650MOL0     H87749   3.600   2.222   0.437 -0.5153  0.9758 -0.4618
  650MOL0     H87750   3.375   2.327   0.486  0.1706 -0.8673 -1.5300
  651MOL0     O87751   7.391   7.473   3.356  0.6835  0.3472 -0.4417
  651MOL0     C87752   7.407   7.353   3.339 -0.3869  0.1800  0.1937
  651MOL0     O87753   7.511   7.274   3.388  0.1963 -1.2804 -0.4003
  651MOL0     C87754   7.607   7.322   3.470  0.3542 -0.2803 -0.2452
  651MOL0     C87755   7.714   7.232   3.501 -0.6366 -0.4889  0.8195
  651MOL0     C87756   7.826   7.275   3.579 -0.5526 -0.8212 -0.3252
  651MOL0     C87757   7.813   7.390   3.670  0.3725 -0.5531 -0.0373
  651MOL0     O87758   7.882   7.407   3.789  0.4101  0.2903  0.8155
  651MOL0     C87759   8.020   7.372   3.790  0.6027  0.2407 -1.2558
  651MOL0     C87760   8.096   7.467   3.871  0.3409 -0.3601 -0.1556
  651MOL0     C87761   8.250   7.447   3.885  0.5402 -0.0619  0.2798
  651MOL0     C87762   8.329   7.581   3.930 -0.9500 -0.2391  0.5021
  651MOL0     C87763   8.465   7.558   4.003  0.2389 -0.5130 -1.4331
  651MOL0     C87764   8.554   7.476   3.927 -0.8800 -0.1741  0.3953
  651MOL0     C87765   8.703   7.483   3.988  0.3195 -0.1825  0.3236
  651MOL0     C87766   8.725   7.436   4.143 -0.1448  0.0223  0.2535
  651MOL0     N87767   8.690   7.297   4.141  0.2656  0.2742  0.7505
  651MOL0     C87768   8.565   7.247   4.188 -1.0548 -0.1888  0.6558
  651MOL0     C87769   8.585   7.110   4.164 -0.0894  0.5575 -0.2589
  651MOL0     C87770   8.476   7.001   4.167 -0.1992  0.1704 -0.0827
  651MOL0     C87771   8.418   6.973   4.023  0.3354 -0.5177 -0.5956
  651MOL0     C87772   8.364   7.105   3.970 -0.1500 -1.4131 -0.6996
  651MOL0     C87773   8.270   7.089   3.855  0.3052 -0.0182 -0.9764
  651MOL0     O87774   8.136   7.067   3.900  0.4470  0.3647 -0.0632
  651MOL0     C87775   8.049   7.014   3.815 -0.0359  0.1496  0.1368
  651MOL0     C87776   7.921   6.977   3.871  0.6450 -0.2987 -0.1606
  651MOL0     C87777   7.831   6.905   3.795  0.4071 -0.5680 -0.7611
  651MOL0     C87778   7.706   6.856   3.871  0.6817 -0.0927  0.6645
  651MOL0     C87779   7.834   6.906   3.662  0.6136  0.5457  0.3449
  651MOL0     C87780   7.716   6.870   3.583 -0.0169 -0.2949  0.6748
  651MOL0     O87781   7.602   6.939   3.613  0.3365  0.2199  0.4676
  651MOL0     C87782   7.480   6.934   3.544 -0.2708 -0.9671 -0.2737
  651MOL0     C87783   7.442   6.827   3.462  0.3974 -0.6396 -0.1496
  651MOL0     C87784   7.316   6.801   3.416  0.1763 -0.1470  0.5909
  651MOL0     C87785   7.212   6.889   3.459 -0.7250 -0.5099  0.0196
  651MOL0     O87786   7.083   6.864   3.425 -0.1888 -0.3833 -0.4311
  651MOL0     C87787   6.976   6.897   3.527 -0.1508 -0.6716 -0.1588
  651MOL0     C87788   6.850   6.932   3.456  0.3145 -0.2010 -0.4845
  651MOL0     C87789   6.882   7.048   3.364  0.3628  0.0237  0.4486
  651MOL0     C87790   6.756   7.106   3.291 -0.1570  0.2558  0.2605
  651MOL0     C87791   6.671   7.206   3.373 -0.4984  0.0557 -0.1480
  651MOL0     C87792   6.569   7.260   3.274  0.2239  0.4671 -0.6113
  651MOL0     C87793   6.476   7.362   3.338  0.1711 -0.8230  0.1549
  651MOL0     C87794   6.370   7.301   3.428 -0.0187 -0.7401  0.3321
  651MOL0    Cl87795   6.241   7.423   3.467 -0.0214  0.1062 -0.3147
  651MOL0     C87796   7.246   7.005   3.543  0.3035  0.9346  0.4045
  651MOL0     C87797   7.379   7.024   3.584 -0.0476  0.4309 -0.4299
  651MOL0     O87798   7.740   6.787   3.491 -0.3533 -0.6545  0.2872
  651MOL0     C87799   7.962   6.931   3.605 -0.0491  0.3729  0.2800
  651MOL0     C87800   8.062   6.983   3.677 -0.0099 -1.1328  0.4907
  651MOL0     N87801   8.701   7.087   4.117 -0.4517  0.4132 -0.5213
  651MOL0     N87802   8.769   7.195   4.104 -0.4354 -0.1706  0.3205
  651MOL0     C87803   7.702   7.466   3.644  0.0255 -0.4405  0.2974
  651MOL0     C87804   7.612   7.438   3.544  0.3673 -0.7129 -0.7836
  651MOL0     C87805   7.306   7.293   3.259  0.5000  0.1681  0.4400
  651MOL0     C87806   7.200   7.369   3.203 -0.2098 -0.5650  0.3840
  651MOL0     C87807   7.106   7.294   3.129  0.0871  0.4323  0.7585
  651MOL0     C87808   7.113   7.151   3.107 -0.7252  0.2928 -0.7672
  651MOL0     O87809   7.023   7.081   3.039 -0.0200  0.2327 -0.3437
  651MOL0     C87810   7.044   7.102   2.895  0.9369 -0.6599  0.4761
  651MOL0     C87811   6.909   7.110   2.820 -0.3598  0.1461  1.0531
  651MOL0     C87812   6.812   7.204   2.889 -0.7562 -0.8032 -0.3245
  651MOL0     C87813   6.668   7.183   2.825 -0.1420  0.1610 -0.4494
  651MOL0     C87814   6.574   7.266   2.896 -0.6536 -0.3249  0.9080
  651MOL0     C87815   6.481   7.332   2.954 -0.3921  0.7420 -0.7043
  651MOL0     C87816   7.223   7.088   3.157 -0.2936  0.1621 -0.1185
  651MOL0     C87817   7.311   7.158   3.231 -1.2404  0.8890  0.5678
  651MOL0     H87818   7.721   7.137   3.449  2.1279  0.0630  0.0320
  651MOL0     H87819   7.910   7.211   3.601  0.0911  0.4386  1.0248
  651MOL0     H87820   8.027   7.271   3.831  1.4030 -0.8489 -3.8868
  651MOL0     H87821   8.062   7.362   3.689  2.2959 -1.2146 -0.4754
  651MOL0     H87822   8.090   7.566   3.825  0.1407 -0.7330 -0.9279
  651MOL0     H87823   8.066   7.476   3.976  2.1934  2.7178  0.2352
  651MOL0     H87824   8.273   7.383   3.971  4.8752  0.9007  0.0394
  651MOL0     H87825   8.284   7.396   3.795 -5.8687 -0.1987 -2.5893
  651MOL0     H87826   8.345   7.650   3.846 -1.5847  2.4373  2.4444
  651MOL0     H87827   8.274   7.644   4.001  0.7025  2.1460 -0.2203
  651MOL0     H87828   8.503   7.657   4.028 -2.6321 -0.3419  3.5764
  651MOL0     H87829   8.446   7.516   4.102  3.3417  2.9375  0.9037
  651MOL0     H87830   8.526   7.371   3.927  1.7766 -0.9849  1.4918
  651MOL0     H87831   8.568   7.509   3.824 -0.1270  0.6326  0.7388
  651MOL0     H87832   8.779   7.435   3.925  1.1546  2.0330 -0.4377
  651MOL0     H87833   8.722   7.590   3.975 -3.9179  0.8944  1.5592
  651MOL0     H87834   8.665   7.491   4.217  1.4887  1.9112  0.2759
  651MOL0     H87835   8.830   7.445   4.172  0.1413  0.7818 -0.9419
  651MOL0     H87836   8.477   7.298   4.226 -2.3886 -1.4208 -0.6784
  651MOL0     H87837   8.523   6.907   4.198  0.0312 -0.5932 -2.5237
  651MOL0     H87838   8.389   7.031   4.226  2.3829  3.6518  2.4012
  651MOL0     H87839   8.334   6.903   4.029 -1.3185  1.3722 -0.3478
  651MOL0     H87840   8.492   6.924   3.961  1.1704  0.0377 -0.0615
  651MOL0     H87841   8.456   7.155   3.940 -0.6201  0.3758  0.6404
  651MOL0     H87842   8.304   7.156   4.047  1.0884 -1.2487  0.1907
  651MOL0     H87843   8.299   7.007   3.788  1.6496  0.4891 -1.0345
  651MOL0     H87844   8.261   7.176   3.790  0.1976 -1.6020 -3.1942
  651MOL0     H87845   7.910   7.001   3.976  0.0594 -0.4835 -0.1751
  651MOL0     H87846   7.624   6.929   3.867 -0.2704 -1.1878 -0.9195
  651MOL0     H87847   7.670   6.761   3.830  1.4156 -1.6202  3.3322
  651MOL0     H87848   7.738   6.841   3.975  0.4991 -0.0673  0.7239
  651MOL0     H87849   7.519   6.758   3.429 -0.3873 -2.3941  1.5004
  651MOL0     H87850   7.301   6.712   3.355  0.7406  1.5883 -2.2471
  651MOL0     H87851   6.959   6.807   3.587 -0.7391  0.1988  1.0204
  651MOL0     H87852   6.993   6.970   3.607 -1.6323 -1.7866  1.2495
  651MOL0     H87853   6.820   6.847   3.395 -2.6644  0.6584 -0.3889
  651MOL0     H87854   6.768   6.958   3.524  1.4131  0.1077  0.7652
  651MOL0     H87855   6.955   7.023   3.287 -0.4225  1.8025 -0.9451
  651MOL0     H87856   6.928   7.127   3.425  0.7834 -1.6632  2.4142
  651MOL0     H87857   6.799   7.156   3.203  1.3149  0.8390  1.2769
  651MOL0     H87858   6.700   7.016   3.266 -0.6511  0.5853  0.1790
  651MOL0     H87859   6.733   7.290   3.405  0.9335 -1.1275  0.2695
  651MOL0     H87860   6.622   7.160   3.459  1.7714 -0.4131  0.9787
  651MOL0     H87861   6.623   7.292   3.185  2.2270  2.5777  1.2390
  651MOL0     H87862   6.503   7.181   3.237  1.7421 -1.3815  0.4042
  651MOL0     H87863   6.427   7.412   3.254  0.0559 -0.4902  0.4202
  651MOL0     H87864   6.526   7.442   3.394  0.9701 -1.4053  0.2892
  651MOL0     H87865   6.416   7.264   3.520 -1.0381  0.8499  1.5387
  651MOL0     H87866   6.315   7.224   3.374  1.7659 -1.4033 -0.6152
  651MOL0     H87867   7.172   7.078   3.572  0.9035  1.0197  1.8579
  651MOL0     H87868   7.396   7.104   3.656  0.7981  0.7721 -0.9920
  651MOL0     H87869   7.978   6.936   3.498 -1.8659  3.5275  0.0209
  651MOL0     H87870   8.158   7.008   3.633 -0.8836 -0.0960 -0.9277
  651MOL0     H87871   7.665   7.528   3.726 -1.4470 -0.6100 -0.2039
  651MOL0     H87872   7.545   7.519   3.518  1.6986  0.3747 -0.9228
  651MOL0     H87873   7.194   7.476   3.221  0.9320 -0.5210  0.5983
  651MOL0     H87874   7.024   7.338   3.073  0.6571 -0.4270 -0.8197
  651MOL0     H87875   7.099   7.195   2.876  0.4461 -0.4781 -0.0592
  651MOL0     H87876   7.116   7.033   2.849  0.8431 -0.1477 -0.4716
  651MOL0     H87877   6.857   7.014   2.825  0.2160 -0.1759  0.9486
  651MOL0     H87878   6.928   7.143   2.718  1.7515 -0.9187  1.0566
  651MOL0     H87879   6.839   7.310   2.886  0.6098 -1.0470  1.6356
  651MOL0     H87880   6.801   7.157   2.987 -2.1740 -4.7906 -2.1695
  651MOL0     H87881   6.634   7.081   2.840 -1.9423  0.2030 -3.5235
  651MOL0     H87882   6.676   7.188   2.716  1.7513 -2.0564 -0.4876
  651MOL0     H87883   6.408   7.390   3.006  1.3942  1.6508  0.9330
  651MOL0     H87884   7.232   6.980   3.146  0.6254 -0.0195  1.9648
  651MOL0     H87885   7.406   7.111   3.255 -0.8286  1.4051  0.0096
  652MOL0     O87886   4.052   2.371   9.162  0.5412  0.0027 -0.1771
  652MOL0     C87887   4.084   2.278   9.085  0.5783  0.0800 -0.4101
  652MOL0     O87888   4.163   2.285   8.981 -0.2866 -0.5427  0.1783
  652MOL0     C87889   4.242   2.400   8.980  0.0937  0.4895 -0.6051
  652MOL0     C87890   4.325   2.423   9.092  0.1193  0.8863 -0.9484
  652MOL0     C87891   4.405   2.538   9.105  0.0170  0.3393 -0.4292
  652MOL0     C87892   4.398   2.646   9.006 -0.0600 -0.9474 -0.0160
  652MOL0     O87893   4.461   2.767   9.002  0.2627 -0.1740  0.3130
  652MOL0     C87894   4.500   2.819   9.129 -0.1211  0.6952 -0.4399
  652MOL0     C87895   4.545   2.960   9.098 -0.3113  0.2792  0.3589
  652MOL0     C87896   4.594   3.060   9.206 -0.5015  0.6054  0.6872
  652MOL0     C87897   4.727   3.029   9.281 -0.0863  0.3922 -0.2364
  652MOL0     C87898   4.841   2.990   9.188 -0.0106  0.1933 -0.5275
  652MOL0     C87899   4.905   3.103   9.101  0.2608  0.3887  1.0479
  652MOL0     C87900   4.995   3.181   9.193 -0.8904 -0.0056 -0.2973
  652MOL0     C87901   5.121   3.247   9.128 -0.3912  0.1823 -0.0467
  652MOL0     N87902   5.219   3.131   9.091  0.0469 -0.8056 -0.5175
  652MOL0     C87903   5.229   3.071   8.965 -0.4443 -0.1314  0.0148
  652MOL0     C87904   5.316   2.969   8.980  0.0241 -0.6372 -0.6188
  652MOL0     C87905   5.335   2.862   8.883  0.3339  0.5330 -0.4310
  652MOL0     C87906   5.237   2.749   8.907  0.2761  1.1327  0.2311
  652MOL0     C87907   5.274   2.616   8.835  0.6224  0.5826 -0.3509
  652MOL0     C87908   5.203   2.493   8.900  0.9381 -0.2043 -0.9058
  652MOL0     O87909   5.060   2.526   8.892 -0.2215  0.8528  0.0603
  652MOL0     C87910   4.979   2.419   8.897  0.8943  0.2841 -0.5043
  652MOL0     C87911   4.847   2.448   8.865  0.2014  0.6041 -0.7789
  652MOL0     C87912   4.748   2.344   8.869  0.5750 -0.1316  0.1323
  652MOL0     C87913   4.600   2.389   8.846 -0.0469 -0.2027  0.2568
  652MOL0     C87914   4.785   2.213   8.890  0.4266 -0.4054 -0.8005
  652MOL0     C87915   4.693   2.091   8.889  0.3811 -0.4066  0.4498
  652MOL0     O87916   4.571   2.118   8.839  0.4515  0.0430 -0.0690
  652MOL0     C87917   4.474   2.021   8.801 -0.3570 -0.3161 -0.0984
  652MOL0     C87918   4.493   1.878   8.802  0.1621  0.3472  0.0230
  652MOL0     C87919   4.383   1.792   8.753 -0.8093 -0.3811  0.0006
  652MOL0     C87920   4.274   1.855   8.697 -0.3612  0.9072  1.2546
  652MOL0     O87921   4.170   1.786   8.638 -0.3112  0.0048 -0.0962
  652MOL0     C87922   4.119   1.675   8.723 -0.0474  0.7469 -0.0701
  652MOL0     C87923   3.967   1.678   8.697 -0.4894 -0.5249  0.1341
  652MOL0     C87924   3.920   1.631   8.561 -0.1749 -0.1360 -0.5808
  652MOL0     C87925   3.763   1.606   8.561 -0.0175  0.0901 -0.2359
  652MOL0     C87926   3.713   1.571   8.423  0.6321  0.3796  0.9724
  652MOL0     C87927   3.562   1.542   8.423 -0.4223  0.2670  1.0047
  652MOL0     C87928   3.507   1.538   8.284  0.3608 -0.6550 -0.0515
  652MOL0     C87929   3.364   1.489   8.283  1.1600  0.3924  0.4622
  652MOL0    Cl87930   3.327   1.468   8.106 -0.2899 -0.1074 -0.3169
  652MOL0     C87931   4.261   1.990   8.709  0.5331 -0.6425  0.7451
  652MOL0     C87932   4.354   2.075   8.762 -0.7888  0.5788  0.6396
  652MOL0     O87933   4.731   1.983   8.926  1.1793  0.5304 -0.3119
  652MOL0     C87934   4.920   2.181   8.921 -0.7939 -0.3033  0.5969
  652MOL0     C87935   5.009   2.288   8.943  0.4218  0.1303  0.0511
  652MOL0     N87936   5.358   2.967   9.112 -1.1901 -0.1002 -0.6469
  652MOL0     N87937   5.294   3.055   9.178  0.2949 -0.6294 -0.1558
  652MOL0     C87938   4.312   2.616   8.896 -0.0899 -0.4947  0.3301
  652MOL0     C87939   4.250   2.497   8.879  0.0890  0.5203 -0.6802
  652MOL0     C87940   4.015   2.147   9.099  0.9327 -0.4669  0.0775
  652MOL0     C87941   3.997   2.053   8.998 -0.5937  0.9618  0.4490
  652MOL0     C87942   3.935   1.934   9.014  0.0778 -0.2526  0.2907
  652MOL0     C87943   3.861   1.907   9.128 -0.4421  0.8237  0.2184
  652MOL0     O87944   3.810   1.779   9.142  0.6242 -0.8937  0.1108
  652MOL0     C87945   3.755   1.734   9.262 -0.0343  0.1650  0.8897
  652MOL0     C87946   3.693   1.595   9.242  0.6467 -0.2783 -0.2633
  652MOL0     C87947   3.789   1.495   9.173 -0.5087 -0.0282  0.3499
  652MOL0     C87948   3.760   1.348   9.194  1.8181 -0.2604  0.1795
  652MOL0     C87949   3.627   1.307   9.136  0.0422 -0.7766  0.2158
  652MOL0     C87950   3.527   1.274   9.083  1.0209  0.6492 -0.5591
  652MOL0     C87951   3.866   2.009   9.234 -0.4505 -0.8299  0.0801
  652MOL0     C87952   3.946   2.124   9.216  0.1024 -0.2567 -1.4284
  652MOL0     H87953   4.323   2.353   9.174 -0.4287  1.1910 -0.6937
  652MOL0     H87954   4.480   2.547   9.183  0.7881  0.3385 -1.1452
  652MOL0     H87955   4.421   2.815   9.204  0.5060  0.2240  0.2072
  652MOL0     H87956   4.584   2.758   9.163 -0.8768 -1.2165 -1.7759
  652MOL0     H87957   4.624   2.949   9.023  0.0641  0.6248  0.7024
  652MOL0     H87958   4.456   3.004   9.050  0.7797  0.7679 -1.2932
  652MOL0     H87959   4.598   3.157   9.155 -1.9907 -1.2438 -3.4192
  652MOL0     H87960   4.525   3.070   9.290 -0.9661 -0.6041  0.4619
  652MOL0     H87961   4.756   3.117   9.339  1.5844  0.5751 -1.2966
  652MOL0     H87962   4.710   2.945   9.350  0.4815  1.6042  1.4443
  652MOL0     H87963   4.921   2.951   9.251 -0.3149  0.4674  0.0319
  652MOL0     H87964   4.806   2.904   9.129  0.3403 -0.0785 -0.3496
  652MOL0     H87965   4.957   3.049   9.020 -1.0238  0.8066 -0.0888
  652MOL0     H87966   4.834   3.171   9.053  1.3204 -0.8340 -2.6209
  652MOL0     H87967   4.936   3.268   9.224  0.8247  0.4682  1.8678
  652MOL0     H87968   5.028   3.131   9.284  0.9760  1.3428 -0.1677
  652MOL0     H87969   5.156   3.311   9.210 -1.9387  0.1580  0.6717
  652MOL0     H87970   5.088   3.309   9.045 -1.5096 -1.4339 -0.8649
  652MOL0     H87971   5.175   3.086   8.873 -0.5158 -0.5076 -0.0089
  652MOL0     H87972   5.330   2.892   8.778  0.9096 -1.1412 -0.9599
  652MOL0     H87973   5.434   2.819   8.903 -0.0794 -0.5862 -0.7739
  652MOL0     H87974   5.135   2.774   8.876 -1.1221 -1.1911  2.5869
  652MOL0     H87975   5.236   2.722   9.013 -3.3561 -0.2581 -0.0040
  652MOL0     H87976   5.380   2.605   8.857  0.9969  1.9065 -1.3497
  652MOL0     H87977   5.242   2.616   8.730  2.0909  0.6057 -0.8126
  652MOL0     H87978   5.224   2.479   9.007 -0.0668  0.1370 -0.6573
  652MOL0     H87979   5.227   2.410   8.833  0.2189 -0.0986 -1.3011
  652MOL0     H87980   4.834   2.553   8.842 -0.4577  0.5997 -0.4444
  652MOL0     H87981   4.535   2.337   8.917  1.1932  0.1823  1.7500
  652MOL0     H87982   4.588   2.497   8.858 -0.3508 -0.2159  0.0878
  652MOL0     H87983   4.574   2.368   8.742  0.5589 -3.9308  0.7212
  652MOL0     H87984   4.578   1.827   8.846 -0.8400 -1.8513 -0.4232
  652MOL0     H87985   4.392   1.685   8.740  0.2103 -0.1801 -1.0486
  652MOL0     H87986   4.166   1.582   8.690 -0.4461  0.8551 -0.9793
  652MOL0     H87987   4.152   1.687   8.827  1.4506  1.9205 -0.6474
  652MOL0     H87988   3.925   1.607   8.769 -1.1861 -0.6268 -0.3663
  652MOL0     H87989   3.936   1.781   8.714  1.7617  0.4776 -1.3807
  652MOL0     H87990   3.976   1.542   8.532  0.4637  0.7172 -2.0776
  652MOL0     H87991   3.940   1.709   8.486  3.5720 -0.1538  0.2066
  652MOL0     H87992   3.735   1.524   8.629 -3.5299  1.8593  0.7069
  652MOL0     H87993   3.711   1.693   8.601 -1.8304 -1.8691  1.9911
  652MOL0     H87994   3.755   1.478   8.385 -2.0252 -1.2164  1.7026
  652MOL0     H87995   3.735   1.650   8.351  1.1832  0.6835  1.4663
  652MOL0     H87996   3.557   1.441   8.464 -0.7203  0.3666  1.2135
  652MOL0     H87997   3.508   1.606   8.493 -3.2730 -0.4110 -0.4439
  652MOL0     H87998   3.581   1.475   8.234  3.0484  0.6096  2.0588
  652MOL0     H87999   3.514   1.636   8.236 -0.4757 -0.6266 -0.1245
  652MOL0     H88000   3.288   1.550   8.331 -0.6555  0.3583 -2.1744
  652MOL0     H88001   3.360   1.392   8.333  1.9832 -0.8197 -1.7084
  652MOL0     H88002   4.166   2.030   8.675  0.3448 -0.4088  1.5138
  652MOL0     H88003   4.346   2.182   8.775  1.4742  0.7334  1.0531
  652MOL0     H88004   4.950   2.081   8.952  1.2878 -0.6543 -2.1617
  652MOL0     H88005   5.108   2.255   8.973  1.6729  1.6320 -2.1909
  652MOL0     H88006   4.293   2.692   8.821  2.9665 -0.0928 -0.1683
  652MOL0     H88007   4.199   2.491   8.783  0.3590  0.7714 -0.8403
  652MOL0     H88008   4.033   2.064   8.896 -1.9453  1.1733 -0.0331
  652MOL0     H88009   3.936   1.863   8.932 -0.5718 -1.1574  1.0487
  652MOL0     H88010   3.835   1.730   9.336 -1.3635 -0.5576  2.3309
  652MOL0     H88011   3.669   1.799   9.284 -1.6997 -1.1363 -1.3658
  652MOL0     H88012   3.601   1.602   9.184  1.0374 -0.4415 -0.9160
  652MOL0     H88013   3.679   1.568   9.347 -1.2488  4.0933  0.8635
  652MOL0     H88014   3.891   1.509   9.212 -0.3808 -0.1914  0.0764
  652MOL0     H88015   3.796   1.522   9.067 -0.3566 -0.6638  0.1968
  652MOL0     H88016   3.767   1.324   9.300  0.0596  1.3339  0.7075
  652MOL0     H88017   3.834   1.283   9.146  1.9291  1.1084 -1.6433
  652MOL0     H88018   3.438   1.242   9.031  0.9676  1.4004 -0.9455
  652MOL0     H88019   3.820   1.994   9.331  2.4953  1.8238  2.0786
  652MOL0     H88020   3.955   2.189   9.302 -1.2921  0.6222 -1.9175
  653MOL0     O88021   6.976   0.179   9.771 -0.4139  0.6735 -0.4748
  653MOL0     C88022   7.014   0.071   9.725  0.3619  0.0103 -0.4498
  653MOL0     O88023   6.939  -0.026   9.684 -0.4979 -0.3728 -0.1113
  653MOL0     C88024   6.806  -0.022   9.707  0.1242  0.7254  0.6706
  653MOL0     C88025   6.754  -0.146   9.755 -0.5264 -0.2993 -0.5958
  653MOL0     C88026   6.616  -0.156   9.795 -0.7292  0.7354  0.6166
  653MOL0     C88027   6.528  -0.055   9.773 -0.1582 -1.1734 -0.3987
  653MOL0     O88028   6.398  -0.085   9.815 -0.3461  0.6882  0.1253
  653MOL0     C88029   6.297   0.020   9.815  0.2565  0.3018  0.2672
  653MOL0     C88030   6.217   0.002   9.946 -0.1748 -0.3493  0.5790
  653MOL0     C88031   6.071   0.036   9.926 -0.7489  0.4555  0.5510
  653MOL0     C88032   5.990   0.064  10.050 -0.7169 -0.4692  0.8311
  653MOL0     C88033   6.014  -0.032  10.163 -0.5589  0.2810  0.0754
  653MOL0     C88034   5.930   0.001  10.288 -0.3081  0.3145  0.3844
  653MOL0     C88035   5.788   0.027  10.256 -0.5868 -0.1367  0.3901
  653MOL0     C88036   5.707   0.027  10.389 -0.9457 -0.0845  0.0153
  653MOL0     N88037   5.571   0.075  10.364  0.0175  0.5118  0.5409
  653MOL0     C88038   5.535   0.197  10.415 -0.4682  0.0503  0.5895
  653MOL0     C88039   5.405   0.198  10.368 -0.2226  0.0078 -0.3105
  653MOL0     C88040   5.306   0.304  10.394  0.1552 -0.0730  0.4087
  653MOL0     C88041   5.237   0.287  10.536 -0.6772  0.2989  0.4302
  653MOL0     C88042   5.109   0.371  10.534 -0.7541  0.2428  0.3998
  653MOL0     C88043   5.034   0.358  10.665  0.4898 -1.1517 -0.4691
  653MOL0     O88044   4.938   0.463  10.677 -0.4113  0.2608 -0.1504
  653MOL0     C88045   4.804   0.438  10.671 -0.5790 -0.4086 -0.7006
  653MOL0     C88046   4.723   0.485  10.777  1.2199 -0.1251  0.6090
  653MOL0     C88047   4.580   0.471  10.774  0.8797  0.4507 -0.6861
  653MOL0     C88048   4.489   0.516  10.882  0.1978  0.5539 -0.9561
  653MOL0     C88049   4.523   0.414  10.659 -0.8277  0.1464 -0.8355
  653MOL0     C88050   4.373   0.389  10.641  0.0663 -0.2473  0.8622
  653MOL0     O88051   4.285   0.486  10.675 -0.2439  0.0121  0.1290
  653MOL0     C88052   4.174   0.527  10.598 -0.1514  0.0945  0.4531
  653MOL0     C88053   4.134   0.664  10.613 -0.1362  1.0112 -0.3680
  653MOL0     C88054   4.020   0.716  10.555 -0.3635 -0.2042  0.4097
  653MOL0     C88055   3.934   0.641  10.475 -0.4280 -0.1623  0.8863
  653MOL0     O88056   3.840   0.691  10.395  0.0298  0.1410  0.0845
  653MOL0     C88057   3.783   0.819  10.435  0.5095 -0.5358  0.2611
  653MOL0     C88058   3.670   0.860  10.347 -0.2438  0.2047 -0.0567
  653MOL0     C88059   3.722   0.918  10.211 -0.1150 -1.2767 -0.2182
  653MOL0     C88060   3.623   1.035  10.178  0.2833 -0.4925  0.5821
  653MOL0     C88061   3.634   1.099  10.036 -0.0041  0.2676 -0.2274
  653MOL0     C88062   3.567   1.237  10.020  0.0400  0.3695  0.3877
  653MOL0     C88063   3.417   1.241  10.052  0.3136  0.1475  0.2042
  653MOL0     C88064   3.347   1.134   9.966 -0.8194 -0.4771  0.2208
  653MOL0    Cl88065   3.164   1.131   9.968  0.2858  0.6200 -0.0457
  653MOL0     C88066   3.986   0.506  10.443 -0.3451  0.6225 -0.0922
  653MOL0     C88067   4.102   0.453  10.506  0.0037  0.1538  0.0199
  653MOL0     O88068   4.345   0.288  10.582  0.6686  0.7149 -0.6742
  653MOL0     C88069   4.608   0.362  10.560  0.2811 -0.9647  0.1027
  653MOL0     C88070   4.747   0.387  10.558  0.2190 -0.0904 -0.1939
  653MOL0     N88071   5.376   0.078  10.302 -0.1830  0.6324  0.6375
  653MOL0     N88072   5.471   0.001  10.301  0.2095  1.0520 -0.7513
  653MOL0     C88073   6.580   0.067   9.731 -0.7824 -0.4862  0.0973
  653MOL0     C88074   6.716   0.082   9.691  0.1870 -0.2971 -0.8238
  653MOL0     C88075   7.159   0.060   9.709 -0.3371 -0.0291 -0.1061
  653MOL0     C88076   7.243   0.170   9.729  0.8687 -0.4988  0.5493
  653MOL0     C88077   7.379   0.165   9.712  0.3186 -0.3088  0.4203
  653MOL0     C88078   7.439   0.044   9.671 -0.1562  0.0756 -0.7015
  653MOL0     O88079   7.574   0.049   9.649  0.4094  0.3343  0.4467
  653MOL0     C88080   7.658  -0.069   9.623 -0.3086 -0.4862 -0.0062
  653MOL0     C88081   7.789  -0.013   9.553  0.3754  0.1376 -0.1239
  653MOL0     C88082   7.765  -0.004   9.398 -0.2952  0.5030  0.4558
  653MOL0     C88083   7.835   0.107   9.326 -1.0033 -0.4975 -0.0073
  653MOL0     C88084   7.978   0.117   9.369 -0.0341 -0.3889 -0.0858
  653MOL0     C88085   8.091   0.139   9.409 -0.5743 -1.2164 -0.2202
  653MOL0     C88086   7.357  -0.069   9.648  0.1805 -0.2817 -0.1417
  653MOL0     C88087   7.221  -0.059   9.670  0.1482 -0.0914  0.0425
  653MOL0     H88088   6.828  -0.221   9.781 -2.0095 -0.4943  3.9342
  653MOL0     H88089   6.595  -0.248   9.848  3.0769  1.4098  3.7630
  653MOL0     H88090   6.354   0.112   9.826  1.0412 -0.3458  2.0271
  653MOL0     H88091   6.234   0.025   9.726 -2.6862 -0.0248  2.1931
  653MOL0     H88092   6.230  -0.094   9.996  1.7470 -0.2608  0.2988
  653MOL0     H88093   6.264   0.073  10.014  0.3422 -1.4251  1.3577
  653MOL0     H88094   6.064   0.125   9.863 -1.1162 -1.4140 -2.2117
  653MOL0     H88095   6.017  -0.038   9.867 -2.1897  1.7618  0.1445
  653MOL0     H88096   6.015   0.166  10.083  1.9972 -0.7563 -0.1154
  653MOL0     H88097   5.886   0.057  10.019 -0.0202 -1.4310 -1.4908
  653MOL0     H88098   5.978  -0.125  10.119  0.4610 -1.2685  2.3419
  653MOL0     H88099   6.117  -0.048  10.197 -1.4093 -0.5456  2.4620
  653MOL0     H88100   5.935  -0.082  10.359 -1.3949 -0.0400  0.0618
  653MOL0     H88101   5.969   0.084  10.349 -0.6281  1.8006 -1.3538
  653MOL0     H88102   5.781   0.117  10.195 -3.1853 -2.0932 -2.4580
  653MOL0     H88103   5.747  -0.057  10.201  0.8599 -1.8509  1.7860
  653MOL0     H88104   5.760   0.093  10.458  1.8696 -2.5895  0.5107
  653MOL0     H88105   5.706  -0.065  10.448 -0.6795 -0.0335  0.1025
  653MOL0     H88106   5.592   0.270  10.472  0.5557  0.0321 -0.3776
  653MOL0     H88107   5.371   0.390  10.380  1.8705 -1.7634 -3.7022
  653MOL0     H88108   5.233   0.315  10.313 -1.7321  1.5641  2.2170
  653MOL0     H88109   5.309   0.305  10.616  0.8088 -0.5208 -0.6646
  653MOL0     H88110   5.209   0.181  10.537  1.2026 -0.2230  0.6269
  653MOL0     H88111   5.045   0.334  10.453 -1.3584  1.5430  0.2575
  653MOL0     H88112   5.143   0.469  10.499 -1.0964 -0.2626 -1.4830
  653MOL0     H88113   5.104   0.359  10.748  0.9236 -0.2526 -0.8273
  653MOL0     H88114   4.985   0.260  10.672 -0.8414 -0.5943 -1.3664
  653MOL0     H88115   4.777   0.542  10.852  0.3082  1.0620  0.3958
  653MOL0     H88116   4.444   0.605  10.838  0.3818  2.4010  2.3115
  653MOL0     H88117   4.416   0.437  10.899  2.0487 -0.8532  1.0062
  653MOL0     H88118   4.538   0.545  10.975 -0.9768 -1.2062  0.2625
  653MOL0     H88119   4.201   0.719  10.677 -0.5998  0.6423  0.4581
  653MOL0     H88120   4.007   0.823  10.556 -1.2831 -0.2322 -1.9391
  653MOL0     H88121   3.744   0.816  10.538 -0.1281 -1.7329  0.0013
  653MOL0     H88122   3.857   0.900  10.435 -1.0086  0.9166  1.4648
  653MOL0     H88123   3.610   0.772  10.324  0.4367 -0.4315  0.5414
  653MOL0     H88124   3.609   0.932  10.402  0.2390  0.6983 -0.1498
  653MOL0     H88125   3.711   0.850  10.127  0.4522  1.2337 -2.4639
  653MOL0     H88126   3.819   0.970  10.215 -1.3806  1.2094  0.4531
  653MOL0     H88127   3.524   0.986  10.179 -1.2513  2.3234 -1.1867
  653MOL0     H88128   3.615   1.113  10.254 -3.1107  0.0704 -0.2027
  653MOL0     H88129   3.600   1.036   9.954  1.3665 -2.0029  0.8637
  653MOL0     H88130   3.741   1.115  10.018  0.4055 -2.9112 -1.2973
  653MOL0     H88131   3.611   1.305  10.092  1.3464 -0.2395  0.1879
  653MOL0     H88132   3.584   1.271   9.917  1.3141  0.1311  0.5063
  653MOL0     H88133   3.380   1.342  10.036  2.2740  0.8283 -0.3453
  653MOL0     H88134   3.411   1.210  10.157  2.2124 -0.3079  0.2157
  653MOL0     H88135   3.374   1.030   9.983  0.0708 -0.1364  0.9347
  653MOL0     H88136   3.366   1.157   9.860 -2.2341  2.7646  0.5341
  653MOL0     H88137   3.936   0.438  10.375  1.0013 -1.9063  1.2937
  653MOL0     H88138   4.136   0.354  10.478 -1.4809  0.0934 -1.8279
  653MOL0     H88139   4.546   0.327  10.479 -0.0716 -1.3149  0.5243
  653MOL0     H88140   4.803   0.354  10.470  0.9151  0.0665  0.1790
  653MOL0     H88141   6.521   0.156   9.712 -3.9707 -2.7927 -1.6222
  653MOL0     H88142   6.742   0.181   9.655 -1.7680  0.9222  0.8278
  653MOL0     H88143   7.197   0.256   9.778 -0.4009 -1.2042  0.6255
  653MOL0     H88144   7.437   0.249   9.750  0.3757 -0.1571 -0.0013
  653MOL0     H88145   7.673  -0.127   9.715 -0.0636 -1.0832 -0.4168
  653MOL0     H88146   7.606  -0.130   9.549  1.6423 -0.9339 -1.0739
  653MOL0     H88147   7.879  -0.075   9.563 -1.0183 -2.4585 -2.2277
  653MOL0     H88148   7.818   0.082   9.598  0.2491 -0.3011  0.9211
  653MOL0     H88149   7.659   0.004   9.376  0.3349 -0.5090 -3.9505
  653MOL0     H88150   7.812  -0.089   9.348  2.0674  1.2163  1.2749
  653MOL0     H88151   7.781   0.197   9.358  1.7728  1.9123 -1.5545
  653MOL0     H88152   7.827   0.100   9.218  3.1012 -0.4286 -0.4966
  653MOL0     H88153   8.190   0.177   9.430 -1.6916  2.1364 -0.3748
  653MOL0     H88154   7.398  -0.164   9.615  0.0199 -0.5705  0.4683
  653MOL0     H88155   7.172  -0.153   9.650  2.4468 -1.9882  2.5982
  654MOL0     O88156  10.166   7.379   1.234 -0.8937 -0.1601 -0.6614
  654MOL0     C88157  10.202   7.344   1.346 -0.3446 -0.4441 -0.1750
  654MOL0     O88158  10.121   7.300   1.441 -0.3698 -0.0889  0.3690
  654MOL0     C88159   9.987   7.310   1.427 -0.7773  0.0359 -0.9168
  654MOL0     C88160   9.913   7.209   1.496 -0.3279 -0.2299 -0.5484
  654MOL0     C88161   9.774   7.219   1.506  0.1712 -0.4365  0.7871
  654MOL0     C88162   9.701   7.317   1.433 -0.6499 -1.9799 -0.6354
  654MOL0     O88163   9.562   7.312   1.431 -0.1059  0.4556 -0.0611
  654MOL0     C88164   9.491   7.417   1.356  0.2536  0.7575  0.4799
  654MOL0     C88165   9.337   7.404   1.385 -0.1551 -0.2280 -0.9786
  654MOL0     C88166   9.283   7.268   1.315  0.2317 -0.4165  0.3227
  654MOL0     C88167   9.202   7.190   1.413 -0.0878 -0.8671 -0.1330
  654MOL0     C88168   9.163   7.053   1.362  0.3021  0.0052  0.8779
  654MOL0     C88169   9.055   6.986   1.449 -0.5924 -0.3903 -0.6448
  654MOL0     C88170   9.008   6.850   1.388 -0.0909 -0.0090 -0.0239
  654MOL0     C88171   8.896   6.883   1.284 -0.2815 -0.0022  0.0673
  654MOL0     N88172   8.863   6.756   1.224  0.3850 -0.4209 -0.4194
  654MOL0     C88173   8.906   6.704   1.103 -0.1720  0.1728  0.4707
  654MOL0     C88174   8.870   6.576   1.106 -0.1515  0.5337 -0.1201
  654MOL0     C88175   8.899   6.479   0.994  0.1640 -0.7867 -0.2199
  654MOL0     C88176   9.043   6.434   0.998 -0.1880 -0.3465  0.5821
  654MOL0     C88177   9.078   6.320   0.894 -0.0038 -0.3913  0.9440
  654MOL0     C88178   8.987   6.195   0.899 -1.2067 -0.2632  0.1420
  654MOL0     O88179   8.951   6.153   0.772  0.1610 -0.2789  0.2718
  654MOL0     C88180   8.817   6.159   0.744 -0.1465  0.3649 -0.5491
  654MOL0     C88181   8.759   6.039   0.707  0.3527 -0.4033 -0.5983
  654MOL0     C88182   8.627   6.037   0.646 -0.1308  0.0014  0.3035
  654MOL0     C88183   8.603   5.905   0.580  0.1363 -0.0843  0.8504
  654MOL0     C88184   8.547   6.149   0.647 -0.5028  0.1574 -0.0579
  654MOL0     C88185   8.404   6.145   0.622  0.0953 -0.9915 -0.0046
  654MOL0     O88186   8.337   6.027   0.601  0.1938  0.3925  0.1686
  654MOL0     C88187   8.203   6.016   0.567  0.4472 -0.1390  0.8264
  654MOL0     C88188   8.122   6.111   0.500 -0.3920  0.4087 -0.3664
  654MOL0     C88189   7.992   6.061   0.466 -0.3093 -0.4482  0.2316
  654MOL0     C88190   7.938   5.929   0.489  0.1766 -0.0628 -0.0489
  654MOL0     O88191   7.805   5.894   0.446  0.1850 -0.0909 -0.1241
  654MOL0     C88192   7.772   5.943   0.316 -0.9146 -0.3243  0.3169
  654MOL0     C88193   7.680   5.836   0.246  0.1300 -0.0769 -0.0027
  654MOL0     C88194   7.527   5.857   0.282  0.1571 -0.1974  1.0675
  654MOL0     C88195   7.453   5.934   0.169  0.0864  0.1240  0.6550
  654MOL0     C88196   7.300   5.943   0.210  0.3265 -0.2415  0.3968
  654MOL0     C88197   7.209   6.012   0.103 -0.5791 -0.1965 -0.1303
  654MOL0     C88198   7.082   6.077   0.163  0.1629  0.2965 -0.2886
  654MOL0     C88199   6.980   5.975   0.219  0.0565  0.2908 -0.1389
  654MOL0    Cl88200   7.035   5.892   0.378 -0.0557 -0.0006  0.0108
  654MOL0     C88201   8.026   5.844   0.548 -0.2245  0.0796  0.5845
  654MOL0     C88202   8.158   5.881   0.581  0.3053  0.4596 -0.2971
  654MOL0     O88203   8.344   6.250   0.627 -0.3793 -0.3466 -0.4591
  654MOL0     C88204   8.600   6.264   0.707 -0.0966 -0.1328 -0.4331
  654MOL0     C88205   8.733   6.271   0.746 -0.1985  0.0508 -0.0211
  654MOL0     N88206   8.798   6.550   1.218 -0.3024 -0.2033 -0.0086
  654MOL0     N88207   8.795   6.657   1.291  0.0012  0.4915 -0.2582
  654MOL0     C88208   9.783   7.404   1.361 -0.1908 -0.7725  0.4908
  654MOL0     C88209   9.919   7.419   1.365  0.3863  0.0147 -0.3786
  654MOL0     C88210  10.347   7.355   1.392  0.4064  0.4056 -0.5595
  654MOL0     C88211  10.403   7.268   1.502  0.0458 -1.1576 -0.5308
  654MOL0     C88212  10.533   7.289   1.543 -0.3293 -0.7279  0.0541
  654MOL0     C88213  10.618   7.378   1.480 -0.0466 -0.5881  1.3112
  654MOL0     O88214  10.748   7.398   1.512  0.3390 -0.6013  0.7550
  654MOL0     C88215  10.796   7.333   1.627  0.7570 -0.4838 -0.3092
  654MOL0     C88216  10.942   7.351   1.647  0.4317  0.4809  0.6565
  654MOL0     C88217  11.021   7.334   1.515 -0.3455 -0.5814 -0.3681
  654MOL0     C88218  11.172   7.337   1.533 -0.0894  0.3735 -0.0642
  654MOL0     C88219  11.227   7.469   1.569  0.3852  0.7714 -0.1851
  654MOL0     C88220  11.278   7.575   1.593 -0.4462  0.2523 -0.5497
  654MOL0     C88221  10.565   7.452   1.372  0.6036 -0.2739  0.0090
  654MOL0     C88222  10.432   7.446   1.326 -0.2597 -0.1679  0.0972
  654MOL0     H88223   9.956   7.124   1.547  0.2517  0.0953 -0.4893
  654MOL0     H88224   9.711   7.153   1.565  0.5626 -0.2357  1.4383
  654MOL0     H88225   9.527   7.513   1.393  0.1523 -0.0581  2.8596
  654MOL0     H88226   9.503   7.404   1.248 -2.2797  1.2892  0.0598
  654MOL0     H88227   9.322   7.426   1.491  2.6885 -0.1751 -0.5001
  654MOL0     H88228   9.290   7.492   1.339  0.8121  0.6808 -0.2848
  654MOL0     H88229   9.218   7.292   1.230 -3.2269 -0.6969  2.7022
  654MOL0     H88230   9.372   7.219   1.276  0.6445 -0.5257  1.3999
  654MOL0     H88231   9.264   7.178   1.502  0.8002  1.4240 -0.3957
  654MOL0     H88232   9.115   7.251   1.438 -0.2136 -0.8190 -0.6696
  654MOL0     H88233   9.125   7.061   1.259  2.0977  1.4924  0.2814
  654MOL0     H88234   9.254   6.993   1.356  0.6044  0.5595 -0.4080
  654MOL0     H88235   9.094   6.961   1.547  0.3227 -3.9979 -1.7687
  654MOL0     H88236   8.974   7.060   1.461  0.2983  0.8589 -1.9735
  654MOL0     H88237   9.090   6.787   1.351 -1.4785 -2.0815  0.2527
  654MOL0     H88238   8.967   6.798   1.475  3.3222  1.2165  2.5796
  654MOL0     H88239   8.932   6.950   1.205 -0.8707 -2.1321 -2.1130
  654MOL0     H88240   8.804   6.930   1.320 -2.2028 -0.0345 -4.2001
  654MOL0     H88241   8.970   6.747   1.026  1.3298 -1.8723  0.4957
  654MOL0     H88242   8.838   6.390   1.011  1.7370 -2.7678 -3.7455
  654MOL0     H88243   8.876   6.537   0.904  0.0259 -1.0145 -0.3326
  654MOL0     H88244   9.077   6.400   1.096  1.2990 -2.2075 -0.4961
  654MOL0     H88245   9.108   6.522   0.989 -0.7307  0.2177  1.9366
  654MOL0     H88246   9.185   6.294   0.893 -0.3624 -2.1058 -1.2620
  654MOL0     H88247   9.072   6.368   0.796  0.8578  0.0025  1.0795
  654MOL0     H88248   8.896   6.211   0.958 -1.3427  1.0091 -0.3734
  654MOL0     H88249   9.047   6.117   0.946  0.2831 -2.5031 -4.7935
  654MOL0     H88250   8.832   5.959   0.701 -0.6018 -1.2653 -1.0079
  654MOL0     H88251   8.528   5.841   0.628 -3.7912  2.4978 -1.2503
  654MOL0     H88252   8.565   5.935   0.482  1.4376  2.0227  0.9304
  654MOL0     H88253   8.699   5.858   0.559 -0.0092  0.0730 -0.1869
  654MOL0     H88254   8.148   6.211   0.469  1.2753  0.1124 -0.0064
  654MOL0     H88255   7.925   6.131   0.418 -0.8448  0.3855  2.1350
  654MOL0     H88256   7.716   6.036   0.305 -1.6158 -0.9112 -1.4296
  654MOL0     H88257   7.863   5.957   0.257 -1.7606 -2.3839 -1.6194
  654MOL0     H88258   7.704   5.835   0.140  1.4893  0.2796  0.2809
  654MOL0     H88259   7.703   5.738   0.290 -0.5160  1.0219  3.0507
  654MOL0     H88260   7.511   5.905   0.379 -0.8506  1.0771  0.2938
  654MOL0     H88261   7.482   5.757   0.290  1.0147 -0.4777  3.0400
  654MOL0     H88262   7.494   6.035   0.168  2.7631 -0.8899 -0.2771
  654MOL0     H88263   7.470   5.891   0.070 -1.4583 -0.9087  0.8015
  654MOL0     H88264   7.280   6.007   0.297  0.2203  2.7519 -1.6597
  654MOL0     H88265   7.270   5.842   0.240  1.4682 -0.4824  0.7889
  654MOL0     H88266   7.259   6.087   0.041 -2.0835  1.4719  0.5525
  654MOL0     H88267   7.164   5.941   0.034 -1.5288  1.7656 -1.6529
  654MOL0     H88268   7.028   6.128   0.083 -0.1364 -2.3727 -1.8971
  654MOL0     H88269   7.106   6.155   0.235 -0.9925  2.6059 -2.2566
  654MOL0     H88270   6.978   5.892   0.148  0.1659  1.3613 -1.4168
  654MOL0     H88271   6.884   6.027   0.225 -0.0812  0.0424 -0.1474
  654MOL0     H88272   7.998   5.741   0.565  0.4246 -0.5357 -1.6676
  654MOL0     H88273   8.218   5.798   0.618  0.5403  1.1525  0.9208
  654MOL0     H88274   8.543   6.351   0.739  1.6940  1.4954 -1.4398
  654MOL0     H88275   8.774   6.362   0.790 -0.6620  0.5221 -0.5497
  654MOL0     H88276   9.735   7.483   1.303 -1.6948 -0.7745  1.6737
  654MOL0     H88277   9.971   7.503   1.321 -0.7050  0.5249 -0.7203
  654MOL0     H88278  10.336   7.198   1.552 -0.4610 -2.0367 -2.3434
  654MOL0     H88279  10.565   7.222   1.623  2.2427 -0.6182 -0.7738
  654MOL0     H88280  10.741   7.368   1.715 -0.1285  0.3269 -1.1568
  654MOL0     H88281  10.786   7.226   1.610  0.4319 -0.1661 -2.4674
  654MOL0     H88282  10.980   7.279   1.720  0.8837  1.6139  1.5808
  654MOL0     H88283  10.972   7.448   1.688  0.2533  0.9271 -0.2349
  654MOL0     H88284  10.986   7.414   1.449  1.9014  0.3703 -0.4974
  654MOL0     H88285  10.994   7.239   1.468 -2.0788 -0.9964  1.3343
  654MOL0     H88286  11.217   7.308   1.437  1.6417 -0.3419  0.9084
  654MOL0     H88287  11.196   7.270   1.616 -1.4923 -1.5556 -1.1084
  654MOL0     H88288  11.323   7.671   1.605  0.3735 -0.1935  0.0432
  654MOL0     H88289  10.629   7.526   1.323  1.9813  0.7319  3.0670
  654MOL0     H88290  10.408   7.518   1.248  1.5199  0.8177  0.3980
  655MOL0     O88291   1.590   7.438  10.566 -0.3693  0.5084  0.2756
  655MOL0     C88292   1.655   7.544  10.579  0.7078  0.2149  0.4991
  655MOL0     O88293   1.608   7.668  10.570 -0.1263 -0.0589  0.1435
  655MOL0     C88294   1.478   7.674  10.535  0.6339 -0.1309  0.1984
  655MOL0     C88295   1.384   7.687  10.643  0.4842  0.6152  0.4371
  655MOL0     C88296   1.245   7.675  10.603  0.4767 -0.4515  1.0106
  655MOL0     C88297   1.203   7.658  10.472 -0.5222 -0.1265 -0.7283
  655MOL0     O88298   1.070   7.658  10.450 -0.2528  0.4120  0.3385
  655MOL0     C88299   1.020   7.668  10.316 -0.1525  0.2428  0.9409
  655MOL0     C88300   0.861   7.638  10.316 -0.5494  0.0342  0.0107
  655MOL0     C88301   0.797   7.664  10.182 -0.0406 -0.2017 -1.0095
  655MOL0     C88302   0.657   7.604  10.177  0.6585 -0.4508 -0.2529
  655MOL0     C88303   0.590   7.610  10.045  0.8174 -0.7387  0.2299
  655MOL0     C88304   0.609   7.739   9.973 -0.7461 -1.1790  0.3304
  655MOL0     C88305   0.537   7.743   9.835  0.3037  0.1183 -0.7172
  655MOL0     C88306   0.385   7.777   9.866  0.1401  0.5112 -0.8025
  655MOL0     N88307   0.311   7.780   9.741 -0.7091 -0.2786  0.3743
  655MOL0     C88308   0.322   7.879   9.648  0.0037 -0.5216  0.0518
  655MOL0     C88309   0.224   7.853   9.558  0.3087  0.2139  0.4264
  655MOL0     C88310   0.196   7.935   9.440  0.2169 -0.5304 -0.0117
  655MOL0     C88311   0.061   7.995   9.449 -0.1860  0.4068  0.0745
  655MOL0     C88312  -0.040   7.914   9.364  0.1048  0.0393 -0.2023
  655MOL0     C88313  -0.184   7.964   9.370  0.2967 -0.6417  0.1292
  655MOL0     O88314  -0.236   7.948   9.500  0.1603  0.1749  0.3801
  655MOL0     C88315  -0.362   8.004   9.522  0.0686 -1.7426 -0.7444
  655MOL0     C88316  -0.358   8.106   9.608  0.4358 -0.2560 -0.7848
  655MOL0     C88317  -0.476   8.180   9.637 -0.2085 -0.9914  0.1346
  655MOL0     C88318  -0.450   8.302   9.728 -0.3956 -0.3807  0.5155
  655MOL0     C88319  -0.604   8.133   9.594 -0.4121  0.0490  0.0576
  655MOL0     C88320  -0.739   8.192   9.636  0.1621 -0.1798  0.1258
  655MOL0     O88321  -0.846   8.108   9.618  0.4052 -0.3722 -0.3207
  655MOL0     C88322  -0.970   8.150   9.637  0.3155  1.0198  0.0705
  655MOL0     C88323  -1.008   8.227   9.748 -0.6885  0.2300 -0.2004
  655MOL0     C88324  -1.151   8.247   9.778 -0.4398  0.2191  0.7880
  655MOL0     C88325  -1.243   8.190   9.687  0.8667 -0.7190 -0.9226
  655MOL0     O88326  -1.381   8.202   9.699  0.9649 -0.3595 -0.0565
  655MOL0     C88327  -1.447   8.254   9.815 -0.8939  0.2988 -0.2810
  655MOL0     C88328  -1.592   8.203   9.849 -0.5040  0.7237  0.0160
  655MOL0     C88329  -1.688   8.272   9.752 -0.0417  0.6603 -0.3125
  655MOL0     C88330  -1.827   8.212   9.778 -0.2360  0.6303 -0.7055
  655MOL0     C88331  -1.935   8.287   9.697  0.6255  0.2640  0.5124
  655MOL0     C88332  -2.077   8.257   9.760 -0.0957  0.2755  0.4613
  655MOL0     C88333  -2.205   8.313   9.685  0.0295  0.3430 -0.3206
  655MOL0     C88334  -2.251   8.242   9.555  0.5536 -0.1607  0.1240
  655MOL0    Cl88335  -2.418   8.272   9.508 -0.3332 -0.2042  0.0505
  655MOL0     C88336  -1.204   8.113   9.583  0.3222  0.2801 -0.1450
  655MOL0     C88337  -1.074   8.082   9.560 -0.6455 -0.0663  0.0160
  655MOL0     O88338  -0.743   8.305   9.677  0.1620 -0.8851  0.2531
  655MOL0     C88339  -0.610   8.032   9.495  0.2567 -0.5410  0.4859
  655MOL0     C88340  -0.481   7.975   9.457  1.2741  0.1354  0.9422
  655MOL0     N88341   0.166   7.735   9.596  0.4568  0.1374  1.0720
  655MOL0     N88342   0.208   7.701   9.714 -0.3252 -0.0601  0.2664
  655MOL0     C88343   1.303   7.664  10.368 -0.1429 -0.3283 -0.0611
  655MOL0     C88344   1.446   7.672  10.405  0.7279  0.3614  0.4859
  655MOL0     C88345   1.801   7.524  10.605 -0.0185  0.5510 -0.7277
  655MOL0     C88346   1.890   7.634  10.610 -0.5417 -0.4388  0.2381
  655MOL0     C88347   2.029   7.615  10.629  0.4368  0.2814 -0.7294
  655MOL0     C88348   2.084   7.485  10.658 -0.0788  0.0757 -0.2327
  655MOL0     O88349   2.218   7.477  10.685  0.6623 -0.9507 -0.2582
  655MOL0     C88350   2.265   7.354  10.746  0.0867 -0.0916 -0.0573
  655MOL0     C88351   2.414   7.339  10.742  0.3661  0.1713  0.2958
  655MOL0     C88352   2.475   7.350  10.595  0.1824  0.6753 -0.1277
  655MOL0     C88353   2.531   7.485  10.562  0.5664 -0.0777 -0.3404
  655MOL0     C88354   2.644   7.525  10.648 -0.6494  0.9001 -0.2208
  655MOL0     C88355   2.739   7.554  10.721 -0.5231  0.2043  0.0168
  655MOL0     C88356   1.989   7.381  10.677  0.3922 -0.1176  0.3388
  655MOL0     C88357   1.853   7.396  10.638 -0.2042  0.0912  0.0635
  655MOL0     H88358   1.400   7.679  10.750  0.5055 -1.4616  0.3226
  655MOL0     H88359   1.179   7.699  10.685 -0.3212 -2.2054  0.9266
  655MOL0     H88360   1.040   7.771  10.286 -2.5875  0.3868 -0.3941
  655MOL0     H88361   1.074   7.602  10.248 -1.5016  0.1337 -0.0457
  655MOL0     H88362   0.850   7.541  10.366  2.6367  0.2378  1.3616
  655MOL0     H88363   0.815   7.707  10.388 -1.7242 -0.3897 -0.3117
  655MOL0     H88364   0.794   7.771  10.161  0.1904 -0.0683 -0.4021
  655MOL0     H88365   0.861   7.615  10.109 -1.0467 -0.7643 -1.5387
  655MOL0     H88366   0.662   7.501  10.211 -1.4688 -0.5301 -0.0365
  655MOL0     H88367   0.594   7.664  10.244 -1.2605 -2.1121 -0.4810
  655MOL0     H88368   0.639   7.535   9.982  0.0810  0.7010 -2.2225
  655MOL0     H88369   0.486   7.577  10.056 -0.2035  2.0579 -0.1260
  655MOL0     H88370   0.575   7.823  10.035  2.3626  2.8236 -2.8325
  655MOL0     H88371   0.715   7.755   9.952 -0.9983  1.3360  0.6521
  655MOL0     H88372   0.579   7.818   9.768 -0.2770  1.5270  0.4398
  655MOL0     H88373   0.539   7.647   9.782  1.7529  1.4251 -3.1958
  655MOL0     H88374   0.378   7.873   9.919 -0.3894 -0.0269  0.1255
  655MOL0     H88375   0.341   7.698   9.927  0.1605 -1.8575 -3.6140
  655MOL0     H88376   0.382   7.970   9.651 -2.4929  1.2146  2.5521
  655MOL0     H88377   0.281   8.003   9.449  1.1885 -1.5843 -0.8869
  655MOL0     H88378   0.212   7.878   9.348  6.6798 -0.1850  0.4748
  655MOL0     H88379   0.058   8.096   9.406 -2.2962 -0.0219 -0.8880
  655MOL0     H88380   0.032   8.017   9.552  0.6322  3.1248 -0.1881
  655MOL0     H88381  -0.032   7.808   9.388  0.1781 -0.6858 -3.0666
  655MOL0     H88382  -0.010   7.923   9.259  0.5155  1.4209  0.0192
  655MOL0     H88383  -0.244   7.927   9.287  1.3838  0.1393 -1.0445
  655MOL0     H88384  -0.165   8.071   9.360  1.2745 -0.8344 -0.1469
  655MOL0     H88385  -0.261   8.134   9.648  1.2950 -3.0459 -0.7062
  655MOL0     H88386  -0.350   8.298   9.772 -0.7447  0.4997  1.4301
  655MOL0     H88387  -0.471   8.392   9.670 -2.0632 -0.3299  1.1486
  655MOL0     H88388  -0.517   8.284   9.812 -0.5592 -1.4811  0.1640
  655MOL0     H88389  -0.942   8.272   9.821 -1.5245 -1.1112  1.4881
  655MOL0     H88390  -1.183   8.295   9.870 -3.1256  1.5564 -0.7392
  655MOL0     H88391  -1.387   8.234   9.905  0.4512  0.4427 -1.1114
  655MOL0     H88392  -1.453   8.363   9.813 -0.2485  0.4507  2.3566
  655MOL0     H88393  -1.604   8.095   9.837  1.8921  0.5151 -0.9783
  655MOL0     H88394  -1.623   8.220   9.952  1.7232  1.8561  0.5413
  655MOL0     H88395  -1.664   8.248   9.648  3.0304  5.0365 -0.8605
  655MOL0     H88396  -1.688   8.377   9.782 -3.8195  1.0448 -1.1437
  655MOL0     H88397  -1.841   8.105   9.757  0.2746 -0.6052  3.9748
  655MOL0     H88398  -1.852   8.220   9.884 -2.7471 -0.8337 -1.1102
  655MOL0     H88399  -1.925   8.255   9.594  0.1665 -1.4389  0.9681
  655MOL0     H88400  -1.914   8.394   9.697 -0.2654  0.4467  0.8474
  655MOL0     H88401  -2.103   8.151   9.764 -3.8339  0.8110 -2.9027
  655MOL0     H88402  -2.069   8.304   9.858 -0.2083  1.6272 -0.1558
  655MOL0     H88403  -2.189   8.416   9.652 -0.0197  0.9032  1.3364
  655MOL0     H88404  -2.290   8.323   9.753 -0.0839 -1.7153 -0.1165
  655MOL0     H88405  -2.232   8.134   9.566 -0.3066 -0.2106  1.2413
  655MOL0     H88406  -2.187   8.275   9.473 -1.0569  2.4061 -0.1867
  655MOL0     H88407  -1.267   8.056   9.516  0.6847  0.5902 -0.7553
  655MOL0     H88408  -1.035   8.012   9.486  0.3706 -2.3863  2.5916
  655MOL0     H88409  -0.693   7.994   9.437  1.2968  0.7592 -2.0540
  655MOL0     H88410  -0.492   7.904   9.376  2.3568  0.5782  0.3838
  655MOL0     H88411   1.265   7.670  10.267 -0.5223  1.3580  0.1502
  655MOL0     H88412   1.531   7.672  10.338  1.4133  0.3496  1.3362
  655MOL0     H88413   1.865   7.738  10.591 -0.5996 -0.5854 -0.5204
  655MOL0     H88414   2.096   7.700  10.621  3.0252 -1.3210  1.9536
  655MOL0     H88415   2.232   7.347  10.850 -0.0805 -3.0942 -0.2463
  655MOL0     H88416   2.216   7.278  10.684  0.5390 -0.0982 -0.4179
  655MOL0     H88417   2.429   7.240  10.787  1.1776  1.1553  2.3360
  655MOL0     H88418   2.472   7.400  10.813  0.9745 -2.2094  1.9814
  655MOL0     H88419   2.399   7.318  10.523  1.6503 -0.9433 -1.0242
  655MOL0     H88420   2.545   7.267  10.584 -0.3858  0.3580 -1.5591
  655MOL0     H88421   2.458   7.566  10.564  0.6993  0.0553  1.5885
  655MOL0     H88422   2.569   7.485  10.459  1.0011 -0.9343 -0.1895
  655MOL0     H88423   2.818   7.568  10.791 -1.8229 -0.2874  1.6511
  655MOL0     H88424   2.010   7.279  10.709  3.4812  0.1773 -0.4177
  655MOL0     H88425   1.791   7.308  10.627  1.4837 -1.2652  0.9659
  656MOL0     O88426   1.735   1.430   5.006  0.3018 -0.7444 -0.1242
  656MOL0     C88427   1.789   1.519   4.939 -0.2483  0.8643  0.1148
  656MOL0     O88428   1.742   1.588   4.839 -0.2778  0.4629  0.0667
  656MOL0     C88429   1.604   1.599   4.826 -0.7186 -0.1776 -0.2182
  656MOL0     C88430   1.529   1.494   4.774 -1.0879 -0.9674  0.5802
  656MOL0     C88431   1.396   1.498   4.734 -0.3201  0.1909  0.0016
  656MOL0     C88432   1.319   1.618   4.756  0.2858 -0.0365 -0.0551
  656MOL0     O88433   1.193   1.618   4.700  0.7784 -0.0377  0.3012
  656MOL0     C88434   1.135   1.746   4.681  0.6373 -0.6393  0.0722
  656MOL0     C88435   1.000   1.749   4.617  0.6016 -0.1488 -0.2956
  656MOL0     C88436   0.944   1.889   4.591 -0.6273 -0.5946  0.3888
  656MOL0     C88437   0.837   1.888   4.482  0.2551  0.6111 -0.5910
  656MOL0     C88438   0.817   2.020   4.415  0.2629 -0.9087  0.9043
  656MOL0     C88439   0.933   2.062   4.313  0.4432  1.1283  0.3944
  656MOL0     C88440   0.921   2.193   4.243  0.5454 -0.1974  0.2375
  656MOL0     C88441   0.907   2.320   4.325 -0.1337 -0.0182  0.6749
  656MOL0     N88442   1.031   2.349   4.397  0.2044  0.0658  0.0562
  656MOL0     C88443   1.130   2.439   4.360  0.0676  0.8846 -0.6170
  656MOL0     C88444   1.217   2.431   4.464 -0.4911 -0.5146  1.2247
  656MOL0     C88445   1.348   2.519   4.471  0.0626  0.5745  0.4588
  656MOL0     C88446   1.396   2.521   4.620 -0.7061  0.3500 -0.3470
  656MOL0     C88447   1.486   2.647   4.648  0.0180  0.3589 -0.2951
  656MOL0     C88448   1.629   2.635   4.600 -0.0200 -0.8144  0.7581
  656MOL0     O88449   1.711   2.538   4.662 -0.5066  0.2690  0.0100
  656MOL0     C88450   1.807   2.572   4.755  0.3164 -1.0171  0.6709
  656MOL0     C88451   1.811   2.699   4.814 -0.0527  0.3951 -0.1059
  656MOL0     C88452   1.905   2.732   4.908 -0.6390 -0.3278 -0.1315
  656MOL0     C88453   1.886   2.864   4.977  0.2794 -0.5016  0.2230
  656MOL0     C88454   2.010   2.644   4.932 -0.2960  0.8238 -0.4222
  656MOL0     C88455   2.107   2.672   5.039 -1.0631  0.0461 -0.0993
  656MOL0     O88456   2.060   2.736   5.148 -0.1431  0.3828 -0.1647
  656MOL0     C88457   2.137   2.724   5.261 -0.4976 -0.2835  0.3695
  656MOL0     C88458   2.169   2.843   5.326  0.3784 -0.0897 -0.6682
  656MOL0     C88459   2.261   2.834   5.431  0.4751 -0.5694  0.6519
  656MOL0     C88460   2.315   2.713   5.480  0.5473 -0.3691  0.2321
  656MOL0     O88461   2.400   2.720   5.590 -0.2592  0.1509 -0.2138
  656MOL0     C88462   2.413   2.612   5.677 -0.1762  0.3260 -0.6137
  656MOL0     C88463   2.477   2.648   5.811  0.3946 -0.4836  0.1720
  656MOL0     C88464   2.631   2.700   5.811  1.2446 -0.2523  0.5728
  656MOL0     C88465   2.666   2.764   5.949  0.7819 -0.7368  0.1187
  656MOL0     C88466   2.666   2.912   5.946  0.3603 -0.4911 -0.2545
  656MOL0     C88467   2.706   2.962   6.082  0.9712  0.2734 -0.3753
  656MOL0     C88468   2.743   3.116   6.074  0.2669  0.4687 -0.3820
  656MOL0     C88469   2.798   3.168   6.207 -0.1128 -0.7368  0.3298
  656MOL0    Cl88470   2.955   3.110   6.210  0.1944  0.0348 -0.1259
  656MOL0     C88471   2.284   2.593   5.413  0.1926  0.3274  0.6546
  656MOL0     C88472   2.197   2.600   5.307  1.2086  0.1402 -0.7175
  656MOL0     O88473   2.222   2.628   5.025 -0.8161 -0.0104 -0.4173
  656MOL0     C88474   2.026   2.521   4.862  0.8064  0.0226 -0.5095
  656MOL0     C88475   1.921   2.491   4.774  0.6390  0.5073 -0.3735
  656MOL0     N88476   1.161   2.344   4.559  0.0011  0.0312  0.4943
  656MOL0     N88477   1.047   2.291   4.517  0.5911  0.5133 -0.0790
  656MOL0     C88478   1.390   1.725   4.827 -0.3963  0.4811  0.5114
  656MOL0     C88479   1.531   1.716   4.851 -0.8552 -1.0859 -0.7035
  656MOL0     C88480   1.932   1.553   4.984  0.7430 -0.7900  0.8313
  656MOL0     C88481   2.010   1.459   5.049 -0.7734 -0.1407  0.6636
  656MOL0     C88482   2.141   1.478   5.087  0.8290  0.1101  1.1271
  656MOL0     C88483   2.200   1.601   5.059  0.5582  0.0113  0.0499
  656MOL0     O88484   2.330   1.615   5.097 -0.0681  0.3132  0.3581
  656MOL0     C88485   2.408   1.734   5.060 -0.3335  0.0718  0.9027
  656MOL0     C88486   2.560   1.731   5.105  0.9202 -0.1671  0.1467
  656MOL0     C88487   2.623   1.868   5.052  1.4116  0.8357  0.1454
  656MOL0     C88488   2.768   1.862   5.068 -0.2246  0.1063  0.0352
  656MOL0     C88489   2.830   1.971   4.999 -0.4419 -0.3091  0.1199
  656MOL0     C88490   2.867   2.074   4.940 -0.5754  0.0465 -1.0864
  656MOL0     C88491   2.124   1.702   5.003  0.6791 -0.6299  1.1596
  656MOL0     C88492   1.987   1.679   4.959  0.4330 -0.3243 -0.1898
  656MOL0     H88493   1.580   1.398   4.767  3.5965  1.3156 -0.1041
  656MOL0     H88494   1.348   1.413   4.688  0.0845  0.3526 -0.7351
  656MOL0     H88495   1.131   1.792   4.781  1.4921  0.8718 -0.5497
  656MOL0     H88496   1.201   1.808   4.620  2.4594 -0.1244  2.4319
  656MOL0     H88497   1.008   1.706   4.517  0.6642  0.3655 -0.5140
  656MOL0     H88498   0.934   1.695   4.686 -0.9591 -0.5393 -2.0163
  656MOL0     H88499   0.906   1.940   4.680  2.8762  0.7470  1.2533
  656MOL0     H88500   1.032   1.943   4.556 -1.7213 -0.9008 -3.2817
  656MOL0     H88501   0.861   1.820   4.400  3.7516 -0.2334  0.9491
  656MOL0     H88502   0.747   1.848   4.530  0.7068  0.0249 -0.2107
  656MOL0     H88503   0.716   2.012   4.375 -0.7778  2.5129  2.4415
  656MOL0     H88504   0.818   2.103   4.486  0.5522 -1.7240  1.8856
  656MOL0     H88505   1.033   2.058   4.357  1.4654 -0.0138 -1.8510
  656MOL0     H88506   0.924   1.968   4.256  2.7418 -2.2253  4.9015
  656MOL0     H88507   1.010   2.205   4.179 -1.7895  2.7282 -2.8163
  656MOL0     H88508   0.845   2.186   4.164  0.6331  4.5522 -0.5772
  656MOL0     H88509   0.818   2.304   4.386 -0.7642  0.7312 -0.0226
  656MOL0     H88510   0.885   2.399   4.252  0.8424 -0.9274 -0.6350
  656MOL0     H88511   1.142   2.512   4.280  1.0143  3.0983  1.4087
  656MOL0     H88512   1.432   2.480   4.414  0.8118  2.3190  0.3061
  656MOL0     H88513   1.332   2.620   4.434 -1.4018  0.5155  0.8667
  656MOL0     H88514   1.455   2.432   4.643 -0.9348  0.2521 -0.1358
  656MOL0     H88515   1.310   2.512   4.686  0.1343 -0.9100  0.6284
  656MOL0     H88516   1.498   2.661   4.755 -2.8489 -1.8129  0.4545
  656MOL0     H88517   1.452   2.739   4.600  4.1493  1.7821 -0.9047
  656MOL0     H88518   1.681   2.730   4.614  0.0268 -1.2228  3.9964
  656MOL0     H88519   1.627   2.614   4.492 -0.6436  1.0298  0.3605
  656MOL0     H88520   1.727   2.765   4.797  0.3151  0.7377 -0.6367
  656MOL0     H88521   1.981   2.919   4.972  1.6859 -2.8578 -0.8133
  656MOL0     H88522   1.817   2.931   4.925 -1.1261 -0.3464  2.1566
  656MOL0     H88523   1.840   2.850   5.075 -3.4088  0.6044 -1.1575
  656MOL0     H88524   2.111   2.935   5.322  1.3883  0.5325 -1.6166
  656MOL0     H88525   2.297   2.925   5.477 -1.0372  1.4036 -1.8344
  656MOL0     H88526   2.315   2.576   5.710 -0.8882  0.6908 -2.2317
  656MOL0     H88527   2.471   2.530   5.633  0.7096 -0.0926  1.2186
  656MOL0     H88528   2.407   2.709   5.869  0.0251 -1.5936  0.9267
  656MOL0     H88529   2.471   2.557   5.871  0.1078 -1.6270 -1.4974
  656MOL0     H88530   2.633   2.768   5.725  0.9853 -4.7562 -3.4050
  656MOL0     H88531   2.695   2.613   5.792  0.3213 -1.0859  1.1674
  656MOL0     H88532   2.601   2.734   6.031  0.2596  0.1226  0.0248
  656MOL0     H88533   2.768   2.730   5.972  1.4729  1.5352  0.6046
  656MOL0     H88534   2.564   2.940   5.919  0.1706 -3.6061 -3.3132
  656MOL0     H88535   2.731   2.961   5.873  1.4015 -1.7475 -0.2102
  656MOL0     H88536   2.616   2.952   6.143 -0.1043 -1.6470 -2.1264
  656MOL0     H88537   2.784   2.892   6.114  0.1771 -0.0843  0.8337
  656MOL0     H88538   2.657   3.180   6.054 -1.1755 -0.9621  0.9817
  656MOL0     H88539   2.810   3.138   5.990 -1.0420  1.9800 -1.0776
  656MOL0     H88540   2.729   3.130   6.283 -0.5877  0.9846  0.7879
  656MOL0     H88541   2.799   3.277   6.213 -2.2170 -0.7093  0.8966
  656MOL0     H88542   2.326   2.506   5.463 -0.3563  1.3864  3.1235
  656MOL0     H88543   2.181   2.506   5.254 -1.3676  0.3475 -0.4242
  656MOL0     H88544   2.101   2.444   4.882  2.3319  1.8268  1.0616
  656MOL0     H88545   1.931   2.405   4.709  3.0101  0.3033  0.1510
  656MOL0     H88546   1.333   1.816   4.839 -0.3560  0.6451 -0.4458
  656MOL0     H88547   1.582   1.802   4.893  0.0807 -1.7198 -0.4926
  656MOL0     H88548   1.974   1.358   5.070  2.5323 -1.2726  1.6234
  656MOL0     H88549   2.191   1.398   5.140  0.5350  0.1910  1.5282
  656MOL0     H88550   2.415   1.747   4.951  2.3319  0.0483  1.0072
  656MOL0     H88551   2.365   1.827   5.098  1.5345  0.6296  1.7440
  656MOL0     H88552   2.617   1.645   5.067  1.0833  0.4389 -1.0424
  656MOL0     H88553   2.563   1.726   5.214 -0.0522 -0.4238  0.1664
  656MOL0     H88554   2.575   1.945   5.114 -1.9544  0.9871 -2.3595
  656MOL0     H88555   2.590   1.878   4.948 -1.3245  0.3872  0.8794
  656MOL0     H88556   2.798   1.766   5.024 -0.8121 -1.7233  3.3024
  656MOL0     H88557   2.806   1.861   5.171  2.2783  0.8064 -0.8115
  656MOL0     H88558   2.895   2.168   4.897  1.4675 -0.9160 -1.9350
  656MOL0     H88559   2.165   1.803   4.994  0.1487 -0.6072 -4.1871
  656MOL0     H88560   1.934   1.764   4.917  0.7781 -0.5570 -1.1313
  657MOL0     O88561   5.406  10.890  11.255 -0.3104 -0.6690  0.1128
  657MOL0     C88562   5.511  10.967  11.253 -0.1688  0.4335 -0.1479
  657MOL0     O88563   5.512  11.105  11.300  0.0426  0.8390  0.3960
  657MOL0     C88564   5.399  11.153  11.360 -1.0203 -0.3004 -0.8238
  657MOL0     C88565   5.322  11.258  11.310  0.5515 -0.0542  0.0004
  657MOL0     C88566   5.212  11.308  11.384  0.0332  0.3318  0.5750
  657MOL0     C88567   5.204  11.276  11.516  0.1807 -0.3957  0.0794
  657MOL0     O88568   5.100  11.332  11.586 -0.0243 -0.1113 -0.6614
  657MOL0     C88569   5.114  11.323  11.734  0.4442  0.5566  0.5371
  657MOL0     C88570   5.009  11.412  11.808 -0.3088  0.3109 -0.3932
  657MOL0     C88571   5.037  11.388  11.951  0.7366 -0.3490  0.4467
  657MOL0     C88572   4.924  11.452  12.032  0.4185  0.0426 -0.1348
  657MOL0     C88573   4.959  11.420  12.178 -0.9280 -1.1485  0.4606
  657MOL0     C88574   4.874  11.516  12.263 -0.0024  0.7227 -0.0062
  657MOL0     C88575   4.725  11.490  12.257 -0.3557  0.9515 -0.3437
  657MOL0     C88576   4.643  11.521  12.369 -0.1088 -0.2328  0.1222
  657MOL0     N88577   4.607  11.661  12.373 -1.0027  0.7487  0.0156
  657MOL0     C88578   4.526  11.707  12.479 -0.4818  0.3095 -0.0386
  657MOL0     C88579   4.515  11.838  12.458 -0.6347  0.0250  0.0215
  657MOL0     C88580   4.434  11.938  12.537  0.3140 -0.5069 -0.0215
  657MOL0     C88581   4.275  11.917  12.514 -0.1488  0.4215  0.3887
  657MOL0     C88582   4.229  11.956  12.374 -0.4007  0.7073 -0.2099
  657MOL0     C88583   4.082  11.914  12.359 -0.2392 -0.1787 -1.0047
  657MOL0     O88584   4.057  11.823  12.247  0.7453 -0.3365 -0.3629
  657MOL0     C88585   3.926  11.811  12.219  0.3080  0.1963 -0.4609
  657MOL0     C88586   3.891  11.802  12.086  0.3385  0.7708  0.1776
  657MOL0     C88587   3.758  11.805  12.034 -0.0570 -0.5804 -0.2146
  657MOL0     C88588   3.738  11.798  11.892 -0.0756  0.5553  0.8187
  657MOL0     C88589   3.655  11.813  12.129  0.8191  0.6960  0.0688
  657MOL0     C88590   3.504  11.825  12.107  0.5582 -0.6403 -0.0761
  657MOL0     O88591   3.468  11.839  11.970 -0.5380 -0.5833 -0.2064
  657MOL0     C88592   3.342  11.876  11.935  0.8393 -0.7705  0.2334
  657MOL0     C88593   3.271  11.792  11.854  0.3632  0.2216 -0.7931
  657MOL0     C88594   3.144  11.828  11.798  0.2138  0.0846 -1.4253
  657MOL0     C88595   3.083  11.949  11.831 -0.4893  0.3934 -0.8572
  657MOL0     O88596   2.965  11.984  11.778 -1.1062  0.9265 -0.1752
  657MOL0     C88597   2.907  12.105  11.839  0.1246  0.4109 -0.4001
  657MOL0     C88598   2.769  12.127  11.790  0.3981  0.1530 -0.6377
  657MOL0     C88599   2.671  12.030  11.856  0.1354  0.1087 -0.3665
  657MOL0     C88600   2.535  12.053  11.782 -0.4518  0.0122  0.7619
  657MOL0     C88601   2.413  11.974  11.829 -1.0140 -0.8658  0.1314
  657MOL0     C88602   2.297  12.027  11.742 -0.4288 -0.3023  0.1189
  657MOL0     C88603   2.167  11.965  11.794 -0.4720  0.9866  0.0141
  657MOL0     C88604   2.064  11.988  11.691 -0.1525 -0.0810 -0.1326
  657MOL0    Cl88605   2.056  12.160  11.664 -0.0151  0.1250  0.4681
  657MOL0     C88606   3.155  12.033  11.922  0.4036 -0.2166  0.2309
  657MOL0     C88607   3.286  11.996  11.976  0.4629  0.4442 -0.0429
  657MOL0     O88608   3.433  11.848  12.204  0.2690  0.1709 -0.5223
  657MOL0     C88609   3.693  11.807  12.270  0.3560 -0.5637  0.4655
  657MOL0     C88610   3.824  11.817  12.317  0.3539  0.5424  0.2353
  657MOL0     N88611   4.600  11.878  12.357 -0.0748  0.2788  0.2089
  657MOL0     N88612   4.661  11.768  12.310  0.2225  0.0239 -0.4166
  657MOL0     C88613   5.297  11.186  11.577 -0.3402  0.2488 -0.0359
  657MOL0     C88614   5.380  11.114  11.492  0.4547  0.3879  0.5912
  657MOL0     C88615   5.631  10.918  11.176 -0.0652 -0.4069  0.4336
  657MOL0     C88616   5.738  11.010  11.163 -0.1771  0.4395 -0.0654
  657MOL0     C88617   5.853  10.969  11.088  0.1464  0.1246  0.0567
  657MOL0     C88618   5.856  10.842  11.024  0.3007  0.4122 -0.3948
  657MOL0     O88619   5.974  10.803  10.950  0.5107 -0.5190  0.0760
  657MOL0     C88620   5.952  10.721  10.837  0.7334  0.0871  0.0429
  657MOL0     C88621   6.058  10.754  10.732  0.2833  0.5921  0.0701
  657MOL0     C88622   6.204  10.710  10.770  0.4564 -0.6971  0.5213
  657MOL0     C88623   6.299  10.759  10.667 -0.5407  0.0737 -0.1479
  657MOL0     C88624   6.440  10.756  10.697  0.1311 -0.2975 -0.6393
  657MOL0     C88625   6.548  10.739  10.748 -0.6832  0.7342 -0.1439
  657MOL0     C88626   5.746  10.749  11.043  0.5770 -0.0321  0.1956
  657MOL0     C88627   5.630  10.788  11.115 -0.5776 -0.3871  0.0374
  657MOL0     H88628   5.330  11.290  11.207  0.5718 -0.6603 -0.1893
  657MOL0     H88629   5.136  11.373  11.342  0.8173  1.5016  0.9189
  657MOL0     H88630   5.091  11.218  11.752  1.5520 -0.2883 -2.4881
  657MOL0     H88631   5.218  11.337  11.768  1.1916 -2.1115 -0.3969
  657MOL0     H88632   5.018  11.519  11.788 -3.8778  0.3373 -2.6927
  657MOL0     H88633   4.907  11.383  11.781 -0.9028 -0.8447  2.6718
  657MOL0     H88634   5.028  11.280  11.969  1.3189 -0.3082  1.0098
  657MOL0     H88635   5.135  11.414  11.989  2.3008 -5.7120  0.9422
  657MOL0     H88636   4.921  11.560  12.013 -2.1316 -0.0634 -0.6630
  657MOL0     H88637   4.820  11.428  12.012  0.3118  1.8523 -2.1588
  657MOL0     H88638   4.934  11.315  12.193  0.6045 -1.6858 -0.4457
  657MOL0     H88639   5.067  11.428  12.194 -1.0157  1.1229  0.2623
  657MOL0     H88640   4.898  11.508  12.369 -0.5949 -0.6410  0.0485
  657MOL0     H88641   4.892  11.620  12.233 -3.7005  1.0463 -1.7424
  657MOL0     H88642   4.673  11.531  12.170 -0.7995 -0.4315 -0.7588
  657MOL0     H88643   4.714  11.381  12.247 -3.1013  0.9656  1.3373
  657MOL0     H88644   4.702  11.507  12.460  0.9532  0.0614 -0.4978
  657MOL0     H88645   4.551  11.463  12.370  0.0065 -0.4715 -1.3079
  657MOL0     H88646   4.460  11.661  12.552 -1.9336 -1.2921 -2.2136
  657MOL0     H88647   4.457  11.932  12.644 -1.6714 -0.4026  0.4585
  657MOL0     H88648   4.471  12.039  12.516 -0.3051 -0.1387  0.6028
  657MOL0     H88649   4.212  11.970  12.586 -1.6506  0.3938 -0.8616
  657MOL0     H88650   4.258  11.811  12.534  1.0270  0.0634 -0.4205
  657MOL0     H88651   4.286  11.893  12.306 -2.2885  1.0008 -2.1818
  657MOL0     H88652   4.252  12.057  12.340  2.8537 -0.4853 -1.9005
  657MOL0     H88653   4.033  12.010  12.340  1.2801  1.0304  0.8227
  657MOL0     H88654   4.054  11.867  12.454  0.4959  2.8148  0.7985
  657MOL0     H88655   3.976  11.791  12.020  0.1869  0.4736  0.0292
  657MOL0     H88656   3.672  11.711  11.880  0.7787  0.0498 -0.4250
  657MOL0     H88657   3.677  11.880  11.851 -1.2874 -0.8867 -0.4272
  657MOL0     H88658   3.827  11.788  11.830 -1.2933  1.2673 -1.1526
  657MOL0     H88659   3.311  11.691  11.845 -0.3434 -0.1224 -0.1946
  657MOL0     H88660   3.091  11.755  11.739 -1.0808  1.0459 -1.4803
  657MOL0     H88661   2.898  12.080  11.946  1.4502  0.6889 -0.2063
  657MOL0     H88662   2.957  12.201  11.822  0.1775  0.4264 -0.1650
  657MOL0     H88663   2.741  12.223  11.836  1.3378  0.0592  0.1583
  657MOL0     H88664   2.765  12.123  11.681 -3.6594 -1.3974 -0.6041
  657MOL0     H88665   2.661  12.056  11.962 -1.5571  0.8089 -0.6793
  657MOL0     H88666   2.701  11.925  11.844 -0.4445 -0.0295 -0.6320
  657MOL0     H88667   2.514  12.160  11.776 -0.7553 -0.1057 -0.5741
  657MOL0     H88668   2.556  12.025  11.678  2.2062  0.1139  1.1974
  657MOL0     H88669   2.399  11.991  11.936 -0.2790  0.4130  0.0474
  657MOL0     H88670   2.421  11.866  11.812 -0.5237 -0.9817  1.0482
  657MOL0     H88671   2.298  12.136  11.750  0.0633  0.0717 -3.4922
  657MOL0     H88672   2.307  12.009  11.634  0.8461  4.3489 -0.7409
  657MOL0     H88673   2.141  12.001  11.894 -0.6018 -2.9027  1.5616
  657MOL0     H88674   2.189  11.861  11.819 -1.8871  0.9659  1.3185
  657MOL0     H88675   1.965  11.948  11.714  0.7316 -1.4566  1.4886
  657MOL0     H88676   2.096  11.936  11.600  1.7692  1.8675 -0.6578
  657MOL0     H88677   3.125  12.135  11.943 -2.3418 -1.2657  1.8948
  657MOL0     H88678   3.337  12.074  12.031  0.3811  1.3987 -1.2885
  657MOL0     H88679   3.607  11.822  12.335  0.5375  3.2627  0.0708
  657MOL0     H88680   3.850  11.804  12.422 -0.1209 -0.5235  0.2360
  657MOL0     H88681   5.291  11.153  11.680 -2.3125 -1.6693 -0.6929
  657MOL0     H88682   5.433  11.032  11.539 -0.5731 -1.7588 -1.7718
  657MOL0     H88683   5.746  11.108  11.208 -0.7619  0.6281 -0.3650
  657MOL0     H88684   5.919  11.055  11.088 -1.4803  1.4232  0.5117
  657MOL0     H88685   5.931  10.615  10.856 -0.5405  0.4504  0.7815
  657MOL0     H88686   5.848  10.738  10.808 -0.8512  2.2197  5.8048
  657MOL0     H88687   6.060  10.863  10.718 -0.7240  0.5159 -0.7405
  657MOL0     H88688   6.032  10.715  10.633 -0.7032 -1.5268  1.1007
  657MOL0     H88689   6.199  10.601  10.778 -2.3247 -0.6035  1.0570
  657MOL0     H88690   6.236  10.750  10.867  1.2466  1.1077 -0.4497
  657MOL0     H88691   6.269  10.865  10.662 -0.2032  0.4059  2.9136
  657MOL0     H88692   6.286  10.708  10.572 -0.6982 -1.8893  0.8884
  657MOL0     H88693   6.647  10.732  10.788 -1.8118  1.9992  3.1934
  657MOL0     H88694   5.743  10.650  10.998  2.3027 -1.3044  2.6217
  657MOL0     H88695   5.546  10.720  11.122 -1.5300  0.8428  0.8409
  658MOL0     O88696   3.282   4.593   5.919 -0.8455 -1.0642  0.4799
  658MOL0     C88697   3.281   4.637   6.029  0.6161  0.9210 -0.3584
  658MOL0     O88698   3.180   4.707   6.091 -0.4009 -0.0984  0.2762
  658MOL0     C88699   3.060   4.719   6.025  0.0109 -0.0433  0.1844
  658MOL0     C88700   2.969   4.616   6.036  0.2205 -0.4549  0.0466
  658MOL0     C88701   2.847   4.637   5.980  0.8848  1.2055  0.5139
  658MOL0     C88702   2.809   4.750   5.915 -0.2757  0.4427  0.7257
  658MOL0     O88703   2.688   4.764   5.842 -0.1690  0.0709  0.1460
  658MOL0     C88704   2.596   4.650   5.822  0.4064 -0.8767 -0.3836
  658MOL0     C88705   2.485   4.670   5.723 -0.0491 -0.2352  0.0514
  658MOL0     C88706   2.424   4.810   5.745  0.5327 -0.1245  0.6896
  658MOL0     C88707   2.280   4.826   5.697  0.0426  0.8183  0.7072
  658MOL0     C88708   2.227   4.954   5.753  0.2435 -0.1379  0.2036
  658MOL0     C88709   2.078   4.972   5.737  1.1905 -0.0121 -0.2770
  658MOL0     C88710   2.042   5.009   5.591 -0.6239  0.1804 -1.3444
  658MOL0     C88711   2.025   4.877   5.509 -0.4641 -0.1816  0.1999
  658MOL0     N88712   1.882   4.831   5.493  0.3815 -0.1266  0.0187
  658MOL0     C88713   1.802   4.783   5.592 -0.2054 -0.0201  0.0631
  658MOL0     C88714   1.689   4.749   5.535 -0.5981 -0.0332 -0.6539
  658MOL0     C88715   1.569   4.690   5.603  0.1428  0.3223 -0.2466
  658MOL0     C88716   1.485   4.609   5.512 -0.0048  0.5499 -0.0372
  658MOL0     C88717   1.444   4.480   5.590  0.1063 -0.6158 -0.0273
  658MOL0     C88718   1.349   4.502   5.704 -0.2042 -0.2972  0.0263
  658MOL0     O88719   1.421   4.539   5.815 -0.0283 -0.5557 -0.6334
  658MOL0     C88720   1.362   4.606   5.916  0.3023  0.4515 -0.3102
  658MOL0     C88721   1.223   4.640   5.929  0.0369  0.5521 -0.0514
  658MOL0     C88722   1.183   4.713   6.042  0.4004 -0.3605  0.8425
  658MOL0     C88723   1.035   4.724   6.056 -0.2733  0.2834 -0.0758
  658MOL0     C88724   1.268   4.748   6.141  0.2225 -1.5603  0.2895
  658MOL0     C88725   1.247   4.829   6.266  0.3529  0.2279 -0.2402
  658MOL0     O88726   1.340   4.911   6.312 -0.3454 -0.2714  0.6007
  658MOL0     C88727   1.300   5.002   6.406 -0.0310 -0.0371  0.2947
  658MOL0     C88728   1.398   5.043   6.500  0.6592 -0.6238  0.9997
  658MOL0     C88729   1.372   5.140   6.608  0.0589  0.2117  0.1220
  658MOL0     C88730   1.245   5.203   6.612 -0.1911  0.2224  0.5157
  658MOL0     O88731   1.223   5.305   6.703  0.2750 -0.2405  0.5743
  658MOL0     C88732   1.095   5.284   6.770 -0.0842  0.3075 -0.2909
  658MOL0     C88733   1.029   5.419   6.794  0.5125  0.7804  1.0812
  658MOL0     C88734   0.891   5.397   6.851 -0.3864 -1.3497  0.3232
  658MOL0     C88735   0.839   5.534   6.886  0.1742  0.1723 -0.1218
  658MOL0     C88736   0.695   5.541   6.944  0.3300  0.5724  0.4909
  658MOL0     C88737   0.613   5.534   6.823  0.7583 -0.4424  0.0241
  658MOL0     C88738   0.454   5.545   6.858 -0.0729 -1.3965  0.8200
  658MOL0     C88739   0.401   5.412   6.929  0.1473 -1.4710  0.0521
  658MOL0    Cl88740   0.408   5.266   6.829  0.3644 -0.0749 -0.1285
  658MOL0     C88741   1.151   5.157   6.518  0.3783  0.1310  0.6237
  658MOL0     C88742   1.178   5.061   6.417  0.8914 -0.7022  0.3305
  658MOL0     O88743   1.146   4.791   6.327 -0.5235 -0.3128  0.7674
  658MOL0     C88744   1.409   4.711   6.125  0.2368  0.4926 -0.7293
  658MOL0     C88745   1.445   4.636   6.021  0.0162  0.4684 -0.2649
  658MOL0     N88746   1.690   4.785   5.402 -0.5719 -0.4401 -0.0572
  658MOL0     N88747   1.807   4.839   5.381 -0.0885 -0.6842  0.1469
  658MOL0     C88748   2.898   4.854   5.918 -0.2796 -0.0687  0.4643
  658MOL0     C88749   3.026   4.841   5.968 -0.1786  0.5405 -0.9247
  658MOL0     C88750   3.394   4.590   6.110 -0.2963 -0.3169  0.7141
  658MOL0     C88751   3.402   4.628   6.243 -1.0061  0.6866 -0.3574
  658MOL0     C88752   3.514   4.606   6.323 -0.8162  0.4925 -0.3097
  658MOL0     C88753   3.625   4.529   6.282 -0.4988  0.4381  0.6242
  658MOL0     O88754   3.734   4.494   6.360  0.2781 -0.5598 -0.9206
  658MOL0     C88755   3.718   4.467   6.502  0.0139 -0.4613  0.4249
  658MOL0     C88756   3.625   4.346   6.507  0.2126  0.0789  0.3932
  658MOL0     C88757   3.560   4.342   6.640 -0.8405 -1.1612  0.6466
  658MOL0     C88758   3.413   4.397   6.626 -0.7292  0.9609  0.2500
  658MOL0     C88759   3.358   4.389   6.765 -0.2728  0.1264 -0.8693
  658MOL0     C88760   3.325   4.410   6.880 -0.6426  0.7656  0.0646
  658MOL0     C88761   3.613   4.485   6.148  0.0321  0.2115  0.4098
  658MOL0     C88762   3.505   4.524   6.063 -0.0713  0.3586  0.8070
  658MOL0     H88763   3.001   4.522   6.079  2.3184  0.3855  0.4080
  658MOL0     H88764   2.788   4.548   6.001  3.1552  0.0382  2.5243
  658MOL0     H88765   2.658   4.567   5.788  2.8985  0.1163  1.4317
  658MOL0     H88766   2.564   4.626   5.924  1.5127 -3.7449 -0.6123
  658MOL0     H88767   2.521   4.673   5.620  2.0541  0.9129  0.7599
  658MOL0     H88768   2.413   4.588   5.730 -1.7931  0.5951 -4.4278
  658MOL0     H88769   2.417   4.825   5.853 -1.2526  3.7010  0.2129
  658MOL0     H88770   2.502   4.876   5.706  2.5746 -2.8012 -0.0107
  658MOL0     H88771   2.286   4.828   5.588 -0.2669  1.9754  0.6988
  658MOL0     H88772   2.226   4.735   5.724  0.9067  0.3688  0.9568
  658MOL0     H88773   2.244   4.944   5.860 -0.7091 -1.6498  0.2306
  658MOL0     H88774   2.292   5.027   5.702  1.2537 -1.9949 -1.3056
  658MOL0     H88775   2.029   4.883   5.777  2.8150 -0.9841 -0.3739
  658MOL0     H88776   2.046   5.056   5.800  0.0859 -0.0179 -0.8212
  658MOL0     H88777   1.945   5.058   5.589 -1.9190 -2.0935  0.0499
  658MOL0     H88778   2.119   5.078   5.556 -0.9271  1.4207  0.2995
  658MOL0     H88779   2.078   4.791   5.552 -1.2241  0.1865  2.0022
  658MOL0     H88780   2.075   4.905   5.416 -0.5609  0.9742  0.4782
  658MOL0     H88781   1.832   4.773   5.696  1.6159 -0.6940 -0.4840
  658MOL0     H88782   1.600   4.636   5.693 -3.8170 -1.7974  0.1071
  658MOL0     H88783   1.497   4.761   5.645 -1.4965 -1.6656  0.4730
  658MOL0     H88784   1.538   4.574   5.424 -2.4916 -0.0060 -1.4063
  658MOL0     H88785   1.393   4.652   5.472 -0.1321 -0.0269 -0.3626
  658MOL0     H88786   1.530   4.417   5.614  0.1620  0.3971  2.8302
  658MOL0     H88787   1.388   4.414   5.523 -0.6404  0.1602 -0.1882
  658MOL0     H88788   1.306   4.404   5.723 -2.2315  0.8210  1.5843
  658MOL0     H88789   1.283   4.579   5.664  0.2577  1.1577  1.9371
  658MOL0     H88790   1.144   4.601   5.866  0.3296  1.7415 -1.1945
  658MOL0     H88791   0.991   4.701   5.958 -0.1952 -1.3094  0.2366
  658MOL0     H88792   1.016   4.647   6.131 -2.5470 -0.4052 -1.2666
  658MOL0     H88793   1.004   4.823   6.090  3.2920  1.2234  0.9114
  658MOL0     H88794   1.488   4.983   6.495  1.1388  0.1588 -0.8348
  658MOL0     H88795   1.445   5.157   6.686  0.6681 -2.5312  0.2565
  658MOL0     H88796   1.018   5.224   6.722 -1.6705  1.5892  0.5408
  658MOL0     H88797   1.116   5.226   6.861 -2.5765 -2.7214 -1.5060
  658MOL0     H88798   1.091   5.479   6.861 -0.6946  1.0474  1.9841
  658MOL0     H88799   1.015   5.481   6.705  1.2789 -0.9286 -0.3084
  658MOL0     H88800   0.902   5.344   6.946 -1.3227  3.1453  3.2577
  658MOL0     H88801   0.826   5.349   6.778  1.5643  0.0061 -2.5301
  658MOL0     H88802   0.906   5.568   6.966  0.3832  0.3643 -0.3749
  658MOL0     H88803   0.857   5.606   6.806 -2.6637 -1.0539 -2.0089
  658MOL0     H88804   0.687   5.637   6.997  2.0070  1.4142 -0.6977
  658MOL0     H88805   0.669   5.456   7.008  1.0207  0.1828  0.2555
  658MOL0     H88806   0.651   5.618   6.766  0.5238  0.4143  1.0950
  658MOL0     H88807   0.636   5.444   6.765  1.9264 -0.2383  0.1663
  658MOL0     H88808   0.406   5.552   6.760  2.8982  0.7378 -0.6462
  658MOL0     H88809   0.434   5.636   6.916 -1.8665  0.2257 -2.1088
  658MOL0     H88810   0.300   5.436   6.962  0.7056  2.8934 -0.8268
  658MOL0     H88811   0.464   5.385   7.014  1.2613 -1.0034 -0.5980
  658MOL0     H88812   1.048   5.189   6.511  0.5989  0.8467  0.5122
  658MOL0     H88813   1.092   5.041   6.352  1.7824 -2.7749 -0.3021
  658MOL0     H88814   1.487   4.743   6.194  0.9906 -0.5362 -1.0866
  658MOL0     H88815   1.552   4.617   6.012 -0.4767 -2.7456 -0.5450
  658MOL0     H88816   2.868   4.950   5.878 -0.5161  0.5150  1.9827
  658MOL0     H88817   3.100   4.919   5.965  0.5478 -0.1236 -0.6646
  658MOL0     H88818   3.319   4.678   6.291 -0.7403 -1.2764  2.3862
  658MOL0     H88819   3.509   4.624   6.430 -1.0018 -0.3421 -0.1743
  658MOL0     H88820   3.812   4.448   6.556  0.4488 -0.3038 -0.2688
  658MOL0     H88821   3.683   4.560   6.548  0.9638  0.7392 -1.1699
  658MOL0     H88822   3.686   4.258   6.483  0.5853  0.7293 -1.0965
  658MOL0     H88823   3.549   4.338   6.429  0.4147 -3.2541  0.3731
  658MOL0     H88824   3.614   4.409   6.707  0.4927 -1.8548  0.3025
  658MOL0     H88825   3.560   4.240   6.680 -1.7863 -2.7085 -2.9073
  658MOL0     H88826   3.368   4.328   6.554  2.7700 -0.3198 -0.9405
  658MOL0     H88827   3.403   4.499   6.588  0.1288 -0.0652 -3.0739
  658MOL0     H88828   3.296   4.451   6.974 -1.3914  3.5391 -1.2517
  658MOL0     H88829   3.680   4.422   6.089 -1.3796 -1.3411  0.3911
  658MOL0     H88830   3.511   4.484   5.963 -1.0950  0.5081  0.6717
  659MOL0     O88831   1.709   7.196   1.072  0.5351  0.4257 -0.0736
  659MOL0     C88832   1.779   7.100   1.039  0.2604  1.0735  0.6638
  659MOL0     O88833   1.736   6.970   0.994  0.2066  0.1351  0.6104
  659MOL0     C88834   1.604   6.936   0.976 -0.7456 -0.1805 -0.1843
  659MOL0     C88835   1.579   6.801   1.003 -0.1890 -0.1091  0.3483
  659MOL0     C88836   1.443   6.761   1.000 -0.2985  0.1292 -0.7724
  659MOL0     C88837   1.342   6.841   0.955 -0.9566  0.4416  0.3087
  659MOL0     O88838   1.216   6.786   0.950 -0.0817 -0.8566 -0.1183
  659MOL0     C88839   1.135   6.836   0.840 -0.7674  0.8319 -0.2714
  659MOL0     C88840   1.012   6.745   0.828  0.0243 -0.4162 -0.0321
  659MOL0     C88841   0.940   6.790   0.697  0.1450  0.6875  0.2566
  659MOL0     C88842   0.807   6.706   0.679 -0.3574  0.0314 -0.3691
  659MOL0     C88843   0.734   6.751   0.552  0.2113  0.6474  1.0766
  659MOL0     C88844   0.676   6.891   0.560  0.7847 -0.2227  0.4635
  659MOL0     C88845   0.619   6.947   0.425 -0.0901  0.0533 -0.0662
  659MOL0     C88846   0.506   6.869   0.369 -0.3483  0.5312  0.6677
  659MOL0     N88847   0.387   6.955   0.377 -0.0993  0.1611  0.1379
  659MOL0     C88848   0.305   6.970   0.484 -1.0059 -0.1573  0.4254
  659MOL0     C88849   0.226   7.073   0.447  0.5666 -0.4259 -0.1822
  659MOL0     C88850   0.110   7.124   0.531  1.1353 -0.0660 -0.6576
  659MOL0     C88851  -0.027   7.036   0.520 -0.8207 -0.5930 -0.1687
  659MOL0     C88852  -0.086   7.034   0.381 -0.0148 -0.0573 -1.1774
  659MOL0     C88853  -0.141   7.162   0.335 -0.3088  0.6155  0.4791
  659MOL0     O88854  -0.281   7.155   0.318 -0.1766  0.1985 -0.2269
  659MOL0     C88855  -0.347   7.270   0.298 -0.0884 -0.7356 -0.9799
  659MOL0     C88856  -0.462   7.247   0.227 -0.2134  0.2152 -0.2629
  659MOL0     C88857  -0.546   7.352   0.209  0.1248  0.7892 -0.0311
  659MOL0     C88858  -0.664   7.312   0.121  0.6994  0.4277  0.1417
  659MOL0     C88859  -0.512   7.483   0.249  0.4175  0.4939 -0.4943
  659MOL0     C88860  -0.593   7.605   0.221  0.1997 -0.0986  0.0090
  659MOL0     O88861  -0.536   7.730   0.239 -0.4538  0.7145 -0.1066
  659MOL0     C88862  -0.606   7.843   0.200 -0.7297  0.5297  0.3662
  659MOL0     C88863  -0.676   7.853   0.086 -1.0038  0.5033  0.4026
  659MOL0     C88864  -0.728   7.976   0.046 -0.0280 -0.2863 -0.6027
  659MOL0     C88865  -0.703   8.093   0.118  0.4823  0.1950  0.2412
  659MOL0     O88866  -0.750   8.212   0.061  0.4423 -0.3749 -0.1326
  659MOL0     C88867  -0.721   8.330   0.128 -0.0518  0.0776 -0.1491
  659MOL0     C88868  -0.797   8.449   0.072 -0.0373  0.7725 -0.1441
  659MOL0     C88869  -0.946   8.429   0.100 -0.2295 -0.7730 -0.3232
  659MOL0     C88870  -1.027   8.528   0.014 -0.3264 -0.0256  0.1978
  659MOL0     C88871  -1.173   8.540   0.071 -0.3473  0.3840  0.1149
  659MOL0     C88872  -1.276   8.439   0.008  0.4421  0.5781 -0.5891
  659MOL0     C88873  -1.338   8.496  -0.120  0.0159 -0.6945 -0.4930
  659MOL0     C88874  -1.440   8.394  -0.173 -0.5634  0.3487  0.4103
  659MOL0    Cl88875  -1.380   8.232  -0.215 -0.2450  0.0149  0.1120
  659MOL0     C88876  -0.641   8.081   0.243  0.3185 -0.2562 -0.3235
  659MOL0     C88877  -0.605   7.950   0.292 -0.9301 -0.4108  0.2218
  659MOL0     O88878  -0.711   7.585   0.188  0.0232  0.3008 -0.6148
  659MOL0     C88879  -0.393   7.510   0.321  0.0757  0.4877 -0.7971
  659MOL0     C88880  -0.311   7.397   0.345  0.1233 -0.5003 -0.0967
  659MOL0     N88881   0.248   7.116   0.322  0.1948  0.6311 -0.0574
  659MOL0     N88882   0.340   7.037   0.278  0.2241  0.3759  0.3690
  659MOL0     C88883   1.369   6.970   0.915  0.3504 -0.4759 -1.1039
  659MOL0     C88884   1.503   7.022   0.925 -0.3230  0.8280  0.1840
  659MOL0     C88885   1.928   7.123   1.066 -0.5866 -0.1442  1.0201
  659MOL0     C88886   1.985   7.252   1.052 -0.6765  1.0790  0.0132
  659MOL0     C88887   2.122   7.265   1.080  0.0087 -0.0548 -0.4583
  659MOL0     C88888   2.202   7.170   1.130 -0.5187  0.0419  0.3151
  659MOL0     O88889   2.336   7.211   1.166  0.2368  0.3932  0.3740
  659MOL0     C88890   2.409   7.111   1.242  0.3186 -0.9226  0.5799
  659MOL0     C88891   2.542   7.185   1.269 -0.1075  0.4515  0.5410
  659MOL0     C88892   2.630   7.103   1.360  0.1372 -0.1153  0.8837
  659MOL0     C88893   2.774   7.146   1.374 -0.1982  0.2340 -0.0378
  659MOL0     C88894   2.806   7.284   1.417  0.2904  0.3514  0.0889
  659MOL0     C88895   2.837   7.393   1.463  0.6248 -0.1045  0.0169
  659MOL0     C88896   2.145   7.037   1.140 -0.6959  0.2364 -0.1941
  659MOL0     C88897   2.012   7.020   1.092  0.3329  0.4103 -0.7390
  659MOL0     H88898   1.656   6.735   1.042  1.9436  1.6336 -0.7151
  659MOL0     H88899   1.409   6.661   1.024 -2.0014  0.9416  0.3715
  659MOL0     H88900   1.103   6.938   0.862 -2.7896 -0.1629  1.8469
  659MOL0     H88901   1.203   6.825   0.755 -1.6161  1.3278 -1.0279
  659MOL0     H88902   1.027   6.637   0.834  1.8232 -0.1678  0.5336
  659MOL0     H88903   0.946   6.763   0.914  1.9223 -0.0044  1.4065
  659MOL0     H88904   0.931   6.899   0.700  3.6479  1.1364 -1.2288
  659MOL0     H88905   1.009   6.775   0.614 -1.8341 -0.4458 -1.3042
  659MOL0     H88906   0.833   6.600   0.672 -0.3729 -0.0709  0.8910
  659MOL0     H88907   0.740   6.705   0.766 -0.7232 -0.0069 -0.6476
  659MOL0     H88908   0.798   6.737   0.464 -1.3555 -3.4512  0.3771
  659MOL0     H88909   0.657   6.676   0.534 -2.4262  3.0114  1.7827
  659MOL0     H88910   0.616   6.907   0.650  3.4796  0.2641  2.3284
  659MOL0     H88911   0.757   6.964   0.574  1.0672  0.0970 -2.3083
  659MOL0     H88912   0.590   7.052   0.428 -0.3470 -0.0323  0.5364
  659MOL0     H88913   0.700   6.922   0.356  0.9695 -2.2464  1.8707
  659MOL0     H88914   0.482   6.782   0.431 -0.9739 -0.1550 -0.5015
  659MOL0     H88915   0.513   6.820   0.272  0.2191 -1.8709  1.8470
  659MOL0     H88916   0.303   6.909   0.574 -0.2268  1.2436  1.4332
  659MOL0     H88917   0.151   7.123   0.632 -1.8856 -0.6486  0.6679
  659MOL0     H88918   0.088   7.228   0.503 -0.0309  0.4294  1.8135
  659MOL0     H88919  -0.100   7.076   0.591 -0.6475 -0.3654 -0.1181
  659MOL0     H88920   0.007   6.935   0.545 -0.3392 -0.1587  1.0620
  659MOL0     H88921  -0.154   6.948   0.382 -1.4767  0.8902  3.2917
  659MOL0     H88922  -0.003   7.001   0.319  0.2998 -2.1382  0.2309
  659MOL0     H88923  -0.090   7.178   0.240 -0.0400  0.0200  0.5224
  659MOL0     H88924  -0.116   7.241   0.407 -0.4194 -0.4154  1.6953
  659MOL0     H88925  -0.492   7.148   0.192  3.3451 -0.7817 -0.8186
  659MOL0     H88926  -0.682   7.391   0.048 -2.3023 -0.6883 -0.4614
  659MOL0     H88927  -0.660   7.216   0.069  0.3269 -0.3558  1.4882
  659MOL0     H88928  -0.752   7.303   0.186 -0.0112  3.8763 -0.1920
  659MOL0     H88929  -0.695   7.767   0.023 -2.8381  0.0576  1.4664
  659MOL0     H88930  -0.766   7.983  -0.056  1.2155  2.4314 -0.9731
  659MOL0     H88931  -0.747   8.327   0.234 -0.5979  1.1498 -0.2374
  659MOL0     H88932  -0.614   8.343   0.107  0.4614 -0.6039  1.8338
  659MOL0     H88933  -0.760   8.545   0.111  2.8858 -0.3620  0.1450
  659MOL0     H88934  -0.785   8.455  -0.036 -0.5494 -0.0641 -0.2523
  659MOL0     H88935  -0.971   8.436   0.206 -1.0395 -1.8388 -0.4319
  659MOL0     H88936  -0.977   8.329   0.070 -3.2288 -0.4538  1.2986
  659MOL0     H88937  -0.983   8.627   0.033 -0.4658  0.3919 -1.5156
  659MOL0     H88938  -1.015   8.495  -0.090  1.6450 -1.5143  0.8171
  659MOL0     H88939  -1.208   8.641   0.049 -0.4515 -0.0222 -1.6877
  659MOL0     H88940  -1.175   8.519   0.178 -2.3359  1.2756  0.2803
  659MOL0     H88941  -1.222   8.347  -0.017  0.0222 -0.8823  3.2367
  659MOL0     H88942  -1.356   8.411   0.078 -0.7839  0.5606 -1.9421
  659MOL0     H88943  -1.266   8.514  -0.200 -0.1728 -0.4106 -0.5990
  659MOL0     H88944  -1.380   8.592  -0.092 -0.7027 -1.7432  2.3807
  659MOL0     H88945  -1.485   8.439  -0.262  1.6702  1.9491 -0.0174
  659MOL0     H88946  -1.518   8.391  -0.096 -1.3993  0.5769 -0.4028
  659MOL0     H88947  -0.629   8.169   0.305  3.6000  0.1008 -1.2774
  659MOL0     H88948  -0.561   7.931   0.390 -0.9072 -3.7820 -0.3160
  659MOL0     H88949  -0.381   7.614   0.351 -0.5173  0.4728 -0.4924
  659MOL0     H88950  -0.217   7.405   0.399  0.8642 -3.9085 -0.6397
  659MOL0     H88951   1.292   7.039   0.884 -1.2596 -0.9029  1.6338
  659MOL0     H88952   1.529   7.122   0.891  3.5333 -0.4061 -0.8684
  659MOL0     H88953   1.913   7.331   1.034 -2.3351 -0.0036  1.5367
  659MOL0     H88954   2.164   7.364   1.091  0.0791 -0.2458  1.2884
  659MOL0     H88955   2.363   7.085   1.337  0.5635  1.1269  1.3002
  659MOL0     H88956   2.431   7.021   1.183  1.2684 -0.3707  0.0667
  659MOL0     H88957   2.533   7.284   1.314 -1.0268  1.3323 -1.4344
  659MOL0     H88958   2.591   7.199   1.172  1.4817 -0.6346  1.1476
  659MOL0     H88959   2.644   7.002   1.320  1.2795 -0.1075  1.2210
  659MOL0     H88960   2.591   7.101   1.462  2.4685 -0.4865  1.8466
  659MOL0     H88961   2.818   7.143   1.274  2.4192 -0.2147  1.0531
  659MOL0     H88962   2.832   7.083   1.441  1.2100 -1.5359 -2.7573
  659MOL0     H88963   2.856   7.486   1.512 -0.9540 -1.5238  3.7457
  659MOL0     H88964   2.216   6.957   1.159  0.2791  0.9861 -0.5887
  659MOL0     H88965   1.963   6.923   1.092 -0.0450  0.5580  1.2131
  660MOL0     O88966   8.004   1.268   2.170 -0.5832 -0.1829 -0.1726
  660MOL0     C88967   8.062   1.326   2.267  0.1907  0.5660  0.0583
  660MOL0     O88968   8.010   1.417   2.358  0.3832 -0.0616 -0.9133
  660MOL0     C88969   7.934   1.526   2.326  0.5488  0.0402 -0.0768
  660MOL0     C88970   7.837   1.566   2.410 -0.6299  0.1008  0.5287
  660MOL0     C88971   7.763   1.680   2.374  0.1590  0.5417  0.1403
  660MOL0     C88972   7.785   1.752   2.259  0.2769  0.2092 -0.5008
  660MOL0     O88973   7.717   1.874   2.243 -0.2847 -0.2365  0.6472
  660MOL0     C88974   7.768   1.977   2.153 -0.1141  0.3397  0.3493
  660MOL0     C88975   7.679   2.098   2.153 -0.1034 -0.1742  0.8036
  660MOL0     C88976   7.524   2.069   2.130 -0.4883 -0.7806  0.0008
  660MOL0     C88977   7.449   2.198   2.104 -0.0347 -0.8331  0.8415
  660MOL0     C88978   7.302   2.204   2.050  0.2884  1.5384 -0.3072
  660MOL0     C88979   7.192   2.139   2.146  0.0865  0.5724 -0.3931
  660MOL0     C88980   7.045   2.152   2.096 -0.5564  0.0656  0.7256
  660MOL0     C88981   7.017   2.065   1.973  0.1167 -0.4448  0.4179
  660MOL0     N88982   7.030   1.914   1.981  0.7090 -0.0081  0.4711
  660MOL0     C88983   6.943   1.828   2.051 -0.0010 -0.2158  1.3747
  660MOL0     C88984   6.955   1.709   1.990  0.4303  0.6533  0.0976
  660MOL0     C88985   6.890   1.576   2.020  1.0823  0.9006  0.0222
  660MOL0     C88986   6.755   1.594   2.097 -0.2052  0.0771  0.9023
  660MOL0     C88987   6.647   1.644   1.996  0.3254  0.2391 -0.1615
  660MOL0     C88988   6.506   1.605   2.041  0.4735 -0.0812 -0.0202
  660MOL0     O88989   6.409   1.655   1.947 -0.7528 -0.0994  0.4832
  660MOL0     C88990   6.285   1.694   1.999 -0.1487  0.0092  0.8959
  660MOL0     C88991   6.224   1.806   1.935 -0.9890 -0.1553 -0.0784
  660MOL0     C88992   6.100   1.858   1.981 -0.3523 -0.9917  0.0008
  660MOL0     C88993   6.029   1.964   1.898  0.4142 -0.5203 -0.0399
  660MOL0     C88994   6.038   1.789   2.090 -0.0928 -0.8233 -0.1676
  660MOL0     C88995   5.900   1.826   2.136 -0.8933 -0.3698  0.7295
  660MOL0     O88996   5.792   1.788   2.070  0.4111 -0.2897  0.1983
  660MOL0     C88997   5.669   1.855   2.069 -0.2720  0.2947  0.5614
  660MOL0     C88998   5.627   1.963   2.150  0.8874  0.0976 -0.7768
  660MOL0     C88999   5.493   2.007   2.144  0.4546 -0.2176 -0.7580
  660MOL0     C89000   5.399   1.953   2.074 -0.3666  0.3484 -0.0476
  660MOL0     O89001   5.268   1.996   2.062  0.2594 -0.4543 -0.4635
  660MOL0     C89002   5.216   2.092   2.157  0.0406 -0.0612 -0.2526
  660MOL0     C89003   5.069   2.066   2.191 -0.4843  0.8271 -0.0369
  660MOL0     C89004   4.956   2.108   2.094  0.8066 -0.0340 -1.1413
  660MOL0     C89005   4.817   2.078   2.162 -0.2740 -0.8587  0.1745
  660MOL0     C89006   4.699   2.056   2.069  0.4140 -0.3068 -0.4016
  660MOL0     C89007   4.572   2.049   2.162 -0.4727  0.2193 -0.5674
  660MOL0     C89008   4.446   2.025   2.082  0.0897 -0.0156  0.1792
  660MOL0     C89009   4.442   1.898   1.998 -0.3160 -0.5775 -0.2805
  660MOL0    Cl89010   4.452   1.750   2.107 -0.0456 -0.1049  0.0870
  660MOL0     C89011   5.427   1.837   1.997  0.0077 -0.1043  0.2233
  660MOL0     C89012   5.566   1.792   1.993 -0.3597 -0.9970 -0.2415
  660MOL0     O89013   5.905   1.909   2.223 -0.6790 -1.4016  0.1225
  660MOL0     C89014   6.095   1.684   2.152 -0.5691  0.6546 -0.4611
  660MOL0     C89015   6.227   1.632   2.110 -0.3297 -0.1233 -1.0419
  660MOL0     N89016   7.068   1.718   1.905 -0.0571  0.7102  0.9277
  660MOL0     N89017   7.100   1.840   1.894 -0.2096 -0.1597 -0.1849
  660MOL0     C89018   7.892   1.717   2.172 -0.1843 -0.8882  0.0369
  660MOL0     C89019   7.964   1.596   2.205 -0.3242  0.8205 -0.4847
  660MOL0     C89020   8.191   1.276   2.292 -0.8190  0.0059  0.0002
  660MOL0     C89021   8.278   1.227   2.193 -0.1683  0.0700 -0.6054
  660MOL0     C89022   8.413   1.188   2.219  0.1886 -0.3830 -0.8469
  660MOL0     C89023   8.468   1.208   2.345 -0.2011  0.4208 -0.5745
  660MOL0     O89024   8.597   1.174   2.385 -0.3788  0.0746  0.5911
  660MOL0     C89025   8.675   1.103   2.291  0.0269  0.1303 -0.7283
  660MOL0     C89026   8.803   1.051   2.362  0.1574 -0.3201  0.9377
  660MOL0     C89027   8.901   1.169   2.385 -0.0407 -0.6688  0.0201
  660MOL0     C89028   9.004   1.136   2.482 -0.0194  0.3534 -0.0982
  660MOL0     C89029   9.098   1.032   2.434  0.0393  0.1489  0.2363
  660MOL0     C89030   9.177   0.936   2.406  0.0887  0.2404  0.1333
  660MOL0     C89031   8.378   1.262   2.446  0.2138 -0.9004  0.0065
  660MOL0     C89032   8.242   1.300   2.417  0.2931  0.7378  0.5004
  660MOL0     H89033   7.824   1.530   2.511 -4.0054 -0.7577 -0.0628
  660MOL0     H89034   7.692   1.710   2.451 -0.4838  1.0230 -0.6206
  660MOL0     H89035   7.872   2.001   2.177  0.0872 -0.2190  0.0703
  660MOL0     H89036   7.784   1.932   2.054 -1.4575  0.7270 -0.0711
  660MOL0     H89037   7.685   2.150   2.249 -0.5153  0.5026  0.4749
  660MOL0     H89038   7.713   2.158   2.067 -2.7224 -1.6910 -1.4663
  660MOL0     H89039   7.508   1.991   2.055  1.3586 -1.5256  0.3131
  660MOL0     H89040   7.493   2.030   2.227  1.6065  0.3505  1.2122
  660MOL0     H89041   7.448   2.270   2.186 -1.5372 -1.2584  1.2344
  660MOL0     H89042   7.507   2.248   2.026  3.1296 -0.8694  3.0297
  660MOL0     H89043   7.270   2.307   2.036  0.1140  1.3081 -1.6926
  660MOL0     H89044   7.300   2.150   1.955 -1.1274  0.1894  0.4264
  660MOL0     H89045   7.198   2.030   2.151  1.7784  0.6172 -0.5674
  660MOL0     H89046   7.211   2.185   2.243  3.2515  2.5221 -1.7530
  660MOL0     H89047   6.974   2.123   2.174 -1.2641 -1.4075 -0.4291
  660MOL0     H89048   7.034   2.254   2.057  0.6856 -0.7973 -2.1872
  660MOL0     H89049   7.085   2.092   1.892  0.5827 -0.3930  0.8235
  660MOL0     H89050   6.915   2.092   1.945 -0.3125 -3.0480 -0.8277
  660MOL0     H89051   6.873   1.843   2.133  2.3576  0.3651  3.3753
  660MOL0     H89052   6.884   1.511   1.933  0.3609 -2.1297  2.1715
  660MOL0     H89053   6.957   1.522   2.087 -2.0962 -3.3520  0.1944
  660MOL0     H89054   6.754   1.670   2.175  0.9571  0.2689  0.7486
  660MOL0     H89055   6.729   1.499   2.146 -0.4998  0.4091  1.3971
  660MOL0     H89056   6.675   1.603   1.899  0.3475 -3.6664  1.3116
  660MOL0     H89057   6.648   1.754   1.996 -1.2532  0.3173 -2.3615
  660MOL0     H89058   6.493   1.628   2.147 -0.2796  0.3238 -0.1905
  660MOL0     H89059   6.493   1.496   2.039 -1.5175  0.1202 -1.1132
  660MOL0     H89060   6.283   1.841   1.851  0.9730  0.4331  1.4720
  660MOL0     H89061   6.080   2.002   1.808  0.2491 -1.6427 -0.6246
  660MOL0     H89062   5.930   1.928   1.870  0.4643  0.5957 -1.8357
  660MOL0     H89063   6.004   2.049   1.962 -1.3814  0.3818 -1.8359
  660MOL0     H89064   5.699   2.006   2.220  2.1693  0.6286 -2.3518
  660MOL0     H89065   5.476   2.093   2.207  0.5088 -1.6743  1.3389
  660MOL0     H89066   5.266   2.087   2.254  0.5187  1.5689 -0.3786
  660MOL0     H89067   5.223   2.195   2.120  2.0819  0.1020  0.4599
  660MOL0     H89068   5.069   1.957   2.197 -1.6345  0.7421 -1.2158
  660MOL0     H89069   5.054   2.110   2.290 -1.3236  2.6777 -0.9401
  660MOL0     H89070   4.954   2.042   2.007 -1.9069 -0.2408 -1.0235
  660MOL0     H89071   4.962   2.212   2.061 -1.6789 -0.2824 -2.6726
  660MOL0     H89072   4.835   1.987   2.219 -1.6145 -1.7085 -0.6750
  660MOL0     H89073   4.791   2.164   2.224 -0.8764 -1.6693  1.0675
  660MOL0     H89074   4.714   1.956   2.026 -0.4261 -2.3692  3.5954
  660MOL0     H89075   4.693   2.137   1.996 -0.7399 -1.1503 -1.2838
  660MOL0     H89076   4.591   1.964   2.228 -0.4587  0.4354 -0.2918
  660MOL0     H89077   4.564   2.138   2.225 -1.0323  0.2807 -0.7145
  660MOL0     H89078   4.434   2.112   2.017  0.4679  2.5784  3.3148
  660MOL0     H89079   4.352   2.016   2.138 -1.3523  0.3952 -2.0624
  660MOL0     H89080   4.521   1.896   1.923  0.6725 -2.9993  0.7028
  660MOL0     H89081   4.344   1.889   1.950 -1.1621  3.0219  0.4800
  660MOL0     H89082   5.341   1.779   1.964  1.4828 -2.9116  1.0020
  660MOL0     H89083   5.603   1.706   1.939  3.6944  1.5858 -2.1604
  660MOL0     H89084   6.047   1.645   2.241  1.0830  3.1660  1.7278
  660MOL0     H89085   6.273   1.546   2.159 -1.3525  0.5362  1.1830
  660MOL0     H89086   7.926   1.774   2.086  1.2641 -2.0740 -0.2081
  660MOL0     H89087   8.045   1.570   2.138 -0.3960 -0.6886 -0.0207
  660MOL0     H89088   8.247   1.209   2.090  0.0774 -0.0409 -0.6615
  660MOL0     H89089   8.469   1.141   2.139  1.6912 -1.4370  0.7576
  660MOL0     H89090   8.626   1.010   2.263 -2.7351  0.6459  1.9181
  660MOL0     H89091   8.700   1.171   2.209  1.4027 -1.2254 -1.4837
  660MOL0     H89092   8.857   0.979   2.299 -0.6196 -1.7839  1.8893
  660MOL0     H89093   8.782   1.001   2.457  1.0112  0.8353  1.7760
  660MOL0     H89094   8.844   1.259   2.410  0.2481  0.0112 -1.6130
  660MOL0     H89095   8.953   1.200   2.294  1.4636  1.3344  1.4540
  660MOL0     H89096   8.955   1.119   2.578  0.6375 -1.0103  0.0307
  660MOL0     H89097   9.073   1.220   2.497  1.0423 -0.5198  0.0470
  660MOL0     H89098   9.250   0.859   2.392  2.0634  1.7076  1.7157
  660MOL0     H89099   8.427   1.280   2.542 -0.4477 -1.5561  0.4733
  660MOL0     H89100   8.182   1.335   2.501  0.8459 -0.6308  1.4992
  661MOL0     O89101   3.407   6.509   4.852  0.7397  0.3275  0.2548
  661MOL0     C89102   3.440   6.576   4.751 -0.2187  0.7924  0.7361
  661MOL0     O89103   3.373   6.683   4.696  0.3242  0.5412 -0.5131
  661MOL0     C89104   3.241   6.702   4.742  0.2163  0.2158  0.1582
  661MOL0     C89105   3.190   6.838   4.751 -0.3429  0.1300 -0.0821
  661MOL0     C89106   3.062   6.859   4.803 -0.0177 -0.3844 -0.5918
  661MOL0     C89107   2.981   6.756   4.846 -0.4461 -0.0853 -0.1795
  661MOL0     O89108   2.864   6.759   4.920  0.2308 -0.3974  0.4084
  661MOL0     C89109   2.790   6.886   4.935 -0.8867  0.6594  0.6803
  661MOL0     C89110   2.701   6.905   4.810 -0.0411  1.1819 -0.4926
  661MOL0     C89111   2.629   7.038   4.833 -0.5272  0.0882 -0.2883
  661MOL0     C89112   2.480   7.019   4.818  0.2318  0.7623 -0.0630
  661MOL0     C89113   2.408   7.154   4.796  0.5907  0.8315  0.7057
  661MOL0     C89114   2.254   7.141   4.819  1.1826  0.8212 -0.2397
  661MOL0     C89115   2.177   7.274   4.801 -0.3857  0.7996 -0.7102
  661MOL0     C89116   2.029   7.241   4.858 -0.7859  0.1972 -0.6341
  661MOL0     N89117   1.951   7.367   4.843  0.0020  0.5374 -0.2673
  661MOL0     C89118   1.990   7.490   4.901 -0.3601  0.2431 -0.1423
  661MOL0     C89119   1.895   7.577   4.854 -0.1654  0.0402 -0.9874
  661MOL0     C89120   1.879   7.716   4.898  0.2821  0.8982  0.0796
  661MOL0     C89121   1.766   7.738   5.013 -0.2004 -0.7285 -0.5221
  661MOL0     C89122   1.813   7.695   5.154 -0.0442  0.0779  0.2708
  661MOL0     C89123   1.726   7.732   5.274  0.2822  0.0418  0.3512
  661MOL0     O89124   1.735   7.869   5.298 -0.3180 -0.4001  0.2676
  661MOL0     C89125   1.616   7.922   5.335 -0.1227  1.2606 -0.1024
  661MOL0     C89126   1.522   7.859   5.424  0.2660  0.2128  0.7124
  661MOL0     C89127   1.403   7.925   5.451 -0.9719 -0.1011 -0.3506
  661MOL0     C89128   1.303   7.850   5.536 -0.3881  0.4054  0.4451
  661MOL0     C89129   1.376   8.050   5.402  1.0929 -0.2262 -1.0859
  661MOL0     C89130   1.249   8.127   5.414  0.5186 -0.8423 -0.2618
  661MOL0     O89131   1.193   8.190   5.304  0.2987  0.5168 -0.2405
  661MOL0     C89132   1.077   8.258   5.300 -0.4574  0.5850 -0.3005
  661MOL0     C89133   0.996   8.310   5.406  0.2704  0.6047 -0.0642
  661MOL0     C89134   0.890   8.387   5.382 -0.2923 -0.5557  0.4925
  661MOL0     C89135   0.844   8.408   5.248 -0.0336  0.4813  0.5198
  661MOL0     O89136   0.723   8.479   5.240  0.1295 -0.4281 -0.3723
  661MOL0     C89137   0.697   8.549   5.116 -0.6224 -0.4158  0.1431
  661MOL0     C89138   0.559   8.600   5.116 -0.3542  0.1611  0.9645
  661MOL0     C89139   0.523   8.722   5.188 -0.4066  0.3905  0.1606
  661MOL0     C89140   0.382   8.746   5.191  0.6057 -0.4926 -0.0008
  661MOL0     C89141   0.350   8.882   5.255 -0.0605 -0.4695  0.3828
  661MOL0     C89142   0.377   8.887   5.410 -0.1736  0.3636  0.3386
  661MOL0     C89143   0.302   9.007   5.477 -0.4403 -0.0754 -0.2317
  661MOL0     C89144   0.243   8.948   5.608 -0.9840 -0.0895  0.0008
  661MOL0    Cl89145   0.123   8.815   5.582 -0.3039 -0.3149  0.6233
  661MOL0     C89146   0.918   8.363   5.139 -0.2235  0.2789  0.5540
  661MOL0     C89147   1.037   8.288   5.167  0.0683 -0.5061  0.1224
  661MOL0     O89148   1.200   8.139   5.530 -0.3693 -0.1910 -0.4962
  661MOL0     C89149   1.472   8.108   5.318  0.5654 -0.2434  0.1835
  661MOL0     C89150   1.583   8.047   5.286  0.4453  0.1678  0.3491
  661MOL0     N89151   1.800   7.510   4.765  0.0356 -0.4031 -0.2048
  661MOL0     N89152   1.835   7.378   4.769 -0.2329  0.2061 -0.4311
  661MOL0     C89153   3.015   6.632   4.810  0.0339  0.5409 -0.2839
  661MOL0     C89154   3.151   6.600   4.778  0.0570 -0.5989 -2.0424
  661MOL0     C89155   3.550   6.522   4.663 -0.1069  0.1106 -0.2622
  661MOL0     C89156   3.637   6.405   4.694 -0.2161  0.6860 -0.8870
  661MOL0     C89157   3.734   6.351   4.607  0.2066  0.0741 -0.0714
  661MOL0     C89158   3.754   6.402   4.484  0.5853  0.6268 -0.4700
  661MOL0     O89159   3.847   6.354   4.395 -0.5380  0.3131  0.5337
  661MOL0     C89160   3.897   6.219   4.418 -0.7095  0.8226 -0.0740
  661MOL0     C89161   3.920   6.158   4.285  0.3819  0.5031 -0.9326
  661MOL0     C89162   3.805   6.170   4.179  0.4327  0.1112  0.5594
  661MOL0     C89163   3.677   6.103   4.233 -0.8816  0.3213 -0.2788
  661MOL0     C89164   3.605   6.051   4.118  0.3980  0.3905  0.4855
  661MOL0     C89165   3.548   6.024   4.008  0.4063 -0.8437 -0.0486
  661MOL0     C89166   3.687   6.521   4.454  0.0275 -0.1583 -0.9052
  661MOL0     C89167   3.595   6.580   4.547 -0.4731  0.4604  0.6621
  661MOL0     H89168   3.264   6.911   4.722  2.3586 -1.4809  2.2209
  661MOL0     H89169   3.042   6.964   4.821 -2.3384  0.0592 -4.5198
  661MOL0     H89170   2.728   6.867   5.022  0.0904 -0.9430  1.0673
  661MOL0     H89171   2.850   6.973   4.964 -1.0691  1.3186 -0.8328
  661MOL0     H89172   2.761   6.923   4.721 -0.3503 -2.6026 -1.6108
  661MOL0     H89173   2.638   6.818   4.789  0.7293  1.1787 -3.1182
  661MOL0     H89174   2.653   7.077   4.932  1.8626  0.0649 -0.7970
  661MOL0     H89175   2.676   7.112   4.768 -0.9809  0.1104 -0.5963
  661MOL0     H89176   2.456   6.947   4.740  2.0393 -0.8188  0.7684
  661MOL0     H89177   2.439   6.973   4.909 -1.5602  2.6965  0.2011
  661MOL0     H89178   2.457   7.214   4.873  0.6141 -1.6022  2.7231
  661MOL0     H89179   2.426   7.192   4.696  0.9391 -0.9031  0.0737
  661MOL0     H89180   2.220   7.072   4.742  1.6651  0.0808  0.2021
  661MOL0     H89181   2.231   7.102   4.918  0.5282 -0.7658 -0.9825
  661MOL0     H89182   2.231   7.356   4.850 -0.8157  1.2026 -0.9027
  661MOL0     H89183   2.162   7.312   4.700 -0.4062  1.0349 -0.6187
  661MOL0     H89184   2.023   7.207   4.961 -0.6542  1.4232 -0.1984
  661MOL0     H89185   1.997   7.160   4.792  1.9544  0.4714 -2.4740
  661MOL0     H89186   2.071   7.502   4.972  1.6563  0.4707 -2.3426
  661MOL0     H89187   1.977   7.744   4.938  1.2594 -1.3940 -0.5231
  661MOL0     H89188   1.862   7.772   4.806  1.0228 -0.1511 -0.7199
  661MOL0     H89189   1.669   7.691   4.992 -1.9828  2.7463 -0.8609
  661MOL0     H89190   1.741   7.844   5.014  2.5924 -0.0024 -0.1811
  661MOL0     H89191   1.915   7.735   5.160 -0.5709  2.0266 -2.1706
  661MOL0     H89192   1.823   7.587   5.170 -1.0039  0.3367  3.0227
  661MOL0     H89193   1.762   7.690   5.369 -0.8312 -2.9630 -0.4164
  661MOL0     H89194   1.625   7.690   5.260  0.7412 -1.6122  1.6017
  661MOL0     H89195   1.532   7.757   5.461 -2.6430 -0.4445 -0.0951
  661MOL0     H89196   1.296   7.749   5.495  1.5685  1.3773 -2.5748
  661MOL0     H89197   1.340   7.844   5.639 -0.3675 -1.0539  0.3712
  661MOL0     H89198   1.204   7.895   5.543 -0.4574  0.3434 -0.1090
  661MOL0     H89199   1.025   8.284   5.508  1.8075  2.4438  0.0307
  661MOL0     H89200   0.835   8.426   5.467  0.4932 -2.7375  2.0946
  661MOL0     H89201   0.757   8.641   5.109 -4.5668  2.5095  1.5771
  661MOL0     H89202   0.709   8.475   5.036 -1.0900 -2.1621  1.6240
  661MOL0     H89203   0.542   8.628   5.011 -2.3041 -1.4362  0.8095
  661MOL0     H89204   0.494   8.518   5.144 -1.4339 -0.0722 -1.8371
  661MOL0     H89205   0.581   8.803   5.142  3.2237 -2.7125 -1.2679
  661MOL0     H89206   0.551   8.708   5.293  1.5655 -1.1054 -0.5021
  661MOL0     H89207   0.330   8.724   5.097  4.3988 -2.5254 -1.8459
  661MOL0     H89208   0.336   8.676   5.261 -0.2238 -0.8229 -0.8497
  661MOL0     H89209   0.242   8.890   5.238  0.0232  1.3596  0.5292
  661MOL0     H89210   0.392   8.966   5.199 -1.8756 -0.2678 -0.7809
  661MOL0     H89211   0.339   8.799   5.462 -1.6505 -0.2041 -1.5736
  661MOL0     H89212   0.484   8.897   5.429 -0.5475  1.7990  1.9599
  661MOL0     H89213   0.222   9.043   5.412 -1.9521 -0.8320  1.1232
  661MOL0     H89214   0.371   9.087   5.507 -0.3814 -0.1027 -0.2959
  661MOL0     H89215   0.202   9.025   5.673 -1.0146  1.3530 -1.6492
  661MOL0     H89216   0.329   8.900   5.655 -2.0311 -3.8753 -1.5587
  661MOL0     H89217   0.896   8.372   5.033  0.0348  1.9428  0.6111
  661MOL0     H89218   1.097   8.241   5.090 -0.4722  0.9182 -1.2346
  661MOL0     H89219   1.446   8.195   5.257 -2.2652 -1.9518 -1.2560
  661MOL0     H89220   1.651   8.089   5.212  1.2688 -1.1958  0.2918
  661MOL0     H89221   2.943   6.553   4.827  0.5226 -0.6444 -3.2473
  661MOL0     H89222   3.190   6.502   4.753  2.9933 -0.2365  0.5775
  661MOL0     H89223   3.629   6.345   4.784  0.8949  0.9873 -0.5743
  661MOL0     H89224   3.788   6.264   4.642  0.8585  0.5871  0.2180
  661MOL0     H89225   3.986   6.230   4.480  0.0631 -0.4350 -0.9155
  661MOL0     H89226   3.832   6.156   4.480 -0.6389  0.3411 -0.4802
  661MOL0     H89227   3.961   6.057   4.289  5.1461  2.1952 -0.1015
  661MOL0     H89228   4.001   6.218   4.244  0.3892  0.9555 -0.2786
  661MOL0     H89229   3.847   6.135   4.084 -1.5607 -0.8176 -0.0352
  661MOL0     H89230   3.771   6.273   4.170  1.5078  0.5854  1.6380
  661MOL0     H89231   3.623   6.176   4.294 -0.9916 -1.9985  2.6601
  661MOL0     H89232   3.709   6.034   4.312  1.4116  2.1704  0.5370
  661MOL0     H89233   3.501   5.989   3.918 -0.0999 -2.2703  0.7417
  661MOL0     H89234   3.703   6.558   4.353 -0.0016  2.9483  0.1199
  661MOL0     H89235   3.547   6.673   4.519  0.3751  1.3792  2.1554
  662MOL0     O89236   0.717   7.036   8.479 -0.3898  0.1690  0.3605
  662MOL0     C89237   0.780   7.112   8.405  0.3477 -1.0809 -0.0049
  662MOL0     O89238   0.721   7.187   8.308 -0.6899 -0.5875 -0.2950
  662MOL0     C89239   0.587   7.172   8.285 -0.6332 -0.0957 -0.7409
  662MOL0     C89240   0.495   7.225   8.384 -0.7624 -0.2549  0.0224
  662MOL0     C89241   0.358   7.226   8.366  0.6100 -0.4890  0.6828
  662MOL0     C89242   0.300   7.169   8.252 -0.2244 -0.5522  1.2811
  662MOL0     O89243   0.160   7.163   8.235 -0.2349  0.1617 -0.3598
  662MOL0     C89244   0.089   7.277   8.284  0.3800  0.0660  0.2119
  662MOL0     C89245  -0.066   7.254   8.263  0.2267  0.0293  0.2913
  662MOL0     C89246  -0.141   7.333   8.371 -0.0974 -0.6116  0.1261
  662MOL0     C89247  -0.293   7.338   8.334  0.0732 -0.1734 -0.2568
  662MOL0     C89248  -0.372   7.447   8.415  0.7412  0.3607  0.2210
  662MOL0     C89249  -0.527   7.445   8.380 -0.2679  0.7286 -0.0082
  662MOL0     C89250  -0.596   7.546   8.476 -0.1367  0.3543 -0.2049
  662MOL0     C89251  -0.746   7.542   8.441  0.4882 -0.3438  0.2348
  662MOL0     N89252  -0.815   7.618   8.544 -0.4678 -0.3461 -0.7064
  662MOL0     C89253  -0.888   7.555   8.638  0.2112  0.0139  0.5720
  662MOL0     C89254  -0.946   7.654   8.703 -0.1768  0.1426 -0.0213
  662MOL0     C89255  -1.036   7.630   8.820  1.0778 -0.0022 -0.0343
  662MOL0     C89256  -1.178   7.649   8.764 -0.5383  0.5428  0.0482
  662MOL0     C89257  -1.229   7.773   8.702  0.6467  0.1745  0.1597
  662MOL0     C89258  -1.216   7.887   8.806  0.7745 -0.3218 -0.0834
  662MOL0     O89259  -1.305   7.985   8.761 -0.0469  0.3588  0.4191
  662MOL0     C89260  -1.369   8.063   8.862 -0.1851  0.4452 -0.3045
  662MOL0     C89261  -1.312   8.111   8.978 -0.1741 -0.9706  0.2351
  662MOL0     C89262  -1.391   8.188   9.067 -0.6003  0.3283  0.1947
  662MOL0     C89263  -1.315   8.238   9.200 -0.4658  1.3401 -0.1687
  662MOL0     C89264  -1.517   8.216   9.034  1.0477 -0.9437  0.2832
  662MOL0     C89265  -1.610   8.305   9.117 -0.2416 -0.7779 -0.0090
  662MOL0     O89266  -1.743   8.270   9.122  0.6143 -0.7798 -0.1104
  662MOL0     C89267  -1.837   8.340   9.185  0.6331 -0.0577 -0.5712
  662MOL0     C89268  -1.948   8.392   9.115  0.8855  0.3129  0.1390
  662MOL0     C89269  -2.058   8.451   9.178  0.8773  0.0405 -0.8119
  662MOL0     C89270  -2.045   8.482   9.314  0.5337 -0.4141  0.0966
  662MOL0     O89271  -2.151   8.557   9.373 -0.0784 -0.1685 -0.2648
  662MOL0     C89272  -2.106   8.674   9.454  0.0779  0.3563 -0.6125
  662MOL0     C89273  -2.235   8.735   9.505 -0.0060 -0.7662 -0.3243
  662MOL0     C89274  -2.211   8.877   9.565 -0.7598 -0.0524 -0.4694
  662MOL0     C89275  -2.340   8.947   9.644 -0.2688  0.7629  0.4427
  662MOL0     C89276  -2.334   9.093   9.654 -0.6931  0.6811  0.0337
  662MOL0     C89277  -2.474   9.164   9.656 -0.2598  0.2883 -0.7082
  662MOL0     C89278  -2.582   9.098   9.747  0.6179  0.8795  0.0824
  662MOL0     C89279  -2.716   9.169   9.758 -0.1103 -0.1835  0.4928
  662MOL0    Cl89280  -2.781   9.221   9.602  0.4611 -0.3274  0.0755
  662MOL0     C89281  -1.928   8.445   9.384 -0.4093 -0.6449 -0.5487
  662MOL0     C89282  -1.828   8.371   9.322 -0.0264  0.9045  0.4057
  662MOL0     O89283  -1.562   8.408   9.162 -0.4954 -0.3821  0.2777
  662MOL0     C89284  -1.573   8.172   8.919 -0.2043  0.6907 -0.4911
  662MOL0     C89285  -1.499   8.095   8.837 -0.3272  0.0812 -0.5305
  662MOL0     N89286  -0.908   7.786   8.649 -0.1369  0.4208  0.4865
  662MOL0     N89287  -0.819   7.756   8.562 -0.0328 -0.7304  0.2947
  662MOL0     C89288   0.387   7.127   8.149  0.5080  0.3902 -0.5821
  662MOL0     C89289   0.526   7.140   8.158  0.4493  0.2494 -0.3215
  662MOL0     C89290   0.933   7.127   8.426 -0.2543 -0.5782 -0.1324
  662MOL0     C89291   1.004   7.227   8.354  0.3248  0.8723  0.7912
  662MOL0     C89292   1.143   7.248   8.371  0.2769 -0.6841 -0.5808
  662MOL0     C89293   1.216   7.158   8.443 -0.5279  0.0314 -0.6035
  662MOL0     O89294   1.346   7.185   8.451  0.2149 -0.2758  0.4562
  662MOL0     C89295   1.424   7.105   8.347  0.0172 -0.0063 -0.5406
  662MOL0     C89296   1.403   7.153   8.202 -0.3957 -0.4348 -0.1662
  662MOL0     C89297   1.505   7.103   8.097 -0.1757 -0.3651  0.1554
  662MOL0     C89298   1.499   6.950   8.080  0.6749 -0.7066 -0.1801
  662MOL0     C89299   1.597   6.909   7.979 -0.5529  0.6447  0.2741
  662MOL0     C89300   1.682   6.882   7.895  0.4889  0.9575 -0.9169
  662MOL0     C89301   1.151   7.056   8.512  1.1884 -0.1946  0.4584
  662MOL0     C89302   1.011   7.031   8.497  0.0062 -0.1629  0.1285
  662MOL0     H89303   0.543   7.271   8.469  0.5427 -3.1483  0.9842
  662MOL0     H89304   0.293   7.266   8.444  0.0818  2.2318 -0.9827
  662MOL0     H89305   0.110   7.286   8.391  0.3119 -0.2549  0.2552
  662MOL0     H89306   0.129   7.370   8.244  3.2407 -1.2377 -0.1657
  662MOL0     H89307  -0.100   7.288   8.164  0.4773  0.8477  0.4783
  662MOL0     H89308  -0.098   7.150   8.274 -0.5389  0.3358  1.0567
  662MOL0     H89309  -0.130   7.299   8.474  0.2517 -0.9759 -0.0309
  662MOL0     H89310  -0.111   7.438   8.377 -1.5961 -0.2021  1.0050
  662MOL0     H89311  -0.304   7.372   8.231 -1.3409 -1.4536 -0.5674
  662MOL0     H89312  -0.339   7.238   8.336  0.6185 -0.4281  0.0471
  662MOL0     H89313  -0.371   7.431   8.523 -1.7934 -1.6934  0.0391
  662MOL0     H89314  -0.331   7.541   8.376 -2.0772  2.3919  1.8056
  662MOL0     H89315  -0.530   7.479   8.276  1.6502  1.1475  0.0308
  662MOL0     H89316  -0.567   7.343   8.382 -0.4094  0.7412 -1.4746
  662MOL0     H89317  -0.581   7.503   8.575 -0.2572  0.2062 -0.2511
  662MOL0     H89318  -0.543   7.642   8.483  2.7474 -1.1926  0.3596
  662MOL0     H89319  -0.792   7.443   8.432 -0.9197  0.1404  1.6723
  662MOL0     H89320  -0.764   7.595   8.346 -0.5206  1.0736  1.1808
  662MOL0     H89321  -0.904   7.450   8.660  0.2697 -0.5107 -1.6196
  662MOL0     H89322  -1.022   7.528   8.856  0.0282  0.4418  1.7436
  662MOL0     H89323  -1.021   7.708   8.895  0.5585 -1.0237  1.1549
  662MOL0     H89324  -1.250   7.608   8.836 -0.2943 -0.1499 -0.0910
  662MOL0     H89325  -1.172   7.577   8.682  1.8557 -1.0335  1.4738
  662MOL0     H89326  -1.334   7.762   8.674  0.2519  0.4382  1.4690
  662MOL0     H89327  -1.181   7.803   8.609 -1.2377  4.0378  0.2459
  662MOL0     H89328  -1.115   7.931   8.812  0.6617  0.3641 -2.3634
  662MOL0     H89329  -1.250   7.856   8.905 -3.0885  2.2835 -0.3788
  662MOL0     H89330  -1.206   8.092   8.990 -0.2606 -0.4758  2.0131
  662MOL0     H89331  -1.370   8.203   9.288 -0.5976  2.8405  0.3804
  662MOL0     H89332  -1.218   8.188   9.211 -1.7647 -1.2576  0.2048
  662MOL0     H89333  -1.314   8.348   9.202 -4.1123  1.4785  0.0797
  662MOL0     H89334  -1.954   8.390   9.007 -0.3605  2.5232  0.0982
  662MOL0     H89335  -2.143   8.483   9.118  1.0567 -0.0731 -1.1267
  662MOL0     H89336  -2.037   8.660   9.539  1.5444  3.0991 -1.2187
  662MOL0     H89337  -2.066   8.751   9.387  0.7380  0.9328  0.3991
  662MOL0     H89338  -2.300   8.750   9.419 -1.4218 -2.2913  0.4248
  662MOL0     H89339  -2.292   8.673   9.575 -1.4271  0.8890  0.0490
  662MOL0     H89340  -2.171   8.941   9.485 -0.3769  0.7945  0.3726
  662MOL0     H89341  -2.126   8.868   9.634 -0.6940  2.0628 -0.2019
  662MOL0     H89342  -2.426   8.925   9.580 -0.5787 -0.1869  1.1696
  662MOL0     H89343  -2.339   8.907   9.746 -1.3743 -4.4764 -1.3384
  662MOL0     H89344  -2.275   9.127   9.569  3.6947 -2.7323  1.3316
  662MOL0     H89345  -2.283   9.114   9.749 -1.1801 -1.2644  0.7795
  662MOL0     H89346  -2.455   9.267   9.687  1.7057  0.0994 -1.1280
  662MOL0     H89347  -2.510   9.166   9.553  1.8239  0.3263 -1.4943
  662MOL0     H89348  -2.541   9.078   9.847  2.2359  0.0691 -0.7008
  662MOL0     H89349  -2.600   9.006   9.691  1.0259 -0.2864  1.7791
  662MOL0     H89350  -2.702   9.262   9.813 -1.7057  1.6587 -2.0376
  662MOL0     H89351  -2.786   9.105   9.813 -1.4427  1.3260  0.6142
  662MOL0     H89352  -1.918   8.474   9.488 -1.4209  2.3043 -1.1717
  662MOL0     H89353  -1.736   8.363   9.379 -0.1390 -1.5906  0.3344
  662MOL0     H89354  -1.675   8.198   8.894  0.3774  1.3225 -2.3815
  662MOL0     H89355  -1.540   8.059   8.744  1.3693  3.0134 -2.5799
  662MOL0     H89356   0.345   7.094   8.055  0.1504  0.7890 -0.5666
  662MOL0     H89357   0.592   7.125   8.074  0.2992  1.5290 -0.6943
  662MOL0     H89358   0.938   7.290   8.296  1.0293 -0.1471 -1.2269
  662MOL0     H89359   1.192   7.330   8.320  1.4612 -1.0630 -0.1025
  662MOL0     H89360   1.526   7.119   8.384 -0.1304 -0.2491 -0.0225
  662MOL0     H89361   1.390   7.001   8.358 -4.2189  0.9663 -2.2868
  662MOL0     H89362   1.395   7.262   8.198 -2.0760 -0.4987  0.5696
  662MOL0     H89363   1.300   7.119   8.187 -2.0139  2.0376  3.6673
  662MOL0     H89364   1.605   7.138   8.125  0.1474  0.0081 -1.3622
  662MOL0     H89365   1.489   7.156   8.003  0.8478  2.1272  1.2949
  662MOL0     H89366   1.400   6.925   8.040  0.1947  2.2030 -1.0508
  662MOL0     H89367   1.505   6.901   8.178  0.0711 -1.0658 -0.3157
  662MOL0     H89368   1.767   6.873   7.831  0.6966  0.9835 -0.6495
  662MOL0     H89369   1.211   6.988   8.572  0.3455 -0.5651  0.9112
  662MOL0     H89370   0.962   6.949   8.548 -0.8260  0.0659 -0.2788
  663MOL0     O89371   5.546  10.048  10.793 -0.4641 -0.5385 -0.1597
  663MOL0     C89372   5.662  10.061  10.747  0.6038 -0.0622 -0.1115
  663MOL0     O89373   5.692  10.013  10.628 -0.0557  0.3068  0.5366
  663MOL0     C89374   5.597  10.013  10.527  0.0257 -0.0976 -0.9757
  663MOL0     C89375   5.528   9.898  10.485 -1.0253  0.5846 -0.4245
  663MOL0     C89376   5.439   9.901  10.383 -0.3882  0.3594  0.4940
  663MOL0     C89377   5.392  10.018  10.338 -0.2652 -0.7448 -1.2273
  663MOL0     O89378   5.304  10.013  10.236 -0.0070 -0.0998 -0.3350
  663MOL0     C89379   5.217  10.126  10.230 -0.1201 -0.0324  0.5567
  663MOL0     C89380   5.071  10.078  10.219 -0.1924 -0.9949 -0.4626
  663MOL0     C89381   4.977  10.175  10.287  1.2454 -0.1261  0.1030
  663MOL0     C89382   4.827  10.172  10.231  0.7385 -0.1610 -0.3561
  663MOL0     C89383   4.738  10.286  10.296 -0.2839  1.0878  0.0804
  663MOL0     C89384   4.706  10.265  10.451 -1.1173  0.1862 -0.1322
  663MOL0     C89385   4.588  10.330  10.501  0.6328  0.4261  0.5961
  663MOL0     C89386   4.574  10.307  10.650  0.4494  0.0524 -0.1106
  663MOL0     N89387   4.453  10.371  10.704  0.0565 -0.0323  0.0753
  663MOL0     C89388   4.438  10.484  10.779 -0.2462 -0.0739  0.2548
  663MOL0     C89389   4.317  10.486  10.833 -0.5359  0.0429 -0.4517
  663MOL0     C89390   4.272  10.603  10.917 -0.7676 -0.2423  0.3645
  663MOL0     C89391   4.332  10.608  11.059  0.0516 -0.6711 -0.4840
  663MOL0     C89392   4.267  10.729  11.148 -0.6899 -0.3365  0.2099
  663MOL0     C89393   4.120  10.715  11.179 -0.2661 -0.1157 -0.6008
  663MOL0     O89394   4.093  10.627  11.287  0.1788  0.4256 -1.0926
  663MOL0     C89395   3.962  10.571  11.304 -0.6239  0.0071  0.7614
  663MOL0     C89396   3.944  10.476  11.398  0.3426  0.3070 -0.4957
  663MOL0     C89397   3.820  10.413  11.432  0.3149 -0.6425 -0.3599
  663MOL0     C89398   3.832  10.295  11.523  0.6331  0.1857 -0.4065
  663MOL0     C89399   3.701  10.476  11.377 -0.8012  0.0040  0.1040
  663MOL0     C89400   3.560  10.423  11.396  0.0943 -0.5007  0.5628
  663MOL0     O89401   3.470  10.482  11.315  0.9584 -0.0305 -0.6628
  663MOL0     C89402   3.339  10.439  11.294 -0.2158 -0.3179 -0.3911
  663MOL0     C89403   3.243  10.542  11.309  0.5091  0.1771  0.4185
  663MOL0     C89404   3.108  10.507  11.294 -0.0607 -0.8456  0.3331
  663MOL0     C89405   3.067  10.378  11.290  0.2869 -0.7679  0.5546
  663MOL0     O89406   2.933  10.346  11.291 -0.0212 -0.3759 -0.6324
  663MOL0     C89407   2.849  10.422  11.379 -0.2383  0.2979  0.9057
  663MOL0     C89408   2.712  10.372  11.400  1.5990  0.0972 -0.2216
  663MOL0     C89409   2.645  10.298  11.289 -0.9928 -0.3659  0.5215
  663MOL0     C89410   2.521  10.223  11.314 -0.1768  0.8424  0.1966
  663MOL0     C89411   2.415  10.321  11.373 -0.6641 -0.7760  0.4379
  663MOL0     C89412   2.281  10.266  11.387  0.2235 -0.1158  0.6926
  663MOL0     C89413   2.199  10.330  11.495 -0.0935  0.6227 -0.1823
  663MOL0     C89414   2.067  10.268  11.523 -0.6392 -0.3038 -0.1146
  663MOL0    Cl89415   1.992  10.358  11.658 -0.2810 -0.0306 -0.6091
  663MOL0     C89416   3.158  10.274  11.283  0.4043 -0.0817 -0.1438
  663MOL0     C89417   3.296  10.307  11.296 -0.5848 -0.8461  0.5577
  663MOL0     O89418   3.543  10.341  11.488 -0.5684 -0.3087 -0.2035
  663MOL0     C89419   3.724  10.576  11.274  0.4277  0.5503  0.2014
  663MOL0     C89420   3.845  10.615  11.234  0.1405 -0.0543  0.5665
  663MOL0     N89421   4.246  10.375  10.787  0.8922 -0.1630  0.4510
  663MOL0     N89422   4.327  10.313  10.713 -0.5616 -0.4174  0.3377
  663MOL0     C89423   5.455  10.147  10.379  0.4407 -0.0137  0.7761
  663MOL0     C89424   5.565  10.135  10.463  0.3863  0.2178  0.7322
  663MOL0     C89425   5.764  10.122  10.822 -0.6055  0.3195 -0.1385
  663MOL0     C89426   5.891  10.084  10.815  0.1775  0.1723  0.3061
  663MOL0     C89427   5.994  10.146  10.885 -0.4969 -0.6382  0.2260
  663MOL0     C89428   5.961  10.254  10.966  0.0173 -0.0748  0.0673
  663MOL0     O89429   6.067  10.317  11.025  0.8619 -0.7585 -0.1201
  663MOL0     C89430   6.042  10.393  11.146 -0.2109 -0.2082 -0.1844
  663MOL0     C89431   6.171  10.452  11.199 -0.5492  0.4660 -0.4692
  663MOL0     C89432   6.141  10.531  11.336 -0.3328  0.7646  0.1592
  663MOL0     C89433   6.083  10.668  11.314 -0.2473  0.5138  1.3730
  663MOL0     C89434   6.154  10.740  11.211 -0.5452  0.2921  0.2062
  663MOL0     C89435   6.239  10.793  11.138 -0.4569  0.4236 -0.2845
  663MOL0     C89436   5.822  10.294  10.972  0.2246 -0.2913  0.4740
  663MOL0     C89437   5.728  10.228  10.900 -0.8195  0.1056  0.5482
  663MOL0     H89438   5.566   9.810  10.536  1.2498  1.5663 -0.2767
  663MOL0     H89439   5.401   9.805  10.349  1.9945 -0.4515 -0.0601
  663MOL0     H89440   5.217  10.181  10.325 -0.5235 -1.1223  1.2058
  663MOL0     H89441   5.229  10.192  10.144  2.7789  0.0692  0.9312
  663MOL0     H89442   5.041  10.053  10.117  1.6736 -0.5017 -1.1725
  663MOL0     H89443   5.063   9.988  10.281 -0.0171  1.8475  4.1771
  663MOL0     H89444   4.956  10.149  10.391 -0.5044  1.5535  0.2081
  663MOL0     H89445   5.017  10.277  10.282 -2.8176  1.6440  0.2473
  663MOL0     H89446   4.826  10.195  10.125 -1.9236  0.6146 -0.2247
  663MOL0     H89447   4.780  10.073  10.231  0.1995  0.0923 -0.2402
  663MOL0     H89448   4.791  10.381  10.285  0.3243  0.6052 -1.2752
  663MOL0     H89449   4.645  10.310  10.245 -0.7300  1.0232  0.8504
  663MOL0     H89450   4.691  10.158  10.466 -0.6566  0.0591 -0.5794
  663MOL0     H89451   4.790  10.288  10.517 -0.7922  0.1155 -0.5170
  663MOL0     H89452   4.597  10.437  10.481  0.0446 -0.1761 -3.7950
  663MOL0     H89453   4.497  10.290  10.456  0.6565  2.2350 -1.1816
  663MOL0     H89454   4.669  10.341  10.693  0.1247  0.5750  0.1929
  663MOL0     H89455   4.567  10.198  10.662 -0.9556 -0.1324 -2.1075
  663MOL0     H89456   4.510  10.565  10.789 -2.3551  1.7015  2.1004
  663MOL0     H89457   4.278  10.699  10.865 -1.7837 -2.1551 -3.6642
  663MOL0     H89458   4.168  10.583  10.941 -1.5774  2.4200 -0.5768
  663MOL0     H89459   4.439  10.629  11.069  0.1412 -0.8098 -1.1133
  663MOL0     H89460   4.330  10.507  11.100 -1.5934 -0.7524 -0.7154
  663MOL0     H89461   4.276  10.816  11.083  0.7587 -1.6793 -1.4753
  663MOL0     H89462   4.332  10.741  11.235  1.8843 -3.1853 -1.1357
  663MOL0     H89463   4.060  10.694  11.091 -0.6417 -0.8207 -0.1857
  663MOL0     H89464   4.095  10.817  11.209  0.8085  0.2933 -1.0505
  663MOL0     H89465   4.034  10.441  11.449  0.5856 -1.9443 -2.3088
  663MOL0     H89466   3.741  10.237  11.505 -2.0138  4.0041 -0.5740
  663MOL0     H89467   3.923  10.235  11.512  0.5884  0.2300 -1.0316
  663MOL0     H89468   3.836  10.320  11.629 -0.1687  2.1296 -0.7935
  663MOL0     H89469   3.275  10.645  11.322 -1.0886  0.7391  0.1568
  663MOL0     H89470   3.043  10.593  11.303  0.5348 -0.4959  1.5764
  663MOL0     H89471   2.904  10.429  11.474  1.1702  1.1866  0.0596
  663MOL0     H89472   2.844  10.518  11.326 -0.9203  1.1481  2.4246
  663MOL0     H89473   2.718  10.302  11.484  1.1333 -1.5474 -1.5047
  663MOL0     H89474   2.637  10.440  11.441 -1.6615 -3.0733 -0.4725
  663MOL0     H89475   2.711  10.217  11.259 -3.9506 -2.7256 -0.1368
  663MOL0     H89476   2.624  10.372  11.211 -5.9072 -2.7412 -0.8398
  663MOL0     H89477   2.487  10.175  11.222  2.1551 -0.2226 -0.1847
  663MOL0     H89478   2.522  10.144  11.389 -0.7580 -0.6936 -1.3463
  663MOL0     H89479   2.415  10.410  11.308 -0.7707 -1.7961 -0.9986
  663MOL0     H89480   2.447  10.344  11.475 -0.8977  0.2030  0.3024
  663MOL0     H89481   2.228  10.273  11.291 -1.9233  2.5656  1.9366
  663MOL0     H89482   2.290  10.160  11.412  2.1661 -0.3801 -0.8263
  663MOL0     H89483   2.181  10.434  11.466  2.8108  1.4178  0.6049
  663MOL0     H89484   2.257  10.324  11.588  0.9051 -2.3192 -0.8752
  663MOL0     H89485   2.083  10.168  11.564 -1.0988  0.4491  2.0663
  663MOL0     H89486   1.997  10.262  11.439  1.6376 -0.2135 -2.1418
  663MOL0     H89487   3.114  10.175  11.276  2.3753 -1.1584  1.6326
  663MOL0     H89488   3.372  10.229  11.299 -0.2951 -0.5299  2.0658
  663MOL0     H89489   3.649  10.632  11.219  1.9417  1.3285 -1.1432
  663MOL0     H89490   3.858  10.700  11.168  1.9243  1.1705  2.3635
  663MOL0     H89491   5.441  10.249  10.344 -2.1021 -0.5736 -0.0354
  663MOL0     H89492   5.618  10.226  10.489 -0.7397  1.1919 -0.2746
  663MOL0     H89493   5.921   9.998  10.757  0.2033  0.0124  0.5543
  663MOL0     H89494   6.095  10.107  10.878 -0.9328 -1.9521  0.8889
  663MOL0     H89495   5.982  10.480  11.117 -0.6092 -0.6987 -0.8629
  663MOL0     H89496   6.010  10.319  11.219  3.5971 -1.6939  0.1891
  663MOL0     H89497   6.220  10.518  11.126 -3.1515  0.8219 -1.9961
  663MOL0     H89498   6.241  10.369  11.215  0.9680  0.9989 -3.5808
  663MOL0     H89499   6.234  10.540  11.393  0.3995 -0.8959 -0.7192
  663MOL0     H89500   6.069  10.471  11.392 -0.6573  1.3829  0.4170
  663MOL0     H89501   6.074  10.719  11.411  4.6308  0.8425  1.9371
  663MOL0     H89502   5.986  10.655  11.266 -0.7890  1.2348  2.2480
  663MOL0     H89503   6.292  10.839  11.056 -1.5166  0.3136 -1.0459
  663MOL0     H89504   5.793  10.383  11.027  0.7257 -0.2315  0.6495
  663MOL0     H89505   5.629  10.271  10.900 -0.3619  1.2045  2.0301
  664MOL0     O89506   6.023   0.280   0.691 -0.6471  0.0737 -0.6207
  664MOL0     C89507   6.038   0.297   0.811  0.4656  0.1572  0.1278
  664MOL0     O89508   6.153   0.304   0.882 -0.3618  0.1334 -0.5132
  664MOL0     C89509   6.271   0.269   0.806 -0.2356 -0.3803 -0.4862
  664MOL0     C89510   6.316   0.134   0.821  0.7714 -0.7124 -0.7487
  664MOL0     C89511   6.434   0.097   0.771 -0.0576  0.1128 -0.2335
  664MOL0     C89512   6.509   0.181   0.693  0.9308 -0.3488  0.1767
  664MOL0     O89513   6.621   0.143   0.628 -0.1640  0.1441  0.0773
  664MOL0     C89514   6.658   0.007   0.636  0.2830  0.0648  0.2958
  664MOL0     C89515   6.786  -0.010   0.562 -0.4369  0.3601 -0.7315
  664MOL0     C89516   6.772   0.040   0.420  0.7912 -0.1663  0.0564
  664MOL0     C89517   6.703  -0.048   0.321  0.1150  0.1984 -0.2414
  664MOL0     C89518   6.669   0.009   0.186  0.2497  1.0531 -0.0420
  664MOL0     C89519   6.797   0.064   0.108  0.2261 -0.0976 -0.7137
  664MOL0     C89520   6.771   0.081  -0.036 -0.0716 -0.0502 -0.7631
  664MOL0     C89521   6.866   0.170  -0.114  0.1582 -0.4397 -0.0379
  664MOL0     N89522   6.870   0.306  -0.061 -0.5510  0.2307 -0.5383
  664MOL0     C89523   6.975   0.361   0.023  0.3336  1.0232  0.9338
  664MOL0     C89524   6.930   0.484   0.039  0.2668  0.2100  0.0793
  664MOL0     C89525   7.010   0.594   0.103 -0.0989  0.2274  0.5066
  664MOL0     C89526   6.941   0.663   0.213  1.1470  0.0046  1.6326
  664MOL0     C89527   6.925   0.569   0.326 -0.0726  0.6949  0.1131
  664MOL0     C89528   6.847   0.630   0.443 -0.0885  0.1203  0.0748
  664MOL0     O89529   6.853   0.529   0.546  0.2290 -0.1951  0.1990
  664MOL0     C89530   6.766   0.542   0.654 -0.7251 -0.1737  0.3566
  664MOL0     C89531   6.784   0.444   0.747  0.0254  0.3079  0.4549
  664MOL0     C89532   6.705   0.434   0.853 -0.1367 -0.4001 -0.5589
  664MOL0     C89533   6.718   0.319   0.940 -0.5748 -0.2061 -0.5378
  664MOL0     C89534   6.607   0.538   0.887  0.6862  0.6989  0.2844
  664MOL0     C89535   6.492   0.520   0.986 -0.3014  0.1711  0.7300
  664MOL0     O89536   6.428   0.634   1.029 -0.8622 -0.0773  0.5687
  664MOL0     C89537   6.305   0.627   1.084  0.2908 -0.2608 -0.7781
  664MOL0     C89538   6.196   0.684   1.027  0.1872 -0.1061 -0.2404
  664MOL0     C89539   6.074   0.673   1.087 -0.3767 -0.4387  0.4940
  664MOL0     C89540   6.056   0.602   1.207 -0.4000  1.0667 -0.5351
  664MOL0     O89541   5.935   0.598   1.270  0.0942  0.3560 -0.1340
  664MOL0     C89542   5.849   0.710   1.258 -0.3673  0.4929  0.0770
  664MOL0     C89543   5.733   0.683   1.356  0.4064 -0.1643  0.6528
  664MOL0     C89544   5.621   0.791   1.366 -0.7471  0.0916  0.3849
  664MOL0     C89545   5.499   0.747   1.439  1.5465 -0.1959 -1.2165
  664MOL0     C89546   5.396   0.868   1.436 -1.2393  0.2741  0.1410
  664MOL0     C89547   5.290   0.841   1.546  0.6968  0.6178  0.2597
  664MOL0     C89548   5.179   0.938   1.565 -0.0254  0.6412 -0.2734
  664MOL0     C89549   5.071   0.879   1.660 -0.6450 -0.0037 -1.4810
  664MOL0    Cl89550   5.140   0.840   1.819 -0.1304  0.2551 -0.7024
  664MOL0     C89551   6.161   0.542   1.270  0.1572  0.7122  0.4707
  664MOL0     C89552   6.289   0.559   1.204 -0.5231  0.5137  0.0563
  664MOL0     O89553   6.462   0.405   1.022  0.1759  0.5229  0.0265
  664MOL0     C89554   6.595   0.644   0.796  0.0619  0.6762 -0.5671
  664MOL0     C89555   6.675   0.645   0.676 -0.6836  0.4181 -0.9614
  664MOL0     N89556   6.806   0.511  -0.024 -0.0836  0.2913  0.1805
  664MOL0     N89557   6.777   0.401  -0.091 -0.6660  0.2335 -0.1245
  664MOL0     C89558   6.467   0.312   0.674 -0.1868  0.2914 -0.6772
  664MOL0     C89559   6.351   0.361   0.730  0.0226  0.2229  0.3401
  664MOL0     C89560   5.911   0.306   0.882  0.4149 -0.9002 -0.1961
  664MOL0     C89561   5.782   0.269   0.827  1.2718  0.8334  0.3002
  664MOL0     C89562   5.665   0.290   0.907  1.1387 -1.0430  0.8189
  664MOL0     C89563   5.678   0.337   1.037 -0.7194 -0.3028  0.2190
  664MOL0     O89564   5.565   0.349   1.109 -0.5800 -0.7812 -0.6420
  664MOL0     C89565   5.546   0.231   1.195  0.0262  0.1228 -0.3225
  664MOL0     C89566   5.413   0.167   1.155 -0.2379 -0.0614 -0.6437
  664MOL0     C89567   5.283   0.245   1.204  0.2077 -0.5440  0.2539
  664MOL0     C89568   5.158   0.164   1.155  1.0730  0.2307  0.0157
  664MOL0     C89569   5.038   0.187   1.240 -0.5589 -0.3778  0.0894
  664MOL0     C89570   4.941   0.198   1.313 -0.9883  0.1075  0.4725
  664MOL0     C89571   5.804   0.358   1.094  0.2435 -0.2847  0.5368
  664MOL0     C89572   5.915   0.360   1.013  0.5016  0.9131 -0.3091
  664MOL0     H89573   6.259   0.049   0.858  0.8313 -0.3738  0.1549
  664MOL0     H89574   6.461  -0.006   0.792  3.5748  0.8812 -0.4840
  664MOL0     H89575   6.675  -0.028   0.738 -0.6059 -1.0329  0.0893
  664MOL0     H89576   6.579  -0.053   0.589 -0.1609  0.0961  0.9853
  664MOL0     H89577   6.862   0.043   0.620 -0.3121 -1.2780  0.7059
  664MOL0     H89578   6.828  -0.111   0.568  1.4488  1.1047 -0.6701
  664MOL0     H89579   6.725   0.138   0.409 -1.6932 -1.3867 -0.9483
  664MOL0     H89580   6.875   0.040   0.381  1.9490  0.8666  2.8782
  664MOL0     H89581   6.748  -0.145   0.302 -2.1462 -0.8994 -0.2800
  664MOL0     H89582   6.605  -0.078   0.360  0.4326 -1.1912 -0.4701
  664MOL0     H89583   6.621  -0.074   0.133  0.5095 -0.2496  1.6935
  664MOL0     H89584   6.592   0.087   0.193  0.6617  1.6555 -1.6226
  664MOL0     H89585   6.812   0.167   0.141  0.6499  0.4123 -2.4007
  664MOL0     H89586   6.880  -0.005   0.125 -0.4831 -0.8208 -0.0544
  664MOL0     H89587   6.764  -0.024  -0.067 -2.5624 -0.1194 -0.1228
  664MOL0     H89588   6.676   0.134  -0.044 -0.5590 -0.5687  1.0374
  664MOL0     H89589   6.837   0.164  -0.220  1.2828  0.5918 -0.4259
  664MOL0     H89590   6.963   0.123  -0.098  1.2995  1.7682 -0.0548
  664MOL0     H89591   7.062   0.315   0.067  1.6684  3.8813  1.4969
  664MOL0     H89592   7.096   0.539   0.140  1.0793  2.2232  0.8541
  664MOL0     H89593   7.043   0.670   0.032 -1.1554  0.8972  0.7073
  664MOL0     H89594   6.848   0.704   0.172  1.5513 -0.5634  0.0795
  664MOL0     H89595   6.990   0.753   0.251 -0.6008  2.0120 -0.5564
  664MOL0     H89596   7.021   0.536   0.367 -0.4396  0.7753  1.0588
  664MOL0     H89597   6.882   0.472   0.298  1.1848  0.0711  0.2554
  664MOL0     H89598   6.750   0.648   0.394  0.1874  2.7458  0.3193
  664MOL0     H89599   6.883   0.729   0.473 -3.1692  1.6826 -0.8819
  664MOL0     H89600   6.853   0.364   0.720  0.8039  0.7391  1.1105
  664MOL0     H89601   6.623   0.268   0.925 -1.4436  1.0439  0.4782
  664MOL0     H89602   6.801   0.252   0.916  2.0827  2.0242  1.6581
  664MOL0     H89603   6.716   0.348   1.046 -0.7776  0.7903 -0.8066
  664MOL0     H89604   6.211   0.739   0.935  1.2890  2.1044  1.1804
  664MOL0     H89605   5.990   0.709   1.029 -0.7199 -2.8178 -0.5925
  664MOL0     H89606   5.905   0.801   1.282  0.2630 -0.5926  3.2203
  664MOL0     H89607   5.811   0.713   1.156 -1.1653  1.1521  0.3747
  664MOL0     H89608   5.680   0.593   1.325 -2.7116  2.1807 -1.4351
  664MOL0     H89609   5.778   0.662   1.454  0.4520 -0.7347  0.5113
  664MOL0     H89610   5.585   0.814   1.265 -2.7261 -0.1986  0.9736
  664MOL0     H89611   5.657   0.885   1.409 -2.8725  1.2934 -0.2977
  664MOL0     H89612   5.450   0.667   1.383 -1.4991  2.3067 -2.4921
  664MOL0     H89613   5.527   0.707   1.537  2.2355  0.2772 -1.2119
  664MOL0     H89614   5.337   0.866   1.344  1.3836 -3.0107 -1.7108
  664MOL0     H89615   5.444   0.965   1.454  1.3693 -0.9186  0.0974
  664MOL0     H89616   5.253   0.740   1.529  1.7321  0.4767 -1.4018
  664MOL0     H89617   5.346   0.841   1.640  0.7620 -0.9276  0.2446
  664MOL0     H89618   5.114   0.972   1.484 -2.4912  1.6223  1.9649
  664MOL0     H89619   5.222   1.023   1.620 -0.9867  1.5095 -0.8439
  664MOL0     H89620   5.039   0.790   1.605  1.1662  0.7570 -3.9413
  664MOL0     H89621   4.982   0.944   1.668 -0.5857 -0.1818  3.0872
  664MOL0     H89622   6.154   0.497   1.369  0.4272 -1.5788 -0.5001
  664MOL0     H89623   6.369   0.509   1.257 -1.8249 -0.2943  1.3627
  664MOL0     H89624   6.512   0.711   0.811 -1.4229 -1.0806 -0.6347
  664MOL0     H89625   6.677   0.728   0.607 -0.7034  0.0038 -1.4715
  664MOL0     H89626   6.525   0.385   0.619 -0.8776  2.4549  1.3297
  664MOL0     H89627   6.328   0.467   0.736  2.9891  0.8682  3.5844
  664MOL0     H89628   5.777   0.220   0.730 -3.0773  0.1424  0.6772
  664MOL0     H89629   5.569   0.257   0.870  0.6095  0.3590  0.8905
  664MOL0     H89630   5.629   0.161   1.180  0.2904  0.4568 -0.4200
  664MOL0     H89631   5.543   0.261   1.300 -3.8779  1.2481 -0.6013
  664MOL0     H89632   5.408   0.062   1.185  1.0567 -0.3318 -1.2990
  664MOL0     H89633   5.411   0.168   1.045  0.7798 -1.9615 -0.7163
  664MOL0     H89634   5.292   0.349   1.172  1.7500 -0.6129  0.4045
  664MOL0     H89635   5.266   0.245   1.312  1.1429  0.7684  0.4101
  664MOL0     H89636   5.182   0.057   1.150  0.8269  0.1682  0.1687
  664MOL0     H89637   5.122   0.190   1.055 -3.7570 -1.3602  1.0853
  664MOL0     H89638   4.853   0.210   1.373 -0.3869  1.4078  1.1258
  664MOL0     H89639   5.809   0.375   1.201  1.6536  0.1929  0.4122
  664MOL0     H89640   6.008   0.371   1.068  1.1226 -1.9791 -0.5915
  665MOL0     O89641   8.719  10.223   0.154  1.1090 -0.0590  0.3594
  665MOL0     C89642   8.756  10.322   0.093 -0.3471  1.0648 -0.5876
  665MOL0     O89643   8.676  10.403   0.012  0.5595  0.9418 -0.1726
  665MOL0     C89644   8.544  10.379  -0.010 -1.5864 -0.1382 -0.0783
  665MOL0     C89645   8.507  10.254  -0.050 -0.3330  0.2198  0.3012
  665MOL0     C89646   8.371  10.216  -0.035  0.1073 -0.0807  0.7520
  665MOL0     C89647   8.276  10.311  -0.002  0.0608 -0.3128 -0.8431
  665MOL0     O89648   8.144  10.275   0.006  0.7670  0.7387 -0.0167
  665MOL0     C89649   8.047  10.380   0.033  0.8971  0.0417 -0.7031
  665MOL0     C89650   7.906  10.318   0.033 -0.9542  0.3214  0.5367
  665MOL0     C89651   7.785  10.415   0.040 -0.4740  0.4555  0.9070
  665MOL0     C89652   7.663  10.360   0.100 -0.4001  1.3507 -0.3712
  665MOL0     C89653   7.540  10.456   0.120 -0.4942 -0.1248  0.3362
  665MOL0     C89654   7.474  10.505  -0.014 -0.5425  0.1849 -0.1624
  665MOL0     C89655   7.375  10.612   0.023  0.6218 -0.7091 -0.8012
  665MOL0     C89656   7.261  10.626  -0.090 -0.6150  0.3063 -0.3127
  665MOL0     N89657   7.146  10.540  -0.053  0.1320 -0.8327 -0.5420
  665MOL0     C89658   7.056  10.562   0.054 -0.9446  0.5838 -0.3514
  665MOL0     C89659   6.969  10.457   0.044 -0.0483 -0.1742 -1.4935
  665MOL0     C89660   6.874  10.421   0.153  0.3007 -0.6723 -0.2412
  665MOL0     C89661   6.746  10.362   0.088  0.0639  0.4755  0.8780
  665MOL0     C89662   6.666  10.266   0.178  0.6529  0.6608  0.6806
  665MOL0     C89663   6.513  10.258   0.121 -0.5749  0.0723  0.5502
  665MOL0     O89664   6.473  10.148   0.191  0.4419  0.3659 -0.4661
  665MOL0     C89665   6.385  10.061   0.141  0.0616 -0.4422  0.2834
  665MOL0     C89666   6.285  10.098   0.052  0.1260 -0.4964  0.0505
  665MOL0     C89667   6.189  10.014   0.009  0.2164  0.2695  0.0429
  665MOL0     C89668   6.099  10.084  -0.094  0.5410  0.0158  0.2898
  665MOL0     C89669   6.196   9.876   0.049 -0.1831  0.2792 -0.7017
  665MOL0     C89670   6.108   9.773  -0.002  0.4767  0.4626  0.0944
  665MOL0     O89671   6.153   9.641   0.018  0.3694  0.0567 -0.2724
  665MOL0     C89672   6.124   9.530  -0.062 -0.0468  0.4134  0.8802
  665MOL0     C89673   6.204   9.421  -0.043  0.8949 -0.2267  0.4930
  665MOL0     C89674   6.187   9.306  -0.110  0.4478 -0.2409 -0.8386
  665MOL0     C89675   6.086   9.289  -0.204 -0.3616  0.4872 -0.1564
  665MOL0     O89676   6.057   9.160  -0.256  0.2127  0.0273  0.5339
  665MOL0     C89677   5.922   9.135  -0.300 -0.5824  0.4454 -0.1413
  665MOL0     C89678   5.933   9.138  -0.458 -0.2795 -0.1255  0.1268
  665MOL0     C89679   5.796   9.145  -0.519  0.0109 -0.1691  0.7227
  665MOL0     C89680   5.821   9.148  -0.675  0.0660  0.0867 -0.5369
  665MOL0     C89681   5.696   9.194  -0.748  0.5231 -0.3841 -0.3759
  665MOL0     C89682   5.559   9.116  -0.722 -0.3680 -0.5910  0.2803
  665MOL0     C89683   5.546   9.007  -0.828 -0.0478 -0.0178 -0.0984
  665MOL0     C89684   5.418   8.920  -0.815  1.0533  0.0583 -0.0504
  665MOL0    Cl89685   5.434   8.808  -0.682  0.1099 -0.1056 -0.5403
  665MOL0     C89686   6.006   9.402  -0.235  1.0529  0.8315  0.2530
  665MOL0     C89687   6.022   9.514  -0.165  0.2372 -0.5501 -0.3067
  665MOL0     O89688   6.000   9.800  -0.066 -0.2703 -0.4990  0.2221
  665MOL0     C89689   6.303   9.839   0.129  0.0183 -0.5259 -0.4489
  665MOL0     C89690   6.394   9.931   0.183  0.7529  0.1208 -0.3412
  665MOL0     N89691   7.013  10.374  -0.056 -0.0684  0.6776 -0.3031
  665MOL0     N89692   7.114  10.428  -0.120 -0.2686 -0.1549  0.1031
  665MOL0     C89693   8.323  10.440   0.042 -0.5209 -0.0952  0.6604
  665MOL0     C89694   8.457  10.470   0.041 -0.2934  0.1873 -0.1698
  665MOL0     C89695   8.896  10.354   0.113  0.7652  0.3547 -0.5169
  665MOL0     C89696   8.941  10.482   0.065 -1.0335  0.0459  0.3382
  665MOL0     C89697   9.079  10.518   0.078  0.3651 -0.7237  0.3054
  665MOL0     C89698   9.168  10.421   0.138  0.0661 -0.3423 -1.0858
  665MOL0     O89699   9.299  10.457   0.162  0.7276  0.6200  0.0229
  665MOL0     C89700   9.329  10.596   0.177  0.2367  0.5571  0.1032
  665MOL0     C89701   9.467  10.589   0.247 -0.8805  0.7100  0.1048
  665MOL0     C89702   9.575  10.516   0.174  0.6458  0.2004  0.2627
  665MOL0     C89703   9.711  10.560   0.232 -1.1586 -0.5125  0.4112
  665MOL0     C89704   9.823  10.496   0.157  0.3222 -0.3391  0.5388
  665MOL0     C89705   9.898  10.454   0.070  0.4127 -0.4170 -0.3529
  665MOL0     C89706   9.135  10.291   0.176  0.3735 -1.8747 -0.1824
  665MOL0     C89707   8.995  10.261   0.171 -0.4756 -0.3655  0.5688
  665MOL0     H89708   8.582  10.183  -0.084 -1.4060 -1.3618  1.1665
  665MOL0     H89709   8.326  10.121  -0.061 -1.7778  0.6360  1.2567
  665MOL0     H89710   8.059  10.421   0.134  0.6714 -1.0008 -0.2393
  665MOL0     H89711   8.048  10.461  -0.041 -4.1615  0.5846 -0.5626
  665MOL0     H89712   7.894  10.265  -0.062 -0.7541  0.1102  0.6291
  665MOL0     H89713   7.908  10.256   0.123 -3.0479  1.9416  1.7949
  665MOL0     H89714   7.817  10.501   0.099 -0.2846  2.8366 -2.3665
  665MOL0     H89715   7.760  10.448  -0.061 -0.3173 -0.7491  0.4607
  665MOL0     H89716   7.639  10.273   0.038  1.1049  0.2548  0.5137
  665MOL0     H89717   7.692  10.322   0.198 -0.7173  1.8128 -0.0951
  665MOL0     H89718   7.470  10.401   0.184 -1.0475  0.4397  0.2286
  665MOL0     H89719   7.577  10.541   0.179 -1.3519  0.0222  0.6870
  665MOL0     H89720   7.544  10.540  -0.090 -1.6210  0.6395 -0.9722
  665MOL0     H89721   7.426  10.419  -0.061 -1.2728 -0.4174  1.6070
  665MOL0     H89722   7.325  10.583   0.116 -1.5950  1.6908 -1.1234
  665MOL0     H89723   7.420  10.711   0.030 -1.2666  0.0712  1.1857
  665MOL0     H89724   7.290  10.587  -0.188  0.7442 -1.8727  0.8983
  665MOL0     H89725   7.220  10.727  -0.085  0.3233  0.6478  1.4918
  665MOL0     H89726   7.063  10.630   0.138  0.3679 -0.5616  0.5200
  665MOL0     H89727   6.918  10.344   0.217  1.1209 -2.1254 -2.4025
  665MOL0     H89728   6.848  10.509   0.211 -2.2568 -0.2274 -1.9331
  665MOL0     H89729   6.773  10.304  -0.001  3.4182  2.1589  0.6257
  665MOL0     H89730   6.683  10.446   0.057  1.2394  0.7277 -0.9768
  665MOL0     H89731   6.658  10.307   0.279 -1.7109  0.0696  0.7964
  665MOL0     H89732   6.722  10.173   0.183  1.4542  1.0483 -0.6507
  665MOL0     H89733   6.494  10.258   0.014  0.2637  1.4170  0.3789
  665MOL0     H89734   6.474  10.352   0.161  0.1179 -0.0501  1.5451
  665MOL0     H89735   6.270  10.203   0.030 -0.4374 -0.1068  2.0974
  665MOL0     H89736   6.054  10.013  -0.164 -1.4493 -1.1343  2.5805
  665MOL0     H89737   6.024  10.129  -0.029  1.2741  0.4318  0.8765
  665MOL0     H89738   6.162  10.149  -0.155  0.2510 -1.4264 -1.6251
  665MOL0     H89739   6.295   9.433   0.015  2.6133 -1.0249 -1.8924
  665MOL0     H89740   6.257   9.228  -0.082  0.8615  0.3764 -0.0804
  665MOL0     H89741   5.882   9.039  -0.264  2.3588 -0.8272  0.1053
  665MOL0     H89742   5.846   9.210  -0.277 -1.6933 -0.9592  0.9776
  665MOL0     H89743   5.995   9.223  -0.487  1.7476  0.1136  4.4096
  665MOL0     H89744   5.981   9.051  -0.504  0.4721  0.2737  0.1355
  665MOL0     H89745   5.749   9.232  -0.472  0.6581  1.4276 -1.4263
  665MOL0     H89746   5.750   9.049  -0.493  2.2532 -2.2532 -2.2866
  665MOL0     H89747   5.903   9.212  -0.708 -0.3872  0.5788 -0.7307
  665MOL0     H89748   5.845   9.046  -0.707 -0.7414  0.4976 -2.6323
  665MOL0     H89749   5.722   9.207  -0.853  2.8572  2.6964  0.4386
  665MOL0     H89750   5.665   9.295  -0.721 -2.0036 -1.1803  0.0037
  665MOL0     H89751   5.560   9.075  -0.621  1.0060 -1.0867  0.0914
  665MOL0     H89752   5.479   9.190  -0.727  2.7568  3.0944 -4.9207
  665MOL0     H89753   5.641   8.954  -0.824  0.7761  1.4852  2.6525
  665MOL0     H89754   5.546   9.054  -0.927 -1.1655  1.0786  0.4020
  665MOL0     H89755   5.399   8.859  -0.904 -0.0035  0.7100 -0.2960
  665MOL0     H89756   5.332   8.987  -0.808  1.7050  1.4089 -3.1504
  665MOL0     H89757   5.941   9.402  -0.323 -0.1686  3.1847  1.0421
  665MOL0     H89758   5.969   9.605  -0.193 -0.0697 -0.6742 -0.1277
  665MOL0     H89759   6.311   9.740   0.174  1.3467 -0.5189 -0.6302
  665MOL0     H89760   6.475   9.897   0.246  1.4301  1.3472 -0.5259
  665MOL0     H89761   8.254  10.519   0.068  0.2199  0.3924  1.1628
  665MOL0     H89762   8.488  10.568   0.077 -3.0959  0.2808  2.3860
  665MOL0     H89763   8.880  10.555   0.013 -1.0392  0.0693  0.3768
  665MOL0     H89764   9.117  10.611   0.035  0.2573 -0.6668  0.3333
  665MOL0     H89765   9.340  10.651   0.083  1.1305 -0.2180 -0.2577
  665MOL0     H89766   9.252  10.650   0.234  0.6882  1.2948  0.0288
  665MOL0     H89767   9.459  10.539   0.344 -1.3184  0.9537  0.1932
  665MOL0     H89768   9.487  10.695   0.264 -2.7376  1.1367 -0.2223
  665MOL0     H89769   9.562  10.536   0.067 -0.9491  0.1773  0.4361
  665MOL0     H89770   9.561  10.408   0.184  1.6915 -0.1681 -1.6497
  665MOL0     H89771   9.720  10.532   0.337 -1.6186  0.3383  0.6846
  665MOL0     H89772   9.714  10.668   0.221 -2.6943 -0.4325  0.5721
  665MOL0     H89773   9.965  10.401   0.005  0.0369 -0.1969 -0.9302
  665MOL0     H89774   9.203  10.219   0.221  0.6013 -0.6740  1.4843
  665MOL0     H89775   8.967  10.164   0.210 -0.7758 -1.3009 -1.7763
  666MOL0     O89776   8.485  10.546   7.409  0.2646 -0.6110 -0.2448
  666MOL0     C89777   8.565  10.554   7.320  0.2023  0.1161 -0.2122
  666MOL0     O89778   8.533  10.538   7.188  0.0280  0.1749  0.4811
  666MOL0     C89779   8.405  10.497   7.151  0.7369 -1.2786  0.0215
  666MOL0     C89780   8.383  10.359   7.117 -0.6202 -0.2834  0.0871
  666MOL0     C89781   8.261  10.313   7.066 -0.0796  0.5935 -0.5808
  666MOL0     C89782   8.148  10.401   7.051 -0.1801  0.2200 -0.4427
  666MOL0     O89783   8.038  10.337   6.996  0.2373  0.1525  0.3493
  666MOL0     C89784   7.909  10.400   7.018  0.0876 -0.5889  0.2663
  666MOL0     C89785   7.786  10.312   7.027 -0.5535 -0.6456  0.4366
  666MOL0     C89786   7.809  10.186   7.101  0.2988  0.4080  0.1732
  666MOL0     C89787   7.785  10.211   7.249 -0.4180 -0.1483 -0.2088
  666MOL0     C89788   7.883  10.140   7.341 -1.0082  0.3255 -0.6981
  666MOL0     C89789   8.013  10.203   7.371 -1.0566  0.2479 -0.7122
  666MOL0     C89790   8.005  10.325   7.458 -0.3385 -0.4079 -0.3132
  666MOL0     C89791   8.148  10.383   7.499  0.5948 -0.0259 -0.0756
  666MOL0     N89792   8.126  10.502   7.582 -0.6419  0.5725 -0.4043
  666MOL0     C89793   8.162  10.630   7.545 -0.3567 -0.2181 -0.0861
  666MOL0     C89794   8.122  10.714   7.636 -1.2903  1.1186 -0.6926
  666MOL0     C89795   8.124  10.867   7.636  0.9692  0.7796  0.5560
  666MOL0     C89796   8.264  10.926   7.674 -0.3236 -0.0470  0.2112
  666MOL0     C89797   8.375  10.883   7.580  0.5519  0.2130 -0.3194
  666MOL0     C89798   8.513  10.928   7.628 -0.7941 -0.1223 -0.6037
  666MOL0     O89799   8.531  10.861   7.750  0.3074  0.8001  0.0496
  666MOL0     C89800   8.656  10.862   7.811  0.6635 -0.4975 -0.1724
  666MOL0     C89801   8.777  10.905   7.757  0.2777 -1.0139 -0.8765
  666MOL0     C89802   8.898  10.903   7.821  0.7699  0.1499 -0.1948
  666MOL0     C89803   9.007  10.982   7.749 -0.1263  0.2050 -0.1322
  666MOL0     C89804   8.908  10.822   7.937 -0.5990  0.9531  0.8054
  666MOL0     C89805   9.035  10.803   8.010 -0.3425 -0.2668 -0.5364
  666MOL0     O89806   9.157  10.782   7.952  0.1193  0.4031  0.0426
  666MOL0     C89807   9.276  10.776   8.020 -0.5336  1.0522  0.0254
  666MOL0     C89808   9.383  10.817   7.943 -0.0664  0.0231 -0.7446
  666MOL0     C89809   9.521  10.808   7.979  1.0520  0.0784 -0.5271
  666MOL0     C89810   9.550  10.748   8.097 -0.0389 -0.2517 -0.0798
  666MOL0     O89811   9.687  10.733   8.106 -0.2297  0.5701 -0.3197
  666MOL0     C89812   9.730  10.671   8.217 -0.6747 -0.3351  0.2160
  666MOL0     C89813   9.879  10.682   8.220 -0.6165  0.1175  1.2976
  666MOL0     C89814   9.927  10.823   8.270 -0.1831  0.8682 -0.5138
  666MOL0     C89815  10.081  10.855   8.265 -0.0400 -0.2415 -0.6498
  666MOL0     C89816  10.128  10.997   8.303  0.4407 -1.0797  0.6904
  666MOL0     C89817  10.098  11.025   8.452 -0.2737  1.0246  0.1835
  666MOL0     C89818  10.196  11.122   8.508  0.2615  0.6311  0.3320
  666MOL0     C89819  10.186  11.127   8.660 -0.0828 -0.6858  0.9778
  666MOL0    Cl89820  10.069  11.252   8.700 -0.1389 -0.3967  0.0089
  666MOL0     C89821   9.444  10.711   8.185  0.1936  1.0674  0.0167
  666MOL0     C89822   9.306  10.712   8.141  1.2323 -0.1301 -1.1224
  666MOL0     O89823   9.020  10.830   8.128 -0.5336 -0.0627  0.1055
  666MOL0     C89824   8.785  10.771   7.991 -0.9476  0.4895 -0.1260
  666MOL0     C89825   8.670  10.791   7.922  0.5046 -0.2152 -0.5800
  666MOL0     N89826   8.065  10.636   7.738 -0.7244  0.1873 -0.5196
  666MOL0     N89827   8.078  10.509   7.710 -0.4100 -0.1887  0.1567
  666MOL0     C89828   8.167  10.537   7.099 -0.7898 -0.3410  0.5286
  666MOL0     C89829   8.296  10.582   7.146 -0.2128 -0.4957  0.7422
  666MOL0     C89830   8.709  10.574   7.348 -0.4702 -0.6230  0.0135
  666MOL0     C89831   8.747  10.593   7.480 -0.5728 -0.6641  0.0834
  666MOL0     C89832   8.884  10.604   7.524  0.9439  0.6222 -0.0332
  666MOL0     C89833   8.979  10.592   7.425  0.4464 -0.2802  0.0992
  666MOL0     O89834   9.106  10.608   7.451 -0.2306  0.0795  0.6816
  666MOL0     C89835   9.170  10.477   7.496 -0.3409 -0.6466  0.0423
  666MOL0     C89836   9.163  10.474   7.648 -0.2426 -0.0578 -0.3674
  666MOL0     C89837   9.257  10.584   7.715 -0.6694  0.9048 -0.3167
  666MOL0     C89838   9.405  10.560   7.700 -0.0908  0.7138 -0.2324
  666MOL0     C89839   9.459  10.470   7.799 -0.1169  0.0806  0.5054
  666MOL0     C89840   9.493  10.383   7.874 -0.4687 -0.6027  0.4214
  666MOL0     C89841   8.944  10.578   7.289  0.2830  0.0119  0.1281
  666MOL0     C89842   8.813  10.570   7.247  0.8856  0.1307  0.4263
  666MOL0     H89843   8.463  10.285   7.119  0.0050  0.3854  0.3276
  666MOL0     H89844   8.252  10.206   7.048 -1.0425  0.9754 -2.8168
  666MOL0     H89845   7.905  10.448   7.116 -2.6625 -3.3444  1.6710
  666MOL0     H89846   7.893  10.483   6.948 -2.6912 -0.0205  1.4739
  666MOL0     H89847   7.694  10.366   7.052 -1.5022  0.1100 -3.9337
  666MOL0     H89848   7.761  10.289   6.923 -2.3993 -0.8697  0.8923
  666MOL0     H89849   7.735  10.116   7.060  0.6719  0.1002  0.0078
  666MOL0     H89850   7.905  10.138   7.080  0.1192  0.9710 -2.1657
  666MOL0     H89851   7.776  10.317   7.274 -0.9702 -0.7498  2.4215
  666MOL0     H89852   7.682  10.176   7.264 -0.7543  1.9601  4.1390
  666MOL0     H89853   7.826  10.124   7.433  0.3461  0.5180  0.2037
  666MOL0     H89854   7.903  10.037   7.309  1.0215  0.7235 -0.7989
  666MOL0     H89855   8.076  10.128   7.420 -0.2913 -1.1096 -3.5405
  666MOL0     H89856   8.052  10.231   7.272  0.2130 -0.8274 -0.5411
  666MOL0     H89857   7.953  10.406   7.405 -0.9948 -2.1571 -2.5061
  666MOL0     H89858   7.951  10.301   7.550  0.9993  0.1968  0.6756
  666MOL0     H89859   8.205  10.414   7.411  0.4962 -1.5320 -0.7169
  666MOL0     H89860   8.193  10.297   7.550  0.1312  0.1767  0.6836
  666MOL0     H89861   8.204  10.663   7.450 -0.6147  0.2448 -0.0441
  666MOL0     H89862   8.088  10.897   7.537  0.9255  0.7706  0.5690
  666MOL0     H89863   8.052  10.898   7.713  0.1765  0.8687 -0.1973
  666MOL0     H89864   8.295  10.894   7.774 -2.6901 -3.2625  0.0626
  666MOL0     H89865   8.250  11.034   7.667 -0.3045 -0.1474 -2.0367
  666MOL0     H89866   8.348  10.923   7.482 -1.6808  0.0857  0.1932
  666MOL0     H89867   8.377  10.774   7.576  0.0387  0.2129 -0.8269
  666MOL0     H89868   8.537  11.034   7.634 -0.4750 -0.2355  0.2692
  666MOL0     H89869   8.588  10.882   7.562  0.9587  0.0266  1.2041
  666MOL0     H89870   8.763  10.969   7.670  1.1896  2.9087  1.5745
  666MOL0     H89871   9.088  10.994   7.821 -0.3248 -0.7938  0.2791
  666MOL0     H89872   9.049  10.922   7.668  0.3893  1.4099 -0.7814
  666MOL0     H89873   8.972  11.075   7.703 -2.4744 -0.3968  0.2695
  666MOL0     H89874   9.366  10.861   7.845 -1.6189 -1.0610 -1.0042
  666MOL0     H89875   9.598  10.828   7.905 -0.2626  4.9316 -0.9509
  666MOL0     H89876   9.677  10.701   8.308 -2.7143 -0.2895 -0.9354
  666MOL0     H89877   9.699  10.566   8.208  0.2239 -0.6731  0.8810
  666MOL0     H89878   9.919  10.599   8.279 -0.0042  0.8986  2.0100
  666MOL0     H89879   9.926  10.673   8.121  2.2106  2.5787  2.2588
  666MOL0     H89880   9.905  10.825   8.377 -1.0347 -0.9046 -0.6117
  666MOL0     H89881   9.870  10.896   8.211 -0.9150  1.4152  0.8104
  666MOL0     H89882  10.135  10.785   8.330 -3.0583 -1.1528  1.0807
  666MOL0     H89883  10.115  10.843   8.162  0.6400  1.4894 -0.6734
  666MOL0     H89884  10.072  11.074   8.248  0.1085  1.7153  4.5589
  666MOL0     H89885  10.231  11.018   8.273 -0.3041  1.6077 -0.3090
  666MOL0     H89886   9.995  11.055   8.473 -0.3721  0.0438  1.1311
  666MOL0     H89887  10.122  10.933   8.505 -2.4007  1.9051  2.9368
  666MOL0     H89888  10.175  11.223   8.472  4.1046  1.9524  1.3146
  666MOL0     H89889  10.295  11.096   8.471  0.6324  0.4719  1.4112
  666MOL0     H89890  10.282  11.163   8.697 -1.6095  2.4950  2.1495
  666MOL0     H89891  10.160  11.033   8.711 -0.0203 -0.0107  2.2742
  666MOL0     H89892   9.474  10.660   8.276  0.0061  0.3004 -0.3419
  666MOL0     H89893   9.227  10.670   8.204 -0.7112  0.6727 -2.8981
  666MOL0     H89894   8.787  10.709   8.080  0.4031 -1.3685 -1.3663
  666MOL0     H89895   8.576  10.754   7.962  0.5885  2.2493  2.2430
  666MOL0     H89896   8.086  10.609   7.101  3.0985  4.6500 -0.3685
  666MOL0     H89897   8.302  10.679   7.195  1.7329 -0.2171  0.0418
  666MOL0     H89898   8.679  10.608   7.564 -0.5394  1.4921 -0.2348
  666MOL0     H89899   8.910  10.621   7.628 -0.9919  0.4702  0.5223
  666MOL0     H89900   9.116  10.402   7.437 -2.2998  2.4770 -2.4451
  666MOL0     H89901   9.275  10.471   7.465 -0.2940 -0.9686  0.2611
  666MOL0     H89902   9.166  10.377   7.698 -1.1507 -0.2201 -0.6141
  666MOL0     H89903   9.056  10.490   7.667 -0.1981 -0.7670  0.5821
  666MOL0     H89904   9.232  10.591   7.821 -0.6125 -2.6572  0.0417
  666MOL0     H89905   9.233  10.681   7.670 -0.8741  1.9859  2.0051
  666MOL0     H89906   9.452  10.657   7.715  0.0753  0.5571  0.2667
  666MOL0     H89907   9.431  10.509   7.606  1.0323  2.1234 -0.7116
  666MOL0     H89908   9.517  10.311   7.950  0.6702  0.2447  0.8967
  666MOL0     H89909   9.032  10.582   7.226  1.2417 -0.7899  1.3759
  666MOL0     H89910   8.800  10.548   7.142  4.0305  0.1774 -0.0633
  667MOL0     O89911   7.792   9.276  10.473  0.5614  0.3274  0.3980
  667MOL0     C89912   7.841   9.165  10.501  0.4962  0.0374 -0.9132
  667MOL0     O89913   7.803   9.045  10.459  0.2560 -0.3505  0.2005
  667MOL0     C89914   7.713   9.027  10.366  0.5451 -0.0747  0.0517
  667MOL0     C89915   7.738   9.063  10.233  0.2988  0.5358  0.2741
  667MOL0     C89916   7.645   9.046  10.134  0.4811  0.1952 -0.7385
  667MOL0     C89917   7.517   8.986  10.166 -0.4329 -0.0734  0.0773
  667MOL0     O89918   7.432   8.943  10.066  0.8406  0.2448  0.0758
  667MOL0     C89919   7.491   8.883   9.952  0.1782 -0.2967 -1.0236
  667MOL0     C89920   7.383   8.807   9.882  0.6839  1.0933  0.4292
  667MOL0     C89921   7.276   8.885   9.809 -0.3753 -0.3422 -0.2572
  667MOL0     C89922   7.192   8.788   9.730  0.1220 -0.0713  0.0132
  667MOL0     C89923   7.090   8.870   9.638 -0.3008 -0.4519 -0.1556
  667MOL0     C89924   6.980   8.940   9.715  0.4229 -1.3986 -0.3573
  667MOL0     C89925   6.874   8.995   9.621 -1.2950  0.2071  0.9914
  667MOL0     C89926   6.730   9.006   9.683  0.1078  0.5822  0.1030
  667MOL0     N89927   6.621   8.983   9.585 -0.5837 -0.5718 -0.4885
  667MOL0     C89928   6.547   9.091   9.542  0.1943 -0.2062 -0.0469
  667MOL0     C89929   6.481   9.045   9.435 -0.9916 -0.7401 -0.5338
  667MOL0     C89930   6.387   9.134   9.345  0.4187 -0.0737 -0.2726
  667MOL0     C89931   6.290   9.220   9.436 -0.5384  0.6093  0.7260
  667MOL0     C89932   6.219   9.336   9.365 -0.1076  0.3754  0.2711
  667MOL0     C89933   6.146   9.286   9.243  0.2228  0.0498 -1.1937
  667MOL0     O89934   6.066   9.391   9.197  0.3909  0.6237 -0.0118
  667MOL0     C89935   5.975   9.367   9.091 -1.0296 -0.1685  0.4749
  667MOL0     C89936   5.873   9.452   9.084  1.1486  0.8418 -0.6534
  667MOL0     C89937   5.766   9.443   8.990 -0.6503 -0.2488 -1.0510
  667MOL0     C89938   5.653   9.544   9.010 -0.5799  0.5827  0.9212
  667MOL0     C89939   5.774   9.348   8.889  0.3443  0.1440 -0.1374
  667MOL0     C89940   5.688   9.348   8.767  0.1613 -0.4248 -0.0859
  667MOL0     O89941   5.630   9.457   8.727  0.9954 -0.0075 -0.0554
  667MOL0     C89942   5.515   9.451   8.652  0.3512 -0.2534 -0.1639
  667MOL0     C89943   5.408   9.361   8.669  0.4952 -0.3275 -0.2260
  667MOL0     C89944   5.279   9.396   8.613 -1.1088  0.4060 -0.0522
  667MOL0     C89945   5.246   9.516   8.549  0.8813 -0.1870 -0.0555
  667MOL0     O89946   5.119   9.543   8.495 -0.4335  0.2985  0.4483
  667MOL0     C89947   5.015   9.440   8.489  0.4084  0.4514 -0.0196
  667MOL0     C89948   4.894   9.508   8.421  0.6256 -0.1476  1.0381
  667MOL0     C89949   4.763   9.442   8.454  0.1950  0.8406 -0.2327
  667MOL0     C89950   4.637   9.512   8.403  0.0432  0.2571 -1.0055
  667MOL0     C89951   4.511   9.437   8.370  0.7249 -0.7150  0.5848
  667MOL0     C89952   4.451   9.379   8.497 -0.2723 -0.1513 -0.3331
  667MOL0     C89953   4.323   9.297   8.473  0.5972  0.3101 -0.8258
  667MOL0     C89954   4.270   9.253   8.605  0.2103  0.1659  0.0072
  667MOL0    Cl89955   4.359   9.110   8.665  0.0866 -0.1274  0.2439
  667MOL0     C89956   5.349   9.605   8.540 -0.7750  0.0345 -0.7788
  667MOL0     C89957   5.475   9.578   8.599 -0.2601 -0.1017  0.2950
  667MOL0     O89958   5.677   9.242   8.708 -0.5205  0.1520 -0.5322
  667MOL0     C89959   5.882   9.255   8.892 -0.0391  0.3770  0.2155
  667MOL0     C89960   5.982   9.272   8.990  0.4215  0.6685 -0.2977
  667MOL0     N89961   6.504   8.916   9.423 -0.6734  0.1393  0.5490
  667MOL0     N89962   6.590   8.880   9.512 -0.2117 -0.4576  0.1493
  667MOL0     C89963   7.491   8.949  10.294 -0.1788 -0.0683  0.0240
  667MOL0     C89964   7.582   8.981  10.393 -0.2237  0.2980  0.5412
  667MOL0     C89965   7.967   9.168  10.582  0.5893  0.5804 -0.2293
  667MOL0     C89966   8.018   9.035  10.611  0.7277 -0.7670 -0.6440
  667MOL0     C89967   8.137   9.032  10.686 -0.4073  0.3036 -0.8318
  667MOL0     C89968   8.221   9.142  10.708  0.1498 -0.0497 -1.5860
  667MOL0     O89969   8.352   9.139  10.764  0.5175  0.0312 -0.3477
  667MOL0     C89970   8.376   9.020  10.843  0.1295  0.2137  0.1751
  667MOL0     C89971   8.500   9.055  10.927  0.4215  0.7807 -0.0304
  667MOL0     C89972   8.465   9.168  11.029  0.0172  0.2661 -0.6067
  667MOL0     C89973   8.544   9.195  11.158 -0.2969  0.0782  0.1615
  667MOL0     C89974   8.687   9.201  11.128 -0.3412 -0.9898  0.0598
  667MOL0     C89975   8.800   9.206  11.086  0.3935 -0.4483 -0.3116
  667MOL0     C89976   8.160   9.269  10.686 -0.8204 -0.4684 -0.8316
  667MOL0     C89977   8.037   9.284  10.633 -0.5718 -0.5569 -0.3599
  667MOL0     H89978   7.841   9.091  10.213  0.6894 -1.4651 -0.7122
  667MOL0     H89979   7.667   9.069  10.030  1.5015 -2.1969 -1.1214
  667MOL0     H89980   7.517   8.966   9.885  0.5974 -0.1141 -0.6325
  667MOL0     H89981   7.576   8.820   9.978  1.9411  1.6125 -1.8966
  667MOL0     H89982   7.427   8.736   9.811 -3.3994 -0.6943 -0.5911
  667MOL0     H89983   7.338   8.737   9.954  3.1282 -1.1368 -0.0452
  667MOL0     H89984   7.219   8.941   9.885 -0.1755  2.4192 -1.9859
  667MOL0     H89985   7.327   8.964   9.753  1.0890  1.3153  3.1270
  667MOL0     H89986   7.266   8.729   9.676  2.2015  0.9874  1.5663
  667MOL0     H89987   7.141   8.713   9.791 -0.4556  1.9251  2.1151
  667MOL0     H89988   7.152   8.946   9.591  0.5959 -0.8181  0.4141
  667MOL0     H89989   7.045   8.797   9.570 -0.1170  0.2676 -1.0695
  667MOL0     H89990   6.928   8.874   9.786  0.6369 -1.1365  0.0523
  667MOL0     H89991   7.031   9.022   9.767  4.2411 -1.4330 -3.6134
  667MOL0     H89992   6.902   9.098   9.596 -1.3448  0.3556  1.5369
  667MOL0     H89993   6.866   8.925   9.537  1.6802 -0.8640  1.4797
  667MOL0     H89994   6.717   9.102   9.733  1.7339  1.7059 -1.4890
  667MOL0     H89995   6.720   8.927   9.758 -1.8609 -0.3070 -1.0027
  667MOL0     H89996   6.545   9.195   9.572 -2.7608  0.1685 -1.2744
  667MOL0     H89997   6.457   9.195   9.288  1.2651  2.0387  2.7776
  667MOL0     H89998   6.323   9.076   9.278 -0.0848  0.8765 -0.6180
  667MOL0     H89999   6.350   9.270   9.513  2.0762 -0.3494 -0.5773
  667MOL0     H90000   6.218   9.151   9.483  0.9388 -2.6538 -1.4175
  667MOL0     H90001   6.294   9.410   9.334  1.7946 -1.0189  1.3805
  667MOL0     H90002   6.133   9.368   9.425 -1.3965 -3.3751  0.6554
  667MOL0     H90003   6.083   9.198   9.262  0.4680  0.3782  1.5309
  667MOL0     H90004   6.211   9.249   9.163  0.5863  2.3825 -2.0704
  667MOL0     H90005   5.884   9.526   9.162 -0.0297  0.2223  0.1230
  667MOL0     H90006   5.679   9.612   9.092  1.8577  1.2902 -0.3275
  667MOL0     H90007   5.646   9.611   8.924 -2.0679  0.1586  0.6956
  667MOL0     H90008   5.555   9.498   9.019  0.4823 -2.1090 -0.1152
  667MOL0     H90009   5.404   9.262   8.713  0.6510 -1.0178 -1.7004
  667MOL0     H90010   5.208   9.315   8.624  1.3687 -1.7386  1.3804
  667MOL0     H90011   5.029   9.366   8.409 -2.8859 -1.1584  0.7492
  667MOL0     H90012   4.986   9.384   8.578  0.0093 -2.1637 -1.6820
  667MOL0     H90013   4.892   9.616   8.436 -1.0871 -0.0430  0.2506
  667MOL0     H90014   4.912   9.502   8.313 -1.3934  0.7688  0.6169
  667MOL0     H90015   4.764   9.448   8.563  2.2069 -1.4443 -0.0369
  667MOL0     H90016   4.760   9.333   8.440  2.7265  0.6002  0.4707
  667MOL0     H90017   4.611   9.598   8.464 -1.0353  0.1096 -1.2311
  667MOL0     H90018   4.674   9.551   8.308  1.7897 -2.7964 -1.7510
  667MOL0     H90019   4.524   9.354   8.300  1.8091  0.7071 -0.9795
  667MOL0     H90020   4.433   9.501   8.327 -1.9262 -1.9504  3.2181
  667MOL0     H90021   4.521   9.311   8.546 -0.9724 -1.3546 -0.9572
  667MOL0     H90022   4.422   9.470   8.551 -3.6420  0.1664 -2.3842
  667MOL0     H90023   4.335   9.216   8.400 -0.7622  0.2316 -0.9886
  667MOL0     H90024   4.252   9.362   8.420 -2.1337 -0.8670  1.1949
  667MOL0     H90025   4.166   9.225   8.590  1.3177 -3.4050 -2.2744
  667MOL0     H90026   4.285   9.332   8.678 -1.2501  0.0105  0.5059
  667MOL0     H90027   5.325   9.697   8.487 -0.5864  0.1718 -0.6257
  667MOL0     H90028   5.557   9.650   8.590 -0.1800  0.0849  2.0803
  667MOL0     H90029   5.902   9.173   8.823  0.4652 -1.0321  1.9507
  667MOL0     H90030   6.051   9.189   9.003 -0.9664 -0.7778 -1.7312
  667MOL0     H90031   7.400   8.895  10.321 -0.4642 -0.9327 -2.4326
  667MOL0     H90032   7.555   8.951  10.494 -2.7018  1.4674  0.3063
  667MOL0     H90033   7.970   8.942  10.584  0.6534 -1.4513  1.6528
  667MOL0     H90034   8.167   8.934  10.722  2.3907  1.2853 -0.2364
  667MOL0     H90035   8.294   8.977  10.902 -0.0115 -3.3955 -2.3092
  667MOL0     H90036   8.409   8.940  10.776 -1.4113  0.6111 -1.1055
  667MOL0     H90037   8.596   9.078  10.880  1.0739  0.4479  1.0800
  667MOL0     H90038   8.523   8.964  10.984  0.8765  1.5270  1.0176
  667MOL0     H90039   8.360   9.157  11.056  0.0299  0.5275 -0.4480
  667MOL0     H90040   8.475   9.265  10.978  0.7225  0.9559  0.7794
  667MOL0     H90041   8.519   9.106  11.216  2.5413 -0.6120  0.4830
  667MOL0     H90042   8.517   9.283  11.216  0.3056 -0.2852  1.0159
  667MOL0     H90043   8.899   9.223  11.048  0.6883  1.2313  1.0666
  667MOL0     H90044   8.210   9.361  10.718 -4.4006  2.4478 -2.7918
  667MOL0     H90045   7.998   9.383  10.615  0.3162 -0.0479  0.3757
  668MOL0     O90046   5.869   8.951   3.182 -0.5456  0.9588  0.4775
  668MOL0     C90047   5.937   8.977   3.083 -0.4117 -0.8616 -0.3488
  668MOL0     O90048   5.934   8.913   2.962 -0.2561 -0.1172 -0.0205
  668MOL0     C90049   5.815   8.845   2.945  1.5412 -0.0878  0.1873
  668MOL0     C90050   5.707   8.910   2.890  0.4486  0.4965 -0.7639
  668MOL0     C90051   5.578   8.848   2.882 -0.1620 -0.6694 -0.4572
  668MOL0     C90052   5.562   8.712   2.909  0.2816  1.0947 -0.6167
  668MOL0     O90053   5.440   8.646   2.917 -0.1570 -0.4032 -0.9340
  668MOL0     C90054   5.443   8.506   2.889 -0.3230  0.2852 -0.4439
  668MOL0     C90055   5.294   8.466   2.868  0.0745  0.2309 -0.1376
  668MOL0     C90056   5.259   8.315   2.853 -0.3549 -0.2690  0.2577
  668MOL0     C90057   5.111   8.286   2.866  0.5830  0.0851  0.1836
  668MOL0     C90058   5.065   8.137   2.866 -1.2962 -0.0615 -0.3541
  668MOL0     C90059   4.930   8.113   2.810 -0.5342 -0.0149 -0.2030
  668MOL0     C90060   4.894   7.962   2.797 -1.1903  0.5010  0.2648
  668MOL0     C90061   4.977   7.894   2.689 -0.1352 -0.6557 -0.8035
  668MOL0     N90062   4.919   7.770   2.644 -0.7704 -0.1381  0.1516
  668MOL0     C90063   4.970   7.639   2.642  0.1686 -0.1891 -0.7308
  668MOL0     C90064   4.869   7.554   2.609  0.0711 -0.1636 -0.4951
  668MOL0     C90065   4.891   7.407   2.558 -0.4609  0.0345  0.4886
  668MOL0     C90066   4.771   7.304   2.559  0.2314 -0.2421 -0.2127
  668MOL0     C90067   4.632   7.366   2.562 -0.6764 -0.0735 -0.3590
  668MOL0     C90068   4.515   7.260   2.560 -0.5561 -0.7219  0.3863
  668MOL0     O90069   4.401   7.334   2.503 -0.8675 -0.3120 -0.0073
  668MOL0     C90070   4.290   7.266   2.460 -0.2807  0.6018 -1.6323
  668MOL0     C90071   4.203   7.322   2.373  0.6088  0.4804 -0.6262
  668MOL0     C90072   4.096   7.255   2.296  0.5236 -0.5252 -0.1995
  668MOL0     C90073   4.011   7.335   2.195  0.1480  0.2577  0.5671
  668MOL0     C90074   4.078   7.121   2.335 -0.0035 -0.1283  0.0406
  668MOL0     C90075   3.999   7.013   2.268  0.4339 -0.3223  0.3936
  668MOL0     O90076   3.940   6.909   2.335  0.1692  0.2401  0.5642
  668MOL0     C90077   3.869   6.812   2.269 -1.1143 -0.4861  0.2279
  668MOL0     C90078   3.925   6.749   2.163  1.0289  0.0042 -0.1319
  668MOL0     C90079   3.863   6.654   2.084  1.2953 -1.4299 -0.1817
  668MOL0     C90080   3.739   6.614   2.128  0.5267  1.2067  0.1325
  668MOL0     O90081   3.673   6.520   2.043  0.8806  0.2537 -0.3055
  668MOL0     C90082   3.544   6.467   2.061  0.0819  0.0764  0.3246
  668MOL0     C90083   3.511   6.362   1.950  0.5809  0.6765 -0.9557
  668MOL0     C90084   3.416   6.241   1.991  0.1378  0.2462  0.2754
  668MOL0     C90085   3.265   6.272   1.976  0.2701 -0.3521 -0.2361
  668MOL0     C90086   3.174   6.196   2.064 -0.0971  0.1663 -0.0399
  668MOL0     C90087   3.029   6.241   2.057  0.0976  0.3429 -0.3431
  668MOL0     C90088   3.008   6.317   2.186  0.1350 -0.2368 -0.2753
  668MOL0     C90089   2.872   6.363   2.219  0.8723  0.2726  0.0778
  668MOL0    Cl90090   2.768   6.214   2.252 -0.0030  0.1270  0.6181
  668MOL0     C90091   3.678   6.676   2.236  0.3893  0.2407 -0.1364
  668MOL0     C90092   3.743   6.779   2.306 -0.0792  0.3466 -0.8400
  668MOL0     O90093   3.986   7.029   2.142 -0.3660  0.3102 -0.3856
  668MOL0     C90094   4.152   7.066   2.441  0.0467 -0.0996 -0.4499
  668MOL0     C90095   4.265   7.131   2.501  0.5599  0.5131  0.2238
  668MOL0     N90096   4.760   7.634   2.591  0.4381 -0.0626  0.2652
  668MOL0     N90097   4.789   7.758   2.602 -0.1795  0.2471  0.0095
  668MOL0     C90098   5.679   8.645   2.962 -0.0198 -0.3240  0.4219
  668MOL0     C90099   5.796   8.709   2.984  0.0718 -0.1911 -0.5367
  668MOL0     C90100   6.043   9.082   3.107  0.0652  0.5101  0.6034
  668MOL0     C90101   6.125   9.111   3.001  0.3268 -0.3099  0.0339
  668MOL0     C90102   6.232   9.205   3.015 -0.2787  1.2424  0.7909
  668MOL0     C90103   6.262   9.266   3.142  1.3428  1.6976  0.3286
  668MOL0     O90104   6.358   9.361   3.161  0.3788 -0.0753 -0.0923
  668MOL0     C90105   6.329   9.469   3.239 -0.1246  0.5417  0.6354
  668MOL0     C90106   6.424   9.586   3.231 -0.4995  0.3479  0.8734
  668MOL0     C90107   6.454   9.638   3.085 -0.6569  0.5327  0.3195
  668MOL0     C90108   6.519   9.771   3.083  0.0686 -1.8280  0.9849
  668MOL0     C90109   6.582   9.820   2.965  0.1045 -0.6584  0.1241
  668MOL0     C90110   6.641   9.869   2.868 -0.6594 -0.4491  0.4669
  668MOL0     C90111   6.173   9.233   3.247  0.9140 -0.3432 -0.2373
  668MOL0     C90112   6.071   9.140   3.231 -0.9708 -0.0340  0.4215
  668MOL0     H90113   5.720   9.017   2.874  0.9144  0.0037 -4.6421
  668MOL0     H90114   5.503   8.918   2.847  1.9348  0.4614 -3.0924
  668MOL0     H90115   5.500   8.476   2.801 -0.0976 -2.1415  0.4508
  668MOL0     H90116   5.473   8.444   2.974 -0.4913 -1.0112 -1.2967
  668MOL0     H90117   5.244   8.508   2.956  1.6414  2.3330 -0.1825
  668MOL0     H90118   5.267   8.507   2.771 -0.0712 -1.3565 -0.7966
  668MOL0     H90119   5.283   8.301   2.747  1.7667  0.0054  0.6399
  668MOL0     H90120   5.309   8.244   2.920 -0.1824 -0.0515  0.3630
  668MOL0     H90121   5.066   8.328   2.956  0.7364  2.9295 -0.9881
  668MOL0     H90122   5.052   8.339   2.791 -2.6397 -1.3210  1.4866
  668MOL0     H90123   5.142   8.086   2.806  2.1066  2.3702  1.5779
  668MOL0     H90124   5.082   8.097   2.966 -2.0386 -1.5134 -0.7903
  668MOL0     H90125   4.864   8.164   2.880 -0.5908 -0.2700 -0.0689
  668MOL0     H90126   4.903   8.151   2.711 -2.5617 -3.3164 -1.1018
  668MOL0     H90127   4.912   7.917   2.895 -0.8602 -1.3649 -0.6188
  668MOL0     H90128   4.788   7.948   2.773 -1.9729  3.0098  1.8203
  668MOL0     H90129   5.078   7.885   2.731 -1.1209  2.0204  2.4838
  668MOL0     H90130   4.994   7.957   2.601  3.5540 -0.6873 -0.2710
  668MOL0     H90131   5.074   7.613   2.656  0.6066  2.3734  1.8305
  668MOL0     H90132   4.932   7.414   2.457  1.9154 -1.6101  1.2525
  668MOL0     H90133   4.963   7.363   2.627 -1.2637 -0.9723  0.7197
  668MOL0     H90134   4.776   7.253   2.656  0.0400 -0.2024 -0.1803
  668MOL0     H90135   4.776   7.232   2.478 -2.6846 -2.5132  1.4065
  668MOL0     H90136   4.629   7.439   2.481  1.1924 -0.9486 -1.2821
  668MOL0     H90137   4.620   7.423   2.654 -1.9963 -2.1481  0.8406
  668MOL0     H90138   4.498   7.211   2.657  0.4243 -0.0394  0.9243
  668MOL0     H90139   4.538   7.183   2.486 -0.2895 -0.4473  0.1773
  668MOL0     H90140   4.213   7.429   2.363 -0.3210  0.5854 -0.5095
  668MOL0     H90141   4.005   7.288   2.096  2.1991  1.2266 -0.0594
  668MOL0     H90142   3.907   7.335   2.229 -0.3734  1.1093 -0.9432
  668MOL0     H90143   4.050   7.436   2.195  1.0242  0.0155  3.8641
  668MOL0     H90144   4.026   6.767   2.127  1.8129 -1.4349  1.2398
  668MOL0     H90145   3.905   6.603   1.998 -0.6308 -1.0869 -1.3768
  668MOL0     H90146   3.509   6.436   2.160 -2.5499  2.8043  0.4015
  668MOL0     H90147   3.465   6.543   2.050  0.8144  0.6620 -1.2054
  668MOL0     H90148   3.472   6.414   1.862 -0.9952  1.4084  0.1347
  668MOL0     H90149   3.598   6.297   1.933  0.7831  0.4780  0.6999
  668MOL0     H90150   3.447   6.219   2.094  2.5123  2.3353  0.1021
  668MOL0     H90151   3.423   6.151   1.929 -1.8753  0.8868 -0.9631
  668MOL0     H90152   3.258   6.378   2.002  0.7120 -0.3707 -0.0386
  668MOL0     H90153   3.228   6.264   1.873 -2.3793  0.8180  0.5348
  668MOL0     H90154   3.216   6.214   2.163  3.2457  2.0752 -1.6288
  668MOL0     H90155   3.171   6.090   2.039 -0.4442  0.0400  0.5235
  668MOL0     H90156   3.012   6.304   1.969  2.7890  2.6216  0.6386
  668MOL0     H90157   2.951   6.165   2.051 -1.0689  1.4401  0.3099
  668MOL0     H90158   3.057   6.413   2.167 -0.9027  0.5709  0.9943
  668MOL0     H90159   3.043   6.277   2.281 -1.2563  0.2689  0.4876
  668MOL0     H90160   2.828   6.410   2.131 -0.4026 -1.3618 -0.1937
  668MOL0     H90161   2.855   6.445   2.290  1.1129  3.0944 -2.8835
  668MOL0     H90162   3.578   6.649   2.267  0.9886 -0.6547  1.1267
  668MOL0     H90163   3.700   6.831   2.391 -0.5857  0.0554 -0.9148
  668MOL0     H90164   4.132   6.969   2.487  0.8781 -0.5997 -1.1231
  668MOL0     H90165   4.320   7.073   2.575 -2.0867 -0.1714  1.8010
  668MOL0     H90166   5.673   8.541   2.994 -0.3675 -0.7067 -0.8417
  668MOL0     H90167   5.879   8.648   3.021 -1.4899 -1.4830  1.0355
  668MOL0     H90168   6.109   9.075   2.899 -0.6045  0.1179  0.0139
  668MOL0     H90169   6.298   9.212   2.929 -1.1369  1.4790  0.1360
  668MOL0     H90170   6.227   9.494   3.208 -0.3239 -2.3730 -1.4338
  668MOL0     H90171   6.327   9.447   3.346 -0.4264  3.2579  1.2646
  668MOL0     H90172   6.511   9.542   3.280 -1.6238 -1.0238  1.7055
  668MOL0     H90173   6.379   9.667   3.289 -1.6956 -0.2191  0.7606
  668MOL0     H90174   6.357   9.658   3.038 -1.5301 -1.0719  1.3123
  668MOL0     H90175   6.515   9.567   3.029  1.4889  1.7947  0.9538
  668MOL0     H90176   6.588   9.783   3.168  1.3755  1.9275 -0.4010
  668MOL0     H90177   6.434   9.839   3.095  0.5708 -0.6784 -1.4002
  668MOL0     H90178   6.703   9.900   2.786 -2.3654  0.4859 -0.5279
  668MOL0     H90179   6.185   9.272   3.347  3.2896 -1.8681  0.1374
  668MOL0     H90180   6.013   9.104   3.316 -3.4549  0.9541 -0.7459
  669MOL0     O90181   7.567   1.823   8.860  0.3597  0.0670  0.4348
  669MOL0     C90182   7.650   1.896   8.818 -0.5975  0.1983  0.4896
  669MOL0     O90183   7.628   1.999   8.728  0.3661 -0.1519  0.6448
  669MOL0     C90184   7.503   2.027   8.678 -0.4686  1.1965  0.1196
  669MOL0     C90185   7.404   2.045   8.764  0.2781  0.1010 -0.3526
  669MOL0     C90186   7.270   2.078   8.718  0.2946 -0.0235  0.1435
  669MOL0     C90187   7.252   2.094   8.578 -0.1625  0.1063  0.1771
  669MOL0     O90188   7.129   2.110   8.523 -0.0865 -0.4906  0.1796
  669MOL0     C90189   7.038   2.189   8.597  0.3046  0.3424 -0.1618
  669MOL0     C90190   6.925   2.238   8.498  0.6251  0.0348 -1.1127
  669MOL0     C90191   6.806   2.277   8.585  0.3710 -0.4182 -0.7797
  669MOL0     C90192   6.687   2.329   8.494  0.0480 -0.1225 -0.2038
  669MOL0     C90193   6.561   2.363   8.584 -0.1943  0.8877 -0.4492
  669MOL0     C90194   6.460   2.461   8.517 -0.5149 -0.5010  0.2237
  669MOL0     C90195   6.412   2.422   8.376 -0.0213 -0.3389  0.0402
  669MOL0     C90196   6.504   2.466   8.264 -0.2031  0.6019  0.7836
  669MOL0     N90197   6.535   2.608   8.262 -0.4846 -0.5834  0.4262
  669MOL0     C90198   6.446   2.706   8.226  0.0183  0.1791  0.1330
  669MOL0     C90199   6.514   2.816   8.228 -0.2362  1.0586 -0.0202
  669MOL0     C90200   6.492   2.959   8.201  0.6062 -1.1262  0.4927
  669MOL0     C90201   6.526   2.995   8.055  0.7464  0.1345  0.5243
  669MOL0     C90202   6.468   2.904   7.946  0.0029 -0.0848  0.7095
  669MOL0     C90203   6.495   2.952   7.803 -1.1890 -0.7862  0.5183
  669MOL0     O90204   6.433   2.878   7.699  0.1715 -0.1573 -1.1567
  669MOL0     C90205   6.300   2.913   7.667 -1.4756  0.1025 -0.2912
  669MOL0     C90206   6.248   2.852   7.558  0.3313 -0.0792  0.8432
  669MOL0     C90207   6.111   2.866   7.524 -0.1563 -0.7267  0.5425
  669MOL0     C90208   6.055   2.789   7.412 -0.0955  0.3225  0.4591
  669MOL0     C90209   6.033   2.970   7.591  0.0691  1.2535 -0.4303
  669MOL0     C90210   5.890   2.987   7.569  0.9904  0.1285  0.4321
  669MOL0     O90211   5.840   3.113   7.582 -0.2754 -1.2420 -0.4564
  669MOL0     C90212   5.705   3.140   7.576 -0.6702  0.0896 -0.6520
  669MOL0     C90213   5.629   3.149   7.693 -0.0039  0.1502  0.5060
  669MOL0     C90214   5.484   3.159   7.692 -0.2395 -0.3928 -0.2443
  669MOL0     C90215   5.423   3.164   7.571 -0.4432 -1.5158 -0.3081
  669MOL0     O90216   5.283   3.150   7.576  0.0474 -0.3951 -0.1304
  669MOL0     C90217   5.209   3.175   7.455 -0.1126 -0.2465  0.2759
  669MOL0     C90218   5.074   3.241   7.491 -0.1557 -0.1610 -0.1475
  669MOL0     C90219   4.951   3.182   7.411  0.5834 -0.2916  0.1730
  669MOL0     C90220   4.816   3.200   7.480 -0.1666  0.5758  0.3420
  669MOL0     C90221   4.697   3.157   7.393  0.1908 -0.6626  0.8694
  669MOL0     C90222   4.563   3.177   7.468  0.0612 -0.3975 -0.1741
  669MOL0     C90223   4.435   3.125   7.397  0.5898 -0.1847  0.5281
  669MOL0     C90224   4.315   3.134   7.490 -0.2603  0.7242  0.2715
  669MOL0    Cl90225   4.291   3.299   7.534  0.6439  0.2073  0.2727
  669MOL0     C90226   5.501   3.157   7.449 -0.7914 -0.3668  0.5348
  669MOL0     C90227   5.635   3.147   7.457 -0.1730  0.8142 -0.2504
  669MOL0     O90228   5.819   2.883   7.551  0.0532 -0.6471 -0.6397
  669MOL0     C90229   6.090   3.035   7.694  0.4310  0.5141 -0.3614
  669MOL0     C90230   6.222   3.010   7.732 -0.0522  0.3023 -0.6262
  669MOL0     N90231   6.642   2.786   8.280  0.5965  0.3870 -0.0722
  669MOL0     N90232   6.651   2.658   8.298  0.0399 -0.6492  0.4475
  669MOL0     C90233   7.364   2.076   8.497 -0.0474  0.9320 -0.3756
  669MOL0     C90234   7.484   2.035   8.543 -1.1192  0.2673  0.3741
  669MOL0     C90235   7.780   1.881   8.885 -0.0811  0.1423 -0.0687
  669MOL0     C90236   7.817   1.763   8.959 -0.1688 -0.2885 -0.3197
  669MOL0     C90237   7.943   1.759   9.005 -0.8816 -0.0457  0.1104
  669MOL0     C90238   8.037   1.858   8.997  0.6687 -0.2435  0.0265
  669MOL0     O90239   8.145   1.843   9.079  0.1167 -0.1725  0.0837
  669MOL0     C90240   8.259   1.936   9.073  0.5018  0.2097  0.3869
  669MOL0     C90241   8.364   1.905   9.167 -0.2952 -0.8506 -0.2783
  669MOL0     C90242   8.342   1.979   9.298 -0.1896  0.5513  0.0127
  669MOL0     C90243   8.221   1.937   9.385  0.6660  0.1896 -0.5400
  669MOL0     C90244   8.094   1.989   9.333  0.0047  0.3329 -1.0610
  669MOL0     C90245   7.998   2.039   9.280  0.0389 -0.0355  0.1943
  669MOL0     C90246   8.008   1.976   8.933  0.8948 -0.2010 -0.7320
  669MOL0     C90247   7.886   1.984   8.872 -0.2352  0.1343  0.3544
  669MOL0     H90248   7.424   2.041   8.871 -1.4609  1.2291  0.0542
  669MOL0     H90249   7.203   2.103   8.800 -2.2473 -0.7099 -1.5990
  669MOL0     H90250   6.994   2.130   8.678  1.3243 -1.4810 -0.8769
  669MOL0     H90251   7.087   2.277   8.641 -1.9629  0.4799  2.4144
  669MOL0     H90252   6.957   2.330   8.449  0.2283  1.8243  1.7119
  669MOL0     H90253   6.888   2.167   8.424 -0.5800  1.7631 -2.2653
  669MOL0     H90254   6.787   2.188   8.646 -1.4578  0.2690 -0.2847
  669MOL0     H90255   6.829   2.364   8.648  0.9042 -0.6997 -0.5811
  669MOL0     H90256   6.713   2.422   8.443 -0.8974  0.1775 -0.1557
  669MOL0     H90257   6.660   2.258   8.415  0.2266 -1.3149  0.7725
  669MOL0     H90258   6.503   2.282   8.631 -3.6435  0.8833 -4.1481
  669MOL0     H90259   6.606   2.402   8.676  2.3255  0.4195 -1.4136
  669MOL0     H90260   6.375   2.466   8.585  0.2202  0.4935  1.0890
  669MOL0     H90261   6.499   2.562   8.510  0.5811 -0.6087  3.4362
  669MOL0     H90262   6.401   2.313   8.381  1.6193 -0.4608  1.9888
  669MOL0     H90263   6.312   2.467   8.367 -0.9450 -1.6656  2.6668
  669MOL0     H90264   6.446   2.434   8.177  1.2798 -0.1451  0.0258
  669MOL0     H90265   6.600   2.415   8.250  0.6258  2.0333  1.1741
  669MOL0     H90266   6.342   2.699   8.196  0.0249  2.6692 -0.7495
  669MOL0     H90267   6.391   2.992   8.229  1.6012  2.1316  0.6767
  669MOL0     H90268   6.559   3.015   8.267  0.0663 -1.3046  1.2017
  669MOL0     H90269   6.634   3.004   8.043  0.9070  0.6360  2.1092
  669MOL0     H90270   6.489   3.095   8.034 -3.1834 -1.5073 -1.4638
  669MOL0     H90271   6.360   2.911   7.959 -0.0419 -0.1958  0.3930
  669MOL0     H90272   6.501   2.800   7.956  0.2720 -0.4833 -2.9348
  669MOL0     H90273   6.601   2.929   7.795 -1.4329 -2.7972  2.3249
  669MOL0     H90274   6.476   3.060   7.796 -0.5455 -0.5319  2.2459
  669MOL0     H90275   6.310   2.787   7.498  1.1883  0.3679  1.2306
  669MOL0     H90276   5.990   2.711   7.453 -0.2564  1.7520  3.1356
  669MOL0     H90277   5.996   2.852   7.345 -1.0148 -0.1920  0.7572
  669MOL0     H90278   6.130   2.728   7.360  1.3371  1.2370  1.3828
  669MOL0     H90279   5.684   3.127   7.784 -1.3489  0.9293  1.5505
  669MOL0     H90280   5.416   3.144   7.775 -2.3659 -0.9487 -1.9926
  669MOL0     H90281   5.257   3.249   7.391 -0.7347  0.3565  0.4968
  669MOL0     H90282   5.193   3.077   7.410 -0.9030  0.6856 -1.5687
  669MOL0     H90283   5.061   3.243   7.600 -1.1972  3.9473 -0.1628
  669MOL0     H90284   5.086   3.347   7.466 -3.6838 -0.0408 -1.9057
  669MOL0     H90285   4.972   3.077   7.389  1.0755 -0.7084  2.3773
  669MOL0     H90286   4.953   3.232   7.314  2.2746 -1.0329 -0.2121
  669MOL0     H90287   4.811   3.137   7.569 -3.1764 -1.1320 -0.8578
  669MOL0     H90288   4.807   3.304   7.510 -0.8205  0.3334  1.0231
  669MOL0     H90289   4.708   3.053   7.361 -0.7650 -0.6800  0.5530
  669MOL0     H90290   4.697   3.211   7.298 -1.8895  0.0854  1.2406
  669MOL0     H90291   4.567   3.128   7.566 -2.8553 -0.3061  0.0768
  669MOL0     H90292   4.553   3.283   7.491 -0.7861  0.1778 -2.8762
  669MOL0     H90293   4.445   3.018   7.377 -0.9498 -0.3175  0.3719
  669MOL0     H90294   4.418   3.173   7.300  1.0417 -2.3011 -0.6524
  669MOL0     H90295   4.326   3.061   7.571  1.4448  0.5575 -0.0652
  669MOL0     H90296   4.227   3.100   7.435  0.1074 -0.4372  0.3721
  669MOL0     H90297   5.453   3.156   7.351 -1.3606 -2.6766  0.7623
  669MOL0     H90298   5.693   3.120   7.369  0.9903 -0.9167  0.9899
  669MOL0     H90299   6.021   3.100   7.747  0.4955 -1.1106  1.8341
  669MOL0     H90300   6.266   3.070   7.812  0.1199 -0.3671 -0.2132
  669MOL0     H90301   7.354   2.080   8.389  1.8076 -0.8860 -0.6733
  669MOL0     H90302   7.560   2.012   8.469 -0.5157  1.5489  0.5683
  669MOL0     H90303   7.747   1.689   8.994  1.4766 -1.8499 -0.1714
  669MOL0     H90304   7.955   1.667   9.060 -2.0512 -0.0204  0.4442
  669MOL0     H90305   8.300   1.935   8.972  1.6156  0.6651  0.8289
  669MOL0     H90306   8.227   2.041   9.081 -2.1649 -0.1784 -2.8373
  669MOL0     H90307   8.455   1.941   9.118 -0.5288  1.2196  0.6984
  669MOL0     H90308   8.368   1.798   9.188  1.6457 -0.8204 -0.2712
  669MOL0     H90309   8.349   2.088   9.288 -0.6240  0.6862  1.0393
  669MOL0     H90310   8.421   1.953   9.369  1.8476 -1.1203 -2.6764
  669MOL0     H90311   8.231   1.982   9.484  0.5788  3.5219 -1.9341
  669MOL0     H90312   8.214   1.828   9.388  1.4190  0.1486  0.3932
  669MOL0     H90313   7.917   2.085   9.227 -0.0439  0.2382  0.5569
  669MOL0     H90314   8.078   2.059   8.923  2.1914 -1.2195 -0.4003
  669MOL0     H90315   7.862   2.075   8.818  4.3386  1.5439  0.3047
  670MOL0     O90316   3.067   4.662   8.377 -0.5148 -0.3581 -0.1550
  670MOL0     C90317   3.162   4.626   8.451  0.8146  0.8220 -0.5475
  670MOL0     O90318   3.148   4.548   8.573 -0.4875  0.0813 -0.2545
  670MOL0     C90319   3.023   4.510   8.614  0.4488 -0.7223 -0.0786
  670MOL0     C90320   2.922   4.588   8.671 -0.7738 -0.2144  0.4866
  670MOL0     C90321   2.802   4.539   8.723 -0.1922  0.2350 -0.1305
  670MOL0     C90322   2.777   4.404   8.707 -0.6835  0.5955  0.2502
  670MOL0     O90323   2.656   4.351   8.742  0.1106 -0.3108  0.1562
  670MOL0     C90324   2.571   4.424   8.831 -0.0680 -0.8151  0.8387
  670MOL0     C90325   2.460   4.332   8.875 -0.8319  0.0495  0.9421
  670MOL0     C90326   2.504   4.226   8.983 -0.0364  0.4618 -0.2141
  670MOL0     C90327   2.421   4.105   8.956  0.4277  0.9497 -0.1780
  670MOL0     C90328   2.282   4.120   9.031  0.0273 -0.3331 -0.1202
  670MOL0     C90329   2.176   4.021   8.998  0.0359  1.2777  0.5791
  670MOL0     C90330   2.055   4.065   9.073  0.1042  0.5285 -0.0402
  670MOL0     C90331   1.925   3.989   9.042 -0.1551 -0.4081 -1.4980
  670MOL0     N90332   1.812   4.033   9.126 -0.3742  0.3340  0.5029
  670MOL0     C90333   1.815   4.157   9.187 -0.0747 -0.3717  0.1441
  670MOL0     C90334   1.697   4.154   9.244 -0.2860  0.3402 -0.1668
  670MOL0     C90335   1.636   4.262   9.329  0.5765 -0.6178 -0.1296
  670MOL0     C90336   1.668   4.268   9.480 -0.0288  0.1529  0.6093
  670MOL0     C90337   1.565   4.191   9.557  1.1288  0.1342  0.2142
  670MOL0     C90338   1.430   4.271   9.558 -0.3578 -0.7193 -0.5236
  670MOL0     O90339   1.442   4.384   9.643 -0.0302  0.3128  0.5844
  670MOL0     C90340   1.340   4.480   9.647  0.5561  0.3907  0.4633
  670MOL0     C90341   1.354   4.595   9.728 -0.1057 -1.3748  0.7105
  670MOL0     C90342   1.247   4.678   9.748 -0.0493 -0.4862  1.4237
  670MOL0     C90343   1.274   4.794   9.841 -0.7659  1.0254 -0.1849
  670MOL0     C90344   1.124   4.661   9.677 -0.0437  0.1676  0.2405
  670MOL0     C90345   1.005   4.748   9.692  0.7258 -0.1308  0.2955
  670MOL0     O90346   0.881   4.668   9.679  0.0754  0.1226  0.8377
  670MOL0     C90347   0.752   4.723   9.685  0.1831 -0.4251  0.2995
  670MOL0     C90348   0.648   4.641   9.637  0.4049 -0.0544  0.0179
  670MOL0     C90349   0.508   4.677   9.646 -0.1295  0.8544  0.6298
  670MOL0     C90350   0.484   4.806   9.687  0.2299  0.2135  0.4200
  670MOL0     O90351   0.359   4.862   9.674 -0.0818 -0.3689 -0.1933
  670MOL0     C90352   0.243   4.783   9.643 -0.3314 -0.3736  0.3451
  670MOL0     C90353   0.113   4.878   9.641 -1.4297  0.2700  0.4584
  670MOL0     C90354   0.082   4.912   9.791 -0.3431  0.0978  0.5001
  670MOL0     C90355  -0.055   4.976   9.804  0.7025  0.6438 -0.1067
  670MOL0     C90356  -0.129   4.955   9.939  0.1964  0.2408 -0.1160
  670MOL0     C90357  -0.267   5.021   9.921 -0.6025  0.0392 -0.1128
  670MOL0     C90358  -0.334   5.037  10.058 -0.6151  1.0619 -0.2789
  670MOL0     C90359  -0.445   5.153  10.070  0.1332 -1.0142  0.0990
  670MOL0    Cl90360  -0.531   5.189   9.912 -0.2945 -0.2964 -0.0523
  670MOL0     C90361   0.592   4.889   9.720 -0.5547 -0.0497  0.6951
  670MOL0     C90362   0.723   4.853   9.722 -0.0040 -0.4450 -0.4519
  670MOL0     O90363   1.013   4.874   9.707  0.4445  0.3559  0.1154
  670MOL0     C90364   1.110   4.549   9.596  0.2046  0.8989  0.1444
  670MOL0     C90365   1.213   4.460   9.582  0.0326 -0.4121 -0.1663
  670MOL0     N90366   1.643   4.025   9.240  0.9936 -0.2093  0.2318
  670MOL0     N90367   1.709   3.956   9.160 -0.6726  0.5984  0.6704
  670MOL0     C90368   2.869   4.326   8.644 -0.1870 -0.4294  0.1540
  670MOL0     C90369   2.994   4.380   8.598 -0.4427 -0.5398 -0.3804
  670MOL0     C90370   3.296   4.671   8.428  0.4091 -0.9409  0.7652
  670MOL0     C90371   3.391   4.689   8.533  0.0526 -0.7167  0.6840
  670MOL0     C90372   3.525   4.727   8.505 -0.0276  0.2794  0.0786
  670MOL0     C90373   3.558   4.764   8.371  0.7755  0.9153 -0.0897
  670MOL0     O90374   3.675   4.805   8.329 -0.5355 -0.3489 -0.5548
  670MOL0     C90375   3.792   4.788   8.427  0.2459  0.1364 -0.2827
  670MOL0     C90376   3.919   4.803   8.354  0.1943 -0.0414 -0.5025
  670MOL0     C90377   3.959   4.683   8.282  0.0221 -0.3367  0.6845
  670MOL0     C90378   4.090   4.700   8.195  0.0829  0.5213  0.9314
  670MOL0     C90379   4.199   4.706   8.289 -0.6676  0.1027 -1.0405
  670MOL0     C90380   4.306   4.710   8.350  0.2969 -0.5011 -0.2215
  670MOL0     C90381   3.453   4.743   8.271 -0.9520 -1.1234 -0.0232
  670MOL0     C90382   3.327   4.697   8.294 -0.0347  0.7573 -0.2012
  670MOL0     H90383   2.949   4.689   8.701  1.8226 -1.5468  3.2698
  670MOL0     H90384   2.731   4.617   8.752 -1.1277 -1.6025  2.9686
  670MOL0     H90385   2.627   4.461   8.917 -0.8605  1.9102  0.2932
  670MOL0     H90386   2.543   4.515   8.777 -2.2535 -2.5736 -1.2001
  670MOL0     H90387   2.376   4.393   8.909 -0.3151  0.9405  0.6411
  670MOL0     H90388   2.437   4.285   8.779 -1.3253  3.1956 -0.6145
  670MOL0     H90389   2.609   4.200   8.965 -0.0173  0.7710 -0.5401
  670MOL0     H90390   2.480   4.274   9.079  3.4173  3.5012 -0.6410
  670MOL0     H90391   2.411   4.065   8.855 -1.6147  2.1455 -0.5169
  670MOL0     H90392   2.469   4.020   9.004  1.0923  1.7568  0.6351
  670MOL0     H90393   2.312   4.122   9.136  0.9214  1.5937 -0.3793
  670MOL0     H90394   2.258   4.224   9.006  0.2224 -0.9820 -3.5733
  670MOL0     H90395   2.144   4.041   8.895  0.3781 -2.8621 -0.5344
  670MOL0     H90396   2.202   3.917   9.018 -0.3281  0.9023 -0.7904
  670MOL0     H90397   2.078   4.063   9.180 -0.1460  0.3955  0.0137
  670MOL0     H90398   2.049   4.172   9.052  1.0856  0.5473 -0.2563
  670MOL0     H90399   1.936   3.881   9.052 -1.1968 -0.5880 -2.1407
  670MOL0     H90400   1.898   4.000   8.936 -0.6874  0.7701 -1.2490
  670MOL0     H90401   1.880   4.244   9.181  0.0642 -0.3180  1.9647
  670MOL0     H90402   1.679   4.354   9.289  1.5079 -0.4826  1.1188
  670MOL0     H90403   1.531   4.242   9.305  0.4343 -1.1674  0.8863
  670MOL0     H90404   1.684   4.368   9.521  2.3234 -0.7605  2.1674
  670MOL0     H90405   1.764   4.217   9.497  0.0574  0.1677  0.1707
  670MOL0     H90406   1.590   4.176   9.662 -0.1953 -1.7600  0.3173
  670MOL0     H90407   1.552   4.088   9.523  2.6645 -0.9128  2.5917
  670MOL0     H90408   1.350   4.204   9.588 -1.8157  1.0129 -0.3634
  670MOL0     H90409   1.400   4.306   9.459 -3.1212 -0.2026  0.4084
  670MOL0     H90410   1.448   4.614   9.778 -1.0538  2.9444  1.2193
  670MOL0     H90411   1.237   4.773   9.942 -1.3880  2.3547 -0.1156
  670MOL0     H90412   1.381   4.811   9.857 -0.8085  1.2914 -0.1859
  670MOL0     H90413   1.226   4.882   9.799  0.4943  0.6770 -2.4957
  670MOL0     H90414   0.679   4.546   9.594  1.0349  0.6156 -1.0346
  670MOL0     H90415   0.434   4.600   9.629  3.6006 -2.6760 -1.4860
  670MOL0     H90416   0.248   4.733   9.547  1.9823  2.7484 -1.3648
  670MOL0     H90417   0.228   4.707   9.720  3.9151 -0.4450  1.3333
  670MOL0     H90418   0.134   4.967   9.582 -1.6900  0.5463  0.7821
  670MOL0     H90419   0.036   4.819   9.591 -2.2600  0.4551  1.4928
  670MOL0     H90420   0.162   4.973   9.833  1.4156 -3.4637  2.8604
  670MOL0     H90421   0.083   4.819   9.850 -0.0655  1.4359  2.7115
  670MOL0     H90422  -0.053   5.084   9.787 -2.9697  0.7017 -1.0307
  670MOL0     H90423  -0.114   4.931   9.724 -0.9170 -2.3113  2.5340
  670MOL0     H90424  -0.076   4.991  10.028 -0.2464  1.4653 -0.3366
  670MOL0     H90425  -0.138   4.846   9.953 -0.1368  0.5979  3.3802
  670MOL0     H90426  -0.260   5.115   9.867 -0.0386 -1.3954 -2.6848
  670MOL0     H90427  -0.345   4.967   9.867 -0.9295 -0.7532  1.0971
  670MOL0     H90428  -0.252   5.057  10.128 -0.6820  3.5973 -0.8047
  670MOL0     H90429  -0.380   4.942  10.085 -0.1064  0.7148 -0.6067
  670MOL0     H90430  -0.390   5.236  10.114 -0.0310 -2.6324  3.6277
  670MOL0     H90431  -0.528   5.124  10.135 -0.0573 -0.5686  0.0586
  670MOL0     H90432   0.565   4.991   9.744 -0.1552  0.1619  0.2679
  670MOL0     H90433   0.794   4.929   9.752  1.7314 -1.6517 -1.3204
  670MOL0     H90434   1.013   4.518   9.560 -0.1151  0.6926  1.1657
  670MOL0     H90435   1.190   4.374   9.520 -0.3300 -0.2050 -0.3269
  670MOL0     H90436   2.857   4.221   8.619  0.5662  0.1743 -3.2852
  670MOL0     H90437   3.060   4.313   8.544 -1.2846 -0.7607 -1.1524
  670MOL0     H90438   3.360   4.673   8.636 -1.3924  2.5649  0.8774
  670MOL0     H90439   3.597   4.731   8.586  2.9046 -4.3701 -1.8634
  670MOL0     H90440   3.778   4.854   8.513 -1.2696 -3.6224  2.6967
  670MOL0     H90441   3.786   4.686   8.467 -0.4459  0.3880  0.2840
  670MOL0     H90442   3.999   4.823   8.426 -2.0532  0.1968  2.0761
  670MOL0     H90443   3.907   4.880   8.277  1.8996 -0.5278 -1.2997
  670MOL0     H90444   3.879   4.661   8.211  0.5016 -3.7670  1.0520
  670MOL0     H90445   3.953   4.593   8.344 -2.1829 -0.1898  0.7613
  670MOL0     H90446   4.088   4.795   8.142 -1.0527  0.4847  0.8819
  670MOL0     H90447   4.105   4.622   8.120 -1.4514  0.7994  0.3038
  670MOL0     H90448   4.397   4.699   8.405  0.3082 -0.5185 -0.2431
  670MOL0     H90449   3.480   4.757   8.166 -0.9721 -1.8231 -0.1293
  670MOL0     H90450   3.259   4.681   8.211 -2.0627  0.9769  1.3463
  671MOL0     O90451   4.142   8.141   4.119 -0.6564 -1.3414  0.1634
  671MOL0     C90452   4.215   8.126   4.019 -0.2726 -0.1368  0.4122
  671MOL0     O90453   4.174   8.088   3.894  0.1596  0.3326  0.4275
  671MOL0     C90454   4.062   8.015   3.863  0.4865  0.0770  0.2136
  671MOL0     C90455   3.999   7.927   3.947  0.2242 -0.2923 -0.2172
  671MOL0     C90456   3.877   7.864   3.916  0.5475 -1.0648 -0.6837
  671MOL0     C90457   3.809   7.895   3.796 -1.1539 -0.8413 -0.1598
  671MOL0     O90458   3.694   7.822   3.775  0.0455  0.1663  0.5642
  671MOL0     C90459   3.594   7.891   3.700  0.3101 -0.0798 -0.4281
  671MOL0     C90460   3.451   7.832   3.728  0.5998 -1.1220 -0.0894
  671MOL0     C90461   3.395   7.871   3.859 -0.2089  0.9797 -0.0772
  671MOL0     C90462   3.255   7.824   3.882  0.0155  0.1254 -0.4433
  671MOL0     C90463   3.224   7.675   3.849  0.6426 -0.5864 -0.0442
  671MOL0     C90464   3.072   7.662   3.844 -0.0958 -0.2182 -0.4623
  671MOL0     C90465   3.028   7.527   3.782  0.5411  0.7559 -0.3270
  671MOL0     C90466   3.067   7.404   3.859 -0.4383  0.3831  0.0370
  671MOL0     N90467   2.991   7.369   3.982  0.8065  0.0335  0.1911
  671MOL0     C90468   3.004   7.421   4.106 -0.8491  0.5754  0.4553
  671MOL0     C90469   2.888   7.398   4.166  0.5625  0.2662 -0.1168
  671MOL0     C90470   2.863   7.445   4.308  0.2757 -0.0488 -0.2893
  671MOL0     C90471   2.801   7.334   4.398 -1.1061  0.0402  0.5269
  671MOL0     C90472   2.695   7.385   4.496 -0.1622  0.8279  0.6803
  671MOL0     C90473   2.759   7.423   4.634 -0.3026 -0.1681  0.5437
  671MOL0     O90474   2.670   7.432   4.740 -0.4765  0.1167 -0.3251
  671MOL0     C90475   2.600   7.547   4.768  0.4942  0.1760 -0.6450
  671MOL0     C90476   2.639   7.623   4.880  0.6204 -0.6264  0.0811
  671MOL0     C90477   2.559   7.727   4.913 -0.1746 -0.9113 -0.8072
  671MOL0     C90478   2.616   7.822   5.014  0.4679 -0.1535 -0.6909
  671MOL0     C90479   2.436   7.760   4.850 -0.8828  0.4479  0.1589
  671MOL0     C90480   2.355   7.877   4.904  0.1255 -0.2749 -0.3673
  671MOL0     O90481   2.329   7.890   5.039 -0.2074 -0.5682 -0.3043
  671MOL0     C90482   2.227   7.963   5.099 -0.1337 -0.6835 -0.0028
  671MOL0     C90483   2.102   7.994   5.047 -0.0937  0.8123  0.4316
  671MOL0     C90484   2.006   8.069   5.119  0.4181  0.3823  0.1785
  671MOL0     C90485   2.036   8.109   5.246 -1.0451 -0.0499 -0.2067
  671MOL0     O90486   1.931   8.163   5.326 -0.2925 -0.1503  0.2645
  671MOL0     C90487   1.954   8.299   5.366  0.3986 -0.6797  0.2802
  671MOL0     C90488   1.815   8.376   5.399 -0.2989 -0.0054 -0.1284
  671MOL0     C90489   1.746   8.425   5.269  1.3592  0.4765  0.6084
  671MOL0     C90490   1.604   8.467   5.285 -0.2086 -0.1905 -0.5559
  671MOL0     C90491   1.535   8.507   5.164  0.5138  0.3591 -0.3218
  671MOL0     C90492   1.401   8.584   5.200 -0.2374  0.0803 -0.8555
  671MOL0     C90493   1.300   8.581   5.091  0.3279 -0.0927  0.3043
  671MOL0     C90494   1.208   8.697   5.093 -0.1306  0.0524  0.0490
  671MOL0    Cl90495   1.075   8.672   4.978 -0.3382  0.0052  0.2312
  671MOL0     C90496   2.168   8.082   5.293  0.4699 -1.0510  0.1888
  671MOL0     C90497   2.264   8.014   5.220 -0.1989 -0.9509 -0.2639
  671MOL0     O90498   2.290   7.948   4.820 -0.4016  0.7603 -0.4144
  671MOL0     C90499   2.401   7.683   4.735 -0.0434 -0.0840 -0.4116
  671MOL0     C90500   2.483   7.576   4.693 -0.8490 -0.7675 -0.5206
  671MOL0     N90501   2.811   7.321   4.086  0.2467 -0.1571 -0.3745
  671MOL0     N90502   2.866   7.310   3.980  0.2049 -0.8478  0.0472
  671MOL0     C90503   3.868   7.982   3.705 -0.0371  0.0324 -0.2967
  671MOL0     C90504   3.991   8.043   3.741 -0.5372  0.0138 -0.0687
  671MOL0     C90505   4.356   8.167   4.041 -0.4401 -0.7183 -0.2406
  671MOL0     C90506   4.405   8.173   4.170 -1.2931  0.3068  0.8240
  671MOL0     C90507   4.531   8.209   4.195 -0.3059  0.4886 -0.1367
  671MOL0     C90508   4.622   8.233   4.098  0.1004 -1.2167 -0.3506
  671MOL0     O90509   4.744   8.289   4.123 -0.4709  0.2240 -0.2334
  671MOL0     C90510   4.798   8.321   4.255 -1.0695 -0.6179  1.0427
  671MOL0     C90511   4.780   8.469   4.284 -0.3647 -0.2996  0.5866
  671MOL0     C90512   4.644   8.491   4.351 -0.3809  0.3258  0.3136
  671MOL0     C90513   4.596   8.638   4.374 -0.9582  0.0987 -0.2381
  671MOL0     C90514   4.590   8.706   4.244 -0.5772  0.3779  0.1733
  671MOL0     C90515   4.590   8.762   4.132  1.1448 -0.1140 -0.4441
  671MOL0     C90516   4.574   8.218   3.969 -0.5144  0.0481  0.1070
  671MOL0     C90517   4.445   8.194   3.938 -1.4401  0.0296 -0.9068
  671MOL0     H90518   4.041   7.903   4.044 -0.0593 -0.5530 -0.1571
  671MOL0     H90519   3.841   7.795   3.992  2.4006 -1.1545  0.1596
  671MOL0     H90520   3.593   7.998   3.726 -0.6166  0.3311 -1.9947
  671MOL0     H90521   3.608   7.863   3.595 -0.7026 -0.9351 -0.3502
  671MOL0     H90522   3.386   7.862   3.645  0.5822 -1.4118 -0.1819
  671MOL0     H90523   3.466   7.724   3.725  0.8386 -1.1651 -5.3464
  671MOL0     H90524   3.460   7.834   3.939  0.3935  2.0843 -0.0413
  671MOL0     H90525   3.384   7.979   3.867  0.0868  1.1467 -1.7682
  671MOL0     H90526   3.218   7.836   3.984 -0.4666  0.1965 -0.6286
  671MOL0     H90527   3.189   7.886   3.821 -0.6868 -1.3276 -1.2121
  671MOL0     H90528   3.260   7.638   3.752 -0.5559 -1.8002 -0.0591
  671MOL0     H90529   3.261   7.611   3.929 -1.0678 -1.0648  0.4101
  671MOL0     H90530   3.047   7.659   3.951  0.9636 -0.5947 -0.2130
  671MOL0     H90531   3.025   7.746   3.791  0.5457  0.3866 -0.0914
  671MOL0     H90532   2.918   7.530   3.775  0.3996 -0.8272  0.5919
  671MOL0     H90533   3.060   7.514   3.679 -0.0992 -1.4234 -0.3051
  671MOL0     H90534   3.175   7.409   3.874  0.1299  1.8141 -3.4512
  671MOL0     H90535   3.059   7.320   3.789  3.4836  0.4495 -0.6935
  671MOL0     H90536   3.086   7.467   4.160 -0.7815 -0.5878  1.3667
  671MOL0     H90537   2.953   7.479   4.358 -1.3745  1.0302  2.1014
  671MOL0     H90538   2.792   7.528   4.301 -2.0449 -1.9347 -0.5947
  671MOL0     H90539   2.895   7.302   4.444  2.0299  5.1589 -1.4782
  671MOL0     H90540   2.751   7.256   4.341 -0.4285 -0.2004  0.2478
  671MOL0     H90541   2.617   7.310   4.506 -2.4766  3.2187  1.9232
  671MOL0     H90542   2.643   7.472   4.453 -1.1053 -1.0947 -2.4313
  671MOL0     H90543   2.820   7.513   4.621 -0.2935 -0.1803  0.5035
  671MOL0     H90544   2.836   7.349   4.658 -0.9839 -1.2260 -0.4175
  671MOL0     H90545   2.727   7.603   4.941  1.5074 -0.6977 -1.1731
  671MOL0     H90546   2.722   7.805   5.036  0.7450 -1.2499 -2.6861
  671MOL0     H90547   2.613   7.923   4.971  0.0032  1.3623  2.5468
  671MOL0     H90548   2.558   7.830   5.106  0.2740  2.4643 -0.9537
  671MOL0     H90549   2.089   7.961   4.944  0.4871 -0.0243  0.6179
  671MOL0     H90550   1.906   8.088   5.080  0.2213  0.0185  0.5030
  671MOL0     H90551   2.022   8.307   5.452  1.1594  1.7319 -0.4737
  671MOL0     H90552   2.006   8.350   5.284  0.4315  0.1181  0.7876
  671MOL0     H90553   1.754   8.314   5.466  1.2728 -2.0911 -0.4923
  671MOL0     H90554   1.846   8.465   5.454 -1.8464  0.3704  0.1994
  671MOL0     H90555   1.746   8.339   5.202  0.1934  1.3985 -0.6202
  671MOL0     H90556   1.801   8.508   5.224 -2.7110  2.0140 -2.0937
  671MOL0     H90557   1.545   8.393   5.340 -0.0261  0.6923  0.8726
  671MOL0     H90558   1.599   8.552   5.354  0.0089 -0.3931 -0.2919
  671MOL0     H90559   1.521   8.420   5.099 -2.5589  1.8026 -1.8099
  671MOL0     H90560   1.597   8.585   5.118  2.7375  0.6076  2.7624
  671MOL0     H90561   1.361   8.543   5.292  0.7788 -0.2912 -0.5715
  671MOL0     H90562   1.418   8.689   5.227  0.0515 -0.9274  3.6617
  671MOL0     H90563   1.240   8.489   5.093  1.1931 -0.7109 -0.8979
  671MOL0     H90564   1.341   8.587   4.990 -3.0482 -2.8767 -1.4658
  671MOL0     H90565   1.260   8.789   5.065 -0.4465 -0.4489 -2.4578
  671MOL0     H90566   1.167   8.723   5.191  0.8288 -2.2896  1.1375
  671MOL0     H90567   2.195   8.096   5.398  2.1013 -1.5153 -0.1372
  671MOL0     H90568   2.361   7.984   5.260  0.6069  0.5435 -1.0293
  671MOL0     H90569   2.317   7.711   4.673  0.6566 -2.1385 -2.4684
  671MOL0     H90570   2.457   7.526   4.600 -1.6741 -0.4696 -0.4601
  671MOL0     H90571   3.821   7.988   3.608 -1.9147 -2.0451  0.4088
  671MOL0     H90572   4.036   8.102   3.662 -0.9302 -2.2002 -2.0755
  671MOL0     H90573   4.340   8.148   4.254 -0.7380 -0.3419  1.0700
  671MOL0     H90574   4.568   8.219   4.297 -1.1830  2.6231  0.0353
  671MOL0     H90575   4.763   8.253   4.333 -0.7314 -3.3856 -1.0570
  671MOL0     H90576   4.905   8.301   4.257 -0.8775  0.3699  1.1714
  671MOL0     H90577   4.786   8.515   4.184 -0.2700 -2.0256 -0.2460
  671MOL0     H90578   4.865   8.507   4.340 -1.0175  2.0031  0.1175
  671MOL0     H90579   4.659   8.446   4.450 -0.5685  2.1521  1.2246
  671MOL0     H90580   4.560   8.443   4.301 -2.3344  0.1520  3.4743
  671MOL0     H90581   4.654   8.693   4.448 -1.0388 -0.4868  0.2730
  671MOL0     H90582   4.501   8.621   4.427  0.5463 -0.5929  2.4140
  671MOL0     H90583   4.603   8.820   4.043  2.9267 -2.0610 -1.5577
  671MOL0     H90584   4.643   8.238   3.887 -1.7812  3.9794 -0.2304
  671MOL0     H90585   4.410   8.174   3.837  0.4050  0.0463 -1.5792
  672MOL0     O90586   0.638   7.436  10.782  0.5266  0.2682  0.6486
  672MOL0     C90587   0.728   7.441  10.698 -0.4359 -0.2483  0.4959
  672MOL0     O90588   0.717   7.459  10.563  0.3124 -0.2860 -0.3876
  672MOL0     C90589   0.604   7.516  10.531  0.0418 -0.3858  0.5418
  672MOL0     C90590   0.555   7.640  10.566  0.3623 -0.0878 -0.5677
  672MOL0     C90591   0.438   7.701  10.508 -0.1968  0.3574 -0.3595
  672MOL0     C90592   0.353   7.621  10.428 -0.6483  0.7101 -0.1014
  672MOL0     O90593   0.230   7.659  10.381 -0.7728 -0.0856 -0.3787
  672MOL0     C90594   0.175   7.783  10.415  0.8091  0.3773  0.3450
  672MOL0     C90595   0.031   7.795  10.380  0.0799  0.1281  0.6110
  672MOL0     C90596  -0.068   7.692  10.448 -0.3467  0.7326 -0.0286
  672MOL0     C90597  -0.214   7.717  10.403 -0.6121  0.1821 -0.1949
  672MOL0     C90598  -0.310   7.613  10.457  0.7012  0.3437  0.3577
  672MOL0     C90599  -0.452   7.658  10.463  0.6259  0.7898 -0.5340
  672MOL0     C90600  -0.509   7.730  10.339  0.1100 -0.1092 -0.4583
  672MOL0     C90601  -0.486   7.648  10.206  0.6869  0.3073  0.1869
  672MOL0     N90602  -0.594   7.660  10.119  0.5347  0.1340 -0.0586
  672MOL0     C90603  -0.620   7.780  10.062  0.5349  0.9601  0.4252
  672MOL0     C90604  -0.755   7.763  10.023 -0.4949 -0.1767  0.5892
  672MOL0     C90605  -0.832   7.863   9.941  0.0922  0.4529  0.4902
  672MOL0     C90606  -0.857   7.830   9.795  0.3057 -0.3262 -0.0543
  672MOL0     C90607  -0.909   7.688   9.766  0.8517 -0.3283  0.4781
  672MOL0     C90608  -0.948   7.683   9.619 -0.1089  0.2098 -0.3180
  672MOL0     O90609  -1.074   7.748   9.604 -0.0860 -0.3756  0.1760
  672MOL0     C90610  -1.151   7.730   9.487 -0.0676  0.3621 -0.4935
  672MOL0     C90611  -1.093   7.668   9.379  0.5816  0.1175 -0.0702
  672MOL0     C90612  -1.183   7.643   9.268 -0.1738 -0.0926  0.1536
  672MOL0     C90613  -1.123   7.560   9.155 -0.5536 -0.2044 -0.1655
  672MOL0     C90614  -1.321   7.683   9.270  0.8343 -0.0094  0.8480
  672MOL0     C90615  -1.418   7.658   9.152 -0.1382 -0.5015  0.8379
  672MOL0     O90616  -1.530   7.584   9.178  0.3863  0.1823  0.4664
  672MOL0     C90617  -1.623   7.560   9.076 -0.0333 -0.1516 -0.7300
  672MOL0     C90618  -1.593   7.497   8.964 -0.5088 -0.0395  0.5216
  672MOL0     C90619  -1.692   7.479   8.865  0.9583  0.2577  0.1519
  672MOL0     C90620  -1.831   7.508   8.889  0.3666  0.3426  0.5917
  672MOL0     O90621  -1.935   7.483   8.802 -0.5708 -0.5342 -0.4242
  672MOL0     C90622  -1.923   7.535   8.670 -0.1554 -0.2731 -0.4352
  672MOL0     C90623  -2.059   7.599   8.632 -0.1077 -0.0185 -0.0444
  672MOL0     C90624  -2.174   7.497   8.663 -0.9489 -0.2996 -1.3872
  672MOL0     C90625  -2.305   7.536   8.614 -0.0389  0.7771 -0.4211
  672MOL0     C90626  -2.392   7.418   8.623 -0.5812  0.5499 -0.4469
  672MOL0     C90627  -2.519   7.451   8.542  0.2455 -0.0066 -0.5518
  672MOL0     C90628  -2.562   7.596   8.558 -0.1429 -0.3567  0.6062
  672MOL0     C90629  -2.678   7.617   8.479  1.5806 -0.4225  0.5190
  672MOL0    Cl90630  -2.650   7.647   8.304 -0.3595 -0.9307 -0.2358
  672MOL0     C90631  -1.860   7.552   9.017  0.3135 -0.6926 -0.0294
  672MOL0     C90632  -1.753   7.595   9.107 -0.2325 -0.4116  0.0166
  672MOL0     O90633  -1.398   7.722   9.045  0.2327  0.0963  0.2973
  672MOL0     C90634  -1.363   7.761   9.382  0.3375  0.7523 -0.0189
  672MOL0     C90635  -1.279   7.776   9.491  0.4926  0.0846  0.7946
  672MOL0     N90636  -0.788   7.634  10.040 -0.9830  0.1961  0.1921
  672MOL0     N90637  -0.698   7.573  10.111  0.6831 -0.0617 -0.5232
  672MOL0     C90638   0.406   7.494  10.393  0.8314 -0.3482 -0.0100
  672MOL0     C90639   0.528   7.446  10.444 -0.3994 -0.1565 -0.0984
  672MOL0     C90640   0.863   7.392  10.750 -0.2492 -0.6057  0.0800
  672MOL0     C90641   0.880   7.329  10.875 -0.2406  0.5668 -0.7070
  672MOL0     C90642   1.006   7.301  10.929  0.2131 -0.1684  0.3769
  672MOL0     C90643   1.118   7.323  10.854 -0.6369  0.4313  0.8169
  672MOL0     O90644   1.241   7.273  10.903  0.4957 -0.2618  0.2466
  672MOL0     C90645   1.364   7.322  10.854 -0.4835 -0.1286 -0.1580
  672MOL0     C90646   1.470   7.267  10.954 -0.1833  0.1110 -0.4998
  672MOL0     C90647   1.609   7.280  10.905 -0.4774 -0.2390  0.4985
  672MOL0     C90648   1.713   7.185  10.978 -0.4440 -0.2693  0.0290
  672MOL0     C90649   1.719   7.226  11.125  0.1750  0.6243  0.3417
  672MOL0     C90650   1.732   7.264  11.238 -1.1519 -0.4181 -0.9640
  672MOL0     C90651   1.103   7.383  10.728  0.0399 -0.2687  1.2054
  672MOL0     C90652   0.984   7.417  10.679 -0.5059 -0.3033  0.1081
  672MOL0     H90653   0.622   7.698  10.628  1.1977 -3.2599  1.7572
  672MOL0     H90654   0.414   7.802  10.540  0.4081  0.9143 -1.6190
  672MOL0     H90655   0.187   7.804  10.521  1.4134 -0.1268  0.3830
  672MOL0     H90656   0.222   7.866  10.361  0.4138  2.3985  2.9036
  672MOL0     H90657   0.003   7.900  10.395 -0.1240  0.0350  0.9064
  672MOL0     H90658   0.022   7.777  10.273 -0.2641  0.4226  0.5866
  672MOL0     H90659  -0.030   7.597  10.407  1.2124  1.7902 -1.1689
  672MOL0     H90660  -0.063   7.698  10.557 -3.7172 -0.4553  0.3093
  672MOL0     H90661  -0.246   7.819  10.426  1.7148  0.9562 -0.0996
  672MOL0     H90662  -0.213   7.703  10.295  0.7091 -1.1864 -0.0369
  672MOL0     H90663  -0.307   7.515  10.410 -2.4530  0.5709 -0.5212
  672MOL0     H90664  -0.285   7.600  10.563  2.9272  1.6005  0.0534
  672MOL0     H90665  -0.516   7.570  10.467 -1.7112  2.4111  0.6718
  672MOL0     H90666  -0.467   7.704  10.562  2.9761 -1.7973  1.1687
  672MOL0     H90667  -0.615   7.742  10.360 -0.1808 -3.1448  0.2856
  672MOL0     H90668  -0.472   7.833  10.326  2.1016 -0.2485  2.9114
  672MOL0     H90669  -0.473   7.542  10.228 -2.5961 -0.1566  0.5118
  672MOL0     H90670  -0.402   7.687  10.147 -1.1965  0.7875 -2.3861
  672MOL0     H90671  -0.539   7.852  10.053  0.0326  2.1464  3.9413
  672MOL0     H90672  -0.931   7.885   9.984  0.1492  0.5308  0.5809
  672MOL0     H90673  -0.772   7.955   9.934  1.6511 -0.3834  2.0592
  672MOL0     H90674  -0.753   7.831   9.761  0.3930  1.9994  0.0990
  672MOL0     H90675  -0.915   7.906   9.742 -1.2703  0.8139  3.0462
  672MOL0     H90676  -1.002   7.657   9.815 -0.7133  0.9039 -1.5158
  672MOL0     H90677  -0.837   7.610   9.793  1.9803  0.1083 -1.1239
  672MOL0     H90678  -0.952   7.576   9.600  4.1773 -0.0236 -1.0094
  672MOL0     H90679  -0.869   7.730   9.559  2.4472  0.2040  2.7577
  672MOL0     H90680  -0.995   7.623   9.374 -0.4766 -2.2059 -2.4022
  672MOL0     H90681  -1.028   7.609   9.130  0.0377 -1.0308  0.4236
  672MOL0     H90682  -1.085   7.467   9.199  1.3264  1.9289  3.1268
  672MOL0     H90683  -1.188   7.537   9.070 -0.0179  0.1472 -0.6786
  672MOL0     H90684  -1.487   7.483   8.941 -0.8292  0.2885 -1.3518
  672MOL0     H90685  -1.682   7.430   8.768  0.8271 -0.5454  0.5373
  672MOL0     H90686  -1.839   7.605   8.663 -0.3813  0.1171  0.6124
  672MOL0     H90687  -1.887   7.451   8.610  3.1692  0.5228  0.2730
  672MOL0     H90688  -2.065   7.685   8.699  1.5422 -0.0940  0.2519
  672MOL0     H90689  -2.053   7.627   8.527  2.3232 -3.6139 -1.0828
  672MOL0     H90690  -2.175   7.499   8.772 -0.9829  2.1139 -1.3716
  672MOL0     H90691  -2.136   7.402   8.624  0.0831 -0.3461 -0.3025
  672MOL0     H90692  -2.341   7.612   8.684  1.0932 -0.2301  1.3458
  672MOL0     H90693  -2.283   7.577   8.515  3.2062  1.0150  0.2819
  672MOL0     H90694  -2.401   7.385   8.727  2.2041 -1.0071 -0.6036
  672MOL0     H90695  -2.336   7.341   8.569 -0.4938  1.7992 -2.2070
  672MOL0     H90696  -2.495   7.419   8.441 -0.2006 -1.6778 -0.1565
  672MOL0     H90697  -2.603   7.395   8.585 -0.5610  1.6628  0.1865
  672MOL0     H90698  -2.492   7.671   8.521 -0.9484  1.5920  2.7904
  672MOL0     H90699  -2.597   7.611   8.660 -2.3747 -0.1355 -0.1347
  672MOL0     H90700  -2.729   7.704   8.519  0.7843 -1.3925  1.6762
  672MOL0     H90701  -2.751   7.536   8.486 -0.4584  1.2157 -0.6136
  672MOL0     H90702  -1.962   7.578   9.038  0.0739  0.0746 -1.9361
  672MOL0     H90703  -1.760   7.636   9.207  2.9460 -0.3668  0.3243
  672MOL0     H90704  -1.467   7.791   9.396  0.0527  0.4817 -1.4116
  672MOL0     H90705  -1.320   7.837   9.571  0.2582  1.2415 -0.1739
  672MOL0     H90706   0.351   7.433  10.322 -1.0456  0.1743  0.9280
  672MOL0     H90707   0.569   7.349  10.417  1.1261  0.1776  0.8427
  672MOL0     H90708   0.795   7.304  10.938  0.9119  1.1343  1.1427
  672MOL0     H90709   1.009   7.259  11.029  1.8367 -0.8314  0.0664
  672MOL0     H90710   1.383   7.287  10.752  3.0521 -2.9353  1.2271
  672MOL0     H90711   1.379   7.431  10.849  1.2312 -0.3793 -2.0461
  672MOL0     H90712   1.446   7.165  10.984  2.2407 -0.8774 -1.5969
  672MOL0     H90713   1.460   7.324  11.047  2.0914  0.1229 -0.1899
  672MOL0     H90714   1.645   7.383  10.922 -0.9980 -0.0406  0.4034
  672MOL0     H90715   1.619   7.281  10.796 -1.8176  2.7840  0.2907
  672MOL0     H90716   1.811   7.201  10.932 -0.6996  1.5317  0.0457
  672MOL0     H90717   1.681   7.081  10.966  0.7157 -0.5781 -0.5075
  672MOL0     H90718   1.749   7.259  11.344  0.2372  1.8206 -1.0130
  672MOL0     H90719   1.193   7.391  10.668 -0.0859 -0.8113  0.9367
  672MOL0     H90720   0.986   7.458  10.579  5.1567  1.3504  0.5401
  673MOL0     O90721   1.223   9.441   0.968 -0.3096 -0.6383  0.2960
  673MOL0     C90722   1.163   9.509   1.048  0.3140  0.3076  0.0567
  673MOL0     O90723   1.204   9.631   1.093  0.4772  0.3700  0.0899
  673MOL0     C90724   1.328   9.682   1.070 -0.0483 -0.1538  0.1090
  673MOL0     C90725   1.392   9.672   0.947  0.0610 -0.5263 -0.3488
  673MOL0     C90726   1.513   9.732   0.930  0.6048  0.0385  0.7935
  673MOL0     C90727   1.583   9.800   1.028 -0.0564  0.2623  0.2194
  673MOL0     O90728   1.703   9.859   1.017 -0.4195 -0.6975  0.3211
  673MOL0     C90729   1.795   9.795   0.929  0.5674  0.2871  0.1471
  673MOL0     C90730   1.864   9.675   0.996 -0.4813 -0.4535 -0.2337
  673MOL0     C90731   1.953   9.729   1.110  0.6495 -0.4137 -0.6753
  673MOL0     C90732   2.026   9.624   1.189  0.3676 -0.3303 -0.1315
  673MOL0     C90733   2.150   9.676   1.265  0.6534 -0.9030 -0.4561
  673MOL0     C90734   2.270   9.705   1.175  0.2080  0.4186  0.3975
  673MOL0     C90735   2.381   9.774   1.246  0.3609  1.2985 -0.6154
  673MOL0     C90736   2.486   9.821   1.152 -0.2731  0.0505 -0.0617
  673MOL0     N90737   2.563   9.715   1.082  0.0719  0.8374 -0.2752
  673MOL0     C90738   2.625   9.600   1.134 -0.1252 -0.0800 -0.2094
  673MOL0     C90739   2.670   9.532   1.024  0.7863 -0.2651  0.1499
  673MOL0     C90740   2.741   9.403   1.028 -0.2271  0.5473 -0.2393
  673MOL0     C90741   2.648   9.283   1.057  0.3962 -0.1749  0.3183
  673MOL0     C90742   2.550   9.251   0.949  0.1958 -0.1775  0.7174
  673MOL0     C90743   2.613   9.153   0.840  0.0405 -0.2462  0.6178
  673MOL0     O90744   2.527   9.132   0.731 -0.3059 -0.3776 -0.4937
  673MOL0     C90745   2.412   9.057   0.746  0.1172  0.4177 -0.1213
  673MOL0     C90746   2.362   9.004   0.865 -0.8806  0.3832 -0.1294
  673MOL0     C90747   2.245   8.935   0.881  0.3174 -0.1392  0.3376
  673MOL0     C90748   2.205   8.887   1.020 -0.2030  0.0103 -0.6453
  673MOL0     C90749   2.166   8.934   0.768  0.4479  0.1457  0.8236
  673MOL0     C90750   2.032   8.873   0.760 -0.3615  0.3206 -0.8712
  673MOL0     O90751   1.952   8.877   0.651 -0.7510 -0.2711  0.2469
  673MOL0     C90752   1.824   8.824   0.657 -0.1209 -0.2916  0.8452
  673MOL0     C90753   1.718   8.915   0.670 -0.3275  0.3529 -0.2088
  673MOL0     C90754   1.591   8.863   0.661  0.4155 -0.2751  0.2701
  673MOL0     C90755   1.567   8.726   0.637 -0.4182 -0.4134  0.1104
  673MOL0     O90756   1.439   8.666   0.620 -0.4422 -0.2352  0.4535
  673MOL0     C90757   1.330   8.764   0.640 -0.8256 -0.0323 -0.7662
  673MOL0     C90758   1.196   8.700   0.611  0.5723 -0.0432  0.9095
  673MOL0     C90759   1.079   8.799   0.622 -0.7156 -0.8818  0.9984
  673MOL0     C90760   0.941   8.737   0.585 -0.0899 -0.2950  0.0542
  673MOL0     C90761   0.913   8.745   0.438 -0.0568  0.3231  0.3655
  673MOL0     C90762   0.877   8.889   0.389 -0.2711  1.2088  0.2901
  673MOL0     C90763   0.717   8.899   0.379  0.1349  0.0460  0.2104
  673MOL0     C90764   0.677   9.019   0.298 -0.0700  0.1394  0.3913
  673MOL0    Cl90765   0.705   8.996   0.117  0.3540 -0.0867  0.1421
  673MOL0     C90766   1.673   8.644   0.612  0.3096  0.0153  0.5769
  673MOL0     C90767   1.802   8.693   0.624 -0.5268  0.3859 -0.3659
  673MOL0     O90768   2.004   8.813   0.860 -0.8913  1.1652  0.0625
  673MOL0     C90769   2.206   8.991   0.643 -0.7008  0.4556 -0.0834
  673MOL0     C90770   2.334   9.040   0.631  0.6004 -1.1220  0.3491
  673MOL0     N90771   2.628   9.598   0.908 -0.2505 -0.5029  0.5290
  673MOL0     N90772   2.576   9.708   0.946  0.5627  0.2236 -0.0209
  673MOL0     C90773   1.517   9.808   1.149 -0.2787 -0.5430  0.1924
  673MOL0     C90774   1.390   9.754   1.168  0.3617  0.6267  0.8986
  673MOL0     C90775   1.044   9.452   1.099  0.1694 -0.9674  1.0756
  673MOL0     C90776   0.977   9.358   1.020 -0.2742 -0.2538 -0.3915
  673MOL0     C90777   0.851   9.322   1.060 -0.4570 -0.7646  0.9235
  673MOL0     C90778   0.800   9.351   1.185  0.6010  0.4867  0.2005
  673MOL0     O90779   0.672   9.321   1.212 -0.4724  0.1542 -0.1053
  673MOL0     C90780   0.618   9.353   1.338  0.2344 -0.7541 -0.2219
  673MOL0     C90781   0.483   9.283   1.365  0.3604 -0.4538  0.6154
  673MOL0     C90782   0.356   9.368   1.329  0.1426 -0.2360  0.1220
  673MOL0     C90783   0.220   9.301   1.361 -0.3640  0.1530  0.9303
  673MOL0     C90784   0.103   9.383   1.299  0.3506  0.8080 -0.6960
  673MOL0     C90785   0.004   9.439   1.266 -0.0486 -0.2459  0.2599
  673MOL0     C90786   0.871   9.441   1.267  1.0808  0.8706  0.4173
  673MOL0     C90787   0.987   9.499   1.217 -0.6912  0.5757 -0.3954
  673MOL0     H90788   1.351   9.620   0.861 -0.3244 -0.5787 -0.1372
  673MOL0     H90789   1.555   9.708   0.833 -2.4858 -0.1173 -0.6451
  673MOL0     H90790   1.753   9.751   0.838  1.4680 -2.6442  1.0314
  673MOL0     H90791   1.870   9.870   0.903 -0.6156  0.7951 -2.0537
  673MOL0     H90792   1.796   9.601   1.039  0.0544 -2.4641 -2.6421
  673MOL0     H90793   1.927   9.631   0.918 -1.3589  2.1353 -2.5580
  673MOL0     H90794   2.021   9.802   1.066  0.0961  0.1893 -0.5494
  673MOL0     H90795   1.892   9.788   1.179 -0.0530  0.3174 -1.8846
  673MOL0     H90796   1.948   9.583   1.253  0.8993  1.9751  2.1455
  673MOL0     H90797   2.071   9.557   1.114  1.8167 -1.9495  2.0551
  673MOL0     H90798   2.111   9.759   1.324  0.2498 -1.6840  0.3919
  673MOL0     H90799   2.189   9.607   1.340 -0.9420  0.7774  2.0451
  673MOL0     H90800   2.319   9.616   1.136  0.1640  0.8147 -0.5884
  673MOL0     H90801   2.238   9.764   1.088 -2.9881  0.4880  1.4739
  673MOL0     H90802   2.323   9.848   1.302 -0.8324 -0.0733  0.0016
  673MOL0     H90803   2.416   9.700   1.318  0.3426  1.1771 -0.7303
  673MOL0     H90804   2.555   9.882   1.211 -0.8318 -0.3497  1.0324
  673MOL0     H90805   2.433   9.887   1.082 -0.4757  0.2383  0.2658
  673MOL0     H90806   2.637   9.586   1.241 -3.1383 -1.3084  0.0566
  673MOL0     H90807   2.788   9.376   0.933  0.3459  0.4668  0.0632
  673MOL0     H90808   2.816   9.409   1.107 -1.0017  0.5281  0.5155
  673MOL0     H90809   2.593   9.297   1.151 -1.6924 -2.4308 -0.4774
  673MOL0     H90810   2.712   9.194   1.066 -0.2979 -0.6437  0.6529
  673MOL0     H90811   2.516   9.343   0.900  0.9774 -0.1910  0.1156
  673MOL0     H90812   2.460   9.217   1.000 -0.0381 -0.0945  0.3661
  673MOL0     H90813   2.660   9.066   0.886  2.3925 -0.8836 -2.6466
  673MOL0     H90814   2.686   9.227   0.807 -2.3368  1.8047 -0.3742
  673MOL0     H90815   2.439   9.006   0.942 -1.0963  2.9738  0.1021
  673MOL0     H90816   2.275   8.891   1.105 -2.3115  0.5704  1.1433
  673MOL0     H90817   2.123   8.947   1.060 -0.4323 -2.1552  2.5664
  673MOL0     H90818   2.171   8.783   1.013 -2.7153  0.8166 -1.2340
  673MOL0     H90819   1.747   9.018   0.686 -0.5942  0.8401 -2.4837
  673MOL0     H90820   1.501   8.923   0.672 -0.7563 -1.3452 -2.4532
  673MOL0     H90821   1.328   8.816   0.736  0.3349  0.4654 -0.9936
  673MOL0     H90822   1.341   8.841   0.563 -0.1314 -0.5122 -1.1555
  673MOL0     H90823   1.191   8.655   0.511  0.7661 -1.5747  1.5474
  673MOL0     H90824   1.173   8.616   0.678  2.4334 -0.2263  1.3800
  673MOL0     H90825   1.099   8.881   0.553 -0.8858 -0.6596  1.2133
  673MOL0     H90826   1.084   8.838   0.724 -0.2490  1.9943 -0.0282
  673MOL0     H90827   0.937   8.635   0.625  0.4440 -0.9111 -1.4087
  673MOL0     H90828   0.875   8.809   0.635 -0.4633  0.5991 -1.6577
  673MOL0     H90829   0.831   8.679   0.412 -2.8392  2.8412  2.0707
  673MOL0     H90830   1.004   8.719   0.384 -0.6687 -0.1414 -0.4530
  673MOL0     H90831   0.921   8.959   0.462  0.7628  1.2707 -0.3648
  673MOL0     H90832   0.929   8.910   0.295  2.4914  1.5336  1.7820
  673MOL0     H90833   0.685   8.909   0.483  1.2455  0.8837  0.4894
  673MOL0     H90834   0.684   8.806   0.331  4.2286 -1.2725 -0.4783
  673MOL0     H90835   0.740   9.103   0.331  0.6117 -0.1225 -0.2281
  673MOL0     H90836   0.571   9.040   0.316  0.3186  1.7756  1.0310
  673MOL0     H90837   1.641   8.542   0.595 -1.5934  0.7721 -0.7209
  673MOL0     H90838   1.891   8.631   0.623  1.1536  2.5783  1.3641
  673MOL0     H90839   2.151   9.005   0.550 -0.3186 -1.2340 -0.6067
  673MOL0     H90840   2.366   9.082   0.536 -2.5377  1.9368  0.4562
  673MOL0     H90841   1.562   9.862   1.231 -0.9576  0.2308  0.0671
  673MOL0     H90842   1.352   9.753   1.270 -0.5204  1.3239  0.5815
  673MOL0     H90843   1.017   9.325   0.924 -0.3462  2.0659 -1.2676
  673MOL0     H90844   0.794   9.255   0.997 -2.3063  1.1530  0.4682
  673MOL0     H90845   0.683   9.326   1.422 -0.6529  0.1181  0.7779
  673MOL0     H90846   0.593   9.459   1.349  0.7056 -0.7730  1.2890
  673MOL0     H90847   0.483   9.251   1.470  0.0164 -0.0453  0.7396
  673MOL0     H90848   0.478   9.190   1.307  0.8839  0.1111 -0.3613
  673MOL0     H90849   0.356   9.386   1.222 -1.3437 -0.0050  0.1302
  673MOL0     H90850   0.365   9.463   1.382 -0.3370  0.4286 -0.9621
  673MOL0     H90851   0.216   9.289   1.469  1.2286  1.4686  1.1885
  673MOL0     H90852   0.216   9.204   1.311 -0.6877 -0.3695  1.9505
  673MOL0     H90853  -0.082   9.491   1.230  0.1884  1.8023  2.4114
  673MOL0     H90854   0.819   9.479   1.355  0.0500 -0.2774  0.3308
  673MOL0     H90855   1.050   9.566   1.276  0.2028 -1.1816  0.7216
  674MOL0     O90856   2.149   5.998   1.806  0.9883 -0.6767 -0.1548
  674MOL0     C90857   2.089   6.098   1.853 -0.6060  0.1092 -0.0692
  674MOL0     O90858   1.958   6.130   1.837  0.3073  0.3063  0.2206
  674MOL0     C90859   1.871   6.035   1.788  0.7999 -0.0326 -0.0989
  674MOL0     C90860   1.750   6.021   1.854  0.5439 -0.8132  0.5339
  674MOL0     C90861   1.641   5.939   1.802  1.2773 -0.0654 -0.4463
  674MOL0     C90862   1.665   5.877   1.677  0.7189 -0.7842  0.2076
  674MOL0     O90863   1.564   5.797   1.622 -0.0750 -0.4448 -0.2396
  674MOL0     C90864   1.453   5.754   1.704  0.0659  0.2490 -0.6244
  674MOL0     C90865   1.353   5.662   1.635 -0.0465  0.4567  0.3657
  674MOL0     C90866   1.281   5.575   1.737 -0.0037 -0.3099 -1.0485
  674MOL0     C90867   1.181   5.477   1.681 -0.5132 -0.5067 -0.2776
  674MOL0     C90868   1.068   5.539   1.590  0.1063  0.2204 -0.3112
  674MOL0     C90869   0.939   5.460   1.589 -0.5871 -0.0574 -0.3584
  674MOL0     C90870   0.835   5.557   1.523 -0.1278 -0.2658 -0.1263
  674MOL0     C90871   0.697   5.495   1.513  0.6840  0.5720 -0.3172
  674MOL0     N90872   0.601   5.567   1.422  0.2499  0.2474  0.1683
  674MOL0     C90873   0.512   5.659   1.475  0.0085  0.1079  0.7035
  674MOL0     C90874   0.464   5.724   1.377 -1.2371 -0.5675 -0.6532
  674MOL0     C90875   0.366   5.838   1.408 -1.0341  0.4372 -0.5942
  674MOL0     C90876   0.232   5.838   1.329 -0.2885  0.4397  0.1085
  674MOL0     C90877   0.125   5.922   1.397  0.5326  0.4221 -0.5021
  674MOL0     C90878  -0.015   5.928   1.336 -0.7093  0.0293 -0.1304
  674MOL0     O90879  -0.100   6.020   1.410 -0.2241 -0.3009 -0.1298
  674MOL0     C90880  -0.227   6.045   1.353 -0.3971  0.4676 -0.1240
  674MOL0     C90881  -0.313   6.124   1.427  0.5118  0.0321 -0.0743
  674MOL0     C90882  -0.440   6.166   1.382  0.9812 -0.8538 -0.1429
  674MOL0     C90883  -0.530   6.249   1.485  0.3562  0.1311  0.1297
  674MOL0     C90884  -0.482   6.128   1.250  0.7986 -0.0637 -0.0307
  674MOL0     C90885  -0.615   6.176   1.186 -0.1550  0.4980 -1.6213
  674MOL0     O90886  -0.699   6.268   1.256 -0.5408  0.0912 -0.2564
  674MOL0     C90887  -0.797   6.330   1.183  0.4234 -0.3334  0.8694
  674MOL0     C90888  -0.905   6.259   1.124 -0.8002  0.4451  0.3146
  674MOL0     C90889  -1.011   6.329   1.065 -0.0525 -0.6366 -1.9243
  674MOL0     C90890  -1.015   6.465   1.080 -0.4357  0.4741 -0.0273
  674MOL0     O90891  -1.122   6.543   1.036 -0.4515  0.1028  0.1320
  674MOL0     C90892  -1.241   6.534   1.117  0.6570 -0.3529  0.3147
  674MOL0     C90893  -1.374   6.586   1.050 -0.1295 -0.1828 -0.3162
  674MOL0     C90894  -1.422   6.497   0.936 -1.0173  0.5832 -0.7348
  674MOL0     C90895  -1.565   6.516   0.896 -0.1868  0.1909 -0.4134
  674MOL0     C90896  -1.611   6.416   0.775  0.7622 -0.3678 -0.3439
  674MOL0     C90897  -1.724   6.477   0.698 -0.7364 -0.0570  0.7447
  674MOL0     C90898  -1.851   6.515   0.775  0.7377  0.2794 -0.0053
  674MOL0     C90899  -1.959   6.564   0.682  0.6303 -0.3396  0.2269
  674MOL0    Cl90900  -1.997   6.431   0.585  0.0150 -0.0495 -0.0033
  674MOL0     C90901  -0.911   6.536   1.134  0.1838  0.6272 -0.5537
  674MOL0     C90902  -0.800   6.467   1.182 -0.3391  0.6511  0.6952
  674MOL0     O90903  -0.635   6.145   1.069  0.3142  0.3118  0.6768
  674MOL0     C90904  -0.400   6.041   1.173 -0.2780  0.0790  1.3200
  674MOL0     C90905  -0.274   5.998   1.227 -0.2379 -0.5236  0.1942
  674MOL0     N90906   0.512   5.673   1.255  0.1468 -0.1527 -0.4844
  674MOL0     N90907   0.595   5.583   1.289 -0.1230 -0.4659  0.1932
  674MOL0     C90908   1.781   5.899   1.606  0.2144  0.2235  0.3036
  674MOL0     C90909   1.879   5.980   1.661  0.0989 -0.1744 -1.2862
  674MOL0     C90910   2.163   6.199   1.941  0.3958 -0.2860  0.5893
  674MOL0     C90911   2.305   6.200   1.956 -0.0642  1.1421 -0.1984
  674MOL0     C90912   2.364   6.288   2.037  0.1038  0.0866  0.3513
  674MOL0     C90913   2.285   6.375   2.112  0.4434  1.3755  0.0515
  674MOL0     O90914   2.328   6.456   2.213 -0.5882 -0.1381  0.0359
  674MOL0     C90915   2.470   6.469   2.238  1.0385  1.0364  0.9474
  674MOL0     C90916   2.502   6.581   2.332  0.8395  0.3891 -0.3319
  674MOL0     C90917   2.413   6.569   2.455  0.4758  0.0416 -0.3696
  674MOL0     C90918   2.451   6.683   2.560  0.1863  0.3027 -0.1829
  674MOL0     C90919   2.587   6.647   2.621  0.1751  0.0742  0.9868
  674MOL0     C90920   2.698   6.626   2.662 -0.6840 -0.0963 -0.3169
  674MOL0     C90921   2.143   6.377   2.108 -0.4573 -0.1583 -0.5583
  674MOL0     C90922   2.088   6.292   2.019  0.2766 -0.2322  0.3129
  674MOL0     H90923   1.751   6.078   1.946  1.4707  1.9356 -1.0753
  674MOL0     H90924   1.557   5.920   1.867  2.9162  2.0053  2.5519
  674MOL0     H90925   1.494   5.699   1.790  1.1629  1.5716 -0.2693
  674MOL0     H90926   1.397   5.842   1.736 -0.7830 -0.0342 -1.2851
  674MOL0     H90927   1.283   5.720   1.573  0.7968  0.1014 -0.9662
  674MOL0     H90928   1.405   5.600   1.561 -1.9284  1.7722 -2.2574
  674MOL0     H90929   1.349   5.521   1.804 -2.4866 -0.6773  1.3396
  674MOL0     H90930   1.235   5.644   1.809 -0.6372 -0.3951 -1.3682
  674MOL0     H90931   1.227   5.406   1.612 -1.1217  0.0321 -1.2674
  674MOL0     H90932   1.159   5.425   1.775  5.0942  1.0083  2.2525
  674MOL0     H90933   1.050   5.642   1.622  0.2368  0.6657 -1.6133
  674MOL0     H90934   1.098   5.543   1.485 -4.4638  1.4984 -1.8238
  674MOL0     H90935   0.941   5.362   1.541  2.9133 -0.8602  1.1446
  674MOL0     H90936   0.898   5.447   1.690 -1.9907 -0.8149 -0.9928
  674MOL0     H90937   0.825   5.645   1.587  4.3650  0.6493 -0.3433
  674MOL0     H90938   0.863   5.581   1.420  2.9622 -1.8791  0.2229
  674MOL0     H90939   0.647   5.498   1.610 -0.5253 -0.4631 -0.8679
  674MOL0     H90940   0.697   5.390   1.482  0.4942  0.1719  0.9787
  674MOL0     H90941   0.485   5.677   1.579  1.1094  0.8178  0.8886
  674MOL0     H90942   0.344   5.822   1.514 -0.0041 -2.4244 -0.7352
  674MOL0     H90943   0.413   5.937   1.399  0.4447 -0.1167  0.6936
  674MOL0     H90944   0.202   5.733   1.321 -1.4183  0.7264  0.3717
  674MOL0     H90945   0.258   5.873   1.229 -0.8727  0.7089  0.0483
  674MOL0     H90946   0.147   6.029   1.405 -1.8660  0.9481 -0.1097
  674MOL0     H90947   0.106   5.889   1.499  0.6161  0.8878 -0.3307
  674MOL0     H90948  -0.057   5.827   1.341 -0.9336  0.1733  1.3765
  674MOL0     H90949  -0.009   5.947   1.229  0.0191 -0.8797 -0.2680
  674MOL0     H90950  -0.281   6.157   1.525 -1.6270  0.1725  0.6347
  674MOL0     H90951  -0.481   6.251   1.583  4.3389 -0.1699 -1.6343
  674MOL0     H90952  -0.541   6.351   1.448 -1.7225 -0.4275 -0.9303
  674MOL0     H90953  -0.618   6.186   1.500  0.3336  0.5232  1.9221
  674MOL0     H90954  -0.899   6.152   1.140  4.7267  0.8228  3.2005
  674MOL0     H90955  -1.108   6.288   1.038 -2.8025  2.6328  1.7817
  674MOL0     H90956  -1.268   6.430   1.135  1.7460 -0.1198  4.0095
  674MOL0     H90957  -1.224   6.572   1.218  1.0777 -1.8833  0.8495
  674MOL0     H90958  -1.451   6.597   1.126 -1.4906  0.2618 -1.7164
  674MOL0     H90959  -1.349   6.685   1.009  0.6048 -0.3319 -0.2524
  674MOL0     H90960  -1.405   6.391   0.957 -1.6346  0.6632  0.2967
  674MOL0     H90961  -1.354   6.516   0.853 -0.1454 -2.6977 -0.9017
  674MOL0     H90962  -1.624   6.495   0.986 -0.1684  1.5860 -0.0618
  674MOL0     H90963  -1.586   6.619   0.869  0.4671  1.4077  3.1671
  674MOL0     H90964  -1.634   6.324   0.829  1.1352 -2.3745 -3.3262
  674MOL0     H90965  -1.524   6.395   0.712  1.7848  0.9566  0.5763
  674MOL0     H90966  -1.697   6.576   0.659 -2.2557  0.1555  0.1639
  674MOL0     H90967  -1.737   6.414   0.609 -0.0926 -0.6261  1.0471
  674MOL0     H90968  -1.825   6.608   0.827  0.9405  1.0046 -1.3642
  674MOL0     H90969  -1.894   6.440   0.843  0.0494  2.3367  1.9596
  674MOL0     H90970  -1.926   6.649   0.621 -0.7653  3.4920  4.2853
  674MOL0     H90971  -2.043   6.614   0.731 -1.5499 -1.7884 -1.7627
  674MOL0     H90972  -0.925   6.643   1.146  0.8087  0.4020  3.5334
  674MOL0     H90973  -0.720   6.526   1.225  2.0202 -4.3231  3.9818
  674MOL0     H90974  -0.423   6.006   1.073  0.4025 -1.1179  1.5515
  674MOL0     H90975  -0.221   5.928   1.164 -1.7538 -0.1774 -1.5611
  674MOL0     H90976   1.794   5.844   1.514 -0.5901  0.7431 -0.1361
  674MOL0     H90977   1.973   6.002   1.611  0.5537  0.5036 -0.1867
  674MOL0     H90978   2.359   6.137   1.886  2.3315  2.7126  0.1440
  674MOL0     H90979   2.469   6.282   2.063  0.6071 -4.1583 -1.7979
  674MOL0     H90980   2.506   6.378   2.286  0.4161  1.7348  2.8439
  674MOL0     H90981   2.516   6.485   2.140  0.9007  0.0695  0.7211
  674MOL0     H90982   2.481   6.680   2.289  2.1602  1.7694  1.9675
  674MOL0     H90983   2.605   6.567   2.364  0.0606 -0.6665  1.9334
  674MOL0     H90984   2.426   6.467   2.490  0.1878  0.0275 -0.3003
  674MOL0     H90985   2.308   6.595   2.438  0.5208  1.8590  1.6395
  674MOL0     H90986   2.379   6.697   2.641  1.5552  1.6289  0.8356
  674MOL0     H90987   2.460   6.782   2.515 -2.1634  1.7619  2.2438
  674MOL0     H90988   2.794   6.600   2.702 -0.4713 -0.9818 -1.3637
  674MOL0     H90989   2.085   6.440   2.174 -2.6678 -2.5785 -0.0342
  674MOL0     H90990   1.981   6.290   1.998  0.1721 -0.2215  0.8446
  675MOL0     O90991   0.801   2.042   5.108  1.4064 -0.7700 -0.2991
  675MOL0     C90992   0.728   2.076   5.204 -0.3522 -1.1136 -0.7531
  675MOL0     O90993   0.603   2.132   5.198  0.4902  0.2413 -0.4461
  675MOL0     C90994   0.549   2.137   5.073  0.1122  0.0781 -0.2193
  675MOL0     C90995   0.605   2.216   4.976 -0.2079  0.9867  0.6028
  675MOL0     C90996   0.539   2.235   4.854 -0.6134  0.6749 -0.1373
  675MOL0     C90997   0.410   2.186   4.837  0.1893  1.0765  0.2798
  675MOL0     O90998   0.319   2.225   4.734  0.1568 -1.0843  0.1607
  675MOL0     C90999   0.216   2.306   4.790  1.1065 -0.1469  0.2702
  675MOL0     C91000   0.103   2.305   4.687  0.2639  1.0899  0.6119
  675MOL0     C91001   0.012   2.180   4.703  0.2610 -0.0770 -0.7266
  675MOL0     C91002  -0.105   2.178   4.602 -0.6242 -0.2184  0.0790
  675MOL0     C91003  -0.213   2.079   4.636  0.2532  0.1242 -0.3616
  675MOL0     C91004  -0.338   2.105   4.551 -0.6739  0.2321  0.1123
  675MOL0     C91005  -0.412   2.232   4.589  0.8477  0.0395 -0.3187
  675MOL0     C91006  -0.549   2.217   4.535 -0.1845 -0.6411 -0.1087
  675MOL0     N91007  -0.627   2.340   4.561 -0.0905  0.2905 -0.5787
  675MOL0     C91008  -0.681   2.378   4.682 -0.2593  0.4462 -1.1306
  675MOL0     C91009  -0.748   2.486   4.648  0.1770  0.3487  0.2790
  675MOL0     C91010  -0.829   2.582   4.727  0.3604  0.4403 -1.2284
  675MOL0     C91011  -0.977   2.572   4.678  0.2940  0.3567  0.7328
  675MOL0     C91012  -1.011   2.622   4.536  1.1287  1.5850  0.4235
  675MOL0     C91013  -0.957   2.761   4.506  0.5218 -0.6921  0.3883
  675MOL0     O91014  -1.031   2.880   4.554  0.7231 -0.2145  0.1465
  675MOL0     C91015  -1.162   2.895   4.512  0.2048 -0.0942  0.8308
  675MOL0     C91016  -1.261   2.883   4.607  0.0279 -0.4719 -0.2009
  675MOL0     C91017  -1.389   2.909   4.581 -1.5646  0.2941 -0.0120
  675MOL0     C91018  -1.480   2.897   4.703 -0.4116 -0.1103 -0.0881
  675MOL0     C91019  -1.432   2.943   4.450  0.9727 -0.1565 -0.5853
  675MOL0     C91020  -1.579   2.979   4.420 -1.4854 -1.0207  0.4582
  675MOL0     O91021  -1.675   2.949   4.514 -0.2854 -0.2907 -0.0356
  675MOL0     C91022  -1.810   2.979   4.493  0.5180 -1.0656 -0.0672
  675MOL0     C91023  -1.908   2.889   4.516 -0.2880  0.0781  0.3618
  675MOL0     C91024  -2.044   2.918   4.483 -0.0548  0.6967  0.7723
  675MOL0     C91025  -2.083   3.052   4.450  0.3269  0.1859  0.0373
  675MOL0     O91026  -2.209   3.079   4.426  0.0109 -0.4249  0.5191
  675MOL0     C91027  -2.250   3.202   4.358  0.6100  0.2261 -0.4074
  675MOL0     C91028  -2.395   3.224   4.400 -0.2530  0.0323 -0.4798
  675MOL0     C91029  -2.499   3.153   4.314  0.5549  0.3374  1.2185
  675MOL0     C91030  -2.576   3.034   4.372 -0.5205  0.1037 -0.1787
  675MOL0     C91031  -2.705   3.005   4.302  0.1920 -0.3415 -0.2317
  675MOL0     C91032  -2.826   3.105   4.314 -0.2125 -0.2361 -0.5199
  675MOL0     C91033  -2.965   3.045   4.268  0.2139 -0.0370 -0.0799
  675MOL0     C91034  -3.070   3.163   4.279 -0.4575  0.1190  0.1573
  675MOL0    Cl91035  -3.219   3.116   4.201  0.1881  0.0666  0.1246
  675MOL0     C91036  -1.980   3.146   4.442  0.5205  0.2294  0.3567
  675MOL0     C91037  -1.845   3.113   4.465 -0.3259  0.5752  0.0932
  675MOL0     O91038  -1.598   3.044   4.318  0.3259 -0.3657 -0.1442
  675MOL0     C91039  -1.335   2.940   4.345 -0.0464  0.4303 -0.0494
  675MOL0     C91040  -1.203   2.915   4.375  0.6595 -0.4773 -0.4679
  675MOL0     N91041  -0.729   2.510   4.512 -0.2110  0.6560 -0.4887
  675MOL0     N91042  -0.663   2.413   4.463  0.3852  0.5760 -0.0928
  675MOL0     C91043   0.360   2.099   4.924 -0.5522 -0.2437 -0.0612
  675MOL0     C91044   0.426   2.077   5.049  0.0541 -0.1843  0.3166
  675MOL0     C91045   0.786   2.034   5.337  0.2138  0.1404 -0.3334
  675MOL0     C91046   0.910   1.959   5.333 -0.3589  0.5632 -0.1653
  675MOL0     C91047   0.971   1.926   5.460 -0.0169  0.3249 -0.1863
  675MOL0     C91048   0.911   1.962   5.589  0.7170  0.1193  1.5294
  675MOL0     O91049   0.971   1.909   5.698 -0.5554 -0.0578 -0.2041
  675MOL0     C91050   0.913   1.934   5.829  0.4226 -0.8800  0.5310
  675MOL0     C91051   0.969   1.829   5.924 -0.1838 -0.1762  0.1280
  675MOL0     C91052   1.122   1.825   5.915 -0.0241  0.7543  0.3859
  675MOL0     C91053   1.193   1.782   6.037  0.2887  0.9343  0.7232
  675MOL0     C91054   1.318   1.720   5.982  0.0857  0.2219 -0.1867
  675MOL0     C91055   1.421   1.679   5.942 -0.5852  0.1347 -0.1412
  675MOL0     C91056   0.782   2.028   5.582 -0.8409 -0.4599 -0.7954
  675MOL0     C91057   0.721   2.055   5.465  0.2171  0.2311  0.1670
  675MOL0     H91058   0.699   2.267   4.997 -0.1037  0.0953  2.5746
  675MOL0     H91059   0.576   2.295   4.771  2.3140 -0.2778  0.3551
  675MOL0     H91060   0.180   2.272   4.888  0.9529  2.7966  1.3331
  675MOL0     H91061   0.261   2.405   4.797  1.2305 -0.0986 -0.9759
  675MOL0     H91062   0.051   2.400   4.701 -2.0802  0.1522 -1.0648
  675MOL0     H91063   0.159   2.302   4.593  1.9800  1.8867  1.5541
  675MOL0     H91064   0.076   2.092   4.698  3.0163  1.4911  2.7867
  675MOL0     H91065  -0.033   2.199   4.801  2.8094  1.6759  0.1987
  675MOL0     H91066  -0.138   2.282   4.605  0.9394  0.3054  0.1031
  675MOL0     H91067  -0.076   2.160   4.498 -0.3857  0.7600 -0.0328
  675MOL0     H91068  -0.180   1.975   4.626 -2.5777 -0.9895  0.6427
  675MOL0     H91069  -0.238   2.083   4.742  1.7420 -0.8051  0.0445
  675MOL0     H91070  -0.316   2.117   4.445 -1.3516  1.3148  0.0709
  675MOL0     H91071  -0.405   2.020   4.566 -2.7174  1.9928  1.6077
  675MOL0     H91072  -0.415   2.236   4.698  3.7222 -0.8511 -0.1168
  675MOL0     H91073  -0.363   2.321   4.548  0.2246  0.3593 -0.3734
  675MOL0     H91074  -0.603   2.138   4.587  0.8016 -2.4249 -1.6880
  675MOL0     H91075  -0.547   2.184   4.431 -1.4229 -0.9127 -0.0679
  675MOL0     H91076  -0.663   2.336   4.781 -1.1708  0.0794 -1.1145
  675MOL0     H91077  -0.824   2.556   4.834 -1.3941  2.5499 -0.5652
  675MOL0     H91078  -0.782   2.679   4.711  0.7112  0.2175 -1.5617
  675MOL0     H91079  -1.060   2.611   4.738 -1.1292 -4.1812  2.1625
  675MOL0     H91080  -0.999   2.465   4.677  0.8671  0.2144 -1.3386
  675MOL0     H91081  -1.120   2.613   4.528  1.1936 -0.6092  1.3171
  675MOL0     H91082  -0.966   2.549   4.467  0.8135  0.7047  1.1291
  675MOL0     H91083  -0.976   2.766   4.398 -2.5169  0.6785  0.8806
  675MOL0     H91084  -0.852   2.773   4.534  0.7108  0.8219 -0.8244
  675MOL0     H91085  -1.226   2.861   4.707 -1.5362  2.7596  1.2011
  675MOL0     H91086  -1.421   2.885   4.794  0.7508  0.4250 -0.7462
  675MOL0     H91087  -1.531   2.993   4.710  2.3310  1.3431  1.5829
  675MOL0     H91088  -1.548   2.813   4.685  0.5059 -0.9861  0.3959
  675MOL0     H91089  -1.892   2.782   4.529  0.3050 -0.2412 -2.3671
  675MOL0     H91090  -2.118   2.840   4.496  1.7691 -1.1117  0.9892
  675MOL0     H91091  -2.191   3.285   4.397  1.0648 -1.1437  2.0556
  675MOL0     H91092  -2.253   3.195   4.249 -0.1303  1.6679 -0.5080
  675MOL0     H91093  -2.403   3.202   4.507  0.1529  0.2476 -0.4027
  675MOL0     H91094  -2.414   3.331   4.402  3.0565  0.7342 -0.2570
  675MOL0     H91095  -2.452   3.115   4.223  1.7944  1.6061  1.2841
  675MOL0     H91096  -2.567   3.231   4.279 -0.9373 -0.4269  2.2934
  675MOL0     H91097  -2.505   2.952   4.357 -2.0097 -1.1351 -0.7716
  675MOL0     H91098  -2.588   3.066   4.476 -0.7127 -0.8851  0.1192
  675MOL0     H91099  -2.740   2.910   4.344  2.3374  0.0158  2.6119
  675MOL0     H91100  -2.679   2.984   4.197  3.0269  1.6988 -0.0526
  675MOL0     H91101  -2.829   3.132   4.420  1.3656 -1.5096 -0.1168
  675MOL0     H91102  -2.808   3.197   4.257 -0.1683 -0.1889 -0.4292
  675MOL0     H91103  -3.000   2.963   4.332 -0.8327  1.3484  1.1871
  675MOL0     H91104  -2.952   3.015   4.163  1.2005 -3.2458  0.8481
  675MOL0     H91105  -3.022   3.252   4.237  0.0691 -0.0258  0.4402
  675MOL0     H91106  -3.088   3.181   4.385  0.5087 -0.8458  0.5071
  675MOL0     H91107  -1.998   3.251   4.423  0.6797 -0.1451 -2.2625
  675MOL0     H91108  -1.776   3.196   4.460 -0.5130  0.6635 -1.4135
  675MOL0     H91109  -1.358   2.962   4.241  0.2107  0.1500 -0.1703
  675MOL0     H91110  -1.117   2.932   4.312  1.9153 -0.4432  1.1764
  675MOL0     H91111   0.260   2.056   4.929  0.9301 -3.9282  2.7926
  675MOL0     H91112   0.375   2.009   5.115 -0.7460 -0.1068 -0.2111
  675MOL0     H91113   0.967   1.936   5.243  1.2391  0.5757  0.8100
  675MOL0     H91114   1.068   1.877   5.457  0.2683  0.8050  0.6591
  675MOL0     H91115   0.942   2.030   5.872 -1.0231 -0.4220  0.5520
  675MOL0     H91116   0.804   1.927   5.832  0.4901 -1.7870  2.1580
  675MOL0     H91117   0.931   1.727   5.915 -4.0258  1.2457 -1.9216
  675MOL0     H91118   0.938   1.861   6.024 -0.6052 -1.8257  0.5540
  675MOL0     H91119   1.157   1.925   5.890  1.8807 -0.7551 -3.9939
  675MOL0     H91120   1.141   1.764   5.826 -0.6923  0.8072  0.1999
  675MOL0     H91121   1.144   1.703   6.095 -0.9668  2.6067  2.0346
  675MOL0     H91122   1.211   1.863   6.108 -0.4253  0.4563  1.4670
  675MOL0     H91123   1.511   1.638   5.899 -0.0396 -0.2244  1.3030
  675MOL0     H91124   0.733   2.067   5.671  2.1996  4.6350 -0.9400
  675MOL0     H91125   0.624   2.104   5.459 -0.8586 -1.9265 -3.2204
  676MOL0     O91126   5.787   3.391   0.471 -0.2201  0.0984 -0.0611
  676MOL0     C91127   5.816   3.280   0.520  0.0151  0.8144  0.3785
  676MOL0     O91128   5.726   3.197   0.583 -0.1960 -0.0226 -0.2707
  676MOL0     C91129   5.610   3.259   0.616 -1.0049 -0.4478  0.9527
  676MOL0     C91130   5.491   3.243   0.546 -0.4752  0.0436 -0.1059
  676MOL0     C91131   5.373   3.292   0.600  1.2360 -0.0409  0.1561
  676MOL0     C91132   5.369   3.372   0.717  0.3451 -0.8383 -1.1563
  676MOL0     O91133   5.248   3.421   0.756 -0.0221  0.1351  0.1980
  676MOL0     C91134   5.224   3.450   0.889 -0.1188 -1.0719  0.6918
  676MOL0     C91135   5.080   3.436   0.921 -0.0157  0.6731  0.4568
  676MOL0     C91136   5.059   3.296   0.992 -0.8361 -0.3141 -1.3387
  676MOL0     C91137   4.911   3.261   1.003 -0.4247  0.2307 -0.8681
  676MOL0     C91138   4.841   3.235   0.862  0.2333 -0.1075  0.0267
  676MOL0     C91139   4.714   3.173   0.907  0.1273 -0.4333  0.0047
  676MOL0     C91140   4.636   3.143   0.784 -0.0751 -0.4771 -0.3925
  676MOL0     C91141   4.522   3.059   0.827  0.6079  0.0437  0.0918
  676MOL0     N91142   4.455   3.004   0.711  0.4801  0.7001  0.2104
  676MOL0     C91143   4.335   3.050   0.664  0.3047  0.1051 -0.7580
  676MOL0     C91144   4.285   2.947   0.590 -0.0094  0.1741  0.4880
  676MOL0     C91145   4.147   2.943   0.530 -0.4008 -0.3474  0.7300
  676MOL0     C91146   4.027   2.893   0.616  0.1581 -0.1835 -0.6043
  676MOL0     C91147   3.986   2.986   0.724 -0.5053 -0.6619 -0.2568
  676MOL0     C91148   3.865   2.927   0.791  0.7027 -0.4783  0.0273
  676MOL0     O91149   3.820   3.012   0.910  0.2794  0.0471  0.1136
  676MOL0     C91150   3.755   2.947   1.010 -0.6986 -0.1104  0.1910
  676MOL0     C91151   3.689   2.821   0.998 -0.0280 -0.9170 -0.2270
  676MOL0     C91152   3.631   2.745   1.099  0.7929 -0.3585  0.6263
  676MOL0     C91153   3.581   2.609   1.069 -0.2403 -0.2707  0.3820
  676MOL0     C91154   3.617   2.811   1.221  0.2648 -0.2119  0.8504
  676MOL0     C91155   3.527   2.762   1.313  0.6033  0.0118 -0.2927
  676MOL0     O91156   3.463   2.865   1.373  0.9987  0.2142  0.4810
  676MOL0     C91157   3.362   2.846   1.466 -0.7385  0.8075  0.3560
  676MOL0     C91158   3.261   2.756   1.448  0.2671  0.0101 -0.3256
  676MOL0     C91159   3.165   2.739   1.551  0.2399  0.0594  0.6148
  676MOL0     C91160   3.180   2.802   1.678  0.0045 -0.3438  0.0966
  676MOL0     O91161   3.087   2.807   1.770 -0.2088  0.8256 -0.6208
  676MOL0     C91162   2.986   2.710   1.772  0.7327 -0.0004  1.1286
  676MOL0     C91163   2.917   2.700   1.906 -0.4224 -0.3933 -0.1018
  676MOL0     C91164   2.793   2.609   1.914  0.2514 -0.4570  0.0992
  676MOL0     C91165   2.744   2.626   2.062 -0.4513  0.1180 -0.1764
  676MOL0     C91166   2.613   2.545   2.068 -0.0685 -0.0151  0.6405
  676MOL0     C91167   2.552   2.574   2.199  0.3945 -0.4771 -0.8193
  676MOL0     C91168   2.420   2.484   2.214 -0.0422 -0.0771  0.0782
  676MOL0     C91169   2.308   2.538   2.137 -1.1190  0.6932  0.2502
  676MOL0    Cl91170   2.164   2.438   2.189  0.1578  0.1633 -0.3831
  676MOL0     C91171   3.296   2.881   1.690 -0.1788  0.6175 -0.5466
  676MOL0     C91172   3.387   2.902   1.590  0.2476 -0.0725  0.2410
  676MOL0     O91173   3.516   2.649   1.350  0.0905  0.1817 -0.2431
  676MOL0     C91174   3.687   2.933   1.242 -0.1764  0.0079  0.5968
  676MOL0     C91175   3.764   2.990   1.143 -0.5814  0.2486 -0.0573
  676MOL0     N91176   4.375   2.839   0.590 -0.4855 -0.1311  0.2057
  676MOL0     N91177   4.482   2.884   0.656  0.9702  0.0949  0.6777
  676MOL0     C91178   5.487   3.405   0.774 -0.1070  0.4123 -0.2237
  676MOL0     C91179   5.607   3.341   0.734  0.6257 -0.6751 -0.2316
  676MOL0     C91180   5.960   3.241   0.507  0.0670  0.2302 -0.2698
  676MOL0     C91181   6.057   3.336   0.474 -0.7733 -0.0985  0.8317
  676MOL0     C91182   6.195   3.298   0.469  1.0086  0.3203  0.1256
  676MOL0     C91183   6.235   3.167   0.494  0.7128 -0.1281 -0.4008
  676MOL0     O91184   6.370   3.120   0.482  0.1137 -1.0339  0.5246
  676MOL0     C91185   6.474   3.222   0.478 -0.1674 -0.5694 -0.0386
  676MOL0     C91186   6.608   3.146   0.455  0.1185  0.2696 -0.0487
  676MOL0     C91187   6.623   3.047   0.331 -0.1731  0.1103 -0.5377
  676MOL0     C91188   6.768   3.004   0.304  0.8826  0.5844  0.1977
  676MOL0     C91189   6.760   2.919   0.185  0.4114  0.2044  0.6502
  676MOL0     C91190   6.774   2.855   0.082  0.6311 -0.0290 -0.7600
  676MOL0     C91191   6.140   3.069   0.533  0.3315  0.3283  0.2462
  676MOL0     C91192   6.005   3.107   0.542 -0.2448 -0.3596  1.2237
  676MOL0     H91193   5.494   3.168   0.467 -1.4746 -0.5736  0.4278
  676MOL0     H91194   5.279   3.270   0.549  0.4084  0.8344  1.2338
  676MOL0     H91195   5.271   3.374   0.951  1.3293 -1.3422 -0.6707
  676MOL0     H91196   5.266   3.549   0.913 -0.4096 -0.8658  0.3567
  676MOL0     H91197   5.051   3.523   0.981  1.8480  2.2581 -0.7770
  676MOL0     H91198   5.015   3.435   0.833 -2.7968 -2.2407  2.3757
  676MOL0     H91199   5.103   3.217   0.930 -3.9237 -0.1238 -4.0747
  676MOL0     H91200   5.111   3.309   1.087  2.1135 -0.3034 -2.8486
  676MOL0     H91201   4.901   3.169   1.061 -5.3491  2.3033  2.2404
  676MOL0     H91202   4.857   3.342   1.055 -0.7584 -0.6254  0.1529
  676MOL0     H91203   4.837   3.328   0.805  3.3712  0.1158  0.0465
  676MOL0     H91204   4.900   3.169   0.799 -1.0383 -0.8374 -0.4309
  676MOL0     H91205   4.727   3.086   0.973 -2.4087  0.5016  1.9194
  676MOL0     H91206   4.662   3.244   0.971 -0.7316 -0.9601 -0.0906
  676MOL0     H91207   4.590   3.230   0.738 -1.3701 -1.9899 -2.1268
  676MOL0     H91208   4.699   3.088   0.714 -0.7481  0.4651 -1.7666
  676MOL0     H91209   4.461   3.117   0.898  0.2084  1.0177 -1.0086
  676MOL0     H91210   4.561   2.975   0.885 -1.0063  0.3618  1.7445
  676MOL0     H91211   4.288   3.142   0.695 -0.3106 -0.2988 -0.4675
  676MOL0     H91212   4.125   3.048   0.511  1.9444 -0.0765 -1.0686
  676MOL0     H91213   4.158   2.889   0.435  0.3900  0.9131  0.0734
  676MOL0     H91214   4.044   2.793   0.656 -2.0435 -0.3046  0.1556
  676MOL0     H91215   3.943   2.902   0.546 -0.2319 -1.1433 -0.2707
  676MOL0     H91216   3.984   3.091   0.694 -2.5616 -1.0689 -1.7067
  676MOL0     H91217   4.070   2.981   0.794  0.0220 -2.1382 -0.9453
  676MOL0     H91218   3.897   2.828   0.824  0.7266 -0.7430 -0.7732
  676MOL0     H91219   3.782   2.909   0.722 -1.1299  1.6558  1.5128
  676MOL0     H91220   3.680   2.778   0.898 -1.0468 -0.4387 -0.3515
  676MOL0     H91221   3.636   2.538   1.131  0.8116  0.7084  0.6150
  676MOL0     H91222   3.472   2.601   1.076 -0.2488  0.6888  1.7830
  676MOL0     H91223   3.620   2.574   0.974  0.9525 -0.5737  0.9629
  676MOL0     H91224   3.232   2.699   1.361  0.0049  1.7272 -1.4088
  676MOL0     H91225   3.080   2.676   1.526  1.1550 -1.3416  0.9664
  676MOL0     H91226   2.911   2.723   1.694 -0.5394 -0.2380  2.2690
  676MOL0     H91227   3.037   2.618   1.744 -0.3312  0.4065 -2.6431
  676MOL0     H91228   2.989   2.650   1.971  0.2024  0.5217 -0.0760
  676MOL0     H91229   2.880   2.796   1.944 -1.1886 -0.6817 -0.0853
  676MOL0     H91230   2.816   2.503   1.901  0.0281 -0.6170  0.9528
  676MOL0     H91231   2.718   2.649   1.844 -0.7933 -0.7175  1.0464
  676MOL0     H91232   2.812   2.605   2.145 -1.0230  2.7570  1.0739
  676MOL0     H91233   2.716   2.731   2.072  0.1999  0.1065  2.6111
  676MOL0     H91234   2.624   2.438   2.050 -2.7085 -0.5635  1.9642
  676MOL0     H91235   2.543   2.581   1.992  0.0954  1.1906  1.0378
  676MOL0     H91236   2.624   2.563   2.281 -2.0000  2.3108  1.9180
  676MOL0     H91237   2.518   2.678   2.201  1.4595 -0.0254 -3.0434
  676MOL0     H91238   2.395   2.491   2.320  0.7296 -0.6084  0.2955
  676MOL0     H91239   2.435   2.379   2.186  0.9257  0.4974 -1.7394
  676MOL0     H91240   2.321   2.519   2.030 -1.2783 -1.0270  0.4956
  676MOL0     H91241   2.281   2.642   2.158 -1.0107  0.3406  2.3143
  676MOL0     H91242   3.325   2.933   1.781  2.2847 -1.3723 -0.0716
  676MOL0     H91243   3.477   2.964   1.597  2.0111 -1.8149 -3.8184
  676MOL0     H91244   3.665   2.993   1.330  0.7926  2.1256 -0.5226
  676MOL0     H91245   3.826   3.078   1.157  1.9739 -0.9147 -2.9689
  676MOL0     H91246   5.487   3.465   0.864  0.2307 -2.4029  1.8042
  676MOL0     H91247   5.700   3.349   0.789  0.9145  0.1740 -0.8264
  676MOL0     H91248   6.037   3.439   0.450  1.3870 -0.2976 -2.4958
  676MOL0     H91249   6.262   3.376   0.431  1.3441 -1.0750 -2.4201
  676MOL0     H91250   6.453   3.291   0.395  2.8458  1.4438  0.7139
  676MOL0     H91251   6.473   3.272   0.575  2.0823 -1.2851  0.4000
  676MOL0     H91252   6.624   3.093   0.549 -3.1372 -0.2806  0.3032
  676MOL0     H91253   6.691   3.216   0.449  0.7707 -0.5454 -0.7922
  676MOL0     H91254   6.574   3.100   0.248 -1.8460  2.2857  1.6912
  676MOL0     H91255   6.561   2.958   0.345  1.4214 -0.8071  1.2795
  676MOL0     H91256   6.810   2.950   0.389 -0.1915 -1.6288 -0.5878
  676MOL0     H91257   6.829   3.091   0.279 -0.7597  1.7182 -0.0034
  676MOL0     H91258   6.769   2.813  -0.017 -0.5820 -0.5448 -0.5039
  676MOL0     H91259   6.174   2.969   0.556  2.7877  1.0029 -0.1166
  676MOL0     H91260   5.938   3.027   0.572 -2.1743  0.0244 -1.6829
  677MOL0     O91261   1.602  11.096   0.264  0.1174 -0.4023  1.1317
  677MOL0     C91262   1.579  11.212   0.211 -0.4781 -0.0480  0.3267
  677MOL0     O91263   1.448  11.270   0.192  0.4173 -0.1276 -0.2211
  677MOL0     C91264   1.346  11.199   0.256 -0.6208 -1.3962 -0.2240
  677MOL0     C91265   1.356  11.146   0.389  0.6859 -0.7742  0.0743
  677MOL0     C91266   1.249  11.067   0.434 -0.3002 -0.8541 -0.2119
  677MOL0     C91267   1.130  11.053   0.356 -1.1758 -0.0509  0.2542
  677MOL0     O91268   1.041  10.961   0.394  0.0191  0.5692  0.6574
  677MOL0     C91269   0.926  10.936   0.309 -0.4342 -0.2691  0.1926
  677MOL0     C91270   0.849  10.822   0.365  0.0482  0.4901 -0.7021
  677MOL0     C91271   0.754  10.757   0.263  0.0140  0.3987  0.3428
  677MOL0     C91272   0.744  10.600   0.268  0.1034 -0.5471 -0.4555
  677MOL0     C91273   0.661  10.527   0.166  0.0743 -0.1339 -0.5567
  677MOL0     C91274   0.513  10.583   0.155 -0.2705  0.0985  0.8596
  677MOL0     C91275   0.433  10.592   0.289 -0.2277 -0.3349 -0.5208
  677MOL0     C91276   0.297  10.647   0.264  0.6921 -0.1477 -0.1179
  677MOL0     N91277   0.203  10.661   0.380 -0.4578 -0.2446  0.4511
  677MOL0     C91278   0.242  10.654   0.509  0.0110  0.8570 -0.0470
  677MOL0     C91279   0.133  10.677   0.582  0.1501 -0.6183 -0.0431
  677MOL0     C91280   0.125  10.680   0.731 -0.4665  0.3558  0.2506
  677MOL0     C91281   0.167  10.811   0.788  0.5163 -0.2273 -0.7696
  677MOL0     C91282   0.113  10.940   0.723  0.6428 -0.7423 -1.1606
  677MOL0     C91283  -0.033  10.946   0.751  0.5572  0.2267 -0.1457
  677MOL0     O91284  -0.085  11.074   0.718  0.3264  0.6853  0.6623
  677MOL0     C91285  -0.224  11.091   0.731 -0.0751 -0.3523  0.2777
  677MOL0     C91286  -0.316  10.994   0.769  0.1350 -0.4369  1.2166
  677MOL0     C91287  -0.454  11.036   0.785  0.6672  1.5612  0.2123
  677MOL0     C91288  -0.543  10.925   0.806  0.3034  0.3953 -0.8755
  677MOL0     C91289  -0.492  11.178   0.774  0.1766 -0.1474  0.0489
  677MOL0     C91290  -0.623  11.242   0.784 -0.2481 -0.7469 -0.2106
  677MOL0     O91291  -0.631  11.375   0.768  0.1863  0.0417  0.6855
  677MOL0     C91292  -0.735  11.453   0.805  0.1813  0.0105 -0.2565
  677MOL0     C91293  -0.792  11.442   0.936  0.8689  0.6276  0.5234
  677MOL0     C91294  -0.882  11.536   0.986 -0.0771  0.7260 -0.3930
  677MOL0     C91295  -0.936  11.625   0.899  0.3188  0.2433  0.2043
  677MOL0     O91296  -1.043  11.701   0.927  0.1521 -0.0142 -0.4133
  677MOL0     C91297  -1.151  11.643   1.010 -0.0971  0.5118  0.6648
  677MOL0     C91298  -1.278  11.724   1.018  0.3890 -0.0686  0.2529
  677MOL0     C91299  -1.380  11.666   1.111 -0.7417 -0.0007 -0.2830
  677MOL0     C91300  -1.510  11.748   1.100 -0.2967  0.0335  0.1810
  677MOL0     C91301  -1.589  11.736   1.235  0.0591 -0.3764 -0.7673
  677MOL0     C91302  -1.736  11.795   1.218 -1.1807  0.2178  0.8770
  677MOL0     C91303  -1.817  11.785   1.348  0.2817 -0.0309 -0.9544
  677MOL0     C91304  -1.953  11.850   1.346 -0.6432 -0.8181  0.4221
  677MOL0    Cl91305  -2.055  11.791   1.215  0.1229  0.3669  0.0698
  677MOL0     C91306  -0.879  11.641   0.773 -0.6932  0.2506 -0.3021
  677MOL0     C91307  -0.774  11.563   0.725  1.2221  1.1460 -0.1806
  677MOL0     O91308  -0.719  11.167   0.798  0.0367 -0.3646 -0.8424
  677MOL0     C91309  -0.389  11.270   0.746  0.5126 -0.4088 -0.5079
  677MOL0     C91310  -0.261  11.225   0.722 -0.0566  0.3244 -0.0993
  677MOL0     N91311   0.031  10.697   0.496  0.1120  0.1861 -0.3983
  677MOL0     N91312   0.067  10.679   0.376 -0.2776  0.5636  0.3865
  677MOL0     C91313   1.109  11.134   0.244  0.7784  0.6248 -0.3645
  677MOL0     C91314   1.226  11.195   0.193 -0.9152 -0.4046  0.1700
  677MOL0     C91315   1.692  11.294   0.164 -0.5562 -0.0230  0.3128
  677MOL0     C91316   1.671  11.418   0.094  0.4098 -0.0527  0.1272
  677MOL0     C91317   1.771  11.492   0.033 -0.1498  0.2453  0.7695
  677MOL0     C91318   1.897  11.440   0.049 -0.5145 -0.3009 -0.8412
  677MOL0     O91319   1.999  11.519  -0.003 -0.0798  0.2433 -0.5534
  677MOL0     C91320   2.107  11.454  -0.076 -0.3520 -0.9810  0.6790
  677MOL0     C91321   2.103  11.530  -0.204 -0.2228  0.4578 -0.0638
  677MOL0     C91322   2.232  11.538  -0.284  0.0409 -0.5537 -0.5182
  677MOL0     C91323   2.310  11.410  -0.312 -0.2279  0.6840  1.1101
  677MOL0     C91324   2.459  11.438  -0.333  0.0700  0.3718  0.4607
  677MOL0     C91325   2.577  11.461  -0.368  0.6297  0.5936 -1.1138
  677MOL0     C91326   1.932  11.330   0.127  0.2043  0.1063  0.8710
  677MOL0     C91327   1.828  11.255   0.187  0.8106 -0.0094  0.3576
  677MOL0     H91328   1.452  11.145   0.439  1.9811 -3.3530 -2.2013
  677MOL0     H91329   1.259  11.024   0.533 -1.0117  2.6012  1.5059
  677MOL0     H91330   0.864  11.026   0.302 -2.2583 -1.5847 -1.5374
  677MOL0     H91331   0.963  10.914   0.208  0.6802  0.3397  0.4407
  677MOL0     H91332   0.919  10.742   0.393  0.1423  0.8233  0.0488
  677MOL0     H91333   0.799  10.850   0.458 -0.3321 -1.0087 -0.4178
  677MOL0     H91334   0.654  10.800   0.272 -0.9332 -0.7098 -3.0986
  677MOL0     H91335   0.792  10.781   0.163  1.6362 -1.0069  0.5873
  677MOL0     H91336   0.844  10.558   0.260  0.0581 -0.8718  0.5029
  677MOL0     H91337   0.718  10.571   0.370  0.9247  3.8394  1.2581
  677MOL0     H91338   0.721  10.528   0.075 -0.9413  1.3065 -1.2610
  677MOL0     H91339   0.637  10.422   0.184 -2.9869  0.9362  3.1342
  677MOL0     H91340   0.531  10.683   0.113  0.8364 -0.2475  0.4889
  677MOL0     H91341   0.448  10.524   0.089  2.7251 -0.5579 -1.7006
  677MOL0     H91342   0.417  10.494   0.335 -2.4720 -1.7240 -3.8281
  677MOL0     H91343   0.478  10.663   0.358 -0.5927  0.9318 -1.5324
  677MOL0     H91344   0.248  10.589   0.186 -0.1804 -0.0447  0.3427
  677MOL0     H91345   0.294  10.751   0.229 -3.6922 -0.9416 -2.9815
  677MOL0     H91346   0.342  10.623   0.537 -0.1941 -2.4392 -2.4100
  677MOL0     H91347   0.021  10.673   0.765  0.1613  1.6046  2.6603
  677MOL0     H91348   0.185  10.594   0.760  0.5427  0.3818 -1.5827
  677MOL0     H91349   0.276  10.812   0.794  0.6357  1.6540 -2.2485
  677MOL0     H91350   0.129  10.821   0.890 -1.8180 -0.1980 -1.5882
  677MOL0     H91351   0.136  10.927   0.617  0.4800 -3.1018 -0.9631
  677MOL0     H91352   0.165  11.032   0.749  0.8308 -1.1673  0.0268
  677MOL0     H91353  -0.054  10.927   0.856  1.6590  2.2235  0.4752
  677MOL0     H91354  -0.085  10.869   0.693  0.0530  0.7261 -0.3705
  677MOL0     H91355  -0.280  10.896   0.798 -0.6983 -1.2321 -0.3514
  677MOL0     H91356  -0.600  10.945   0.897 -1.4461 -1.3729 -1.5073
  677MOL0     H91357  -0.605  10.905   0.719 -0.8190 -2.7484  0.4631
  677MOL0     H91358  -0.503  10.824   0.823 -2.1226 -0.8001 -1.8339
  677MOL0     H91359  -0.756  11.364   1.003 -1.8579 -0.7144  0.5820
  677MOL0     H91360  -0.907  11.527   1.091  0.7831  3.6997  0.1444
  677MOL0     H91361  -1.171  11.543   0.971  2.3966 -0.4579  1.6801
  677MOL0     H91362  -1.115  11.624   1.112 -0.5750 -1.2513  0.5424
  677MOL0     H91363  -1.238  11.821   1.049  0.9152  0.1767 -1.1319
  677MOL0     H91364  -1.323  11.735   0.919  2.7734  3.5633 -0.6204
  677MOL0     H91365  -1.344  11.680   1.213 -0.1646 -1.0053 -0.3458
  677MOL0     H91366  -1.415  11.564   1.092  0.0093 -0.5838  1.2449
  677MOL0     H91367  -1.502  11.855   1.080 -3.3119  0.6677  1.6937
  677MOL0     H91368  -1.576  11.716   1.019  1.5765 -0.2630 -1.2912
  677MOL0     H91369  -1.542  11.798   1.312  0.3776 -1.1263 -0.3403
  677MOL0     H91370  -1.603  11.636   1.278  1.0449 -0.2996 -0.2545
  677MOL0     H91371  -1.729  11.903   1.201 -1.0337  0.8764  4.3244
  677MOL0     H91372  -1.785  11.737   1.140  1.4037  1.1211 -1.5625
  677MOL0     H91373  -1.763  11.831   1.431 -2.6194  2.5083 -0.2967
  677MOL0     H91374  -1.841  11.682   1.376 -0.1000  0.7515  1.8826
  677MOL0     H91375  -1.947  11.959   1.357  3.6671 -0.9282  0.7375
  677MOL0     H91376  -2.002  11.819   1.438  0.4354 -1.8019  0.6808
  677MOL0     H91377  -0.916  11.729   0.722 -0.4536  0.6703  0.2395
  677MOL0     H91378  -0.720  11.580   0.633  0.6398  0.5312 -0.6449
  677MOL0     H91379  -0.407  11.376   0.751 -1.4850 -0.7409  3.2637
  677MOL0     H91380  -0.184  11.302   0.714  0.8362 -0.5992 -0.5315
  677MOL0     H91381   1.015  11.144   0.191 -1.0277  0.2834  2.5203
  677MOL0     H91382   1.223  11.247   0.098 -0.8720  0.2150  0.5050
  677MOL0     H91383   1.570  11.443   0.064  0.2535 -0.6739  0.1115
  677MOL0     H91384   1.739  11.586  -0.009  1.6652  2.1781  3.4020
  677MOL0     H91385   2.204  11.471  -0.029 -3.0958  1.4702  6.3209
  677MOL0     H91386   2.082  11.348  -0.090  1.1736 -1.0369 -2.6152
  677MOL0     H91387   2.075  11.633  -0.179 -0.5306 -0.6460  5.0626
  677MOL0     H91388   2.025  11.488  -0.267 -0.4324  0.9432 -0.1368
  677MOL0     H91389   2.292  11.616  -0.238 -3.5101  1.6420  0.7955
  677MOL0     H91390   2.200  11.570  -0.384  0.4728 -1.4076 -0.9497
  677MOL0     H91391   2.268  11.364  -0.401 -0.7769 -1.8705  2.5924
  677MOL0     H91392   2.308  11.336  -0.231 -0.9797  1.1255  1.5023
  677MOL0     H91393   2.682  11.479  -0.380  1.4107  0.0137  3.1811
  677MOL0     H91394   2.037  11.311   0.144  0.2930 -0.3517 -0.1050
  677MOL0     H91395   1.848  11.171   0.253 -2.3744  0.5538  2.2620
  678MOL0     O91396   0.268   3.930   9.494 -0.0224 -0.1551  0.1906
  678MOL0     C91397   0.308   3.826   9.438  0.2519  0.2661  0.7897
  678MOL0     O91398   0.229   3.720   9.388 -0.5838  0.4448 -0.8557
  678MOL0     C91399   0.091   3.735   9.422 -0.2394  0.7527  1.1980
  678MOL0     C91400  -0.011   3.772   9.328  0.4653  0.1781 -0.1516
  678MOL0     C91401  -0.145   3.786   9.366  0.5928  0.0279 -0.6451
  678MOL0     C91402  -0.185   3.758   9.501 -0.5445  0.1543  0.2542
  678MOL0     O91403  -0.313   3.756   9.555  0.7350 -0.1391 -0.4470
  678MOL0     C91404  -0.408   3.843   9.483 -0.1418  1.2869  0.1577
  678MOL0     C91405  -0.527   3.876   9.581 -0.1622  0.5639  0.0647
  678MOL0     C91406  -0.600   3.758   9.640 -0.2773  0.0578  0.1023
  678MOL0     C91407  -0.661   3.659   9.542  0.8945  0.0133 -0.6940
  678MOL0     C91408  -0.757   3.553   9.599 -0.5713 -1.0784 -0.3975
  678MOL0     C91409  -0.791   3.464   9.485  0.9169  0.0575  0.0246
  678MOL0     C91410  -0.927   3.421   9.483  0.4049  0.2677 -0.5265
  678MOL0     C91411  -0.964   3.306   9.577 -0.8926 -0.1322  0.1791
  678MOL0     N91412  -1.089   3.234   9.543  0.2232  0.2127 -0.1598
  678MOL0     C91413  -1.216   3.282   9.582 -0.8556 -0.2843 -0.2655
  678MOL0     C91414  -1.311   3.195   9.569  0.1072  0.3160 -0.6529
  678MOL0     C91415  -1.460   3.221   9.571 -0.3543 -0.0585  0.5779
  678MOL0     C91416  -1.501   3.362   9.596  0.3126 -0.0806 -0.1213
  678MOL0     C91417  -1.647   3.367   9.634  1.2167 -0.0261 -0.3772
  678MOL0     C91418  -1.711   3.506   9.629 -0.1443 -0.2126 -1.0367
  678MOL0     O91419  -1.726   3.555   9.497 -0.3274  0.2481  0.3227
  678MOL0     C91420  -1.833   3.505   9.427 -0.5101  0.3963  0.2043
  678MOL0     C91421  -1.863   3.559   9.304  0.5187  0.0267 -0.4429
  678MOL0     C91422  -1.973   3.526   9.223  0.4497 -0.3875 -0.5284
  678MOL0     C91423  -1.995   3.612   9.105 -0.2257 -0.5448 -0.1863
  678MOL0     C91424  -2.063   3.419   9.269 -0.1602  0.1312 -0.3995
  678MOL0     C91425  -2.162   3.346   9.195 -0.2444 -0.0475  0.2647
  678MOL0     O91426  -2.271   3.288   9.256  0.8457  0.2508  0.3698
  678MOL0     C91427  -2.355   3.204   9.182 -0.7641  0.1241 -0.5813
  678MOL0     C91428  -2.413   3.235   9.060 -0.1598 -0.2614 -0.6067
  678MOL0     C91429  -2.512   3.145   9.011 -0.4001  0.1371  0.8690
  678MOL0     C91430  -2.548   3.028   9.075  0.5037 -0.6929 -1.6451
  678MOL0     O91431  -2.636   2.932   9.025 -0.8164 -0.0785 -0.4989
  678MOL0     C91432  -2.689   2.948   8.885 -0.5010 -0.0350 -0.5207
  678MOL0     C91433  -2.811   2.859   8.867  0.3172 -0.7291 -0.5636
  678MOL0     C91434  -2.920   2.925   8.952  0.1645  1.1085  0.2145
  678MOL0     C91435  -3.029   2.822   8.989  0.5130  0.3027  0.4106
  678MOL0     C91436  -3.156   2.879   9.045 -0.0940  0.8833 -0.9700
  678MOL0     C91437  -3.255   2.778   9.106 -0.9461  0.1558  0.5100
  678MOL0     C91438  -3.361   2.863   9.177  0.0579 -0.1518  0.3708
  678MOL0     C91439  -3.479   2.789   9.240 -0.2054 -0.0831 -0.4451
  678MOL0    Cl91440  -3.590   2.912   9.309 -0.0602  0.4328  0.4753
  678MOL0     C91441  -2.495   3.001   9.191  0.3432  0.0872  0.0549
  678MOL0     C91442  -2.398   3.085   9.247  0.3317  0.0290 -0.2697
  678MOL0     O91443  -2.135   3.331   9.083 -0.1572  0.8117  0.4122
  678MOL0     C91444  -2.036   3.366   9.397 -1.0443 -0.1303  0.5759
  678MOL0     C91445  -1.919   3.404   9.465  0.5766  0.3887  0.5115
  678MOL0     N91446  -1.245   3.085   9.518 -0.1224  0.0872 -0.4209
  678MOL0     N91447  -1.115   3.105   9.508  0.4200 -0.1800 -0.0860
  678MOL0     C91448  -0.087   3.729   9.587 -0.0081 -0.4776  0.6126
  678MOL0     C91449   0.047   3.718   9.557  0.1289  0.0579 -0.2673
  678MOL0     C91450   0.454   3.806   9.427 -1.7325 -0.1319 -0.0397
  678MOL0     C91451   0.510   3.705   9.354 -0.0617 -0.4236  0.7095
  678MOL0     C91452   0.645   3.686   9.331 -0.2401 -0.0080  0.1434
  678MOL0     C91453   0.737   3.745   9.419  0.3837 -0.4169 -1.0224
  678MOL0     O91454   0.872   3.726   9.420  0.3108 -0.0321 -0.0543
  678MOL0     C91455   0.922   3.629   9.329  0.0728  0.3855 -0.3144
  678MOL0     C91456   1.079   3.611   9.333  0.5381 -0.0645 -0.4642
  678MOL0     C91457   1.128   3.541   9.202 -0.1362 -0.4114 -0.6146
  678MOL0     C91458   1.279   3.538   9.183  0.1949  0.8103  0.2335
  678MOL0     C91459   1.331   3.672   9.177  0.9396  0.2117  0.2650
  678MOL0     C91460   1.370   3.788   9.186  0.1190  0.0861 -0.0764
  678MOL0     C91461   0.684   3.844   9.509 -1.5245 -0.1536  0.3541
  678MOL0     C91462   0.552   3.874   9.502  0.2274 -0.4829 -0.3388
  678MOL0     H91463   0.003   3.776   9.221 -0.4563 -0.9793 -0.3367
  678MOL0     H91464  -0.213   3.816   9.286 -0.1009  1.8307  0.5310
  678MOL0     H91465  -0.354   3.936   9.461 -0.3391  1.4367  0.3018
  678MOL0     H91466  -0.446   3.797   9.391  5.1067 -0.1604 -1.6540
  678MOL0     H91467  -0.483   3.939   9.659 -0.0426  2.4623 -1.4415
  678MOL0     H91468  -0.597   3.940   9.526  0.3166 -1.9660 -3.8551
  678MOL0     H91469  -0.524   3.714   9.705 -0.0157  0.7365  0.2604
  678MOL0     H91470  -0.683   3.799   9.698 -2.4781 -0.3416 -2.5455
  678MOL0     H91471  -0.730   3.720   9.482 -0.6154  0.5792  1.4949
  678MOL0     H91472  -0.580   3.614   9.484  3.0668  0.6331  1.6935
  678MOL0     H91473  -0.704   3.506   9.682 -0.6131  0.3344  0.4629
  678MOL0     H91474  -0.846   3.600   9.642  0.2936 -0.3452  0.6289
  678MOL0     H91475  -0.772   3.514   9.389  0.3049 -2.3754 -1.4470
  678MOL0     H91476  -0.734   3.371   9.490 -2.2392 -2.0192 -0.3959
  678MOL0     H91477  -0.990   3.509   9.499  1.3958  1.2610 -1.9059
  678MOL0     H91478  -0.947   3.385   9.382 -2.8721  1.1815 -0.3157
  678MOL0     H91479  -0.976   3.336   9.682  1.4586 -0.9391  0.7409
  678MOL0     H91480  -0.885   3.231   9.563 -1.3770 -0.4424 -1.0182
  678MOL0     H91481  -1.247   3.383   9.605 -2.8504 -1.1718  1.2166
  678MOL0     H91482  -1.494   3.188   9.473  1.9261  3.4468 -1.6283
  678MOL0     H91483  -1.500   3.161   9.654  0.0038 -1.5369 -0.2799
  678MOL0     H91484  -1.485   3.419   9.505 -1.2294  1.0025  0.2347
  678MOL0     H91485  -1.443   3.403   9.680 -1.1275  0.4826  0.6507
  678MOL0     H91486  -1.651   3.337   9.739 -0.2778  0.1295 -0.3759
  678MOL0     H91487  -1.703   3.292   9.578  1.5644 -1.0544  0.5935
  678MOL0     H91488  -1.645   3.579   9.676  0.4954 -0.7815 -1.0310
  678MOL0     H91489  -1.806   3.509   9.682  0.5103  0.1360  0.1551
  678MOL0     H91490  -1.798   3.638   9.268 -0.6711 -0.0980 -3.0976
  678MOL0     H91491  -2.099   3.601   9.074  0.0841 -3.4009 -0.4698
  678MOL0     H91492  -1.984   3.718   9.129 -2.6370 -0.4304  0.6539
  678MOL0     H91493  -1.920   3.589   9.029  0.8898  1.7166  0.1272
  678MOL0     H91494  -2.387   3.326   9.008  1.4763  0.1997  0.9196
  678MOL0     H91495  -2.564   3.177   8.921  2.6463  2.9431 -0.0918
  678MOL0     H91496  -2.715   3.047   8.848  0.9010 -0.0051 -1.4917
  678MOL0     H91497  -2.612   2.902   8.823 -1.6553  0.7291 -2.6371
  678MOL0     H91498  -2.842   2.845   8.763 -1.6576 -5.3550  0.4089
  678MOL0     H91499  -2.781   2.759   8.900 -0.7907 -0.4701  1.4089
  678MOL0     H91500  -2.965   2.997   8.884 -1.1720 -1.0822 -1.3244
  678MOL0     H91501  -2.893   2.976   9.046 -1.7281  1.0661  0.8284
  678MOL0     H91502  -3.043   2.771   8.893  1.3269  3.2545 -1.4103
  678MOL0     H91503  -2.986   2.749   9.058 -2.2518 -2.9859 -1.0319
  678MOL0     H91504  -3.205   2.934   8.963 -2.2695  0.9371  0.2863
  678MOL0     H91505  -3.123   2.956   9.114 -1.1393  1.1992 -0.8059
  678MOL0     H91506  -3.294   2.714   9.026  2.0464 -0.0611 -0.9205
  678MOL0     H91507  -3.205   2.712   9.177 -0.8701  0.1223  0.4248
  678MOL0     H91508  -3.395   2.935   9.101  1.3929  1.8655  1.6188
  678MOL0     H91509  -3.326   2.919   9.264 -1.0733  3.4345 -1.2820
  678MOL0     H91510  -3.438   2.723   9.317  1.2329 -3.6971 -3.9512
  678MOL0     H91511  -3.524   2.718   9.169  1.1103 -3.0804  1.5193
  678MOL0     H91512  -2.519   2.913   9.249  0.7413  1.3772  2.2810
  678MOL0     H91513  -2.362   3.072   9.348  0.3938 -0.4129 -0.3502
  678MOL0     H91514  -2.093   3.278   9.426  0.0651 -0.7931  0.7802
  678MOL0     H91515  -1.909   3.349   9.559  1.5476 -0.0139  0.1830
  678MOL0     H91516  -0.103   3.696   9.689  0.4745  0.9882  1.1900
  678MOL0     H91517   0.122   3.712   9.636 -2.6808  1.4518  2.7281
  678MOL0     H91518   0.447   3.638   9.295  0.8359 -0.2924 -0.4217
  678MOL0     H91519   0.669   3.621   9.248 -1.7318  0.3028 -0.5761
  678MOL0     H91520   0.879   3.530   9.349 -1.0612  0.9024 -0.1231
  678MOL0     H91521   0.887   3.648   9.228 -1.8132  0.3761  0.2988
  678MOL0     H91522   1.114   3.569   9.428 -2.5774 -2.0670 -0.0730
  678MOL0     H91523   1.124   3.711   9.332 -0.0493  0.2020 -0.9474
  678MOL0     H91524   1.080   3.594   9.119 -0.5761  0.5497  0.2323
  678MOL0     H91525   1.087   3.439   9.202  0.8830 -0.8854 -2.4824
  678MOL0     H91526   1.312   3.492   9.090 -0.2522 -1.4141  1.1300
  678MOL0     H91527   1.333   3.489   9.264  1.2429  0.0120 -0.9052
  678MOL0     H91528   1.424   3.880   9.180  0.1764 -0.0587 -3.6588
  678MOL0     H91529   0.750   3.887   9.584 -1.6879 -2.4798  1.9488
  678MOL0     H91530   0.512   3.952   9.566 -0.1467 -0.5320 -0.5104
  679MOL0     O91531   5.485   5.168  10.724 -0.3223 -0.4194 -0.1694
  679MOL0     C91532   5.481   5.089  10.636 -0.8805  0.4904  0.3176
  679MOL0     O91533   5.378   5.052  10.563 -0.3789 -0.0941  0.1501
  679MOL0     C91534   5.250   5.093  10.561 -0.0376  0.2359  0.0036
  679MOL0     C91535   5.181   5.172  10.658 -0.0058 -0.0335 -0.1573
  679MOL0     C91536   5.048   5.200  10.627 -0.3893 -0.9468  0.2357
  679MOL0     C91537   4.980   5.131  10.523 -0.6217 -0.7593  0.1309
  679MOL0     O91538   4.849   5.165  10.517 -0.3821  0.8344 -0.3612
  679MOL0     C91539   4.769   5.046  10.478 -0.3184 -0.0583  0.3205
  679MOL0     C91540   4.617   5.052  10.501 -0.2488  0.1710 -0.4724
  679MOL0     C91541   4.611   5.057  10.657  0.1314  0.4764  0.1338
  679MOL0     C91542   4.471   5.063  10.716  0.3281  0.7519  0.4206
  679MOL0     C91543   4.462   5.082  10.866 -0.3584 -0.2306 -0.2116
  679MOL0     C91544   4.315   5.103  10.911 -0.8859  0.1175 -0.6499
  679MOL0     C91545   4.210   4.998  10.856  0.5139 -0.1767 -0.8914
  679MOL0     C91546   4.064   5.035  10.872  0.1264 -0.4826 -0.9211
  679MOL0     N91547   4.025   5.034  11.013  0.4984  0.4884 -0.3162
  679MOL0     C91548   3.958   5.131  11.088 -0.0472  0.5825 -0.2304
  679MOL0     C91549   3.948   5.074  11.210 -0.2851  0.0128  1.0235
  679MOL0     C91550   3.878   5.128  11.323 -0.3065  0.8452  0.0290
  679MOL0     C91551   3.821   5.026  11.422 -0.2535  0.0913  0.1856
  679MOL0     C91552   3.784   5.087  11.557 -0.8163 -0.0930  0.4599
  679MOL0     C91553   3.634   5.096  11.587 -0.2010 -0.2264  0.1951
  679MOL0     O91554   3.630   5.162  11.717 -0.3791  0.9745  0.3792
  679MOL0     C91555   3.509   5.193  11.754 -0.2396 -0.3068 -0.3921
  679MOL0     C91556   3.487   5.310  11.832 -0.2715 -0.1263  0.2114
  679MOL0     C91557   3.365   5.349  11.882 -1.0214  0.4443  0.3374
  679MOL0     C91558   3.378   5.483  11.950 -0.6023 -0.1343  0.3524
  679MOL0     C91559   3.251   5.265  11.858 -0.4446 -0.0915 -0.1969
  679MOL0     C91560   3.110   5.298  11.878 -0.1719  0.2596  0.3295
  679MOL0     O91561   3.010   5.220  11.823 -0.6405  0.9257 -0.0304
  679MOL0     C91562   2.875   5.252  11.846  0.3991 -0.4061 -0.6167
  679MOL0     C91563   2.815   5.310  11.731  0.0502 -0.3565  0.4806
  679MOL0     C91564   2.687   5.373  11.731  0.0616 -0.0514  0.3518
  679MOL0     C91565   2.613   5.365  11.846  1.0292  0.4324 -0.1935
  679MOL0     O91566   2.487   5.423  11.841  0.4547 -0.1435  0.9001
  679MOL0     C91567   2.443   5.495  11.959 -0.8529  0.2632  0.4636
  679MOL0     C91568   2.306   5.565  11.942 -0.7171  0.0070 -0.8446
  679MOL0     C91569   2.192   5.463  11.919  0.9624 -0.2464  0.2554
  679MOL0     C91570   2.166   5.449  11.772 -0.2075 -0.4922 -0.2075
  679MOL0     C91571   2.036   5.360  11.750  0.6329  0.1600  0.9762
  679MOL0     C91572   2.035   5.287  11.613  0.1257  0.3764  1.1929
  679MOL0     C91573   1.978   5.379  11.514 -0.2564  1.0164 -0.3540
  679MOL0     C91574   1.963   5.319  11.380  0.2887 -0.0032  0.0393
  679MOL0    Cl91575   2.123   5.274  11.309  0.3687  0.2006 -0.2048
  679MOL0     C91576   2.666   5.292  11.958  0.0232 -0.4797  0.0455
  679MOL0     C91577   2.794   5.244  11.963  0.0405  0.0277 -1.1180
  679MOL0     O91578   3.089   5.395  11.947  0.5095  1.1614  0.2347
  679MOL0     C91579   3.280   5.143  11.799 -0.3154 -0.0997 -0.0553
  679MOL0     C91580   3.403   5.104  11.751  0.3924 -0.9151  0.9189
  679MOL0     N91581   4.027   4.962  11.212 -0.0905  1.0785  0.1433
  679MOL0     N91582   4.071   4.937  11.094  0.2800 -0.1963 -0.7472
  679MOL0     C91583   5.051   5.053  10.438  0.5624 -0.7379  0.2300
  679MOL0     C91584   5.189   5.040  10.451  0.0071  0.6339  0.5229
  679MOL0     C91585   5.606   5.015  10.616 -0.0012 -0.5182  0.0055
  679MOL0     C91586   5.716   5.026  10.703  0.6652  0.5389 -0.3586
  679MOL0     C91587   5.834   4.952  10.671  0.2998  0.0964  1.0660
  679MOL0     C91588   5.845   4.871  10.558 -0.9417 -0.5196 -0.6045
  679MOL0     O91589   5.958   4.789  10.548 -0.3941  0.0874  0.5458
  679MOL0     C91590   6.067   4.852  10.483 -0.2040  0.1568 -0.9620
  679MOL0     C91591   6.205   4.838  10.547  0.2882  0.5661  0.0116
  679MOL0     C91592   6.221   4.909  10.679  0.4129  0.5667  0.0634
  679MOL0     C91593   6.333   4.841  10.772  0.5409 -1.2491  0.4246
  679MOL0     C91594   6.369   4.930  10.882 -0.0518  0.8571 -0.1349
  679MOL0     C91595   6.392   5.008  10.974 -0.2754  1.1834  0.5805
  679MOL0     C91596   5.744   4.873  10.470 -0.1893 -0.7450 -0.2019
  679MOL0     C91597   5.618   4.939  10.503 -0.0123 -0.4491  0.2332
  679MOL0     H91598   5.221   5.212  10.750 -1.4029  0.8684  0.0862
  679MOL0     H91599   4.980   5.263  10.685  0.0689  0.3096 -0.5532
  679MOL0     H91600   4.779   5.040  10.369 -0.9355 -3.3378  0.3317
  679MOL0     H91601   4.802   4.949  10.517 -3.0689 -1.0596  0.3785
  679MOL0     H91602   4.579   5.149  10.469 -0.2226  0.5123  0.5152
  679MOL0     H91603   4.561   4.973  10.450 -1.1131 -0.5839  1.5597
  679MOL0     H91604   4.668   4.975  10.702 -1.6558  0.6229  2.8972
  679MOL0     H91605   4.669   5.145  10.688 -0.3559  2.1964 -3.3962
  679MOL0     H91606   4.424   5.145  10.662  1.1578  0.2768 -1.0843
  679MOL0     H91607   4.418   4.972  10.688  1.3247  0.1030  0.5564
  679MOL0     H91608   4.520   5.006  10.919 -1.2014 -0.6959  0.0523
  679MOL0     H91609   4.519   5.174  10.882 -1.0513  0.4318 -1.4249
  679MOL0     H91610   4.307   5.097  11.020 -0.9066  0.6953 -0.6205
  679MOL0     H91611   4.274   5.201  10.889 -1.1357  0.0200 -0.6177
  679MOL0     H91612   4.222   4.986  10.747  0.8074 -1.3010 -0.7478
  679MOL0     H91613   4.227   4.900  10.901 -1.7299  0.3408  1.2824
  679MOL0     H91614   4.002   4.967  10.813 -0.9853 -0.1410 -0.1745
  679MOL0     H91615   4.046   5.140  10.843  0.7763  0.3969  1.6259
  679MOL0     H91616   3.911   5.222  11.052 -1.4916 -0.0406  0.0432
  679MOL0     H91617   3.954   5.182  11.380  1.2378 -1.0951 -0.0720
  679MOL0     H91618   3.796   5.189  11.285 -0.0892  0.8048 -0.5174
  679MOL0     H91619   3.894   4.945  11.429 -1.1013 -0.6257  1.1657
  679MOL0     H91620   3.736   4.971  11.380 -0.0042 -2.3048  2.5254
  679MOL0     H91621   3.819   5.190  11.563 -0.7843 -0.1791  2.5004
  679MOL0     H91622   3.833   5.039  11.643 -0.9039  1.3552  1.3409
  679MOL0     H91623   3.593   4.995  11.592  3.0238 -1.6180  1.0725
  679MOL0     H91624   3.582   5.163  11.518 -2.2808 -1.6498  0.3116
  679MOL0     H91625   3.574   5.375  11.838 -0.4223  0.0144  0.9144
  679MOL0     H91626   3.307   5.503  12.032  0.0018 -0.4189  0.9556
  679MOL0     H91627   3.475   5.487  12.001 -0.2672 -0.5179 -0.2468
  679MOL0     H91628   3.359   5.563  11.879 -0.4367 -0.1851  0.2509
  679MOL0     H91629   2.873   5.290  11.642  0.0334  1.6322 -0.0377
  679MOL0     H91630   2.641   5.425  11.648  0.3186 -0.3218  0.0353
  679MOL0     H91631   2.419   5.415  12.031  3.2541 -2.5760 -0.9552
  679MOL0     H91632   2.531   5.556  11.981  0.8657 -1.9798  0.1814
  679MOL0     H91633   2.297   5.615  12.039  2.1707 -2.5282  0.9162
  679MOL0     H91634   2.314   5.648  11.871  3.2613 -0.4570 -1.2191
  679MOL0     H91635   2.100   5.507  11.959  0.1777 -0.1948 -1.5088
  679MOL0     H91636   2.209   5.366  11.965  2.0777  0.0559  0.5073
  679MOL0     H91637   2.158   5.553  11.738 -1.4887  0.5409  2.9330
  679MOL0     H91638   2.251   5.403  11.721  2.7543  2.1745  1.9179
  679MOL0     H91639   1.949   5.425  11.761  0.8971  0.7328 -0.2244
  679MOL0     H91640   2.030   5.281  11.826  3.1689 -1.2771 -0.1956
  679MOL0     H91641   2.138   5.266  11.582  0.4520  2.0556  1.0349
  679MOL0     H91642   1.974   5.197  11.613  0.3690  0.1722 -0.7674
  679MOL0     H91643   2.036   5.471  11.513  0.2000  0.7340 -0.3216
  679MOL0     H91644   1.876   5.395  11.549  0.1074 -0.3297  1.5503
  679MOL0     H91645   1.913   5.387  11.310  0.3092 -2.2026 -2.2397
  679MOL0     H91646   1.910   5.223  11.383  1.4373 -0.6324  1.3898
  679MOL0     H91647   2.605   5.270  12.045 -0.5979  0.1944 -0.2176
  679MOL0     H91648   2.828   5.198  12.055  1.4836 -0.4323 -1.8540
  679MOL0     H91649   3.201   5.068  11.798  0.0338 -0.5463  1.8703
  679MOL0     H91650   3.409   5.001  11.717  1.8116 -1.3728  2.3958
  679MOL0     H91651   5.004   4.995  10.359  2.7807 -0.7000 -1.2137
  679MOL0     H91652   5.255   4.987  10.383 -2.0548 -0.3421 -0.8086
  679MOL0     H91653   5.704   5.081  10.796 -1.1179 -0.2806 -0.0608
  679MOL0     H91654   5.913   4.949  10.745  2.0030  0.3950 -0.6658
  679MOL0     H91655   6.070   4.807  10.383 -0.3788 -0.9655 -0.4781
  679MOL0     H91656   6.045   4.956  10.460  2.1653  1.0408  0.3721
  679MOL0     H91657   6.279   4.886  10.483  0.4527 -0.5994 -0.7144
  679MOL0     H91658   6.219   4.730  10.557 -1.2227  0.5774  3.9564
  679MOL0     H91659   6.128   4.915  10.736  0.6950  1.3705  0.4556
  679MOL0     H91660   6.252   5.013  10.668  2.4259  0.4013  3.0841
  679MOL0     H91661   6.416   4.810  10.708 -0.0703 -0.7842 -0.6247
  679MOL0     H91662   6.300   4.751  10.825 -0.0167 -1.2259  0.1233
  679MOL0     H91663   6.417   5.064  11.062  0.3506  0.2535  1.0160
  679MOL0     H91664   5.748   4.823  10.374 -2.2682 -1.5447  0.0680
  679MOL0     H91665   5.540   4.920  10.429 -0.6338  0.7216  0.5656
  680MOL0     O91666   1.463   1.217   8.906 -0.4004 -0.0695  1.2198
  680MOL0     C91667   1.511   1.324   8.906 -0.0264  0.7191 -1.0598
  680MOL0     O91668   1.478   1.412   9.009 -0.3409  0.5210 -0.8670
  680MOL0     C91669   1.388   1.358   9.108 -0.7878 -1.2102 -0.8498
  680MOL0     C91670   1.261   1.408   9.124  0.4023  0.1635  0.5608
  680MOL0     C91671   1.179   1.365   9.224 -0.2770 -0.3192 -0.4277
  680MOL0     C91672   1.215   1.272   9.318 -0.6173  0.3174 -0.4637
  680MOL0     O91673   1.136   1.231   9.420  0.2946  0.5523  0.1821
  680MOL0     C91674   1.192   1.156   9.529 -0.7046  0.1396 -1.0927
  680MOL0     C91675   1.090   1.145   9.639 -0.1741  0.1134  0.3147
  680MOL0     C91676   0.976   1.076   9.592  0.2808  0.3827  0.1532
  680MOL0     C91677   0.903   0.994   9.708  0.4073  0.4533  0.9420
  680MOL0     C91678   0.800   0.898   9.634 -0.2256 -0.4217 -0.6082
  680MOL0     C91679   0.692   0.832   9.723 -0.1187 -0.9793  0.3355
  680MOL0     C91680   0.579   0.773   9.635 -0.6461 -1.0361  0.3145
  680MOL0     C91681   0.478   0.686   9.723 -0.3865  0.7018 -0.3270
  680MOL0     N91682   0.419   0.766   9.828 -0.4459  0.3223 -0.7105
  680MOL0     C91683   0.357   0.706   9.933 -0.5034  0.0476  0.1143
  680MOL0     C91684   0.294   0.818   9.986 -0.1330  0.1838  0.8373
  680MOL0     C91685   0.211   0.824  10.111  0.6981  1.0857 -0.1108
  680MOL0     C91686   0.073   0.751  10.100 -0.5417  0.6075  0.9780
  680MOL0     C91687  -0.036   0.788  10.206 -0.2707 -0.2019 -0.0390
  680MOL0     C91688   0.011   0.752  10.351 -0.3248 -0.6013  0.4245
  680MOL0     O91689  -0.051   0.836  10.451  0.2044 -0.0803  0.3404
  680MOL0     C91690  -0.188   0.814  10.476 -0.4737  0.1827 -0.2233
  680MOL0     C91691  -0.245   0.904  10.569  0.5259  0.5617  0.7591
  680MOL0     C91692  -0.384   0.886  10.606 -0.3902 -0.0320  0.0233
  680MOL0     C91693  -0.457   0.986  10.697 -0.2837  0.2573 -0.1842
  680MOL0     C91694  -0.464   0.786  10.546 -0.1612  0.4234  0.0698
  680MOL0     C91695  -0.604   0.754  10.574 -0.0538 -0.2447  0.7868
  680MOL0     O91696  -0.644   0.727  10.700 -0.4510 -0.0698  0.4261
  680MOL0     C91697  -0.783   0.705  10.730  0.9384 -0.2675  0.1396
  680MOL0     C91698  -0.874   0.811  10.752  1.4957  0.5724 -0.0439
  680MOL0     C91699  -1.014   0.786  10.774 -0.8709 -0.0217  0.4033
  680MOL0     C91700  -1.062   0.656  10.779  0.5353 -0.7529 -0.4078
  680MOL0     O91701  -1.196   0.621  10.798 -0.1761 -0.4304  0.2548
  680MOL0     C91702  -1.254   0.501  10.745  0.3022 -0.3137  1.1236
  680MOL0     C91703  -1.259   0.497  10.598  0.6665 -0.0721  1.0928
  680MOL0     C91704  -1.329   0.372  10.534 -0.2692 -0.2454  0.3454
  680MOL0     C91705  -1.477   0.372  10.568  0.1785  0.8521  0.2015
  680MOL0     C91706  -1.556   0.269  10.480  0.1433 -0.5480  0.9383
  680MOL0     C91707  -1.703   0.284  10.511  0.3125 -0.1191  0.3594
  680MOL0     C91708  -1.794   0.176  10.439  0.1471  0.1178  0.2418
  680MOL0     C91709  -1.811   0.205  10.289 -0.2557  0.4108  1.4093
  680MOL0    Cl91710  -1.945   0.109  10.207 -0.4296 -0.5981  0.1563
  680MOL0     C91711  -0.972   0.557  10.764  0.3197  0.4164 -0.2393
  680MOL0     C91712  -0.833   0.580  10.748  0.4289  0.6619  0.9151
  680MOL0     O91713  -0.674   0.742  10.471  0.3064 -0.4853  0.2513
  680MOL0     C91714  -0.403   0.705  10.444  0.0206 -0.3464  0.7447
  680MOL0     C91715  -0.265   0.718  10.408 -0.9019  0.0380  0.2100
  680MOL0     N91716   0.317   0.935   9.905 -0.4141 -0.4488 -0.1319
  680MOL0     N91717   0.395   0.899   9.809  0.2420 -0.2518 -0.0104
  680MOL0     C91718   1.340   1.211   9.293 -0.2003  0.6758  0.3564
  680MOL0     C91719   1.433   1.256   9.195  0.2022 -0.3974  0.3340
  680MOL0     C91720   1.590   1.358   8.786  0.3739  0.3807  0.1690
  680MOL0     C91721   1.668   1.470   8.799 -0.0079  0.5475  0.5752
  680MOL0     C91722   1.766   1.498   8.704 -1.1208 -0.2042 -0.0815
  680MOL0     C91723   1.784   1.423   8.587 -0.3289  0.9115  0.1224
  680MOL0     O91724   1.862   1.465   8.485  0.4038  0.2484  0.7321
  680MOL0     C91725   1.800   1.486   8.358  0.0283 -0.5713 -0.0220
  680MOL0     C91726   1.887   1.556   8.265 -0.4916 -0.0953  0.0082
  680MOL0     C91727   1.944   1.686   8.327 -1.2608 -0.4783  0.4703
  680MOL0     C91728   2.044   1.751   8.230  0.1025 -0.2136  0.6530
  680MOL0     C91729   2.180   1.714   8.259  0.1031  0.7934 -0.6407
  680MOL0     C91730   2.283   1.653   8.266  0.4016  0.1181 -0.4905
  680MOL0     C91731   1.705   1.308   8.580 -0.2879 -0.8215 -0.0835
  680MOL0     C91732   1.613   1.279   8.682  0.0956  0.9080  0.6701
  680MOL0     H91733   1.242   1.490   9.055 -0.8800  1.4005  2.2889
  680MOL0     H91734   1.086   1.420   9.240 -1.6616 -2.4541 -0.7266
  680MOL0     H91735   1.220   1.056   9.497 -3.5032 -0.4955 -1.8892
  680MOL0     H91736   1.279   1.207   9.570 -0.4474 -0.6467 -0.6458
  680MOL0     H91737   1.141   1.110   9.729  0.2835 -1.3688 -0.4850
  680MOL0     H91738   1.053   1.244   9.667  2.2877  0.8596  1.2254
  680MOL0     H91739   0.900   1.146   9.554 -0.4455 -0.6841 -0.3935
  680MOL0     H91740   0.999   1.000   9.517  0.4111 -1.1809  1.7013
  680MOL0     H91741   0.979   0.939   9.764  1.7372  0.5465 -0.7113
  680MOL0     H91742   0.851   1.064   9.774  0.9920  0.5834  1.2722
  680MOL0     H91743   0.737   0.966   9.575 -0.2094 -0.5728 -0.7999
  680MOL0     H91744   0.850   0.818   9.578  0.5379 -1.2790  1.2238
  680MOL0     H91745   0.736   0.752   9.784 -1.0292 -1.9768 -0.2602
  680MOL0     H91746   0.655   0.900   9.800  1.4584 -1.5584  1.6888
  680MOL0     H91747   0.533   0.857   9.584  0.2010 -0.3123  0.7118
  680MOL0     H91748   0.608   0.704   9.555  0.1136 -0.9623  0.5235
  680MOL0     H91749   0.539   0.613   9.777 -1.2592  0.9094  0.9938
  680MOL0     H91750   0.405   0.639   9.656 -2.6535  2.1244  1.0365
  680MOL0     H91751   0.356   0.602   9.964  1.5548 -0.5657 -1.6066
  680MOL0     H91752   0.268   0.778  10.192  1.2815  0.4832 -0.8502
  680MOL0     H91753   0.202   0.929  10.138  2.0207  1.5425 -1.3446
  680MOL0     H91754   0.071   0.643  10.115 -0.2519  0.7033  1.7642
  680MOL0     H91755   0.029   0.762  10.001  0.0841 -1.6147  0.3961
  680MOL0     H91756  -0.129   0.746  10.168 -0.0573 -0.3239 -0.4369
  680MOL0     H91757  -0.057   0.894  10.197  0.5681 -0.0526 -0.3453
  680MOL0     H91758   0.118   0.775  10.349 -0.0532 -1.7289  1.1974
  680MOL0     H91759  -0.002   0.646  10.374  1.9828 -0.9372  0.3778
  680MOL0     H91760  -0.190   0.988  10.607  0.3066  1.6857 -1.2535
  680MOL0     H91761  -0.397   1.076  10.716 -0.6278  0.5962 -0.7097
  680MOL0     H91762  -0.549   1.026  10.654  0.3461  1.7881 -0.1801
  680MOL0     H91763  -0.479   0.937  10.793 -1.1699  3.0987  1.1775
  680MOL0     H91764  -0.846   0.916  10.764 -1.0460  1.3197  0.1434
  680MOL0     H91765  -1.066   0.874  10.809 -0.3132  0.3607  0.2977
  680MOL0     H91766  -1.210   0.411  10.790 -0.8844 -1.3382  0.3050
  680MOL0     H91767  -1.354   0.503  10.790  0.7063 -1.5695  2.1161
  680MOL0     H91768  -1.311   0.581  10.552 -2.9352 -2.4116  0.4280
  680MOL0     H91769  -1.157   0.496  10.561  0.4491 -4.4766  0.0293
  680MOL0     H91770  -1.286   0.277  10.568 -0.1289 -0.9973 -1.7867
  680MOL0     H91771  -1.311   0.374  10.426  0.5029 -0.6522  0.4579
  680MOL0     H91772  -1.499   0.359  10.674 -0.1174 -2.0960 -0.1105
  680MOL0     H91773  -1.504   0.475  10.544 -3.3594  0.1724  0.7298
  680MOL0     H91774  -1.519   0.171  10.509  0.4397  0.1810  3.2025
  680MOL0     H91775  -1.540   0.281  10.372  1.6128  1.5019  1.3280
  680MOL0     H91776  -1.726   0.282  10.618 -0.9496 -0.0691  0.1113
  680MOL0     H91777  -1.749   0.380  10.486  1.6019  1.2390  2.8069
  680MOL0     H91778  -1.894   0.173  10.483 -0.9432 -0.1367 -2.0858
  680MOL0     H91779  -1.751   0.077  10.457  3.5849  1.2140 -1.1722
  680MOL0     H91780  -1.717   0.192  10.234  0.1352  0.3269  2.0814
  680MOL0     H91781  -1.844   0.309  10.281  2.3957  1.1759 -1.8922
  680MOL0     H91782  -1.000   0.452  10.759  0.6517  0.3671 -1.6298
  680MOL0     H91783  -0.777   0.488  10.734  2.7098  2.1230 -0.1115
  680MOL0     H91784  -0.462   0.624  10.403 -1.1026  1.6325 -1.7998
  680MOL0     H91785  -0.222   0.643  10.342 -2.7083  0.4895 -1.5990
  680MOL0     H91786   1.358   1.118   9.345  1.3938 -1.2467 -3.2874
  680MOL0     H91787   1.530   1.212   9.175 -0.3239 -0.6592 -1.9432
  680MOL0     H91788   1.670   1.524   8.893 -1.1104  1.9085 -0.1498
  680MOL0     H91789   1.828   1.586   8.714  2.7242 -1.7701 -5.2446
  680MOL0     H91790   1.774   1.392   8.310 -3.0239  1.0236 -1.8117
  680MOL0     H91791   1.710   1.546   8.373 -0.0221 -0.4391 -0.7919
  680MOL0     H91792   1.823   1.584   8.181 -2.1108 -0.1311  1.1793
  680MOL0     H91793   1.959   1.488   8.217  0.2597 -0.2130  1.2544
  680MOL0     H91794   1.992   1.676   8.425 -1.4021  2.5126  0.9626
  680MOL0     H91795   1.856   1.751   8.333 -0.9800  0.5091 -3.3954
  680MOL0     H91796   2.037   1.859   8.243 -1.6695 -0.1425 -0.5459
  680MOL0     H91797   2.006   1.722   8.131 -1.0590 -2.7829  1.7540
  680MOL0     H91798   2.367   1.586   8.262  0.3590  0.1046 -1.3905
  680MOL0     H91799   1.691   1.244   8.493  0.0080 -0.5496 -0.3329
  680MOL0     H91800   1.571   1.179   8.671  2.1404 -0.2312  2.4236
  681MOL0     O91801   4.577   3.607   5.265 -0.4734 -0.1210 -0.1314
  681MOL0     C91802   4.600   3.692   5.350  0.0037  0.2080  0.1262
  681MOL0     O91803   4.508   3.772   5.407  0.1297  0.2205 -0.2554
  681MOL0     C91804   4.375   3.773   5.373 -0.1093 -0.1434 -0.9078
  681MOL0     C91805   4.332   3.809   5.252 -0.2505  0.4339 -0.5598
  681MOL0     C91806   4.196   3.823   5.224  0.5763 -0.5466 -1.1168
  681MOL0     C91807   4.102   3.785   5.324 -0.1918  0.9356 -0.0913
  681MOL0     O91808   3.968   3.774   5.297  0.1525  0.2908 -0.6257
  681MOL0     C91809   3.919   3.877   5.204 -0.0869  1.6882  0.2013
  681MOL0     C91810   3.774   3.908   5.234  0.2884 -0.4133 -0.0575
  681MOL0     C91811   3.684   3.787   5.203  0.6545  0.8769 -0.3242
  681MOL0     C91812   3.536   3.827   5.205 -0.0053  1.5743  0.6017
  681MOL0     C91813   3.450   3.702   5.186  0.1194 -0.4733  0.6120
  681MOL0     C91814   3.306   3.729   5.171  0.3823  0.0683  0.2119
  681MOL0     C91815   3.234   3.594   5.191  0.1343 -0.3643  0.0780
  681MOL0     C91816   3.087   3.613   5.154 -0.3696 -0.5880  0.1108
  681MOL0     N91817   3.001   3.512   5.199 -0.7068 -0.5882 -0.2519
  681MOL0     C91818   3.002   3.377   5.174 -0.6503 -0.7059  0.7677
  681MOL0     C91819   2.886   3.339   5.226 -0.8581 -0.6127 -1.2520
  681MOL0     C91820   2.835   3.200   5.256  0.0965  0.1862 -0.6931
  681MOL0     C91821   2.690   3.183   5.210 -0.4687  0.4908  0.2920
  681MOL0     C91822   2.638   3.029   5.225  0.8264 -0.6406 -0.2799
  681MOL0     C91823   2.501   3.012   5.156 -0.4490 -0.4033  1.1326
  681MOL0     O91824   2.395   3.039   5.245  0.0911 -0.5045  0.5435
  681MOL0     C91825   2.284   3.102   5.194  0.2745 -0.5938  0.6665
  681MOL0     C91826   2.233   3.109   5.062  0.4093  0.1932  0.1029
  681MOL0     C91827   2.123   3.181   5.025 -0.4007  0.1370 -0.2057
  681MOL0     C91828   2.102   3.204   4.871 -0.2173  0.3533 -0.0261
  681MOL0     C91829   2.042   3.236   5.119 -0.0089  0.1155 -0.5502
  681MOL0     C91830   1.917   3.316   5.090 -0.2134  0.2338 -0.8562
  681MOL0     O91831   1.845   3.286   4.975 -0.0140 -0.0262  0.1725
  681MOL0     C91832   1.738   3.360   4.952 -0.5680 -1.0431  0.6018
  681MOL0     C91833   1.629   3.282   4.894 -0.4266 -1.1679 -1.3662
  681MOL0     C91834   1.512   3.344   4.859  0.4134 -0.0643  0.0920
  681MOL0     C91835   1.483   3.478   4.890  0.9214  0.1590  0.5534
  681MOL0     O91836   1.358   3.530   4.864  0.0466 -1.3476  0.1653
  681MOL0     C91837   1.248   3.450   4.818 -0.4504  0.6640 -0.3253
  681MOL0     C91838   1.122   3.537   4.802 -0.1921  0.0059 -1.2483
  681MOL0     C91839   1.023   3.448   4.731  0.2396  0.4953  0.3366
  681MOL0     C91840   0.889   3.523   4.729  0.0400  0.0381 -0.5532
  681MOL0     C91841   0.788   3.459   4.630  0.7058 -0.1078 -0.6828
  681MOL0     C91842   0.642   3.524   4.648  0.2921  0.5131  1.1059
  681MOL0     C91843   0.637   3.680   4.653 -0.0204 -0.2124 -0.0727
  681MOL0     C91844   0.496   3.721   4.637 -0.5003  0.1082 -0.5241
  681MOL0    Cl91845   0.399   3.671   4.784 -0.1543  0.3767 -0.1917
  681MOL0     C91846   1.586   3.553   4.954  0.3208  0.8978 -0.6541
  681MOL0     C91847   1.713   3.495   4.974  0.3000 -0.3112 -0.6917
  681MOL0     O91848   1.894   3.403   5.172  0.3903 -0.4650  0.2404
  681MOL0     C91849   2.077   3.222   5.257  0.2124 -0.1477  0.0603
  681MOL0     C91850   2.196   3.162   5.285  0.8011  0.4888  0.8197
  681MOL0     N91851   2.818   3.442   5.291 -0.5328  0.4580 -0.3877
  681MOL0     N91852   2.889   3.548   5.270 -1.0628  0.0345 -0.3082
  681MOL0     C91853   4.155   3.740   5.453  0.2720  0.1514  0.6379
  681MOL0     C91854   4.290   3.729   5.475 -0.2651  0.2288 -0.7647
  681MOL0     C91855   4.744   3.727   5.372 -0.5286  0.6244 -0.2586
  681MOL0     C91856   4.782   3.841   5.437 -1.4329  0.5795 -0.0334
  681MOL0     C91857   4.923   3.870   5.460  0.0712  0.1778 -0.0101
  681MOL0     C91858   5.025   3.774   5.421 -0.0122  0.2340  0.7163
  681MOL0     O91859   5.154   3.795   5.437 -0.1739  1.0021 -0.3086
  681MOL0     C91860   5.214   3.888   5.531  0.1916  0.6594 -0.8968
  681MOL0     C91861   5.236   4.026   5.479 -0.5589 -0.3450 -0.1599
  681MOL0     C91862   5.272   4.133   5.583 -0.4100  0.5090  0.5524
  681MOL0     C91863   5.396   4.104   5.670  0.5060 -0.3675 -0.1697
  681MOL0     C91864   5.454   4.229   5.713 -0.1812 -0.1494  0.0110
  681MOL0     C91865   5.514   4.319   5.767  0.4825  0.6979  0.0501
  681MOL0     C91866   4.989   3.655   5.354  0.9284  0.2425 -0.4342
  681MOL0     C91867   4.845   3.631   5.338 -0.3472 -0.8227  0.8324
  681MOL0     H91868   4.410   3.839   5.182 -0.2460  2.2895  0.1850
  681MOL0     H91869   4.157   3.833   5.124  2.1264 -1.6163 -1.8717
  681MOL0     H91870   3.971   3.972   5.193  2.5961  0.1006 -2.4945
  681MOL0     H91871   3.930   3.836   5.103 -2.5273 -0.0458  0.5605
  681MOL0     H91872   3.769   3.935   5.340 -2.4785  2.3469 -0.7641
  681MOL0     H91873   3.731   3.993   5.181 -2.4274  0.5177  3.2849
  681MOL0     H91874   3.708   3.744   5.105 -0.3710 -1.3686  0.3387
  681MOL0     H91875   3.695   3.719   5.288  0.6076  0.5997 -0.5392
  681MOL0     H91876   3.510   3.870   5.302 -0.2703 -1.1919  1.8373
  681MOL0     H91877   3.517   3.904   5.130  0.3592 -0.2058 -1.4246
  681MOL0     H91878   3.491   3.637   5.107 -2.0217 -1.4015  0.1950
  681MOL0     H91879   3.470   3.637   5.272  1.5698 -1.8864 -0.7047
  681MOL0     H91880   3.266   3.809   5.235 -2.1977 -1.5772  0.8124
  681MOL0     H91881   3.297   3.764   5.068 -1.0366  1.6091  0.8027
  681MOL0     H91882   3.286   3.524   5.126 -1.0485 -0.8508 -0.3768
  681MOL0     H91883   3.244   3.559   5.294 -1.4318 -1.0730  0.0271
  681MOL0     H91884   3.093   3.622   5.045  1.4602  1.1875  0.3019
  681MOL0     H91885   3.054   3.712   5.186  0.9753 -0.0655 -0.0457
  681MOL0     H91886   3.074   3.307   5.134  1.0573  0.6141  1.4233
  681MOL0     H91887   2.898   3.130   5.200  0.1602  0.8692 -1.5101
  681MOL0     H91888   2.855   3.181   5.362  1.3512 -0.7917 -1.0771
  681MOL0     H91889   2.697   3.209   5.104  1.3788 -0.0142  0.2490
  681MOL0     H91890   2.621   3.252   5.259 -0.0563  0.7705  0.4819
  681MOL0     H91891   2.621   3.002   5.330  1.1655 -1.8738 -0.5257
  681MOL0     H91892   2.711   2.960   5.183  2.2476  0.5295  0.1811
  681MOL0     H91893   2.489   2.907   5.128 -0.3521 -0.3848  1.0172
  681MOL0     H91894   2.493   3.072   5.064  0.0321  1.0548  2.0016
  681MOL0     H91895   2.296   3.066   4.985 -0.9180  0.7714 -1.3648
  681MOL0     H91896   2.044   3.290   4.837  1.1281  0.5952 -1.8653
  681MOL0     H91897   2.193   3.230   4.816  0.7585 -1.4688  0.6602
  681MOL0     H91898   2.060   3.111   4.832 -2.5100  1.4517 -0.3524
  681MOL0     H91899   1.641   3.174   4.890 -2.4453 -1.4022 -2.1497
  681MOL0     H91900   1.451   3.270   4.807  2.9507 -0.5479 -2.4193
  681MOL0     H91901   1.270   3.422   4.714  2.3528  1.3234  0.0251
  681MOL0     H91902   1.239   3.361   4.881  0.3135  1.9592  1.7024
  681MOL0     H91903   1.090   3.565   4.903  0.8675 -0.7531 -0.6791
  681MOL0     H91904   1.138   3.629   4.744  1.1058  1.5169  1.2816
  681MOL0     H91905   1.015   3.352   4.783  1.9825  0.2270  0.1488
  681MOL0     H91906   1.061   3.433   4.630  2.2123 -0.9217  1.2294
  681MOL0     H91907   0.851   3.523   4.832 -2.0165  0.6823 -1.2664
  681MOL0     H91908   0.900   3.631   4.711  2.6572  0.1937  1.3480
  681MOL0     H91909   0.789   3.351   4.646  0.4667  0.0736  0.6131
  681MOL0     H91910   0.828   3.469   4.528  0.4691 -1.5189 -0.9301
  681MOL0     H91911   0.584   3.489   4.563  3.0602 -3.1524  0.5133
  681MOL0     H91912   0.603   3.482   4.742 -0.8600 -1.7578 -0.2986
  681MOL0     H91913   0.691   3.725   4.569 -0.4806  3.3328  1.3499
  681MOL0     H91914   0.682   3.712   4.747 -1.0788  1.7037 -0.1659
  681MOL0     H91915   0.441   3.666   4.560 -1.8875 -1.8003  1.6755
  681MOL0     H91916   0.491   3.829   4.618  2.9140  0.6409  0.7934
  681MOL0     H91917   1.574   3.659   4.973 -2.9533  0.9981 -2.5400
  681MOL0     H91918   1.784   3.568   5.010 -2.5996  2.3613  0.0829
  681MOL0     H91919   2.015   3.271   5.331 -0.1789  3.1372 -2.2084
  681MOL0     H91920   2.230   3.165   5.388  0.7062  0.8404  0.8439
  681MOL0     H91921   4.074   3.719   5.523  0.0342  2.3171  1.0978
  681MOL0     H91922   4.330   3.704   5.573 -1.6133 -1.9479 -0.7182
  681MOL0     H91923   4.706   3.911   5.471 -1.9586  0.5448 -1.1111
  681MOL0     H91924   4.942   3.963   5.511 -0.2361 -0.4063  1.2100
  681MOL0     H91925   5.144   3.908   5.614  1.8347 -0.6732  0.8949
  681MOL0     H91926   5.302   3.842   5.576 -0.3248  1.1270  0.6482
  681MOL0     H91927   5.153   4.051   5.413  0.5557  0.2565 -1.3791
  681MOL0     H91928   5.317   4.015   5.407 -3.0235 -0.0904 -3.1759
  681MOL0     H91929   5.181   4.149   5.641 -0.2096  2.6215  0.3539
  681MOL0     H91930   5.291   4.227   5.530  1.6654 -0.1959 -0.0379
  681MOL0     H91931   5.474   4.058   5.609 -1.3531 -0.8836 -2.3069
  681MOL0     H91932   5.363   4.048   5.758 -0.8269  0.5156 -0.0785
  681MOL0     H91933   5.578   4.392   5.813  2.7624 -2.1870  1.7891
  681MOL0     H91934   5.068   3.586   5.325  2.4354  0.9185  1.8065
  681MOL0     H91935   4.810   3.531   5.313 -2.1901 -0.6074  2.3163
  682MOL0     O91936   2.408   6.829   1.585  0.2244 -0.0207  0.2713
  682MOL0     C91937   2.423   6.779   1.478 -0.0075  0.1030  0.1492
  682MOL0     O91938   2.319   6.746   1.392  0.7229  0.1752  0.2050
  682MOL0     C91939   2.187   6.781   1.424  0.2313  0.3683  0.2418
  682MOL0     C91940   2.088   6.685   1.386  0.0728  0.0524  0.7905
  682MOL0     C91941   1.954   6.722   1.395  0.2613 -0.1337  0.5423
  682MOL0     C91942   1.909   6.837   1.449  0.3195 -0.2461 -0.0972
  682MOL0     O91943   1.768   6.857   1.481 -0.2887  0.8180 -0.5061
  682MOL0     C91944   1.735   6.952   1.581  0.3623 -0.2140  0.4136
  682MOL0     C91945   1.587   6.911   1.619 -1.1298  0.0503 -0.5308
  682MOL0     C91946   1.547   6.949   1.759  0.3316 -0.4332 -0.2797
  682MOL0     C91947   1.411   6.908   1.811  0.6152 -0.6396 -0.6885
  682MOL0     C91948   1.299   7.008   1.754  0.8267  0.2165 -1.0619
  682MOL0     C91949   1.161   6.941   1.769  0.5531 -1.4966 -0.6906
  682MOL0     C91950   1.032   7.006   1.718  0.5493  0.6863  0.0087
  682MOL0     C91951   0.985   6.981   1.576  0.3774  0.6695  0.1490
  682MOL0     N91952   0.873   6.883   1.556 -1.1223 -0.0940  0.0786
  682MOL0     C91953   0.734   6.903   1.579 -0.6234  0.5962  0.2457
  682MOL0     C91954   0.674   6.778   1.557 -0.2268 -0.1392 -0.6711
  682MOL0     C91955   0.520   6.761   1.547 -0.6096 -0.1604  0.5357
  682MOL0     C91956   0.468   6.821   1.425 -0.1702  0.0302  0.8908
  682MOL0     C91957   0.326   6.778   1.390 -0.2785  0.3395 -0.1031
  682MOL0     C91958   0.250   6.892   1.325  0.1921 -0.9968  0.4485
  682MOL0     O91959   0.118   6.842   1.291  0.2968 -0.2036  0.2522
  682MOL0     C91960   0.033   6.938   1.232  0.6174  0.3738 -0.2438
  682MOL0     C91961   0.068   7.061   1.174  0.3518 -0.2200 -0.2104
  682MOL0     C91962  -0.027   7.146   1.118  0.0552  0.2846  0.0350
  682MOL0     C91963   0.032   7.263   1.039 -0.8617  0.0503 -0.8943
  682MOL0     C91964  -0.166   7.115   1.127 -0.5382  0.2187  0.5411
  682MOL0     C91965  -0.265   7.208   1.052 -0.8780  0.1488  0.7639
  682MOL0     O91966  -0.377   7.155   1.003 -0.2571  0.2472 -0.2324
  682MOL0     C91967  -0.484   7.230   0.975 -0.3367 -0.9506 -1.3035
  682MOL0     C91968  -0.614   7.195   1.032 -0.5941 -0.2012 -0.1689
  682MOL0     C91969  -0.730   7.268   1.009 -0.4009 -0.3174  1.1331
  682MOL0     C91970  -0.733   7.382   0.938 -0.4319  0.6665 -0.2347
  682MOL0     O91971  -0.855   7.436   0.919 -0.1496  0.2438  0.0521
  682MOL0     C91972  -0.860   7.572   0.866 -0.3060  0.1184 -0.4594
  682MOL0     C91973  -1.003   7.629   0.869  0.0401 -0.2863  0.0949
  682MOL0     C91974  -1.044   7.674   1.010 -0.0788  0.1572  0.4938
  682MOL0     C91975  -1.175   7.750   1.001 -0.0300 -0.0561  0.7100
  682MOL0     C91976  -1.244   7.798   1.126  0.4142 -0.2151  0.6230
  682MOL0     C91977  -1.384   7.858   1.109  0.2231 -0.1496  0.0933
  682MOL0     C91978  -1.463   7.904   1.236  0.0903  0.2582 -0.4552
  682MOL0     C91979  -1.400   8.030   1.297 -0.1307 -0.4287 -0.0847
  682MOL0    Cl91980  -1.528   8.133   1.371 -0.1362  0.1795 -0.3963
  682MOL0     C91981  -0.611   7.422   0.887 -0.5592  0.5597 -0.1143
  682MOL0     C91982  -0.484   7.348   0.899  0.6066 -0.0636 -0.4493
  682MOL0     O91983  -0.238   7.331   1.054 -0.9685 -0.4084 -0.5356
  682MOL0     C91984  -0.196   6.988   1.177 -0.3130 -0.8118  0.1212
  682MOL0     C91985  -0.102   6.904   1.233 -0.5968  0.4343  0.2348
  682MOL0     N91986   0.775   6.688   1.545 -0.5400 -0.8810 -0.3590
  682MOL0     N91987   0.894   6.742   1.541 -0.1022 -0.4164  0.8644
  682MOL0     C91988   2.007   6.922   1.504  0.4625 -0.3691  0.1261
  682MOL0     C91989   2.144   6.904   1.477  0.7368 -0.1990 -0.2708
  682MOL0     C91990   2.564   6.753   1.446 -0.6558 -0.0298 -0.8453
  682MOL0     C91991   2.660   6.761   1.550 -0.4559 -0.9318 -0.3448
  682MOL0     C91992   2.797   6.750   1.524  0.8863  0.0820  0.6585
  682MOL0     C91993   2.849   6.724   1.392  0.0113 -0.1715 -0.4818
  682MOL0     O91994   2.982   6.706   1.364 -0.3147 -0.2378  0.3509
  682MOL0     C91995   3.082   6.763   1.449 -0.0208  1.2411 -0.5222
  682MOL0     C91996   3.102   6.919   1.433  0.1330  0.5935 -0.1247
  682MOL0     C91997   3.112   6.977   1.300 -0.5680 -0.1102  0.6955
  682MOL0     C91998   3.187   7.112   1.308  0.2193 -0.3671  0.3058
  682MOL0     C91999   3.330   7.097   1.354 -0.3115 -0.2673  0.0725
  682MOL0     C92000   3.452   7.101   1.367 -0.4086  0.1836  0.1993
  682MOL0     C92001   2.754   6.722   1.287  0.5180  0.8391 -0.9119
  682MOL0     C92002   2.613   6.724   1.315 -0.5844  0.0468  0.4633
  682MOL0     H92003   2.111   6.593   1.333 -1.6117  0.8002 -1.3988
  682MOL0     H92004   1.864   6.665   1.371 -0.0769 -0.0504  1.5531
  682MOL0     H92005   1.793   6.954   1.674 -0.3437 -2.2200  0.9548
  682MOL0     H92006   1.722   7.052   1.540  0.3327  1.0350  3.2115
  682MOL0     H92007   1.512   6.947   1.548 -0.6638 -2.5744 -2.5101
  682MOL0     H92008   1.579   6.804   1.599  1.7975  0.0325 -2.1915
  682MOL0     H92009   1.617   6.895   1.823 -1.6635 -1.7567  0.9055
  682MOL0     H92010   1.583   7.052   1.757  5.3786 -1.9232 -0.2771
  682MOL0     H92011   1.380   6.810   1.774 -1.5859 -0.7896  1.3079
  682MOL0     H92012   1.416   6.904   1.920 -0.1206 -0.3744 -0.6355
  682MOL0     H92013   1.298   7.102   1.810  1.3613 -1.3283  1.7620
  682MOL0     H92014   1.314   7.028   1.648  2.3376  1.4624 -0.6480
  682MOL0     H92015   1.177   6.840   1.730 -4.1211 -2.9575  0.5237
  682MOL0     H92016   1.145   6.936   1.877  1.7819 -3.3949 -0.5444
  682MOL0     H92017   0.944   6.998   1.784  1.0789  0.2578  0.6811
  682MOL0     H92018   1.066   7.110   1.721  3.8416 -0.2706 -0.5608
  682MOL0     H92019   1.074   6.970   1.513  0.7077  1.5249  0.4486
  682MOL0     H92020   0.938   7.074   1.543 -2.7633 -1.5679 -2.2790
  682MOL0     H92021   0.675   6.993   1.591  1.5247  2.1963 -0.5202
  682MOL0     H92022   0.491   6.656   1.534 -2.3161  0.5619 -2.2954
  682MOL0     H92023   0.470   6.809   1.631 -0.0737  2.9880 -0.7948
  682MOL0     H92024   0.534   6.798   1.340 -2.3471  1.1029 -1.2303
  682MOL0     H92025   0.468   6.926   1.457 -1.0227  0.0685  0.7882
  682MOL0     H92026   0.266   6.752   1.478 -0.7962  2.8166  0.3461
  682MOL0     H92027   0.324   6.698   1.316  1.6992 -2.1853  2.3136
  682MOL0     H92028   0.304   6.936   1.240 -0.4440  3.2129  1.9968
  682MOL0     H92029   0.247   6.975   1.396  0.9024 -1.2994  0.8339
  682MOL0     H92030   0.171   7.096   1.183  0.5562 -1.3117  2.3998
  682MOL0     H92031  -0.031   7.273   0.950 -1.1605  0.2808 -0.6587
  682MOL0     H92032   0.040   7.358   1.093 -4.1984  0.6128 -1.2165
  682MOL0     H92033   0.133   7.244   0.999 -0.5985  0.4095 -0.4130
  682MOL0     H92034  -0.627   7.122   1.111  1.1454  0.7434  1.0635
  682MOL0     H92035  -0.823   7.236   1.055 -0.5168  0.2127  1.2668
  682MOL0     H92036  -0.807   7.642   0.931  0.3780  1.4501 -2.3687
  682MOL0     H92037  -0.820   7.576   0.764  0.9540 -0.4564  0.0014
  682MOL0     H92038  -1.010   7.710   0.794  0.6422  0.6284  0.9945
  682MOL0     H92039  -1.074   7.550   0.845 -0.9872  0.5087  0.4195
  682MOL0     H92040  -0.965   7.733   1.058 -1.3997  2.8242 -0.3582
  682MOL0     H92041  -1.062   7.591   1.078 -2.1421  1.8089  2.0933
  682MOL0     H92042  -1.158   7.841   0.942 -1.6032  0.7047  1.3727
  682MOL0     H92043  -1.242   7.684   0.945 -0.0311  1.1737 -0.8176
  682MOL0     H92044  -1.176   7.874   1.166  0.3722 -0.0575  0.3914
  682MOL0     H92045  -1.244   7.718   1.201 -1.6807 -0.2651  0.6296
  682MOL0     H92046  -1.370   7.946   1.046  0.0112 -1.0735 -1.2926
  682MOL0     H92047  -1.453   7.789   1.060 -0.1762  0.6043 -0.4170
  682MOL0     H92048  -1.460   7.823   1.308 -0.9500 -1.2460 -2.0294
  682MOL0     H92049  -1.570   7.922   1.218 -0.2096  0.2471  1.1654
  682MOL0     H92050  -1.347   8.088   1.221 -1.2045  0.2469 -0.3499
  682MOL0     H92051  -1.329   8.003   1.375  1.7967  2.0555 -0.8529
  682MOL0     H92052  -0.593   7.502   0.816  1.2169  0.1280 -0.2136
  682MOL0     H92053  -0.389   7.383   0.861 -0.1302  3.3829  0.5232
  682MOL0     H92054  -0.300   6.958   1.184 -0.9896  1.2907 -0.1188
  682MOL0     H92055  -0.132   6.815   1.287  0.5590 -2.0373 -2.9125
  682MOL0     H92056   1.988   7.013   1.559  0.5283  0.1441 -0.6926
  682MOL0     H92057   2.216   6.979   1.507 -0.5398  0.8448  0.2739
  682MOL0     H92058   2.641   6.799   1.650  2.4614 -1.4958  0.5056
  682MOL0     H92059   2.867   6.760   1.606 -0.3513  2.0717  1.5511
  682MOL0     H92060   3.069   6.739   1.555  0.6284  1.9020 -0.2864
  682MOL0     H92061   3.176   6.722   1.411 -0.4991 -0.0249 -0.3940
  682MOL0     H92062   3.189   6.950   1.491 -0.4963 -1.9504  2.4496
  682MOL0     H92063   3.019   6.980   1.470 -0.9907 -0.0564 -1.4958
  682MOL0     H92064   3.009   6.996   1.268  0.2401 -0.1724 -2.1128
  682MOL0     H92065   3.173   6.914   1.235  1.6735  2.1032  0.5059
  682MOL0     H92066   3.136   7.185   1.371 -2.6264  0.0407 -2.2369
  682MOL0     H92067   3.175   7.153   1.208  0.7182  0.4146  0.5620
  682MOL0     H92068   3.559   7.111   1.363 -0.1849 -1.7011  0.4751
  682MOL0     H92069   2.781   6.709   1.183 -1.5454  0.3142 -1.4166
  682MOL0     H92070   2.549   6.718   1.228 -0.1216  0.1105  0.1143
  683MOL0     O92071   3.817   1.713   0.531 -0.5941  0.2928 -0.7897
  683MOL0     C92072   3.767   1.606   0.494  0.1661  0.8398 -0.8484
  683MOL0     O92073   3.631   1.574   0.500 -0.5911  0.0130 -0.0928
  683MOL0     C92074   3.542   1.649   0.572  0.6525 -0.4189  0.1231
  683MOL0     C92075   3.537   1.790   0.572  0.2201  0.0973 -0.2054
  683MOL0     C92076   3.430   1.850   0.640  0.7306  0.0957  0.1257
  683MOL0     C92077   3.328   1.778   0.692 -0.2745  0.9867  0.7305
  683MOL0     O92078   3.212   1.834   0.745  0.0619  0.2614 -0.2916
  683MOL0     C92079   3.198   1.970   0.782  0.3439  0.2732  0.2733
  683MOL0     C92080   3.077   1.983   0.874 -0.4470 -0.1495 -0.4898
  683MOL0     C92081   2.943   1.942   0.823 -0.1203  0.3951 -0.1386
  683MOL0     C92082   2.833   1.986   0.920 -0.2366 -0.3839  0.4802
  683MOL0     C92083   2.707   1.895   0.913 -0.2337  0.1071  0.2094
  683MOL0     C92084   2.629   1.917   0.782  0.0144 -1.2304 -0.4202
  683MOL0     C92085   2.541   2.046   0.788 -0.5593 -0.5979  0.7533
  683MOL0     C92086   2.476   2.102   0.657 -0.3671  0.6371 -0.1936
  683MOL0     N92087   2.340   2.161   0.684  0.1964 -0.5517 -0.3737
  683MOL0     C92088   2.316   2.289   0.713  0.0336 -0.6719 -0.0467
  683MOL0     C92089   2.181   2.300   0.695  0.5176 -0.3459  0.4256
  683MOL0     C92090   2.114   2.429   0.741  0.2283 -0.7005  0.0148
  683MOL0     C92091   1.963   2.425   0.728  0.2403  0.2385 -0.1982
  683MOL0     C92092   1.923   2.570   0.741  0.7105 -0.5862  0.6451
  683MOL0     C92093   1.805   2.579   0.834  0.2329 -0.1521  0.4851
  683MOL0     O92094   1.683   2.528   0.773 -0.3150  1.0957  0.3492
  683MOL0     C92095   1.562   2.531   0.838  0.2866 -0.0778 -0.6906
  683MOL0     C92096   1.536   2.606   0.957 -0.4164  0.5592 -0.7291
  683MOL0     C92097   1.410   2.599   1.015 -1.1818 -0.5088 -0.7462
  683MOL0     C92098   1.398   2.683   1.145  0.0513  0.3524  0.1125
  683MOL0     C92099   1.314   2.514   0.961 -0.1317 -1.4031 -1.3203
  683MOL0     C92100   1.169   2.527   1.009 -0.0565 -0.3914 -0.0578
  683MOL0     O92101   1.093   2.441   0.952  0.5102  1.1243  0.5080
  683MOL0     C92102   0.955   2.442   0.950  0.6841  0.2121 -0.5056
  683MOL0     C92103   0.875   2.553   0.968 -0.1872  0.7242 -0.2460
  683MOL0     C92104   0.734   2.555   0.952  1.0047  0.2341 -0.4937
  683MOL0     C92105   0.665   2.432   0.934 -0.0001 -0.6567  0.7702
  683MOL0     O92106   0.526   2.419   0.938 -0.7570 -0.1825 -0.2954
  683MOL0     C92107   0.438   2.531   0.949  0.0140 -0.3183 -0.9270
  683MOL0     C92108   0.290   2.503   0.974 -0.1076 -0.3967 -0.6097
  683MOL0     C92109   0.202   2.622   0.987 -0.3029  0.3120 -0.5377
  683MOL0     C92110   0.073   2.562   1.052  0.7150  0.6959  0.0943
  683MOL0     C92111  -0.037   2.659   1.086 -0.1077 -0.1619  1.2731
  683MOL0     C92112  -0.158   2.584   1.124  0.6015  0.1687 -0.2945
  683MOL0     C92113  -0.280   2.671   1.149  0.4269 -0.1505 -0.8108
  683MOL0     C92114  -0.389   2.609   1.240  0.6109  0.2656  0.8966
  683MOL0    Cl92115  -0.523   2.742   1.255 -0.4562  0.2453 -0.2073
  683MOL0     C92116   0.740   2.321   0.930 -0.3546  0.6261  0.1965
  683MOL0     C92117   0.882   2.321   0.934 -0.8127  0.0136 -1.0912
  683MOL0     O92118   1.134   2.608   1.092 -0.1423  0.5147 -0.3261
  683MOL0     C92119   1.347   2.425   0.860  0.0178  0.7550  0.4685
  683MOL0     C92120   1.466   2.444   0.791 -0.2608 -0.2447  0.1384
  683MOL0     N92121   2.119   2.180   0.662 -0.0163 -0.1184  0.2705
  683MOL0     N92122   2.214   2.098   0.659 -1.0791  0.5293  0.1024
  683MOL0     C92123   3.338   1.640   0.698 -0.5626 -0.8749 -0.6054
  683MOL0     C92124   3.446   1.575   0.638 -0.2695 -0.5744 -0.7402
  683MOL0     C92125   3.857   1.505   0.428 -0.1172 -0.5733  0.8340
  683MOL0     C92126   3.997   1.536   0.428 -0.1294 -0.6299  1.1573
  683MOL0     C92127   4.090   1.449   0.380  0.1087 -0.3533  0.7964
  683MOL0     C92128   4.051   1.329   0.322  0.2321 -1.0490 -0.5722
  683MOL0     O92129   4.154   1.256   0.267  0.2638  0.5286  0.3787
  683MOL0     C92130   4.117   1.128   0.228  0.1252  0.5278  0.2067
  683MOL0     C92131   4.224   1.028   0.172  0.1280 -0.1066 -1.1349
  683MOL0     C92132   4.318   0.955   0.271 -0.5010  0.5424 -1.2295
  683MOL0     C92133   4.458   1.009   0.301  0.1213  0.0762  0.4646
  683MOL0     C92134   4.530   0.920   0.395  0.1253  1.3541 -0.8981
  683MOL0     C92135   4.585   0.843   0.465 -0.2640  0.0956  0.1265
  683MOL0     C92136   3.914   1.290   0.332  0.4115  0.4173  0.3494
  683MOL0     C92137   3.821   1.379   0.383  0.4716 -1.0693  0.3946
  683MOL0     H92138   3.613   1.853   0.526  0.0751  1.1059  0.8715
  683MOL0     H92139   3.422   1.958   0.647  1.9764  0.1722  0.5528
  683MOL0     H92140   3.291   2.004   0.829  1.7107 -2.0014 -0.6050
  683MOL0     H92141   3.172   2.032   0.696  0.0759 -0.0439  0.1222
  683MOL0     H92142   3.099   1.932   0.969  0.2596  1.4006  0.2117
  683MOL0     H92143   3.078   2.089   0.902  1.6252 -0.4102  0.6683
  683MOL0     H92144   2.931   1.986   0.723  2.7659  0.9956 -0.2910
  683MOL0     H92145   2.938   1.836   0.797 -3.3905  1.1292 -3.4285
  683MOL0     H92146   2.870   1.985   1.022  0.2340 -0.7463  0.3111
  683MOL0     H92147   2.811   2.092   0.906  0.6551 -0.3727 -1.0475
  683MOL0     H92148   2.743   1.793   0.929  0.8355  0.4263 -0.1063
  683MOL0     H92149   2.638   1.921   0.994  2.0278  2.2769  1.5594
  683MOL0     H92150   2.690   1.926   0.692  0.0812  2.1380 -0.1641
  683MOL0     H92151   2.556   1.836   0.773 -1.8689  0.4139 -0.7645
  683MOL0     H92152   2.464   2.054   0.866 -1.7904 -2.5684 -0.1855
  683MOL0     H92153   2.610   2.124   0.820 -1.6455  1.2842 -1.1844
  683MOL0     H92154   2.476   2.018   0.587  4.7515 -2.1319  2.6157
  683MOL0     H92155   2.548   2.171   0.613  2.4563 -1.6071  0.6529
  683MOL0     H92156   2.382   2.367   0.749 -0.4559 -0.5317  0.5662
  683MOL0     H92157   2.145   2.456   0.843  3.2134  2.9219 -1.6051
  683MOL0     H92158   2.152   2.514   0.683  1.3123 -0.1242  1.5035
  683MOL0     H92159   1.919   2.360   0.803 -1.4834 -2.1466 -3.0544
  683MOL0     H92160   1.934   2.387   0.630  0.9764  0.4654 -0.5092
  683MOL0     H92161   1.900   2.602   0.639  1.2179 -1.2756  0.3075
  683MOL0     H92162   2.001   2.628   0.790  4.7285 -2.5812 -2.7300
  683MOL0     H92163   1.784   2.686   0.843  0.1287 -0.2021  0.8496
  683MOL0     H92164   1.825   2.535   0.932  0.6726 -1.2687 -0.0911
  683MOL0     H92165   1.619   2.672   0.982 -0.0555  0.4239 -1.5515
  683MOL0     H92166   1.498   2.705   1.182  0.7972 -0.5882 -1.2676
  683MOL0     H92167   1.349   2.779   1.123  1.1450  1.1001  0.8619
  683MOL0     H92168   1.358   2.607   1.213  0.0711 -1.0156 -1.3455
  683MOL0     H92169   0.930   2.646   0.970  0.4529  0.3519  1.8512
  683MOL0     H92170   0.672   2.645   0.950 -1.1612 -1.1820 -3.4017
  683MOL0     H92171   0.473   2.592   1.033 -0.1667 -3.0920  1.3054
  683MOL0     H92172   0.440   2.585   0.854 -1.2216 -1.8861 -1.9057
  683MOL0     H92173   0.255   2.441   0.891 -0.5024 -1.7734  0.5503
  683MOL0     H92174   0.282   2.431   1.056 -1.4773  0.2702 -0.1298
  683MOL0     H92175   0.183   2.676   0.894 -3.5048 -0.2465 -0.3103
  683MOL0     H92176   0.249   2.683   1.065 -3.3402  0.3072  1.4485
  683MOL0     H92177   0.021   2.484   0.994 -2.8442  1.7590  1.5614
  683MOL0     H92178   0.094   2.510   1.145 -2.5561  0.3365  0.7635
  683MOL0     H92179  -0.056   2.721   0.998 -0.9235 -1.4572  0.5030
  683MOL0     H92180  -0.003   2.721   1.170 -0.3977 -4.4497  4.9503
  683MOL0     H92181  -0.183   2.511   1.047 -0.2879 -2.0619  1.9539
  683MOL0     H92182  -0.140   2.526   1.215  1.8977  1.0897  0.0747
  683MOL0     H92183  -0.325   2.690   1.051 -1.2614  1.4913  0.2129
  683MOL0     H92184  -0.256   2.769   1.192 -0.9541  0.1663 -0.7179
  683MOL0     H92185  -0.356   2.597   1.344  0.5269  1.4446  1.0742
  683MOL0     H92186  -0.417   2.515   1.193  0.0693  1.2160 -0.7689
  683MOL0     H92187   0.688   2.226   0.920  2.6785 -1.0955 -0.4884
  683MOL0     H92188   0.938   2.229   0.918 -1.7553 -1.9456  4.5908
  683MOL0     H92189   1.272   2.359   0.818 -0.2030  0.1987  1.6987
  683MOL0     H92190   1.489   2.382   0.705 -0.5441  0.5878 -0.5519
  683MOL0     H92191   3.270   1.579   0.758  0.6387 -1.5134  0.1404
  683MOL0     H92192   3.450   1.467   0.648  0.9449 -0.6666 -1.8880
  683MOL0     H92193   4.040   1.629   0.463  3.1960 -1.0504 -1.3400
  683MOL0     H92194   4.194   1.477   0.391 -0.5738  2.3110  1.1866
  683MOL0     H92195   4.077   1.074   0.314 -1.4066  1.9239  0.4025
  683MOL0     H92196   4.039   1.133   0.152 -1.2481  1.1354  1.6173
  683MOL0     H92197   4.279   1.085   0.096 -0.0286  1.3420 -0.2055
  683MOL0     H92198   4.168   0.950   0.119 -0.4621  1.3000 -2.7021
  683MOL0     H92199   4.337   0.856   0.227 -2.4196 -0.8291  0.8069
  683MOL0     H92200   4.267   0.936   0.366 -2.5239  0.5661 -2.2483
  683MOL0     H92201   4.437   1.109   0.340 -1.4545 -0.2769  0.5847
  683MOL0     H92202   4.517   1.004   0.209  1.3732  1.1205  1.1834
  683MOL0     H92203   4.653   0.791   0.529  0.0734  1.4251  0.9098
  683MOL0     H92204   3.877   1.193   0.300  0.8597 -0.1624  1.5078
  683MOL0     H92205   3.714   1.363   0.378  0.4499 -0.5896 -1.3034
  684MOL0     O92206   6.218   1.780   8.584 -0.5526  0.2023 -0.2770
  684MOL0     C92207   6.206   1.813   8.702 -0.5107 -0.6211  0.1767
  684MOL0     O92208   6.106   1.875   8.751  0.9474 -0.5766  0.9863
  684MOL0     C92209   5.995   1.910   8.672 -0.6915  0.1550  0.1913
  684MOL0     C92210   5.885   1.828   8.661 -0.2147 -1.0117  0.3123
  684MOL0     C92211   5.775   1.875   8.588  1.2410 -0.1376  0.2858
  684MOL0     C92212   5.777   1.994   8.516  1.1097  0.3652 -0.0993
  684MOL0     O92213   5.669   2.051   8.447  0.5003  0.0192 -0.1173
  684MOL0     C92214   5.617   1.976   8.336 -0.5835 -0.4286 -0.1238
  684MOL0     C92215   5.528   2.054   8.258  0.8491 -0.2462 -0.5989
  684MOL0     C92216   5.424   2.107   8.361 -1.0749  0.7759  0.1346
  684MOL0     C92217   5.311   2.194   8.294 -0.5423  0.4870  0.2908
  684MOL0     C92218   5.195   2.109   8.246  0.1502  0.7350 -0.7683
  684MOL0     C92219   5.109   2.204   8.166 -0.1311  0.1784  0.3194
  684MOL0     C92220   4.965   2.158   8.130 -0.8242 -0.3877  0.1498
  684MOL0     C92221   4.961   2.075   8.006  0.4111  0.4761  0.0708
  684MOL0     N92222   4.827   2.056   7.958 -0.0991  0.5297  0.4492
  684MOL0     C92223   4.773   2.112   7.847 -1.2989 -1.3955  1.1942
  684MOL0     C92224   4.644   2.073   7.835 -0.1863  0.0865 -0.6418
  684MOL0     C92225   4.545   2.089   7.721  0.3265 -0.1250  1.0379
  684MOL0     C92226   4.423   2.171   7.754  0.6017  0.6630 -0.7300
  684MOL0     C92227   4.440   2.258   7.887  0.3070  0.1894  0.0152
  684MOL0     C92228   4.317   2.349   7.903  1.1083  0.5985 -0.6802
  684MOL0     O92229   4.321   2.414   8.023  0.0799 -0.2735 -1.0786
  684MOL0     C92230   4.224   2.506   8.057  0.0811 -0.2143 -0.4777
  684MOL0     C92231   4.257   2.638   8.093  0.6059 -0.5107  0.1334
  684MOL0     C92232   4.166   2.735   8.138 -1.0544  0.1477 -0.3277
  684MOL0     C92233   4.218   2.866   8.178  1.0931 -0.1253 -0.5932
  684MOL0     C92234   4.031   2.689   8.149 -0.8238  0.0763 -0.4279
  684MOL0     C92235   3.924   2.783   8.194 -0.2423 -0.7749 -0.3660
  684MOL0     O92236   3.878   2.869   8.096 -0.4985 -0.6238  0.4443
  684MOL0     C92237   3.748   2.928   8.097 -0.1794 -0.0370  0.3155
  684MOL0     C92238   3.704   3.003   8.201 -0.8002 -0.1390  0.1716
  684MOL0     C92239   3.579   3.074   8.189 -0.9093  1.5153  0.2970
  684MOL0     C92240   3.506   3.078   8.077  0.2503 -0.7822  0.7796
  684MOL0     O92241   3.394   3.154   8.083  0.3943  0.4910  0.0811
  684MOL0     C92242   3.284   3.113   8.009  0.0731  0.3543  0.1894
  684MOL0     C92243   3.181   3.221   8.042 -0.1744  0.0683  0.5839
  684MOL0     C92244   3.046   3.190   8.002 -0.0381  0.8050  1.2869
  684MOL0     C92245   3.004   3.275   7.881 -0.6773  0.1484  0.7866
  684MOL0     C92246   2.857   3.238   7.849 -0.5906  0.8238 -0.3171
  684MOL0     C92247   2.800   3.305   7.708  1.1157  0.4749 -0.8361
  684MOL0     C92248   2.672   3.247   7.663 -1.0740 -0.5231  1.3874
  684MOL0     C92249   2.557   3.301   7.743 -0.1018  0.1385  0.6981
  684MOL0    Cl92250   2.404   3.295   7.639  0.8942 -0.0407 -0.0504
  684MOL0     C92251   3.560   3.010   7.968  0.0173 -0.8359  0.2588
  684MOL0     C92252   3.678   2.931   7.980  0.7265 -0.2051  0.4550
  684MOL0     O92253   3.873   2.766   8.309 -0.2237 -0.3929  0.3801
  684MOL0     C92254   3.995   2.564   8.113  0.9726  0.3865 -0.1347
  684MOL0     C92255   4.091   2.465   8.074  0.0605  0.1321  0.6061
  684MOL0     N92256   4.609   2.012   7.951  0.2155  0.2231 -0.9681
  684MOL0     N92257   4.720   1.999   8.016 -0.1184 -0.4497  0.3421
  684MOL0     C92258   5.897   2.059   8.508 -0.3304 -0.3595 -0.0911
  684MOL0     C92259   6.003   2.025   8.589 -0.2653 -0.1681  0.1385
  684MOL0     C92260   6.321   1.788   8.796  0.3733  0.7874 -1.0761
  684MOL0     C92261   6.435   1.712   8.772  0.3006 -0.0979 -0.4472
  684MOL0     C92262   6.540   1.700   8.864 -0.9830  0.3164 -0.3060
  684MOL0     C92263   6.517   1.752   8.995  0.1171 -0.1531 -0.3769
  684MOL0     O92264   6.619   1.731   9.082  0.0350  0.1248  0.4041
  684MOL0     C92265   6.618   1.774   9.211 -0.5451  0.4598 -0.1480
  684MOL0     C92266   6.753   1.746   9.287  0.6823 -0.1331  0.6238
  684MOL0     C92267   6.775   1.598   9.294 -0.4057  0.4873  0.5198
  684MOL0     C92268   6.913   1.570   9.357  0.0781 -0.0565  0.8328
  684MOL0     C92269   6.907   1.598   9.502 -0.1009  0.2216 -0.0189
  684MOL0     C92270   6.883   1.613   9.617 -0.7207 -0.0802 -0.4330
  684MOL0     C92271   6.399   1.815   9.022 -0.6637  0.0618 -0.4628
  684MOL0     C92272   6.310   1.836   8.923  0.4445  0.0790  0.6992
  684MOL0     H92273   5.875   1.736   8.718 -0.1100 -0.0450  1.9446
  684MOL0     H92274   5.679   1.823   8.594  0.2252  1.4359 -1.3250
  684MOL0     H92275   5.702   1.954   8.271 -1.0350  1.9946 -1.6765
  684MOL0     H92276   5.574   1.885   8.378 -0.9881  0.2815  1.0307
  684MOL0     H92277   5.571   2.143   8.212 -0.5842  1.0350  0.4482
  684MOL0     H92278   5.487   1.994   8.176  2.5883  0.4634 -2.0610
  684MOL0     H92279   5.364   2.027   8.406 -0.6514 -1.0461 -2.3029
  684MOL0     H92280   5.481   2.174   8.425  1.5510 -1.9411  0.8907
  684MOL0     H92281   5.282   2.275   8.362 -0.1290  1.8835 -1.1163
  684MOL0     H92282   5.356   2.240   8.205 -0.2414 -1.7542 -0.7851
  684MOL0     H92283   5.215   2.019   8.186 -3.1513 -0.3138 -0.4841
  684MOL0     H92284   5.142   2.081   8.337  1.7615  0.0372  0.0010
  684MOL0     H92285   5.100   2.297   8.223  0.4055  0.5464 -0.1835
  684MOL0     H92286   5.157   2.241   8.075 -1.4250 -1.2188 -0.9895
  684MOL0     H92287   4.924   2.093   8.208 -2.7029 -0.6386 -0.9723
  684MOL0     H92288   4.902   2.246   8.110 -0.0719 -0.0152 -0.6063
  684MOL0     H92289   5.007   1.979   8.032  0.6420  0.9022  1.3198
  684MOL0     H92290   5.023   2.121   7.929 -0.3539  1.0817 -0.1839
  684MOL0     H92291   4.826   2.164   7.768 -2.2923  1.5658  2.3609
  684MOL0     H92292   4.589   2.155   7.646  0.6604 -0.6123  0.7933
  684MOL0     H92293   4.539   1.992   7.670  1.6490 -1.4738  3.2992
  684MOL0     H92294   4.346   2.095   7.774  0.8342  0.7670  0.7034
  684MOL0     H92295   4.397   2.228   7.665 -0.7379  0.2003 -0.6587
  684MOL0     H92296   4.521   2.328   7.867 -0.4739  1.0372 -0.1901
  684MOL0     H92297   4.442   2.189   7.972 -1.4905 -4.4518 -3.2811
  684MOL0     H92298   4.222   2.295   7.893  1.2595  0.6403 -3.0649
  684MOL0     H92299   4.306   2.422   7.822 -0.1268  0.3261 -0.7850
  684MOL0     H92300   4.357   2.679   8.093 -0.1652  1.6313  2.3309
  684MOL0     H92301   4.304   2.883   8.114  1.7144 -1.1859 -0.0796
  684MOL0     H92302   4.139   2.941   8.165  1.6726  1.2565  2.6527
  684MOL0     H92303   4.238   2.860   8.285 -1.5306  0.5411  0.0206
  684MOL0     H92304   3.762   3.000   8.293 -0.6187 -3.8949  0.0759
  684MOL0     H92305   3.541   3.135   8.270 -3.2383  1.4674 -0.6544
  684MOL0     H92306   3.302   3.113   7.901  1.9874  0.4180  0.4809
  684MOL0     H92307   3.256   3.010   8.033  0.2379  0.0518 -0.8679
  684MOL0     H92308   3.192   3.240   8.149  3.0279  2.2323 -0.0012
  684MOL0     H92309   3.220   3.308   7.989  2.4551 -0.6146  1.2599
  684MOL0     H92310   2.966   3.207   8.075 -3.9351  0.2318 -2.4430
  684MOL0     H92311   3.044   3.081   7.989  3.2070  0.8804 -1.2900
  684MOL0     H92312   3.005   3.382   7.904  2.0914  0.3322  0.1779
  684MOL0     H92313   3.075   3.249   7.802 -0.8010 -1.3287  1.1230
  684MOL0     H92314   2.787   3.254   7.932 -2.0930 -0.7012 -1.2155
  684MOL0     H92315   2.852   3.131   7.829 -1.0644  0.5965  0.9721
  684MOL0     H92316   2.783   3.410   7.733  1.1679  0.7429 -1.9113
  684MOL0     H92317   2.880   3.313   7.633  0.6582  2.8472 -1.1354
  684MOL0     H92318   2.676   3.138   7.657 -0.4974 -0.4765  0.8156
  684MOL0     H92319   2.653   3.280   7.561 -1.5176 -0.6628  1.4245
  684MOL0     H92320   2.581   3.406   7.763 -1.5504  1.3528 -2.9188
  684MOL0     H92321   2.546   3.243   7.835  0.7026 -0.7692  0.2430
  684MOL0     H92322   3.506   3.012   7.874 -0.3585  1.6974  0.4737
  684MOL0     H92323   3.703   2.884   7.886 -1.2831  0.8405 -0.6677
  684MOL0     H92324   3.888   2.547   8.115  0.9077  0.4769 -1.8934
  684MOL0     H92325   4.066   2.367   8.034 -0.6677  1.2973 -2.0357
  684MOL0     H92326   5.907   2.153   8.456  0.1308 -0.2695  0.1583
  684MOL0     H92327   6.093   2.086   8.589  1.0286 -1.9723 -0.8673
  684MOL0     H92328   6.453   1.668   8.675 -0.8068  1.4721 -1.4103
  684MOL0     H92329   6.639   1.658   8.847  1.4593  5.0977  0.4752
  684MOL0     H92330   6.603   1.881   9.225  1.4318  0.5702  1.6744
  684MOL0     H92331   6.537   1.730   9.270  1.0475  0.7610  2.4340
  684MOL0     H92332   6.752   1.795   9.384  2.6937 -2.9015  2.1851
  684MOL0     H92333   6.830   1.800   9.230 -0.0311  2.8639  2.2962
  684MOL0     H92334   6.781   1.563   9.191  3.8401  3.4044 -0.4952
  684MOL0     H92335   6.696   1.545   9.348  0.1436 -1.4009 -0.4546
  684MOL0     H92336   6.990   1.632   9.310 -3.6166  2.1837 -2.8739
  684MOL0     H92337   6.951   1.468   9.343  0.4739  0.0578  1.0380
  684MOL0     H92338   6.859   1.606   9.722 -1.8401 -0.0962 -0.6816
  684MOL0     H92339   6.371   1.860   9.117 -0.6992  3.4114 -1.9273
  684MOL0     H92340   6.221   1.893   8.950 -0.0201 -1.1958  2.0531
  685MOL0     O92341   7.665   0.341   3.264 -0.1133  0.7386 -0.9566
  685MOL0     C92342   7.601   0.279   3.350  0.8110 -0.7931  0.2189
  685MOL0     O92343   7.518   0.328   3.440  0.2209 -0.2251  0.4514
  685MOL0     C92344   7.447   0.445   3.428 -0.1103 -1.1087 -0.5625
  685MOL0     C92345   7.323   0.445   3.468  0.1690 -0.9515 -0.7311
  685MOL0     C92346   7.253   0.570   3.470  0.4640  0.3434 -0.8323
  685MOL0     C92347   7.300   0.685   3.413  0.6897  0.3960 -0.0696
  685MOL0     O92348   7.210   0.793   3.409  0.1326 -0.0147 -0.1000
  685MOL0     C92349   7.176   0.850   3.544  0.9122  0.2218  0.4236
  685MOL0     C92350   7.210   1.006   3.562 -0.3877  0.1915  0.7360
  685MOL0     C92351   7.350   1.045   3.514 -0.6904 -0.3685 -0.6022
  685MOL0     C92352   7.338   1.109   3.369 -0.0945 -0.1055 -0.1842
  685MOL0     C92353   7.473   1.071   3.297 -0.2329 -1.1226 -0.5543
  685MOL0     C92354   7.581   1.176   3.331  1.0429 -0.1718  0.7110
  685MOL0     C92355   7.712   1.120   3.282 -0.7499  0.4779  0.3779
  685MOL0     C92356   7.836   1.201   3.324 -0.5068  0.4349  0.2895
  685MOL0     N92357   7.814   1.346   3.299  0.2753  0.3856  0.1958
  685MOL0     C92358   7.840   1.401   3.178  0.4139  0.2984  0.2469
  685MOL0     C92359   7.775   1.523   3.180  0.0052 -0.2773  0.4609
  685MOL0     C92360   7.756   1.621   3.062  0.5602  0.7379 -0.0987
  685MOL0     C92361   7.611   1.601   2.996  0.2213  0.0847 -0.2898
  685MOL0     C92362   7.614   1.668   2.855 -0.6041 -0.7352  0.3855
  685MOL0     C92363   7.478   1.681   2.785  0.0815 -0.1570  0.4694
  685MOL0     O92364   7.399   1.772   2.862  1.1368 -0.2630  0.0283
  685MOL0     C92365   7.261   1.794   2.843 -0.1473 -0.4028  0.1605
  685MOL0     C92366   7.194   1.893   2.922 -0.1961  0.8435 -0.4216
  685MOL0     C92367   7.057   1.919   2.918 -0.8106  0.3978  0.0859
  685MOL0     C92368   7.010   2.036   3.000 -0.6629  0.0043 -0.5317
  685MOL0     C92369   6.987   1.858   2.806 -1.0392  1.2030 -0.2225
  685MOL0     C92370   6.840   1.878   2.782 -0.4222  0.1856  0.0530
  685MOL0     O92371   6.758   1.951   2.865  0.5294  0.2773 -0.5973
  685MOL0     C92372   6.617   1.958   2.853  0.3828  0.1888 -0.2060
  685MOL0     C92373   6.552   2.081   2.841  0.3492  1.1211  0.1408
  685MOL0     C92374   6.415   2.097   2.809 -0.2516  0.5543 -0.3853
  685MOL0     C92375   6.340   1.984   2.769 -0.4330  0.4470 -0.4955
  685MOL0     O92376   6.206   1.985   2.734  0.7254 -0.3272 -0.5389
  685MOL0     C92377   6.136   2.109   2.721 -0.0444 -0.0498 -0.7010
  685MOL0     C92378   6.008   2.087   2.638 -0.3697 -1.4036 -0.2590
  685MOL0     C92379   5.902   1.993   2.703 -0.1287 -0.0487  0.5341
  685MOL0     C92380   5.766   2.033   2.642 -0.4882  0.0544  0.1369
  685MOL0     C92381   5.644   1.958   2.698 -0.1785  0.6456  0.5525
  685MOL0     C92382   5.524   1.990   2.606  0.4626  0.8650  0.6779
  685MOL0     C92383   5.397   1.936   2.677  0.4561 -0.9879  0.3064
  685MOL0     C92384   5.288   2.044   2.676  0.5226 -0.6733 -0.4798
  685MOL0    Cl92385   5.262   2.101   2.502  0.0708 -0.2542  0.3004
  685MOL0     C92386   6.404   1.856   2.789 -0.8361  0.3628  0.8391
  685MOL0     C92387   6.540   1.842   2.836  0.3960 -0.1588  0.0053
  685MOL0     O92388   6.800   1.823   2.684  0.0026  0.0403 -0.3230
  685MOL0     C92389   7.062   1.752   2.736  0.4986 -0.2012  0.1266
  685MOL0     C92390   7.193   1.720   2.757  0.2658 -0.2832  0.2752
  685MOL0     N92391   7.713   1.536   3.304 -0.0382 -0.0617 -0.0240
  685MOL0     N92392   7.742   1.429   3.374 -0.2897 -0.3969 -0.0446
  685MOL0     C92393   7.422   0.671   3.355  1.1920 -0.0369  0.2255
  685MOL0     C92394   7.504   0.563   3.372 -0.3706  0.9388  0.4122
  685MOL0     C92395   7.627   0.133   3.351 -0.7214  0.8682  0.1396
  685MOL0     C92396   7.561   0.050   3.444  0.0178  0.1961  0.2067
  685MOL0     C92397   7.584  -0.092   3.448 -0.1108  0.0995  0.2189
  685MOL0     C92398   7.675  -0.158   3.364  0.8781  0.0192  0.6534
  685MOL0     O92399   7.703  -0.296   3.380  0.3366  0.7637  0.4240
  685MOL0     C92400   7.820  -0.359   3.329 -0.7182 -0.1213  0.1705
  685MOL0     C92401   7.809  -0.507   3.357  0.0490 -0.0795  0.3553
  685MOL0     C92402   7.820  -0.540   3.510  0.2578  0.2994 -0.2714
  685MOL0     C92403   7.766  -0.686   3.533 -0.3951 -0.0752  0.2007
  685MOL0     C92404   7.861  -0.789   3.477  0.5481 -0.7985 -0.0158
  685MOL0     C92405   7.934  -0.867   3.433  0.2022  0.8660  0.3883
  685MOL0     C92406   7.724  -0.072   3.263  0.5707  0.1044 -0.2285
  685MOL0     C92407   7.705   0.070   3.254 -0.3667  0.2247  0.3498
  685MOL0     H92408   7.279   0.354   3.508 -1.4155 -0.2101 -0.7020
  685MOL0     H92409   7.159   0.552   3.523  0.6276 -1.1984 -1.0196
  685MOL0     H92410   7.070   0.841   3.569  0.7447  1.0993  0.0821
  685MOL0     H92411   7.230   0.803   3.626  1.9684  3.6085  1.8539
  685MOL0     H92412   7.135   1.073   3.519 -1.8383 -1.1922  1.0243
  685MOL0     H92413   7.214   1.018   3.671 -0.1824  2.8621  0.5079
  685MOL0     H92414   7.398   1.118   3.579 -0.8429 -0.6987 -0.1146
  685MOL0     H92415   7.413   0.956   3.527 -2.3802 -1.2908  2.0019
  685MOL0     H92416   7.253   1.056   3.326 -3.0763  2.7775  1.7390
  685MOL0     H92417   7.311   1.214   3.357  2.1000  0.4481 -0.6947
  685MOL0     H92418   7.504   0.972   3.333 -0.7401 -0.1742  2.8215
  685MOL0     H92419   7.458   1.058   3.189  1.2527 -0.2692 -0.8934
  685MOL0     H92420   7.554   1.271   3.283 -1.0083 -1.3586 -0.6638
  685MOL0     H92421   7.578   1.197   3.438 -0.0041 -0.4236  0.7453
  685MOL0     H92422   7.728   1.014   3.306  0.7801  0.7722  0.7379
  685MOL0     H92423   7.711   1.126   3.173  1.3316  3.4414  0.4205
  685MOL0     H92424   7.924   1.177   3.265 -0.1917  4.1793 -1.0358
  685MOL0     H92425   7.858   1.199   3.431  1.6414  3.5170  0.0130
  685MOL0     H92426   7.891   1.347   3.099  1.0293 -2.4742  2.3763
  685MOL0     H92427   7.766   1.724   3.097 -1.5066  1.0768 -0.3459
  685MOL0     H92428   7.839   1.606   2.992  2.6708  0.5744  2.3099
  685MOL0     H92429   7.548   1.656   3.065 -0.5215 -0.8838 -0.1808
  685MOL0     H92430   7.586   1.496   2.981  2.6787 -0.4470 -1.1186
  685MOL0     H92431   7.699   1.621   2.803 -0.7431 -1.4600  0.7936
  685MOL0     H92432   7.634   1.773   2.878 -0.9202 -0.2203 -1.5249
  685MOL0     H92433   7.434   1.582   2.768 -1.3597  0.6985 -1.2051
  685MOL0     H92434   7.491   1.731   2.688  1.2280  0.2101  0.7957
  685MOL0     H92435   7.254   1.942   2.999  0.8702  0.5243 -1.0378
  685MOL0     H92436   7.082   2.116   3.019 -1.2773  0.1183  1.5031
  685MOL0     H92437   6.941   2.087   2.932  0.7460  1.2224 -1.1184
  685MOL0     H92438   6.982   2.005   3.101  5.4531 -0.5255  1.4281
  685MOL0     H92439   6.604   2.170   2.875  3.1808 -0.9738  1.6501
  685MOL0     H92440   6.380   2.200   2.810  3.2563  1.9050 -0.9294
  685MOL0     H92441   6.098   2.144   2.818 -1.6743 -0.6909 -1.0745
  685MOL0     H92442   6.193   2.186   2.669  0.7742  1.1796  1.8838
  685MOL0     H92443   5.960   2.183   2.616  0.9875 -0.8427 -0.9125
  685MOL0     H92444   6.045   2.041   2.546 -1.7784  1.0188 -2.1489
  685MOL0     H92445   5.891   2.002   2.812 -1.5663  2.7174  0.2598
  685MOL0     H92446   5.924   1.892   2.669 -2.8814 -0.1710 -1.2333
  685MOL0     H92447   5.755   2.138   2.672  2.1940  0.1802  0.9725
  685MOL0     H92448   5.769   2.014   2.535  0.9936 -1.3057  0.3826
  685MOL0     H92449   5.626   1.989   2.801 -4.1281 -2.8276  1.1658
  685MOL0     H92450   5.659   1.850   2.693 -2.1854  0.3727 -1.1357
  685MOL0     H92451   5.519   2.098   2.586 -0.9077  0.2958 -2.5602
  685MOL0     H92452   5.530   1.947   2.506 -0.9132 -0.6437  1.2010
  685MOL0     H92453   5.409   1.897   2.779 -4.4146 -1.3524  1.0006
  685MOL0     H92454   5.357   1.849   2.624 -1.2599 -0.5165  0.7505
  685MOL0     H92455   5.295   2.129   2.745  3.5532 -0.4097 -0.9784
  685MOL0     H92456   5.196   1.995   2.709 -0.4263 -0.1421 -2.2219
  685MOL0     H92457   6.346   1.766   2.770 -3.1989  1.9956 -0.0196
  685MOL0     H92458   6.588   1.745   2.832  0.5622 -0.0906  0.3849
  685MOL0     H92459   7.026   1.696   2.650  1.9880  1.0005 -1.3623
  685MOL0     H92460   7.239   1.649   2.688 -1.9078 -0.1820 -1.3672
  685MOL0     H92461   7.478   0.750   3.305  4.0420 -1.3515  1.0959
  685MOL0     H92462   7.602   0.569   3.326 -1.0184 -0.6128 -1.2612
  685MOL0     H92463   7.500   0.092   3.524 -1.7534 -2.2874  0.2972
  685MOL0     H92464   7.551  -0.140   3.539  0.9649 -1.0287  0.0416
  685MOL0     H92465   7.844  -0.351   3.223  1.1283  1.4074  0.6484
  685MOL0     H92466   7.908  -0.330   3.386  0.2768 -3.0891  0.3197
  685MOL0     H92467   7.887  -0.562   3.304 -1.5070 -1.0437 -1.0025
  685MOL0     H92468   7.709  -0.531   3.322 -0.8324  2.7514  0.7129
  685MOL0     H92469   7.755  -0.471   3.563 -1.3184  0.2120 -1.9931
  685MOL0     H92470   7.920  -0.524   3.551 -0.1779 -0.4148  1.1286
  685MOL0     H92471   7.665  -0.696   3.493 -0.8161  3.6207  0.0384
  685MOL0     H92472   7.757  -0.705   3.641 -1.5375  0.2295  0.1693
  685MOL0     H92473   7.998  -0.936   3.382  0.9430  1.6921  0.1805
  685MOL0     H92474   7.790  -0.116   3.189  1.0328  0.2221  0.1071
  685MOL0     H92475   7.743   0.126   3.169 -1.5546  0.7972  0.1747
  686MOL0     O92476   9.497   9.327   6.999 -0.3107  0.0916 -0.5530
  686MOL0     C92477   9.418   9.285   6.912  0.6568 -0.0266 -0.2603
  686MOL0     O92478   9.453   9.198   6.809  0.3190 -0.4061 -0.3418
  686MOL0     C92479   9.588   9.153   6.807 -0.1330 -0.7228  0.2768
  686MOL0     C92480   9.626   9.027   6.859  0.0918 -0.0992 -0.0934
  686MOL0     C92481   9.759   8.984   6.853 -0.5157  0.2652 -0.0630
  686MOL0     C92482   9.850   9.058   6.788 -0.4940  0.5327 -0.4048
  686MOL0     O92483   9.980   9.008   6.781  0.0959  0.1566 -0.6543
  686MOL0     C92484  10.033   8.997   6.643 -0.5238  0.3110 -1.3078
  686MOL0     C92485  10.123   8.873   6.649 -0.6570  0.3446 -0.1486
  686MOL0     C92486  10.233   8.881   6.549 -0.2228 -0.0519  0.3805
  686MOL0     C92487  10.296   8.743   6.510  1.0317  0.5786  0.4977
  686MOL0     C92488  10.207   8.620   6.485 -0.0807 -1.1462  0.1368
  686MOL0     C92489  10.084   8.634   6.394 -0.1043 -0.3120 -0.5674
  686MOL0     C92490  10.013   8.502   6.364  0.6815  0.5984  1.2653
  686MOL0     C92491   9.909   8.511   6.248 -0.1414  0.1450  0.3146
  686MOL0     N92492   9.783   8.571   6.296 -0.6284  0.0138  0.5389
  686MOL0     C92493   9.704   8.505   6.381  0.1838  0.1270  0.5564
  686MOL0     C92494   9.591   8.587   6.388 -0.3210  0.7766 -0.0085
  686MOL0     C92495   9.466   8.553   6.459 -0.0636  0.0207 -0.5151
  686MOL0     C92496   9.381   8.440   6.396  0.2251 -0.3882  0.0570
  686MOL0     C92497   9.318   8.481   6.257  0.5081 -0.7597 -0.1003
  686MOL0     C92498   9.207   8.584   6.267 -1.3983  1.1742  0.7586
  686MOL0     O92499   9.108   8.539   6.364 -0.1175  0.5141  0.5427
  686MOL0     C92500   8.988   8.610   6.348  0.3649  0.1857 -1.0560
  686MOL0     C92501   8.947   8.713   6.258  0.3050  0.2636  0.5169
  686MOL0     C92502   8.820   8.777   6.269  0.0387  0.0488 -0.3803
  686MOL0     C92503   8.782   8.890   6.184 -0.0551  0.0874 -0.7121
  686MOL0     C92504   8.737   8.726   6.365  0.3993 -0.1406 -0.3276
  686MOL0     C92505   8.598   8.785   6.397 -0.1519  0.1196  0.6576
  686MOL0     O92506   8.502   8.685   6.403 -0.2201 -0.0423  1.4930
  686MOL0     C92507   8.383   8.737   6.445 -0.4819 -0.4739  0.7857
  686MOL0     C92508   8.304   8.807   6.354  1.2846  1.1969  0.2765
  686MOL0     C92509   8.177   8.848   6.396  0.0194  0.9319 -0.0499
  686MOL0     C92510   8.122   8.825   6.519  0.3251 -0.8300  0.7926
  686MOL0     O92511   8.004   8.870   6.569  0.8720  0.0586  0.1214
  686MOL0     C92512   7.944   8.994   6.515 -0.4883  0.0113  1.1170
  686MOL0     C92513   7.832   9.059   6.608 -0.0395  0.4080  0.5544
  686MOL0     C92514   7.706   8.982   6.608 -0.7840 -0.3384 -0.5003
  686MOL0     C92515   7.604   9.031   6.715  1.1618 -0.8170 -0.1209
  686MOL0     C92516   7.486   8.939   6.742 -0.7412  0.6655  0.5160
  686MOL0     C92517   7.410   8.991   6.862 -0.4306 -0.2841 -0.2385
  686MOL0     C92518   7.279   8.916   6.895 -0.3715 -0.8174  0.7384
  686MOL0     C92519   7.215   8.988   7.012  0.4665  0.4007  0.2087
  686MOL0    Cl92520   7.057   8.903   7.076  0.4730 -0.2043 -0.1708
  686MOL0     C92521   8.210   8.764   6.612  0.1252 -0.1347 -0.1394
  686MOL0     C92522   8.333   8.718   6.572  0.4967 -0.0290 -0.3046
  686MOL0     O92523   8.584   8.902   6.432 -0.2225 -0.7124  0.2198
  686MOL0     C92524   8.776   8.618   6.445 -0.6430 -1.0651 -0.5272
  686MOL0     C92525   8.897   8.559   6.440 -0.2761  0.2250  1.2027
  686MOL0     N92526   9.618   8.700   6.318  0.0976 -0.4346  0.0018
  686MOL0     N92527   9.730   8.691   6.264  0.1104 -0.0281  0.3421
  686MOL0     C92528   9.816   9.188   6.740 -0.3354 -0.1556  0.1980
  686MOL0     C92529   9.688   9.233   6.751 -0.4538 -0.0652  0.1718
  686MOL0     C92530   9.282   9.331   6.928 -0.0616 -0.3684  0.0069
  686MOL0     C92531   9.198   9.349   6.812  0.5090  0.3066  0.0638
  686MOL0     C92532   9.083   9.413   6.815 -0.1178 -0.0267  0.5245
  686MOL0     C92533   9.029   9.461   6.942 -0.4426  0.8987  0.5376
  686MOL0     O92534   8.901   9.514   6.952 -0.1370  0.0676 -0.1207
  686MOL0     C92535   8.799   9.504   6.847 -0.7041 -0.2272  0.3992
  686MOL0     C92536   8.660   9.570   6.878  0.1251  0.5178 -0.4788
  686MOL0     C92537   8.551   9.479   6.831  0.1434  0.3641  0.2121
  686MOL0     C92538   8.424   9.561   6.806 -0.0272 -0.8502 -0.3825
  686MOL0     C92539   8.376   9.604   6.935 -0.2179 -0.2090  0.3092
  686MOL0     C92540   8.330   9.633   7.041 -0.5268 -0.2982 -0.2661
  686MOL0     C92541   9.098   9.438   7.048  0.1153  0.2010 -0.0017
  686MOL0     C92542   9.222   9.374   7.044  0.1463  0.4741 -1.1240
  686MOL0     H92543   9.548   8.968   6.907  1.0965  0.4202  2.2708
  686MOL0     H92544   9.787   8.887   6.894 -2.5976 -0.8763 -1.1739
  686MOL0     H92545   9.949   8.979   6.574 -2.5808  1.5356  0.7154
  686MOL0     H92546  10.081   9.092   6.615 -0.1179  0.8471  0.9998
  686MOL0     H92547  10.161   8.854   6.749 -2.0006 -0.4899  0.2216
  686MOL0     H92548  10.059   8.785   6.636 -2.0219  0.9538  2.0529
  686MOL0     H92549  10.188   8.911   6.454 -0.2975 -0.2781  0.3443
  686MOL0     H92550  10.310   8.948   6.589 -0.4036 -0.2273  1.0348
  686MOL0     H92551  10.355   8.767   6.421  0.8883  1.3834  0.6142
  686MOL0     H92552  10.361   8.709   6.592 -1.2809 -0.9737  1.7741
  686MOL0     H92553  10.273   8.548   6.436  0.6812  0.4950 -1.3363
  686MOL0     H92554  10.180   8.586   6.585  3.3278  0.4505  1.7326
  686MOL0     H92555  10.024   8.716   6.435 -0.6542 -0.9018 -0.1847
  686MOL0     H92556  10.110   8.674   6.295  0.2023  0.9091 -0.0130
  686MOL0     H92557  10.078   8.417   6.340 -0.5953 -0.1089  0.2016
  686MOL0     H92558   9.959   8.454   6.446 -4.0486  0.9963 -1.3123
  686MOL0     H92559   9.891   8.412   6.204  1.7904  1.0154 -2.7238
  686MOL0     H92560   9.962   8.567   6.170 -0.0518  2.9792  2.2627
  686MOL0     H92561   9.713   8.408   6.429 -2.7539 -0.7348 -0.4476
  686MOL0     H92562   9.496   8.527   6.561 -0.9184  1.0068  0.0245
  686MOL0     H92563   9.407   8.643   6.481 -2.4447 -1.4359 -0.5276
  686MOL0     H92564   9.299   8.420   6.465 -0.4387  1.3036 -0.1883
  686MOL0     H92565   9.441   8.351   6.378 -0.9469 -1.0270 -0.8375
  686MOL0     H92566   9.287   8.385   6.213  0.7917 -1.4210  1.0984
  686MOL0     H92567   9.390   8.523   6.186 -1.2163 -0.7521 -1.9528
  686MOL0     H92568   9.187   8.584   6.159  3.2306 -0.8074 -0.3681
  686MOL0     H92569   9.257   8.674   6.303  0.1799  0.9970 -0.8333
  686MOL0     H92570   9.008   8.747   6.175 -0.6836  1.9375  0.4213
  686MOL0     H92571   8.774   8.981   6.244 -2.6761 -0.8292  0.4842
  686MOL0     H92572   8.866   8.900   6.114 -0.3045  0.7130 -0.9310
  686MOL0     H92573   8.689   8.869   6.130 -0.1213  0.3597 -0.7070
  686MOL0     H92574   8.329   8.827   6.250 -0.2832  2.9963  0.1863
  686MOL0     H92575   8.113   8.892   6.320  2.6393  1.3030 -2.1851
  686MOL0     H92576   8.023   9.069   6.509 -0.8980  0.5738  2.3952
  686MOL0     H92577   7.892   8.974   6.422 -3.0932  1.4603  2.1630
  686MOL0     H92578   7.868   9.064   6.712 -0.4241 -0.1347  0.7138
  686MOL0     H92579   7.805   9.158   6.571 -2.5484  0.5820  2.5520
  686MOL0     H92580   7.727   8.888   6.660 -1.7238 -0.0548  0.4361
  686MOL0     H92581   7.676   8.974   6.503 -1.4195 -1.0815 -0.2707
  686MOL0     H92582   7.661   9.033   6.808  0.1329  2.6421  0.5592
  686MOL0     H92583   7.579   9.132   6.682  4.4203 -0.1043 -0.7955
  686MOL0     H92584   7.520   8.837   6.759  0.8609  1.3875  2.0578
  686MOL0     H92585   7.431   8.928   6.649 -0.9187  0.7254  0.6129
  686MOL0     H92586   7.473   8.989   6.951  1.2038  1.3525 -1.2564
  686MOL0     H92587   7.383   9.094   6.837 -0.4957  0.0125  1.0276
  686MOL0     H92588   7.305   8.811   6.909  0.2244 -0.6825  0.6643
  686MOL0     H92589   7.206   8.924   6.814  2.5470  1.5333 -1.9360
  686MOL0     H92590   7.183   9.089   6.985 -1.5331  0.5255  2.7325
  686MOL0     H92591   7.288   9.000   7.093  0.0833  3.8463  0.1970
  686MOL0     H92592   8.184   8.744   6.716 -2.7422  2.8409 -0.1331
  686MOL0     H92593   8.401   8.672   6.642  0.9023 -0.1543 -0.7735
  686MOL0     H92594   8.705   8.565   6.508 -3.6325  1.0246 -1.9163
  686MOL0     H92595   8.925   8.472   6.500  1.5008  0.5163  0.8431
  686MOL0     H92596   9.892   9.252   6.697 -1.3171  0.4886 -0.6285
  686MOL0     H92597   9.669   9.336   6.721 -0.5336 -0.5021 -1.3829
  686MOL0     H92598   9.236   9.328   6.713 -0.3190  0.6088 -0.3256
  686MOL0     H92599   9.053   9.443   6.715 -5.1639  0.6426  1.9699
  686MOL0     H92600   8.846   9.555   6.763 -1.5152 -0.4155 -0.1783
  686MOL0     H92601   8.790   9.402   6.807  0.7130 -0.8112  1.4745
  686MOL0     H92602   8.658   9.666   6.825 -0.8517  0.2980 -0.8629
  686MOL0     H92603   8.649   9.582   6.986 -2.7088 -1.7731 -0.3686
  686MOL0     H92604   8.529   9.399   6.902 -1.8348  0.5557 -0.1363
  686MOL0     H92605   8.573   9.440   6.732 -0.1116  0.5505  0.0813
  686MOL0     H92606   8.356   9.493   6.753 -0.7650  0.2468 -0.8864
  686MOL0     H92607   8.444   9.641   6.734 -1.1680 -1.5112 -1.4749
  686MOL0     H92608   8.287   9.652   7.137  0.7373  0.2381  0.2159
  686MOL0     H92609   9.058   9.467   7.145 -2.0315 -3.5393  0.4519
  686MOL0     H92610   9.290   9.375   7.129  0.6771  3.3301 -1.4638
  687MOL0     O92611   6.946   6.809   3.892  0.0107 -0.3907  0.4621
  687MOL0     C92612   6.967   6.689   3.892 -0.2402  0.0945  0.2549
  687MOL0     O92613   6.871   6.590   3.925 -0.0093  0.4916  0.0109
  687MOL0     C92614   6.754   6.633   3.988 -0.9015  0.3932 -0.4841
  687MOL0     C92615   6.724   6.591   4.117  0.6257  0.0211  1.0791
  687MOL0     C92616   6.628   6.660   4.186  1.5728 -0.1902  0.5674
  687MOL0     C92617   6.547   6.759   4.125 -0.0069  0.0633 -0.4497
  687MOL0     O92618   6.445   6.803   4.205  0.7014 -0.3357  0.4882
  687MOL0     C92619   6.357   6.900   4.141 -0.5735  0.3853  0.6089
  687MOL0     C92620   6.262   6.921   4.258 -0.1652 -0.4426  0.2498
  687MOL0     C92621   6.120   6.980   4.221  0.2467 -0.2103 -0.3771
  687MOL0     C92622   6.024   6.960   4.341  0.4071  0.2652 -0.1779
  687MOL0     C92623   5.873   6.973   4.304 -0.7578 -0.9323  0.0623
  687MOL0     C92624   5.832   7.124   4.267  0.6937 -0.3199 -0.5581
  687MOL0     C92625   5.679   7.151   4.255 -0.1947  0.5112  0.6179
  687MOL0     C92626   5.620   7.193   4.382  0.0701  0.2615  0.0063
  687MOL0     N92627   5.485   7.250   4.354 -0.2019  0.3244 -0.2048
  687MOL0     C92628   5.385   7.205   4.276  0.5403 -0.6503  1.1162
  687MOL0     C92629   5.277   7.285   4.294  0.0733  0.6730  0.1389
  687MOL0     C92630   5.157   7.271   4.212  0.5630  0.1606 -0.0226
  687MOL0     C92631   5.069   7.398   4.208 -0.3793  0.3910 -0.1492
  687MOL0     C92632   4.934   7.366   4.141  0.7417  0.3017 -0.0873
  687MOL0     C92633   4.857   7.489   4.114 -0.4407  0.2846 -0.0224
  687MOL0     O92634   4.833   7.532   3.975 -0.2506  0.5241  0.6047
  687MOL0     C92635   4.721   7.472   3.907  0.0785 -0.4557 -0.8549
  687MOL0     C92636   4.651   7.363   3.953 -0.2077 -0.3574  0.0476
  687MOL0     C92637   4.543   7.311   3.886 -0.1629 -0.3058 -0.2136
  687MOL0     C92638   4.483   7.188   3.948  0.0718  0.0479  0.2363
  687MOL0     C92639   4.495   7.374   3.772 -0.0821 -0.1561  0.6845
  687MOL0     C92640   4.374   7.322   3.701  0.7838  0.2628  0.6540
  687MOL0     O92641   4.262   7.303   3.782  0.1093 -0.2922  0.1538
  687MOL0     C92642   4.139   7.260   3.731  0.0990 -0.7888  0.2851
  687MOL0     C92643   4.061   7.353   3.658  0.3463 -0.4405 -0.0776
  687MOL0     C92644   3.930   7.325   3.625 -0.2744  0.2079  0.3649
  687MOL0     C92645   3.865   7.211   3.659 -0.3179  0.2711 -0.0422
  687MOL0     O92646   3.731   7.192   3.628  0.5404 -0.1454  0.6735
  687MOL0     C92647   3.682   7.060   3.632  0.0771  0.2381  0.0513
  687MOL0     C92648   3.550   7.035   3.552 -0.6162 -0.6797 -0.0613
  687MOL0     C92649   3.439   7.127   3.613 -0.4437  0.4340  1.1580
  687MOL0     C92650   3.321   7.142   3.514 -0.0070 -0.4182 -0.4369
  687MOL0     C92651   3.191   7.195   3.588 -0.5003 -0.5026 -0.9962
  687MOL0     C92652   3.078   7.210   3.483 -0.0642 -0.1719  0.3411
  687MOL0     C92653   2.952   7.273   3.548 -0.3312 -0.1287 -0.7764
  687MOL0     C92654   2.826   7.244   3.479 -0.6010  0.9609  0.1976
  687MOL0    Cl92655   2.695   7.354   3.536  0.0479  0.3469  0.1433
  687MOL0     C92656   3.933   7.131   3.753  0.2148  0.3290  0.0892
  687MOL0     C92657   4.072   7.151   3.776  0.3511  0.4994 -0.1143
  687MOL0     O92658   4.379   7.318   3.580  0.1827 -0.4607  0.0359
  687MOL0     C92659   4.557   7.489   3.727 -0.5742 -0.5611 -0.2819
  687MOL0     C92660   4.670   7.539   3.799 -0.3415  0.0325  1.2020
  687MOL0     N92661   5.307   7.384   4.375 -0.2266  0.2913 -0.9596
  687MOL0     N92662   5.428   7.364   4.416  0.4819 -0.3067  0.5554
  687MOL0     C92663   6.562   6.789   3.990  0.4986 -0.4220 -0.6064
  687MOL0     C92664   6.672   6.730   3.924 -0.2286 -0.1886 -0.0679
  687MOL0     C92665   7.096   6.644   3.852 -0.0338  0.3993 -0.4044
  687MOL0     C92666   7.190   6.739   3.805  0.2041 -0.7391  0.3801
  687MOL0     C92667   7.320   6.698   3.772 -0.5852  0.2693 -0.7692
  687MOL0     C92668   7.357   6.563   3.795 -0.4702 -0.1257  1.0323
  687MOL0     O92669   7.490   6.528   3.780 -0.2423 -0.2559 -0.0928
  687MOL0     C92670   7.543   6.413   3.845  0.3204  0.6306 -0.0148
  687MOL0     C92671   7.683   6.373   3.797 -0.3735 -0.2918  0.4434
  687MOL0     C92672   7.778   6.497   3.817 -0.1809 -0.4173  0.1974
  687MOL0     C92673   7.920   6.465   3.790 -0.7250 -0.8387  0.0117
  687MOL0     C92674   8.002   6.570   3.868  0.2463  0.5882  0.5290
  687MOL0     C92675   8.084   6.645   3.914  0.2816 -0.2507  0.2729
  687MOL0     C92676   7.262   6.469   3.848  0.5695  0.2848 -0.0424
  687MOL0     C92677   7.128   6.507   3.870 -0.4117  0.0084  0.2357
  687MOL0     H92678   6.786   6.514   4.162  1.1189 -0.1195  0.1841
  687MOL0     H92679   6.613   6.631   4.289  0.2086 -2.3416 -0.1735
  687MOL0     H92680   6.410   6.988   4.104  0.1990 -0.3574 -0.0675
  687MOL0     H92681   6.296   6.859   4.060 -1.7827  0.0349  1.6438
  687MOL0     H92682   6.261   6.836   4.327  4.0173 -0.6717  0.2794
  687MOL0     H92683   6.314   6.995   4.320 -1.0768  0.8501 -0.4908
  687MOL0     H92684   6.142   7.087   4.212  0.6095  0.1259  3.0444
  687MOL0     H92685   6.075   6.945   4.128 -0.1597  2.4490 -1.2757
  687MOL0     H92686   6.041   6.866   4.393  3.6996  0.8918  0.1288
  687MOL0     H92687   6.045   7.031   4.422 -0.2214 -1.8324  1.9205
  687MOL0     H92688   5.851   6.905   4.221 -2.3161  0.0123 -0.3597
  687MOL0     H92689   5.808   6.945   4.387  0.0739  1.3206  1.5739
  687MOL0     H92690   5.861   7.181   4.356 -0.9649  0.3569 -0.4264
  687MOL0     H92691   5.884   7.157   4.177  0.5363 -1.1159 -0.9458
  687MOL0     H92692   5.665   7.229   4.180  1.8358  0.4202  0.0906
  687MOL0     H92693   5.633   7.056   4.224  2.1787 -0.0373 -1.6222
  687MOL0     H92694   5.673   7.278   4.426 -0.9189  1.6066 -1.3016
  687MOL0     H92695   5.606   7.108   4.449 -0.4702  0.2675 -0.0939
  687MOL0     H92696   5.389   7.124   4.204  1.6677 -0.1026  0.5324
  687MOL0     H92697   5.176   7.251   4.106 -2.5542 -0.9997 -0.4855
  687MOL0     H92698   5.113   7.178   4.250  2.9144 -1.0073  0.0380
  687MOL0     H92699   5.117   7.472   4.143  0.5046  0.2857  0.3647
  687MOL0     H92700   5.057   7.429   4.313 -0.0411 -1.1913  0.3863
  687MOL0     H92701   4.872   7.310   4.211 -0.3052  0.3196 -0.9917
  687MOL0     H92702   4.949   7.309   4.049 -1.6705 -0.3696 -0.1188
  687MOL0     H92703   4.923   7.564   4.159 -0.5005  0.2845  0.0654
  687MOL0     H92704   4.764   7.498   4.171 -0.3024 -0.9532  0.4332
  687MOL0     H92705   4.690   7.304   4.035  0.1710 -1.6605 -1.0328
  687MOL0     H92706   4.477   7.109   3.872  0.0358  0.1499  0.1342
  687MOL0     H92707   4.551   7.162   4.030  2.4004  1.0402 -1.2877
  687MOL0     H92708   4.383   7.202   3.991 -0.2147 -0.7878 -0.1385
  687MOL0     H92709   4.090   7.453   3.628  0.9287 -0.5914 -0.0318
  687MOL0     H92710   3.880   7.405   3.572  0.1185  0.4810  0.4023
  687MOL0     H92711   3.757   6.999   3.583  1.7935  2.6804 -0.5421
  687MOL0     H92712   3.661   7.030   3.735  1.0744  2.2800  0.9145
  687MOL0     H92713   3.566   7.060   3.447 -1.0043 -1.0676 -0.2124
  687MOL0     H92714   3.519   6.931   3.564  0.2007 -1.1195 -1.5178
  687MOL0     H92715   3.486   7.226   3.623 -0.8193  0.6322  0.9634
  687MOL0     H92716   3.418   7.083   3.711 -2.8256 -4.1934 -1.1450
  687MOL0     H92717   3.344   7.208   3.430 -3.4464 -1.7232 -2.6346
  687MOL0     H92718   3.313   7.039   3.480  0.9640 -1.6175  2.5849
  687MOL0     H92719   3.212   7.289   3.640  0.8459 -0.5459 -1.4221
  687MOL0     H92720   3.154   7.127   3.665 -1.5515  1.7190  0.5658
  687MOL0     H92721   3.108   7.282   3.407 -0.3676  0.2520  0.6206
  687MOL0     H92722   3.054   7.119   3.428 -3.0447  1.0508 -0.5797
  687MOL0     H92723   2.968   7.381   3.551  4.7433 -0.6024 -1.6277
  687MOL0     H92724   2.945   7.231   3.649 -0.7144 -0.0626 -0.7757
  687MOL0     H92725   2.799   7.141   3.504  0.2651  0.1394 -1.9898
  687MOL0     H92726   2.833   7.258   3.370 -1.3686  3.4597  0.4157
  687MOL0     H92727   3.887   7.050   3.808 -2.3155  1.3797 -0.3501
  687MOL0     H92728   4.139   7.096   3.841  0.7104  1.4416  0.3320
  687MOL0     H92729   4.513   7.545   3.646  0.2966  0.1922 -0.2556
  687MOL0     H92730   4.716   7.634   3.773 -0.0354 -0.0595  1.4023
  687MOL0     H92731   6.505   6.873   3.954 -1.7399 -1.3088  0.6863
  687MOL0     H92732   6.705   6.764   3.826 -3.0567  1.0370 -0.7011
  687MOL0     H92733   7.168   6.845   3.799  1.7499 -0.3886  0.5123
  687MOL0     H92734   7.398   6.767   3.738  0.5808 -0.6942 -0.1296
  687MOL0     H92735   7.541   6.429   3.953  1.9213  1.5159 -0.0777
  687MOL0     H92736   7.486   6.322   3.828  1.9480  0.0819 -3.3606
  687MOL0     H92737   7.686   6.345   3.691  1.1011  1.9024 -0.1508
  687MOL0     H92738   7.721   6.285   3.849  1.2046  0.9499  1.4829
  687MOL0     H92739   7.755   6.532   3.918 -0.5825  2.4690 -0.7955
  687MOL0     H92740   7.759   6.583   3.752  2.8060 -0.8223 -1.3801
  687MOL0     H92741   7.941   6.479   3.683  0.7355 -1.2658  0.2146
  687MOL0     H92742   7.935   6.360   3.817 -4.6273 -1.4527  0.2830
  687MOL0     H92743   8.162   6.711   3.945  0.8631  0.9097 -3.2437
  687MOL0     H92744   7.287   6.365   3.864 -0.7578 -0.2811 -1.4218
  687MOL0     H92745   7.056   6.438   3.913 -0.5724 -1.1417 -1.7550
  688MOL0     O92746   6.335   8.865  10.879 -0.3629  0.1004  0.0256
  688MOL0     C92747   6.255   8.930  10.811  1.4328  0.0970 -0.3840
  688MOL0     O92748   6.125   8.895  10.771 -0.1308 -0.1077 -0.5369
  688MOL0     C92749   6.069   8.767  10.787  0.1556 -0.4633  0.1380
  688MOL0     C92750   6.130   8.651  10.830 -0.9865  0.2811  0.5385
  688MOL0     C92751   6.069   8.528  10.827 -0.1153  1.4529 -0.0692
  688MOL0     C92752   5.934   8.515  10.809  0.5613 -0.3741 -0.6914
  688MOL0     O92753   5.881   8.393  10.835  0.6641  0.1542  0.1162
  688MOL0     C92754   5.730   8.388  10.837 -0.3354  0.8187 -0.2659
  688MOL0     C92755   5.677   8.244  10.818 -0.2475 -0.1281  0.5752
  688MOL0     C92756   5.527   8.230  10.857  0.8668  0.8528  0.0308
  688MOL0     C92757   5.503   8.083  10.874  0.3429  0.7104  0.1608
  688MOL0     C92758   5.379   8.078  10.962  0.2547  0.2401 -0.1620
  688MOL0     C92759   5.311   7.945  10.988  0.3740  0.8701  1.4177
  688MOL0     C92760   5.212   7.951  11.098 -0.1482  0.4641  0.1276
  688MOL0     C92761   5.269   7.893  11.231  0.6934 -0.0656  0.1657
  688MOL0     N92762   5.171   7.877  11.342  0.6886  0.3743 -0.4894
  688MOL0     C92763   5.048   7.825  11.337  0.2714 -0.2530 -0.4302
  688MOL0     C92764   4.998   7.839  11.465 -0.4297 -0.1764  1.1568
  688MOL0     C92765   4.872   7.771  11.505  0.3201 -0.8070  0.7116
  688MOL0     C92766   4.798   7.849  11.610 -0.4716 -0.7679  0.7661
  688MOL0     C92767   4.840   7.813  11.746 -0.6795  0.1181 -0.3609
  688MOL0     C92768   4.729   7.853  11.844  0.8968 -0.0804 -0.3790
  688MOL0     O92769   4.734   7.787  11.971 -0.1748  0.4155  0.2798
  688MOL0     C92770   4.627   7.715  12.020 -0.2920 -0.1380 -0.0080
  688MOL0     C92771   4.495   7.724  11.978 -0.3586 -0.3784  1.1555
  688MOL0     C92772   4.400   7.646  12.040  0.2253  0.8234 -0.3482
  688MOL0     C92773   4.254   7.656  12.008  0.5683  0.7294 -0.3195
  688MOL0     C92774   4.440   7.554  12.144 -0.8562 -0.3145  0.1257
  688MOL0     C92775   4.344   7.474  12.221 -0.9731  0.2907  0.5785
  688MOL0     O92776   4.241   7.548  12.282  0.1362  0.5639 -0.0333
  688MOL0     C92777   4.111   7.499  12.296 -0.1522 -0.2920  0.2580
  688MOL0     C92778   4.027   7.591  12.353  0.6243 -0.8067 -0.0761
  688MOL0     C92779   3.884   7.566  12.348  0.0393  0.2143  0.4654
  688MOL0     C92780   3.839   7.437  12.311 -0.6197 -0.2494  0.0084
  688MOL0     O92781   3.714   7.387  12.310  0.1884 -0.4729 -0.1453
  688MOL0     C92782   3.611   7.465  12.358 -0.4528  0.5148 -0.2441
  688MOL0     C92783   3.498   7.376  12.407  0.6615  0.5402  0.3283
  688MOL0     C92784   3.407   7.348  12.290  0.0549  0.5310  0.4824
  688MOL0     C92785   3.307   7.237  12.329  0.4222  0.3691  0.3399
  688MOL0     C92786   3.221   7.203  12.207 -0.1291  0.0988  0.1136
  688MOL0     C92787   3.129   7.078  12.238 -0.4849 -0.4933 -0.1667
  688MOL0     C92788   3.016   7.055  12.137  1.0795 -0.0717  0.0328
  688MOL0     C92789   2.903   6.967  12.193 -0.3951 -0.2839  0.0218
  688MOL0    Cl92790   2.974   6.838  12.286 -0.1553  0.2878  0.0537
  688MOL0     C92791   3.932   7.341  12.272 -1.3478  0.4813  0.1747
  688MOL0     C92792   4.068   7.367  12.265 -0.1183 -0.3082 -0.3826
  688MOL0     O92793   4.351   7.353  12.216 -0.3250  0.6254  0.2262
  688MOL0     C92794   4.574   7.545  12.185 -0.1940 -0.0906  0.4956
  688MOL0     C92795   4.665   7.625  12.126 -0.5814  0.3310 -0.2225
  688MOL0     N92796   5.079   7.911  11.545 -0.8188  0.3277  0.3852
  688MOL0     N92797   5.189   7.929  11.472  1.0200  0.4495 -0.8268
  688MOL0     C92798   5.861   8.632  10.773  0.3217  0.7228 -0.4444
  688MOL0     C92799   5.931   8.755  10.762 -0.0541  0.0158 -0.1669
  688MOL0     C92800   6.293   9.067  10.778  0.2200 -0.4609  0.4743
  688MOL0     C92801   6.279   9.122  10.653  0.2279 -0.2684  0.4461
  688MOL0     C92802   6.324   9.254  10.641 -0.0073 -0.3615  0.1758
  688MOL0     C92803   6.391   9.331  10.739 -0.1290  0.2314 -0.3136
  688MOL0     O92804   6.427   9.457  10.718  0.4895 -0.1535  0.8156
  688MOL0     C92805   6.554   9.460  10.652 -0.0684 -0.3080  0.5156
  688MOL0     C92806   6.620   9.596  10.679  0.1142  0.4149  0.3347
  688MOL0     C92807   6.630   9.619  10.833  0.6714  0.3153 -0.5402
  688MOL0     C92808   6.774   9.618  10.881 -0.1205  0.1125  0.0902
  688MOL0     C92809   6.872   9.712  10.818  0.0686 -0.4570  0.9931
  688MOL0     C92810   6.965   9.780  10.782  0.6948  0.2541  0.3036
  688MOL0     C92811   6.404   9.264  10.861  0.2547  0.2819 -0.5607
  688MOL0     C92812   6.353   9.131  10.886 -0.7932 -0.3505  1.0062
  688MOL0     H92813   6.235   8.646  10.855 -1.4164 -0.8775  2.3103
  688MOL0     H92814   6.125   8.442  10.861 -2.1575  0.6075  1.3060
  688MOL0     H92815   5.690   8.431  10.929 -0.5032 -2.9387  1.5746
  688MOL0     H92816   5.689   8.441  10.750  0.0695 -0.7449 -1.4411
  688MOL0     H92817   5.680   8.218  10.712  0.4188  0.1601  0.5209
  688MOL0     H92818   5.740   8.178  10.877 -1.6704  0.2942  2.6775
  688MOL0     H92819   5.520   8.272  10.958 -0.9452  0.7434 -0.0010
  688MOL0     H92820   5.455   8.280  10.791 -1.4972 -2.8966 -0.5436
  688MOL0     H92821   5.495   8.037  10.775  0.6607 -0.6049  0.7252
  688MOL0     H92822   5.583   8.037  10.933  0.3991  1.1438  0.4265
  688MOL0     H92823   5.412   8.117  11.059  2.6130 -0.3514 -0.6568
  688MOL0     H92824   5.300   8.144  10.923 -1.1471 -2.3302 -1.9423
  688MOL0     H92825   5.270   7.908  10.893  1.6268  0.5617  0.9753
  688MOL0     H92826   5.379   7.861  11.006 -0.8593 -0.0725  1.8514
  688MOL0     H92827   5.178   8.054  11.101 -1.3906  0.0746  0.0311
  688MOL0     H92828   5.125   7.888  11.077 -1.3386  1.4990  1.7643
  688MOL0     H92829   5.350   7.963  11.253 -0.2524  1.5477 -1.1760
  688MOL0     H92830   5.318   7.796  11.218  0.8117  0.1455 -1.0791
  688MOL0     H92831   5.000   7.774  11.254  1.0704 -2.6796  0.5296
  688MOL0     H92832   4.806   7.768  11.418 -0.5623 -1.2312  1.3761
  688MOL0     H92833   4.886   7.666  11.532 -2.5240 -1.6758 -0.7825
  688MOL0     H92834   4.693   7.822  11.599 -1.3818  2.2182  1.2608
  688MOL0     H92835   4.817   7.955  11.590  3.1980 -1.8501 -2.8732
  688MOL0     H92836   4.932   7.864  11.776 -1.8332  0.4684  3.1253
  688MOL0     H92837   4.849   7.705  11.754  0.1161  0.1719 -0.4769
  688MOL0     H92838   4.632   7.830  11.799  1.7593 -1.8149 -1.4827
  688MOL0     H92839   4.739   7.959  11.869 -0.1982 -0.3042  1.1449
  688MOL0     H92840   4.460   7.795  11.905  2.8748  0.8353  0.6024
  688MOL0     H92841   4.218   7.552  12.004  1.8492  0.2568 -4.1179
  688MOL0     H92842   4.205   7.714  12.086 -2.1130  0.2291 -1.4944
  688MOL0     H92843   4.230   7.703  11.912  0.2507  0.2456 -0.4827
  688MOL0     H92844   4.067   7.688  12.384 -0.3629 -0.5410  0.4140
  688MOL0     H92845   3.813   7.641  12.382 -1.1105 -1.4072  1.7842
  688MOL0     H92846   3.649   7.516  12.447 -1.8295  0.8633  0.1609
  688MOL0     H92847   3.585   7.535  12.279  0.2301  0.5990 -0.4021
  688MOL0     H92848   3.534   7.284  12.454  1.9243 -0.7183 -2.8404
  688MOL0     H92849   3.430   7.438  12.467  1.1617  2.1079 -0.6660
  688MOL0     H92850   3.466   7.332  12.198 -0.1540 -0.4685  0.5048
  688MOL0     H92851   3.356   7.442  12.267  1.0218  0.9216 -0.1615
  688MOL0     H92852   3.362   7.150  12.364 -0.2704 -0.1535  0.1609
  688MOL0     H92853   3.246   7.276  12.411  0.3857 -0.1102  0.5430
  688MOL0     H92854   3.283   7.173  12.122  1.6700  0.3103  1.3053
  688MOL0     H92855   3.171   7.294  12.175  2.6041  1.3485 -0.8920
  688MOL0     H92856   3.206   7.001  12.243 -0.8095 -0.7463  1.4649
  688MOL0     H92857   3.081   7.092  12.335 -0.1636  1.3532 -0.2326
  688MOL0     H92858   3.056   6.996  12.054 -0.1896 -0.1800 -0.5303
  688MOL0     H92859   2.969   7.147  12.102 -0.0971 -1.4559 -2.2913
  688MOL0     H92860   2.838   6.930  12.113 -1.6067  1.3822  0.1863
  688MOL0     H92861   2.835   7.026  12.255 -1.6565 -4.0222  2.5084
  688MOL0     H92862   3.905   7.237  12.256  1.1561 -0.5848  2.1568
  688MOL0     H92863   4.134   7.284  12.243 -0.1644 -0.4334 -0.0511
  688MOL0     H92864   4.603   7.473  12.260 -1.2797 -0.7482  0.3073
  688MOL0     H92865   4.770   7.621  12.154  0.1315 -0.3357 -2.7274
  688MOL0     H92866   5.754   8.643  10.760  0.3831  0.0853 -1.6263
  688MOL0     H92867   5.876   8.845  10.739  1.4272  0.6933 -1.1320
  688MOL0     H92868   6.239   9.062  10.572  0.4383 -0.9812  0.8628
  688MOL0     H92869   6.299   9.299  10.545  3.3011  0.3046 -0.4755
  688MOL0     H92870   6.616   9.378  10.691  1.0240  0.8195  1.2205
  688MOL0     H92871   6.543   9.447  10.544  0.0998  2.0105  0.1648
  688MOL0     H92872   6.556   9.673  10.635 -0.5722 -0.0620  0.4708
  688MOL0     H92873   6.717   9.600  10.628  0.4074 -0.5431  0.7837
  688MOL0     H92874   6.576   9.546  10.894 -0.5136  1.1772 -0.5180
  688MOL0     H92875   6.597   9.722  10.845  4.8872  1.9989 -1.4576
  688MOL0     H92876   6.810   9.516  10.867  1.0241  0.5477 -0.2243
  688MOL0     H92877   6.758   9.646  10.986 -2.0540 -1.7055  0.3339
  688MOL0     H92878   7.041   9.848  10.749 -1.7576  2.4103 -1.3783
  688MOL0     H92879   6.462   9.311  10.939 -0.1230  1.6489 -1.0852
  688MOL0     H92880   6.374   9.076  10.977  1.2592 -0.1441  0.7055
  689MOL0     O92881   4.804  10.394   9.470  0.2592  0.9288 -1.0569
  689MOL0     C92882   4.810  10.449   9.364  0.3118  1.0784  0.1114
  689MOL0     O92883   4.724  10.428   9.255 -0.4579  0.5346  0.4205
  689MOL0     C92884   4.625  10.334   9.242  0.1448  0.1597  0.6752
  689MOL0     C92885   4.565  10.262   9.345  0.5296 -0.5005  0.2139
  689MOL0     C92886   4.463  10.170   9.328 -0.3288  0.5247 -0.1937
  689MOL0     C92887   4.418  10.141   9.200  1.5727  0.1210  0.3334
  689MOL0     O92888   4.320  10.041   9.201 -0.7295 -0.0230  0.8564
  689MOL0     C92889   4.262   9.993   9.077 -0.7758  0.1783  0.8915
  689MOL0     C92890   4.111   9.960   9.084 -0.1472 -0.0769 -1.0981
  689MOL0     C92891   4.069   9.844   9.178  0.1306  0.2850 -0.0737
  689MOL0     C92892   4.160   9.719   9.173 -0.2884 -0.9030  0.6094
  689MOL0     C92893   4.086   9.595   9.223 -0.3796  0.0551 -0.4672
  689MOL0     C92894   4.174   9.468   9.205 -0.0379 -0.1709  0.3245
  689MOL0     C92895   4.106   9.350   9.273 -0.8265 -0.7372  0.0467
  689MOL0     C92896   3.984   9.299   9.197  0.3543 -0.0634  0.2323
  689MOL0     N92897   3.862   9.305   9.279 -0.2712 -0.3819  0.3765
  689MOL0     C92898   3.773   9.206   9.321  0.0761  0.2640 -0.6151
  689MOL0     C92899   3.662   9.268   9.354  0.4989 -1.0066  0.0961
  689MOL0     C92900   3.534   9.207   9.407  0.0982  0.1433 -0.1788
  689MOL0     C92901   3.509   9.250   9.549 -0.6381 -0.1095  0.2734
  689MOL0     C92902   3.464   9.397   9.557  0.3953 -0.1442  0.1058
  689MOL0     C92903   3.355   9.433   9.666 -0.3012 -0.6211 -0.2836
  689MOL0     O92904   3.404   9.395   9.795 -0.9854  0.2619  0.1014
  689MOL0     C92905   3.307   9.384   9.892  0.6618 -0.9735 -0.1385
  689MOL0     C92906   3.292   9.496   9.984 -0.2435  0.3120  0.6107
  689MOL0     C92907   3.192   9.495  10.079 -0.0725  0.1120 -0.2652
  689MOL0     C92908   3.180   9.620  10.166 -0.0070  1.0334  0.3842
  689MOL0     C92909   3.102   9.382  10.078  0.3255 -0.8498  0.2414
  689MOL0     C92910   3.005   9.368  10.187  0.8809  0.3344 -0.2446
  689MOL0     O92911   2.969   9.239  10.210 -0.1835 -0.4462 -0.5010
  689MOL0     C92912   2.874   9.210  10.301  0.2169  0.6970 -0.5183
  689MOL0     C92913   2.861   9.274  10.427  0.7526  0.1523  0.7082
  689MOL0     C92914   2.744   9.257  10.500  0.0847  0.3381 -0.6137
  689MOL0     C92915   2.651   9.162  10.464  0.9269 -0.0268  1.5626
  689MOL0     O92916   2.533   9.139  10.539  0.0163 -0.2681 -0.0178
  689MOL0     C92917   2.418   9.224  10.522  0.5974  0.0931 -0.5207
  689MOL0     C92918   2.288   9.132  10.541  0.8048 -0.4688  0.4062
  689MOL0     C92919   2.167   9.221  10.535  0.1384 -0.1189  0.2183
  689MOL0     C92920   2.048   9.139  10.576 -0.0381 -0.2595  0.2724
  689MOL0     C92921   1.911   9.209  10.571  0.2590  0.0137 -0.5583
  689MOL0     C92922   1.882   9.304  10.450 -0.0451  0.0471  0.6932
  689MOL0     C92923   1.744   9.361  10.468 -0.2463 -0.5180 -0.4898
  689MOL0     C92924   1.674   9.418  10.347 -0.0308 -0.4427  0.3611
  689MOL0    Cl92925   1.666   9.302  10.214 -0.4243 -0.3598  0.0640
  689MOL0     C92926   2.662   9.092  10.344 -0.2762 -0.1176  0.0542
  689MOL0     C92927   2.772   9.124  10.256  0.0841 -0.2120  0.3386
  689MOL0     O92928   2.938   9.464  10.226 -0.5644  0.1834 -0.3649
  689MOL0     C92929   3.124   9.278   9.989  0.9834  0.1422  0.1591
  689MOL0     C92930   3.228   9.271   9.899  0.2890 -0.6376 -1.1515
  689MOL0     N92931   3.686   9.399   9.348 -1.1369 -0.5671 -0.2640
  689MOL0     N92932   3.812   9.423   9.313  0.0151  0.0536 -0.2135
  689MOL0     C92933   4.486  10.199   9.091 -0.5989 -0.2280 -0.6699
  689MOL0     C92934   4.590  10.297   9.106  0.6618 -0.5065 -0.7858
  689MOL0     C92935   4.921  10.540   9.342 -0.7115  0.2643 -0.3748
  689MOL0     C92936   4.933  10.611   9.219  0.4300  0.1212 -0.3167
  689MOL0     C92937   5.030  10.707   9.205  0.4559  0.6657 -1.0548
  689MOL0     C92938   5.141  10.719   9.302  0.1930 -0.3966  0.2880
  689MOL0     O92939   5.246  10.813   9.293  0.5152  0.6167 -0.6214
  689MOL0     C92940   5.249  10.891   9.187  0.4560 -1.2287 -0.2748
  689MOL0     C92941   5.376  10.977   9.207 -0.1374  0.7046  0.2219
  689MOL0     C92942   5.508  10.904   9.235  0.2561  0.3935  0.9438
  689MOL0     C92943   5.625  11.011   9.239 -0.5470 -0.6080 -0.2517
  689MOL0     C92944   5.693  11.022   9.106 -0.6728  0.6535  0.2600
  689MOL0     C92945   5.758  11.058   9.008  0.3307 -0.6516  1.3971
  689MOL0     C92946   5.139  10.633   9.409  0.5440  0.7819  0.6541
  689MOL0     C92947   5.034  10.539   9.428  0.3867 -0.1226 -0.4583
  689MOL0     H92948   4.588  10.278   9.450 -5.3301 -0.2600  1.7996
  689MOL0     H92949   4.417  10.118   9.411 -2.1114 -1.1805 -2.1049
  689MOL0     H92950   4.277  10.077   9.009 -1.3903 -1.1724 -1.0205
  689MOL0     H92951   4.315   9.904   9.040 -2.6153 -1.4014  1.8173
  689MOL0     H92952   4.047  10.044   9.113  0.1015  0.5001 -2.1551
  689MOL0     H92953   4.076   9.939   8.982  1.4845 -0.8174 -1.5299
  689MOL0     H92954   4.065   9.882   9.280 -1.3811 -0.3461  0.1197
  689MOL0     H92955   3.975   9.803   9.140  0.3714 -0.8963  0.5713
  689MOL0     H92956   4.194   9.696   9.071 -2.9065 -0.9253 -0.3311
  689MOL0     H92957   4.236   9.730   9.251 -0.2726 -1.8673  0.7430
  689MOL0     H92958   4.079   9.596   9.332  2.6903 -0.7328 -0.1721
  689MOL0     H92959   3.985   9.587   9.181 -1.2495  1.5623  1.2173
  689MOL0     H92960   4.191   9.446   9.099 -0.1281 -1.7244  0.6077
  689MOL0     H92961   4.270   9.498   9.248 -1.1289  3.9680  0.3311
  689MOL0     H92962   4.179   9.269   9.267 -2.1315 -1.8507 -1.5873
  689MOL0     H92963   4.097   9.374   9.379 -0.8364  0.3207 -0.1762
  689MOL0     H92964   4.006   9.195   9.169  0.3260  0.2404 -0.9697
  689MOL0     H92965   3.965   9.356   9.107 -1.6031  0.8468  1.1721
  689MOL0     H92966   3.798   9.100   9.318  0.1576  0.2994 -1.9545
  689MOL0     H92967   3.447   9.225   9.345 -0.6489  0.5972  0.9676
  689MOL0     H92968   3.549   9.099   9.414 -0.9647  0.0186  0.3419
  689MOL0     H92969   3.600   9.238   9.608 -0.8003  1.1378  0.8088
  689MOL0     H92970   3.428   9.186   9.583 -0.7582 -0.3107 -0.3716
  689MOL0     H92971   3.416   9.420   9.461  0.4153 -2.9577 -0.6789
  689MOL0     H92972   3.547   9.464   9.579  0.5278 -0.2581 -0.0411
  689MOL0     H92973   3.252   9.397   9.658 -1.3880  1.3834  2.7213
  689MOL0     H92974   3.352   9.542   9.674 -1.1717 -0.7020  0.6042
  689MOL0     H92975   3.324   9.594   9.951  1.3986 -0.3729  0.0250
  689MOL0     H92976   3.086   9.629  10.220  1.2155 -0.4926  2.9615
  689MOL0     H92977   3.263   9.617  10.237  0.7622  2.6827 -0.3921
  689MOL0     H92978   3.179   9.709  10.103  1.1674  0.8210  0.0345
  689MOL0     H92979   2.932   9.348  10.462 -0.7993  0.7709  2.7791
  689MOL0     H92980   2.739   9.324  10.585  0.9624  0.7940 -0.9066
  689MOL0     H92981   2.413   9.307  10.593  0.6688  0.8304 -1.3589
  689MOL0     H92982   2.411   9.249  10.415 -1.6809 -0.6953 -0.6242
  689MOL0     H92983   2.274   9.058  10.461 -3.4547 -0.5785  1.0213
  689MOL0     H92984   2.291   9.078  10.635  0.4382 -0.3259  0.5045
  689MOL0     H92985   2.160   9.273  10.439  0.3450  2.2609  1.4108
  689MOL0     H92986   2.177   9.305  10.605  2.8712  0.1180 -0.3270
  689MOL0     H92987   2.046   9.050  10.513  3.3508  0.2432 -0.7687
  689MOL0     H92988   2.068   9.099  10.676  0.5138 -1.0766 -0.1542
  689MOL0     H92989   1.906   9.275  10.658 -0.6614  1.0460 -1.3642
  689MOL0     H92990   1.832   9.134  10.573  1.1115 -0.9002 -0.1751
  689MOL0     H92991   1.952   9.388  10.448 -0.4588  0.3824  0.1002
  689MOL0     H92992   1.888   9.239  10.363  0.5190 -0.9803  1.4677
  689MOL0     H92993   1.739   9.436  10.547  0.1568 -2.0963  1.1082
  689MOL0     H92994   1.673   9.286  10.506  1.2405 -2.0198 -0.5561
  689MOL0     H92995   1.722   9.505  10.302  1.1250 -0.8237  0.8466
  689MOL0     H92996   1.574   9.434  10.390 -0.5643  1.6345 -1.4102
  689MOL0     H92997   2.581   9.032  10.304 -0.0435 -0.3845 -0.0139
  689MOL0     H92998   2.761   9.078  10.159  1.0131 -0.1117  0.1775
  689MOL0     H92999   3.064   9.187   9.991  1.1391 -0.0613 -2.1197
  689MOL0     H93000   3.237   9.187   9.831 -1.0517 -1.6109 -0.1810
  689MOL0     H93001   4.454  10.172   8.991  1.1687 -2.0781 -0.8063
  689MOL0     H93002   4.617  10.354   9.018 -4.1687 -1.7134 -3.4038
  689MOL0     H93003   4.851  10.602   9.148 -1.1614 -1.2135  1.5655
  689MOL0     H93004   5.010  10.772   9.121 -3.2525  1.2546  0.0865
  689MOL0     H93005   5.259  10.842   9.090 -0.1569  0.6542 -1.3464
  689MOL0     H93006   5.172  10.969   9.181  1.8793  0.1526 -1.7262
  689MOL0     H93007   5.355  11.045   9.289  0.0483  1.6284 -0.4824
  689MOL0     H93008   5.393  11.035   9.116 -0.0016 -1.5636 -1.2815
  689MOL0     H93009   5.514  10.820   9.166 -1.5630 -0.8290  2.1922
  689MOL0     H93010   5.498  10.857   9.333  0.0777  1.0363  1.2391
  689MOL0     H93011   5.700  10.977   9.310 -0.7548 -1.2551 -0.3321
  689MOL0     H93012   5.591  11.103   9.288  0.0880  0.0899 -1.0958
  689MOL0     H93013   5.811  11.102   8.926 -1.5115  2.8919  1.9445
  689MOL0     H93014   5.214  10.658   9.483  1.9677  1.6003 -0.9798
  689MOL0     H93015   5.034  10.489   9.524 -0.9327  1.6864  0.5640
  690MOL0     O93016   7.599   4.077   3.250  0.3000 -0.6732  0.6761
  690MOL0     C93017   7.646   4.171   3.316  0.7775 -0.8191  0.2254
  690MOL0     O93018   7.737   4.163   3.414  0.5579  0.4365  0.0762
  690MOL0     C93019   7.775   4.038   3.449 -0.3433 -0.8093 -0.7420
  690MOL0     C93020   7.753   4.011   3.586  0.8324  0.7416  0.0800
  690MOL0     C93021   7.795   3.894   3.638  0.2287  0.3241  0.3323
  690MOL0     C93022   7.843   3.787   3.555 -0.5269  0.6316  0.3007
  690MOL0     O93023   7.853   3.658   3.599 -0.4608  0.2770 -0.2991
  690MOL0     C93024   7.748   3.567   3.547 -0.5005 -0.0766  0.6997
  690MOL0     C93025   7.616   3.597   3.616 -0.0226  0.3398  0.8076
  690MOL0     C93026   7.512   3.490   3.620  0.2480  0.6119 -0.0642
  690MOL0     C93027   7.520   3.373   3.508  0.3885 -0.5220 -0.3708
  690MOL0     C93028   7.389   3.284   3.522 -0.5253  0.8367 -0.0502
  690MOL0     C93029   7.366   3.215   3.654  0.3155 -0.3249 -0.1191
  690MOL0     C93030   7.258   3.118   3.644 -0.6785 -0.1587  0.6110
  690MOL0     C93031   7.317   2.990   3.592  0.6333  0.6163  0.6895
  690MOL0     N93032   7.219   2.892   3.539  0.2976 -0.4692 -0.5767
  690MOL0     C93033   7.083   2.921   3.529  0.2874 -0.4872 -0.0184
  690MOL0     C93034   7.023   2.820   3.469 -0.1561  0.3776 -0.0717
  690MOL0     C93035   6.879   2.797   3.454  0.6005  0.0093 -0.6872
  690MOL0     C93036   6.815   2.869   3.340  0.9921 -0.6531 -0.0627
  690MOL0     C93037   6.693   2.790   3.284 -0.5753 -0.5652 -0.9456
  690MOL0     C93038   6.623   2.845   3.164 -0.2209  0.3367  0.3396
  690MOL0     O93039   6.519   2.755   3.115  0.1207 -0.9423  0.2023
  690MOL0     C93040   6.392   2.775   3.165  0.0381 -0.6356 -0.3032
  690MOL0     C93041   6.351   2.872   3.257 -0.3661  0.2509  0.5876
  690MOL0     C93042   6.216   2.890   3.293 -0.7065 -0.5147  0.6632
  690MOL0     C93043   6.185   2.999   3.400  0.2247  0.4507  0.3043
  690MOL0     C93044   6.115   2.818   3.230  0.2323 -0.0656  0.1975
  690MOL0     C93045   5.968   2.821   3.246  0.4299  0.7102  0.1442
  690MOL0     O93046   5.885   2.718   3.195  0.0575 -0.2271  0.2334
  690MOL0     C93047   5.747   2.719   3.219  0.3149 -0.2786  0.2041
  690MOL0     C93048   5.663   2.822   3.181  0.2682 -0.0614 -0.3994
  690MOL0     C93049   5.527   2.811   3.198 -0.4396 -0.2351 -0.3072
  690MOL0     C93050   5.480   2.698   3.266 -0.4939  0.0624  0.5092
  690MOL0     O93051   5.348   2.697   3.288 -0.5729  0.2924 -0.4976
  690MOL0     C93052   5.292   2.606   3.391  0.7483 -0.0280  0.6084
  690MOL0     C93053   5.158   2.661   3.445 -0.3512  0.5653 -0.3941
  690MOL0     C93054   5.109   2.588   3.571 -0.9092 -0.8209  0.1910
  690MOL0     C93055   4.989   2.662   3.640 -1.3514  0.0737 -0.0522
  690MOL0     C93056   4.928   2.546   3.733 -0.1481  0.1270  0.1089
  690MOL0     C93057   4.808   2.582   3.817 -0.4753 -1.1114  0.1481
  690MOL0     C93058   4.758   2.470   3.905 -0.4123  0.0946 -0.4448
  690MOL0     C93059   4.671   2.525   4.017  0.5134 -0.1861 -0.0082
  690MOL0    Cl93060   4.520   2.601   3.947  0.4141 -0.2341 -0.8523
  690MOL0     C93061   5.566   2.603   3.317 -0.1997 -0.6485 -0.3753
  690MOL0     C93062   5.699   2.611   3.291  0.0777 -0.5819  0.6828
  690MOL0     O93063   5.924   2.906   3.321 -0.1480  0.4039 -0.8605
  690MOL0     C93064   6.156   2.717   3.144  0.3500 -1.0570  0.0176
  690MOL0     C93065   6.293   2.695   3.117 -0.1862 -0.0650 -1.1581
  690MOL0     N93066   7.124   2.729   3.443  0.1460  0.0306  0.0451
  690MOL0     N93067   7.240   2.774   3.481 -0.2208  0.4378 -0.0054
  690MOL0     C93068   7.873   3.817   3.420  0.8402  0.9491 -0.0171
  690MOL0     C93069   7.842   3.945   3.369 -0.6256 -0.3875 -1.2944
  690MOL0     C93070   7.574   4.293   3.313  0.7767 -0.3991 -0.1892
  690MOL0     C93071   7.646   4.413   3.328  0.2466  0.4347 -1.0061
  690MOL0     C93072   7.579   4.533   3.327  0.1645  0.4801  0.0936
  690MOL0     C93073   7.446   4.546   3.297 -0.0407  0.1625 -0.5884
  690MOL0     O93074   7.389   4.672   3.300  0.0111 -0.0509  0.8592
  690MOL0     C93075   7.283   4.687   3.200 -0.1980 -0.5013 -0.5285
  690MOL0     C93076   7.260   4.834   3.188  0.5795 -0.2863  0.8306
  690MOL0     C93077   7.180   4.887   3.308  0.1944 -0.4763  0.3854
  690MOL0     C93078   7.169   5.035   3.313 -0.3030  0.0287  0.1702
  690MOL0     C93079   7.068   5.084   3.406  0.9977 -0.5896  0.3029
  690MOL0     C93080   6.994   5.141   3.489 -0.5746 -0.7978 -0.5414
  690MOL0     C93081   7.371   4.428   3.280  0.4093  0.0932 -0.0791
  690MOL0     C93082   7.434   4.304   3.292  0.1345  0.2399 -0.0338
  690MOL0     H93083   7.706   4.073   3.661  0.4182  0.7290 -0.1594
  690MOL0     H93084   7.767   3.867   3.740 -2.4553 -4.2899 -1.3138
  690MOL0     H93085   7.739   3.577   3.438  4.8294 -0.6441 -0.0855
  690MOL0     H93086   7.786   3.467   3.569  1.2555  1.0977  3.4574
  690MOL0     H93087   7.637   3.638   3.715  0.3263  1.0142  0.4607
  690MOL0     H93088   7.577   3.680   3.557 -0.7474  1.3197  2.6115
  690MOL0     H93089   7.520   3.445   3.719  1.2930  1.8602  0.4552
  690MOL0     H93090   7.419   3.544   3.602  0.3919  0.8392 -0.1384
  690MOL0     H93091   7.526   3.412   3.405  1.6588  2.8079  0.8250
  690MOL0     H93092   7.609   3.317   3.535 -0.6378 -1.5584  0.9620
  690MOL0     H93093   7.303   3.346   3.495 -1.5391 -1.4819 -2.5814
  690MOL0     H93094   7.390   3.208   3.443  3.2907 -0.4904  1.0389
  690MOL0     H93095   7.458   3.163   3.683 -1.8763 -3.6149  1.5340
  690MOL0     H93096   7.341   3.284   3.734 -0.3085 -1.6302  0.8513
  690MOL0     H93097   7.231   3.106   3.750  1.1083  0.4531  1.1737
  690MOL0     H93098   7.169   3.157   3.592 -0.6112  0.5145  0.9864
  690MOL0     H93099   7.379   2.947   3.672 -1.2176  0.0464  1.8761
  690MOL0     H93100   7.390   3.017   3.516 -0.2377  4.5669  1.0383
  690MOL0     H93101   7.025   2.995   3.584 -0.3242  0.2299 -1.5550
  690MOL0     H93102   6.883   2.687   3.453  0.8255 -0.0741  1.8190
  690MOL0     H93103   6.826   2.826   3.545 -5.9018  0.7307 -4.1580
  690MOL0     H93104   6.889   2.893   3.263  0.0421 -3.2890 -1.9439
  690MOL0     H93105   6.784   2.967   3.377  2.6977 -0.5229  1.1835
  690MOL0     H93106   6.610   2.781   3.355 -2.3532  1.4962 -2.5794
  690MOL0     H93107   6.739   2.696   3.254  5.3511  2.4519 -3.0102
  690MOL0     H93108   6.704   2.831   3.092  1.5006 -0.5852  2.3518
  690MOL0     H93109   6.607   2.953   3.176  1.9417  0.7016  0.3126
  690MOL0     H93110   6.410   2.936   3.322 -0.3455 -0.5404  1.3658
  690MOL0     H93111   6.125   2.939   3.469 -1.3048 -1.3962 -2.4365
  690MOL0     H93112   6.272   3.048   3.445  0.1290  1.9814 -1.0711
  690MOL0     H93113   6.132   3.087   3.360 -1.1055 -1.3687 -2.2145
  690MOL0     H93114   5.711   2.908   3.135  2.9829 -1.1761  0.1384
  690MOL0     H93115   5.458   2.885   3.159 -1.2119 -0.6031  0.3126
  690MOL0     H93116   5.279   2.510   3.341 -1.6775  0.9690 -0.8533
  690MOL0     H93117   5.356   2.596   3.480  0.5957 -2.3790  0.5032
  690MOL0     H93118   5.181   2.761   3.482 -0.8783 -0.5413  3.3502
  690MOL0     H93119   5.074   2.646   3.376 -1.1300  0.4809  0.5504
  690MOL0     H93120   5.193   2.576   3.640 -0.5193 -0.4793 -0.2179
  690MOL0     H93121   5.083   2.487   3.537  2.2590 -0.8305 -2.8245
  690MOL0     H93122   5.026   2.736   3.712  0.3100 -0.6564 -0.0977
  690MOL0     H93123   4.912   2.696   3.571 -1.2285  1.4718  0.4780
  690MOL0     H93124   5.012   2.518   3.797 -1.1149 -0.5508  1.1305
  690MOL0     H93125   4.895   2.468   3.664  1.7493  1.0398 -1.9959
  690MOL0     H93126   4.853   2.654   3.887  2.3193 -1.5161 -1.1075
  690MOL0     H93127   4.728   2.632   3.761  0.9285  1.2880  0.1377
  690MOL0     H93128   4.846   2.418   3.943  1.5400  2.9089 -0.7901
  690MOL0     H93129   4.703   2.393   3.850  1.2338 -0.7620 -0.9351
  690MOL0     H93130   4.726   2.606   4.066 -1.0748  1.5893 -1.0459
  690MOL0     H93131   4.636   2.446   4.084  1.0525 -1.4004 -1.0943
  690MOL0     H93132   5.537   2.513   3.370 -0.5554  0.2707  1.0476
  690MOL0     H93133   5.761   2.524   3.307  2.1136  0.3871 -1.4073
  690MOL0     H93134   6.093   2.646   3.091  0.0206 -0.0244 -0.9984
  690MOL0     H93135   6.311   2.618   3.043 -0.1760  0.1658 -1.3980
  690MOL0     H93136   7.891   3.733   3.353 -2.8188  0.3401 -0.4430
  690MOL0     H93137   7.848   3.954   3.261 -0.6651  0.0296 -1.2622
  690MOL0     H93138   7.752   4.413   3.351 -0.2735  0.1205  1.6546
  690MOL0     H93139   7.629   4.628   3.346  0.4339  0.2930  0.3219
  690MOL0     H93140   7.304   4.647   3.100 -0.5426  0.5013 -1.0199
  690MOL0     H93141   7.191   4.636   3.232  0.3415 -3.0546 -2.6698
  690MOL0     H93142   7.213   4.864   3.094 -1.2609 -1.2842  1.3876
  690MOL0     H93143   7.353   4.890   3.197  0.0504  0.7235  0.2528
  690MOL0     H93144   7.227   4.849   3.399  1.6100 -3.3147 -1.3758
  690MOL0     H93145   7.077   4.850   3.297  0.3399 -1.1045  1.0098
  690MOL0     H93146   7.134   5.060   3.213 -1.5462  1.8915  1.0270
  690MOL0     H93147   7.267   5.076   3.342 -0.8899  2.0117 -0.4838
  690MOL0     H93148   6.939   5.179   3.572 -0.3295  0.8249 -1.0879
  690MOL0     H93149   7.263   4.423   3.272  0.4794 -0.3626 -0.8176
  690MOL0     H93150   7.380   4.209   3.296  0.3216  0.1767  1.1903
  691MOL0     O93151  11.264   3.555   7.016 -0.7572  0.9213 -0.3788
  691MOL0     C93152  11.340   3.600   6.929  0.1350  0.3057 -0.9066
  691MOL0     O93153  11.308   3.601   6.799 -0.3569  0.6863 -0.4423
  691MOL0     C93154  11.178   3.603   6.757 -0.5449 -0.1151 -0.4003
  691MOL0     C93155  11.066   3.642   6.834 -0.0782  0.7350  0.0533
  691MOL0     C93156  10.938   3.629   6.789  0.8669  0.0909  0.5796
  691MOL0     C93157  10.912   3.589   6.657 -0.8628  0.4092 -0.9241
  691MOL0     O93158  10.789   3.581   6.601 -0.8332  0.3809 -0.1484
  691MOL0     C93159  10.672   3.634   6.660 -0.1560 -0.8380  0.3260
  691MOL0     C93160  10.550   3.591   6.586  0.4564  1.1281 -0.3265
  691MOL0     C93161  10.425   3.684   6.609 -0.9144  0.4967 -0.2408
  691MOL0     C93162  10.323   3.652   6.492 -0.7591  0.1067 -0.4109
  691MOL0     C93163  10.268   3.501   6.507 -0.0441 -0.3080 -0.6538
  691MOL0     C93164  10.158   3.468   6.408 -0.5551 -0.2168 -0.4188
  691MOL0     C93165  10.023   3.541   6.428  0.1127 -0.8357 -0.4633
  691MOL0     C93166   9.913   3.476   6.343 -0.5386 -0.2181  0.9958
  691MOL0     N93167   9.780   3.522   6.373  0.3305 -0.5283 -0.1844
  691MOL0     C93168   9.714   3.635   6.316  0.3539 -0.3109 -0.1171
  691MOL0     C93169   9.600   3.642   6.384  0.2749 -0.2066  0.6598
  691MOL0     C93170   9.499   3.756   6.354  0.1211  0.2923 -0.5015
  691MOL0     C93171   9.341   3.725   6.353 -0.6083 -0.6174  0.1742
  691MOL0     C93172   9.294   3.693   6.495  0.3147 -0.0205 -0.2726
  691MOL0     C93173   9.146   3.648   6.478 -0.8148 -0.6624 -0.1272
  691MOL0     O93174   9.091   3.651   6.610  0.2482 -0.4859  0.2246
  691MOL0     C93175   8.961   3.605   6.626 -0.2294 -0.7672  0.6025
  691MOL0     C93176   8.914   3.608   6.755  0.2253 -0.3865 -0.3350
  691MOL0     C93177   8.783   3.548   6.779 -0.6975  0.6330 -0.1622
  691MOL0     C93178   8.732   3.542   6.925  0.1825 -0.0793  0.2851
  691MOL0     C93179   8.696   3.509   6.669 -0.7480  0.0276 -0.9934
  691MOL0     C93180   8.548   3.479   6.682  0.7477  0.0354  0.2430
  691MOL0     O93181   8.481   3.543   6.785 -0.2811  0.6240  0.5447
  691MOL0     C93182   8.363   3.499   6.817  0.2233 -0.5452 -0.0265
  691MOL0     C93183   8.344   3.390   6.911  0.1842  0.6091  0.4906
  691MOL0     C93184   8.220   3.364   6.979 -0.2368 -0.2425 -0.0618
  691MOL0     C93185   8.106   3.446   6.938  0.7707  0.4207  0.3527
  691MOL0     O93186   7.981   3.439   6.979 -0.0946  0.4547 -0.6916
  691MOL0     C93187   7.971   3.417   7.119  0.2445 -0.2951 -0.0772
  691MOL0     C93188   7.857   3.496   7.187  0.0742  1.2023  0.5593
  691MOL0     C93189   7.721   3.428   7.164  0.1666  0.3596 -0.6124
  691MOL0     C93190   7.616   3.520   7.227 -0.8477 -0.1193  0.5074
  691MOL0     C93191   7.470   3.464   7.214 -0.4488 -0.7651  0.0062
  691MOL0     C93192   7.361   3.569   7.269 -0.2165  0.2719 -0.7866
  691MOL0     C93193   7.380   3.607   7.423  1.2937  0.0540 -0.3528
  691MOL0     C93194   7.283   3.720   7.470  0.3081 -0.0447 -0.4494
  691MOL0    Cl93195   7.111   3.667   7.469  0.2866  0.0133 -0.5289
  691MOL0     C93196   8.119   3.554   6.838  0.1308  0.4356 -0.5108
  691MOL0     C93197   8.248   3.581   6.791 -0.2501  0.2751 -0.7559
  691MOL0     O93198   8.497   3.406   6.598  0.5138  0.4613 -0.1280
  691MOL0     C93199   8.758   3.509   6.548 -0.7754  0.0440  0.6669
  691MOL0     C93200   8.881   3.556   6.522 -0.3541 -0.1848  0.3965
  691MOL0     N93201   9.596   3.553   6.488 -0.3816 -0.2953  0.3903
  691MOL0     N93202   9.708   3.481   6.487  0.2716  0.2996  0.3394
  691MOL0     C93203  11.020   3.551   6.585  0.0821  0.0572  0.6522
  691MOL0     C93204  11.148   3.562   6.628 -1.8170 -0.0038  0.5616
  691MOL0     C93205  11.473   3.657   6.970 -0.5059  0.2298  1.1944
  691MOL0     C93206  11.534   3.765   6.907  0.0057  0.4862  0.5048
  691MOL0     C93207  11.667   3.801   6.940 -0.0675  1.1385  0.5413
  691MOL0     C93208  11.737   3.739   7.040 -0.3881 -0.1187 -0.2320
  691MOL0     O93209  11.869   3.769   7.067  0.1170  0.4347 -0.1343
  691MOL0     C93210  11.938   3.848   6.976  0.0718  0.2092 -0.7397
  691MOL0     C93211  12.087   3.845   7.020 -0.4159 -0.3651  0.8507
  691MOL0     C93212  12.159   3.716   6.980 -0.3157  0.3444 -0.5943
  691MOL0     C93213  12.305   3.721   7.022  0.4267 -0.4227  0.1039
  691MOL0     C93214  12.305   3.680   7.159  0.5086 -0.4942 -0.2204
  691MOL0     C93215  12.297   3.651   7.279 -0.3563 -0.5630  0.3837
  691MOL0     C93216  11.669   3.640   7.112  0.0458  0.5384 -0.0862
  691MOL0     C93217  11.535   3.597   7.086 -0.2767  0.4373  0.7344
  691MOL0     H93218  11.077   3.661   6.940  1.7199 -1.0416  0.2386
  691MOL0     H93219  10.855   3.648   6.857  2.0522  2.3833  1.5177
  691MOL0     H93220  10.647   3.595   6.759 -2.0563 -0.2686  0.1235
  691MOL0     H93221  10.667   3.744   6.660 -1.2239 -0.8375 -2.0047
  691MOL0     H93222  10.583   3.592   6.481  2.3995  2.1832  0.2326
  691MOL0     H93223  10.520   3.490   6.612  1.4469  1.0735  0.6501
  691MOL0     H93224  10.382   3.666   6.707 -2.9726  2.2817 -0.7365
  691MOL0     H93225  10.436   3.793   6.612 -3.1008  0.7252  0.8168
  691MOL0     H93226  10.242   3.725   6.498  1.0018  2.0503  1.3315
  691MOL0     H93227  10.370   3.671   6.395  1.7643  3.5743  1.2659
  691MOL0     H93228  10.342   3.422   6.492 -1.2652 -1.8407  0.8330
  691MOL0     H93229  10.227   3.496   6.609  1.1442 -1.2157 -0.2015
  691MOL0     H93230  10.196   3.504   6.312 -1.8672  0.8901 -0.5495
  691MOL0     H93231  10.139   3.360   6.402 -1.8580 -0.0163 -0.1892
  691MOL0     H93232   9.990   3.540   6.532 -2.3914 -2.4357 -1.1814
  691MOL0     H93233  10.026   3.645   6.394 -1.3221  0.0040  1.7903
  691MOL0     H93234   9.934   3.369   6.354  3.2874 -0.0634 -2.2408
  691MOL0     H93235   9.928   3.493   6.236  2.9444 -7.3434 -0.2376
  691MOL0     H93236   9.754   3.706   6.245 -1.0113 -1.1626 -1.8315
  691MOL0     H93237   9.524   3.819   6.440  2.1859 -1.4425  0.2476
  691MOL0     H93238   9.535   3.806   6.264  2.6324 -2.5555 -1.2272
  691MOL0     H93239   9.322   3.651   6.275 -0.5090 -0.0591 -0.3896
  691MOL0     H93240   9.285   3.813   6.321 -0.9158 -0.6516  0.6166
  691MOL0     H93241   9.303   3.786   6.553 -1.8452 -0.3083  0.6278
  691MOL0     H93242   9.348   3.610   6.541  1.4632  1.6686  1.6284
  691MOL0     H93243   9.136   3.547   6.435 -1.2361 -0.6814  0.0136
  691MOL0     H93244   9.090   3.712   6.409 -0.7599 -0.4053  0.0692
  691MOL0     H93245   8.976   3.646   6.836 -1.0567  2.3003 -0.5005
  691MOL0     H93246   8.663   3.460   6.945 -1.0932  1.1887  1.2444
  691MOL0     H93247   8.813   3.546   7.000  1.3082 -2.0748 -0.7496
  691MOL0     H93248   8.674   3.634   6.936 -1.1991 -0.9057  0.1829
  691MOL0     H93249   8.433   3.331   6.933 -0.8727 -0.9146  0.8775
  691MOL0     H93250   8.230   3.291   7.058 -1.5540 -1.5207 -1.0243
  691MOL0     H93251   7.959   3.310   7.140 -3.0382  0.3130  2.0213
  691MOL0     H93252   8.062   3.445   7.173  2.5770 -2.7153 -2.4629
  691MOL0     H93253   7.877   3.495   7.295 -1.0597 -2.9355  0.9164
  691MOL0     H93254   7.872   3.599   7.154  3.4031  0.4919 -0.5184
  691MOL0     H93255   7.711   3.328   7.208  1.3508  1.6989  3.0015
  691MOL0     H93256   7.714   3.414   7.055  0.8329 -0.1117 -0.6002
  691MOL0     H93257   7.640   3.537   7.332 -0.1828 -1.6544  0.6254
  691MOL0     H93258   7.637   3.610   7.168  4.8082 -1.2423  0.2286
  691MOL0     H93259   7.467   3.367   7.265  0.6131 -0.4053  0.7982
  691MOL0     H93260   7.442   3.441   7.111  3.7284 -2.0838 -1.0353
  691MOL0     H93261   7.377   3.657   7.205 -1.5591  1.4086  0.3699
  691MOL0     H93262   7.262   3.530   7.245  0.0141 -0.9184  0.1466
  691MOL0     H93263   7.483   3.637   7.447  1.2084 -1.2241  1.8715
  691MOL0     H93264   7.355   3.522   7.487 -1.3030  0.3359 -0.8796
  691MOL0     H93265   7.298   3.807   7.406 -0.8986 -0.7666 -1.7717
  691MOL0     H93266   7.314   3.739   7.573 -1.9591  1.6576  0.0095
  691MOL0     H93267   8.039   3.616   6.799  0.6483  1.9663  0.7336
  691MOL0     H93268   8.264   3.657   6.715  0.0041 -1.3011 -2.3315
  691MOL0     H93269   8.693   3.469   6.471 -1.3795  1.0779  0.6189
  691MOL0     H93270   8.908   3.553   6.417  1.0922 -0.2404  0.7499
  691MOL0     H93271  11.012   3.534   6.478 -1.5420  2.7317  0.2378
  691MOL0     H93272  11.231   3.547   6.559 -2.4208  1.1337 -0.4535
  691MOL0     H93273  11.493   3.821   6.824  1.3056  0.7708  0.0374
  691MOL0     H93274  11.718   3.877   6.882  2.6688 -1.1639 -0.3032
  691MOL0     H93275  11.936   3.802   6.877  0.2675 -1.2793 -0.0716
  691MOL0     H93276  11.905   3.952   6.980  2.2974  0.9398 -0.2661
  691MOL0     H93277  12.099   3.875   7.124  1.3864  0.8434  0.3352
  691MOL0     H93278  12.128   3.930   6.965 -4.7704  1.9033  0.6337
  691MOL0     H93279  12.168   3.701   6.872  1.1698  0.8230 -0.5470
  691MOL0     H93280  12.114   3.626   7.023  1.3590 -1.4687 -2.3759
  691MOL0     H93281  12.349   3.819   7.000  2.3470 -1.2505  0.0652
  691MOL0     H93282  12.360   3.648   6.962 -0.3950  0.6565 -2.0827
  691MOL0     H93283  12.284   3.622   7.382 -3.6396 -0.5543  0.0754
  691MOL0     H93284  11.727   3.593   7.191 -0.6017 -0.8699 -0.4079
  691MOL0     H93285  11.487   3.524   7.150  2.0857 -2.1014 -0.1894
  692MOL0     O93286  11.300   5.532   3.366  0.7261 -0.2414  0.4826
  692MOL0     C93287  11.378   5.532   3.274  0.0007 -0.3768  0.9984
  692MOL0     O93288  11.349   5.527   3.148 -0.2454 -0.1912  0.2962
  692MOL0     C93289  11.218   5.509   3.106 -0.1687  0.3089 -0.8850
  692MOL0     C93290  11.134   5.406   3.158  0.2938  0.7413 -0.1181
  692MOL0     C93291  11.004   5.399   3.128 -0.2871 -0.6955 -0.2736
  692MOL0     C93292  10.942   5.496   3.046 -0.6277 -0.0252 -0.3952
  692MOL0     O93293  10.812   5.497   3.010  0.0299  0.2634  1.0408
  692MOL0     C93294  10.721   5.399   3.061 -0.8765 -0.2620  0.0104
  692MOL0     C93295  10.575   5.444   3.045 -0.3960  0.2350  1.2498
  692MOL0     C93296  10.525   5.548   3.149  0.1527  0.1156  0.0486
  692MOL0     C93297  10.373   5.554   3.132  1.0355  0.3073  0.1450
  692MOL0     C93298  10.300   5.656   3.226  0.0598  0.9025  0.1901
  692MOL0     C93299  10.145   5.630   3.219  0.8372 -0.4570  0.1303
  692MOL0     C93300  10.064   5.723   3.121  0.4105  0.7105  0.6398
  692MOL0     C93301   9.943   5.795   3.186 -0.0030  1.0909  0.7394
  692MOL0     N93302   9.891   5.898   3.101 -0.9011  0.4154 -0.1069
  692MOL0     C93303   9.977   5.991   3.038 -0.5274  0.1726 -0.0247
  692MOL0     C93304   9.902   6.048   2.939  0.7217  0.1788 -1.1557
  692MOL0     C93305   9.935   6.172   2.855 -0.4806  0.3542 -0.1534
  692MOL0     C93306   9.862   6.194   2.718  0.1387  0.3697 -0.3516
  692MOL0     C93307   9.734   6.277   2.745  0.5177 -0.9719 -0.2438
  692MOL0     C93308   9.645   6.294   2.624 -0.0134 -0.3513  0.1151
  692MOL0     O93309   9.627   6.175   2.542 -0.5274  0.0985  0.2244
  692MOL0     C93310   9.505   6.108   2.575 -0.2997 -0.2915  0.4069
  692MOL0     C93311   9.480   6.058   2.703  0.7785  0.3901 -0.1131
  692MOL0     C93312   9.360   5.992   2.733 -0.0141  0.0051 -1.0904
  692MOL0     C93313   9.358   5.918   2.871 -0.4127  0.4812 -0.0275
  692MOL0     C93314   9.254   5.975   2.635 -0.2891  0.1443 -0.2708
  692MOL0     C93315   9.132   5.900   2.662 -0.7061  0.1658 -0.0065
  692MOL0     O93316   9.075   5.823   2.563 -0.1441 -0.6880 -0.0842
  692MOL0     C93317   8.978   5.742   2.597  0.0703  0.5915  0.6593
  692MOL0     C93318   9.007   5.610   2.642 -0.2283  0.0198  0.8503
  692MOL0     C93319   8.898   5.527   2.667  0.8795  0.4197  0.1458
  692MOL0     C93320   8.768   5.566   2.661  0.1946 -0.0354 -0.4280
  692MOL0     O93321   8.672   5.477   2.683  0.1188 -0.2996 -0.4689
  692MOL0     C93322   8.569   5.481   2.584 -0.7927  0.3258 -0.3174
  692MOL0     C93323   8.494   5.353   2.583  0.0942  0.6856  0.1025
  692MOL0     C93324   8.389   5.338   2.476 -0.0307 -0.2023  0.4593
  692MOL0     C93325   8.289   5.220   2.483  0.1729  0.0588 -0.4951
  692MOL0     C93326   8.231   5.186   2.344  0.3885 -0.1943 -0.2799
  692MOL0     C93327   8.097   5.111   2.344 -0.4590  0.2054 -0.2464
  692MOL0     C93328   7.986   5.195   2.407  0.9931 -0.0890  0.4184
  692MOL0     C93329   7.850   5.120   2.386 -0.3659 -0.6268  0.4882
  692MOL0    Cl93330   7.813   5.106   2.216 -0.0179 -0.3267 -0.5008
  692MOL0     C93331   8.737   5.695   2.613  0.3251 -0.0046 -0.2120
  692MOL0     C93332   8.844   5.781   2.587  0.5853 -0.1869  0.7356
  692MOL0     O93333   9.084   5.921   2.774  0.2281  0.0473 -0.1057
  692MOL0     C93334   9.282   6.013   2.506 -0.2689 -1.5215 -0.7416
  692MOL0     C93335   9.401   6.088   2.475 -0.7945  0.3905  1.6534
  692MOL0     N93336   9.779   5.991   2.954  0.9798  0.3932 -0.2650
  692MOL0     N93337   9.769   5.908   3.050  0.0448  0.0266 -0.5653
  692MOL0     C93338  11.020   5.598   3.000  0.1022 -0.5883  0.1143
  692MOL0     C93339  11.153   5.605   3.024 -0.1125 -0.2842 -0.5213
  692MOL0     C93340  11.521   5.544   3.304  0.8963  0.7257 -0.1629
  692MOL0     C93341  11.610   5.559   3.210 -0.6559  0.4736  0.2331
  692MOL0     C93342  11.745   5.560   3.237 -0.1796  0.4737 -0.5409
  692MOL0     C93343  11.796   5.556   3.367 -0.4766  0.0629 -0.3176
  692MOL0     O93344  11.930   5.557   3.405  1.2083 -0.4030 -0.4910
  692MOL0     C93345  12.013   5.644   3.331 -0.1377  0.7641  0.6601
  692MOL0     C93346  12.077   5.741   3.439 -0.2414  0.0369  0.1784
  692MOL0     C93347  12.233   5.727   3.456 -0.0265 -0.1621 -0.3596
  692MOL0     C93348  12.283   5.838   3.556 -0.2272 -0.2337 -0.0360
  692MOL0     C93349  12.301   5.975   3.489 -0.2800  0.9259  0.2823
  692MOL0     C93350  12.319   6.089   3.436 -0.0236  0.9124 -0.0058
  692MOL0     C93351  11.699   5.541   3.468  0.7376  0.1418  0.0189
  692MOL0     C93352  11.560   5.531   3.437 -0.0965  0.5589  0.0390
  692MOL0     H93353  11.178   5.336   3.229 -0.7144  1.0836  0.8631
  692MOL0     H93354  10.950   5.314   3.168 -1.3852  0.0089 -0.2097
  692MOL0     H93355  10.732   5.298   3.021  2.0952 -1.3359  3.1381
  692MOL0     H93356  10.748   5.382   3.166  3.7345 -2.0242 -1.2294
  692MOL0     H93357  10.560   5.477   2.942  0.9469 -0.1966  0.8946
  692MOL0     H93358  10.512   5.357   3.066  0.4434 -0.6648  0.1444
  692MOL0     H93359  10.552   5.524   3.252 -0.7682 -0.4444  0.1770
  692MOL0     H93360  10.565   5.646   3.125 -0.9098  0.9306  1.4590
  692MOL0     H93361  10.346   5.586   3.031  1.3227  0.3033  0.0633
  692MOL0     H93362  10.342   5.452   3.157  0.2505  0.1911 -1.2009
  692MOL0     H93363  10.327   5.626   3.328  0.2517 -4.4694 -1.1621
  692MOL0     H93364  10.336   5.757   3.206  0.3671  0.8346  0.3929
  692MOL0     H93365  10.115   5.530   3.188  1.0357 -0.4052 -0.2363
  692MOL0     H93366  10.109   5.650   3.321 -1.7519 -0.3879 -0.7268
  692MOL0     H93367  10.137   5.796   3.086  0.9522 -0.3652 -0.5466
  692MOL0     H93368  10.020   5.663   3.040 -1.1775  2.6209  0.0039
  692MOL0     H93369   9.981   5.845   3.275  1.3362  0.8593  0.3198
  692MOL0     H93370   9.864   5.724   3.215  0.8036  0.7063  2.0796
  692MOL0     H93371  10.084   5.990   3.055 -0.9419  0.2135  3.1572
  692MOL0     H93372   9.927   6.257   2.924 -0.6728 -1.6125  2.4050
  692MOL0     H93373  10.041   6.169   2.831 -0.8484  0.6324 -2.0173
  692MOL0     H93374   9.824   6.096   2.689  0.3203  0.2403 -0.1629
  692MOL0     H93375   9.930   6.225   2.638  0.2373  3.0658  0.6519
  692MOL0     H93376   9.748   6.379   2.781 -2.0196 -1.4348  2.4824
  692MOL0     H93377   9.680   6.234   2.830 -0.6870  1.2500  0.1760
  692MOL0     H93378   9.695   6.362   2.555  2.0261 -0.6002  1.2797
  692MOL0     H93379   9.554   6.342   2.659  2.2940  3.8947  0.8770
  692MOL0     H93380   9.547   6.066   2.789  0.4719 -1.4937  0.3336
  692MOL0     H93381   9.353   5.990   2.953  1.0258  0.6484 -0.0711
  692MOL0     H93382   9.271   5.852   2.877  0.4411 -1.0632 -2.8362
  692MOL0     H93383   9.448   5.857   2.882  1.3987  3.0850  0.5413
  692MOL0     H93384   9.111   5.588   2.663  1.1058  1.5969 -3.1421
  692MOL0     H93385   8.927   5.427   2.698 -2.5271 -0.6373  0.3653
  692MOL0     H93386   8.499   5.563   2.600  1.2857  1.8599  1.3861
  692MOL0     H93387   8.616   5.495   2.486 -1.3044  0.3892 -0.5616
  692MOL0     H93388   8.568   5.273   2.577 -2.1185 -1.3613 -3.1929
  692MOL0     H93389   8.448   5.342   2.682 -1.0235 -0.4904 -0.5181
  692MOL0     H93390   8.435   5.330   2.377 -0.0790 -1.3886  0.5162
  692MOL0     H93391   8.327   5.427   2.462 -1.6736 -1.3263  0.2725
  692MOL0     H93392   8.328   5.135   2.541  0.5649  1.4448  1.3701
  692MOL0     H93393   8.218   5.265   2.553 -0.3473 -1.6540  0.1252
  692MOL0     H93394   8.302   5.125   2.288 -0.5402 -1.9518  0.3597
  692MOL0     H93395   8.207   5.281   2.294 -2.6773 -0.3521  0.6674
  692MOL0     H93396   8.074   5.087   2.240  0.4625 -3.5437  0.2475
  692MOL0     H93397   8.109   5.015   2.395 -3.5671 -0.1549 -0.0042
  692MOL0     H93398   7.981   5.292   2.356 -0.0018 -1.7890 -3.1012
  692MOL0     H93399   8.001   5.218   2.513  0.1088  0.6273  0.4101
  692MOL0     H93400   7.778   5.183   2.439  3.3075  1.3090  3.7656
  692MOL0     H93401   7.855   5.023   2.436  0.0432  0.4972  2.7371
  692MOL0     H93402   8.634   5.729   2.604 -0.2357 -1.8075 -1.1785
  692MOL0     H93403   8.829   5.887   2.568  2.0966  0.1016  1.0542
  692MOL0     H93404   9.210   5.979   2.432  0.3281 -1.4330 -1.3688
  692MOL0     H93405   9.428   6.115   2.374  2.8329 -3.0119  1.4919
  692MOL0     H93406  10.969   5.672   2.939 -1.2186 -0.4233  1.3669
  692MOL0     H93407  11.211   5.686   2.980  2.2695 -0.1962  2.4546
  692MOL0     H93408  11.583   5.565   3.105 -0.3311  0.2623  0.1326
  692MOL0     H93409  11.819   5.573   3.158  0.2854  0.9227 -0.0463
  692MOL0     H93410  12.093   5.583   3.288  1.0223  1.3454  1.9362
  692MOL0     H93411  11.969   5.698   3.246  0.9801 -2.3417 -2.1064
  692MOL0     H93412  12.039   5.717   3.539 -3.0888 -0.7269 -0.9756
  692MOL0     H93413  12.053   5.845   3.417 -1.4839  0.0191  1.3176
  692MOL0     H93414  12.285   5.732   3.360  0.5604  2.1169  0.0009
  692MOL0     H93415  12.258   5.629   3.498  0.5964 -0.8847 -2.3173
  692MOL0     H93416  12.383   5.811   3.591 -0.8049 -1.2446  0.9153
  692MOL0     H93417  12.225   5.841   3.648  2.0582 -0.5690  1.5046
  692MOL0     H93418  12.339   6.174   3.375 -0.4617  0.3400 -0.9602
  692MOL0     H93419  11.725   5.548   3.573 -2.4668 -0.2391  0.9416
  692MOL0     H93420  11.487   5.532   3.517 -2.2019 -1.0058 -1.7769
  693MOL0     O93421   1.998   9.999   0.402  1.2201 -0.1211 -0.0542
  693MOL0     C93422   2.024  10.093   0.482  0.6120  0.4172  0.3195
  693MOL0     O93423   1.928  10.157   0.564 -0.3211  0.4125 -0.5522
  693MOL0     C93424   1.799  10.113   0.559 -0.9436 -0.8126  0.2913
  693MOL0     C93425   1.719  10.128   0.447  0.5061 -1.1152  0.4206
  693MOL0     C93426   1.585  10.098   0.443 -0.5064 -0.6510 -0.3795
  693MOL0     C93427   1.530  10.043   0.562 -0.8614 -0.0889 -0.7394
  693MOL0     O93428   1.398   9.998   0.557  0.0881 -0.0046 -0.0252
  693MOL0     C93429   1.347   9.914   0.655 -0.4553 -0.3872  0.0776
  693MOL0     C93430   1.208   9.855   0.610  0.0351  0.7333 -0.6590
  693MOL0     C93431   1.135   9.789   0.723 -0.3900 -0.2261  0.5921
  693MOL0     C93432   0.988   9.807   0.734 -0.7555 -0.3420  0.0363
  693MOL0     C93433   0.926   9.705   0.824  0.4835  0.6362  0.1700
  693MOL0     C93434   0.773   9.714   0.813  0.3671 -0.7569  0.3706
  693MOL0     C93435   0.716   9.592   0.877  0.5663 -0.0721 -0.4892
  693MOL0     C93436   0.574   9.564   0.830 -0.6543 -0.2219 -0.9738
  693MOL0     N93437   0.493   9.667   0.897  0.1296 -0.2845 -0.5282
  693MOL0     C93438   0.439   9.646   1.027 -0.3593  0.0044  0.6916
  693MOL0     C93439   0.396   9.771   1.074 -0.0044  2.0371 -1.2829
  693MOL0     C93440   0.345   9.801   1.211  0.3768  0.1530  0.2584
  693MOL0     C93441   0.201   9.868   1.191 -0.5714 -0.4167 -0.2323
  693MOL0     C93442   0.084   9.774   1.179  0.0882  0.0231  0.2101
  693MOL0     C93443  -0.040   9.861   1.184 -0.8119  0.5055  0.2889
  693MOL0     O93444  -0.148   9.773   1.221  0.2964 -0.6330 -0.4189
  693MOL0     C93445  -0.247   9.840   1.287  0.0141  1.1089  0.4658
  693MOL0     C93446  -0.325   9.773   1.381  0.1461  0.4231  0.0900
  693MOL0     C93447  -0.442   9.819   1.445  0.2375 -0.0062  0.0602
  693MOL0     C93448  -0.512   9.727   1.542 -0.8575 -0.1658  0.0276
  693MOL0     C93449  -0.479   9.954   1.414  0.2941  0.6201  0.2696
  693MOL0     C93450  -0.598  10.026   1.471  0.3694  0.5347 -0.2722
  693MOL0     O93451  -0.604  10.171   1.473  0.8443  0.7597  0.0661
  693MOL0     C93452  -0.730  10.220   1.437  0.6391  0.0680  0.0901
  693MOL0     C93453  -0.818  10.256   1.534 -0.2671 -0.9279  0.6027
  693MOL0     C93454  -0.947  10.301   1.493  0.6836 -1.2208 -0.4723
  693MOL0     C93455  -0.977  10.335   1.365  0.0175  0.1489  0.3218
  693MOL0     O93456  -1.104  10.367   1.329 -0.5087 -0.4432 -0.4153
  693MOL0     C93457  -1.173  10.269   1.248 -0.8130  0.1523 -0.0585
  693MOL0     C93458  -1.276  10.346   1.167  0.2142  0.0911 -0.2931
  693MOL0     C93459  -1.218  10.454   1.089 -0.3202  0.7080 -0.3348
  693MOL0     C93460  -1.323  10.483   0.976 -0.2084 -0.4898 -0.2046
  693MOL0     C93461  -1.322  10.383   0.862 -0.3824  0.4041 -0.7202
  693MOL0     C93462  -1.401  10.417   0.737 -0.5440 -0.6564 -0.0838
  693MOL0     C93463  -1.467  10.289   0.685 -0.3866  0.0473 -0.2750
  693MOL0     C93464  -1.508  10.289   0.537  0.1476  0.3447  0.3567
  693MOL0    Cl93465  -1.586  10.142   0.484  0.2184 -0.0036 -0.1413
  693MOL0     C93466  -0.885  10.302   1.267  1.5657  0.5114 -0.4718
  693MOL0     C93467  -0.764  10.246   1.305 -0.2539  0.4059 -0.6254
  693MOL0     O93468  -0.693   9.951   1.495 -0.2596  0.2211  0.4881
  693MOL0     C93469  -0.395  10.033   1.335  0.4406 -0.1082  0.5664
  693MOL0     C93470  -0.290   9.970   1.266  0.2562 -0.2338 -0.3469
  693MOL0     N93471   0.421   9.859   0.970  0.2387  0.3046 -0.1468
  693MOL0     N93472   0.474   9.799   0.866  0.3782 -0.6299  0.1217
  693MOL0     C93473   1.610  10.027   0.683 -1.2930 -0.5338 -0.0989
  693MOL0     C93474   1.744  10.064   0.672  0.2028  0.2082 -0.3137
  693MOL0     C93475   2.156  10.156   0.488 -0.5268 -0.0019  0.2029
  693MOL0     C93476   2.270  10.085   0.436  0.5742 -0.1838 -0.1137
  693MOL0     C93477   2.392  10.153   0.425  0.4988 -0.5375 -0.0041
  693MOL0     C93478   2.410  10.286   0.462  0.7654 -0.1301 -0.4632
  693MOL0     O93479   2.534  10.346   0.460  0.1135  0.1459 -0.4172
  693MOL0     C93480   2.589  10.419   0.570 -0.2210 -0.9251  0.2152
  693MOL0     C93481   2.732  10.373   0.597 -0.0019  0.7788  0.3673
  693MOL0     C93482   2.827  10.406   0.489  0.3276 -0.0765  0.5599
  693MOL0     C93483   2.971  10.361   0.513 -0.8662  0.1760  0.8918
  693MOL0     C93484   3.050  10.380   0.402 -0.3877  0.2205  0.1155
  693MOL0     C93485   3.113  10.400   0.297 -0.3861 -0.3250  0.3590
  693MOL0     C93486   2.301  10.341   0.537 -0.2355 -0.7093  0.3589
  693MOL0     C93487   2.177  10.279   0.548  0.3851 -0.4859  0.2159
  693MOL0     H93488   1.770  10.150   0.354  2.0133 -4.2773  0.3739
  693MOL0     H93489   1.528  10.105   0.351 -0.0078 -2.3126 -0.8605
  693MOL0     H93490   1.424   9.839   0.676  0.5916  0.9687  1.3051
  693MOL0     H93491   1.333   9.963   0.752  0.4982 -1.4887  0.8023
  693MOL0     H93492   1.144   9.933   0.569 -0.0380  0.3669 -1.2529
  693MOL0     H93493   1.218   9.784   0.527 -2.3015  0.1771 -0.5448
  693MOL0     H93494   1.170   9.686   0.733  0.3886 -0.0434 -0.1012
  693MOL0     H93495   1.175   9.835   0.814 -1.1009  0.1022  0.7530
  693MOL0     H93496   0.973   9.909   0.771 -1.1526 -1.1179  2.1498
  693MOL0     H93497   0.950   9.792   0.632  1.2139 -0.5817 -0.7099
  693MOL0     H93498   0.951   9.604   0.791 -1.4992  0.4959 -1.0623
  693MOL0     H93499   0.962   9.718   0.926 -1.3025 -0.9734  1.0775
  693MOL0     H93500   0.735   9.806   0.858 -0.0241  0.0007 -1.4254
  693MOL0     H93501   0.736   9.710   0.710  2.0694  1.5039 -0.3989
  693MOL0     H93502   0.771   9.505   0.842  0.7395 -0.5429  0.8812
  693MOL0     H93503   0.723   9.595   0.986  1.6444 -2.0978 -0.4639
  693MOL0     H93504   0.540   9.464   0.858 -1.7502  0.3145 -0.3117
  693MOL0     H93505   0.562   9.572   0.722  0.4218  0.8423 -1.0363
  693MOL0     H93506   0.443   9.554   1.085 -0.0819 -0.7007 -0.4033
  693MOL0     H93507   0.337   9.712   1.274  0.0224 -1.0494 -1.4209
  693MOL0     H93508   0.405   9.873   1.267 -1.1929  1.4158  0.3689
  693MOL0     H93509   0.199   9.939   1.107  1.1685 -1.4497 -1.2105
  693MOL0     H93510   0.189   9.929   1.281  0.1167 -0.2237 -0.2597
  693MOL0     H93511   0.088   9.700   1.260 -0.7834 -1.0712 -0.7032
  693MOL0     H93512   0.087   9.715   1.087  0.7301 -0.5943  0.6214
  693MOL0     H93513  -0.058   9.923   1.097 -0.4673  3.7331  2.3579
  693MOL0     H93514  -0.028   9.930   1.268 -0.9000  0.9778 -0.0856
  693MOL0     H93515  -0.300   9.668   1.391  0.3003  0.5821  1.6018
  693MOL0     H93516  -0.548   9.788   1.626 -0.2699 -2.2563  1.9169
  693MOL0     H93517  -0.593   9.673   1.494  0.1170 -0.3353 -1.4865
  693MOL0     H93518  -0.436   9.664   1.591 -2.5239 -1.3397  1.2184
  693MOL0     H93519  -0.795  10.250   1.640 -2.3076  1.5271  1.2710
  693MOL0     H93520  -1.021  10.325   1.569 -0.9988  2.9779 -3.0831
  693MOL0     H93521  -1.109  10.227   1.170  0.4230  4.0111 -1.3834
  693MOL0     H93522  -1.221  10.198   1.316 -0.0822  0.7259  1.1074
  693MOL0     H93523  -1.330  10.271   1.108 -0.8252 -1.4600  2.4297
  693MOL0     H93524  -1.351  10.386   1.237  1.0093 -2.1834  2.0293
  693MOL0     H93525  -1.127  10.418   1.039 -2.1856 -2.8134 -1.5062
  693MOL0     H93526  -1.199  10.546   1.145  2.0517  1.4142 -2.1419
  693MOL0     H93527  -1.424  10.481   1.018  0.8176 -1.2324  2.4337
  693MOL0     H93528  -1.295  10.577   0.928  2.2538 -0.0046  1.9865
  693MOL0     H93529  -1.355  10.285   0.897  1.1384  0.6919  1.7458
  693MOL0     H93530  -1.217  10.364   0.835 -1.0705 -1.9814 -1.9992
  693MOL0     H93531  -1.468  10.500   0.762 -0.1123 -0.8341  1.8181
  693MOL0     H93532  -1.336  10.455   0.658 -2.1571 -2.2294 -2.2742
  693MOL0     H93533  -1.558  10.269   0.742 -0.7547 -1.3493 -1.3234
  693MOL0     H93534  -1.397  10.205   0.684 -2.0136 -1.3909 -3.0165
  693MOL0     H93535  -1.429  10.321   0.469  1.3180 -1.4004  0.8178
  693MOL0     H93536  -1.575  10.375   0.526  0.9859  0.9006 -0.5872
  693MOL0     H93537  -0.903  10.329   1.163  1.5253  1.3664 -0.2576
  693MOL0     H93538  -0.685  10.233   1.232  3.4621  1.2788  2.8577
  693MOL0     H93539  -0.406  10.141   1.328  2.7928  0.1649  0.1924
  693MOL0     H93540  -0.237  10.037   1.200 -1.4012  0.2345 -1.2555
  693MOL0     H93541   1.572   9.976   0.771 -0.6948 -1.6087 -0.4311
  693MOL0     H93542   1.812  10.052   0.755 -2.7614  0.3627  2.3145
  693MOL0     H93543   2.242   9.988   0.394  0.9915  0.4435 -1.9140
  693MOL0     H93544   2.481  10.111   0.378  0.9570 -1.7206  1.7951
  693MOL0     H93545   2.584  10.527   0.558 -0.0585 -1.0581 -1.2060
  693MOL0     H93546   2.540  10.394   0.664 -0.2398  0.5562  0.6213
  693MOL0     H93547   2.730  10.263   0.597  2.4429  0.6135 -2.2457
  693MOL0     H93548   2.765  10.426   0.687 -1.2485  2.3374 -0.0575
  693MOL0     H93549   2.821  10.515   0.481 -0.5887 -0.1999 -0.5621
  693MOL0     H93550   2.797  10.369   0.391 -0.1116 -0.2747  0.7657
  693MOL0     H93551   2.966  10.258   0.549  0.2435 -1.0342 -2.1062
  693MOL0     H93552   3.011  10.424   0.593  0.8033 -1.2565  1.2288
  693MOL0     H93553   3.161  10.431   0.206  1.0101 -0.0431  1.1470
  693MOL0     H93554   2.306  10.440   0.582 -2.0133 -0.4692  0.0803
  693MOL0     H93555   2.094  10.334   0.592  0.4740  0.4792 -0.7898
  694MOL0     O93556   5.325  10.024   0.581  0.8295 -1.1028  0.1698
  694MOL0     C93557   5.389   9.953   0.505  1.0541 -0.0132 -0.0684
  694MOL0     O93558   5.338   9.911   0.386 -0.0417  0.5398  0.5308
  694MOL0     C93559   5.223   9.963   0.337  0.3047 -0.8220  0.3841
  694MOL0     C93560   5.106   9.919   0.380  0.4437  0.8266 -0.6405
  694MOL0     C93561   4.988   9.955   0.326  0.0258 -0.0541  0.9305
  694MOL0     C93562   4.988  10.057   0.226  0.0249  0.5080  0.9256
  694MOL0     O93563   4.877  10.113   0.170 -0.1833 -0.0348  0.0203
  694MOL0     C93564   4.747  10.042   0.180  0.3604 -0.9577 -0.2349
  694MOL0     C93565   4.657  10.133   0.100  0.2925  0.5254  0.1803
  694MOL0     C93566   4.511  10.095   0.122 -0.7010  0.1922  0.0504
  694MOL0     C93567   4.424  10.167   0.022  0.3693 -0.4891 -0.2465
  694MOL0     C93568   4.431  10.119  -0.116  0.3441 -0.5190 -0.2562
  694MOL0     C93569   4.326  10.187  -0.206 -0.5898 -0.3119  0.1218
  694MOL0     C93570   4.180  10.172  -0.168 -0.1823 -0.3387 -0.2179
  694MOL0     C93571   4.093  10.232  -0.280 -0.2134 -0.1821 -0.3814
  694MOL0     N93572   3.961  10.179  -0.273  0.5377 -0.3006  0.5085
  694MOL0     C93573   3.916  10.058  -0.298 -0.1666  0.0430  0.2025
  694MOL0     C93574   3.784  10.059  -0.271  0.6710 -0.9413  0.4049
  694MOL0     C93575   3.695   9.933  -0.270  0.5208  0.5529  1.0448
  694MOL0     C93576   3.548   9.981  -0.255  0.1297  0.1668 -0.3142
  694MOL0     C93577   3.467   9.857  -0.263  0.1937 -0.0281 -0.2455
  694MOL0     C93578   3.320   9.880  -0.225  0.8015 -0.3361  0.0227
  694MOL0     O93579   3.245   9.761  -0.252  0.0636 -0.3946  0.1956
  694MOL0     C93580   3.111   9.756  -0.216 -0.3913  0.2260  0.5335
  694MOL0     C93581   3.036   9.644  -0.254  0.1646 -0.2274 -0.1926
  694MOL0     C93582   2.903   9.626  -0.224 -0.0231  0.3201 -0.2278
  694MOL0     C93583   2.842   9.509  -0.269  0.5907  0.1219 -0.9865
  694MOL0     C93584   2.834   9.733  -0.154 -0.6504 -0.5627 -0.0787
  694MOL0     C93585   2.685   9.741  -0.129 -0.9565  1.4764  0.2572
  694MOL0     O93586   2.635   9.852  -0.071 -0.3992 -0.4206  0.3009
  694MOL0     C93587   2.502   9.863  -0.050  0.1000  0.1767 -0.3831
  694MOL0     C93588   2.421   9.906  -0.150 -0.3235  0.6011  0.1856
  694MOL0     C93589   2.281   9.925  -0.121  0.1059  0.9736  1.2010
  694MOL0     C93590   2.223   9.895  -0.002  0.2241 -0.4787  0.2673
  694MOL0     O93591   2.087   9.904   0.023  0.2138  0.1006 -0.1643
  694MOL0     C93592   2.005  10.001  -0.051  0.3381 -0.3586 -0.8091
  694MOL0     C93593   1.931   9.922  -0.163  0.1733 -0.5260  0.4891
  694MOL0     C93594   1.791   9.883  -0.123 -0.0870  0.3798 -0.8322
  694MOL0     C93595   1.732   9.811  -0.249  0.0400  0.4071  0.0933
  694MOL0     C93596   1.608   9.737  -0.216  0.4170  0.1560 -0.7374
  694MOL0     C93597   1.525   9.670  -0.337  0.2714  0.2402  0.6647
  694MOL0     C93598   1.611   9.558  -0.406 -0.5703 -0.5314  0.1426
  694MOL0     C93599   1.525   9.462  -0.490  0.2777  0.8779 -0.3454
  694MOL0    Cl93600   1.635   9.329  -0.545 -0.1015  0.2166 -0.8604
  694MOL0     C93601   2.303   9.857   0.107  0.4754 -0.2632  0.5895
  694MOL0     C93602   2.444   9.842   0.088  0.0081  0.3637 -0.1531
  694MOL0     O93603   2.613   9.636  -0.151 -0.9996 -0.2097 -0.1543
  694MOL0     C93604   2.911   9.842  -0.109  0.1625  0.2365  0.4782
  694MOL0     C93605   3.040   9.861  -0.147 -0.0509  0.8468 -0.3409
  694MOL0     N93606   3.755  10.182  -0.212  0.2564 -0.0113 -0.3130
  694MOL0     N93607   3.863  10.245  -0.203 -0.3384 -0.7051 -0.2786
  694MOL0     C93608   5.110  10.113   0.184 -0.2121  0.3095 -0.3572
  694MOL0     C93609   5.223  10.073   0.246 -0.9354 -0.8266 -0.2421
  694MOL0     C93610   5.500   9.880   0.563  0.5560  0.3786  0.4122
  694MOL0     C93611   5.548   9.766   0.494 -0.1200 -0.5073 -0.6746
  694MOL0     C93612   5.659   9.702   0.540  0.5007 -0.2224  0.3871
  694MOL0     C93613   5.731   9.750   0.657 -0.9959  0.4193 -1.3293
  694MOL0     O93614   5.852   9.680   0.677  0.4531 -0.4650 -0.4814
  694MOL0     C93615   5.902   9.673   0.810  0.1848  0.1962 -0.4019
  694MOL0     C93616   6.041   9.739   0.799  0.3601 -0.2410 -0.2348
  694MOL0     C93617   6.112   9.742   0.936 -0.0438 -0.5150 -0.1216
  694MOL0     C93618   6.243   9.826   0.929 -1.0798 -0.7499 -0.1377
  694MOL0     C93619   6.331   9.814   1.046 -0.2485 -0.2882  0.1572
  694MOL0     C93620   6.398   9.808   1.154 -0.0918  0.0802 -0.2113
  694MOL0     C93621   5.666   9.849   0.739 -1.4706  0.3627  0.0293
  694MOL0     C93622   5.557   9.924   0.684  0.2508 -0.4374 -0.3640
  694MOL0     H93623   5.101   9.845   0.459  0.7303  1.2804 -0.1891
  694MOL0     H93624   4.907   9.904   0.377  0.3014 -0.9080  0.5297
  694MOL0     H93625   4.747   9.935   0.159 -1.1500 -1.6173  2.5145
  694MOL0     H93626   4.720  10.049   0.286  1.3965 -0.6990  0.0170
  694MOL0     H93627   4.678  10.236   0.129  0.8374  0.1827  1.0247
  694MOL0     H93628   4.691  10.136  -0.004 -0.5406  0.6509 -0.0999
  694MOL0     H93629   4.502   9.986   0.122  1.5178 -0.0843 -1.9587
  694MOL0     H93630   4.477  10.120   0.223 -1.3751 -5.2652  1.4943
  694MOL0     H93631   4.321  10.147   0.053  0.6659 -1.5273  0.1262
  694MOL0     H93632   4.428  10.276   0.029 -3.6454 -0.2754  2.6215
  694MOL0     H93633   4.524  10.144  -0.167 -0.2365 -1.3256 -1.7532
  694MOL0     H93634   4.412  10.011  -0.113  1.2622 -0.7542 -1.8557
  694MOL0     H93635   4.350  10.294  -0.208 -0.4063 -0.3502 -1.2083
  694MOL0     H93636   4.335  10.136  -0.303 -0.2518  0.8127 -0.4575
  694MOL0     H93637   4.157  10.065  -0.166  0.7348 -0.5755  2.3964
  694MOL0     H93638   4.145  10.214  -0.073  0.6951  2.0026 -0.8639
  694MOL0     H93639   4.138  10.194  -0.372 -0.6073  0.2366 -0.7554
  694MOL0     H93640   4.084  10.340  -0.262 -0.4932  0.2205 -2.6661
  694MOL0     H93641   3.983   9.978  -0.327  0.3500  0.5788 -0.0997
  694MOL0     H93642   3.701   9.881  -0.366 -3.9076 -0.8086  1.3230
  694MOL0     H93643   3.727   9.866  -0.189  1.4464 -2.5045 -1.6513
  694MOL0     H93644   3.521  10.052  -0.333 -5.0720 -3.7904 -2.7921
  694MOL0     H93645   3.547  10.031  -0.158 -1.2928 -2.1698  0.9636
  694MOL0     H93646   3.506   9.781  -0.195  1.6734  2.4132  1.8638
  694MOL0     H93647   3.465   9.826  -0.368  0.2497  0.6138 -0.4469
  694MOL0     H93648   3.287   9.972  -0.275 -0.2818  0.9391  2.8974
  694MOL0     H93649   3.323   9.902  -0.118 -1.7131  0.2882  0.0378
  694MOL0     H93650   3.093   9.562  -0.296  2.0019  0.3958  0.9936
  694MOL0     H93651   2.837   9.438  -0.186  2.3847  0.8911 -0.1471
  694MOL0     H93652   2.740   9.521  -0.306 -1.1096 -0.2265  3.0111
  694MOL0     H93653   2.899   9.460  -0.348 -1.1502 -0.2167 -2.0613
  694MOL0     H93654   2.457   9.920  -0.252 -0.2738  0.3214  0.1626
  694MOL0     H93655   2.205   9.952  -0.194 -0.0943  2.1646  1.8295
  694MOL0     H93656   1.937  10.046   0.022 -0.2779  2.1695 -2.7855
  694MOL0     H93657   2.067  10.083  -0.089  1.5508 -2.1040 -2.7645
  694MOL0     H93658   1.929   9.987  -0.251  1.2132 -0.3038  0.6174
  694MOL0     H93659   1.989   9.835  -0.196 -0.4491 -0.6734 -0.2454
  694MOL0     H93660   1.730   9.965  -0.084 -3.2303 -2.2061  0.2231
  694MOL0     H93661   1.801   9.814  -0.038 -1.3712  0.4487 -0.6000
  694MOL0     H93662   1.710   9.879  -0.332 -3.8619 -0.9830 -0.2284
  694MOL0     H93663   1.803   9.738  -0.288 -1.3161 -0.5859 -0.6212
  694MOL0     H93664   1.535   9.795  -0.159 -1.2420 -1.2264 -1.3724
  694MOL0     H93665   1.634   9.655  -0.149 -1.0992 -0.7201 -1.1672
  694MOL0     H93666   1.440   9.624  -0.286 -0.7801  0.5738 -0.7163
  694MOL0     H93667   1.475   9.747  -0.397 -4.4445  0.1580  3.9014
  694MOL0     H93668   1.658   9.509  -0.321 -6.6814 -1.1803  3.6638
  694MOL0     H93669   1.680   9.609  -0.475 -0.7122  0.6106  0.8155
  694MOL0     H93670   1.490   9.512  -0.581 -2.8669 -1.2454 -0.4257
  694MOL0     H93671   1.433   9.426  -0.443 -0.1119  0.9534 -1.0440
  694MOL0     H93672   2.259   9.835   0.204  1.1608 -2.1654  0.5208
  694MOL0     H93673   2.510   9.814   0.169 -0.5216  0.3103  0.2613
  694MOL0     H93674   2.862   9.928  -0.065 -2.4029  0.1201 -1.9072
  694MOL0     H93675   3.093   9.952  -0.121 -3.6106  3.1136 -0.4568
  694MOL0     H93676   5.118  10.178   0.098 -1.1904 -1.0428 -1.5186
  694MOL0     H93677   5.325  10.107   0.230 -0.8031 -0.6977  0.7939
  694MOL0     H93678   5.500   9.744   0.399  2.4883 -0.3178 -2.1178
  694MOL0     H93679   5.696   9.611   0.494  2.2707 -0.1699  1.5995
  694MOL0     H93680   5.851   9.729   0.889  3.3856 -0.0042  2.0134
  694MOL0     H93681   5.900   9.568   0.841  0.0340  0.2396 -0.2600
  694MOL0     H93682   6.026   9.840   0.761  0.0440  0.2070  1.0262
  694MOL0     H93683   6.095   9.681   0.723  0.2757 -0.4974 -0.1032
  694MOL0     H93684   6.134   9.638   0.964  2.0807  0.1548  0.8313
  694MOL0     H93685   6.040   9.794   1.000 -0.8350 -1.5950 -0.0917
  694MOL0     H93686   6.202   9.928   0.925  0.1264 -0.2915 -1.4147
  694MOL0     H93687   6.297   9.798   0.838  0.3457  1.0622  0.0903
  694MOL0     H93688   6.455   9.804   1.244  0.6524 -0.1960 -0.6839
  694MOL0     H93689   5.709   9.869   0.837 -1.3690 -2.0639  0.5410
  694MOL0     H93690   5.518  10.007   0.742  0.1281  1.8018 -3.3550
  695MOL0     O93691   7.486   7.355   1.480 -0.2553 -0.3473  0.2534
  695MOL0     C93692   7.410   7.263   1.514 -0.8549  0.3116  0.6188
  695MOL0     O93693   7.447   7.147   1.574  0.1476 -0.4107 -0.4285
  695MOL0     C93694   7.572   7.111   1.616 -0.0415 -0.6519 -0.0802
  695MOL0     C93695   7.675   7.202   1.652 -0.8949  0.0321  0.5036
  695MOL0     C93696   7.796   7.153   1.691 -0.4504  0.5210 -0.0669
  695MOL0     C93697   7.811   7.018   1.725  0.4777 -0.4319  0.1007
  695MOL0     O93698   7.926   6.953   1.774  0.4707  0.3747 -0.4821
  695MOL0     C93699   8.026   7.031   1.823 -0.3445 -0.0206  1.0480
  695MOL0     C93700   8.127   6.933   1.870 -0.4317 -0.2376 -0.7476
  695MOL0     C93701   8.068   6.876   2.002  0.9901  0.6861 -0.3049
  695MOL0     C93702   8.172   6.803   2.083  0.0164  0.6561 -0.4278
  695MOL0     C93703   8.147   6.652   2.079 -0.4335  0.3501 -0.2912
  695MOL0     C93704   8.204   6.585   1.957  0.0682 -0.7352 -0.5072
  695MOL0     C93705   8.199   6.435   1.967 -0.8358 -0.6186  0.3720
  695MOL0     C93706   8.268   6.361   1.854  0.0165  1.0346  0.1829
  695MOL0     N93707   8.190   6.374   1.734 -0.7957 -0.1539  0.1198
  695MOL0     C93708   8.208   6.475   1.644  0.5706 -0.1263 -0.5062
  695MOL0     C93709   8.084   6.482   1.589  0.9113 -0.8536 -0.0188
  695MOL0     C93710   8.046   6.568   1.473 -0.3972  0.7838 -0.1312
  695MOL0     C93711   7.979   6.708   1.513  0.0974  0.5557 -0.7237
  695MOL0     C93712   7.935   6.783   1.387 -0.5630  0.3973 -0.5576
  695MOL0     C93713   7.847   6.903   1.407  0.3535  0.4946  0.7713
  695MOL0     O93714   7.795   6.971   1.290 -0.2282 -0.2947  0.1374
  695MOL0     C93715   7.668   6.971   1.244  0.0765  0.0750  1.0420
  695MOL0     C93716   7.560   6.895   1.285  0.7654 -0.0594 -0.3089
  695MOL0     C93717   7.428   6.908   1.238 -0.0982  0.2736 -0.0279
  695MOL0     C93718   7.311   6.852   1.311  0.5272  0.8700 -0.2888
  695MOL0     C93719   7.412   6.981   1.121  0.4970  0.2896 -0.3218
  695MOL0     C93720   7.282   6.986   1.042 -0.5613  1.2030  0.2344
  695MOL0     O93721   7.302   6.992   0.914  0.3430 -0.2239  0.2309
  695MOL0     C93722   7.194   7.038   0.842 -0.3978  0.4278  0.0409
  695MOL0     C93723   7.090   6.945   0.822  0.2508 -0.1448 -0.2945
  695MOL0     C93724   6.970   6.985   0.760 -0.9172 -0.0484 -0.8092
  695MOL0     C93725   6.964   7.119   0.703  0.6357  0.6618  0.1270
  695MOL0     O93726   6.858   7.174   0.642  0.0799 -0.4955 -0.0022
  695MOL0     C93727   6.729   7.147   0.701  0.0313 -0.4602 -0.7676
  695MOL0     C93728   6.628   7.258   0.664 -0.8914 -0.2634  0.3084
  695MOL0     C93729   6.482   7.225   0.688  1.1352  0.8119  0.3089
  695MOL0     C93730   6.414   7.359   0.694  0.4623  0.4858 -0.2378
  695MOL0     C93731   6.269   7.349   0.664 -0.5443  0.0189  0.2783
  695MOL0     C93732   6.189   7.287   0.782 -0.2193 -0.6270  0.4106
  695MOL0     C93733   6.045   7.271   0.740 -0.5412 -0.2180  0.3483
  695MOL0     C93734   5.951   7.398   0.742  0.1259 -0.0865 -0.0818
  695MOL0    Cl93735   5.777   7.359   0.708 -0.3832 -0.0853  0.2118
  695MOL0     C93736   7.075   7.200   0.702  0.3261 -0.0106 -0.0719
  695MOL0     C93737   7.180   7.168   0.785 -0.4380  0.0121  0.0249
  695MOL0     O93738   7.181   7.012   1.104  0.0862 -0.2156  0.2939
  695MOL0     C93739   7.524   7.042   1.067  0.4031  0.0035  0.1167
  695MOL0     C93740   7.645   7.044   1.129  1.0347 -0.0935  0.3764
  695MOL0     N93741   8.001   6.391   1.640 -0.0963  0.3109  0.4658
  695MOL0     N93742   8.070   6.318   1.723 -0.6266  0.5093 -0.0431
  695MOL0     C93743   7.705   6.940   1.712 -0.3627 -0.2140 -0.2486
  695MOL0     C93744   7.590   6.977   1.653  0.3446 -0.2806  0.5740
  695MOL0     C93745   7.267   7.267   1.473 -0.6061 -0.2737 -0.4115
  695MOL0     C93746   7.193   7.147   1.475  0.4044  0.0090  0.3242
  695MOL0     C93747   7.057   7.139   1.443  0.0041  0.7865  0.7670
  695MOL0     C93748   7.002   7.254   1.393  0.0950  0.2353  0.6046
  695MOL0     O93749   6.871   7.275   1.358  0.2305 -0.4533 -0.2078
  695MOL0     C93750   6.783   7.169   1.335  0.6448  0.4458 -0.1573
  695MOL0     C93751   6.672   7.225   1.238 -0.3787 -0.1322 -0.0621
  695MOL0     C93752   6.560   7.120   1.210  0.4364  0.2414 -0.9332
  695MOL0     C93753   6.473   7.160   1.087 -1.3761 -1.4369  0.2314
  695MOL0     C93754   6.348   7.087   1.062 -0.1363  0.3632  0.5584
  695MOL0     C93755   6.234   7.040   1.054  0.0885  0.0712 -0.2120
  695MOL0     C93756   7.074   7.375   1.389 -0.0940 -0.2989  0.7994
  695MOL0     C93757   7.207   7.383   1.423  0.4629 -0.2316  0.8881
  695MOL0     H93758   7.680   7.310   1.642  2.0962  0.0935  1.5630
  695MOL0     H93759   7.874   7.225   1.710  1.0937 -0.8649 -0.9120
  695MOL0     H93760   8.074   7.091   1.745  1.1486 -0.1275  1.8519
  695MOL0     H93761   7.995   7.111   1.890 -1.6822  0.5968 -0.2476
  695MOL0     H93762   8.147   6.856   1.795  1.0231 -0.4418 -0.1778
  695MOL0     H93763   8.228   6.975   1.876 -0.2888 -0.3182 -2.1207
  695MOL0     H93764   8.022   6.948   2.071 -2.1539 -0.6010 -0.8886
  695MOL0     H93765   7.990   6.802   1.982  1.5341 -1.0509  3.2836
  695MOL0     H93766   8.276   6.819   2.052  0.6836 -0.6586  0.9697
  695MOL0     H93767   8.174   6.838   2.187  0.9075 -0.5740 -0.0023
  695MOL0     H93768   8.201   6.608   2.163 -2.4823 -1.7164  0.0551
  695MOL0     H93769   8.041   6.625   2.089 -0.1173 -0.8828 -0.2021
  695MOL0     H93770   8.139   6.625   1.878  0.0469 -2.6343 -1.4999
  695MOL0     H93771   8.305   6.624   1.941  0.7426 -2.0100  0.4758
  695MOL0     H93772   8.256   6.413   2.058 -0.8412  0.7676  0.7275
  695MOL0     H93773   8.097   6.399   1.986 -1.2642 -0.3675 -1.2653
  695MOL0     H93774   8.277   6.256   1.883 -2.0855  1.2109  1.6528
  695MOL0     H93775   8.367   6.404   1.836  0.0868  1.1555  0.8247
  695MOL0     H93776   8.286   6.550   1.643  2.0274 -1.5646 -2.0350
  695MOL0     H93777   8.138   6.596   1.420 -1.3311  1.2559 -1.5512
  695MOL0     H93778   7.975   6.514   1.410 -3.3502  3.0857  0.9833
  695MOL0     H93779   8.055   6.766   1.565  1.1989 -0.3133 -1.3360
  695MOL0     H93780   7.894   6.694   1.582  0.2927 -1.4559 -0.8289
  695MOL0     H93781   7.880   6.714   1.323  1.4788 -2.0308  0.1625
  695MOL0     H93782   8.033   6.809   1.347  0.4426 -0.8994  0.9259
  695MOL0     H93783   7.899   6.976   1.470  0.8401 -1.4209  2.7177
  695MOL0     H93784   7.765   6.879   1.476 -0.4359 -0.4018 -0.4357
  695MOL0     H93785   7.572   6.820   1.362  2.0094  0.4674  0.0420
  695MOL0     H93786   7.268   6.774   1.247 -1.8843  2.5230 -0.8014
  695MOL0     H93787   7.338   6.810   1.409 -0.9094 -2.0164 -0.9936
  695MOL0     H93788   7.221   6.914   1.319  0.7278  1.0147  1.1960
  695MOL0     H93789   7.105   6.842   0.854  1.4547 -0.5655 -2.0170
  695MOL0     H93790   6.881   6.923   0.755 -1.1887  0.4355 -3.3991
  695MOL0     H93791   6.689   7.050   0.671 -0.0213 -0.6175 -0.1973
  695MOL0     H93792   6.741   7.141   0.810  2.3792  1.6843 -0.8026
  695MOL0     H93793   6.666   7.339   0.726 -0.5291  0.0590 -0.3165
  695MOL0     H93794   6.639   7.286   0.559 -1.0508 -0.7576  0.1541
  695MOL0     H93795   6.455   7.161   0.773  1.6320 -0.8929 -0.7548
  695MOL0     H93796   6.454   7.166   0.600  0.6099 -0.4675  1.2954
  695MOL0     H93797   6.432   7.397   0.795  1.9454  1.5818 -0.8803
  695MOL0     H93798   6.461   7.429   0.624 -0.8586  2.3640  0.6452
  695MOL0     H93799   6.260   7.303   0.566  1.4290  1.7787 -0.8152
  695MOL0     H93800   6.231   7.450   0.649 -2.6084 -0.9433 -1.3454
  695MOL0     H93801   6.233   7.193   0.818  0.9204 -0.3649 -0.2153
  695MOL0     H93802   6.187   7.359   0.864 -2.3046 -0.8184  0.5782
  695MOL0     H93803   6.008   7.195   0.810 -0.2354 -0.8143 -0.1229
  695MOL0     H93804   6.053   7.239   0.636  2.6624  0.0891  0.4049
  695MOL0     H93805   5.987   7.457   0.657 -1.0381  0.8400  0.0433
  695MOL0     H93806   5.966   7.443   0.840  0.1294  0.0257 -0.1338
  695MOL0     H93807   7.067   7.302   0.664 -2.7213 -0.4590 -0.8754
  695MOL0     H93808   7.250   7.248   0.806  0.1964 -0.3067 -0.7886
  695MOL0     H93809   7.513   7.114   0.987 -2.5869  0.6802  1.0354
  695MOL0     H93810   7.730   7.081   1.073  0.7005 -3.1229 -2.4230
  695MOL0     H93811   7.715   6.837   1.742  0.7436 -0.2745 -0.7651
  695MOL0     H93812   7.520   6.902   1.619  0.1769 -0.8346  2.0690
  695MOL0     H93813   7.242   7.056   1.509 -0.2575  0.0710  1.4889
  695MOL0     H93814   6.998   7.052   1.470  0.1388  1.2872  2.8601
  695MOL0     H93815   6.832   7.081   1.291 -0.0735  0.3949 -0.8779
  695MOL0     H93816   6.740   7.138   1.430  2.7246  0.6423  0.9064
  695MOL0     H93817   6.726   7.237   1.144 -1.1146 -1.9623 -0.7473
  695MOL0     H93818   6.633   7.323   1.268  0.8733  0.5553 -0.6090
  695MOL0     H93819   6.480   7.118   1.284  1.5398  4.4815  0.6701
  695MOL0     H93820   6.602   7.020   1.197 -1.4243 -1.1625  2.5211
  695MOL0     H93821   6.533   7.163   0.997  0.3669  2.2189  1.3494
  695MOL0     H93822   6.441   7.264   1.099  2.0741 -0.1703 -0.5151
  695MOL0     H93823   6.139   6.992   1.064 -0.7393  1.7039 -0.0575
  695MOL0     H93824   7.026   7.461   1.343  0.4676 -1.0062 -1.2212
  695MOL0     H93825   7.270   7.471   1.424 -1.5499  1.2850  0.1797
  696MOL0     O93826   1.433   0.547   6.105 -0.5377 -0.4081  0.2326
  696MOL0     C93827   1.502   0.479   6.029  0.9647 -0.6063  0.4831
  696MOL0     O93828   1.510   0.496   5.894  0.5554 -0.2375 -0.1783
  696MOL0     C93829   1.439   0.593   5.837  0.7813 -0.7738  0.9022
  696MOL0     C93830   1.507   0.666   5.731 -0.0348 -0.0589 -0.7163
  696MOL0     C93831   1.445   0.773   5.663  0.0819  0.0528 -0.4004
  696MOL0     C93832   1.312   0.806   5.689 -0.5695  0.5577  0.0718
  696MOL0     O93833   1.233   0.909   5.632 -1.1173  0.8493 -0.0564
  696MOL0     C93834   1.291   1.019   5.561 -0.5270 -0.1340  0.0440
  696MOL0     C93835   1.185   1.120   5.529  0.5264  0.4072 -0.3927
  696MOL0     C93836   1.092   1.063   5.425 -0.0817  0.3326  0.3653
  696MOL0     C93837   1.003   1.166   5.360 -0.4420 -0.6689 -0.6918
  696MOL0     C93838   0.938   1.119   5.227  0.5856  0.8201 -0.1623
  696MOL0     C93839   0.823   1.020   5.261  0.9550 -0.4597  0.3295
  696MOL0     C93840   0.773   0.950   5.131 -0.1380 -0.0938 -0.8255
  696MOL0     C93841   0.718   1.037   5.015  0.2744  0.3981 -0.4640
  696MOL0     N93842   0.600   1.105   5.065 -0.6990 -0.6348  0.7637
  696MOL0     C93843   0.479   1.048   5.081 -0.0679 -0.0245  0.2894
  696MOL0     C93844   0.377   1.134   5.111 -0.7902 -0.0600 -0.5253
  696MOL0     C93845   0.221   1.113   5.121  0.4093  0.0497 -1.0315
  696MOL0     C93846   0.131   1.242   5.145  0.6449  0.4767  0.8300
  696MOL0     C93847   0.156   1.309   5.282  0.4733 -0.0974  0.4440
  696MOL0     C93848   0.074   1.431   5.297 -0.2410 -0.2426  0.9294
  696MOL0     O93849  -0.071   1.398   5.287 -0.8265 -0.3239 -0.2539
  696MOL0     C93850  -0.163   1.488   5.317  0.3515 -0.3916 -0.1230
  696MOL0     C93851  -0.140   1.620   5.351 -0.1643 -0.4379  0.1840
  696MOL0     C93852  -0.252   1.707   5.367  0.6728  0.3309 -0.2799
  696MOL0     C93853  -0.211   1.850   5.364  0.2588 -0.6451 -0.6066
  696MOL0     C93854  -0.385   1.666   5.349 -0.7362 -0.3403  0.0372
  696MOL0     C93855  -0.502   1.755   5.344 -1.5532  0.5638 -0.1105
  696MOL0     O93856  -0.617   1.685   5.325  0.4115 -0.5849  0.3570
  696MOL0     C93857  -0.740   1.747   5.328 -0.8990  0.0194 -0.2042
  696MOL0     C93858  -0.819   1.722   5.440  0.4489 -0.3200  0.4723
  696MOL0     C93859  -0.941   1.785   5.449  0.4176 -0.0580 -0.0859
  696MOL0     C93860  -0.999   1.862   5.341  0.1687 -0.0801 -0.1565
  696MOL0     O93861  -1.121   1.934   5.361  0.3998 -0.0196  0.1986
  696MOL0     C93862  -1.107   2.068   5.336 -0.5402 -0.2969  0.0573
  696MOL0     C93863  -1.214   2.163   5.393  0.0385 -0.2060 -0.7475
  696MOL0     C93864  -1.357   2.122   5.368 -0.1265  1.2616  0.6136
  696MOL0     C93865  -1.452   2.243   5.361  0.3817  0.1925  0.2513
  696MOL0     C93866  -1.597   2.193   5.355  0.2666  0.5781  0.0945
  696MOL0     C93867  -1.690   2.304   5.293  0.5701 -0.5502 -0.4755
  696MOL0     C93868  -1.836   2.258   5.266  0.5886  0.2314 -0.2011
  696MOL0     C93869  -1.941   2.361   5.219 -0.3876  0.4606  0.0284
  696MOL0    Cl93870  -1.876   2.525   5.196  0.2402  0.0858  0.6004
  696MOL0     C93871  -0.912   1.892   5.230 -0.5055  0.1986 -0.6703
  696MOL0     C93872  -0.783   1.836   5.232 -0.3488 -0.2760  0.1739
  696MOL0     O93873  -0.492   1.872   5.381  0.2030  0.3929 -0.1777
  696MOL0     C93874  -0.407   1.528   5.314 -0.1500 -0.2165  0.2445
  696MOL0     C93875  -0.288   1.448   5.292 -0.2312  0.8421 -0.1522
  696MOL0     N93876   0.450   1.259   5.118  0.1964  0.4314  0.2132
  696MOL0     N93877   0.572   1.239   5.082  0.1227  0.3244 -0.0969
  696MOL0     C93878   1.246   0.732   5.791  0.2994 -0.3851  0.8987
  696MOL0     C93879   1.304   0.626   5.865 -0.2227 -0.7104 -1.2619
  696MOL0     C93880   1.596   0.380   6.084 -0.5001  0.0167  0.2834
  696MOL0     C93881   1.571   0.324   6.213 -0.6307 -0.7789  0.3856
  696MOL0     C93882   1.639   0.210   6.263 -0.1653 -1.0120 -0.2645
  696MOL0     C93883   1.734   0.160   6.175  0.2116  0.2912 -0.8443
  696MOL0     O93884   1.806   0.044   6.205 -0.7459 -0.0438  0.2335
  696MOL0     C93885   1.751  -0.040   6.303 -0.2222  0.1856  1.0369
  696MOL0     C93886   1.794  -0.183   6.263  0.3510  0.1913 -0.5208
  696MOL0     C93887   1.737  -0.287   6.361 -0.6263 -1.2234 -0.4701
  696MOL0     C93888   1.767  -0.425   6.308 -0.2445 -0.6962  0.1669
  696MOL0     C93889   1.784  -0.534   6.412 -0.5671  0.0660 -0.1920
  696MOL0     C93890   1.784  -0.628   6.492 -0.0163 -0.0197  0.0635
  696MOL0     C93891   1.762   0.212   6.049 -0.1469  0.8273  0.1611
  696MOL0     C93892   1.701   0.326   6.009 -0.5857 -0.1273 -0.3676
  696MOL0     H93893   1.610   0.635   5.720  0.6949  1.8180  0.2510
  696MOL0     H93894   1.486   0.827   5.577 -0.2315  0.4935 -0.2725
  696MOL0     H93895   1.362   1.061   5.633 -2.6949  2.2777  0.9424
  696MOL0     H93896   1.350   0.988   5.475  1.7762  0.2809  1.3901
  696MOL0     H93897   1.127   1.149   5.617 -5.0364  2.4666 -4.1899
  696MOL0     H93898   1.235   1.214   5.504  1.8574 -0.0681  0.3763
  696MOL0     H93899   1.165   1.018   5.357  0.3447 -0.8038  1.5379
  696MOL0     H93900   1.024   0.990   5.470  0.9206 -0.6498  0.3246
  696MOL0     H93901   0.934   1.193   5.441 -1.2198 -1.0137 -1.2302
  696MOL0     H93902   1.072   1.246   5.332  0.1466 -1.3812 -1.3382
  696MOL0     H93903   0.886   1.197   5.172 -1.4977 -0.2960  0.1238
  696MOL0     H93904   1.012   1.075   5.159  1.1816 -1.2551  1.6955
  696MOL0     H93905   0.859   0.943   5.331  3.1454  0.3329  0.1607
  696MOL0     H93906   0.751   1.096   5.293  1.9198  0.9612 -0.7470
  696MOL0     H93907   0.863   0.893   5.104 -1.2232 -2.1904 -0.2245
  696MOL0     H93908   0.693   0.883   5.163 -0.0491  0.4171  0.5342
  696MOL0     H93909   0.697   0.978   4.926 -0.3949 -0.6739  0.3784
  696MOL0     H93910   0.790   1.115   4.989  0.8612  0.7644  1.9568
  696MOL0     H93911   0.469   0.941   5.071 -2.9501  0.3712 -2.3523
  696MOL0     H93912   0.186   1.059   5.033 -1.4931 -0.9635  0.2644
  696MOL0     H93913   0.208   1.037   5.198  1.2806 -0.7328 -1.6443
  696MOL0     H93914   0.026   1.216   5.127  1.4590 -0.0562 -6.3312
  696MOL0     H93915   0.159   1.310   5.064  2.3036 -0.0856  0.8911
  696MOL0     H93916   0.252   1.363   5.287  0.6649 -0.5051  1.2969
  696MOL0     H93917   0.140   1.238   5.363  0.5281 -2.0156 -1.1282
  696MOL0     H93918   0.100   1.506   5.222 -0.8054 -3.8397 -3.3175
  696MOL0     H93919   0.098   1.479   5.392 -1.1157  1.3407  0.3879
  696MOL0     H93920  -0.042   1.666   5.351 -0.3067 -0.1232 -0.1520
  696MOL0     H93921  -0.251   1.911   5.446  1.4383 -1.8673  0.9311
  696MOL0     H93922  -0.104   1.853   5.384  0.1639  1.7087 -0.1358
  696MOL0     H93923  -0.233   1.903   5.271  0.5426  3.4354  1.3972
  696MOL0     H93924  -0.790   1.641   5.506  2.7139 -1.8944 -2.2309
  696MOL0     H93925  -0.993   1.757   5.540  2.7265  1.2081  1.7366
  696MOL0     H93926  -1.009   2.099   5.373 -0.5605 -0.7337  0.4903
  696MOL0     H93927  -1.109   2.088   5.229 -2.1063 -0.0280  0.1164
  696MOL0     H93928  -1.192   2.175   5.499  0.7645  3.7154 -1.2047
  696MOL0     H93929  -1.187   2.265   5.362 -1.5693  0.3370 -0.4737
  696MOL0     H93930  -1.386   2.057   5.450  0.7582  2.7451  2.1698
  696MOL0     H93931  -1.358   2.062   5.277  1.7957  0.0110  1.3410
  696MOL0     H93932  -1.446   2.297   5.457  0.7134 -0.2425  0.4796
  696MOL0     H93933  -1.422   2.309   5.279  1.3296 -1.9603 -1.2048
  696MOL0     H93934  -1.638   2.167   5.453 -0.1793 -0.7396 -0.4223
  696MOL0     H93935  -1.591   2.104   5.292  3.0766  1.0316 -0.4127
  696MOL0     H93936  -1.689   2.387   5.364  0.9004 -0.2952 -0.7763
  696MOL0     H93937  -1.649   2.343   5.200  0.0868 -1.9631 -1.3162
  696MOL0     H93938  -1.880   2.209   5.353 -1.2705  1.5089 -0.3631
  696MOL0     H93939  -1.831   2.180   5.190  0.7248 -1.5464  1.5507
  696MOL0     H93940  -2.027   2.367   5.287 -0.7115  0.0338 -0.3378
  696MOL0     H93941  -1.965   2.330   5.117 -0.3985  2.2821 -0.5536
  696MOL0     H93942  -0.947   1.945   5.141  0.8070  0.7874 -0.8588
  696MOL0     H93943  -0.712   1.862   5.155 -0.6828  1.7649  0.4959
  696MOL0     H93944  -0.499   1.491   5.269  0.1949 -1.2519  0.3590
  696MOL0     H93945  -0.287   1.347   5.254  3.0475  0.2790  1.1301
  696MOL0     H93946   1.145   0.756   5.822 -0.0844 -1.3000  0.3897
  696MOL0     H93947   1.251   0.578   5.946 -1.2776  2.3707  0.0112
  696MOL0     H93948   1.484   0.366   6.262  1.0641  2.8783  0.5957
  696MOL0     H93949   1.620   0.180   6.365 -3.4935  0.4327 -0.3174
  696MOL0     H93950   1.796  -0.007   6.397  0.9687  3.1934 -0.4420
  696MOL0     H93951   1.642  -0.046   6.300 -0.1738 -0.6209 -1.1167
  696MOL0     H93952   1.901  -0.195   6.246  0.5050 -2.9843  1.7828
  696MOL0     H93953   1.744  -0.208   6.169 -0.0006 -1.9014  0.1651
  696MOL0     H93954   1.632  -0.273   6.391  0.2729  0.7890  2.1746
  696MOL0     H93955   1.783  -0.276   6.459 -1.0622 -1.3326 -0.2496
  696MOL0     H93956   1.861  -0.425   6.252 -0.0858  0.2004  0.4170
  696MOL0     H93957   1.682  -0.446   6.242 -0.1673  1.1666 -0.5928
  696MOL0     H93958   1.789  -0.690   6.580 -0.3950  3.5996  2.8943
  696MOL0     H93959   1.828   0.167   5.977  0.8641 -0.0376  1.5886
  696MOL0     H93960   1.705   0.340   5.902 -0.4226 -0.9923 -0.4863
  697MOL0     O93961  10.315   9.416   9.231  0.3024  0.4181 -0.3353
  697MOL0     C93962  10.378   9.380   9.134  0.0877 -0.7458  0.3013
  697MOL0     O93963  10.329   9.336   9.014  0.1914 -0.0281  0.3274
  697MOL0     C93964  10.194   9.342   8.978  0.7325  0.3186  0.3537
  697MOL0     C93965  10.161   9.406   8.852  0.6561  0.2839 -0.7115
  697MOL0     C93966  10.029   9.416   8.805 -0.1610  0.0947  0.5462
  697MOL0     C93967   9.927   9.343   8.886 -0.6702  0.4022  0.0182
  697MOL0     O93968   9.805   9.330   8.825 -0.0128 -0.1304 -0.2283
  697MOL0     C93969   9.769   9.425   8.719  0.3267 -0.2577  0.3770
  697MOL0     C93970   9.619   9.459   8.729 -0.4863  0.3147  0.0616
  697MOL0     C93971   9.528   9.330   8.712 -0.2583 -0.7585 -0.0006
  697MOL0     C93972   9.526   9.268   8.572  0.6067  0.4589  0.0243
  697MOL0     C93973   9.444   9.137   8.566  1.4154  0.6654  0.5131
  697MOL0     C93974   9.513   9.008   8.614 -0.2966 -0.1816 -0.2424
  697MOL0     C93975   9.428   8.880   8.626  0.7728  0.1733  1.1060
  697MOL0     C93976   9.317   8.871   8.734  1.4945  0.0268  0.0284
  697MOL0     N93977   9.376   8.848   8.866 -0.9935  0.0230 -0.5089
  697MOL0     C93978   9.474   8.765   8.908  0.4931 -0.0618  0.3766
  697MOL0     C93979   9.485   8.783   9.038  0.2636  0.3534 -0.0145
  697MOL0     C93980   9.572   8.714   9.131 -0.2779  0.4211  1.5348
  697MOL0     C93981   9.642   8.804   9.230  0.6637 -0.2784 -0.7293
  697MOL0     C93982   9.716   8.926   9.170 -0.5900 -0.1833  0.4634
  697MOL0     C93983   9.840   8.895   9.083  0.1744 -0.1439 -0.4187
  697MOL0     O93984   9.943   8.836   9.162 -0.4598 -0.2255  0.3458
  697MOL0     C93985  10.046   8.787   9.086  0.2862  0.1411  0.1473
  697MOL0     C93986  10.145   8.865   9.032 -0.0507  0.6057 -0.0210
  697MOL0     C93987  10.252   8.809   8.955  0.4462  0.0159  0.2381
  697MOL0     C93988  10.351   8.904   8.882 -0.4870  0.2658  0.3540
  697MOL0     C93989  10.254   8.664   8.933  0.6638  0.2584 -0.3514
  697MOL0     C93990  10.346   8.587   8.843 -0.6496  0.1202 -0.4942
  697MOL0     O93991  10.373   8.448   8.864 -0.8318  0.4219 -0.4247
  697MOL0     C93992  10.484   8.382   8.821 -0.4213  0.7923  0.2562
  697MOL0     C93993  10.610   8.429   8.819 -0.2600 -0.6988  0.9489
  697MOL0     C93994  10.723   8.346   8.784 -0.2088 -0.4108  0.2348
  697MOL0     C93995  10.708   8.220   8.731 -0.2143  0.6291  0.7110
  697MOL0     O93996  10.811   8.149   8.679 -0.6505 -0.6753 -0.5922
  697MOL0     C93997  10.788   8.061   8.565  0.0836 -0.2813  0.7886
  697MOL0     C93998  10.924   8.035   8.495 -0.6124  0.2485 -0.1092
  697MOL0     C93999  11.058   8.079   8.559  0.2912 -1.0139 -0.2805
  697MOL0     C94000  11.184   8.046   8.482 -0.4614  0.2642  0.6285
  697MOL0     C94001  11.214   7.889   8.492  1.0993 -0.0372 -0.3312
  697MOL0     C94002  11.348   7.863   8.444  0.4112 -0.0657 -0.8359
  697MOL0     C94003  11.375   7.721   8.463 -0.6929 -1.0697  0.2144
  697MOL0     C94004  11.524   7.703   8.444  0.1726 -0.7991  0.1986
  697MOL0    Cl94005  11.568   7.544   8.471  0.4677  0.1122  0.1453
  697MOL0     C94006  10.572   8.172   8.733 -0.4445 -0.9856  0.2284
  697MOL0     C94007  10.468   8.245   8.785  0.4800  0.3959 -1.3302
  697MOL0     O94008  10.408   8.651   8.759 -0.2926 -0.3671 -0.1716
  697MOL0     C94009  10.155   8.583   8.991  0.3722 -0.3338 -0.9859
  697MOL0     C94010  10.056   8.647   9.063 -0.9207 -0.0119 -0.2467
  697MOL0     N94011   9.416   8.895   9.068  0.7377  0.1123 -0.0770
  697MOL0     N94012   9.352   8.942   8.964  0.6409  0.0932 -0.1099
  697MOL0     C94013   9.954   9.283   9.012 -1.0178 -1.0846  0.7311
  697MOL0     C94014  10.093   9.278   9.060  0.6688  0.1392  0.7717
  697MOL0     C94015  10.522   9.352   9.157 -0.2422  0.3006  0.7409
  697MOL0     C94016  10.582   9.365   9.284 -0.1902 -1.0356  0.2325
  697MOL0     C94017  10.717   9.349   9.302  0.2289 -0.1213  0.0112
  697MOL0     C94018  10.807   9.336   9.191  0.3381  0.5107  0.3242
  697MOL0     O94019  10.941   9.348   9.223  0.5364  0.8264  0.3357
  697MOL0     C94020  11.045   9.375   9.117 -0.5402  0.4219  0.0169
  697MOL0     C94021  11.179   9.317   9.174 -0.2606 -0.0841  0.1427
  697MOL0     C94022  11.197   9.167   9.188  0.1620  0.1720  0.3492
  697MOL0     C94023  11.338   9.131   9.238  0.2460 -0.3115 -0.7798
  697MOL0     C94024  11.362   8.985   9.217  0.3471 -0.0788 -0.5900
  697MOL0     C94025  11.374   8.861   9.197  0.0454  0.6447  0.0214
  697MOL0     C94026  10.747   9.329   9.065  0.0165 -1.0467  0.0443
  697MOL0     C94027  10.607   9.320   9.050  1.8675  0.0130 -0.3571
  697MOL0     H94028  10.235   9.451   8.786  0.6837  0.8346 -0.3115
  697MOL0     H94029  10.019   9.468   8.711  2.8233 -1.6368 -0.8860
  697MOL0     H94030   9.817   9.523   8.723 -0.6915  0.3158 -0.7504
  697MOL0     H94031   9.800   9.376   8.626  1.2454 -3.6718  2.3071
  697MOL0     H94032   9.590   9.520   8.815  1.6494 -1.1838  1.9824
  697MOL0     H94033   9.586   9.527   8.650  0.8530  0.8717 -0.0459
  697MOL0     H94034   9.543   9.259   8.793  1.2133 -0.1163  0.3118
  697MOL0     H94035   9.425   9.366   8.714  0.1747  0.6235 -0.7106
  697MOL0     H94036   9.473   9.343   8.513 -0.6763  0.6857  1.3894
  697MOL0     H94037   9.627   9.253   8.533  0.6409  0.4136  0.1325
  697MOL0     H94038   9.351   9.152   8.622  1.2052 -0.0568  0.3743
  697MOL0     H94039   9.419   9.116   8.461  0.0315  0.7436  0.8074
  697MOL0     H94040   9.603   8.986   8.557  0.3654  1.3377  0.1657
  697MOL0     H94041   9.564   9.017   8.710  1.0426 -1.5789 -0.7960
  697MOL0     H94042   9.378   8.861   8.531 -0.4820  0.0700  1.7568
  697MOL0     H94043   9.494   8.796   8.645  0.3320 -0.2901  0.6101
  697MOL0     H94044   9.241   8.795   8.714 -0.1647  1.7880 -0.6864
  697MOL0     H94045   9.268   8.969   8.740 -0.4041 -0.9206  0.9831
  697MOL0     H94046   9.530   8.689   8.854 -1.0900 -0.5237 -0.6778
  697MOL0     H94047   9.525   8.635   9.190  1.5795 -0.8099  1.4361
  697MOL0     H94048   9.651   8.658   9.082  0.5107  2.2760  0.5918
  697MOL0     H94049   9.720   8.747   9.283  1.5538  1.3749 -0.1938
  697MOL0     H94050   9.566   8.839   9.300 -0.4663  0.6926 -2.3740
  697MOL0     H94051   9.748   8.995   9.248  0.6561  0.5549 -0.6551
  697MOL0     H94052   9.652   8.979   9.098 -0.5852 -0.2948  0.3766
  697MOL0     H94053   9.881   8.989   9.044 -0.3759  0.3571  0.1910
  697MOL0     H94054   9.804   8.839   8.995 -0.3430 -1.0191  0.3343
  697MOL0     H94055  10.154   8.970   9.058  2.0526  0.2463  0.8370
  697MOL0     H94056  10.450   8.859   8.869  1.6539  4.8488 -1.4283
  697MOL0     H94057  10.318   8.943   8.785 -0.8894 -1.2666 -0.1495
  697MOL0     H94058  10.364   8.990   8.949 -1.5444 -0.8699  2.0808
  697MOL0     H94059  10.623   8.531   8.855  1.7706 -0.3824 -0.4744
  697MOL0     H94060  10.823   8.387   8.770  0.3586 -0.8666  2.4560
  697MOL0     H94061  10.747   7.969   8.608 -2.7067  0.2235 -0.5623
  697MOL0     H94062  10.718   8.105   8.494  2.2226  5.2192  1.5827
  697MOL0     H94063  10.940   7.929   8.473  1.8805  0.1389  1.7971
  697MOL0     H94064  10.925   8.083   8.397  2.1640 -0.5498 -0.5547
  697MOL0     H94065  11.066   8.045   8.663 -0.0025  0.8741  0.3941
  697MOL0     H94066  11.047   8.186   8.579  0.5255 -0.9796 -0.3366
  697MOL0     H94067  11.170   8.074   8.377 -1.5745 -0.3796  0.5948
  697MOL0     H94068  11.265   8.106   8.524  0.3997  0.4714 -1.2092
  697MOL0     H94069  11.142   7.825   8.439  1.2303 -1.3722  1.0290
  697MOL0     H94070  11.210   7.861   8.598  0.4613  1.7916  0.1591
  697MOL0     H94071  11.373   7.892   8.341 -0.1934  3.8128 -0.0632
  697MOL0     H94072  11.416   7.922   8.506 -0.9116 -0.0226  0.6304
  697MOL0     H94073  11.321   7.658   8.390 -0.0548  1.9920 -3.2010
  697MOL0     H94074  11.363   7.689   8.567  2.8887  0.4726  1.2503
  697MOL0     H94075  11.581   7.770   8.508  1.1260  0.3118 -1.7196
  697MOL0     H94076  11.555   7.734   8.344  0.4737  0.2129  0.5987
  697MOL0     H94077  10.553   8.072   8.697  1.1936 -1.5647  0.8581
  697MOL0     H94078  10.372   8.196   8.787 -1.0033  3.0625 -2.0368
  697MOL0     H94079  10.148   8.475   9.001 -0.4172 -0.2212 -0.1370
  697MOL0     H94080   9.981   8.584   9.110 -0.0074  0.4276  1.8770
  697MOL0     H94081   9.876   9.234   9.069 -2.3420 -1.2667 -1.1589
  697MOL0     H94082  10.118   9.228   9.152  1.8483 -0.5395  0.1138
  697MOL0     H94083  10.521   9.390   9.370  1.1306 -0.9208  1.1653
  697MOL0     H94084  10.762   9.357   9.400  0.2002  1.4600 -0.0772
  697MOL0     H94085  11.018   9.322   9.025 -1.9138  2.0574 -0.5950
  697MOL0     H94086  11.038   9.484   9.105 -0.0968  0.6635  1.7049
  697MOL0     H94087  11.189   9.360   9.275 -1.7288 -2.8021  1.5526
  697MOL0     H94088  11.266   9.346   9.114 -0.1982  3.0223  1.5379
  697MOL0     H94089  11.184   9.124   9.089  0.1304  3.5082 -1.2111
  697MOL0     H94090  11.110   9.120   9.235 -0.3515 -0.4402 -1.1537
  697MOL0     H94091  11.342   9.131   9.348  0.6042 -0.0955 -0.7886
  697MOL0     H94092  11.427   9.187   9.205  2.5157 -3.1288  0.1151
  697MOL0     H94093  11.356   8.757   9.177  3.0339 -0.5734  2.7811
  697MOL0     H94094  10.824   9.322   8.989  2.7170 -1.8319  2.6722
  697MOL0     H94095  10.561   9.322   8.952  2.0004  1.8869 -0.4158
  698MOL0     O94096   8.635   6.974   7.691  0.1477  0.2766  0.2327
  698MOL0     C94097   8.652   7.066   7.610  0.6237 -0.3876 -0.5566
  698MOL0     O94098   8.599   7.075   7.488  0.3543 -0.3237 -0.6254
  698MOL0     C94099   8.502   6.990   7.433  0.1805  0.1209 -0.4553
  698MOL0     C94100   8.494   6.983   7.292  0.0441 -0.9024 -0.1157
  698MOL0     C94101   8.408   6.899   7.232  0.0265 -0.1499  0.1887
  698MOL0     C94102   8.316   6.826   7.308 -0.0214 -0.3445  0.4944
  698MOL0     O94103   8.230   6.752   7.239 -0.1002  0.0084 -0.4334
  698MOL0     C94104   8.256   6.612   7.260 -0.8165 -0.0340  0.2465
  698MOL0     C94105   8.230   6.534   7.128 -0.7877  0.1613  0.9881
  698MOL0     C94106   8.308   6.582   7.005  0.7316  0.1486  0.0938
  698MOL0     C94107   8.458   6.575   7.027  0.2609  0.0246 -0.2039
  698MOL0     C94108   8.544   6.574   6.898 -0.7313  0.8056  0.4854
  698MOL0     C94109   8.539   6.445   6.831 -0.5081  0.9098  0.4924
  698MOL0     C94110   8.637   6.429   6.723 -0.2371 -0.1877 -0.6527
  698MOL0     C94111   8.788   6.447   6.753  0.5007  0.9467 -0.0726
  698MOL0     N94112   8.871   6.415   6.633  0.5676  0.5071 -0.2648
  698MOL0     C94113   9.006   6.379   6.636 -0.0742  0.2069  0.2060
  698MOL0     C94114   9.037   6.373   6.507 -0.2848 -0.1058  0.7494
  698MOL0     C94115   9.182   6.350   6.451  0.3226  0.2123 -0.6226
  698MOL0     C94116   9.227   6.463   6.367  0.0162 -0.1202  0.3684
  698MOL0     C94117   9.234   6.604   6.436 -0.1968 -0.1157  1.4780
  698MOL0     C94118   9.324   6.620   6.555  0.3189 -0.2864  0.7697
  698MOL0     O94119   9.267   6.563   6.670  0.2759 -0.1923 -0.2632
  698MOL0     C94120   9.342   6.573   6.791  0.5845  0.3238 -0.8693
  698MOL0     C94121   9.476   6.560   6.813 -0.6993 -1.2094  1.0177
  698MOL0     C94122   9.547   6.596   6.927 -0.1830  0.2374 -0.4276
  698MOL0     C94123   9.694   6.578   6.926  0.0710  0.3610  0.0717
  698MOL0     C94124   9.474   6.631   7.041  0.0245 -0.6096 -0.0830
  698MOL0     C94125   9.533   6.683   7.178  0.5103 -0.1002 -0.2365
  698MOL0     O94126   9.445   6.679   7.291 -0.0730 -0.1919  0.0003
  698MOL0     C94127   9.475   6.735   7.411  0.2613  1.3766 -0.1965
  698MOL0     C94128   9.402   6.677   7.516  0.3619  0.0618  0.4770
  698MOL0     C94129   9.432   6.720   7.645  0.8367 -0.2967 -0.1228
  698MOL0     C94130   9.518   6.825   7.683  0.2237 -0.1310 -0.7214
  698MOL0     O94131   9.547   6.871   7.815  0.6533  0.1956  0.3224
  698MOL0     C94132   9.494   6.798   7.928  0.0934  0.3670 -0.3585
  698MOL0     C94133   9.498   6.873   8.065 -0.3641 -0.4381  0.6397
  698MOL0     C94134   9.431   7.007   8.059 -0.4012 -0.2874 -0.5779
  698MOL0     C94135   9.297   6.995   8.134 -0.6260  0.5114  0.2151
  698MOL0     C94136   9.226   7.129   8.144  0.1239  0.3781  0.7817
  698MOL0     C94137   9.268   7.216   8.261 -0.1636  1.0168  0.0156
  698MOL0     C94138   9.188   7.347   8.281  0.2701  0.0844 -0.0488
  698MOL0     C94139   9.241   7.447   8.179 -0.4873  0.4466  0.1477
  698MOL0    Cl94140   9.152   7.602   8.203 -0.0141  0.4712  0.6837
  698MOL0     C94141   9.577   6.888   7.578  0.3520 -0.2590  0.9352
  698MOL0     C94142   9.558   6.847   7.445  0.1848  0.6866 -0.2900
  698MOL0     O94143   9.650   6.720   7.179 -0.0186  0.0354  0.4200
  698MOL0     C94144   9.333   6.637   7.026 -0.4812 -0.8483 -0.2253
  698MOL0     C94145   9.265   6.607   6.907 -0.6675 -0.9868  0.4724
  698MOL0     N94146   8.926   6.397   6.431  0.2597 -0.3588  0.0977
  698MOL0     N94147   8.831   6.423   6.506  0.0475 -0.1340 -1.3049
  698MOL0     C94148   8.314   6.835   7.448  0.6950 -0.5043  0.5915
  698MOL0     C94149   8.406   6.922   7.513  0.7787 -0.1571  1.5378
  698MOL0     C94150   8.723   7.185   7.658 -0.0757 -0.3322  0.1766
  698MOL0     C94151   8.765   7.286   7.565 -0.0225  0.1743 -0.3754
  698MOL0     C94152   8.829   7.403   7.623  0.0681  0.5557 -0.1586
  698MOL0     C94153   8.862   7.408   7.753  0.1395  0.3961 -0.3445
  698MOL0     O94154   8.916   7.516   7.817 -0.7143 -0.1288  0.0505
  698MOL0     C94155   8.964   7.621   7.741 -0.4231 -0.3730 -0.2656
  698MOL0     C94156   9.040   7.732   7.819 -0.7998 -1.1173  0.9817
  698MOL0     C94157   8.954   7.808   7.921  0.0152 -0.0435  0.3696
  698MOL0     C94158   9.040   7.899   8.009  0.7450  0.8079 -0.2753
  698MOL0     C94159   8.962   7.973   8.103 -0.8543 -0.0469  0.5073
  698MOL0     C94160   8.892   8.017   8.188  0.8413  0.7376  0.9610
  698MOL0     C94161   8.822   7.312   7.844 -1.6894  0.4423  0.8883
  698MOL0     C94162   8.753   7.201   7.796  0.0749  0.0706 -0.3637
  698MOL0     H94163   8.547   7.055   7.230 -2.7890  0.4394 -1.1664
  698MOL0     H94164   8.399   6.894   7.124 -2.3098  0.4071  0.3136
  698MOL0     H94165   8.358   6.590   7.290 -0.9762  0.6878  1.3653
  698MOL0     H94166   8.184   6.582   7.337 -2.5552  2.0229 -0.4929
  698MOL0     H94167   8.240   6.426   7.140  1.0419  0.1600 -0.1674
  698MOL0     H94168   8.125   6.556   7.110 -0.4377  1.0615 -0.0667
  698MOL0     H94169   8.281   6.521   6.919 -2.8036  0.8968  0.5566
  698MOL0     H94170   8.271   6.683   6.988 -0.6444 -0.4635 -0.6583
  698MOL0     H94171   8.486   6.654   7.098  2.1060 -1.9362  1.3965
  698MOL0     H94172   8.481   6.485   7.084  2.8482  1.0565  0.5469
  698MOL0     H94173   8.509   6.650   6.828 -0.3925  2.2047  1.7899
  698MOL0     H94174   8.645   6.597   6.934 -1.0799  0.6893  1.5741
  698MOL0     H94175   8.565   6.360   6.894  1.0049  1.2980  0.4295
  698MOL0     H94176   8.437   6.440   6.792  0.6721  1.0825 -2.9955
  698MOL0     H94177   8.626   6.324   6.693 -3.2877  0.1770 -1.1006
  698MOL0     H94178   8.609   6.490   6.637 -0.8425  2.6288  1.4169
  698MOL0     H94179   8.819   6.376   6.830 -3.7865 -1.1920 -0.0309
  698MOL0     H94180   8.811   6.550   6.782 -0.5665  0.9357  0.9010
  698MOL0     H94181   9.075   6.362   6.718  2.3965 -1.0333 -1.9801
  698MOL0     H94182   9.249   6.349   6.538  0.6735 -0.2616 -0.8912
  698MOL0     H94183   9.177   6.249   6.410  1.4354  0.0684 -0.4494
  698MOL0     H94184   9.163   6.458   6.279 -0.7541 -1.0329  0.9685
  698MOL0     H94185   9.332   6.438   6.345  0.6735  1.6067  1.3731
  698MOL0     H94186   9.132   6.619   6.474 -1.4350 -1.2383 -1.1038
  698MOL0     H94187   9.255   6.678   6.359  0.5892 -2.1136 -0.3368
  698MOL0     H94188   9.341   6.727   6.572 -0.6709  0.4371 -2.2331
  698MOL0     H94189   9.419   6.572   6.528  0.7416  1.9401 -2.0983
  698MOL0     H94190   9.540   6.536   6.729  1.8866  1.0162  2.2223
  698MOL0     H94191   9.712   6.527   7.021 -2.1915  1.4249  1.1462
  698MOL0     H94192   9.739   6.530   6.839 -0.5470  1.1360 -0.6851
  698MOL0     H94193   9.735   6.680   6.925  0.2964  0.3002  1.1655
  698MOL0     H94194   9.335   6.598   7.485  2.0676 -0.7936 -1.3174
  698MOL0     H94195   9.375   6.670   7.722  0.9009  1.7089  1.3140
  698MOL0     H94196   9.384   6.791   7.925 -0.0174 -2.4718  3.2121
  698MOL0     H94197   9.531   6.696   7.935 -1.3280 -0.0817  1.7306
  698MOL0     H94198   9.443   6.807   8.133 -3.4754  2.1997  0.9387
  698MOL0     H94199   9.600   6.881   8.103  0.5599 -3.5420 -0.8577
  698MOL0     H94200   9.423   7.032   7.952 -1.7656 -2.7805 -1.1461
  698MOL0     H94201   9.500   7.077   8.106  0.8057 -1.3412 -0.7299
  698MOL0     H94202   9.236   6.923   8.078 -0.4362 -1.4821  2.4280
  698MOL0     H94203   9.323   6.957   8.233 -1.3755  0.1387  0.2763
  698MOL0     H94204   9.121   7.099   8.155  0.2277  0.0808  0.9893
  698MOL0     H94205   9.216   7.180   8.048 -0.4150  1.1873  1.2575
  698MOL0     H94206   9.243   7.158   8.351 -0.2040 -1.6328 -1.6064
  698MOL0     H94207   9.377   7.219   8.258  0.0585  0.3629  3.2050
  698MOL0     H94208   9.188   7.385   8.383 -1.1321 -0.0948  0.0375
  698MOL0     H94209   9.083   7.327   8.255  0.4630  2.5684 -3.4658
  698MOL0     H94210   9.248   7.411   8.075  0.9394 -2.0348  1.0201
  698MOL0     H94211   9.343   7.469   8.209 -1.2487 -0.1893  3.6816
  698MOL0     H94212   9.632   6.981   7.585 -2.9245  1.8391  0.6008
  698MOL0     H94213   9.601   6.897   7.358  0.0959 -0.1540 -0.8308
  698MOL0     H94214   9.278   6.661   7.116 -0.1459  2.4863 -0.7794
  698MOL0     H94215   9.159   6.598   6.885 -0.5341 -1.0889 -0.1388
  698MOL0     H94216   8.235   6.784   7.503 -0.2482 -0.7455 -0.9302
  698MOL0     H94217   8.412   6.922   7.622  2.8132 -1.2442  1.4687
  698MOL0     H94218   8.746   7.274   7.459  1.2007 -4.4035 -0.2876
  698MOL0     H94219   8.830   7.497   7.569  1.7828  0.8914  0.4038
  698MOL0     H94220   9.029   7.590   7.659 -1.1176  0.1413 -1.0304
  698MOL0     H94221   8.878   7.668   7.691  1.4720  1.6505 -1.8073
  698MOL0     H94222   9.081   7.791   7.737  1.2590 -1.4395  1.7171
  698MOL0     H94223   9.130   7.693   7.869  0.6696  2.9331  1.8736
  698MOL0     H94224   8.897   7.735   7.979  1.7853 -1.8486 -0.0410
  698MOL0     H94225   8.885   7.876   7.870 -0.9218 -2.6543 -2.1339
  698MOL0     H94226   9.096   7.961   7.937  1.9259  0.8533  0.6353
  698MOL0     H94227   9.109   7.851   8.079 -0.9648  1.3512  1.8717
  698MOL0     H94228   8.829   8.075   8.253 -1.6140  0.4327 -0.9857
  698MOL0     H94229   8.851   7.310   7.948 -1.9623 -1.7089  0.9713
  698MOL0     H94230   8.724   7.131   7.874  1.9857  1.7685  2.0395
  699MOL0     O94231   7.960   2.338   8.780  0.2152 -0.3931 -0.3777
  699MOL0     C94232   7.951   2.364   8.901 -0.7977  0.2131 -0.2017
  699MOL0     O94233   7.833   2.403   8.959  0.7317  1.1469 -0.1379
  699MOL0     C94234   7.730   2.436   8.861 -0.1560 -0.7782 -0.4150
  699MOL0     C94235   7.712   2.570   8.827 -0.5032  0.9241  0.3927
  699MOL0     C94236   7.613   2.605   8.738  0.3388  0.3853  0.5440
  699MOL0     C94237   7.548   2.506   8.665  0.6467 -0.1755 -0.0736
  699MOL0     O94238   7.461   2.557   8.575  0.6824  0.3560 -0.3005
  699MOL0     C94239   7.388   2.467   8.492 -0.2577  0.0367  0.0496
  699MOL0     C94240   7.309   2.557   8.400  0.7664  0.2860  0.2510
  699MOL0     C94241   7.205   2.642   8.466  0.6254  0.4855  0.5682
  699MOL0     C94242   7.165   2.749   8.364  0.3834 -1.0362  0.2246
  699MOL0     C94243   7.051   2.844   8.418 -1.0478  0.6019  0.2157
  699MOL0     C94244   7.013   2.955   8.307 -0.1818  0.0362 -0.5035
  699MOL0     C94245   6.892   3.029   8.353 -0.2209  0.4067 -0.2496
  699MOL0     C94246   6.886   3.065   8.501 -0.1896  0.1329  0.0452
  699MOL0     N94247   6.796   3.176   8.536  0.3931  0.4427  0.2899
  699MOL0     C94248   6.832   3.277   8.614  0.5969  0.4046 -0.2901
  699MOL0     C94249   6.723   3.336   8.670  0.1084  0.2532 -0.3318
  699MOL0     C94250   6.721   3.431   8.782  0.1911 -1.2846 -0.1389
  699MOL0     C94251   6.660   3.565   8.752  0.8651  0.6337 -1.0552
  699MOL0     C94252   6.512   3.557   8.693  1.0691 -0.0097 -0.0716
  699MOL0     C94253   6.406   3.495   8.780  0.0210 -0.2752 -0.2518
  699MOL0     O94254   6.278   3.548   8.736 -0.5131 -0.0042 -0.2871
  699MOL0     C94255   6.169   3.531   8.821 -0.4106 -0.1394  1.0325
  699MOL0     C94256   6.143   3.403   8.875  0.3088  0.8455 -0.6103
  699MOL0     C94257   6.014   3.383   8.941 -1.2670 -1.3487  0.2794
  699MOL0     C94258   5.981   3.248   8.992 -0.1356 -0.2200  0.3600
  699MOL0     C94259   5.924   3.491   8.949  0.2000  0.3012 -0.2324
  699MOL0     C94260   5.795   3.478   9.026 -0.8894  0.8046  0.4436
  699MOL0     O94261   5.795   3.426   9.153 -0.6252 -0.2195  0.1309
  699MOL0     C94262   5.673   3.420   9.219  0.1924  0.0172 -0.5408
  699MOL0     C94263   5.613   3.296   9.237 -0.3573 -0.3512  0.4189
  699MOL0     C94264   5.492   3.294   9.308 -0.0615  0.1191 -0.6592
  699MOL0     C94265   5.422   3.412   9.346 -0.3669 -0.4862  0.2169
  699MOL0     O94266   5.299   3.397   9.416  0.1783 -0.1010  0.4105
  699MOL0     C94267   5.233   3.513   9.482 -0.1145  1.1632  0.5634
  699MOL0     C94268   5.091   3.485   9.511  0.8863 -0.7650 -0.0140
  699MOL0     C94269   5.049   3.379   9.612  0.0132 -0.4784 -1.3693
  699MOL0     C94270   4.907   3.340   9.591  0.3532 -0.3328 -0.2271
  699MOL0     C94271   4.860   3.234   9.687 -0.1192 -0.6894 -0.2349
  699MOL0     C94272   4.930   3.095   9.679  0.0209 -0.4212 -0.9794
  699MOL0     C94273   4.887   2.989   9.782  0.5358 -0.1401  0.7861
  699MOL0     C94274   4.738   2.950   9.778 -0.4526 -0.0475 -0.0023
  699MOL0    Cl94275   4.637   3.030   9.888  0.6986  1.0032 -0.1961
  699MOL0     C94276   5.488   3.529   9.323 -0.1216 -0.0915  0.5424
  699MOL0     C94277   5.616   3.535   9.270  0.0763 -0.0477 -0.1915
  699MOL0     O94278   5.692   3.508   8.963 -0.1413 -0.4670  0.1173
  699MOL0     C94279   5.946   3.607   8.868  0.0222  0.4155 -0.4828
  699MOL0     C94280   6.071   3.627   8.815 -0.3670 -0.1960  0.7693
  699MOL0     N94281   6.610   3.273   8.612 -0.0148 -0.0133 -0.6319
  699MOL0     N94282   6.658   3.171   8.533 -0.0150 -0.3372  0.3397
  699MOL0     C94283   7.550   2.372   8.704 -0.2438 -0.2688  0.4035
  699MOL0     C94284   7.649   2.337   8.795 -0.2308 -0.0086  0.5264
  699MOL0     C94285   8.076   2.360   8.977 -0.2292  0.2142  0.2045
  699MOL0     C94286   8.084   2.420   9.101  0.5746 -0.0011 -0.4927
  699MOL0     C94287   8.203   2.423   9.173  0.1112  0.0809 -0.0637
  699MOL0     C94288   8.321   2.372   9.127  0.5056 -0.1267  0.1718
  699MOL0     O94289   8.424   2.370   9.215 -0.7638  0.1765  0.5763
  699MOL0     C94290   8.541   2.291   9.182  0.3735  0.1675  0.2882
  699MOL0     C94291   8.644   2.294   9.289  0.3639  0.3488 -0.6130
  699MOL0     C94292   8.708   2.430   9.319  0.6454  0.2383  0.1468
  699MOL0     C94293   8.832   2.421   9.422 -0.2704 -0.2252 -0.1917
  699MOL0     C94294   8.941   2.334   9.368 -0.0743 -0.4684 -0.2398
  699MOL0     C94295   9.038   2.270   9.327  0.4131 -1.0404 -1.2942
  699MOL0     C94296   8.319   2.336   8.994 -0.7065 -0.7108 -0.3267
  699MOL0     C94297   8.197   2.322   8.920  0.1854  0.5640  0.4616
  699MOL0     H94298   7.762   2.653   8.876 -0.7768  1.9886 -1.0337
  699MOL0     H94299   7.581   2.705   8.712  1.5756  0.3359 -1.3794
  699MOL0     H94300   7.467   2.408   8.444  2.8187  2.1420  2.1296
  699MOL0     H94301   7.317   2.398   8.539 -0.5732  1.3403  1.5456
  699MOL0     H94302   7.383   2.625   8.357  3.0682 -0.9372  1.9941
  699MOL0     H94303   7.267   2.500   8.317 -2.1055  2.4373  0.0985
  699MOL0     H94304   7.119   2.580   8.493  2.2664 -1.3834  1.7273
  699MOL0     H94305   7.242   2.685   8.560  0.1522 -0.6284  1.2786
  699MOL0     H94306   7.253   2.812   8.348 -0.1032  0.3221  2.4963
  699MOL0     H94307   7.137   2.700   8.271  0.2040  0.1909 -0.3791
  699MOL0     H94308   6.964   2.781   8.439 -0.7532  1.3874  4.8962
  699MOL0     H94309   7.084   2.885   8.514 -0.3822  0.4993  0.0347
  699MOL0     H94310   7.095   3.027   8.300  0.5006 -0.8187 -1.6246
  699MOL0     H94311   7.001   2.902   8.212 -1.5366  1.4893 -1.1799
  699MOL0     H94312   6.878   3.124   8.300 -0.8692 -0.2794 -1.3712
  699MOL0     H94313   6.810   2.959   8.333  0.5297 -1.5396  2.8641
  699MOL0     H94314   6.987   3.089   8.535  1.0298 -1.8554 -1.8891
  699MOL0     H94315   6.868   2.978   8.564  1.0748 -2.1748 -2.5504
  699MOL0     H94316   6.935   3.293   8.643  1.5264 -2.6954 -1.3921
  699MOL0     H94317   6.669   3.393   8.870  1.2900 -0.1282  1.0602
  699MOL0     H94318   6.824   3.458   8.809  0.2409 -2.2494  0.7208
  699MOL0     H94319   6.708   3.632   8.680 -1.3266  2.4697 -0.8981
  699MOL0     H94320   6.655   3.619   8.847  0.5080 -1.3921  0.1307
  699MOL0     H94321   6.514   3.501   8.599 -0.6872 -0.7439  0.3001
  699MOL0     H94322   6.482   3.661   8.677  0.8063 -0.2092 -0.8777
  699MOL0     H94323   6.420   3.527   8.884  1.8886 -0.4136 -0.4182
  699MOL0     H94324   6.412   3.385   8.779 -1.5584 -0.4173  1.1438
  699MOL0     H94325   6.216   3.324   8.885 -1.4067 -0.5501  3.8781
  699MOL0     H94326   5.878   3.226   8.961 -0.4172  0.0940  1.0466
  699MOL0     H94327   6.046   3.177   8.941  5.1955  4.7013 -0.7967
  699MOL0     H94328   5.998   3.242   9.100 -2.5767 -1.2016  0.7492
  699MOL0     H94329   5.639   3.199   9.197 -0.8530 -0.3987  0.2086
  699MOL0     H94330   5.448   3.196   9.323 -0.4399 -0.3227 -3.8273
  699MOL0     H94331   5.286   3.539   9.574 -0.5034  0.1629  1.0888
  699MOL0     H94332   5.233   3.589   9.404 -1.5655 -2.1334 -2.9767
  699MOL0     H94333   5.047   3.578   9.548  0.4675 -1.0751  0.2695
  699MOL0     H94334   5.036   3.450   9.423 -0.4457 -0.5967  0.7231
  699MOL0     H94335   5.058   3.414   9.715 -1.3722  1.7727 -1.9384
  699MOL0     H94336   5.110   3.289   9.601 -0.3800 -0.8489 -0.5944
  699MOL0     H94337   4.842   3.428   9.586  0.8261 -0.0186 -0.9356
  699MOL0     H94338   4.894   3.291   9.494 -1.0355  1.1028 -0.8192
  699MOL0     H94339   4.751   3.228   9.681 -0.2459 -0.4981  1.5019
  699MOL0     H94340   4.883   3.271   9.787  1.5900 -0.2752 -0.7470
  699MOL0     H94341   4.901   3.040   9.590  0.2912  0.0928 -1.3916
  699MOL0     H94342   5.037   3.109   9.696  0.0274  0.0093 -1.3457
  699MOL0     H94343   4.914   3.014   9.885  1.5855  1.2737  0.1963
  699MOL0     H94344   4.948   2.902   9.757 -0.2835 -0.6959  0.6972
  699MOL0     H94345   4.723   2.845   9.804 -0.4246  0.3182  1.6566
  699MOL0     H94346   4.713   2.961   9.672  2.4065  0.1803 -0.7378
  699MOL0     H94347   5.447   3.625   9.352  2.7888  1.5511 -0.3798
  699MOL0     H94348   5.657   3.635   9.267 -1.2038  0.5623  1.3481
  699MOL0     H94349   5.873   3.687   8.872  1.4067  1.8803 -2.4788
  699MOL0     H94350   6.099   3.721   8.768 -2.4202  0.6027  1.0652
  699MOL0     H94351   7.505   2.294   8.644 -2.1414  0.4193  0.8693
  699MOL0     H94352   7.682   2.234   8.806  1.4616  0.0515 -2.8055
  699MOL0     H94353   7.999   2.463   9.152  0.5318  1.8502 -1.9871
  699MOL0     H94354   8.204   2.449   9.278 -1.1837 -0.0830  0.0015
  699MOL0     H94355   8.510   2.190   9.155  0.4082  0.3540 -0.4789
  699MOL0     H94356   8.582   2.341   9.094 -1.0284 -2.1689 -1.8460
  699MOL0     H94357   8.726   2.225   9.267 -0.4303 -0.7561 -0.2469
  699MOL0     H94358   8.594   2.255   9.379 -0.6519  0.8480 -0.9451
  699MOL0     H94359   8.630   2.498   9.356 -0.4460 -0.6328 -0.5186
  699MOL0     H94360   8.746   2.473   9.226  1.6998  0.2472  0.5707
  699MOL0     H94361   8.789   2.395   9.519 -0.5509 -2.4057 -0.8499
  699MOL0     H94362   8.866   2.525   9.428 -1.2932  0.1320 -0.4257
  699MOL0     H94363   9.116   2.209   9.286  1.4023 -2.6415  2.5186
  699MOL0     H94364   8.408   2.300   8.943 -1.5465  1.1107 -3.2740
  699MOL0     H94365   8.203   2.295   8.815 -1.2989  0.4850  0.3726
  700MOL0     O94366   2.890   4.697  10.209 -0.2405 -0.6745  0.2522
  700MOL0     C94367   2.898   4.763  10.312 -0.5518 -0.2582 -0.0653
  700MOL0     O94368   2.812   4.759  10.421 -0.4546  0.4427 -0.5091
  700MOL0     C94369   2.702   4.680  10.414 -0.7373  1.2205 -0.3072
  700MOL0     C94370   2.695   4.543  10.384  0.2380 -0.2938 -0.2559
  700MOL0     C94371   2.572   4.478  10.376  0.4470 -0.9347 -1.1143
  700MOL0     C94372   2.445   4.543  10.406 -0.2792 -0.1439 -0.2893
  700MOL0     O94373   2.330   4.465  10.407  0.7043  0.9850  0.3074
  700MOL0     C94374   2.205   4.537  10.416 -0.4952  0.1591 -0.0875
  700MOL0     C94375   2.092   4.437  10.430  1.0913 -0.6444 -0.5608
  700MOL0     C94376   1.956   4.512  10.425 -0.0451  1.1982  0.4139
  700MOL0     C94377   1.846   4.411  10.458 -0.3029 -0.9703  0.8383
  700MOL0     C94378   1.713   4.487  10.475 -0.0882 -0.5026 -0.2430
  700MOL0     C94379   1.591   4.399  10.459 -0.0491  0.3604 -0.3726
  700MOL0     C94380   1.463   4.461  10.524  0.4720  0.1790 -0.2057
  700MOL0     C94381   1.356   4.363  10.511  0.5680 -0.1364  0.0509
  700MOL0     N94382   1.231   4.411  10.579 -0.0811  0.3832  0.4479
  700MOL0     C94383   1.217   4.453  10.706 -0.8785  0.0799 -0.3169
  700MOL0     C94384   1.084   4.458  10.729 -0.0657  0.3231  1.2290
  700MOL0     C94385   1.004   4.500  10.856  0.1466 -0.0338  0.0481
  700MOL0     C94386   0.845   4.485  10.854  0.1468  0.4442  0.3286
  700MOL0     C94387   0.813   4.330  10.830  0.4827 -0.0785  0.3248
  700MOL0     C94388   0.679   4.269  10.882  0.4384 -0.8034 -0.4800
  700MOL0     O94389   0.555   4.330  10.836  0.4584  0.2626 -0.2901
  700MOL0     C94390   0.436   4.267  10.877  0.9611  0.1646  0.0379
  700MOL0     C94391   0.417   4.208  11.006 -0.6621 -0.2274 -0.2355
  700MOL0     C94392   0.289   4.161  11.046 -0.3291 -0.0184 -0.7222
  700MOL0     C94393   0.286   4.076  11.174  0.9539 -0.0246 -0.3566
  700MOL0     C94394   0.183   4.169  10.953  0.1362  0.5274 -0.9388
  700MOL0     C94395   0.046   4.124  10.977 -0.9717  0.0730 -0.4263
  700MOL0     O94396  -0.054   4.184  10.904 -0.1286 -0.1890  0.5825
  700MOL0     C94397  -0.185   4.155  10.926  0.3534 -0.0011 -0.6050
  700MOL0     C94398  -0.263   4.151  10.810  0.2958  0.8268 -0.0871
  700MOL0     C94399  -0.403   4.141  10.816 -0.1845 -0.7083  0.1648
  700MOL0     C94400  -0.460   4.107  10.937  0.3488  0.2841 -0.0842
  700MOL0     O94401  -0.599   4.106  10.949 -0.4313  0.4725  0.1070
  700MOL0     C94402  -0.681   4.215  10.998  0.2416 -0.3924 -0.8789
  700MOL0     C94403  -0.817   4.190  10.949 -0.0215  0.4887  0.3448
  700MOL0     C94404  -0.919   4.264  11.037 -0.8129 -0.4366  0.7074
  700MOL0     C94405  -1.070   4.261  10.984 -0.2213  0.2393  0.1484
  700MOL0     C94406  -1.163   4.327  11.088 -0.5212 -0.4273 -0.1191
  700MOL0     C94407  -1.209   4.249  11.204  0.2604  0.0539 -0.3110
  700MOL0     C94408  -1.281   4.330  11.311 -0.1064 -0.0722 -0.9351
  700MOL0     C94409  -1.348   4.258  11.432  0.6269 -0.2692 -0.2654
  700MOL0    Cl94410  -1.468   4.141  11.363 -0.0952 -0.0205 -0.0169
  700MOL0     C94411  -0.389   4.096  11.051 -0.3660  0.7226 -0.3386
  700MOL0     C94412  -0.248   4.117  11.048 -0.4246  0.0850  0.3204
  700MOL0     O94413   0.034   4.030  11.052  0.8020  0.7769  0.1797
  700MOL0     C94414   0.202   4.220  10.827 -0.0194 -0.6682  0.1091
  700MOL0     C94415   0.334   4.271  10.785 -0.0835 -0.5699  1.0559
  700MOL0     N94416   1.019   4.429  10.604 -0.6043 -0.5836  0.0276
  700MOL0     N94417   1.112   4.399  10.522  0.2840  0.0646  0.3384
  700MOL0     C94418   2.460   4.679  10.438 -0.0212  0.4077 -0.2695
  700MOL0     C94419   2.584   4.743  10.442  0.2286  0.3333 -0.2338
  700MOL0     C94420   3.017   4.848  10.311 -0.2328 -0.5348 -0.0397
  700MOL0     C94421   3.063   4.881  10.444  1.1265  0.1334  0.3064
  700MOL0     C94422   3.172   4.966  10.454  0.8899  0.4951 -0.7961
  700MOL0     C94423   3.240   5.028  10.350 -0.3179 -0.1017 -0.0918
  700MOL0     O94424   3.346   5.109  10.365 -0.6475  0.2287  0.0765
  700MOL0     C94425   3.370   5.178  10.492  0.6751  0.1594 -0.4017
  700MOL0     C94426   3.497   5.264  10.487  0.7347 -0.3307 -0.4266
  700MOL0     C94427   3.466   5.383  10.407  0.0600 -0.1119  0.9125
  700MOL0     C94428   3.581   5.487  10.426 -0.8367 -0.2994 -0.0391
  700MOL0     C94429   3.604   5.582  10.314 -0.6629  0.4040  0.1741
  700MOL0     C94430   3.639   5.666  10.237  0.1311  0.1430  0.8750
  700MOL0     C94431   3.216   4.973  10.220 -0.5571 -0.5704 -0.4031
  700MOL0     C94432   3.095   4.883  10.204 -0.3221  0.2381 -0.4796
  700MOL0     H94433   2.786   4.490  10.359  1.4720  2.3164 -1.6841
  700MOL0     H94434   2.570   4.369  10.369 -3.1183 -0.9377 -2.2670
  700MOL0     H94435   2.204   4.600  10.505 -1.0197 -0.1107  0.0987
  700MOL0     H94436   2.189   4.590  10.322 -0.6473  0.8063  0.3016
  700MOL0     H94437   2.105   4.369  10.345 -1.6929  0.2356 -1.8145
  700MOL0     H94438   2.095   4.399  10.532 -0.3772 -1.9709 -0.9669
  700MOL0     H94439   1.962   4.591  10.500  2.6115  0.9503  0.5320
  700MOL0     H94440   1.943   4.556  10.325  1.9366  0.5329 -0.1680
  700MOL0     H94441   1.832   4.337  10.378 -2.0182 -0.7781  0.9252
  700MOL0     H94442   1.860   4.354  10.550  2.2509 -1.9752 -0.0764
  700MOL0     H94443   1.720   4.538  10.572  0.7227  0.3459 -0.7329
  700MOL0     H94444   1.707   4.568  10.403 -0.3637  0.1409  0.4882
  700MOL0     H94445   1.584   4.377  10.352  3.8254  0.2565 -0.7384
  700MOL0     H94446   1.617   4.307  10.512  2.6619  0.0512 -2.0399
  700MOL0     H94447   1.471   4.486  10.630 -0.6095  3.1615 -0.7312
  700MOL0     H94448   1.434   4.557  10.482 -1.0011  0.1754  0.7376
  700MOL0     H94449   1.394   4.268  10.550  2.5170  0.5195 -0.1510
  700MOL0     H94450   1.327   4.347  10.407 -1.6991  1.8045  0.2966
  700MOL0     H94451   1.292   4.476  10.781  0.8649  0.9660 -2.2410
  700MOL0     H94452   1.037   4.459  10.952  0.9542  1.6211  0.5228
  700MOL0     H94453   1.019   4.607  10.873  1.6758 -0.5247  2.0917
  700MOL0     H94454   0.794   4.553  10.785  0.5225 -0.3468 -0.7578
  700MOL0     H94455   0.812   4.512  10.955 -0.5445 -2.0486  0.8393
  700MOL0     H94456   0.888   4.262  10.872  0.0633 -0.8286 -0.1459
  700MOL0     H94457   0.811   4.315  10.722 -0.5849 -3.0452  0.6780
  700MOL0     H94458   0.688   4.253  10.990  4.3027 -2.2170 -0.8429
  700MOL0     H94459   0.667   4.172  10.833 -2.5443 -1.5682  1.4848
  700MOL0     H94460   0.495   4.215  11.081 -2.3807  2.1661  1.4754
  700MOL0     H94461   0.293   3.969  11.158 -2.5640 -1.3146  4.3693
  700MOL0     H94462   0.358   4.112  11.248  0.6625  2.8330 -1.3304
  700MOL0     H94463   0.195   4.071  11.235  0.2962 -2.4030 -1.4500
  700MOL0     H94464  -0.213   4.179  10.718  0.4755  1.4482  0.1967
  700MOL0     H94465  -0.470   4.157  10.732  0.4501 -1.2307 -0.4529
  700MOL0     H94466  -0.676   4.225  11.107 -1.1111 -0.4878 -0.7910
  700MOL0     H94467  -0.637   4.309  10.966  0.9726 -0.0005  1.1085
  700MOL0     H94468  -0.825   4.222  10.845  1.8658  0.4973  0.1752
  700MOL0     H94469  -0.843   4.084  10.957 -0.3901  0.4671 -0.9674
  700MOL0     H94470  -0.880   4.366  11.029 -0.2340 -0.7916 -1.5417
  700MOL0     H94471  -0.910   4.228  11.140  1.0952 -0.6369  0.4894
  700MOL0     H94472  -1.072   4.321  10.893  3.2007  1.6624  0.8307
  700MOL0     H94473  -1.097   4.156  10.970 -1.7170  0.5334  0.6990
  700MOL0     H94474  -1.258   4.346  11.039 -0.9047 -0.1385  0.7269
  700MOL0     H94475  -1.115   4.418  11.123 -3.2170  0.9471  0.1964
  700MOL0     H94476  -1.268   4.168  11.159  2.4366 -1.8990  0.1671
  700MOL0     H94477  -1.119   4.204  11.247 -0.1573 -0.2512  0.2599
  700MOL0     H94478  -1.366   4.388  11.274  0.2722  1.4425  0.4776
  700MOL0     H94479  -1.201   4.390  11.355  1.6358 -1.6629 -1.7992
  700MOL0     H94480  -1.406   4.330  11.491 -0.4597 -1.9533  0.8542
  700MOL0     H94481  -1.280   4.207  11.501  0.4751  0.2392  0.2667
  700MOL0     H94482  -0.432   4.077  11.149 -0.1203 -1.7352 -0.6599
  700MOL0     H94483  -0.185   4.131  11.135  0.5713 -1.8248 -0.0419
  700MOL0     H94484   0.122   4.227  10.754  1.2057 -0.9814 -1.3227
  700MOL0     H94485   0.350   4.319  10.689  0.3362  1.0755  1.9162
  700MOL0     H94486   2.366   4.729  10.459  0.7831  2.3064 -0.8903
  700MOL0     H94487   2.589   4.848  10.469  0.3050  0.1747  0.3836
  700MOL0     H94488   3.022   4.842  10.537  0.5360 -2.3747 -0.8965
  700MOL0     H94489   3.189   4.988  10.559  0.0375 -1.5707 -0.1810
  700MOL0     H94490   3.286   5.245  10.511 -1.0277 -0.8515 -3.5936
  700MOL0     H94491   3.388   5.114  10.578  0.2455  1.3382  0.5958
  700MOL0     H94492   3.570   5.194  10.444 -0.0911 -0.9227 -0.8894
  700MOL0     H94493   3.522   5.292  10.590 -0.2621  0.9603 -0.5085
  700MOL0     H94494   3.379   5.442  10.437  0.0938  0.3835  0.0887
  700MOL0     H94495   3.449   5.358  10.302  2.1396  2.0938 -0.0506
  700MOL0     H94496   3.679   5.439  10.430 -0.5315 -0.0582 -2.6202
  700MOL0     H94497   3.564   5.546  10.516 -0.2124  1.1448 -0.8444
  700MOL0     H94498   3.664   5.731  10.155  0.4856 -1.6890 -0.5376
  700MOL0     H94499   3.282   4.992  10.137  2.6248 -5.2376  0.6081
  700MOL0     H94500   3.079   4.836  10.108 -1.3775 -0.8023  0.1705
  701MOL0     O94501  11.345   3.982   9.080  0.4739 -0.2948  0.1176
  701MOL0     C94502  11.413   4.008   8.978 -0.0389  0.6964 -0.3135
  701MOL0     O94503  11.362   4.040   8.849  0.3050  0.2530 -0.8686
  701MOL0     C94504  11.228   4.061   8.839  0.6196 -0.0294 -0.0233
  701MOL0     C94505  11.184   4.184   8.785  0.2473 -0.1453  0.1840
  701MOL0     C94506  11.045   4.208   8.760  0.9003 -0.4543  0.0744
  701MOL0     C94507  10.952   4.113   8.790  0.4440  0.8569  0.6949
  701MOL0     O94508  10.825   4.139   8.741  0.7301 -0.3131  0.8408
  701MOL0     C94509  10.716   4.079   8.807 -0.7915 -1.3817  0.4493
  701MOL0     C94510  10.579   4.116   8.742 -0.1631  0.8846 -0.1102
  701MOL0     C94511  10.535   4.261   8.765 -0.2662  0.2612  0.4746
  701MOL0     C94512  10.442   4.261   8.884  0.5119 -0.6399 -0.2265
  701MOL0     C94513  10.394   4.397   8.929  0.5307 -0.3964  0.6187
  701MOL0     C94514  10.269   4.371   9.009  0.3466 -0.2373 -0.1901
  701MOL0     C94515  10.288   4.354   9.165 -0.0580 -1.8659 -0.8231
  701MOL0     C94516  10.169   4.362   9.252  0.1699  0.9804  0.9923
  701MOL0     N94517  10.063   4.263   9.219  0.7000 -1.0239  0.2710
  701MOL0     C94518   9.970   4.261   9.118  0.1914 -0.2478 -0.7488
  701MOL0     C94519   9.885   4.163   9.136 -0.5385  0.0431 -1.0360
  701MOL0     C94520   9.748   4.132   9.063 -0.2182 -0.1190 -0.3027
  701MOL0     C94521   9.708   3.995   9.108 -0.2402 -0.7975 -0.1525
  701MOL0     C94522   9.586   3.955   9.026 -0.3248 -0.0982  0.9303
  701MOL0     C94523   9.449   4.032   9.023 -0.4189  0.4032 -0.4342
  701MOL0     O94524   9.362   3.970   8.926 -0.3761  0.4983 -0.1367
  701MOL0     C94525   9.224   3.992   8.932  0.1420 -0.0627  0.4063
  701MOL0     C94526   9.149   4.057   9.036 -0.8279  0.4062  0.5379
  701MOL0     C94527   9.012   4.069   9.031 -0.2245 -0.0977  0.0070
  701MOL0     C94528   8.943   4.141   9.146 -0.7075  0.4962  0.4286
  701MOL0     C94529   8.939   4.017   8.919  0.2470  0.2944 -0.2555
  701MOL0     C94530   8.790   4.014   8.897  0.6738  0.1883 -0.0766
  701MOL0     O94531   8.751   3.939   8.786 -0.0638  0.0935  0.1136
  701MOL0     C94532   8.620   3.930   8.740  0.6702  0.2640 -0.5400
  701MOL0     C94533   8.606   3.923   8.601  0.0798 -1.0449 -0.7008
  701MOL0     C94534   8.481   3.910   8.548  0.0731 -0.6112  1.1880
  701MOL0     C94535   8.370   3.895   8.622 -0.2048 -0.4540 -0.0445
  701MOL0     O94536   8.260   3.888   8.539  0.4835  0.0194 -0.2941
  701MOL0     C94537   8.143   3.860   8.600 -0.0152  0.1327 -0.6526
  701MOL0     C94538   8.027   3.861   8.503  0.0145  0.3139 -0.5700
  701MOL0     C94539   7.891   3.860   8.571 -0.0301  0.2364 -0.2097
  701MOL0     C94540   7.826   3.993   8.610  0.2039 -0.4216 -0.3830
  701MOL0     C94541   7.689   3.977   8.678  0.1570  0.9618  0.2482
  701MOL0     C94542   7.594   3.881   8.591  0.8249 -0.7946 -0.2730
  701MOL0     C94543   7.457   3.857   8.659  0.0550 -0.6464 -0.4478
  701MOL0     C94544   7.392   3.979   8.729 -0.0455 -1.4719 -0.6509
  701MOL0    Cl94545   7.388   4.111   8.604 -0.2366 -0.2223  0.0654
  701MOL0     C94546   8.379   3.893   8.759 -0.1414  0.2086  0.3234
  701MOL0     C94547   8.498   3.917   8.825 -0.5933 -0.6319  0.2762
  701MOL0     O94548   8.718   4.078   8.971 -0.7189 -0.3433  0.6162
  701MOL0     C94549   9.023   3.936   8.828  0.6834 -0.2954 -0.4580
  701MOL0     C94550   9.157   3.936   8.835 -0.1079  1.0390  0.4426
  701MOL0     N94551   9.931   4.097   9.254  0.4009  0.4903  0.3082
  701MOL0     N94552  10.039   4.161   9.301  0.3887  0.0391  0.0554
  701MOL0     C94553  10.993   3.992   8.849 -0.6410 -0.4947  0.3418
  701MOL0     C94554  11.125   3.967   8.871 -0.1588 -0.4533  0.2342
  701MOL0     C94555  11.562   4.018   8.992  0.4693  0.6847 -0.0778
  701MOL0     C94556  11.637   3.963   9.098  0.3509 -0.0526  0.2980
  701MOL0     C94557  11.777   3.973   9.106 -0.0794  0.1622  0.1235
  701MOL0     C94558  11.845   4.037   9.008  0.9471 -1.3405 -0.1432
  701MOL0     O94559  11.985   4.035   8.992  0.2311 -0.1819 -0.5462
  701MOL0     C94560  12.069   3.984   9.098  0.3058  0.7778 -0.5986
  701MOL0     C94561  12.218   3.975   9.054 -0.3421  0.2005  0.1311
  701MOL0     C94562  12.326   3.929   9.155 -1.3334 -0.3004  0.2668
  701MOL0     C94563  12.335   4.031   9.274 -0.0617  0.2808  0.1275
  701MOL0     C94564  12.465   4.003   9.345  0.6716 -0.6959  0.0544
  701MOL0     C94565  12.559   3.988   9.417 -0.1554  0.2978 -0.2809
  701MOL0     C94566  11.773   4.094   8.899 -0.3594 -0.0010 -0.8987
  701MOL0     C94567  11.632   4.088   8.888 -0.1597 -0.5287 -0.3607
  701MOL0     H94568  11.262   4.256   8.761 -0.0069 -0.7441 -2.8076
  701MOL0     H94569  11.017   4.299   8.708 -0.0549 -0.6502  0.2292
  701MOL0     H94570  10.720   3.970   8.796  0.9267 -1.2411 -0.5683
  701MOL0     H94571  10.728   4.107   8.912  2.6478 -1.5960  0.2180
  701MOL0     H94572  10.572   4.104   8.633 -2.3747  1.2490 -0.0666
  701MOL0     H94573  10.507   4.053   8.795 -1.3475  4.4956  3.1097
  701MOL0     H94574  10.629   4.317   8.767  2.6437 -4.0045 -1.4413
  701MOL0     H94575  10.471   4.303   8.687 -0.5074 -0.5993  0.1970
  701MOL0     H94576  10.360   4.200   8.846 -1.0039  1.0237  0.2275
  701MOL0     H94577  10.486   4.218   8.975 -1.0498 -0.7000  0.5237
  701MOL0     H94578  10.461   4.453   8.995  0.9757  1.1937 -1.0821
  701MOL0     H94579  10.374   4.463   8.844 -1.8385 -2.4839 -0.5607
  701MOL0     H94580  10.206   4.457   8.988 -1.1912 -1.1843  0.3981
  701MOL0     H94581  10.206   4.289   8.973 -1.2441 -0.1049  2.0480
  701MOL0     H94582  10.350   4.266   9.182 -0.6854 -2.6821 -2.5387
  701MOL0     H94583  10.344   4.438   9.206  1.8276 -3.8615  0.9073
  701MOL0     H94584  10.143   4.468   9.244  1.3303  1.3403  1.7020
  701MOL0     H94585  10.196   4.349   9.357  1.2976 -0.4700  0.5662
  701MOL0     H94586   9.946   4.341   9.049 -2.8529  1.8319  2.3851
  701MOL0     H94587   9.667   4.203   9.086 -0.9022 -1.4500  1.6557
  701MOL0     H94588   9.777   4.129   8.958  1.1461  0.9218  0.0193
  701MOL0     H94589   9.695   3.989   9.216 -0.9222  1.0658 -0.1020
  701MOL0     H94590   9.786   3.921   9.087 -1.2575 -2.1207  0.6346
  701MOL0     H94591   9.560   3.851   9.048  1.9458 -0.9934 -0.2345
  701MOL0     H94592   9.631   3.956   8.926 -0.0777  0.2172  1.0419
  701MOL0     H94593   9.469   4.133   8.986 -0.0729 -0.3639 -2.4694
  701MOL0     H94594   9.412   4.030   9.126 -0.5583 -2.1403 -0.4622
  701MOL0     H94595   9.209   4.087   9.122  0.1581  0.8230 -0.2802
  701MOL0     H94596   8.859   4.203   9.114  0.4415  1.3387 -1.0393
  701MOL0     H94597   8.904   4.081   9.229 -1.3489  1.8187  1.1218
  701MOL0     H94598   9.008   4.208   9.203 -1.8114  0.0004  2.3862
  701MOL0     H94599   8.695   3.930   8.540 -0.1967 -0.9603 -1.0984
  701MOL0     H94600   8.474   3.905   8.440  3.2946 -4.5392  0.9382
  701MOL0     H94601   8.157   3.771   8.661  1.8330  1.3030  0.7476
  701MOL0     H94602   8.115   3.934   8.676 -0.2407 -2.4214  1.9113
  701MOL0     H94603   8.036   3.949   8.438  3.2833  0.2012 -0.4346
  701MOL0     H94604   8.047   3.774   8.441 -0.2353 -0.9464  1.0513
  701MOL0     H94605   7.892   3.792   8.656  0.5379 -1.0599 -1.2144
  701MOL0     H94606   7.829   3.807   8.499  1.9515  0.0818 -1.9014
  701MOL0     H94607   7.891   4.041   8.683  1.8611 -2.7814 -0.2069
  701MOL0     H94608   7.817   4.043   8.513 -0.1285 -0.8160 -0.5604
  701MOL0     H94609   7.646   4.077   8.690 -1.1526  0.2967  1.3434
  701MOL0     H94610   7.719   3.938   8.777  1.2304 -2.1579 -1.1718
  701MOL0     H94611   7.598   3.928   8.492  3.0616 -2.7695 -1.2138
  701MOL0     H94612   7.638   3.784   8.568  3.4756  0.4915 -0.9852
  701MOL0     H94613   7.471   3.780   8.736  3.2210 -0.7984 -1.0426
  701MOL0     H94614   7.392   3.826   8.577  1.0213 -0.7476 -1.1994
  701MOL0     H94615   7.456   4.028   8.803 -0.4688  1.8139 -2.2707
  701MOL0     H94616   7.294   3.960   8.774  0.3850 -3.1523 -0.3834
  701MOL0     H94617   8.280   3.881   8.803 -0.6044 -1.1732 -0.9987
  701MOL0     H94618   8.515   3.909   8.932  0.6233 -3.3849 -0.0446
  701MOL0     H94619   8.978   3.900   8.736  1.3859 -0.2222 -0.8420
  701MOL0     H94620   9.207   3.881   8.756 -1.6709  2.1528 -1.3952
  701MOL0     H94621  10.919   3.918   8.877 -2.7234  1.3022 -0.1394
  701MOL0     H94622  11.162   3.874   8.914  2.0050 -0.4444 -1.4129
  701MOL0     H94623  11.586   3.896   9.167  0.1056 -1.1471 -0.9138
  701MOL0     H94624  11.832   3.934   9.191 -1.1663  0.2983  0.9005
  701MOL0     H94625  12.064   4.057   9.179 -1.3726  0.7207 -0.6268
  701MOL0     H94626  12.025   3.891   9.136  0.2644  1.3207  0.7262
  701MOL0     H94627  12.247   4.078   9.033 -1.7555  0.8315  1.0804
  701MOL0     H94628  12.225   3.918   8.961  0.7293 -0.8485  0.8188
  701MOL0     H94629  12.426   3.923   9.111 -0.2997 -0.4829  2.5144
  701MOL0     H94630  12.324   3.826   9.191  1.2477 -1.3321 -2.1526
  701MOL0     H94631  12.252   4.015   9.343 -1.1419  3.2534 -0.3461
  701MOL0     H94632  12.319   4.135   9.244  2.6456  1.3252  1.8684
  701MOL0     H94633  12.645   3.985   9.480 -0.7279 -0.2216  0.4873
  701MOL0     H94634  11.839   4.132   8.822  1.2545  0.2767  0.5549
  701MOL0     H94635  11.578   4.129   8.804  2.1179  0.8852 -1.2286
  702MOL0     O94636   2.966   8.578  10.812  0.1515  0.7822 -0.5417
  702MOL0     C94637   3.063   8.516  10.863 -0.1257  0.3561 -0.0803
  702MOL0     O94638   3.051   8.398  10.933  0.2191 -1.2151  0.2027
  702MOL0     C94639   2.920   8.376  10.974  0.5689  0.6241 -0.7581
  702MOL0     C94640   2.829   8.286  10.903  0.0171 -0.0121 -0.0877
  702MOL0     C94641   2.703   8.262  10.959 -0.8295  0.6134  0.6354
  702MOL0     C94642   2.662   8.317  11.083  0.0867 -0.6531 -0.2801
  702MOL0     O94643   2.534   8.294  11.144 -0.9019 -0.0809 -0.2847
  702MOL0     C94644   2.451   8.196  11.093 -0.6069 -0.4820  0.2893
  702MOL0     C94645   2.316   8.184  11.167  0.1756 -0.2980 -0.8205
  702MOL0     C94646   2.343   8.142  11.314 -0.3808  2.1051 -0.0987
  702MOL0     C94647   2.225   8.163  11.400  0.3602 -1.5020  0.6985
  702MOL0     C94648   2.124   8.054  11.380 -0.4170  0.6046 -0.1515
  702MOL0     C94649   2.024   8.056  11.501  0.2486  0.0245  0.1076
  702MOL0     C94650   1.917   7.946  11.509  0.2096  0.5963 -0.8159
  702MOL0     C94651   1.891   7.904  11.661 -0.2007 -0.3706  0.2363
  702MOL0     N94652   1.764   7.823  11.672 -0.3606 -0.5034  0.1679
  702MOL0     C94653   1.652   7.856  11.742  0.2502  0.6317 -0.6303
  702MOL0     C94654   1.570   7.755  11.713  0.5471 -0.0816  0.7195
  702MOL0     C94655   1.425   7.753  11.744 -0.5613  0.2402 -0.6675
  702MOL0     C94656   1.394   7.776  11.899  0.8557  0.8876 -0.2006
  702MOL0     C94657   1.257   7.713  11.953 -0.4796 -0.4260  0.7506
  702MOL0     C94658   1.133   7.757  11.880 -0.0484  0.1472  0.3667
  702MOL0     O94659   1.015   7.715  11.938  0.2632 -0.2103  0.0800
  702MOL0     C94660   0.894   7.761  11.894 -0.6446  0.1296 -0.4042
  702MOL0     C94661   0.851   7.783  11.761  0.5631  0.3163 -0.4066
  702MOL0     C94662   0.711   7.782  11.723 -1.2535  0.4619  0.1779
  702MOL0     C94663   0.669   7.764  11.580  0.1827 -0.2807  0.3386
  702MOL0     C94664   0.618   7.804  11.829 -0.8155 -0.2301  0.3372
  702MOL0     C94665   0.471   7.799  11.819 -0.5425  0.7856  0.5201
  702MOL0     O94666   0.423   7.836  11.698  0.1095 -0.0166 -0.1815
  702MOL0     C94667   0.289   7.870  11.699 -1.2682  0.2501  0.1793
  702MOL0     C94668   0.179   7.785  11.700 -1.2769  0.3832 -1.2779
  702MOL0     C94669   0.046   7.831  11.686 -0.5105  0.2238  0.6419
  702MOL0     C94670   0.022   7.963  11.661  0.1439  0.4454 -1.4158
  702MOL0     O94671  -0.113   7.997  11.660  0.1010  0.4555 -0.4604
  702MOL0     C94672  -0.146   8.113  11.577 -0.2619 -0.4542 -0.9051
  702MOL0     C94673  -0.291   8.159  11.604  0.2208 -1.5900  0.1164
  702MOL0     C94674  -0.328   8.283  11.510  0.3508 -0.3800  0.2042
  702MOL0     C94675  -0.346   8.417  11.596 -0.1474  0.6215 -0.6428
  702MOL0     C94676  -0.361   8.536  11.506 -0.5403 -0.0215 -0.4028
  702MOL0     C94677  -0.245   8.566  11.406 -0.1044 -0.0449 -0.6085
  702MOL0     C94678  -0.241   8.708  11.344  0.6181  0.4355 -1.2971
  702MOL0     C94679  -0.219   8.818  11.449 -0.4150  0.0689 -0.5578
  702MOL0    Cl94680  -0.227   8.986  11.372  0.1354 -0.2092  0.1293
  702MOL0     C94681   0.132   8.048  11.657 -0.3672 -0.5448 -0.3512
  702MOL0     C94682   0.260   8.011  11.675  0.3923  0.2341  0.2895
  702MOL0     O94683   0.407   7.777  11.921 -0.7027  0.2036 -0.3156
  702MOL0     C94684   0.669   7.806  11.959  0.5670  0.4862 -0.6941
  702MOL0     C94685   0.796   7.770  11.987  0.9488  0.0319  0.5228
  702MOL0     N94686   1.626   7.661  11.629 -0.0195  0.3183 -0.3921
  702MOL0     N94687   1.750   7.693  11.618  0.3732  0.0339  0.0596
  702MOL0     C94688   2.749   8.409  11.138  0.0197  0.0803  0.0082
  702MOL0     C94689   2.877   8.428  11.089  0.3479 -0.0977  0.0607
  702MOL0     C94690   3.195   8.580  10.843  0.1116 -0.8236 -0.2017
  702MOL0     C94691   3.319   8.530  10.897 -0.6338 -0.2035 -0.0692
  702MOL0     C94692   3.442   8.585  10.857  0.0205 -0.4224 -0.1857
  702MOL0     C94693   3.443   8.698  10.776  0.1503  0.5562 -0.3992
  702MOL0     O94694   3.548   8.768  10.726  0.2090 -0.6112  0.5767
  702MOL0     C94695   3.681   8.729  10.745  0.3513  0.3873  0.5402
  702MOL0     C94696   3.747   8.774  10.877 -0.1184 -0.0475 -0.6006
  702MOL0     C94697   3.769   8.928  10.872  1.1298  0.2986 -0.4758
  702MOL0     C94698   3.887   8.959  10.961 -0.0153 -0.5518 -0.4339
  702MOL0     C94699   3.861   8.926  11.100 -0.4589  0.3760 -0.3817
  702MOL0     C94700   3.839   8.871  11.206  0.6899  0.2465 -0.7704
  702MOL0     C94701   3.320   8.749  10.730 -0.5173  0.6741  0.8593
  702MOL0     C94702   3.205   8.693  10.762  0.1084 -0.3151  0.3433
  702MOL0     H94703   2.869   8.238  10.815 -0.0472 -2.8370  1.3367
  702MOL0     H94704   2.635   8.191  10.914 -0.0769  0.8331 -0.9250
  702MOL0     H94705   2.427   8.220  10.989  2.7850  0.3129 -0.4027
  702MOL0     H94706   2.510   8.103  11.094  0.2167 -0.1154 -3.2296
  702MOL0     H94707   2.253   8.273  11.161 -2.1854 -1.8280  0.0021
  702MOL0     H94708   2.252   8.109  11.121 -1.2812  1.7259 -2.2675
  702MOL0     H94709   2.376   8.038  11.302 -0.9223  1.7956  0.9513
  702MOL0     H94710   2.427   8.202  11.350  1.3988  0.4389 -1.2996
  702MOL0     H94711   2.259   8.177  11.503 -0.0688  0.6337  0.5982
  702MOL0     H94712   2.180   8.255  11.363  1.9664 -0.7651  0.4753
  702MOL0     H94713   2.072   8.051  11.284 -0.9999  0.1124  0.1668
  702MOL0     H94714   2.165   7.953  11.394 -2.8094 -0.3326  0.7349
  702MOL0     H94715   2.082   8.049  11.594 -2.7640 -0.3909  2.1082
  702MOL0     H94716   1.973   8.153  11.499  1.7853  0.8556 -0.5068
  702MOL0     H94717   1.825   7.980  11.461 -3.5229 -1.2414  4.1095
  702MOL0     H94718   1.948   7.856  11.455 -0.6953 -1.1133  1.3569
  702MOL0     H94719   1.870   8.000  11.710 -2.3084 -2.1016  2.9598
  702MOL0     H94720   1.976   7.857  11.711 -1.0112 -1.5904  0.4845
  702MOL0     H94721   1.638   7.939  11.810  2.8596  0.5063  0.1864
  702MOL0     H94722   1.389   7.847  11.701  1.2600  1.9092  1.2392
  702MOL0     H94723   1.370   7.664  11.712 -2.1155 -0.6462  3.6929
  702MOL0     H94724   1.394   7.884  11.918  0.8648  0.6462  1.2181
  702MOL0     H94725   1.465   7.724  11.963 -0.0724  0.8852  0.8611
  702MOL0     H94726   1.238   7.728  12.060  0.5046  1.0664  0.7386
  702MOL0     H94727   1.267   7.604  11.949  0.2175 -0.3888  1.4286
  702MOL0     H94728   1.140   7.721  11.776  3.2365 -0.4062  0.6577
  702MOL0     H94729   1.138   7.866  11.885 -3.9704  0.4553  0.8676
  702MOL0     H94730   0.926   7.772  11.683  0.4396 -2.3942 -0.2493
  702MOL0     H94731   0.593   7.835  11.547 -0.6413 -0.5713  1.5135
  702MOL0     H94732   0.758   7.769  11.517 -1.3364 -2.4600 -2.1792
  702MOL0     H94733   0.623   7.665  11.569 -0.8188 -0.0456  2.0769
  702MOL0     H94734   0.210   7.681  11.709  0.8822  1.1017  0.4364
  702MOL0     H94735  -0.026   7.750  11.682  2.1742 -2.3466  1.1743
  702MOL0     H94736  -0.073   8.193  11.586 -2.5546  1.5364  1.9582
  702MOL0     H94737  -0.137   8.090  11.470  2.1405 -0.8788 -0.6743
  702MOL0     H94738  -0.363   8.082  11.576 -1.7569 -0.5152  1.9140
  702MOL0     H94739  -0.302   8.191  11.709 -0.5926  2.5903 -1.0530
  702MOL0     H94740  -0.415   8.268  11.446  0.7382  0.5346 -0.5654
  702MOL0     H94741  -0.237   8.289  11.449 -0.0095  1.3754 -0.2203
  702MOL0     H94742  -0.426   8.412  11.669 -1.2709  4.1600 -1.4717
  702MOL0     H94743  -0.250   8.427  11.648 -0.5386 -0.3000  0.2775
  702MOL0     H94744  -0.395   8.622  11.564 -0.0695  1.2155 -1.8930
  702MOL0     H94745  -0.452   8.506  11.454 -0.8920  1.4002 -0.6496
  702MOL0     H94746  -0.146   8.555  11.452  0.6849 -0.8797 -2.4115
  702MOL0     H94747  -0.262   8.500  11.320  1.8297 -0.4279 -0.7543
  702MOL0     H94748  -0.338   8.715  11.294  1.1901 -0.4791 -2.5771
  702MOL0     H94749  -0.160   8.715  11.271  1.3552  2.5437 -0.3467
  702MOL0     H94750  -0.125   8.804  11.503 -1.1117 -0.6903  0.5071
  702MOL0     H94751  -0.304   8.821  11.518 -0.3871  1.6519 -0.5686
  702MOL0     H94752   0.125   8.156  11.652  0.3949 -0.4919 -0.4746
  702MOL0     H94753   0.341   8.083  11.673  0.6606  0.0070  1.6780
  702MOL0     H94754   0.601   7.825  12.041  2.3552 -0.4047  1.0834
  702MOL0     H94755   0.825   7.750  12.089 -0.9673 -1.2257  0.8760
  702MOL0     H94756   2.715   8.455  11.230  1.7836  1.1636  0.1614
  702MOL0     H94757   2.954   8.484  11.140 -0.4805  2.0118 -0.8644
  702MOL0     H94758   3.318   8.445  10.964 -0.9920  0.4472  0.7720
  702MOL0     H94759   3.531   8.541  10.901  0.3674  0.3414 -0.1136
  702MOL0     H94760   3.677   8.619  10.748 -2.7422  0.3596 -0.7797
  702MOL0     H94761   3.744   8.759  10.661 -0.4967  0.1546 -0.1860
  702MOL0     H94762   3.836   8.714  10.894 -1.3258 -1.3795  1.4119
  702MOL0     H94763   3.676   8.755  10.958  0.4299  2.0801  0.4433
  702MOL0     H94764   3.678   8.976  10.910  1.3832 -1.5900  2.9731
  702MOL0     H94765   3.789   8.969  10.773 -1.4064  0.9658 -0.7674
  702MOL0     H94766   3.911   9.066  10.959  2.2094 -0.9965  0.1100
  702MOL0     H94767   3.979   8.908  10.929  0.9961 -0.6505  2.4133
  702MOL0     H94768   3.821   8.819  11.298  3.0316 -2.5497 -1.7616
  702MOL0     H94769   3.318   8.832  10.660 -1.5132  0.4847  0.6443
  702MOL0     H94770   3.118   8.736  10.713  0.0339 -0.3033  0.4857
  703MOL0     O94771  10.553   7.671   1.878  0.0674  0.5106  0.0249
  703MOL0     C94772  10.587   7.626   1.987  0.4832 -0.0598 -0.9241
  703MOL0     O94773  10.498   7.594   2.082  0.1441 -0.0079 -0.2862
  703MOL0     C94774  10.363   7.594   2.069 -0.4842  0.7310 -0.3147
  703MOL0     C94775  10.280   7.495   2.122 -0.8139  0.2956 -0.0321
  703MOL0     C94776  10.145   7.497   2.118 -0.1013  0.9501 -0.6760
  703MOL0     C94777  10.090   7.604   2.063  0.1284  0.2107  0.2656
  703MOL0     O94778   9.952   7.604   2.054  1.0902 -0.7141 -0.7339
  703MOL0     C94779   9.890   7.717   2.125 -0.8996 -0.5791 -0.2375
  703MOL0     C94780   9.904   7.691   2.272  0.9073  0.3505 -0.1574
  703MOL0     C94781   9.809   7.576   2.311 -0.3511  0.3457 -0.5953
  703MOL0     C94782   9.808   7.569   2.464 -0.8438 -0.1619  0.3225
  703MOL0     C94783   9.678   7.490   2.505  0.5978 -0.1460 -0.3840
  703MOL0     C94784   9.707   7.450   2.652  0.7904  0.0458  0.0459
  703MOL0     C94785   9.572   7.405   2.716  0.1878  1.1272  0.5142
  703MOL0     C94786   9.526   7.264   2.669 -0.2307  0.2455 -0.5025
  703MOL0     N94787   9.395   7.255   2.740 -0.1919 -0.1963 -0.2295
  703MOL0     C94788   9.273   7.288   2.683  0.4982  0.2469  0.1252
  703MOL0     C94789   9.182   7.264   2.780  0.6597  0.6576 -0.4852
  703MOL0     C94790   9.038   7.290   2.756 -0.2917  1.2063  0.2445
  703MOL0     C94791   8.962   7.321   2.883 -0.1590  0.7433  0.3614
  703MOL0     C94792   8.829   7.377   2.848  0.5948  0.1568 -0.1282
  703MOL0     C94793   8.735   7.391   2.973 -0.4020  0.0251  0.1443
  703MOL0     O94794   8.604   7.428   2.937 -0.0119  0.8084 -0.5266
  703MOL0     C94795   8.525   7.342   2.865  1.0088  0.9661 -0.2064
  703MOL0     C94796   8.465   7.394   2.743  0.2230 -0.0627  0.3584
  703MOL0     C94797   8.365   7.323   2.679  0.4023 -0.1331 -0.7630
  703MOL0     C94798   8.293   7.403   2.570 -0.4448  0.0696 -0.1245
  703MOL0     C94799   8.342   7.183   2.710  1.0530 -0.2569 -0.0558
  703MOL0     C94800   8.253   7.091   2.639  0.6671  0.1382 -0.1392
  703MOL0     O94801   8.196   6.988   2.712 -0.0684 -0.3817  0.0802
  703MOL0     C94802   8.097   6.907   2.654 -0.4387  0.1775 -0.1095
  703MOL0     C94803   8.135   6.807   2.557  0.2355  0.0854 -0.0706
  703MOL0     C94804   8.034   6.717   2.513  0.5369 -0.2565 -0.0599
  703MOL0     C94805   7.904   6.725   2.561  0.0364 -0.7842  0.4998
  703MOL0     O94806   7.816   6.635   2.519  0.4631 -0.6121  0.5493
  703MOL0     C94807   7.714   6.576   2.602 -0.0115  0.2745 -1.3866
  703MOL0     C94808   7.577   6.654   2.582  0.1224 -0.2177  0.6188
  703MOL0     C94809   7.487   6.614   2.462  0.3827  0.4805  0.4466
  703MOL0     C94810   7.397   6.491   2.484  0.7355  0.0181  0.0093
  703MOL0     C94811   7.272   6.490   2.388  0.3107  0.1809 -0.3292
  703MOL0     C94812   7.317   6.490   2.239  0.3133  0.6866  0.2945
  703MOL0     C94813   7.191   6.472   2.150 -0.3012  0.0561 -0.4598
  703MOL0     C94814   7.229   6.471   2.009  0.5336  0.0478 -0.2383
  703MOL0    Cl94815   7.086   6.422   1.911 -0.1136 -0.0861 -0.4201
  703MOL0     C94816   7.871   6.819   2.661 -0.2404  0.0069  0.2426
  703MOL0     C94817   7.965   6.920   2.699 -0.4963 -0.8619  0.4577
  703MOL0     O94818   8.254   7.092   2.513 -0.1068  0.3182  0.1042
  703MOL0     C94819   8.416   7.124   2.822  0.6778 -0.4130  0.0018
  703MOL0     C94820   8.504   7.205   2.893 -0.4830 -0.6363  0.3328
  703MOL0     N94821   9.253   7.206   2.890  0.3408 -0.1396  0.0428
  703MOL0     N94822   9.377   7.205   2.866 -0.1778 -0.1012 -0.2941
  703MOL0     C94823  10.165   7.715   2.015 -0.2194 -0.3287  0.3987
  703MOL0     C94824  10.301   7.713   2.029  0.2942  0.3881  1.1026
  703MOL0     C94825  10.733   7.602   2.001  0.9908  1.8791  1.1929
  703MOL0     C94826  10.792   7.552   2.122 -0.0614 -0.6369 -0.1648
  703MOL0     C94827  10.931   7.548   2.133 -1.0319 -0.0799  0.3352
  703MOL0     C94828  11.017   7.577   2.025 -0.9664 -0.0472 -0.5430
  703MOL0     O94829  11.155   7.574   2.035 -0.5362  0.0783  0.0362
  703MOL0     C94830  11.213   7.444   2.084  1.4251 -1.1985  0.1074
  703MOL0     C94831  11.363   7.444   2.086 -0.5838  0.0182 -0.1312
  703MOL0     C94832  11.401   7.478   1.939  0.6938 -0.8979 -0.9072
  703MOL0     C94833  11.550   7.447   1.902 -0.4486 -0.1315 -0.1785
  703MOL0     C94834  11.655   7.453   2.011 -0.7741  0.5066  0.8673
  703MOL0     C94835  11.743   7.433   2.087  0.1352 -0.5509  0.1616
  703MOL0     C94836  10.958   7.605   1.906  0.1120 -0.7531 -0.7283
  703MOL0     C94837  10.820   7.620   1.898 -0.0671  0.2065  0.2589
  703MOL0     H94838  10.337   7.406   2.146  1.0073  1.3926 -0.1222
  703MOL0     H94839  10.081   7.415   2.152  2.3050 -0.8370 -0.1845
  703MOL0     H94840   9.945   7.809   2.104 -0.8037 -0.1025  1.8672
  703MOL0     H94841   9.791   7.741   2.084 -1.0412 -0.1961  0.3233
  703MOL0     H94842  10.005   7.684   2.313  1.5228  1.4043 -1.4367
  703MOL0     H94843   9.864   7.784   2.314 -1.6106 -1.0139  0.7005
  703MOL0     H94844   9.707   7.589   2.272 -0.1701 -1.5254 -1.8711
  703MOL0     H94845   9.837   7.475   2.280 -2.0054 -1.4689  3.1443
  703MOL0     H94846   9.901   7.519   2.491  0.6079  1.5545 -1.2116
  703MOL0     H94847   9.806   7.672   2.502 -1.1835 -0.2684  0.6040
  703MOL0     H94848   9.596   7.563   2.504 -0.6484 -1.4603  0.7502
  703MOL0     H94849   9.650   7.405   2.443 -0.0868 -1.2313  1.3258
  703MOL0     H94850   9.778   7.367   2.655  0.1904 -0.4508  1.3143
  703MOL0     H94851   9.733   7.532   2.721 -0.0236 -0.7571  1.3400
  703MOL0     H94852   9.589   7.403   2.825 -1.4205 -1.7169  0.8055
  703MOL0     H94853   9.496   7.479   2.692  1.0280  1.6724 -0.5589
  703MOL0     H94854   9.597   7.188   2.704 -0.0317  1.3057  1.5360
  703MOL0     H94855   9.525   7.249   2.561 -2.8928 -0.9594 -0.3888
  703MOL0     H94856   9.243   7.311   2.581 -0.5431 -0.8765  0.1524
  703MOL0     H94857   9.037   7.380   2.693  0.2712  0.1676 -1.2994
  703MOL0     H94858   8.990   7.208   2.702  0.9993  0.7631 -0.2849
  703MOL0     H94859   9.015   7.386   2.953  0.6760  0.0007  0.4303
  703MOL0     H94860   8.950   7.227   2.938 -0.0339  0.1613 -0.5810
  703MOL0     H94861   8.778   7.312   2.777 -3.4014  0.9485  1.7481
  703MOL0     H94862   8.837   7.472   2.794 -2.6189 -0.2670 -1.5571
  703MOL0     H94863   8.772   7.475   3.033 -0.6029 -0.2951  0.7247
  703MOL0     H94864   8.733   7.305   3.040  1.8352 -0.2511 -0.0675
  703MOL0     H94865   8.489   7.495   2.710  1.5016 -1.1737 -2.4335
  703MOL0     H94866   8.256   7.501   2.601 -1.7847 -0.4272 -0.0861
  703MOL0     H94867   8.356   7.419   2.482  0.5700  0.7479  0.7018
  703MOL0     H94868   8.205   7.351   2.529  0.4093 -0.7885 -0.9237
  703MOL0     H94869   8.229   6.806   2.503  0.0995 -0.4103 -0.3049
  703MOL0     H94870   8.065   6.643   2.440  1.4562  1.1442 -1.1369
  703MOL0     H94871   7.689   6.471   2.583 -3.7294  0.4488  1.2647
  703MOL0     H94872   7.762   6.581   2.700  3.1346  1.3683 -2.8749
  703MOL0     H94873   7.520   6.663   2.675 -0.9201 -2.4099  0.2612
  703MOL0     H94874   7.610   6.758   2.569 -0.3212 -0.1440  0.0352
  703MOL0     H94875   7.549   6.599   2.373  0.5755 -0.0894  0.6741
  703MOL0     H94876   7.430   6.703   2.435  1.2012  1.1394  0.8322
  703MOL0     H94877   7.444   6.392   2.485 -0.4758 -0.6184  2.0589
  703MOL0     H94878   7.353   6.508   2.583  2.6809 -1.0559  1.1301
  703MOL0     H94879   7.221   6.587   2.396 -0.2439  0.1715 -2.9264
  703MOL0     H94880   7.200   6.411   2.410 -3.1939  3.5938  1.8758
  703MOL0     H94881   7.367   6.583   2.210  0.0239  1.4997  2.2273
  703MOL0     H94882   7.382   6.403   2.233  2.0537  1.7305  2.4256
  703MOL0     H94883   7.112   6.545   2.172 -1.3926 -0.2753 -2.9934
  703MOL0     H94884   7.142   6.376   2.168 -0.6606 -0.0554 -1.9347
  703MOL0     H94885   7.302   6.395   1.979 -1.5211 -2.1774  0.0907
  703MOL0     H94886   7.261   6.573   1.985 -1.5661  1.6157  2.9632
  703MOL0     H94887   7.768   6.821   2.695 -0.9156  1.0399 -1.7023
  703MOL0     H94888   7.946   7.011   2.754  0.0745 -1.6759  2.0522
  703MOL0     H94889   8.401   7.019   2.845 -2.2293  0.1265  0.9047
  703MOL0     H94890   8.552   7.165   2.982 -0.5452  0.8987  1.0911
  703MOL0     H94891  10.128   7.801   1.961  1.9426  1.0255  0.9372
  703MOL0     H94892  10.366   7.795   1.998  2.3550 -0.5177  2.7270
  703MOL0     H94893  10.735   7.525   2.211  1.8738 -0.0425  1.3145
  703MOL0     H94894  10.987   7.517   2.221  2.6908 -1.2302 -2.1711
  703MOL0     H94895  11.173   7.418   2.183 -0.5082 -1.9198 -0.8132
  703MOL0     H94896  11.186   7.361   2.019  3.1596 -1.4139 -0.3797
  703MOL0     H94897  11.394   7.347   2.125 -1.7871  0.5874  2.4119
  703MOL0     H94898  11.406   7.520   2.153 -2.0719  1.0310 -0.2883
  703MOL0     H94899  11.395   7.585   1.919  1.7002 -0.2156  1.9476
  703MOL0     H94900  11.329   7.416   1.885  0.7803 -1.9400  0.1317
  703MOL0     H94901  11.585   7.512   1.821 -2.1991  0.3486 -0.5986
  703MOL0     H94902  11.546   7.342   1.871 -2.1091 -1.0852  2.9126
  703MOL0     H94903  11.817   7.412   2.162  2.1876 -0.8633 -1.8380
  703MOL0     H94904  11.025   7.622   1.822 -1.0986  1.1785 -1.3808
  703MOL0     H94905  10.788   7.665   1.804  0.1340  1.9681  0.9779
  704MOL0     O94906   6.174  11.181   6.387 -0.4038 -0.2586 -0.6960
  704MOL0     C94907   6.198  11.133   6.280  0.8901 -0.3252 -0.0203
  704MOL0     O94908   6.099  11.095   6.188 -0.7102 -0.2637 -0.5604
  704MOL0     C94909   5.972  11.144   6.201  0.0483 -0.1974 -0.0815
  704MOL0     C94910   5.938  11.264   6.148  0.2433  0.1843  0.2005
  704MOL0     C94911   5.802  11.312   6.153  0.8405  0.2462 -0.1182
  704MOL0     C94912   5.702  11.236   6.211 -0.3681 -0.8054  0.3450
  704MOL0     O94913   5.574  11.293   6.224 -0.7163  0.5564 -0.0379
  704MOL0     C94914   5.469  11.203   6.234  0.5853 -0.0565 -0.2135
  704MOL0     C94915   5.333  11.285   6.260 -0.1930 -1.0542 -0.0473
  704MOL0     C94916   5.218  11.178   6.264 -0.1695  0.0436 -0.5195
  704MOL0     C94917   5.134  11.180   6.134 -0.6156 -0.4171  1.1060
  704MOL0     C94918   5.048  11.057   6.141 -0.4938  0.4911  0.5824
  704MOL0     C94919   4.980  11.027   6.016 -0.9223  0.6226 -0.1562
  704MOL0     C94920   4.854  10.941   6.031  0.6455 -0.0944 -0.7118
  704MOL0     C94921   4.809  10.871   5.907  0.1783  0.0919  0.2661
  704MOL0     N94922   4.770  10.730   5.912 -0.5854 -0.1887 -0.0420
  704MOL0     C94923   4.859  10.622   5.915 -0.0070 -0.4057 -0.5761
  704MOL0     C94924   4.772  10.515   5.945 -0.2318 -0.5021  0.5520
  704MOL0     C94925   4.826  10.381   5.974 -1.1620  0.1723  1.0943
  704MOL0     C94926   4.817  10.303   5.841 -0.7141  0.2554 -0.1184
  704MOL0     C94927   4.878  10.348   5.709  0.2646 -0.2999  0.0779
  704MOL0     C94928   5.028  10.365   5.725  0.3327  0.2494 -0.8038
  704MOL0     O94929   5.088  10.239   5.758  0.6550 -0.5381  0.8045
  704MOL0     C94930   5.227  10.232   5.776  0.7054 -0.1814  0.1756
  704MOL0     C94931   5.302  10.347   5.769 -0.7926  0.1497  0.5236
  704MOL0     C94932   5.441  10.344   5.794 -0.7267  0.0942  0.5852
  704MOL0     C94933   5.521  10.471   5.777 -0.3301  0.1588 -0.2542
  704MOL0     C94934   5.500  10.226   5.841  0.0090  0.1660 -0.2610
  704MOL0     C94935   5.641  10.219   5.881 -0.6098  0.3714  0.7874
  704MOL0     O94936   5.739  10.292   5.817 -0.3602 -0.4662  0.0113
  704MOL0     C94937   5.868  10.242   5.806  0.1022  0.6427  0.6525
  704MOL0     C94938   5.957  10.264   5.915  0.3518  0.8250 -0.1958
  704MOL0     C94939   6.084  10.202   5.896  0.6506  0.3436 -1.2520
  704MOL0     C94940   6.117  10.127   5.782 -1.0423 -0.9357 -0.2631
  704MOL0     O94941   6.241  10.063   5.785  0.5121  0.2070 -0.6299
  704MOL0     C94942   6.332  10.063   5.675 -0.2065 -0.5890  0.1287
  704MOL0     C94943   6.444   9.979   5.727 -0.3234  0.0473  0.2895
  704MOL0     C94944   6.569   9.987   5.627  0.1746  0.2356  0.5331
  704MOL0     C94945   6.680   9.896   5.684 -0.1225  0.4310  1.1006
  704MOL0     C94946   6.808   9.912   5.598  0.2795  0.2858 -0.3710
  704MOL0     C94947   6.914   9.813   5.650  0.5386 -0.1317 -0.1473
  704MOL0     C94948   7.034   9.825   5.567 -0.4490  0.6242 -0.1212
  704MOL0     C94949   7.160   9.751   5.618  0.3913 -0.7237 -0.1667
  704MOL0    Cl94950   7.287   9.728   5.496  0.0213  0.2406  0.6735
  704MOL0     C94951   6.022  10.111   5.681  0.9001  0.8529  0.1429
  704MOL0     C94952   5.895  10.162   5.695  0.2682 -0.4969  0.0994
  704MOL0     O94953   5.660  10.142   5.976  0.3791  0.3284  0.0325
  704MOL0     C94954   5.422  10.111   5.840 -0.3068 -0.3665 -0.9179
  704MOL0     C94955   5.293  10.108   5.802 -0.1685 -0.3214 -0.7076
  704MOL0     N94956   4.648  10.566   5.952  0.6998  0.3512  0.5886
  704MOL0     N94957   4.644  10.688   5.933 -0.0914  0.2951 -0.5113
  704MOL0     C94958   5.742  11.113   6.269  0.5383 -0.1191  0.0747
  704MOL0     C94959   5.872  11.062   6.259 -0.1495 -0.1066  0.1544
  704MOL0     C94960   6.341  11.121   6.237 -0.6359  1.2784 -0.5192
  704MOL0     C94961   6.447  11.148   6.325 -0.4439 -0.5317 -0.0779
  704MOL0     C94962   6.580  11.132   6.295  0.3951 -0.2791 -0.2387
  704MOL0     C94963   6.617  11.091   6.168 -0.2744  0.3771  0.8310
  704MOL0     O94964   6.741  11.075   6.119 -0.7171 -0.6306  0.1623
  704MOL0     C94965   6.854  11.103   6.212  0.5821  0.2073  0.4469
  704MOL0     C94966   6.958  10.996   6.182 -1.0394 -1.4823  0.2958
  704MOL0     C94967   6.992  10.971   6.041 -0.0907 -0.7464  0.3479
  704MOL0     C94968   7.073  11.083   5.971  1.1594  0.3073  0.0069
  704MOL0     C94969   7.124  11.050   5.841 -0.9532  0.9098 -0.6533
  704MOL0     C94970   7.157  11.027   5.730  0.0946  0.4274  0.3614
  704MOL0     C94971   6.517  11.070   6.075 -0.2753  0.0473  0.4688
  704MOL0     C94972   6.382  11.079   6.110 -0.5850 -0.1854  0.0130
  704MOL0     H94973   6.010  11.323   6.091 -1.9599  2.5732 -0.2625
  704MOL0     H94974   5.782  11.408   6.107 -0.5108 -0.5000 -1.1689
  704MOL0     H94975   5.460  11.141   6.145 -3.3474 -2.0047  1.3099
  704MOL0     H94976   5.483  11.139   6.322 -1.5970 -0.6103 -0.2205
  704MOL0     H94977   5.340  11.324   6.362 -1.3761  0.7198 -0.5979
  704MOL0     H94978   5.309  11.362   6.185 -0.0512 -1.1102 -0.1510
  704MOL0     H94979   5.261  11.079   6.279 -1.8041 -0.6153  0.0132
  704MOL0     H94980   5.150  11.196   6.348  0.3816  1.6092 -0.3709
  704MOL0     H94981   5.071  11.269   6.127  0.2679  0.1164 -0.6190
  704MOL0     H94982   5.193  11.164   6.044 -1.5658 -1.2714  0.6264
  704MOL0     H94983   5.110  10.969   6.160  0.0833  0.2829 -1.9855
  704MOL0     H94984   4.980  11.058   6.226 -1.8770 -2.4369 -0.3837
  704MOL0     H94985   4.950  11.126   5.981 -0.8357 -0.5947 -4.0959
  704MOL0     H94986   5.043  10.980   5.941  0.7127  0.5655  1.2037
  704MOL0     H94987   4.866  10.875   6.117  1.0989  2.6649  1.4925
  704MOL0     H94988   4.777  11.013   6.057  0.0658 -0.8223 -0.3965
  704MOL0     H94989   4.882  10.871   5.826 -0.6367  0.4394 -0.4895
  704MOL0     H94990   4.728  10.937   5.871 -0.5137 -1.3864 -1.0248
  704MOL0     H94991   4.967  10.615   5.916 -0.0871 -5.6940  0.2596
  704MOL0     H94992   4.931  10.377   6.004 -0.6497 -1.5184 -0.7506
  704MOL0     H94993   4.771  10.318   6.045  0.1068 -2.2218  0.0806
  704MOL0     H94994   4.710  10.285   5.824 -1.0410  0.6478  1.3759
  704MOL0     H94995   4.863  10.208   5.871 -1.9438  0.7928  4.1986
  704MOL0     H94996   4.826  10.431   5.662 -0.1847 -0.7606 -0.2518
  704MOL0     H94997   4.874  10.266   5.636 -0.4758 -0.1088 -0.0962
  704MOL0     H94998   5.055  10.432   5.807  1.1199  0.0572 -0.8943
  704MOL0     H94999   5.062  10.411   5.632 -0.6116  1.8895 -0.3774
  704MOL0     H95000   5.267  10.444   5.735  3.6985  1.4324 -1.1171
  704MOL0     H95001   5.587  10.488   5.863  0.3270  1.7571 -1.0319
  704MOL0     H95002   5.580  10.485   5.686  0.6155  1.1072  0.4757
  704MOL0     H95003   5.452  10.555   5.786 -1.6261 -0.4740 -3.1640
  704MOL0     H95004   5.915  10.323   5.996 -0.2732 -1.0430  0.9166
  704MOL0     H95005   6.154  10.211   5.978 -1.6640  0.8110  0.7833
  704MOL0     H95006   6.282  10.015   5.590 -1.8535 -1.1296  1.3389
  704MOL0     H95007   6.368  10.160   5.638 -3.1179  1.1804  1.5524
  704MOL0     H95008   6.478  10.025   5.820  1.7648  2.3109 -1.4419
  704MOL0     H95009   6.409   9.878   5.749  0.6011  0.0283  1.8256
  704MOL0     H95010   6.598  10.093   5.622 -2.9056  1.1319 -0.2749
  704MOL0     H95011   6.545   9.953   5.526 -1.7150  0.7984  0.7671
  704MOL0     H95012   6.694   9.897   5.793 -0.7542  0.1165  1.1927
  704MOL0     H95013   6.650   9.795   5.653  3.8085  0.4066 -3.8417
  704MOL0     H95014   6.849  10.012   5.614  1.3195 -0.2683  0.5807
  704MOL0     H95015   6.786   9.894   5.493  1.0689  0.3428 -0.5550
  704MOL0     H95016   6.919   9.836   5.757  1.0142 -3.4356  0.6506
  704MOL0     H95017   6.867   9.714   5.651 -1.3794  0.6486 -3.0359
  704MOL0     H95018   7.054   9.933   5.570 -1.2367  0.8692 -2.0309
  704MOL0     H95019   7.016   9.787   5.466  2.3470 -0.0794 -0.4486
  704MOL0     H95020   7.126   9.652   5.650 -1.4944  0.5401  2.0485
  704MOL0     H95021   7.189   9.809   5.707 -3.3758  0.6608  0.3180
  704MOL0     H95022   6.039  10.050   5.592 -1.8204  1.9291 -1.2067
  704MOL0     H95023   5.819  10.154   5.618 -1.1282 -0.2024  1.3985
  704MOL0     H95024   5.475  10.020   5.870 -2.1375 -1.0005  0.5603
  704MOL0     H95025   5.242  10.014   5.822 -3.5885  1.5390  0.1535
  704MOL0     H95026   5.663  11.053   6.313 -1.0489 -0.1256 -2.5290
  704MOL0     H95027   5.895  10.967   6.306 -0.8302  0.0416  0.7970
  704MOL0     H95028   6.428  11.193   6.422  2.2109 -1.0590  0.7822
  704MOL0     H95029   6.656  11.180   6.356  0.8765  1.8264 -2.3767
  704MOL0     H95030   6.894  11.205   6.216  1.0356 -0.0041  2.6167
  704MOL0     H95031   6.826  11.076   6.314  1.9832 -2.2159  0.2585
  704MOL0     H95032   6.916  10.902   6.220 -1.2819 -0.6966  2.1039
  704MOL0     H95033   7.051  11.019   6.235 -1.9623  1.2797  0.8788
  704MOL0     H95034   6.904  10.946   5.981  1.3101 -0.3915 -2.0065
  704MOL0     H95035   7.062  10.886   6.038 -0.2524 -0.9072 -2.7219
  704MOL0     H95036   7.150  11.124   6.038 -0.3617  1.4038  1.1520
  704MOL0     H95037   7.012  11.174   5.962  0.4393  0.1972  2.8286
  704MOL0     H95038   7.191  11.008   5.630 -0.7051 -0.6665  0.2844
  704MOL0     H95039   6.538  11.039   5.973 -0.3604  1.7864 -0.0964
  704MOL0     H95040   6.311  11.056   6.032  0.7851 -0.3840 -1.2258
  705MOL0     O95041   5.596   0.108   4.518 -0.2106 -0.2167  0.3028
  705MOL0     C95042   5.573   0.124   4.640  0.1063 -0.2389  0.3578
  705MOL0     O95043   5.526   0.249   4.689  1.1468  0.2330 -0.0374
  705MOL0     C95044   5.519   0.348   4.593 -0.3137 -0.6138 -0.3671
  705MOL0     C95045   5.629   0.444   4.568  0.6801  0.9225  0.0717
  705MOL0     C95046   5.617   0.535   4.469 -0.0227 -0.0499 -0.2250
  705MOL0     C95047   5.504   0.540   4.389  0.4436  0.4275 -0.1847
  705MOL0     O95048   5.488   0.637   4.294 -0.3036 -0.0549  0.1569
  705MOL0     C95049   5.529   0.772   4.318  0.1730 -0.3118  0.2570
  705MOL0     C95050   5.489   0.861   4.196 -0.4619  0.6311 -0.1639
  705MOL0     C95051   5.342   0.863   4.178 -0.2274  0.1217  0.1416
  705MOL0     C95052   5.281   0.763   4.068 -0.1782 -0.7664 -0.4719
  705MOL0     C95053   5.125   0.793   4.045 -0.2822 -0.4967 -0.2784
  705MOL0     C95054   5.030   0.781   4.162  0.1811  0.2519 -0.3504
  705MOL0     C95055   5.042   0.642   4.222  0.4947  0.7525  0.1635
  705MOL0     C95056   4.944   0.616   4.331 -0.6318  0.1669  0.6650
  705MOL0     N95057   4.985   0.688   4.455  0.1849  0.1013  0.4834
  705MOL0     C95058   5.084   0.641   4.535  0.2058  0.0447 -0.6855
  705MOL0     C95059   5.120   0.744   4.623  0.9104 -0.6753  0.0186
  705MOL0     C95060   5.229   0.751   4.727 -0.8080  0.2105  0.1759
  705MOL0     C95061   5.375   0.791   4.677 -0.4289 -0.3313 -0.3707
  705MOL0     C95062   5.473   0.774   4.788  0.5134 -0.5661 -0.2236
  705MOL0     C95063   5.624   0.807   4.757 -0.9460 -0.5746  0.2695
  705MOL0     O95064   5.623   0.943   4.708  0.2010 -0.1245  0.4741
  705MOL0     C95065   5.731   0.979   4.626  0.5157  0.3977  0.3270
  705MOL0     C95066   5.718   1.091   4.545  0.4423 -1.0066  0.5778
  705MOL0     C95067   5.830   1.129   4.465 -0.6057 -0.6140 -0.3620
  705MOL0     C95068   5.805   1.259   4.383  0.2576  0.2843 -0.4531
  705MOL0     C95069   5.955   1.064   4.473  0.9180  0.2189  0.7597
  705MOL0     C95070   6.078   1.100   4.391  0.2498  1.0423  0.5863
  705MOL0     O95071   6.196   1.041   4.427 -0.2889 -0.7418  0.0344
  705MOL0     C95072   6.306   1.074   4.351 -0.2863  0.7617 -0.4938
  705MOL0     C95073   6.376   0.966   4.297 -0.2130  0.5301  0.2225
  705MOL0     C95074   6.492   0.987   4.215  0.6522  0.2336  0.5602
  705MOL0     C95075   6.547   1.115   4.204  0.1842 -0.3554  0.7729
  705MOL0     O95076   6.660   1.137   4.133  0.1838  0.2235 -0.7341
  705MOL0     C95077   6.709   1.270   4.115  0.2495  1.1107 -0.6903
  705MOL0     C95078   6.812   1.256   4.009  0.6436  1.0873 -0.6618
  705MOL0     C95079   6.912   1.147   4.049 -0.1491 -0.4334  0.7553
  705MOL0     C95080   7.024   1.138   3.938  0.0061  0.5224  0.5424
  705MOL0     C95081   7.114   1.009   3.969 -0.1513 -0.0687  0.5728
  705MOL0     C95082   7.189   1.002   4.106 -0.7474  0.0592  0.7940
  705MOL0     C95083   7.306   1.102   4.124 -0.7139 -0.5852 -0.5592
  705MOL0     C95084   7.440   1.069   4.055  0.5268  0.2052 -0.4537
  705MOL0    Cl95085   7.414   1.077   3.881 -0.0527  0.0951  0.1751
  705MOL0     C95086   6.482   1.223   4.266  0.2362  0.4330  0.6070
  705MOL0     C95087   6.368   1.199   4.335 -0.2623  0.0666 -0.0872
  705MOL0     O95088   6.071   1.188   4.307 -0.8217 -0.0030  0.0581
  705MOL0     C95089   5.953   0.945   4.554  0.9148  0.0067 -0.3412
  705MOL0     C95090   5.849   0.900   4.628  1.0159 -0.0222  0.6233
  705MOL0     N95091   5.024   0.844   4.598  0.2364 -0.7652 -0.3501
  705MOL0     N95092   4.945   0.808   4.504  0.5893 -0.6210 -0.6355
  705MOL0     C95093   5.405   0.451   4.401 -0.3534  0.0464  0.4599
  705MOL0     C95094   5.415   0.362   4.503  0.3239 -0.1972  0.4343
  705MOL0     C95095   5.591  -0.001   4.724 -0.2313 -0.6246  0.1235
  705MOL0     C95096   5.574  -0.001   4.863  0.0912  0.6061  0.6145
  705MOL0     C95097   5.566  -0.121   4.935 -0.1527  0.3948  0.7258
  705MOL0     C95098   5.571  -0.246   4.865 -0.0445  0.3018  0.3151
  705MOL0     O95099   5.546  -0.368   4.926  0.5708  0.1050  0.4328
  705MOL0     C95100   5.551  -0.372   5.069  0.4017  0.4716  0.1787
  705MOL0     C95101   5.510  -0.511   5.119  0.0444  0.2393 -0.0768
  705MOL0     C95102   5.608  -0.611   5.053  0.7667 -0.8585 -0.6526
  705MOL0     C95103   5.601  -0.661   4.908  0.1490  0.1203 -0.4046
  705MOL0     C95104   5.723  -0.714   4.865  0.2531  0.2095  0.0320
  705MOL0     C95105   5.823  -0.745   4.813  0.0627  0.4968  1.2670
  705MOL0     C95106   5.593  -0.244   4.723 -0.3072  0.0895  0.3506
  705MOL0     C95107   5.614  -0.120   4.657 -0.1439  0.3142 -0.3580
  705MOL0     H95108   5.726   0.439   4.617  1.3231 -0.7828 -1.2756
  705MOL0     H95109   5.688   0.616   4.456 -2.0514  2.1770  1.6240
  705MOL0     H95110   5.479   0.803   4.410  0.9615 -0.0660  0.6073
  705MOL0     H95111   5.637   0.780   4.331 -0.0153  0.7733  1.3345
  705MOL0     H95112   5.531   0.960   4.212  2.9225 -0.7437  0.2756
  705MOL0     H95113   5.522   0.824   4.099  1.2321 -2.3281  1.4061
  705MOL0     H95114   5.285   0.839   4.269  1.9137  0.0352  1.5411
  705MOL0     H95115   5.317   0.967   4.153  4.2685  1.0111 -1.7598
  705MOL0     H95116   5.342   0.767   3.977 -0.7145 -0.3080 -0.8226
  705MOL0     H95117   5.290   0.657   4.092 -0.1858 -1.0701 -1.7151
  705MOL0     H95118   5.111   0.894   4.004  0.0426 -0.5164 -0.4392
  705MOL0     H95119   5.085   0.727   3.967 -2.1840 -0.2623  0.4353
  705MOL0     H95120   5.052   0.845   4.247  1.7801 -0.3771 -0.2455
  705MOL0     H95121   4.928   0.800   4.130 -0.7303 -0.7206  1.8233
  705MOL0     H95122   5.024   0.567   4.144  2.4434  0.0548  0.3290
  705MOL0     H95123   5.144   0.629   4.259  0.6061  1.9848  0.3288
  705MOL0     H95124   4.950   0.507   4.340 -0.2290  0.1414  0.1229
  705MOL0     H95125   4.842   0.638   4.298 -0.9457 -3.4715 -1.2433
  705MOL0     H95126   5.135   0.547   4.519 -1.0548 -0.8218  0.1679
  705MOL0     H95127   5.201   0.827   4.801 -0.9410  1.4098 -1.0823
  705MOL0     H95128   5.241   0.660   4.787  0.8424  2.0224  2.8339
  705MOL0     H95129   5.372   0.893   4.636  2.5173 -0.6883 -1.6756
  705MOL0     H95130   5.397   0.733   4.587  1.0842  0.4175 -0.5166
  705MOL0     H95131   5.472   0.670   4.823  2.4255 -0.6618 -0.3559
  705MOL0     H95132   5.450   0.836   4.875 -2.8637  0.1940 -1.5180
  705MOL0     H95133   5.668   0.728   4.696  1.6005 -2.3937  4.0989
  705MOL0     H95134   5.688   0.811   4.845  0.6707  1.6849 -0.8976
  705MOL0     H95135   5.625   1.145   4.557 -0.0220 -1.6750  0.0278
  705MOL0     H95136   5.785   1.239   4.277 -1.8273  0.8264 -0.2020
  705MOL0     H95137   5.717   1.298   4.435 -1.4550 -1.7974 -1.6496
  705MOL0     H95138   5.881   1.339   4.387 -0.9129  1.3877  1.9846
  705MOL0     H95139   6.330   0.870   4.315 -2.5180  1.3274 -1.0382
  705MOL0     H95140   6.537   0.902   4.165  1.7776  1.0441  0.1668
  705MOL0     H95141   6.628   1.336   4.082 -1.0608  0.0525  0.2573
  705MOL0     H95142   6.752   1.302   4.211  1.5030 -1.1825 -0.3898
  705MOL0     H95143   6.762   1.227   3.916  1.1847  0.2043 -0.6799
  705MOL0     H95144   6.857   1.355   3.996  1.8125  0.7550  0.6256
  705MOL0     H95145   6.874   1.044   4.054  0.9519 -1.0532 -1.9182
  705MOL0     H95146   6.967   1.160   4.142 -1.7535 -0.8862  1.8187
  705MOL0     H95147   6.975   1.128   3.841 -1.6707 -1.5021  1.4996
  705MOL0     H95148   7.096   1.219   3.931 -0.3518  0.7183 -1.1901
  705MOL0     H95149   7.182   1.003   3.885 -0.0973  2.2277  0.3829
  705MOL0     H95150   7.051   0.919   3.970 -1.3250  0.7092 -0.8637
  705MOL0     H95151   7.107   1.006   4.178 -2.2704  0.0729 -0.8652
  705MOL0     H95152   7.225   0.900   4.125  0.0146  0.1540 -0.0406
  705MOL0     H95153   7.329   1.105   4.231 -2.3428  0.5402 -0.2095
  705MOL0     H95154   7.270   1.204   4.108 -1.6795 -0.5283  1.5819
  705MOL0     H95155   7.469   0.971   4.093  0.5990  1.0064  1.6821
  705MOL0     H95156   7.513   1.143   4.088  0.4101  0.6255 -1.1070
  705MOL0     H95157   6.516   1.325   4.256  0.3703  0.2608 -0.9581
  705MOL0     H95158   6.323   1.284   4.386  3.4413  0.8494  2.2935
  705MOL0     H95159   6.046   0.895   4.580  1.5484  1.1337 -0.3750
  705MOL0     H95160   5.871   0.814   4.691 -1.0942 -2.1634 -1.3402
  705MOL0     H95161   5.328   0.456   4.324  0.8697 -1.7481 -0.9630
  705MOL0     H95162   5.342   0.282   4.515  1.4335 -1.1718  0.8421
  705MOL0     H95163   5.544   0.093   4.910  0.8232  1.0409  0.2255
  705MOL0     H95164   5.542  -0.116   5.041  0.2245  0.4902  0.8070
  705MOL0     H95165   5.649  -0.335   5.102 -0.2226  0.4015  2.1994
  705MOL0     H95166   5.478  -0.309   5.119  0.1980  1.0809 -0.8540
  705MOL0     H95167   5.406  -0.535   5.095 -0.3661  0.8644  1.0255
  705MOL0     H95168   5.514  -0.498   5.227 -3.2172 -0.2164  0.1810
  705MOL0     H95169   5.596  -0.705   5.109  3.2588 -1.0833 -0.3849
  705MOL0     H95170   5.706  -0.565   5.067  0.5259  0.2302 -2.2809
  705MOL0     H95171   5.570  -0.593   4.828 -0.2855  3.1279  2.1039
  705MOL0     H95172   5.516  -0.730   4.904  0.3986 -0.3809  1.7679
  705MOL0     H95173   5.907  -0.761   4.749 -2.0808  0.9912 -1.8749
  705MOL0     H95174   5.605  -0.340   4.674  1.8727  1.7301 -2.6554
  705MOL0     H95175   5.636  -0.123   4.551  2.3148  0.4125  0.1001
  706MOL0     O95176   7.498   8.225   1.170  0.1647 -0.5188 -0.0540
  706MOL0     C95177   7.480   8.315   1.246 -0.6525 -0.5665 -0.3712
  706MOL0     O95178   7.570   8.420   1.261 -0.6253 -0.0234 -0.0979
  706MOL0     C95179   7.703   8.411   1.220  0.9846 -0.3053 -0.9657
  706MOL0     C95180   7.773   8.516   1.159 -0.5246  0.4802 -0.9940
  706MOL0     C95181   7.911   8.504   1.134 -1.3540 -0.3268 -0.0623
  706MOL0     C95182   7.980   8.391   1.174  0.0350 -0.0701  0.0376
  706MOL0     O95183   8.115   8.363   1.150  0.0585  0.5529  0.1837
  706MOL0     C95184   8.201   8.482   1.159  0.3445 -0.8989 -0.3031
  706MOL0     C95185   8.339   8.443   1.175  0.1806  0.2310 -0.1728
  706MOL0     C95186   8.427   8.561   1.127 -0.0568 -0.2525 -0.1782
  706MOL0     C95187   8.566   8.556   1.171  0.1605 -0.1939  0.1818
  706MOL0     C95188   8.649   8.678   1.128  0.0501  0.1686 -0.0549
  706MOL0     C95189   8.796   8.650   1.170 -0.4419  0.2725 -0.0459
  706MOL0     C95190   8.899   8.758   1.124  0.3317 -0.6223 -0.5519
  706MOL0     C95191   8.924   8.861   1.231 -0.1712 -0.0007  0.2143
  706MOL0     N95192   8.805   8.938   1.253  0.5894 -0.5150  0.1388
  706MOL0     C95193   8.710   8.921   1.350  0.6792 -0.0924  0.2646
  706MOL0     C95194   8.610   9.012   1.317 -0.6101 -0.8487  0.5044
  706MOL0     C95195   8.480   9.032   1.390 -0.1064 -0.3621 -1.5022
  706MOL0     C95196   8.378   9.009   1.281  0.1779 -0.3000 -0.5484
  706MOL0     C95197   8.232   9.016   1.329 -0.2658  0.3816 -0.2635
  706MOL0     C95198   8.198   9.166   1.362  0.9912 -0.0804  0.2446
  706MOL0     O95199   8.102   9.161   1.468 -0.8342 -0.3602 -0.6008
  706MOL0     C95200   8.016   9.266   1.500 -0.2622  0.6596 -0.6506
  706MOL0     C95201   7.905   9.226   1.576 -0.1298 -0.1920  0.1773
  706MOL0     C95202   7.809   9.313   1.619 -0.2559  0.0844  0.4472
  706MOL0     C95203   7.696   9.256   1.695 -0.3658 -0.1814  0.6043
  706MOL0     C95204   7.820   9.454   1.577 -0.3113  0.6007  0.5999
  706MOL0     C95205   7.732   9.563   1.634  0.9886  0.1670  0.2825
  706MOL0     O95206   7.609   9.527   1.686 -0.0156  0.1741 -0.0634
  706MOL0     C95207   7.503   9.609   1.692 -0.6506 -0.0544  0.7891
  706MOL0     C95208   7.437   9.618   1.812 -0.8516 -0.7346 -0.3594
  706MOL0     C95209   7.316   9.694   1.816 -0.9715 -0.5346 -1.2299
  706MOL0     C95210   7.261   9.751   1.703  0.7362 -0.1469 -0.1836
  706MOL0     O95211   7.138   9.816   1.685 -0.6261  0.0788 -0.9267
  706MOL0     C95212   7.045   9.849   1.790 -0.6020  0.3401  0.2247
  706MOL0     C95213   6.935   9.940   1.744  0.1212  0.5617 -0.3789
  706MOL0     C95214   6.997  10.070   1.680  0.5863 -0.5850 -0.6780
  706MOL0     C95215   6.887  10.172   1.653 -0.0395  0.4371 -0.3797
  706MOL0     C95216   6.942  10.299   1.576 -0.2079 -0.4857 -0.7068
  706MOL0     C95217   7.034  10.269   1.454 -0.7295  0.1850 -0.4905
  706MOL0     C95218   7.053  10.394   1.365  0.2062 -0.2734 -0.7170
  706MOL0     C95219   7.182  10.375   1.289 -0.4970 -0.2658 -0.1593
  706MOL0    Cl95220   7.207  10.513   1.179  0.5368  0.0334  0.2679
  706MOL0     C95221   7.335   9.743   1.584 -0.3738 -0.2559 -0.0015
  706MOL0     C95222   7.455   9.670   1.581 -0.1931  0.1518  0.8653
  706MOL0     O95223   7.757   9.679   1.621  0.2761  0.2985  0.1652
  706MOL0     C95224   7.928   9.497   1.496 -0.2561  0.6169  0.0084
  706MOL0     C95225   8.023   9.400   1.457 -0.6979  0.1030 -0.4266
  706MOL0     N95226   8.648   9.079   1.195  0.2059  0.6560  0.8432
  706MOL0     N95227   8.766   9.034   1.160  0.6408  0.2237  0.4536
  706MOL0     C95228   7.906   8.278   1.221  0.1129  0.2569  0.1252
  706MOL0     C95229   7.771   8.294   1.255  1.2279 -0.0171  0.2128
  706MOL0     C95230   7.352   8.333   1.316 -0.9119  0.4972 -0.1978
  706MOL0     C95231   7.337   8.433   1.424  0.3652  0.2491  0.8903
  706MOL0     C95232   7.226   8.453   1.494 -0.2211 -0.1969  0.3850
  706MOL0     C95233   7.109   8.380   1.461 -0.9804 -0.8686  0.5738
  706MOL0     O95234   6.981   8.397   1.497 -0.7694  0.1052  0.1185
  706MOL0     C95235   6.952   8.509   1.580  0.7584  0.1959 -0.0582
  706MOL0     C95236   6.921   8.634   1.508 -0.6401 -0.7692 -0.4060
  706MOL0     C95237   6.777   8.630   1.455  0.2140  0.7463 -0.7471
  706MOL0     C95238   6.740   8.769   1.411 -0.0265  0.6631  0.2085
  706MOL0     C95239   6.606   8.776   1.349 -0.2948 -0.1063 -0.6309
  706MOL0     C95240   6.497   8.791   1.295 -0.0112  0.1472 -0.1921
  706MOL0     C95241   7.116   8.283   1.361 -0.1550  0.1590 -0.2193
  706MOL0     C95242   7.239   8.252   1.293  0.6007 -0.0624 -0.2113
  706MOL0     H95243   7.713   8.605   1.141 -0.0034  1.0308 -0.1200
  706MOL0     H95244   7.963   8.582   1.079 -2.2110 -0.1892 -0.7121
  706MOL0     H95245   8.192   8.548   1.072  1.8777  4.1984  3.0427
  706MOL0     H95246   8.184   8.549   1.243  1.4239  2.8412 -2.8530
  706MOL0     H95247   8.360   8.422   1.280 -2.8252  3.6970  1.3337
  706MOL0     H95248   8.358   8.358   1.108 -1.2380 -0.2250 -0.0291
  706MOL0     H95249   8.436   8.565   1.018  3.0233  0.4911  0.0343
  706MOL0     H95250   8.385   8.657   1.157  3.1384  1.2019  0.0410
  706MOL0     H95251   8.586   8.554   1.278 -1.4220 -0.7020  0.5005
  706MOL0     H95252   8.606   8.466   1.122 -2.0045 -0.6069 -0.9663
  706MOL0     H95253   8.646   8.687   1.019 -0.0263 -2.1404 -0.2966
  706MOL0     H95254   8.615   8.766   1.183 -1.4026 -0.7436  0.5532
  706MOL0     H95255   8.807   8.632   1.277  1.6419 -0.5004 -0.3582
  706MOL0     H95256   8.814   8.555   1.119  0.0002 -0.5295  1.5538
  706MOL0     H95257   8.997   8.712   1.103  0.7962  0.4445 -0.8033
  706MOL0     H95258   8.858   8.801   1.032 -2.3555 -0.6693  0.5369
  706MOL0     H95259   9.001   8.927   1.191 -0.5821  1.3609  1.5782
  706MOL0     H95260   8.960   8.820   1.326  0.8001  0.2645 -0.0366
  706MOL0     H95261   8.713   8.846   1.428  1.0060 -0.0339  0.3103
  706MOL0     H95262   8.467   8.945   1.456 -0.4347 -0.3476 -1.5444
  706MOL0     H95263   8.476   9.121   1.454  2.0679 -1.4901  0.3604
  706MOL0     H95264   8.384   8.905   1.246 -1.9958 -0.0394 -1.8881
  706MOL0     H95265   8.393   9.089   1.208  4.4832  2.6024  2.9796
  706MOL0     H95266   8.229   8.948   1.415 -0.4334 -0.9846 -1.3256
  706MOL0     H95267   8.161   8.979   1.255 -2.0922  1.3847  0.9279
  706MOL0     H95268   8.148   9.210   1.275  0.8135 -0.7641 -0.0058
  706MOL0     H95269   8.285   9.228   1.383  0.3704  0.5978  0.8621
  706MOL0     H95270   7.898   9.126   1.618  1.7414  0.5805  2.5907
  706MOL0     H95271   7.712   9.148   1.703  2.1713  0.0240 -0.8737
  706MOL0     H95272   7.689   9.299   1.796 -0.1244  1.4436 -0.0426
  706MOL0     H95273   7.604   9.282   1.641  0.8031 -1.2334 -2.0221
  706MOL0     H95274   7.466   9.569   1.904 -4.3156  0.9473  1.8366
  706MOL0     H95275   7.257   9.701   1.906 -1.3126 -0.1962 -1.4730
  706MOL0     H95276   7.001   9.757   1.829 -1.1821  0.9975  1.1577
  706MOL0     H95277   7.107   9.901   1.864 -0.6144  2.5115 -1.1827
  706MOL0     H95278   6.883   9.884   1.665  4.3912 -2.4373 -1.4092
  706MOL0     H95279   6.865   9.959   1.826 -0.8065 -1.7880 -0.5566
  706MOL0     H95280   7.040  10.032   1.586 -1.3014 -0.6796 -1.5629
  706MOL0     H95281   7.074  10.116   1.741  0.9981 -0.0904 -1.5449
  706MOL0     H95282   6.804  10.134   1.593  0.0652  1.4431 -1.1895
  706MOL0     H95283   6.836  10.203   1.745 -0.3635  0.7020 -0.6430
  706MOL0     H95284   7.008  10.355   1.644 -0.5257  1.0198 -1.5913
  706MOL0     H95285   6.862  10.368   1.548  0.6675  1.4795  1.2912
  706MOL0     H95286   7.128  10.222   1.485 -0.7555 -0.0268 -0.7277
  706MOL0     H95287   6.996  10.183   1.398  0.9167  0.8934 -2.8326
  706MOL0     H95288   7.054  10.490   1.417  2.6641 -1.1911  1.1497
  706MOL0     H95289   6.975  10.411   1.291 -2.0929 -1.6679  1.2642
  706MOL0     H95290   7.194  10.279   1.238  1.9067 -0.0092 -0.2045
  706MOL0     H95291   7.264  10.379   1.361  0.7484  2.1999 -1.5979
  706MOL0     H95292   7.308   9.797   1.494  0.8232 -1.9918 -1.4697
  706MOL0     H95293   7.509   9.666   1.486 -4.2372  2.8430 -1.8851
  706MOL0     H95294   7.938   9.598   1.459  0.0881  1.2123  1.6195
  706MOL0     H95295   8.117   9.421   1.407  1.0216  0.4283  2.6962
  706MOL0     H95296   7.949   8.179   1.230 -4.1321 -1.7061  1.1763
  706MOL0     H95297   7.723   8.203   1.289  2.5144 -0.1748  1.6832
  706MOL0     H95298   7.422   8.494   1.453  2.6141 -2.7530  1.0959
  706MOL0     H95299   7.224   8.538   1.561  0.3024  1.6049 -1.7721
  706MOL0     H95300   6.863   8.485   1.639  0.5861  0.6830 -0.1145
  706MOL0     H95301   7.023   8.524   1.661 -3.1030 -0.7075  3.8760
  706MOL0     H95302   6.996   8.663   1.435  1.0528  2.0317  2.1845
  706MOL0     H95303   6.941   8.715   1.580 -0.6155 -1.5569  0.4877
  706MOL0     H95304   6.720   8.586   1.537  2.1047  1.7856  1.2003
  706MOL0     H95305   6.774   8.553   1.377  2.2041 -2.3782  2.0113
  706MOL0     H95306   6.815   8.802   1.339  2.6692 -2.5195  1.2819
  706MOL0     H95307   6.745   8.837   1.496 -0.1586  1.5945 -0.5153
  706MOL0     H95308   6.407   8.806   1.239  0.8220 -1.6650 -2.1475
  706MOL0     H95309   7.031   8.222   1.334  0.6202  0.5151 -4.0024
  706MOL0     H95310   7.249   8.174   1.218  0.9377  0.8704 -1.1589
  707MOL0     O95311   2.661   7.167   5.425 -0.1526  0.0277  0.0749
  707MOL0     C95312   2.677   7.100   5.324  0.5250  0.6427 -0.5185
  707MOL0     O95313   2.601   7.104   5.206 -0.3402 -0.1799 -0.0643
  707MOL0     C95314   2.504   7.191   5.192  0.2158  0.3465 -0.0907
  707MOL0     C95315   2.522   7.298   5.106 -0.4823 -0.1192  0.1906
  707MOL0     C95316   2.419   7.391   5.098  0.8297  0.0145 -0.5372
  707MOL0     C95317   2.300   7.379   5.169  0.4332 -0.0483 -1.2596
  707MOL0     O95318   2.211   7.480   5.156  0.3056 -0.0545 -0.1047
  707MOL0     C95319   2.148   7.558   5.264  0.4939 -0.2432 -0.9306
  707MOL0     C95320   2.242   7.575   5.393  0.1260 -0.4421 -0.2621
  707MOL0     C95321   2.170   7.638   5.512 -0.6922  0.2910 -0.2824
  707MOL0     C95322   2.110   7.778   5.496  0.8162 -0.4204  0.7684
  707MOL0     C95323   2.034   7.819   5.624  0.4385  0.1876  0.2049
  707MOL0     C95324   1.944   7.946   5.606  0.3792 -1.0849 -0.2529
  707MOL0     C95325   1.865   7.986   5.733  0.2795  0.0887 -0.0114
  707MOL0     C95326   1.754   8.083   5.706  0.2489 -0.5523 -0.7458
  707MOL0     N95327   1.653   8.065   5.808  0.0249 -0.5297 -0.6197
  707MOL0     C95328   1.649   8.128   5.933  0.0133  0.4675 -0.7461
  707MOL0     C95329   1.540   8.085   6.001  0.5878 -0.1896 -0.0757
  707MOL0     C95330   1.484   8.145   6.130 -0.6271 -0.4031  0.1475
  707MOL0     C95331   1.332   8.170   6.137  0.1281 -0.1050  0.6587
  707MOL0     C95332   1.305   8.296   6.226  0.9194 -0.8846  0.6764
  707MOL0     C95333   1.154   8.335   6.236 -0.0635 -0.0425  0.1840
  707MOL0     O95334   1.076   8.228   6.304 -0.2097  0.9376  0.6236
  707MOL0     C95335   0.944   8.214   6.276 -0.4958  0.1460 -0.1117
  707MOL0     C95336   0.878   8.104   6.344 -0.1103 -0.3620  0.8259
  707MOL0     C95337   0.736   8.093   6.331  0.3255 -0.1775 -0.1037
  707MOL0     C95338   0.671   7.966   6.399  0.3480  0.2116 -0.9130
  707MOL0     C95339   0.668   8.188   6.254  1.0480  0.0394 -0.3868
  707MOL0     C95340   0.525   8.173   6.236  1.3600 -0.5749 -0.3542
  707MOL0     O95341   0.455   8.290   6.219 -0.8981 -0.6363 -0.3457
  707MOL0     C95342   0.322   8.293   6.228  0.2059 -0.0909  0.0588
  707MOL0     C95343   0.235   8.281   6.109 -0.6953 -1.5141 -0.3531
  707MOL0     C95344   0.098   8.302   6.116 -0.5130 -0.3374 -0.1937
  707MOL0     C95345   0.034   8.318   6.237 -0.2866 -0.2902 -0.3345
  707MOL0     O95346  -0.095   8.309   6.259  0.0432  0.2897 -0.6786
  707MOL0     C95347  -0.178   8.258   6.149  0.0010  1.1569 -0.4979
  707MOL0     C95348  -0.320   8.281   6.203  0.0838  0.7626  0.3201
  707MOL0     C95349  -0.412   8.205   6.107  0.3758 -1.1214  0.2282
  707MOL0     C95350  -0.560   8.205   6.155  0.3059 -0.4760  0.4933
  707MOL0     C95351  -0.626   8.338   6.102 -0.0442 -0.6979  0.0406
  707MOL0     C95352  -0.776   8.332   6.145 -0.1436  0.7090  1.1658
  707MOL0     C95353  -0.837   8.461   6.092  0.2534 -0.1077 -0.3776
  707MOL0     C95354  -0.961   8.498   6.173 -0.6881 -0.5420  0.3588
  707MOL0    Cl95355  -1.079   8.361   6.181 -0.1176 -0.1844  0.0133
  707MOL0     C95356   0.119   8.330   6.356 -0.0079 -0.4046  0.2332
  707MOL0     C95357   0.259   8.321   6.343 -0.6148  0.5809 -0.4167
  707MOL0     O95358   0.473   8.064   6.231 -0.2313  0.1269  0.0941
  707MOL0     C95359   0.731   8.296   6.195 -0.5496  0.2242  0.5910
  707MOL0     C95360   0.873   8.306   6.204 -0.6011 -0.0547 -0.3869
  707MOL0     N95361   1.475   7.993   5.913  0.5423 -0.5206  0.1869
  707MOL0     N95362   1.537   7.989   5.796 -0.3391 -0.0235  0.8115
  707MOL0     C95363   2.278   7.266   5.255 -0.2201 -0.5475  0.1403
  707MOL0     C95364   2.376   7.168   5.262  0.1620  0.4621  0.2431
  707MOL0     C95365   2.793   6.998   5.332  0.5481 -1.5682 -0.4617
  707MOL0     C95366   2.922   7.037   5.366 -0.1503  0.7202 -0.9797
  707MOL0     C95367   3.021   6.938   5.363  1.0467 -0.7363  0.5950
  707MOL0     C95368   2.999   6.810   5.317 -0.0491  0.3280 -0.0399
  707MOL0     O95369   3.100   6.716   5.310 -0.5018 -0.5127  1.1818
  707MOL0     C95370   3.152   6.729   5.173  0.5638  0.2159  0.3506
  707MOL0     C95371   3.286   6.657   5.167  0.5024 -0.7524  0.5560
  707MOL0     C95372   3.275   6.520   5.222 -0.0618  0.3881 -0.1803
  707MOL0     C95373   3.392   6.427   5.188  0.5941  0.5661  0.0942
  707MOL0     C95374   3.371   6.305   5.271  0.2020 -0.7009  0.2831
  707MOL0     C95375   3.353   6.223   5.356  0.2799  0.8264 -0.1671
  707MOL0     C95376   2.872   6.774   5.277 -0.3380 -0.0259  0.6115
  707MOL0     C95377   2.768   6.867   5.279  0.2760  0.0259 -0.1831
  707MOL0     H95378   2.610   7.306   5.043 -1.4690 -3.3380 -1.8324
  707MOL0     H95379   2.417   7.475   5.030 -2.1292  1.6482  1.3726
  707MOL0     H95380   2.122   7.656   5.225  1.5276  0.3654 -0.1463
  707MOL0     H95381   2.048   7.522   5.290  0.1354  2.1225  1.4167
  707MOL0     H95382   2.277   7.474   5.418  0.8401 -0.1115  0.0990
  707MOL0     H95383   2.334   7.625   5.360  1.2257 -3.0517 -1.4914
  707MOL0     H95384   2.090   7.569   5.540  1.7705 -3.4500 -1.5654
  707MOL0     H95385   2.247   7.637   5.591  0.3659 -1.3409 -1.2684
  707MOL0     H95386   2.181   7.855   5.464 -0.4455  0.2380 -0.5607
  707MOL0     H95387   2.039   7.783   5.412 -1.8408 -0.5131  2.8759
  707MOL0     H95388   1.979   7.731   5.660  2.4224 -0.9287  0.6707
  707MOL0     H95389   2.104   7.840   5.706  1.5450 -3.1703  0.2912
  707MOL0     H95390   2.002   8.030   5.567 -0.8594 -0.3537 -0.5502
  707MOL0     H95391   1.867   7.925   5.532 -0.1411  1.4227 -0.5116
  707MOL0     H95392   1.822   7.897   5.782  0.2639  0.8284  1.3797
  707MOL0     H95393   1.934   8.023   5.810  1.1375  0.7795 -1.0964
  707MOL0     H95394   1.718   8.062   5.605  2.4422 -3.5395 -1.0314
  707MOL0     H95395   1.786   8.188   5.698 -2.3204  0.3094 -0.5534
  707MOL0     H95396   1.716   8.206   5.966 -0.3941  0.0285  1.2434
  707MOL0     H95397   1.526   8.090   6.215 -2.2652 -3.0799 -0.6555
  707MOL0     H95398   1.530   8.243   6.137 -2.9008  0.7703 -0.2853
  707MOL0     H95399   1.278   8.088   6.185 -0.4090  1.0569  2.1301
  707MOL0     H95400   1.297   8.177   6.034 -2.4222 -1.1867  1.3664
  707MOL0     H95401   1.353   8.380   6.173 -3.2247 -1.0995 -4.3118
  707MOL0     H95402   1.349   8.275   6.323 -0.1835 -1.3645  1.0805
  707MOL0     H95403   1.115   8.354   6.136  0.0343  0.5364  0.2532
  707MOL0     H95404   1.148   8.424   6.300 -0.3545 -1.6482  2.4996
  707MOL0     H95405   0.949   8.040   6.397  0.8773  0.4531  0.5131
  707MOL0     H95406   0.631   7.900   6.322  2.2472 -0.9503 -0.9741
  707MOL0     H95407   0.759   7.913   6.437 -0.0913 -1.7407 -2.4575
  707MOL0     H95408   0.607   7.987   6.485  1.2441 -0.5377 -0.0390
  707MOL0     H95409   0.284   8.265   6.013 -0.1481  3.1300 -1.0973
  707MOL0     H95410   0.037   8.295   6.027  0.4395 -2.9071 -0.7315
  707MOL0     H95411  -0.173   8.305   6.051  0.2391  0.2309 -0.9346
  707MOL0     H95412  -0.159   8.152   6.130  2.8420  1.8287 -2.0473
  707MOL0     H95413  -0.343   8.235   6.300 -2.0463  0.4220 -0.2775
  707MOL0     H95414  -0.347   8.385   6.185  3.0785  1.2475 -2.1477
  707MOL0     H95415  -0.374   8.103   6.116  0.1292 -1.4675 -2.1026
  707MOL0     H95416  -0.404   8.242   6.005  1.5028  1.1951  1.0844
  707MOL0     H95417  -0.610   8.116   6.115 -0.4364 -0.4446  1.3247
  707MOL0     H95418  -0.559   8.218   6.264 -2.9782  3.1657  0.2768
  707MOL0     H95419  -0.618   8.348   5.993 -0.7989 -0.4750 -0.0001
  707MOL0     H95420  -0.588   8.421   6.161  0.4219 -0.9536  0.0974
  707MOL0     H95421  -0.817   8.239   6.103  4.0127 -0.1112 -1.8543
  707MOL0     H95422  -0.782   8.317   6.253 -2.1285  0.7966  1.0970
  707MOL0     H95423  -0.871   8.442   5.990 -0.9698  0.1387 -0.0316
  707MOL0     H95424  -0.765   8.543   6.092  0.6327 -0.3627  1.9363
  707MOL0     H95425  -1.003   8.587   6.124  1.4140 -0.3850 -1.2724
  707MOL0     H95426  -0.928   8.534   6.271  0.2820  0.3549 -0.2751
  707MOL0     H95427   0.059   8.354   6.443 -2.2960 -0.9370 -1.0954
  707MOL0     H95428   0.321   8.345   6.429  0.6521  0.6622 -1.3109
  707MOL0     H95429   0.687   8.379   6.141  0.0546  1.3605  1.7928
  707MOL0     H95430   0.925   8.394   6.167  0.2285 -0.3722 -0.0094
  707MOL0     H95431   2.182   7.259   5.304 -1.6475  3.8779 -1.5312
  707MOL0     H95432   2.348   7.085   5.327 -3.2896  0.4652 -1.0457
  707MOL0     H95433   2.941   7.136   5.405 -1.0695  0.3357  0.4950
  707MOL0     H95434   3.119   6.978   5.387  0.5074  0.4495  0.9398
  707MOL0     H95435   3.082   6.681   5.104 -0.4441  0.1040  1.4210
  707MOL0     H95436   3.145   6.833   5.139 -3.7551  0.1035  0.2751
  707MOL0     H95437   3.366   6.721   5.206  0.4986 -0.5006  0.1556
  707MOL0     H95438   3.309   6.657   5.060  0.3160  2.8279  0.4182
  707MOL0     H95439   3.181   6.474   5.191 -0.8021  1.1137  0.9352
  707MOL0     H95440   3.275   6.529   5.331  1.7676 -2.3340  0.1619
  707MOL0     H95441   3.493   6.467   5.205 -0.6967  3.3574  1.9667
  707MOL0     H95442   3.381   6.411   5.080  1.8105  0.9509 -0.1049
  707MOL0     H95443   3.342   6.150   5.434  0.1177  0.3427 -0.6364
  707MOL0     H95444   2.862   6.676   5.232  0.1935 -0.3605  1.1975
  707MOL0     H95445   2.668   6.845   5.242 -0.0787 -1.7429  1.6232
  708MOL0     O95446   7.091   2.752  10.875  0.1858  0.7013  0.4936
  708MOL0     C95447   7.143   2.753  10.988  0.6863  0.6588  0.7831
  708MOL0     O95448   7.097   2.827  11.092 -0.5447  0.0550  0.0368
  708MOL0     C95449   6.973   2.884  11.074  0.3738  0.1583 -0.5516
  708MOL0     C95450   6.852   2.825  11.095  0.2708  0.3032  0.5678
  708MOL0     C95451   6.728   2.886  11.064  0.7214 -0.2720 -0.3548
  708MOL0     C95452   6.719   3.018  11.047 -0.5585 -0.2824  0.4954
  708MOL0     O95453   6.597   3.083  11.026  0.0281 -0.2293  0.3470
  708MOL0     C95454   6.469   3.033  11.074 -0.2707 -0.3650  0.2238
  708MOL0     C95455   6.400   2.981  10.943 -1.3000 -0.3260  0.5723
  708MOL0     C95456   6.341   2.844  10.980  0.1110  0.1693  0.3193
  708MOL0     C95457   6.204   2.844  11.050 -0.5072  0.7121  0.4256
  708MOL0     C95458   6.168   2.697  11.092 -0.0570 -0.5396  0.4103
  708MOL0     C95459   6.025   2.704  11.138 -1.6005  0.7948  0.5676
  708MOL0     C95460   5.951   2.567  11.158  0.2437 -0.4753 -0.6270
  708MOL0     C95461   6.019   2.473  11.261  0.2200  0.9532 -0.0614
  708MOL0     N95462   6.016   2.540  11.389  0.9383  1.0869  0.0275
  708MOL0     C95463   6.121   2.612  11.435 -0.0077 -0.4595 -0.7036
  708MOL0     C95464   6.085   2.639  11.563  1.4229 -1.1570 -0.1208
  708MOL0     C95465   6.154   2.720  11.661  0.0859  0.6564  0.0378
  708MOL0     C95466   6.278   2.639  11.706  0.4922 -0.6610 -0.0861
  708MOL0     C95467   6.372   2.713  11.799 -0.1920 -0.1622  0.0560
  708MOL0     C95468   6.484   2.640  11.865 -0.8386 -0.7833  0.0292
  708MOL0     O95469   6.562   2.738  11.940  0.4364 -0.0864  0.8247
  708MOL0     C95470   6.679   2.678  11.993  0.3810  0.4389 -0.6815
  708MOL0     C95471   6.726   2.541  11.982  0.0312 -0.2261  0.2602
  708MOL0     C95472   6.852   2.508  12.042 -0.2537  0.6266 -1.0098
  708MOL0     C95473   6.910   2.375  11.992 -0.2195  0.1282  0.9059
  708MOL0     C95474   6.923   2.594  12.127  0.1273 -0.7901 -1.4375
  708MOL0     C95475   7.031   2.563  12.217 -1.0892 -0.1351  0.3042
  708MOL0     O95476   7.111   2.657  12.271 -0.2066  0.1943 -0.2243
  708MOL0     C95477   7.185   2.628  12.374  0.4888  0.8172 -0.7357
  708MOL0     C95478   7.149   2.548  12.481  1.0690 -0.1780  0.4675
  708MOL0     C95479   7.245   2.509  12.572  0.2117 -0.7802  0.3744
  708MOL0     C95480   7.384   2.569  12.569  1.0603  0.2422 -0.7536
  708MOL0     O95481   7.481   2.537  12.656  0.0047 -1.0560 -0.4264
  708MOL0     C95482   7.449   2.452  12.765  0.1360  0.3602 -0.0967
  708MOL0     C95483   7.582   2.398  12.815 -0.1886  0.1072 -0.1970
  708MOL0     C95484   7.639   2.279  12.731  0.7436 -1.0149 -0.0171
  708MOL0     C95485   7.757   2.225  12.808  0.6926  0.5740 -0.2412
  708MOL0     C95486   7.846   2.122  12.737 -0.1374 -0.7002  0.4502
  708MOL0     C95487   7.964   2.181  12.664  0.4801  0.2027 -0.1247
  708MOL0     C95488   8.003   2.096  12.538 -0.7480 -0.2511  0.1465
  708MOL0     C95489   8.145   2.143  12.492 -0.0903 -0.4761 -0.1643
  708MOL0    Cl95490   8.281   2.096  12.595  0.1440 -0.0016 -0.0889
  708MOL0     C95491   7.407   2.656  12.462 -0.6870  0.0183 -0.5347
  708MOL0     C95492   7.313   2.683  12.370 -0.9130  0.2471  0.5886
  708MOL0     O95493   7.044   2.443  12.233 -0.1120  0.1596  0.6408
  708MOL0     C95494   6.877   2.729  12.127  0.3917 -0.2118  0.2795
  708MOL0     C95495   6.761   2.764  12.068  0.0828  0.2863 -0.7091
  708MOL0     N95496   5.964   2.576  11.594  0.1742  0.1071  0.7085
  708MOL0     N95497   5.929   2.516  11.493 -0.5020  0.1131 -0.2926
  708MOL0     C95498   6.844   3.089  11.033 -0.3720  0.3262 -0.3702
  708MOL0     C95499   6.966   3.020  11.048  0.3158  0.2648  0.5007
  708MOL0     C95500   7.255   2.663  11.011 -0.2169  0.2740 -0.6894
  708MOL0     C95501   7.303   2.586  10.909  0.1196  0.2227  0.2763
  708MOL0     C95502   7.399   2.487  10.930  0.8356  0.6397  0.1603
  708MOL0     C95503   7.452   2.462  11.053  0.0463 -0.1845 -0.8942
  708MOL0     O95504   7.523   2.351  11.070 -0.1621  0.2654  0.2898
  708MOL0     C95505   7.573   2.317  11.202 -0.0058  0.6377  0.3322
  708MOL0     C95506   7.700   2.395  11.239  0.3990  0.2644 -0.1451
  708MOL0     C95507   7.770   2.357  11.373 -0.2235  0.2770  0.1338
  708MOL0     C95508   7.678   2.329  11.495 -0.4692  0.3881 -0.1429
  708MOL0     C95509   7.583   2.438  11.516 -0.6443  0.1572  0.1809
  708MOL0     C95510   7.510   2.530  11.551  0.5103 -0.0865 -0.4309
  708MOL0     C95511   7.418   2.551  11.156  0.5431  0.2226 -0.2252
  708MOL0     C95512   7.317   2.650  11.138  0.1281 -0.1553  0.5671
  708MOL0     H95513   6.831   2.720  11.115 -0.8365  0.1538 -1.2036
  708MOL0     H95514   6.641   2.822  11.074  0.7547 -0.0511  2.0537
  708MOL0     H95515   6.490   2.960  11.153  0.5656  0.6532  0.9615
  708MOL0     H95516   6.412   3.104  11.133  2.3752  3.9743 -1.9615
  708MOL0     H95517   6.317   3.042  10.905 -1.5160 -2.0526 -1.9375
  708MOL0     H95518   6.474   2.958  10.867 -2.6429 -0.5052 -0.7233
  708MOL0     H95519   6.327   2.781  10.892  1.3157 -0.8736  0.8414
  708MOL0     H95520   6.421   2.788  11.031 -0.6460 -1.0031  0.2593
  708MOL0     H95521   6.230   2.905  11.138  1.9717  1.1736 -0.5509
  708MOL0     H95522   6.130   2.883  10.980 -1.8443 -0.5352  1.0889
  708MOL0     H95523   6.186   2.636  11.003 -0.1465  0.3532 -0.2342
  708MOL0     H95524   6.232   2.654  11.170  1.8213 -0.5704 -1.0586
  708MOL0     H95525   6.013   2.771  11.223 -0.1185  2.2173 -0.2968
  708MOL0     H95526   5.962   2.743  11.057 -1.6932  0.1579  0.3204
  708MOL0     H95527   5.857   2.598  11.205  2.7520  0.3422  4.5578
  708MOL0     H95528   5.944   2.524  11.058  1.3948  2.1693 -1.9345
  708MOL0     H95529   6.121   2.452  11.229 -0.4887 -1.7528 -0.8349
  708MOL0     H95530   5.967   2.380  11.288  1.6425 -0.2756 -1.4146
  708MOL0     H95531   6.213   2.643  11.386  1.0353  2.0902  2.5309
  708MOL0     H95532   6.190   2.806  11.603  0.6236  1.0793  0.9749
  708MOL0     H95533   6.108   2.753  11.754 -0.9423  1.9818 -0.9012
  708MOL0     H95534   6.339   2.612  11.620  1.5519  1.2522  0.0019
  708MOL0     H95535   6.236   2.553  11.759 -0.7066 -1.2590 -1.9080
  708MOL0     H95536   6.315   2.767  11.876 -1.6315  0.0530 -1.1048
  708MOL0     H95537   6.422   2.787  11.736  0.1182  0.0184  0.5092
  708MOL0     H95538   6.545   2.592  11.789  0.5088  0.1039  0.5015
  708MOL0     H95539   6.442   2.565  11.933 -1.2989 -1.1099 -0.6037
  708MOL0     H95540   6.677   2.470  11.917 -0.8140  0.3937  0.2038
  708MOL0     H95541   7.019   2.371  11.986 -0.3063 -0.4235 -1.6581
  708MOL0     H95542   6.875   2.294  12.057 -1.5801 -0.4768 -0.5014
  708MOL0     H95543   6.878   2.349  11.890  1.9734 -0.0004  0.2036
  708MOL0     H95544   7.046   2.515  12.485  1.0250 -0.3147 -1.0796
  708MOL0     H95545   7.209   2.441  12.648 -1.9920  0.7730  0.8286
  708MOL0     H95546   7.405   2.516  12.842 -0.8607  3.3171 -2.8900
  708MOL0     H95547   7.377   2.376  12.733 -2.9669  2.6211  1.0251
  708MOL0     H95548   7.663   2.469  12.834  0.4456 -0.9162  1.0890
  708MOL0     H95549   7.563   2.361  12.916  1.9539  0.7819  0.5067
  708MOL0     H95550   7.666   2.322  12.634  1.9280 -2.0595 -0.1735
  708MOL0     H95551   7.561   2.204  12.714 -0.9808  0.9905 -1.5270
  708MOL0     H95552   7.810   2.316  12.837  0.7383  0.2717  0.6480
  708MOL0     H95553   7.717   2.189  12.903 -1.0770  1.9545 -0.3986
  708MOL0     H95554   7.799   2.046  12.674  1.7791 -2.4306  0.9790
  708MOL0     H95555   7.901   2.059  12.808  2.8758 -0.0609 -1.1366
  708MOL0     H95556   7.945   2.279  12.620 -1.7987 -1.7846 -4.1885
  708MOL0     H95557   8.041   2.193  12.741 -0.0308 -0.5314  0.5135
  708MOL0     H95558   7.931   2.096  12.456 -0.2368  1.2360 -0.3446
  708MOL0     H95559   8.013   1.996  12.580 -3.5441 -1.2451 -1.2650
  708MOL0     H95560   8.148   2.252  12.482  3.5202 -0.5762 -1.7122
  708MOL0     H95561   8.159   2.116  12.387 -2.1974  1.7516 -1.1340
  708MOL0     H95562   7.505   2.701  12.471 -2.4843  4.2815  0.1314
  708MOL0     H95563   7.346   2.757  12.297 -1.4045  1.2390  1.3426
  708MOL0     H95564   6.929   2.801  12.189  0.3632 -0.3031  0.4092
  708MOL0     H95565   6.719   2.862  12.086 -0.7737 -0.0187 -1.0299
  708MOL0     H95566   6.847   3.195  11.008  2.0449  0.9469  2.0939
  708MOL0     H95567   7.061   3.066  11.023  0.5477 -0.4807 -0.0336
  708MOL0     H95568   7.257   2.585  10.811 -1.9810 -0.6638  1.2294
  708MOL0     H95569   7.439   2.438  10.842 -0.1507  0.3963 -0.1626
  708MOL0     H95570   7.490   2.332  11.273  0.7732  1.7101  1.0582
  708MOL0     H95571   7.600   2.212  11.213  3.1477  1.3797  0.7755
  708MOL0     H95572   7.670   2.500  11.245 -1.7494 -0.2953 -0.4112
  708MOL0     H95573   7.771   2.377  11.157 -0.9377 -4.3458 -0.5619
  708MOL0     H95574   7.844   2.434  11.397  0.2150 -0.0012 -0.3078
  708MOL0     H95575   7.824   2.262  11.368  0.1445  0.1375  3.6975
  708MOL0     H95576   7.741   2.340  11.584 -0.3743  2.5599 -0.4183
  708MOL0     H95577   7.616   2.239  11.494  0.7190 -0.4432  0.0244
  708MOL0     H95578   7.440   2.608  11.574 -0.9404 -0.7153 -2.3910
  708MOL0     H95579   7.455   2.545  11.258 -0.8098  3.8151  0.6415
  708MOL0     H95580   7.295   2.715  11.222  2.8499 -1.0087  2.0652
  709MOL0     O95581   0.278   5.380   8.156 -0.3102 -0.3483 -0.0145
  709MOL0     C95582   0.338   5.274   8.146 -0.6016 -0.1392 -0.5859
  709MOL0     O95583   0.283   5.154   8.149  0.0421  0.2784  0.4936
  709MOL0     C95584   0.144   5.152   8.144 -1.2456  0.9278  0.5466
  709MOL0     C95585   0.077   5.170   8.025  0.0569  1.0293  0.6592
  709MOL0     C95586  -0.060   5.150   8.015 -0.3673  0.4621  0.1722
  709MOL0     C95587  -0.137   5.111   8.132  0.5089 -0.3077 -0.1197
  709MOL0     O95588  -0.276   5.087   8.130  0.1378 -0.2680  0.2965
  709MOL0     C95589  -0.343   5.104   8.004  0.6527 -0.7240 -0.5770
  709MOL0     C95590  -0.488   5.092   8.047 -0.5582 -0.0576  0.3458
  709MOL0     C95591  -0.566   5.084   7.918 -0.6566  0.3694 -0.5367
  709MOL0     C95592  -0.576   5.217   7.845 -0.3416  1.3006 -0.1005
  709MOL0     C95593  -0.605   5.176   7.694 -0.0114  0.5074 -1.2070
  709MOL0     C95594  -0.638   5.295   7.620 -0.8025  0.2804 -0.3962
  709MOL0     C95595  -0.643   5.278   7.466  0.6291 -0.4500 -0.0845
  709MOL0     C95596  -0.739   5.161   7.422 -0.5880 -0.1272  0.9021
  709MOL0     N95597  -0.734   5.167   7.270  0.4351 -0.2072 -0.6265
  709MOL0     C95598  -0.618   5.173   7.190  0.0638 -0.8242 -0.1025
  709MOL0     C95599  -0.660   5.127   7.072 -0.3559  0.6363 -0.4000
  709MOL0     C95600  -0.574   5.137   6.946  0.1050  0.6370  0.0553
  709MOL0     C95601  -0.434   5.076   6.958 -0.2444  0.0947  0.3204
  709MOL0     C95602  -0.443   4.931   7.011 -0.6130  0.1460 -0.9941
  709MOL0     C95603  -0.305   4.870   7.023 -0.1843 -0.1700  0.7233
  709MOL0     O95604  -0.233   4.936   7.124 -0.2778  0.5003  0.6283
  709MOL0     C95605  -0.101   4.949   7.090  0.0765 -0.7072 -0.0171
  709MOL0     C95606  -0.024   4.840   7.045 -0.2174 -0.0727  1.0072
  709MOL0     C95607   0.115   4.846   7.056  0.0201  0.0984 -0.3750
  709MOL0     C95608   0.186   4.716   7.043  0.1144  0.5844  0.5165
  709MOL0     C95609   0.185   4.964   7.087  0.3735 -0.5365  0.6414
  709MOL0     C95610   0.333   4.983   7.103 -0.5685 -0.8944 -0.3275
  709MOL0     O95611   0.413   4.876   7.065  0.4695  0.1554  0.4255
  709MOL0     C95612   0.550   4.885   7.064 -0.1364 -0.2318 -0.3828
  709MOL0     C95613   0.602   4.947   6.950  0.2380 -0.0715  0.7147
  709MOL0     C95614   0.741   4.978   6.953 -0.7250 -0.8178 -0.5513
  709MOL0     C95615   0.825   4.932   7.049 -0.1261  0.9380 -0.2418
  709MOL0     O95616   0.956   4.968   7.052 -0.0758 -0.6561 -0.2450
  709MOL0     C95617   1.051   4.908   7.148 -0.1555  0.1266  0.0376
  709MOL0     C95618   1.187   4.944   7.102  0.2942 -0.1867  0.3029
  709MOL0     C95619   1.296   4.904   7.197 -0.5101 -0.5037 -0.7887
  709MOL0     C95620   1.433   4.964   7.153 -0.0984 -0.0334 -0.3319
  709MOL0     C95621   1.527   5.000   7.261 -1.1725 -0.1543 -0.7468
  709MOL0     C95622   1.676   5.013   7.214  0.1013  0.5231  0.6135
  709MOL0     C95623   1.694   5.102   7.090 -0.0060 -0.4135 -0.2415
  709MOL0     C95624   1.839   5.104   7.046 -0.5975  0.0592 -0.8297
  709MOL0    Cl95625   1.944   5.167   7.174 -0.2948  0.3816  0.0250
  709MOL0     C95626   0.774   4.854   7.148  0.1816  0.3308 -0.7975
  709MOL0     C95627   0.637   4.841   7.171  0.1565 -0.0460 -0.6537
  709MOL0     O95628   0.370   5.093   7.140 -0.3130  0.4235 -0.2202
  709MOL0     C95629   0.100   5.075   7.110  0.5171  0.2346 -0.0987
  709MOL0     C95630  -0.038   5.068   7.119 -0.1949  0.6822  0.1097
  709MOL0     N95631  -0.795   5.086   7.079 -0.7837  0.2377  0.4293
  709MOL0     N95632  -0.835   5.104   7.201  0.4700 -0.1236  0.2441
  709MOL0     C95633  -0.069   5.097   8.249 -0.7652  0.2923 -0.4266
  709MOL0     C95634   0.071   5.112   8.252 -0.2611 -0.9331  0.0245
  709MOL0     C95635   0.487   5.292   8.125 -0.6042  0.3225  0.2954
  709MOL0     C95636   0.556   5.418   8.117  0.2333  0.6040  0.3558
  709MOL0     C95637   0.691   5.424   8.098 -0.1749  0.3184  0.4579
  709MOL0     C95638   0.772   5.312   8.095 -0.2405  0.2687 -0.3168
  709MOL0     O95639   0.907   5.323   8.077 -0.3681 -0.0781 -0.4189
  709MOL0     C95640   0.980   5.420   8.155 -0.4562 -0.1281 -0.6601
  709MOL0     C95641   0.992   5.558   8.077  0.0518  0.3233 -0.1202
  709MOL0     C95642   1.004   5.549   7.918 -0.6657  0.4519 -0.6187
  709MOL0     C95643   1.035   5.672   7.843  0.2985 -0.2625  0.0708
  709MOL0     C95644   1.105   5.636   7.719  0.2086 -0.8722  0.0268
  709MOL0     C95645   1.148   5.594   7.614 -0.7739 -0.7350  0.6996
  709MOL0     C95646   0.712   5.185   8.100 -0.2787  0.4233 -0.1199
  709MOL0     C95647   0.573   5.176   8.119 -0.3628 -0.2392 -0.4821
  709MOL0     H95648   0.134   5.169   7.932  0.0624  0.4774  0.6663
  709MOL0     H95649  -0.110   5.147   7.919 -0.1316 -2.0171  0.0649
  709MOL0     H95650  -0.328   5.206   7.967  0.4518  0.9418  3.4525
  709MOL0     H95651  -0.322   5.020   7.938 -1.7985 -2.1280  0.2863
  709MOL0     H95652  -0.492   5.001   8.107 -1.9265  0.0560  0.4762
  709MOL0     H95653  -0.512   5.179   8.109  1.2437  1.6634 -1.2392
  709MOL0     H95654  -0.517   5.008   7.856  1.7078  0.0188  1.6055
  709MOL0     H95655  -0.671   5.060   7.937 -0.9488 -0.5331 -2.9260
  709MOL0     H95656  -0.664   5.260   7.894 -0.2650  3.8120 -1.9952
  709MOL0     H95657  -0.490   5.283   7.855  0.0209  0.7676  0.2956
  709MOL0     H95658  -0.509   5.138   7.658  0.2854 -1.1293  1.0698
  709MOL0     H95659  -0.683   5.099   7.691  0.2879  0.0496  1.0188
  709MOL0     H95660  -0.734   5.339   7.645 -0.6734  3.5281 -4.4769
  709MOL0     H95661  -0.562   5.370   7.644 -2.3354  1.8217 -0.1476
  709MOL0     H95662  -0.663   5.379   7.430 -0.4833 -0.0404  1.5831
  709MOL0     H95663  -0.543   5.255   7.428  0.1130 -0.1746 -1.6477
  709MOL0     H95664  -0.840   5.177   7.461 -1.8670  1.1451 -2.5650
  709MOL0     H95665  -0.704   5.061   7.450 -2.9273 -1.2882 -0.0700
  709MOL0     H95666  -0.519   5.211   7.213  0.4150 -0.9997 -1.2840
  709MOL0     H95667  -0.628   5.103   6.857  0.1327  0.8912 -0.0601
  709MOL0     H95668  -0.552   5.241   6.921 -3.3487  2.1249  2.4453
  709MOL0     H95669  -0.377   5.126   7.037  1.9701 -1.8673  0.0877
  709MOL0     H95670  -0.374   5.083   6.867  1.3232 -1.3022  1.1915
  709MOL0     H95671  -0.510   4.873   6.947 -0.3268 -2.5858  0.9808
  709MOL0     H95672  -0.497   4.921   7.106  3.8843 -0.1478  1.8320
  709MOL0     H95673  -0.248   4.884   6.930 -1.0290  1.9698  0.4760
  709MOL0     H95674  -0.312   4.766   7.056  3.1142 -0.2471  1.4962
  709MOL0     H95675  -0.060   4.738   7.032 -0.9740  0.0061  2.3853
  709MOL0     H95676   0.248   4.700   7.131  1.1301  0.6541 -0.1687
  709MOL0     H95677   0.120   4.629   7.035 -2.0197  2.2809 -1.8586
  709MOL0     H95678   0.248   4.713   6.953  2.1042 -1.1592  1.8317
  709MOL0     H95679   0.529   4.972   6.874 -0.1674  0.0103  1.1272
  709MOL0     H95680   0.787   5.037   6.875 -3.4143  1.5954 -0.4866
  709MOL0     H95681   1.036   4.939   7.252 -3.2032 -0.5549 -0.1017
  709MOL0     H95682   1.031   4.801   7.146  3.4606 -0.7865  2.6588
  709MOL0     H95683   1.203   4.890   7.008 -2.9591 -0.8546  0.0418
  709MOL0     H95684   1.196   5.052   7.085 -1.5549 -0.0419  0.0416
  709MOL0     H95685   1.295   4.796   7.216 -0.4591 -0.4535 -0.4888
  709MOL0     H95686   1.282   4.944   7.298 -1.8434 -2.9147  0.0629
  709MOL0     H95687   1.478   4.884   7.092  0.0289  0.1360 -0.4628
  709MOL0     H95688   1.419   5.053   7.091 -1.4490 -0.0126 -0.0080
  709MOL0     H95689   1.538   4.930   7.344  1.0900  0.5918 -0.3448
  709MOL0     H95690   1.499   5.097   7.303  0.2924 -0.0816  0.1080
  709MOL0     H95691   1.740   5.049   7.295 -1.9639  1.1801  2.0550
  709MOL0     H95692   1.714   4.916   7.182  0.9975  0.9121  0.4516
  709MOL0     H95693   1.673   5.204   7.126  4.7152 -0.3873  3.5020
  709MOL0     H95694   1.642   5.075   6.998  2.2071 -2.7341 -0.9069
  709MOL0     H95695   1.853   5.173   6.962  0.8010  0.0314 -0.6496
  709MOL0     H95696   1.875   5.006   7.014 -0.8763 -0.1105 -0.6288
  709MOL0     H95697   0.836   4.815   7.228 -1.3867  0.4137  0.5223
  709MOL0     H95698   0.602   4.788   7.260  2.3203 -0.1905  0.1763
  709MOL0     H95699   0.156   5.166   7.131  5.5288 -3.0079  2.8246
  709MOL0     H95700  -0.091   5.160   7.141  0.9959  1.1545  1.0890
  709MOL0     H95701  -0.113   5.070   8.345 -1.9034 -0.7450 -1.2031
  709MOL0     H95702   0.121   5.091   8.346 -1.6139 -1.1855  0.7089
  709MOL0     H95703   0.503   5.513   8.120 -1.0314 -0.1154  2.2437
  709MOL0     H95704   0.729   5.525   8.085  0.5081 -0.0568 -0.5851
  709MOL0     H95705   0.949   5.427   8.260  0.7359  0.0527 -0.3017
  709MOL0     H95706   1.078   5.374   8.167 -0.1515  0.5323 -0.5168
  709MOL0     H95707   1.088   5.603   8.103  0.5232  1.8030 -3.8419
  709MOL0     H95708   0.918   5.632   8.111  1.3384  2.7307 -2.2430
  709MOL0     H95709   0.916   5.505   7.870 -2.2516  0.1932  2.2997
  709MOL0     H95710   1.089   5.480   7.907 -1.3382 -0.9754  2.1316
  709MOL0     H95711   1.096   5.750   7.889  0.8626 -1.9656  2.3829
  709MOL0     H95712   0.944   5.725   7.814  0.3100 -0.0452  0.4287
  709MOL0     H95713   1.191   5.576   7.518  1.6551  1.0172  1.3569
  709MOL0     H95714   0.779   5.100   8.102  2.4188  2.4023 -0.9410
  709MOL0     H95715   0.517   5.084   8.131  0.2896 -0.5136  0.5869
  710MOL0     O95716   9.183   1.045   4.822 -0.5262  0.2932  0.3268
  710MOL0     C95717   9.232   1.029   4.708  0.2102  0.0068  0.1704
  710MOL0     O95718   9.161   1.018   4.594  0.4645 -0.1899  0.4665
  710MOL0     C95719   9.025   1.048   4.602  0.8677 -0.0877 -0.6461
  710MOL0     C95720   8.927   0.952   4.579 -0.3794  0.3447  0.6303
  710MOL0     C95721   8.793   0.983   4.566 -0.3618 -0.4276 -0.5199
  710MOL0     C95722   8.754   1.115   4.602  0.1176  0.4255  0.8380
  710MOL0     O95723   8.621   1.163   4.605  0.0531 -0.2014  0.9699
  710MOL0     C95724   8.513   1.075   4.565 -0.8403  0.0864  0.7891
  710MOL0     C95725   8.379   1.143   4.566 -0.4204  0.8373 -0.1397
  710MOL0     C95726   8.268   1.042   4.576 -0.1618  0.3734  0.3470
  710MOL0     C95727   8.267   0.948   4.459  0.3370 -0.3003 -0.6726
  710MOL0     C95728   8.140   0.861   4.454 -0.0960  0.5600 -0.1969
  710MOL0     C95729   8.135   0.764   4.576 -1.2518  0.0347 -0.4415
  710MOL0     C95730   8.041   0.643   4.550 -0.2961  0.4070  0.2587
  710MOL0     C95731   7.996   0.580   4.680 -0.6910  0.9463  0.7979
  710MOL0     N95732   8.106   0.503   4.741  0.3641 -0.2163  1.0334
  710MOL0     C95733   8.162   0.378   4.704  0.4092  0.2521  0.0290
  710MOL0     C95734   8.260   0.348   4.789  0.4734  1.0001 -0.5370
  710MOL0     C95735   8.345   0.223   4.806  0.8994 -0.3158 -0.5656
  710MOL0     C95736   8.483   0.238   4.732 -0.6439  0.4805 -0.6337
  710MOL0     C95737   8.608   0.254   4.833 -0.0891  0.3159  0.6763
  710MOL0     C95738   8.742   0.278   4.764 -0.2254 -0.9356  0.0273
  710MOL0     O95739   8.845   0.222   4.858  0.0489  0.1635  0.6802
  710MOL0     C95740   8.975   0.203   4.819  0.1993  0.0358 -0.9807
  710MOL0     C95741   9.019   0.237   4.691 -0.2107  0.4138 -0.3062
  710MOL0     C95742   9.156   0.223   4.648  1.1370  0.4532 -0.5470
  710MOL0     C95743   9.183   0.273   4.511  0.4590  0.6714 -0.5137
  710MOL0     C95744   9.247   0.160   4.740  0.0749  0.7407  0.3491
  710MOL0     C95745   9.393   0.133   4.710  2.2135  0.1181 -0.0588
  710MOL0     O95746   9.456   0.062   4.810 -0.4351 -0.0465 -1.3003
  710MOL0     C95747   9.594   0.051   4.790 -0.3890  0.6251  0.0293
  710MOL0     C95748   9.646  -0.079   4.788  0.3280 -0.2443  0.2924
  710MOL0     C95749   9.785  -0.102   4.790 -0.9428 -0.5312  0.1677
  710MOL0     C95750   9.872   0.010   4.810 -0.0565 -0.7708  1.0742
  710MOL0     O95751  10.008  -0.003   4.815 -0.1524  0.2382  0.2797
  710MOL0     C95752  10.053  -0.122   4.883 -0.9247  1.0239  0.1363
  710MOL0     C95753  10.203  -0.138   4.850 -0.2694 -0.1052 -0.7449
  710MOL0     C95754  10.284  -0.133   4.984 -0.3469  0.6277  0.0140
  710MOL0     C95755  10.421  -0.211   4.971  0.1787 -0.0792  0.0301
  710MOL0     C95756  10.508  -0.231   5.095  0.3306 -0.3494  0.1392
  710MOL0     C95757  10.638  -0.305   5.083  0.4860  1.0344  0.8394
  710MOL0     C95758  10.743  -0.279   5.192  0.4361 -0.7071 -0.4981
  710MOL0     C95759  10.861  -0.366   5.177 -0.8313 -0.9633  0.7854
  710MOL0    Cl95760  10.803  -0.542   5.204 -0.1187  0.1742 -0.1595
  710MOL0     C95761   9.822   0.138   4.798 -0.1158  0.6217 -0.3746
  710MOL0     C95762   9.684   0.158   4.790  0.5560 -0.1671  1.0226
  710MOL0     O95763   9.445   0.180   4.608 -0.0920  0.1250 -0.9927
  710MOL0     C95764   9.194   0.137   4.872  0.3499 -0.4980 -0.3041
  710MOL0     C95765   9.062   0.151   4.915 -0.0863  0.2408 -1.0433
  710MOL0     N95766   8.263   0.449   4.875 -0.5627 -0.4045  0.6719
  710MOL0     N95767   8.169   0.538   4.851 -0.9113 -0.2287  0.8440
  710MOL0     C95768   8.849   1.211   4.623 -0.3727 -0.1010 -0.2988
  710MOL0     C95769   8.984   1.181   4.625  0.2649  0.3019 -0.8294
  710MOL0     C95770   9.381   1.024   4.701 -0.2613  1.3615 -0.0697
  710MOL0     C95771   9.444   0.990   4.577  0.3772 -0.5928  1.0072
  710MOL0     C95772   9.581   0.983   4.576 -0.2924  0.4247 -0.3433
  710MOL0     C95773   9.663   1.011   4.695 -0.7080 -0.4127  0.5236
  710MOL0     O95774   9.799   0.988   4.699  0.7365  0.9793 -0.9561
  710MOL0     C95775   9.872   0.918   4.597  0.1556 -0.1384 -0.1601
  710MOL0     C95776  10.020   0.911   4.613  0.5527 -0.3494 -0.9502
  710MOL0     C95777  10.048   0.810   4.728 -0.1769  0.6659  0.3192
  710MOL0     C95778  10.193   0.796   4.752  1.0889  0.3202  0.7720
  710MOL0     C95779  10.238   0.687   4.839  0.3521 -0.4910  0.6060
  710MOL0     C95780  10.279   0.612   4.922  0.8125 -0.5063 -0.2245
  710MOL0     C95781   9.593   1.048   4.809 -0.5869  0.0569 -0.2737
  710MOL0     C95782   9.457   1.051   4.821 -0.0460  0.7350  0.4695
  710MOL0     H95783   8.959   0.849   4.566 -1.7686  0.1871 -2.1104
  710MOL0     H95784   8.714   0.909   4.556  2.3116 -3.5141 -0.5742
  710MOL0     H95785   8.532   1.017   4.474 -1.0877  1.0074  0.1315
  710MOL0     H95786   8.520   1.003   4.647  0.2662  1.2556  1.7667
  710MOL0     H95787   8.372   1.204   4.656  0.0299 -1.1055  1.2914
  710MOL0     H95788   8.365   1.213   4.483 -0.6885  2.5955  1.3357
  710MOL0     H95789   8.282   0.991   4.672 -1.7086 -0.0257  0.3984
  710MOL0     H95790   8.174   1.097   4.590  0.6791  1.7399  0.8488
  710MOL0     H95791   8.269   1.004   4.365 -1.1132 -3.0218 -2.4830
  710MOL0     H95792   8.359   0.888   4.464  0.2041 -0.6617 -1.9862
  710MOL0     H95793   8.049   0.922   4.455 -0.6642 -0.2598 -0.9830
  710MOL0     H95794   8.141   0.801   4.363  0.8609  0.3503 -0.0623
  710MOL0     H95795   8.232   0.725   4.607 -0.8853  1.7075  0.6380
  710MOL0     H95796   8.095   0.819   4.662  1.3800 -1.1171  1.6348
  710MOL0     H95797   7.950   0.676   4.499 -1.0085 -1.1090  0.4900
  710MOL0     H95798   8.097   0.571   4.490  1.5424  0.7959  1.4456
  710MOL0     H95799   7.917   0.505   4.668 -0.5268  0.9185 -0.1924
  710MOL0     H95800   7.969   0.656   4.755  0.7891  1.9097  0.3945
  710MOL0     H95801   8.121   0.319   4.623  1.7766  0.4708 -0.8674
  710MOL0     H95802   8.371   0.212   4.912  0.3396  3.0058  0.0285
  710MOL0     H95803   8.296   0.131   4.774  1.2543 -0.6735 -0.0804
  710MOL0     H95804   8.477   0.323   4.663  0.6978  1.6580  0.5943
  710MOL0     H95805   8.487   0.146   4.675  1.1139  0.0688  0.0794
  710MOL0     H95806   8.621   0.182   4.914  1.6075  0.4483  0.5601
  710MOL0     H95807   8.583   0.349   4.881  1.3522  0.6033  0.9031
  710MOL0     H95808   8.759   0.385   4.744 -0.6357 -0.9085 -0.1762
  710MOL0     H95809   8.741   0.223   4.670  0.4289 -0.2606 -0.3884
  710MOL0     H95810   8.950   0.282   4.620 -2.5559  1.5219  2.4679
  710MOL0     H95811   9.085   0.291   4.466 -0.0536 -3.7019 -1.6126
  710MOL0     H95812   9.244   0.363   4.519 -2.1741  2.4921  0.1099
  710MOL0     H95813   9.239   0.199   4.452  2.1246 -0.0901  1.8710
  710MOL0     H95814   9.575  -0.161   4.793 -0.0741  0.0591 -0.3704
  710MOL0     H95815   9.818  -0.205   4.793  1.4525  0.0745 -1.8968
  710MOL0     H95816  10.034  -0.125   4.990  1.8243 -0.5270  0.6795
  710MOL0     H95817  10.007  -0.207   4.830  2.0452 -1.2533  0.9065
  710MOL0     H95818  10.218  -0.238   4.810 -0.8862 -1.4629  2.1211
  710MOL0     H95819  10.254  -0.068   4.783  0.9779  1.6136  1.8048
  710MOL0     H95820  10.234  -0.167   5.075  1.0599  0.7762  0.8644
  710MOL0     H95821  10.320  -0.031   4.999  1.5882 -0.1968  1.3551
  710MOL0     H95822  10.401  -0.310   4.929  0.7859  0.6678 -2.1610
  710MOL0     H95823  10.496  -0.180   4.897  0.8881  0.9462  1.1451
  710MOL0     H95824  10.445  -0.281   5.169  1.1585 -0.4986  0.7569
  710MOL0     H95825  10.534  -0.132   5.133  1.0753 -0.3126 -0.4425
  710MOL0     H95826  10.627  -0.412   5.100 -1.1417  1.2475  1.3388
  710MOL0     H95827  10.687  -0.287   4.987  1.0770 -0.3728  0.8483
  710MOL0     H95828  10.694  -0.292   5.289 -2.7786  3.1286 -1.3180
  710MOL0     H95829  10.767  -0.173   5.182 -0.1863 -0.5347 -0.2348
  710MOL0     H95830  10.944  -0.334   5.240 -0.9040  0.6293  0.1214
  710MOL0     H95831  10.900  -0.356   5.076  3.0453 -0.4372  2.1559
  710MOL0     H95832   9.880   0.229   4.801 -0.9982  1.1665  1.0618
  710MOL0     H95833   9.646   0.259   4.783  1.1042  0.0153  0.5986
  710MOL0     H95834   9.267   0.101   4.945  0.9867  0.0720 -0.6563
  710MOL0     H95835   9.022   0.126   5.013  0.4209  0.1982 -0.8403
  710MOL0     H95836   8.832   1.317   4.641 -1.0663 -0.0511 -1.1819
  710MOL0     H95837   9.063   1.252   4.646 -0.2769  2.6145 -5.3373
  710MOL0     H95838   9.384   0.971   4.488  0.0780  0.7952  0.8917
  710MOL0     H95839   9.630   0.957   4.482  1.3829 -1.6311  1.0013
  710MOL0     H95840   9.825   0.819   4.597  1.6756 -0.8913  0.3410
  710MOL0     H95841   9.853   0.956   4.496  1.9184 -1.3291 -0.9834
  710MOL0     H95842  10.065   1.007   4.638  2.5231 -1.7217  1.2664
  710MOL0     H95843  10.070   0.870   4.525  3.1560 -0.7884  0.6201
  710MOL0     H95844  10.004   0.714   4.696 -0.8197  0.7281  0.9856
  710MOL0     H95845   9.993   0.839   4.817 -0.9367  2.0988 -0.5886
  710MOL0     H95846  10.238   0.884   4.797  0.7282 -0.0937  1.9872
  710MOL0     H95847  10.243   0.784   4.655  1.8596  0.0184  1.2054
  710MOL0     H95848  10.314   0.571   5.015  0.1606  2.6952  1.5941
  710MOL0     H95849   9.650   1.074   4.898 -4.0320  0.4282  2.0441
  710MOL0     H95850   9.412   1.074   4.917 -1.7770  1.0954 -0.3766
  711MOL0     O95851   3.112   0.976   5.334 -0.2164 -0.0214  0.4895
  711MOL0     C95852   3.128   1.029   5.216  0.3082 -1.0644  0.2751
  711MOL0     O95853   3.241   1.098   5.175 -0.4042 -0.1740  0.8161
  711MOL0     C95854   3.363   1.070   5.219  0.5251 -0.4849 -0.3687
  711MOL0     C95855   3.460   1.164   5.171  0.1656  0.3487  1.0394
  711MOL0     C95856   3.591   1.171   5.202  0.6702 -0.5780 -0.8820
  711MOL0     C95857   3.637   1.065   5.283  0.1478  0.4847 -0.0421
  711MOL0     O95858   3.773   1.045   5.309 -0.1835  0.2587  0.5660
  711MOL0     C95859   3.866   1.156   5.295 -0.0542 -0.8012 -0.4418
  711MOL0     C95860   3.845   1.271   5.397 -0.1340  0.3429 -0.0642
  711MOL0     C95861   3.975   1.348   5.395 -0.8108  0.4656 -0.7448
  711MOL0     C95862   4.018   1.409   5.267 -0.8290 -0.6594  0.0414
  711MOL0     C95863   4.119   1.514   5.304  0.4943 -0.2803 -0.0914
  711MOL0     C95864   4.193   1.558   5.180 -0.4779  0.5145  0.5141
  711MOL0     C95865   4.301   1.664   5.214  0.0835  0.5927  0.2426
  711MOL0     C95866   4.405   1.630   5.327 -0.0037 -0.1653  0.4379
  711MOL0     N95867   4.484   1.509   5.296 -0.7148 -0.5471  0.8536
  711MOL0     C95868   4.448   1.384   5.335 -0.8803 -0.2538  0.4049
  711MOL0     C95869   4.535   1.299   5.273 -0.1746 -0.5850 -1.1691
  711MOL0     C95870   4.545   1.154   5.295 -0.2352  0.6294  0.4604
  711MOL0     C95871   4.421   1.085   5.231  0.4511 -0.7984 -0.2297
  711MOL0     C95872   4.406   1.103   5.085  0.5942 -0.2351 -0.4880
  711MOL0     C95873   4.330   0.989   5.015  0.1193 -0.2843 -0.8089
  711MOL0     O95874   4.198   0.977   5.064  0.7124 -0.3226  0.6721
  711MOL0     C95875   4.086   1.035   5.005 -0.1364  0.2187 -0.1148
  711MOL0     C95876   4.089   1.161   4.932  0.5427  1.2161 -0.0271
  711MOL0     C95877   3.977   1.199   4.852  0.1396  1.2700  0.0521
  711MOL0     C95878   4.000   1.317   4.766 -0.1048  0.8990 -0.3562
  711MOL0     C95879   3.849   1.138   4.868 -0.7653  0.3478 -0.5396
  711MOL0     C95880   3.726   1.181   4.799 -1.4537  0.4529 -0.0842
  711MOL0     O95881   3.628   1.086   4.799 -0.3160 -0.2619 -0.5066
  711MOL0     C95882   3.499   1.131   4.778 -0.4190  0.1223  0.2240
  711MOL0     C95883   3.415   1.032   4.722  0.2563 -0.0788  0.5634
  711MOL0     C95884   3.290   1.057   4.684  0.5164  0.2918  0.5815
  711MOL0     C95885   3.233   1.189   4.700 -0.1516 -0.2596  1.1668
  711MOL0     O95886   3.098   1.221   4.661  0.0879  0.3820 -0.0788
  711MOL0     C95887   3.030   1.131   4.561 -0.0324 -0.3641  0.6595
  711MOL0     C95888   2.911   1.211   4.517  0.0332 -0.1938  0.3519
  711MOL0     C95889   2.815   1.133   4.433  0.0895 -0.2354  0.1086
  711MOL0     C95890   2.701   1.220   4.391 -0.3419  0.0180 -0.2467
  711MOL0     C95891   2.591   1.127   4.343 -0.0829 -0.3985  0.6824
  711MOL0     C95892   2.475   1.198   4.292  0.2081  0.2700  0.3298
  711MOL0     C95893   2.363   1.109   4.240 -0.4096  0.3231 -0.2441
  711MOL0     C95894   2.258   1.165   4.147 -0.1562  0.1350  0.0796
  711MOL0    Cl95895   2.150   1.264   4.250  0.3007 -0.1997  0.1273
  711MOL0     C95896   3.316   1.290   4.756  0.3891  0.6986 -0.4294
  711MOL0     C95897   3.446   1.261   4.796  0.1561 -0.4600 -0.6402
  711MOL0     O95898   3.725   1.290   4.743  0.5956 -0.2405 -0.3812
  711MOL0     C95899   3.849   1.029   4.960 -0.1032 -0.3451  0.0548
  711MOL0     C95900   3.967   0.975   5.023  0.1865 -0.2869  0.4246
  711MOL0     N95901   4.623   1.380   5.201  0.4119  0.5353  0.6422
  711MOL0     N95902   4.575   1.500   5.199  0.2339  0.7388  0.1456
  711MOL0     C95903   3.550   0.974   5.336  0.4983  0.3422 -0.0041
  711MOL0     C95904   3.413   0.973   5.310  0.1198 -0.3370 -0.0374
  711MOL0     C95905   3.004   1.035   5.135  1.0365  1.0556  0.1747
  711MOL0     C95906   3.001   1.100   5.010  0.5946 -0.5756 -0.0562
  711MOL0     C95907   2.884   1.093   4.928  0.3097 -0.6334  1.3881
  711MOL0     C95908   2.766   1.033   4.979 -0.2646 -0.3583 -0.0975
  711MOL0     O95909   2.651   1.048   4.901  0.3868  0.4856 -0.3781
  711MOL0     C95910   2.549   0.956   4.929 -0.2392 -0.3639 -0.1739
  711MOL0     C95911   2.458   0.947   4.808 -0.7594  0.0476 -0.5379
  711MOL0     C95912   2.519   0.864   4.695  0.4061  0.2332 -0.7620
  711MOL0     C95913   2.411   0.828   4.590  0.7491  0.0946  1.2623
  711MOL0     C95914   2.340   0.714   4.633  0.2020 -1.1156 -0.6695
  711MOL0     C95915   2.258   0.629   4.646  0.0220 -0.1245  0.6423
  711MOL0     C95916   2.777   0.972   5.109 -0.1091 -0.5078 -0.4287
  711MOL0     C95917   2.889   0.975   5.186 -0.3911  0.2859 -0.3391
  711MOL0     H95918   3.428   1.238   5.098  2.8789 -0.2308 -0.8889
  711MOL0     H95919   3.655   1.245   5.156  2.9309 -1.2616  0.9595
  711MOL0     H95920   3.970   1.127   5.315 -0.1214 -0.4563  0.4356
  711MOL0     H95921   3.866   1.203   5.196 -1.1386  0.2792  0.0505
  711MOL0     H95922   3.763   1.336   5.363 -0.3154 -0.9710 -2.3512
  711MOL0     H95923   3.819   1.223   5.492  1.2284 -0.1964  0.0522
  711MOL0     H95924   3.957   1.429   5.467  3.4875 -0.2872  1.4907
  711MOL0     H95925   4.051   1.281   5.435  2.7360  2.3551 -3.7466
  711MOL0     H95926   4.065   1.331   5.206  1.0383 -1.2884  2.1326
  711MOL0     H95927   3.920   1.442   5.231 -1.6490 -0.8261  1.9921
  711MOL0     H95928   4.074   1.607   5.341 -1.4901 -0.5941 -1.6059
  711MOL0     H95929   4.191   1.468   5.373  2.2222  1.0173 -0.9287
  711MOL0     H95930   4.232   1.473   5.123 -5.3066 -1.3228 -0.5831
  711MOL0     H95931   4.129   1.607   5.106  0.9098  1.5467 -0.0240
  711MOL0     H95932   4.358   1.672   5.120 -1.6736 -0.0876 -0.9444
  711MOL0     H95933   4.254   1.757   5.246  1.5833  0.4048  3.2748
  711MOL0     H95934   4.351   1.595   5.415  1.1241 -3.1983  0.0500
  711MOL0     H95935   4.465   1.718   5.354 -2.1190  0.9696  1.6725
  711MOL0     H95936   4.391   1.355   5.423 -0.5391 -1.5527  0.2192
  711MOL0     H95937   4.637   1.128   5.243 -0.0374  3.8561 -1.0495
  711MOL0     H95938   4.556   1.132   5.402 -0.8693  2.5111  0.9472
  711MOL0     H95939   4.331   1.128   5.276 -0.9879  1.3798 -4.6027
  711MOL0     H95940   4.425   0.981   5.262 -2.3884 -0.0893  3.2339
  711MOL0     H95941   4.501   1.117   5.033  0.9936 -1.6075 -0.1892
  711MOL0     H95942   4.353   1.198   5.083 -0.8325 -0.9350  1.4038
  711MOL0     H95943   4.385   0.899   5.043 -2.8999 -0.9621  4.1060
  711MOL0     H95944   4.334   0.996   4.906 -0.5166 -0.4779 -0.8512
  711MOL0     H95945   4.181   1.219   4.929  0.3445  1.4983 -0.8939
  711MOL0     H95946   3.942   1.403   4.799  1.7634  1.5235  1.5078
  711MOL0     H95947   4.106   1.342   4.766  0.2805 -0.5964 -0.0587
  711MOL0     H95948   3.964   1.296   4.665 -3.6512 -0.8015  1.0833
  711MOL0     H95949   3.449   0.932   4.697 -0.0835 -0.4306  1.4640
  711MOL0     H95950   3.223   0.978   4.650  2.3076 -0.8323 -0.5151
  711MOL0     H95951   3.100   1.121   4.477 -1.8482 -0.1058 -0.9676
  711MOL0     H95952   2.991   1.033   4.591 -1.2809 -0.5114 -1.2336
  711MOL0     H95953   2.863   1.239   4.611 -0.9254 -1.6531  0.3163
  711MOL0     H95954   2.951   1.298   4.463  0.7235 -1.8163 -1.8951
  711MOL0     H95955   2.774   1.046   4.484  1.9566 -1.4023 -0.2981
  711MOL0     H95956   2.866   1.102   4.342 -0.7698 -0.1137 -0.4260
  711MOL0     H95957   2.671   1.294   4.465  1.1843 -0.2528  0.7084
  711MOL0     H95958   2.737   1.281   4.308  3.8795  0.8772  1.9528
  711MOL0     H95959   2.558   1.060   4.423  0.3640 -1.2099  0.1977
  711MOL0     H95960   2.627   1.055   4.269 -0.9816  0.8938 -1.0625
  711MOL0     H95961   2.430   1.268   4.363  1.7224  0.7929  0.8082
  711MOL0     H95962   2.509   1.250   4.202 -0.0494  2.9907  1.6729
  711MOL0     H95963   2.312   1.066   4.327  2.3670 -1.8456  0.5002
  711MOL0     H95964   2.406   1.024   4.185 -1.1703 -1.0990  1.2454
  711MOL0     H95965   2.198   1.082   4.107 -2.7774  1.2246  1.5135
  711MOL0     H95966   2.303   1.222   4.065  0.3932  2.2908  1.7927
  711MOL0     H95967   3.273   1.389   4.760  1.9004  1.3465  0.5486
  711MOL0     H95968   3.505   1.333   4.851  1.0236 -0.9369 -0.9277
  711MOL0     H95969   3.755   0.989   4.996  0.3155  2.3701  5.0654
  711MOL0     H95970   3.955   0.900   5.100 -0.9567 -0.6882 -0.1250
  711MOL0     H95971   3.589   0.906   5.411 -1.1059  0.7004  1.2157
  711MOL0     H95972   3.354   0.895   5.358  0.1016 -0.5523 -0.4107
  711MOL0     H95973   3.087   1.149   4.965  0.2265  1.5679  1.4217
  711MOL0     H95974   2.893   1.131   4.827  0.1168 -0.7862  1.3137
  711MOL0     H95975   2.595   0.860   4.953  0.6493  0.1582  0.2677
  711MOL0     H95976   2.489   0.997   5.011  0.2824 -1.9605  1.0644
  711MOL0     H95977   2.426   1.046   4.772  0.1159 -0.0270 -1.5661
  711MOL0     H95978   2.368   0.902   4.851  0.1210  0.7713  2.2659
  711MOL0     H95979   2.572   0.773   4.726 -0.5545 -0.1212 -0.0871
  711MOL0     H95980   2.589   0.929   4.643 -0.8699  0.1157 -2.7394
  711MOL0     H95981   2.469   0.801   4.501  0.1728  2.6167  0.0157
  711MOL0     H95982   2.342   0.906   4.554  0.0513 -1.5108 -1.1289
  711MOL0     H95983   2.185   0.551   4.651  1.4370 -1.6498 -1.0091
  711MOL0     H95984   2.694   0.924   5.160  0.5069 -0.8101  0.3077
  711MOL0     H95985   2.876   0.945   5.290  0.7889 -0.8525 -0.4949
  712MOL0     O95986   8.177   9.330   3.056 -0.3795  0.4654  0.2888
  712MOL0     C95987   8.240   9.400   2.978  0.4422 -0.4974 -0.3261
  712MOL0     O95988   8.180   9.499   2.902  0.5938 -0.1929  0.2425
  712MOL0     C95989   8.050   9.525   2.899  0.8740  0.4172  0.1595
  712MOL0     C95990   7.957   9.523   3.005  0.4160 -0.1645  0.4600
  712MOL0     C95991   7.822   9.534   2.981  0.0073 -0.8244  0.1922
  712MOL0     C95992   7.776   9.565   2.853  0.1787  0.5269  0.3312
  712MOL0     O95993   7.641   9.575   2.835  0.0034  0.3055 -0.7269
  712MOL0     C95994   7.551   9.469   2.898  0.3370 -0.2232  0.4859
  712MOL0     C95995   7.567   9.333   2.825 -0.3837  1.1775  0.2557
  712MOL0     C95996   7.472   9.230   2.891  0.9418  0.3595  0.4600
  712MOL0     C95997   7.462   9.100   2.802 -0.1067  0.2973 -0.8502
  712MOL0     C95998   7.324   9.035   2.837  0.5042 -1.2142  1.6431
  712MOL0     C95999   7.281   8.932   2.736 -0.0792  0.6236  0.4285
  712MOL0     C96000   7.169   8.843   2.792 -0.8465  0.2117 -0.2290
  712MOL0     C96001   7.115   8.747   2.679  0.0046  0.0259 -0.2625
  712MOL0     N96002   6.983   8.772   2.619  0.3381 -0.1261  0.1235
  712MOL0     C96003   6.906   8.672   2.564  0.8536 -0.2036  0.0256
  712MOL0     C96004   6.777   8.715   2.571  1.1829  0.2516 -0.0098
  712MOL0     C96005   6.639   8.641   2.545 -0.3240 -1.1429 -0.4972
  712MOL0     C96006   6.548   8.742   2.465  0.3597  0.2227 -0.0227
  712MOL0     C96007   6.412   8.674   2.427  0.0294 -0.3212 -0.1992
  712MOL0     C96008   6.426   8.568   2.319  0.2720  0.2760 -0.4696
  712MOL0     O96009   6.292   8.541   2.277  0.6399 -0.7375 -0.3640
  712MOL0     C96010   6.262   8.461   2.169  0.2522 -0.6263  0.4012
  712MOL0     C96011   6.130   8.465   2.124  0.2286 -1.0202 -0.2900
  712MOL0     C96012   6.080   8.389   2.013  0.2405 -0.0829  0.5622
  712MOL0     C96013   5.926   8.393   1.986  0.0985  0.1313 -0.9165
  712MOL0     C96014   6.169   8.301   1.945 -0.4445 -1.3247  0.1681
  712MOL0     C96015   6.114   8.191   1.860 -0.5711 -0.3065  0.0938
  712MOL0     O96016   5.983   8.189   1.811  0.4217  1.1603 -0.1193
  712MOL0     C96017   5.936   8.092   1.717 -1.1823  0.1711 -0.4583
  712MOL0     C96018   5.802   8.052   1.721  0.3603  0.3675 -0.4120
  712MOL0     C96019   5.759   7.941   1.649  0.5829  1.2835  1.0970
  712MOL0     C96020   5.831   7.879   1.548 -0.6228 -0.7868 -0.4101
  712MOL0     O96021   5.786   7.797   1.455 -1.1641  0.9214 -0.1105
  712MOL0     C96022   5.713   7.686   1.506 -0.5933 -0.0256  0.5578
  712MOL0     C96023   5.782   7.549   1.461  0.8568  0.6109 -0.7888
  712MOL0     C96024   5.678   7.440   1.466 -0.0838  0.5184  0.4909
  712MOL0     C96025   5.728   7.310   1.401 -0.6282  0.1369  0.2258
  712MOL0     C96026   5.643   7.188   1.410 -0.1265 -0.2504 -0.0282
  712MOL0     C96027   5.517   7.204   1.336  0.6153 -0.6584  0.1416
  712MOL0     C96028   5.428   7.080   1.308 -0.4271  0.9645 -0.1709
  712MOL0     C96029   5.315   7.069   1.405 -0.0254 -0.5707 -0.1074
  712MOL0    Cl96030   5.205   7.223   1.407  0.1577 -0.1540  0.2894
  712MOL0     C96031   5.966   7.930   1.524 -0.2712  0.5968 -0.2888
  712MOL0     C96032   6.015   8.021   1.614 -0.8357  0.1479 -0.0722
  712MOL0     O96033   6.185   8.095   1.844  0.5892 -0.2347 -0.3710
  712MOL0     C96034   6.301   8.310   1.983 -0.9395 -0.8455  0.3605
  712MOL0     C96035   6.352   8.381   2.094  0.2210  0.2763  0.1918
  712MOL0     N96036   6.784   8.841   2.623  0.5302  0.3530 -0.1140
  712MOL0     N96037   6.907   8.878   2.647  0.0068  0.5870 -0.0681
  712MOL0     C96038   7.858   9.574   2.743 -0.2297 -0.0840 -0.4578
  712MOL0     C96039   8.001   9.554   2.773  0.1940 -0.3209  0.0122
  712MOL0     C96040   8.384   9.382   2.972  0.1063  0.1910 -0.0915
  712MOL0     C96041   8.451   9.306   3.068  0.1068 -0.8744  0.3900
  712MOL0     C96042   8.590   9.277   3.060  0.8788 -0.3076 -0.8792
  712MOL0     C96043   8.658   9.316   2.946 -0.3916 -0.1849 -0.6967
  712MOL0     O96044   8.791   9.277   2.923 -0.3314 -0.1593  0.3440
  712MOL0     C96045   8.886   9.267   3.034  0.0569  0.2895  0.5743
  712MOL0     C96046   9.016   9.209   2.976  0.4447  0.2724 -0.4498
  712MOL0     C96047   9.115   9.183   3.092  0.1329 -0.1945  0.1800
  712MOL0     C96048   9.225   9.090   3.042 -0.7353  0.9961  1.3368
  712MOL0     C96049   9.290   9.131   2.919  0.6834 -0.0106  0.2832
  712MOL0     C96050   9.347   9.165   2.818 -0.0091 -0.1238 -0.6598
  712MOL0     C96051   8.589   9.387   2.850  0.8886  0.0464  0.9079
  712MOL0     C96052   8.460   9.418   2.860  0.4739  0.2834 -0.6574
  712MOL0     H96053   7.987   9.510   3.108 -2.1939  2.8844  1.7871
  712MOL0     H96054   7.749   9.540   3.061  0.9594  3.2680  0.9957
  712MOL0     H96055   7.563   9.454   3.006  3.4030 -0.2386  0.2262
  712MOL0     H96056   7.448   9.504   2.886  0.2564 -0.6804 -0.2000
  712MOL0     H96057   7.546   9.352   2.719 -0.7391 -3.3309 -0.7029
  712MOL0     H96058   7.671   9.303   2.838 -0.7210  0.7939  2.4592
  712MOL0     H96059   7.509   9.204   2.990  1.1759 -1.4636 -0.0528
  712MOL0     H96060   7.375   9.275   2.915  0.0414 -2.1133  1.9608
  712MOL0     H96061   7.450   9.137   2.700 -0.2830  0.2474 -0.8485
  712MOL0     H96062   7.544   9.033   2.828 -1.2756 -0.5243  0.9491
  712MOL0     H96063   7.330   8.998   2.939  2.2061  1.6586  2.6938
  712MOL0     H96064   7.250   9.115   2.830  1.6358 -0.1952  0.7746
  712MOL0     H96065   7.238   8.966   2.641 -0.5634  2.0577  1.1367
  712MOL0     H96066   7.363   8.863   2.715  0.7101  2.2241 -2.2051
  712MOL0     H96067   7.220   8.779   2.865 -0.5037  1.8117  0.9815
  712MOL0     H96068   7.093   8.899   2.848 -1.5624 -0.9146 -0.0336
  712MOL0     H96069   7.106   8.651   2.731  1.4579 -0.2700 -0.5242
  712MOL0     H96070   7.193   8.736   2.603 -1.4909  1.0804 -2.0427
  712MOL0     H96071   6.938   8.569   2.547 -1.0270 -1.7117  4.3131
  712MOL0     H96072   6.651   8.549   2.487 -0.0679 -1.4799  0.0909
  712MOL0     H96073   6.595   8.626   2.644  0.5114  0.0473  0.0702
  712MOL0     H96074   6.605   8.780   2.379 -1.3606  1.5285 -0.6411
  712MOL0     H96075   6.535   8.828   2.531  1.1744 -0.5153  1.1474
  712MOL0     H96076   6.350   8.759   2.397  1.9475  0.9259 -0.8396
  712MOL0     H96077   6.362   8.629   2.513 -0.2204 -1.1420 -0.7552
  712MOL0     H96078   6.475   8.475   2.350  1.6943  0.6759 -1.4124
  712MOL0     H96079   6.479   8.602   2.230 -1.6081 -4.2084 -3.6809
  712MOL0     H96080   6.065   8.539   2.168  1.2209  0.9173 -1.9119
  712MOL0     H96081   5.898   8.440   1.892 -1.8586  1.9955  0.5153
  712MOL0     H96082   5.874   8.298   2.003  0.3127  0.5284  2.5516
  712MOL0     H96083   5.885   8.457   2.064 -2.5214 -2.2019 -0.1903
  712MOL0     H96084   5.739   8.104   1.793  3.0390  0.6115  1.8918
  712MOL0     H96085   5.655   7.917   1.667 -0.1136  3.4404  0.3086
  712MOL0     H96086   5.691   7.690   1.614  0.6920 -1.5443  0.9126
  712MOL0     H96087   5.617   7.701   1.456 -0.3802  0.3016  0.2474
  712MOL0     H96088   5.840   7.559   1.369  2.4273  0.1377  0.1109
  712MOL0     H96089   5.850   7.529   1.545  2.2859  0.5701 -1.9174
  712MOL0     H96090   5.581   7.472   1.426  0.1485 -3.4151 -4.1577
  712MOL0     H96091   5.659   7.403   1.567  0.7861 -2.7757 -0.4450
  712MOL0     H96092   5.732   7.321   1.292 -2.5324 -0.3237  0.0670
  712MOL0     H96093   5.821   7.291   1.455 -1.6197  1.2395  2.4474
  712MOL0     H96094   5.615   7.164   1.513  2.8779 -2.0481  0.5063
  712MOL0     H96095   5.697   7.099   1.378  0.1164  0.4733 -1.7592
  712MOL0     H96096   5.464   7.294   1.368  3.1055  1.4995 -1.3685
  712MOL0     H96097   5.549   7.239   1.237 -0.2556  2.3304  0.8337
  712MOL0     H96098   5.492   6.992   1.318 -0.2553  1.2436  1.4479
  712MOL0     H96099   5.388   7.089   1.206 -0.8940 -1.5182 -0.2664
  712MOL0     H96100   5.352   7.051   1.506 -1.1627 -0.9230  0.2580
  712MOL0     H96101   5.250   6.987   1.374 -1.4925  1.0119 -1.4111
  712MOL0     H96102   6.025   7.886   1.443  0.2609 -0.8919  0.8464
  712MOL0     H96103   6.117   8.060   1.612 -1.2794  1.4887  1.1934
  712MOL0     H96104   6.366   8.242   1.929 -0.4307 -1.6299  1.8887
  712MOL0     H96105   6.458   8.377   2.115  0.0947 -3.9921  1.0203
  712MOL0     H96106   7.812   9.613   2.652  0.7828  1.6388 -0.2774
  712MOL0     H96107   8.071   9.570   2.692  3.0780  0.8931  2.5758
  712MOL0     H96108   8.403   9.270   3.158  0.4535  0.6200  1.2076
  712MOL0     H96109   8.637   9.207   3.128 -1.6529  1.4732  3.0566
  712MOL0     H96110   8.908   9.366   3.076  1.7299 -0.2028  0.9137
  712MOL0     H96111   8.847   9.210   3.119 -0.7860  0.6413  0.4417
  712MOL0     H96112   9.061   9.283   2.909 -0.2676  1.1012 -0.0299
  712MOL0     H96113   8.989   9.115   2.928  1.0437  0.2549 -0.7676
  712MOL0     H96114   9.064   9.147   3.182 -1.1140  1.2571  0.1021
  712MOL0     H96115   9.154   9.281   3.120 -3.0689  0.9492  1.0893
  712MOL0     H96116   9.187   8.988   3.037  0.3579  0.3747  4.0953
  712MOL0     H96117   9.305   9.074   3.115  0.6533 -0.9653 -0.4824
  712MOL0     H96118   9.386   9.201   2.725  0.5411 -2.8972 -1.6058
  712MOL0     H96119   8.650   9.414   2.765  3.3308  2.6930  3.2678
  712MOL0     H96120   8.426   9.478   2.777  0.6168  1.1091 -0.1378
  713MOL0     O96121   4.157   1.232   1.444 -0.1592 -0.3319  0.7603
  713MOL0     C96122   4.161   1.199   1.559 -0.0340 -0.4984  0.0655
  713MOL0     O96123   4.050   1.162   1.630 -0.1622  0.3525  0.3553
  713MOL0     C96124   3.921   1.175   1.573  0.2440 -0.6604  0.6339
  713MOL0     C96125   3.824   1.079   1.618 -0.0296  1.0451  0.4598
  713MOL0     C96126   3.699   1.076   1.553 -0.9824 -0.0910 -0.2755
  713MOL0     C96127   3.663   1.166   1.457  0.3623 -0.0681  0.0749
  713MOL0     O96128   3.541   1.167   1.409  0.2800  0.3007 -0.1079
  713MOL0     C96129   3.431   1.175   1.507  0.3499  0.0636 -0.3312
  713MOL0     C96130   3.299   1.181   1.430 -0.0720 -0.3788 -0.1470
  713MOL0     C96131   3.194   1.097   1.504 -0.4067 -0.1142 -0.4011
  713MOL0     C96132   3.073   1.061   1.417  0.4542  0.5729 -0.4566
  713MOL0     C96133   2.990   1.186   1.392  0.5956  0.2650  0.5643
  713MOL0     C96134   2.862   1.137   1.316  0.1869  0.5166 -0.1479
  713MOL0     C96135   2.778   1.256   1.282  0.3364 -0.3515 -0.2367
  713MOL0     C96136   2.633   1.218   1.233 -0.0993  0.9568  0.5883
  713MOL0     N96137   2.568   1.319   1.152  0.9750  0.0505  0.0387
  713MOL0     C96138   2.520   1.307   1.024 -0.9002 -0.0707 -0.3817
  713MOL0     C96139   2.464   1.422   1.004  0.9812 -0.0002 -0.3537
  713MOL0     C96140   2.389   1.477   0.887 -0.5502  0.0611 -0.6092
  713MOL0     C96141   2.336   1.620   0.903 -0.4833 -0.2536 -0.2958
  713MOL0     C96142   2.234   1.647   0.791  0.0159  0.3515 -0.1370
  713MOL0     C96143   2.197   1.784   0.799  1.1143 -0.5164 -0.6776
  713MOL0     O96144   2.145   1.820   0.931 -0.3789 -0.2590  0.8903
  713MOL0     C96145   2.008   1.807   0.942 -0.3890 -0.2693  0.4269
  713MOL0     C96146   1.915   1.760   0.849  0.5174 -0.3343  0.5534
  713MOL0     C96147   1.784   1.738   0.890  1.0854  0.6457  1.2137
  713MOL0     C96148   1.702   1.650   0.792  1.1405  0.0577  0.3170
  713MOL0     C96149   1.739   1.785   1.015 -0.5363  0.4164 -0.4539
  713MOL0     C96150   1.601   1.737   1.061 -1.3105  0.6269  0.2071
  713MOL0     O96151   1.591   1.707   1.192 -0.1264  0.0960  0.3347
  713MOL0     C96152   1.471   1.693   1.250 -0.1335 -0.5296  0.7386
  713MOL0     C96153   1.409   1.568   1.262  0.0714 -0.4591  0.6091
  713MOL0     C96154   1.278   1.572   1.305  0.5784  0.3860  1.1296
  713MOL0     C96155   1.214   1.683   1.362 -0.0967  0.5146 -0.1404
  713MOL0     O96156   1.089   1.662   1.408 -0.3620  0.0354  0.2002
  713MOL0     C96157   1.082   1.688   1.547 -0.4126 -0.0915  0.3918
  713MOL0     C96158   0.982   1.595   1.617  0.9851  0.3194 -0.3071
  713MOL0     C96159   1.007   1.446   1.578 -0.3650  0.6443 -0.4484
  713MOL0     C96160   0.897   1.354   1.647  0.2099 -0.6805 -0.9245
  713MOL0     C96161   0.760   1.351   1.573  0.2323  0.1514 -0.9729
  713MOL0     C96162   0.650   1.283   1.652 -0.7967 -0.1372  0.2772
  713MOL0     C96163   0.644   1.137   1.624 -1.2471 -0.3232  0.2904
  713MOL0     C96164   0.591   1.058   1.744  0.6641 -0.6112  0.3408
  713MOL0    Cl96165   0.410   1.068   1.755 -0.1936 -0.2012 -0.2535
  713MOL0     C96166   1.288   1.799   1.364  0.3018 -0.0665 -0.0299
  713MOL0     C96167   1.411   1.809   1.302  0.4718 -0.8695 -0.8597
  713MOL0     O96168   1.501   1.749   0.990  0.2253  0.4163 -0.4678
  713MOL0     C96169   1.835   1.840   1.104  0.2312 -0.0732 -0.0499
  713MOL0     C96170   1.965   1.849   1.074 -0.5598  0.1503  0.2926
  713MOL0     N96171   2.489   1.494   1.118 -0.2503 -0.4163  0.2094
  713MOL0     N96172   2.536   1.436   1.215 -0.0045  0.6396  0.0683
  713MOL0     C96173   3.754   1.262   1.426  0.1283 -0.6199 -0.5923
  713MOL0     C96174   3.873   1.277   1.493  0.0613 -0.8908 -0.4019
  713MOL0     C96175   4.289   1.191   1.631 -0.0320  0.1989 -0.9553
  713MOL0     C96176   4.409   1.232   1.574  0.5317  0.6998  0.3681
  713MOL0     C96177   4.528   1.230   1.639  0.1272 -0.2365 -0.2217
  713MOL0     C96178   4.544   1.173   1.765 -0.5081 -0.3283  0.2500
  713MOL0     O96179   4.670   1.162   1.817 -0.1643  0.1322 -0.3611
  713MOL0     C96180   4.682   1.065   1.927  0.0392  0.7053 -0.0672
  713MOL0     C96181   4.831   1.054   1.944 -1.5095  0.0972 -0.6481
  713MOL0     C96182   4.873   1.175   2.019 -0.2962  1.5894  0.1701
  713MOL0     C96183   5.019   1.156   2.071  0.6581 -0.0497  0.3669
  713MOL0     C96184   5.121   1.178   1.972 -1.0711  1.0740  0.4371
  713MOL0     C96185   5.206   1.194   1.887  0.5006 -0.1375 -0.3823
  713MOL0     C96186   4.425   1.114   1.823 -0.1169 -0.2581  0.0881
  713MOL0     C96187   4.304   1.132   1.759 -0.7707  0.0172 -0.7777
  713MOL0     H96188   3.835   1.017   1.707 -1.0929  1.5221  0.9345
  713MOL0     H96189   3.631   1.008   1.604  0.9103 -0.4993  1.9026
  713MOL0     H96190   3.441   1.099   1.586 -0.6722  0.5232  0.2601
  713MOL0     H96191   3.444   1.266   1.566 -0.7175 -0.4860  0.8182
  713MOL0     H96192   3.258   1.282   1.434 -3.0730 -1.5563  2.1772
  713MOL0     H96193   3.314   1.151   1.326  0.1820 -1.7547  0.2591
  713MOL0     H96194   3.243   1.004   1.531  2.0231  0.9629 -0.8539
  713MOL0     H96195   3.162   1.150   1.594  0.5282  0.0134 -0.1383
  713MOL0     H96196   3.099   1.016   1.321  0.6631  0.4730 -0.3537
  713MOL0     H96197   3.011   0.987   1.469  2.1845 -0.9250 -0.4326
  713MOL0     H96198   2.965   1.234   1.487 -1.1406  1.7203 -0.5577
  713MOL0     H96199   3.041   1.262   1.332  1.6929  0.1798  1.3633
  713MOL0     H96200   2.893   1.085   1.225 -0.0297  0.4764 -0.1996
  713MOL0     H96201   2.810   1.064   1.380 -3.6760  2.1457 -1.1640
  713MOL0     H96202   2.769   1.325   1.366 -0.6351  1.9315 -2.0998
  713MOL0     H96203   2.835   1.306   1.203  0.5130 -0.2279 -0.0322
  713MOL0     H96204   2.573   1.208   1.324 -2.5522 -1.0643 -1.1251
  713MOL0     H96205   2.628   1.123   1.180  2.4684  1.9947 -1.8162
  713MOL0     H96206   2.522   1.225   0.953 -0.8101  2.2997 -3.3764
  713MOL0     H96207   2.461   1.485   0.805  3.6745 -0.8850  2.6777
  713MOL0     H96208   2.320   1.398   0.856  0.1948 -0.7532 -0.2167
  713MOL0     H96209   2.420   1.690   0.898 -0.0697 -0.7910 -1.2276
  713MOL0     H96210   2.283   1.630   0.998 -0.5324 -0.8800 -0.2544
  713MOL0     H96211   2.152   1.578   0.812  0.8423 -1.0826 -1.4388
  713MOL0     H96212   2.273   1.636   0.690 -1.6815 -0.4991 -0.7339
  713MOL0     H96213   2.134   1.816   0.715 -1.2403  0.1849  1.2376
  713MOL0     H96214   2.281   1.846   0.767 -0.7721  1.8049 -1.4032
  713MOL0     H96215   1.930   1.718   0.749  1.8627 -0.8990  0.9694
  713MOL0     H96216   1.662   1.563   0.846 -1.3149 -1.9048 -4.1965
  713MOL0     H96217   1.619   1.711   0.755  1.5483  1.5037  1.6567
  713MOL0     H96218   1.764   1.615   0.710  0.2354 -1.2109  0.1500
  713MOL0     H96219   1.448   1.472   1.229 -1.5482 -0.6824 -0.8148
  713MOL0     H96220   1.213   1.487   1.287  0.5302  1.2292 -4.4667
  713MOL0     H96221   1.178   1.659   1.591  0.2945  1.6587  0.1065
  713MOL0     H96222   1.059   1.793   1.566 -2.4491 -0.2681 -0.7864
  713MOL0     H96223   0.987   1.602   1.726 -1.0737 -1.6813 -0.0302
  713MOL0     H96224   0.876   1.610   1.598  0.1604 -2.7508  1.3134
  713MOL0     H96225   1.107   1.415   1.608 -0.7449 -0.9133 -0.6809
  713MOL0     H96226   1.013   1.430   1.470  3.2601 -0.5562 -0.1967
  713MOL0     H96227   0.925   1.249   1.648 -0.6899 -0.9252 -1.1851
  713MOL0     H96228   0.880   1.389   1.749 -0.4754 -1.7690 -0.6556
  713MOL0     H96229   0.771   1.295   1.480 -3.7447  0.7662 -1.9986
  713MOL0     H96230   0.719   1.447   1.542 -1.3785  0.4032  1.6650
  713MOL0     H96231   0.664   1.306   1.758  0.1387  0.8582 -0.0484
  713MOL0     H96232   0.556   1.325   1.616 -1.2411  0.4360  1.9816
  713MOL0     H96233   0.740   1.094   1.595 -0.4234  1.8352 -0.3770
  713MOL0     H96234   0.574   1.125   1.541 -0.7987 -1.9012  0.0980
  713MOL0     H96235   0.640   1.076   1.840 -1.4548  3.0699  0.8891
  713MOL0     H96236   0.606   0.954   1.712 -3.4974 -0.3273 -3.5541
  713MOL0     H96237   1.239   1.879   1.417 -2.3038 -0.0106 -2.3108
  713MOL0     H96238   1.465   1.901   1.281  0.8129 -1.2355 -1.6502
  713MOL0     H96239   1.791   1.862   1.201 -2.2842 -2.8056 -0.4189
  713MOL0     H96240   2.036   1.899   1.139  1.7280  1.8877 -3.2590
  713MOL0     H96241   3.722   1.325   1.343  0.4155 -3.4319 -3.0057
  713MOL0     H96242   3.939   1.360   1.469 -0.7795 -0.5005 -1.4658
  713MOL0     H96243   4.407   1.277   1.476  0.8511  2.8391  1.2792
  713MOL0     H96244   4.614   1.278   1.595  1.5863 -1.7824  0.8264
  713MOL0     H96245   4.631   1.093   2.019 -1.7587  0.9233 -1.0770
  713MOL0     H96246   4.648   0.965   1.899  0.6505  0.2788  0.6785
  713MOL0     H96247   4.893   1.040   1.855  2.2083  1.0399  1.5925
  713MOL0     H96248   4.844   0.969   2.011 -1.2462 -1.5967 -2.7453
  713MOL0     H96249   4.815   1.202   2.107 -0.2248 -0.5073  0.9344
  713MOL0     H96250   4.863   1.259   1.950 -0.9985  0.7748 -0.7557
  713MOL0     H96251   5.039   1.059   2.117  3.0048  0.6890  1.0534
  713MOL0     H96252   5.028   1.226   2.155 -0.1068 -0.1035  0.5074
  713MOL0     H96253   5.292   1.215   1.827  0.5566 -1.8185 -0.9606
  713MOL0     H96254   4.414   1.057   1.915  1.7284 -1.6667 -0.4850
  713MOL0     H96255   4.223   1.081   1.810 -0.6055 -0.7782 -1.2976
  714MOL0     O96256   6.317   9.401   1.991 -0.0945  0.0088  0.7880
  714MOL0     C96257   6.346   9.281   2.015  0.2082  0.2625  0.1067
  714MOL0     O96258   6.260   9.174   2.033 -0.4376 -0.2884 -0.5243
  714MOL0     C96259   6.132   9.217   2.047  0.7212 -0.3718 -0.7097
  714MOL0     C96260   6.079   9.237   2.180  0.5400 -0.0128 -0.1061
  714MOL0     C96261   5.944   9.269   2.202 -0.1035 -0.0111 -0.7920
  714MOL0     C96262   5.861   9.282   2.090 -1.3293 -0.2497  0.0164
  714MOL0     O96263   5.727   9.310   2.091  0.3418 -0.6527  0.0228
  714MOL0     C96264   5.658   9.349   2.214  0.4687  0.1262 -0.1852
  714MOL0     C96265   5.678   9.497   2.230 -0.3281 -0.0093  0.6743
  714MOL0     C96266   5.637   9.548   2.369  0.0191  1.1437  0.2068
  714MOL0     C96267   5.706   9.675   2.412 -0.6445  0.5058  0.3390
  714MOL0     C96268   5.679   9.715   2.558  0.0452 -0.0030 -1.1523
  714MOL0     C96269   5.758   9.846   2.586  0.5459  0.0664  0.8626
  714MOL0     C96270   5.778   9.875   2.734 -0.0608 -0.1093  0.3336
  714MOL0     C96271   5.916   9.838   2.782  1.0303  0.8663  0.0953
  714MOL0     N96272   5.911   9.832   2.933 -0.1614  0.2544  0.3371
  714MOL0     C96273   5.985   9.750   3.008  0.1015 -0.7084  0.1029
  714MOL0     C96274   5.973   9.800   3.134 -0.3397 -0.4828  0.2649
  714MOL0     C96275   6.033   9.748   3.261 -0.5661  0.0611 -0.2298
  714MOL0     C96276   5.957   9.625   3.314 -0.4750 -0.0964 -0.0833
  714MOL0     C96277   5.812   9.662   3.334  0.1296  0.1319 -0.1609
  714MOL0     C96278   5.729   9.535   3.383  0.0925  0.2684  0.2000
  714MOL0     O96279   5.757   9.432   3.284  0.1382  0.1858 -0.1777
  714MOL0     C96280   5.643   9.389   3.218 -0.8822 -1.0197  1.6937
  714MOL0     C96281   5.627   9.251   3.225  0.1772 -0.0944 -0.2725
  714MOL0     C96282   5.515   9.192   3.168  0.6225 -0.1495  0.2726
  714MOL0     C96283   5.510   9.043   3.180 -0.7188 -0.1446  0.4901
  714MOL0     C96284   5.413   9.274   3.103 -0.2547  0.3143  0.3142
  714MOL0     C96285   5.291   9.216   3.030 -0.5726 -0.2125 -0.3942
  714MOL0     O96286   5.243   9.087   3.063 -0.2978 -0.2327 -0.1045
  714MOL0     C96287   5.165   9.022   2.973 -0.3060 -0.3272 -0.1869
  714MOL0     C96288   5.055   9.082   2.919  0.8550 -0.4050  0.6746
  714MOL0     C96289   4.963   9.007   2.839 -0.4286 -0.3740 -0.4978
  714MOL0     C96290   4.990   8.878   2.810  0.0196  0.6824  0.5371
  714MOL0     O96291   4.892   8.819   2.729  0.1712 -1.0115  0.1280
  714MOL0     C96292   4.825   8.707   2.792  0.5649  0.4534 -0.5458
  714MOL0     C96293   4.769   8.620   2.685  0.2643  0.6215 -0.1381
  714MOL0     C96294   4.724   8.479   2.734  0.2696  0.0262 -0.3079
  714MOL0     C96295   4.610   8.494   2.832  0.4017  0.9765 -0.2511
  714MOL0     C96296   4.475   8.502   2.758 -0.3488  1.3942  0.2844
  714MOL0     C96297   4.364   8.500   2.859  0.1239  0.5336  0.0299
  714MOL0     C96298   4.229   8.464   2.784  1.0130 -0.9188 -0.3335
  714MOL0     C96299   4.123   8.473   2.895 -1.2974  0.0571  0.3423
  714MOL0    Cl96300   4.108   8.636   2.964  0.2737 -0.0499 -0.2403
  714MOL0     C96301   5.103   8.817   2.863  0.4207 -0.4151 -0.2530
  714MOL0     C96302   5.194   8.887   2.948 -0.2433 -1.1565  0.1140
  714MOL0     O96303   5.252   9.282   2.936  0.6184  0.2693 -0.5311
  714MOL0     C96304   5.431   9.410   3.106  0.1340 -0.2391  1.3018
  714MOL0     C96305   5.545   9.468   3.164 -0.4897 -0.0902 -0.1683
  714MOL0     N96306   5.879   9.903   3.132  0.3623  0.2433  1.1407
  714MOL0     N96307   5.857   9.933   3.007 -0.2145 -0.2859  0.2427
  714MOL0     C96308   5.916   9.277   1.960  0.6992  0.2929 -0.5070
  714MOL0     C96309   6.049   9.238   1.936 -0.0140  0.2211  0.0134
  714MOL0     C96310   6.487   9.240   2.039  0.6382  0.4147  0.2947
  714MOL0     C96311   6.513   9.108   2.089 -0.0145  0.4928 -0.1753
  714MOL0     C96312   6.647   9.066   2.118  0.8671 -0.0891  0.0820
  714MOL0     C96313   6.752   9.155   2.103 -0.1536  0.2051 -0.2121
  714MOL0     O96314   6.871   9.093   2.131  0.2930  0.3134 -0.6243
  714MOL0     C96315   6.995   9.163   2.144 -1.1957 -0.2548  0.1436
  714MOL0     C96316   6.991   9.246   2.276  0.1763  0.1501  0.0115
  714MOL0     C96317   6.983   9.146   2.395  0.3569  0.5437  0.1512
  714MOL0     C96318   6.991   9.222   2.529  0.4616  0.2321 -0.9213
  714MOL0     C96319   7.119   9.288   2.558  0.9513  0.0179 -0.1031
  714MOL0     C96320   7.227   9.336   2.575 -0.5341  0.5935 -0.3985
  714MOL0     C96321   6.733   9.281   2.046 -0.1067 -0.5820 -0.4916
  714MOL0     C96322   6.603   9.326   2.011  0.6279  0.2453  0.1874
  714MOL0     H96323   6.138   9.216   2.268 -1.4315  3.1137  2.1553
  714MOL0     H96324   5.918   9.277   2.307  0.0010  0.3107 -0.7881
  714MOL0     H96325   5.554   9.315   2.211  1.3851 -3.3988  1.4747
  714MOL0     H96326   5.704   9.295   2.297 -1.4655 -1.2851  0.0519
  714MOL0     H96327   5.783   9.521   2.214  0.2210 -1.2127  2.2086
  714MOL0     H96328   5.627   9.553   2.151  1.1342 -1.5469 -1.4490
  714MOL0     H96329   5.530   9.569   2.378 -1.2559 -3.6785 -0.9090
  714MOL0     H96330   5.656   9.459   2.429 -2.3669 -0.3653 -1.1473
  714MOL0     H96331   5.811   9.648   2.401 -0.7092  0.3770  0.0221
  714MOL0     H96332   5.678   9.760   2.349 -2.2372 -0.1321  0.1345
  714MOL0     H96333   5.573   9.718   2.584  1.1705  0.8384  4.6999
  714MOL0     H96334   5.715   9.642   2.632 -0.8546 -0.6335 -1.3288
  714MOL0     H96335   5.853   9.858   2.532 -0.2365 -1.6311 -1.0110
  714MOL0     H96336   5.701   9.924   2.535  0.0266  0.0840  1.4609
  714MOL0     H96337   5.768   9.983   2.747  1.0845  0.1742 -0.9409
  714MOL0     H96338   5.700   9.819   2.787 -0.8631 -0.3190 -1.0147
  714MOL0     H96339   5.989   9.909   2.744 -0.1279  3.0107  1.6447
  714MOL0     H96340   5.929   9.740   2.735 -2.4203  1.2895 -2.1527
  714MOL0     H96341   6.043   9.662   2.981 -0.4460 -1.6650  1.8659
  714MOL0     H96342   6.132   9.712   3.232 -0.6959  1.7451 -3.0898
  714MOL0     H96343   6.043   9.828   3.335  0.5781  1.7046 -2.0804
  714MOL0     H96344   6.005   9.595   3.408  0.2453 -2.4593 -1.1147
  714MOL0     H96345   5.972   9.542   3.245 -1.9314 -0.4491 -0.0052
  714MOL0     H96346   5.767   9.703   3.244 -2.6792  0.1467  1.1407
  714MOL0     H96347   5.812   9.745   3.405  1.9877  0.2294 -0.2303
  714MOL0     H96348   5.623   9.562   3.395 -0.0274  0.5937 -1.3846
  714MOL0     H96349   5.775   9.509   3.478  2.2070  1.3208 -0.4623
  714MOL0     H96350   5.701   9.192   3.278 -1.6872 -2.1468  0.1829
  714MOL0     H96351   5.422   8.997   3.226 -1.2381  1.3812  1.1015
  714MOL0     H96352   5.509   9.012   3.075 -1.5549 -2.5417  1.1461
  714MOL0     H96353   5.603   9.013   3.229  2.0350  4.2750 -1.3841
  714MOL0     H96354   5.020   9.179   2.951 -0.5441 -0.7208  0.2032
  714MOL0     H96355   4.875   9.058   2.802 -0.3723 -0.0254 -0.1561
  714MOL0     H96356   4.894   8.649   2.854  1.4690  0.0418 -1.9155
  714MOL0     H96357   4.745   8.742   2.859  0.1754 -2.8162  0.9235
  714MOL0     H96358   4.690   8.681   2.639 -1.8832 -0.2551  2.1657
  714MOL0     H96359   4.845   8.602   2.609  1.0903  1.0315  0.5837
  714MOL0     H96360   4.797   8.409   2.774 -0.0672 -1.7181 -2.5355
  714MOL0     H96361   4.685   8.432   2.643 -0.3261  1.0240 -0.5832
  714MOL0     H96362   4.616   8.401   2.889  0.4216 -1.8037 -4.2978
  714MOL0     H96363   4.613   8.582   2.897  2.8160  1.4856 -0.9461
  714MOL0     H96364   4.462   8.415   2.692 -1.2284  1.5840  0.1928
  714MOL0     H96365   4.484   8.588   2.691  1.6202 -0.3891 -1.8986
  714MOL0     H96366   4.387   8.429   2.939  0.2142 -0.6624 -1.0076
  714MOL0     H96367   4.366   8.599   2.905  1.0097  1.0235 -1.0183
  714MOL0     H96368   4.228   8.361   2.747 -1.9536 -1.6562  1.5438
  714MOL0     H96369   4.202   8.532   2.703 -1.5418 -1.4940 -0.0504
  714MOL0     H96370   4.158   8.409   2.977  2.0896 -0.0948 -1.0527
  714MOL0     H96371   4.020   8.449   2.867 -0.7624  0.4545 -2.1981
  714MOL0     H96372   5.112   8.711   2.845 -1.4419 -0.4597 -1.0577
  714MOL0     H96373   5.276   8.842   3.002 -0.1029  0.3174  1.2017
  714MOL0     H96374   5.361   9.479   3.062  0.2774 -2.0644 -2.1030
  714MOL0     H96375   5.556   9.576   3.170 -0.7651 -0.1025  0.7085
  714MOL0     H96376   5.851   9.319   1.884 -1.9159 -0.6944  1.0541
  714MOL0     H96377   6.102   9.232   1.841  1.6210 -0.9450  0.9313
  714MOL0     H96378   6.439   9.032   2.110 -1.5466  1.7584 -0.7061
  714MOL0     H96379   6.669   8.964   2.148 -1.2331 -1.0714 -1.4665
  714MOL0     H96380   7.080   9.094   2.137 -0.9577  0.0675 -0.1663
  714MOL0     H96381   7.002   9.234   2.062  0.1665 -1.4279 -0.8062
  714MOL0     H96382   6.901   9.306   2.260  1.2753  1.6791 -0.7564
  714MOL0     H96383   7.081   9.309   2.279  0.8938 -0.8270 -0.2642
  714MOL0     H96384   7.074   9.086   2.389 -0.7150 -1.2920  1.2467
  714MOL0     H96385   6.895   9.081   2.392  1.1340 -0.4780 -1.8301
  714MOL0     H96386   6.973   9.160   2.618  0.0974  0.4697 -0.8279
  714MOL0     H96387   6.908   9.292   2.539 -0.0385 -0.5628  0.9396
  714MOL0     H96388   7.312   9.399   2.594 -1.1044  1.2732 -0.0954
  714MOL0     H96389   6.823   9.339   2.031 -0.7882  0.9666  0.9933
  714MOL0     H96390   6.597   9.422   1.961  3.6569 -0.3130 -1.4806
  715MOL0     O96391   7.879   0.499   7.615 -0.8792  0.2491  0.2029
  715MOL0     C96392   7.881   0.420   7.712  0.4162  0.4029  0.6790
  715MOL0     O96393   7.773   0.383   7.789  0.1597 -0.6532  0.7297
  715MOL0     C96394   7.644   0.423   7.764  0.2968 -0.1086  0.0149
  715MOL0     C96395   7.562   0.355   7.857  0.0939 -0.0526 -0.5778
  715MOL0     C96396   7.424   0.367   7.857 -0.4266 -0.7960 -0.2193
  715MOL0     C96397   7.365   0.459   7.767 -0.6237 -0.2251  0.4943
  715MOL0     O96398   7.230   0.480   7.779 -0.6767  0.6989  0.1519
  715MOL0     C96399   7.171   0.603   7.727  0.0639 -0.1380 -0.4615
  715MOL0     C96400   7.060   0.643   7.834 -0.7208 -0.3814  1.0176
  715MOL0     C96401   6.986   0.773   7.805 -0.0853  0.8506 -0.3938
  715MOL0     C96402   6.906   0.811   7.927  0.4263 -0.1460 -0.2767
  715MOL0     C96403   6.826   0.946   7.904 -0.7418  0.8238 -0.6514
  715MOL0     C96404   6.771   0.981   8.047 -0.6705  0.4397 -0.1053
  715MOL0     C96405   6.679   1.102   8.044  0.6992 -1.0248 -0.7819
  715MOL0     C96406   6.575   1.087   8.152 -0.0066  0.1544  0.5830
  715MOL0     N96407   6.473   0.989   8.111  0.4539 -0.4269  0.1481
  715MOL0     C96408   6.351   1.017   8.063  1.2746 -0.6918  0.0504
  715MOL0     C96409   6.300   0.899   8.027 -0.3992  0.2293  0.3687
  715MOL0     C96410   6.164   0.876   7.976  0.6254  0.0618  1.4181
  715MOL0     C96411   6.051   0.975   7.996 -0.5231 -0.2914  0.2088
  715MOL0     C96412   6.015   0.982   8.145  0.5587  0.9992  0.5934
  715MOL0     C96413   5.930   1.110   8.174 -0.8788  0.5341 -1.0279
  715MOL0     O96414   5.805   1.114   8.107  0.5831 -0.3894  0.2958
  715MOL0     C96415   5.725   1.225   8.132  0.3974 -0.0716  0.4236
  715MOL0     C96416   5.749   1.327   8.230 -0.0065  0.1797  0.3095
  715MOL0     C96417   5.667   1.442   8.242  0.2896 -0.3212  0.1147
  715MOL0     C96418   5.682   1.537   8.367  0.5773  0.5431  0.4663
  715MOL0     C96419   5.560   1.455   8.150 -0.4086 -0.4635 -0.2495
  715MOL0     C96420   5.465   1.556   8.144 -1.3812  0.1868 -0.1807
  715MOL0     O96421   5.329   1.524   8.122  0.0208  0.0098 -0.3238
  715MOL0     C96422   5.231   1.617   8.147 -0.1173 -0.0018  0.1266
  715MOL0     C96423   5.226   1.679   8.269  0.1488 -0.6982 -0.3653
  715MOL0     C96424   5.118   1.767   8.305 -0.2484  0.9624 -0.8829
  715MOL0     C96425   5.005   1.760   8.213 -0.3894 -0.6149 -0.5327
  715MOL0     O96426   4.895   1.839   8.249  0.3679  0.1984 -0.1013
  715MOL0     C96427   4.790   1.758   8.298 -1.5808 -0.3206 -0.8215
  715MOL0     C96428   4.717   1.842   8.402 -0.8199  0.6087  0.3090
  715MOL0     C96429   4.657   1.972   8.332  0.5569 -0.7907 -1.0386
  715MOL0     C96430   4.579   2.052   8.445  0.9656  0.5926 -0.6673
  715MOL0     C96431   4.521   2.177   8.398  0.5729  0.6631 -0.0181
  715MOL0     C96432   4.397   2.151   8.304 -0.4224  0.3099 -0.4185
  715MOL0     C96433   4.263   2.114   8.366  0.1343 -0.6156 -0.4362
  715MOL0     C96434   4.159   2.088   8.260 -0.1056 -0.4606 -0.3450
  715MOL0    Cl96435   4.034   1.977   8.322 -0.5565 -0.0590 -0.0701
  715MOL0     C96436   5.012   1.694   8.091  0.3776  0.6688  0.0586
  715MOL0     C96437   5.124   1.621   8.054 -0.2298  0.4843  0.2862
  715MOL0     O96438   5.508   1.677   8.155  0.3105  0.5424 -0.1258
  715MOL0     C96439   5.554   1.370   8.037 -0.3369  0.0567  0.1636
  715MOL0     C96440   5.631   1.250   8.036  0.4508  0.1944 -0.5640
  715MOL0     N96441   6.392   0.805   8.080 -0.0117 -0.1801 -0.1986
  715MOL0     N96442   6.486   0.864   8.151 -0.0713 -0.2934 -0.2837
  715MOL0     C96443   7.446   0.525   7.670  0.0983 -0.3809  0.7047
  715MOL0     C96444   7.585   0.509   7.672 -0.1652  0.1877 -0.1367
  715MOL0     C96445   8.014   0.385   7.767  0.0104  0.3737  0.3266
  715MOL0     C96446   8.031   0.333   7.896 -0.0456  0.0183  0.5225
  715MOL0     C96447   8.161   0.310   7.952 -0.0620  0.2160  0.0452
  715MOL0     C96448   8.273   0.338   7.871 -0.2416  0.4672 -0.2908
  715MOL0     O96449   8.407   0.315   7.910  0.7698  0.2264  0.3003
  715MOL0     C96450   8.416   0.241   8.038  0.3090  0.6480  0.7540
  715MOL0     C96451   8.562   0.241   8.086  0.0371 -0.0511  0.2525
  715MOL0     C96452   8.581   0.164   8.223 -0.4533  0.0573  0.4310
  715MOL0     C96453   8.728   0.129   8.234  0.0771 -0.1084  0.3179
  715MOL0     C96454   8.764   0.106   8.374 -0.9435 -0.7794 -0.2722
  715MOL0     C96455   8.799   0.089   8.492  0.2804  0.2155  0.0796
  715MOL0     C96456   8.256   0.381   7.737 -0.4100  0.3848 -0.3541
  715MOL0     C96457   8.133   0.404   7.691 -0.3556 -0.2482 -0.0266
  715MOL0     H96458   7.621   0.282   7.912  0.9715 -0.0553 -1.4983
  715MOL0     H96459   7.368   0.308   7.928  2.1425 -0.3477  2.3676
  715MOL0     H96460   7.249   0.680   7.730  2.9997 -2.9051  0.1905
  715MOL0     H96461   7.129   0.594   7.627 -0.0736 -1.3538 -0.3155
  715MOL0     H96462   6.986   0.562   7.841  0.1429 -1.1759  1.1581
  715MOL0     H96463   7.103   0.653   7.934 -1.3770 -0.7067  1.3423
  715MOL0     H96464   7.062   0.850   7.785  0.4726  0.3229 -0.3404
  715MOL0     H96465   6.923   0.758   7.717  1.5407 -1.0693 -1.3184
  715MOL0     H96466   6.838   0.728   7.947  0.9419 -0.7896 -1.1812
  715MOL0     H96467   6.975   0.818   8.012  0.2796 -0.5726 -0.1206
  715MOL0     H96468   6.909   1.015   7.885 -1.1110  2.1395  2.0249
  715MOL0     H96469   6.747   0.940   7.830  0.0154  0.2080 -1.4219
  715MOL0     H96470   6.708   0.896   8.077  0.3782  0.6397  3.0502
  715MOL0     H96471   6.854   1.001   8.115 -0.7940  0.5444  0.0150
  715MOL0     H96472   6.727   1.197   8.069  2.2867 -1.8420 -0.5817
  715MOL0     H96473   6.640   1.102   7.942  1.8521  2.4121 -1.3694
  715MOL0     H96474   6.514   1.174   8.177  1.0604  0.3178  2.8686
  715MOL0     H96475   6.633   1.065   8.242  3.5401  0.7813 -1.3281
  715MOL0     H96476   6.316   1.119   8.048  0.3416 -1.2029 -1.4932
  715MOL0     H96477   6.171   0.851   7.869  0.5788 -5.3895  2.4251
  715MOL0     H96478   6.122   0.787   8.023 -2.9226  1.6054  1.4390
  715MOL0     H96479   5.958   0.943   7.948 -0.8039 -0.3355  0.7719
  715MOL0     H96480   6.075   1.078   7.970 -1.1618  0.2552  1.6592
  715MOL0     H96481   6.102   0.970   8.211  1.6507  0.9575 -0.7960
  715MOL0     H96482   5.943   0.901   8.156  0.7501  0.6025 -0.8202
  715MOL0     H96483   5.982   1.206   8.172 -0.2764  0.3505  1.7949
  715MOL0     H96484   5.912   1.085   8.279 -0.1399 -3.6764 -1.7165
  715MOL0     H96485   5.822   1.315   8.309  0.2644 -1.0802 -0.1014
  715MOL0     H96486   5.713   1.497   8.464  1.2898  0.7627  0.3311
  715MOL0     H96487   5.752   1.615   8.335  0.0433  1.3303  1.1955
  715MOL0     H96488   5.592   1.593   8.393  1.0992  1.5929  0.0988
  715MOL0     H96489   5.303   1.659   8.343 -1.2168  1.2841  1.7379
  715MOL0     H96490   5.116   1.818   8.401  0.6226  1.2105 -0.9864
  715MOL0     H96491   4.722   1.715   8.223 -2.3729 -2.8027  1.1873
  715MOL0     H96492   4.834   1.671   8.347  1.5391  1.0752 -0.9471
  715MOL0     H96493   4.641   1.784   8.454  0.9780 -2.6042 -0.4005
  715MOL0     H96494   4.795   1.876   8.471  2.7188  1.6482 -3.7104
  715MOL0     H96495   4.594   1.939   8.249  1.0583  0.1267 -1.8014
  715MOL0     H96496   4.737   2.041   8.301  0.2779  0.4137  0.7827
  715MOL0     H96497   4.499   1.988   8.483  0.6750  0.7378 -1.0305
  715MOL0     H96498   4.651   2.067   8.526 -0.2831  1.2633  0.3514
  715MOL0     H96499   4.596   2.239   8.348 -1.1063  2.3750 -0.5745
  715MOL0     H96500   4.485   2.227   8.488 -1.5857  1.6127 -1.3061
  715MOL0     H96501   4.377   2.241   8.244 -0.7032  0.8995  0.5214
  715MOL0     H96502   4.427   2.069   8.239 -0.9491 -0.0581 -0.2092
  715MOL0     H96503   4.230   2.197   8.429  1.5673 -0.6036  0.3506
  715MOL0     H96504   4.273   2.026   8.430  0.1872  1.2248  2.2811
  715MOL0     H96505   4.204   2.048   8.169  1.2686 -0.6531  0.3885
  715MOL0     H96506   4.112   2.181   8.229 -2.6910 -1.5411  0.0400
  715MOL0     H96507   4.922   1.715   8.034  0.4780 -0.4453 -0.5446
  715MOL0     H96508   5.141   1.572   7.959  0.3780  2.5015 -0.6857
  715MOL0     H96509   5.479   1.379   7.959 -1.3451 -3.0573  0.6453
  715MOL0     H96510   5.622   1.189   7.947 -1.5062 -1.4283  0.6632
  715MOL0     H96511   7.402   0.587   7.593  1.1218 -0.6451 -0.1194
  715MOL0     H96512   7.638   0.560   7.592 -1.0895 -0.1065 -0.9572
  715MOL0     H96513   7.948   0.296   7.956  0.6050  0.1028  1.4944
  715MOL0     H96514   8.171   0.262   8.049  1.2297  0.2483 -0.0525
  715MOL0     H96515   8.346   0.282   8.111 -4.2406 -0.3246 -2.6022
  715MOL0     H96516   8.380   0.138   8.029  0.1227  0.9128 -2.6272
  715MOL0     H96517   8.593   0.346   8.097  0.0943 -0.1058  0.6081
  715MOL0     H96518   8.619   0.191   8.008 -0.6839 -0.5078  0.0112
  715MOL0     H96519   8.514   0.078   8.232 -0.8065  0.3893  1.0044
  715MOL0     H96520   8.564   0.227   8.310  1.2612  1.0235  0.1129
  715MOL0     H96521   8.791   0.200   8.179  0.2350  0.5687  1.3342
  715MOL0     H96522   8.741   0.035   8.180 -4.9919 -1.3008  0.6950
  715MOL0     H96523   8.826   0.072   8.594  1.6375 -1.3274 -0.4879
  715MOL0     H96524   8.337   0.403   7.668  1.0961 -0.7709  0.9893
  715MOL0     H96525   8.123   0.434   7.587  0.5474 -0.1384 -0.0861
  716MOL0     O96526   0.901   9.705   3.551 -0.6903  0.3038  0.3174
  716MOL0     C96527   0.957   9.633   3.635  0.1856 -0.8360  0.4768
  716MOL0     O96528   0.894   9.537   3.702 -0.1189  0.2740 -1.2618
  716MOL0     C96529   0.758   9.511   3.689  0.4830  0.5285  0.1194
  716MOL0     C96530   0.688   9.512   3.569 -0.3580  0.4675  0.2689
  716MOL0     C96531   0.557   9.463   3.563  0.1141  0.0972 -0.7664
  716MOL0     C96532   0.486   9.409   3.670 -0.3070  0.4413 -0.4527
  716MOL0     O96533   0.353   9.385   3.674  0.5730  0.0426  0.6397
  716MOL0     C96534   0.278   9.389   3.548 -0.3649 -0.5554 -0.4244
  716MOL0     C96535   0.139   9.344   3.579 -0.3960 -0.0246  0.1701
  716MOL0     C96536   0.086   9.243   3.475 -1.3840 -0.1393  0.3998
  716MOL0     C96537  -0.024   9.148   3.527  0.0353 -0.2027  0.2102
  716MOL0     C96538  -0.155   9.215   3.581 -0.0169  0.3838  0.3935
  716MOL0     C96539  -0.201   9.122   3.691  0.1085 -0.0733 -0.2401
  716MOL0     C96540  -0.327   9.167   3.754  0.5261  0.0661 -0.3731
  716MOL0     C96541  -0.448   9.166   3.649 -0.0975 -0.6524 -0.1406
  716MOL0     N96542  -0.582   9.171   3.721  0.0103  0.3284  0.1992
  716MOL0     C96543  -0.627   9.260   3.817 -0.4127  0.1953 -0.4693
  716MOL0     C96544  -0.752   9.212   3.847 -0.8741 -0.3467 -0.6421
  716MOL0     C96545  -0.822   9.275   3.963 -0.0107  0.1277 -0.3929
  716MOL0     C96546  -0.978   9.258   3.977 -0.7818 -0.0175  0.2465
  716MOL0     C96547  -1.053   9.366   3.889  0.5182 -0.0871 -0.3658
  716MOL0     C96548  -1.205   9.334   3.907  0.6045 -0.2593  0.8592
  716MOL0     O96549  -1.232   9.207   3.838  1.1436 -0.2445  0.2927
  716MOL0     C96550  -1.339   9.144   3.900 -0.5036 -0.2275 -0.3001
  716MOL0     C96551  -1.319   9.013   3.936 -0.0291 -0.1106 -0.5074
  716MOL0     C96552  -1.431   8.931   3.979 -0.3797  0.0623 -0.5769
  716MOL0     C96553  -1.392   8.788   4.013  0.0408  0.1346 -0.1513
  716MOL0     C96554  -1.558   8.984   4.003 -0.2324  0.2137 -0.7697
  716MOL0     C96555  -1.675   8.910   4.047 -0.0882 -1.1732  0.4819
  716MOL0     O96556  -1.788   8.989   4.050  0.2196  0.3834 -0.1129
  716MOL0     C96557  -1.910   8.934   4.027  0.2793 -0.2513 -0.2471
  716MOL0     C96558  -1.969   8.821   4.087  0.1804 -1.1549  0.6374
  716MOL0     C96559  -2.107   8.796   4.067 -1.0070 -0.1471  0.6919
  716MOL0     C96560  -2.178   8.870   3.976  1.1798 -0.4920  0.3562
  716MOL0     O96561  -2.310   8.830   3.961 -0.4688  1.5583 -0.2283
  716MOL0     C96562  -2.397   8.877   4.066 -0.7536 -0.0249 -0.4975
  716MOL0     C96563  -2.460   8.756   4.128  1.4858  0.0552 -0.4399
  716MOL0     C96564  -2.580   8.811   4.211 -0.3182  0.1217  0.7555
  716MOL0     C96565  -2.635   8.683   4.293 -0.1130  0.0112  0.3471
  716MOL0     C96566  -2.758   8.725   4.364  0.0993  0.9119 -0.6830
  716MOL0     C96567  -2.804   8.624   4.470 -0.1581  0.1498  0.1915
  716MOL0     C96568  -2.840   8.481   4.418  0.3599  0.0146  0.6036
  716MOL0     C96569  -2.820   8.376   4.525  0.9892  0.6086  1.1689
  716MOL0    Cl96570  -2.938   8.413   4.653  0.4982 -0.5118 -0.2777
  716MOL0     C96571  -2.129   8.991   3.937  0.8347 -0.3993 -0.0112
  716MOL0     C96572  -1.994   9.018   3.950  0.4179 -0.1701 -0.0600
  716MOL0     O96573  -1.674   8.794   4.057 -0.1963  0.7412 -0.4409
  716MOL0     C96574  -1.569   9.124   3.974 -1.1179  0.6754  0.0267
  716MOL0     C96575  -1.468   9.196   3.914 -0.1101  0.2373  0.0466
  716MOL0     N96576  -0.786   9.106   3.755  0.3554  0.4356  0.2828
  716MOL0     N96577  -0.684   9.088   3.686  0.2698  0.9451  0.9627
  716MOL0     C96578   0.556   9.406   3.794  0.6832  0.0841  0.2635
  716MOL0     C96579   0.687   9.450   3.802 -0.3552 -0.2570  0.0755
  716MOL0     C96580   1.089   9.680   3.687  0.2141  0.4043 -0.4136
  716MOL0     C96581   1.139   9.618   3.810  0.6574 -0.0753 -0.5255
  716MOL0     C96582   1.281   9.619   3.829 -0.3792 -0.3563  0.0428
  716MOL0     C96583   1.369   9.692   3.751 -0.2723 -0.2784 -0.2344
  716MOL0     O96584   1.501   9.686   3.790  1.1146 -1.1584  0.2107
  716MOL0     C96585   1.601   9.729   3.699  0.0018  0.1961  0.1537
  716MOL0     C96586   1.749   9.707   3.753  0.2156  0.1989  0.4611
  716MOL0     C96587   1.854   9.769   3.661 -0.5598  0.6561 -0.0597
  716MOL0     C96588   1.992   9.767   3.730 -0.2428  0.1621 -0.8741
  716MOL0     C96589   2.094   9.809   3.645  0.0448 -0.9494  0.2192
  716MOL0     C96590   2.165   9.854   3.561 -0.3704  0.6154 -0.2388
  716MOL0     C96591   1.305   9.759   3.639 -0.2469  1.1038 -0.4642
  716MOL0     C96592   1.173   9.756   3.608 -0.0931  0.5462  0.0974
  716MOL0     H96593   0.724   9.548   3.473  0.2394  1.7465  0.9531
  716MOL0     H96594   0.501   9.461   3.470 -0.7074  2.2902 -0.3817
  716MOL0     H96595   0.278   9.487   3.500 -1.5639 -0.9827 -1.3474
  716MOL0     H96596   0.326   9.326   3.473  0.9058 -0.4530  0.2795
  716MOL0     H96597   0.139   9.296   3.678 -2.1180  0.1989  0.3214
  716MOL0     H96598   0.071   9.429   3.585  0.7595  0.8399  2.2353
  716MOL0     H96599   0.053   9.303   3.390  0.0536 -3.3674 -2.6721
  716MOL0     H96600   0.166   9.179   3.437  0.4536  2.3125 -0.1526
  716MOL0     H96601  -0.053   9.087   3.441  1.7280 -0.4803 -0.2169
  716MOL0     H96602   0.013   9.081   3.606 -0.1145  2.4870  2.7549
  716MOL0     H96603  -0.155   9.319   3.614 -0.7213  0.0212  1.6011
  716MOL0     H96604  -0.229   9.207   3.501  0.1261 -0.2328  0.3175
  716MOL0     H96605  -0.217   9.026   3.640 -0.4630  0.8918 -1.9954
  716MOL0     H96606  -0.127   9.133   3.770 -1.3502  1.5974  0.9709
  716MOL0     H96607  -0.349   9.099   3.837  1.4175  1.1162  0.7686
  716MOL0     H96608  -0.313   9.273   3.780 -0.0222 -0.3512  1.8548
  716MOL0     H96609  -0.458   9.087   3.575 -1.5067  1.1956 -2.0575
  716MOL0     H96610  -0.435   9.259   3.592  0.7597 -0.8952 -0.3501
  716MOL0     H96611  -0.576   9.349   3.853 -1.2603  1.7676 -2.9225
  716MOL0     H96612  -0.788   9.229   4.056  0.9281  0.3111 -0.6281
  716MOL0     H96613  -0.791   9.379   3.979 -0.8638  0.5026 -1.0827
  716MOL0     H96614  -1.013   9.283   4.078 -1.7917  1.7031 -0.4826
  716MOL0     H96615  -1.005   9.154   3.956  0.9927 -0.7976  1.4828
  716MOL0     H96616  -1.031   9.370   3.782 -1.9918  0.2781 -0.9547
  716MOL0     H96617  -1.030   9.464   3.929 -1.4908  0.6834 -0.9630
  716MOL0     H96618  -1.265   9.420   3.877  0.4355  0.0557  2.0479
  716MOL0     H96619  -1.223   9.325   4.014  1.3971  1.6245  1.1868
  716MOL0     H96620  -1.217   8.983   3.913  1.6947  5.3010 -1.1862
  716MOL0     H96621  -1.418   8.768   4.118  1.8022  2.2656  0.7585
  716MOL0     H96622  -1.439   8.711   3.951  0.6174  0.9252 -1.6011
  716MOL0     H96623  -1.286   8.776   3.993  0.3042 -1.6728  1.8700
  716MOL0     H96624  -1.897   8.777   4.154  2.8975 -0.1825 -1.4681
  716MOL0     H96625  -2.156   8.715   4.120  2.0617 -2.1067  0.8204
  716MOL0     H96626  -2.345   8.938   4.140  0.0467  0.4162 -1.3893
  716MOL0     H96627  -2.477   8.939   4.024  0.2247  3.1215  1.9229
  716MOL0     H96628  -2.501   8.702   4.043 -1.7399  2.4136 -0.5502
  716MOL0     H96629  -2.395   8.687   4.183  1.0765 -0.3242 -0.4248
  716MOL0     H96630  -2.653   8.838   4.133  2.1732  1.5182 -1.2536
  716MOL0     H96631  -2.563   8.897   4.276 -0.2313  0.0427  0.8360
  716MOL0     H96632  -2.660   8.604   4.222  2.3605  0.1984 -0.8507
  716MOL0     H96633  -2.560   8.644   4.362  0.9375  1.8768  0.3297
  716MOL0     H96634  -2.844   8.743   4.300 -0.9399 -0.6259  0.2297
  716MOL0     H96635  -2.738   8.822   4.410  4.8682  0.7560 -1.8979
  716MOL0     H96636  -2.725   8.612   4.544 -0.8599 -0.0134  0.9357
  716MOL0     H96637  -2.892   8.662   4.523  0.0746 -2.2654  2.4962
  716MOL0     H96638  -2.773   8.455   4.336 -0.8968 -2.0863  0.1785
  716MOL0     H96639  -2.946   8.468   4.393  0.3596 -0.6647  0.9427
  716MOL0     H96640  -2.721   8.371   4.571  1.3680 -0.8017  0.2545
  716MOL0     H96641  -2.846   8.282   4.475  0.7378  2.0469 -1.5731
  716MOL0     H96642  -2.193   9.065   3.891  1.9399  0.8790  0.4261
  716MOL0     H96643  -1.951   9.114   3.924 -0.5020  0.4374  0.5895
  716MOL0     H96644  -1.668   9.170   3.973 -1.7803 -0.6644  0.8866
  716MOL0     H96645  -1.496   9.289   3.866 -1.3096  0.0955  0.4374
  716MOL0     H96646   0.511   9.366   3.884  0.9618 -2.6381 -0.7007
  716MOL0     H96647   0.726   9.438   3.902  0.7529  1.8036 -0.0463
  716MOL0     H96648   1.071   9.566   3.877 -4.2735 -0.5150 -5.1155
  716MOL0     H96649   1.327   9.574   3.917  1.8329  0.1446 -0.7979
  716MOL0     H96650   1.592   9.676   3.604  4.2256 -1.6385  0.5566
  716MOL0     H96651   1.598   9.838   3.685  1.1717  0.1765 -0.3805
  716MOL0     H96652   1.776   9.601   3.763  0.9856  0.3445 -0.0202
  716MOL0     H96653   1.741   9.751   3.852  0.8559 -0.3580  0.7657
  716MOL0     H96654   1.822   9.872   3.639 -0.7319  0.5539 -0.2851
  716MOL0     H96655   1.863   9.718   3.564  0.2817  1.0392 -0.1934
  716MOL0     H96656   2.011   9.664   3.762 -1.9030 -0.2680 -1.1891
  716MOL0     H96657   1.985   9.826   3.822 -0.6382  0.6479 -1.2076
  716MOL0     H96658   2.225   9.882   3.477 -0.4248  3.0732  0.4756
  716MOL0     H96659   1.373   9.813   3.574  2.0812 -0.1304  0.8473
  716MOL0     H96660   1.154   9.808   3.515  0.5638 -1.4546 -1.2236
  717MOL0     O96661   0.002  10.724   6.920  0.1012  0.4057 -0.1830
  717MOL0     C96662   0.081  10.787   6.996  0.5067  0.3463  0.4879
  717MOL0     O96663   0.043  10.879   7.091 -0.6566  0.0387  0.0519
  717MOL0     C96664  -0.082  10.915   7.090 -0.4880 -0.7494 -0.2133
  717MOL0     C96665  -0.114  11.042   7.033 -0.3081  0.6188 -0.4479
  717MOL0     C96666  -0.242  11.082   7.047 -0.1382  0.6889  0.5436
  717MOL0     C96667  -0.343  11.005   7.112  0.1564 -0.8353 -0.1297
  717MOL0     O96668  -0.473  11.053   7.128  0.1470  0.2967  0.4252
  717MOL0     C96669  -0.538  11.146   7.040  0.4104 -0.5591 -0.3460
  717MOL0     C96670  -0.523  11.286   7.102 -0.3640 -0.7827 -0.4414
  717MOL0     C96671  -0.644  11.369   7.075  0.0790  0.2727  0.3334
  717MOL0     C96672  -0.751  11.351   7.187 -0.7830 -0.2985 -0.4880
  717MOL0     C96673  -0.889  11.417   7.143 -0.4862  0.0252  0.9125
  717MOL0     C96674  -0.999  11.407   7.246 -0.4254 -0.2696 -0.0482
  717MOL0     C96675  -1.126  11.478   7.214 -1.1542  0.0292 -0.0657
  717MOL0     C96676  -1.178  11.447   7.076  0.9618  0.2650  0.1866
  717MOL0     N96677  -1.294  11.532   7.045 -0.7500  0.1009 -0.2189
  717MOL0     C96678  -1.348  11.643   7.112  0.4657 -0.0612  0.4646
  717MOL0     C96679  -1.467  11.666   7.048 -0.5782  0.0398  0.0076
  717MOL0     C96680  -1.574  11.741   7.111 -0.0064  0.5797  0.4899
  717MOL0     C96681  -1.567  11.893   7.089  0.1943 -0.1392 -0.3579
  717MOL0     C96682  -1.705  11.947   7.086 -0.7765  0.0592 -0.0636
  717MOL0     C96683  -1.703  12.099   7.082  0.0127 -0.0288 -0.4644
  717MOL0     O96684  -1.822  12.125   7.012  0.1447 -0.3776 -0.0631
  717MOL0     C96685  -1.911  12.203   7.078 -0.3122 -0.4019 -0.4182
  717MOL0     C96686  -1.969  12.317   7.018 -0.2655  0.2179 -0.2077
  717MOL0     C96687  -2.072  12.389   7.080  0.0974  0.3126  0.0650
  717MOL0     C96688  -2.113  12.502   6.993  0.5779  0.0690 -0.6894
  717MOL0     C96689  -2.118  12.361   7.217  0.4934  0.1917  0.6452
  717MOL0     C96690  -2.226  12.425   7.283 -0.8790 -0.1349 -0.3821
  717MOL0     O96691  -2.253  12.380   7.410  0.0717  0.4448 -0.2406
  717MOL0     C96692  -2.317  12.461   7.498  0.3301 -0.6986  0.0817
  717MOL0     C96693  -2.430  12.401   7.551  0.4754 -0.5741 -0.4305
  717MOL0     C96694  -2.514  12.475   7.641 -0.9400  0.0935  0.5366
  717MOL0     C96695  -2.480  12.609   7.663 -0.5189  0.5562 -0.5797
  717MOL0     O96696  -2.538  12.676   7.758  0.1033  1.0312 -0.3358
  717MOL0     C96697  -2.682  12.676   7.777 -0.3983  0.0396  0.3804
  717MOL0     C96698  -2.727  12.600   7.898  0.2893  0.0275  0.3004
  717MOL0     C96699  -2.678  12.662   8.021 -0.8569  0.0455  0.6229
  717MOL0     C96700  -2.528  12.649   8.048  0.1073 -1.1053  0.0490
  717MOL0     C96701  -2.489  12.674   8.200  0.6854  1.1502  0.2042
  717MOL0     C96702  -2.345  12.635   8.234 -0.3422  0.2022  0.4651
  717MOL0     C96703  -2.251  12.744   8.202 -0.7552 -1.5283 -0.4382
  717MOL0     C96704  -2.102  12.696   8.201 -0.2232 -0.2296 -0.1044
  717MOL0    Cl96705  -1.995  12.835   8.184  0.0984  0.0647  0.3601
  717MOL0     C96706  -2.370  12.672   7.610  0.3161 -0.3559 -0.0333
  717MOL0     C96707  -2.290  12.600   7.515  0.7599 -1.0335  0.2891
  717MOL0     O96708  -2.285  12.518   7.233  0.3835 -0.0092 -0.1305
  717MOL0     C96709  -2.066  12.244   7.263 -0.0205 -0.3592  0.0038
  717MOL0     C96710  -1.961  12.167   7.205 -0.0826  0.3619  0.1239
  717MOL0     N96711  -1.478  11.575   6.941 -0.1762  0.3989  0.4945
  717MOL0     N96712  -1.372  11.505   6.940  0.3929  0.0939 -0.2232
  717MOL0     C96713  -0.306  10.876   7.168  0.6891 -0.1976 -0.1146
  717MOL0     C96714  -0.177  10.832   7.152  0.1807  0.9946  0.2662
  717MOL0     C96715   0.230  10.760   7.010  0.4118 -0.0455  1.6413
  717MOL0     C96716   0.294  10.670   6.915 -0.2601 -0.0365  0.3853
  717MOL0     C96717   0.437  10.655   6.905 -0.3461 -0.1110 -0.2889
  717MOL0     C96718   0.507  10.727   6.995  0.1627 -0.1794  0.2637
  717MOL0     O96719   0.645  10.725   7.001  0.1857  0.3447 -1.2079
  717MOL0     C96720   0.725  10.667   6.895 -0.4166 -0.7871  0.2033
  717MOL0     C96721   0.872  10.678   6.925 -0.4375  0.3601 -0.4659
  717MOL0     C96722   0.917  10.820   6.968  0.0572  0.2816 -0.3389
  717MOL0     C96723   1.067  10.817   7.024 -0.2910 -0.2403 -0.1274
  717MOL0     C96724   1.118  10.952   7.054  0.3246  0.4153 -0.7977
  717MOL0     C96725   1.151  11.067   7.077 -0.1739 -0.3975  0.5808
  717MOL0     C96726   0.453  10.818   7.085 -0.1267  0.3283 -0.3942
  717MOL0     C96727   0.314  10.842   7.084  0.3235 -0.3964 -0.3168
  717MOL0     H96728  -0.040  11.100   6.980  0.0959 -0.0848 -0.6649
  717MOL0     H96729  -0.278  11.174   7.003  1.0998  0.5114 -0.9351
  717MOL0     H96730  -0.496  11.144   6.939  3.7170  0.0444  0.8928
  717MOL0     H96731  -0.641  11.113   7.055  0.9516 -2.2931 -0.3067
  717MOL0     H96732  -0.510  11.284   7.210 -0.9449  1.5565 -0.2735
  717MOL0     H96733  -0.433  11.327   7.056  0.6175 -0.3600  1.7368
  717MOL0     H96734  -0.622  11.476   7.082 -2.1606  0.7024  1.6045
  717MOL0     H96735  -0.682  11.340   6.977  0.0047  4.8372 -1.1846
  717MOL0     H96736  -0.783  11.248   7.206  0.6195 -0.4487  1.3372
  717MOL0     H96737  -0.713  11.394   7.280  1.9490 -1.6877 -0.8377
  717MOL0     H96738  -0.861  11.519   7.115  0.7642 -0.1522  1.4769
  717MOL0     H96739  -0.919  11.367   7.051 -1.3766  2.4392 -0.2034
  717MOL0     H96740  -1.018  11.300   7.263 -0.3820 -0.7802 -2.7544
  717MOL0     H96741  -0.962  11.448   7.341 -1.3685  0.6190 -0.0505
  717MOL0     H96742  -1.197  11.447   7.291  1.7991 -3.5596  1.5342
  717MOL0     H96743  -1.101  11.584   7.213  0.5221 -0.2780 -2.9495
  717MOL0     H96744  -1.201  11.344   7.051  2.1026  0.3541 -1.4294
  717MOL0     H96745  -1.106  11.471   6.996  0.4527 -1.9705 -1.0133
  717MOL0     H96746  -1.303  11.679   7.204  1.8044 -4.9700  2.0161
  717MOL0     H96747  -1.671  11.700   7.079  0.2422  2.5036 -3.1952
  717MOL0     H96748  -1.573  11.719   7.218  1.4076  1.8086  0.7573
  717MOL0     H96749  -1.515  11.894   6.992  0.2810 -0.0323 -0.3101
  717MOL0     H96750  -1.502  11.930   7.168 -1.5257  0.6185  0.7562
  717MOL0     H96751  -1.745  11.909   7.181  0.2803 -2.9327 -0.7080
  717MOL0     H96752  -1.762  11.916   6.998 -0.4602  2.5155 -1.2276
  717MOL0     H96753  -1.628  12.122   7.006  0.7692  2.7084  0.9937
  717MOL0     H96754  -1.687  12.154   7.174 -0.3375 -2.0240  0.8586
  717MOL0     H96755  -1.934  12.348   6.919  3.2163 -3.2215 -0.3005
  717MOL0     H96756  -2.149  12.582   7.059 -0.2112 -1.0958  0.3688
  717MOL0     H96757  -2.031  12.537   6.930 -0.1022  1.0857 -1.0409
  717MOL0     H96758  -2.197  12.476   6.928  0.0490 -0.7000  0.2741
  717MOL0     H96759  -2.462  12.300   7.528  0.0363 -0.7533  0.8735
  717MOL0     H96760  -2.604  12.439   7.689 -1.2404  1.7719  1.3011
  717MOL0     H96761  -2.720  12.778   7.786  0.2649  0.3565 -0.3247
  717MOL0     H96762  -2.731  12.639   7.686  1.0586  1.4108 -1.0314
  717MOL0     H96763  -2.836  12.600   7.888  0.0564 -1.9983  1.9200
  717MOL0     H96764  -2.694  12.495   7.892 -1.1619 -0.4986  1.0339
  717MOL0     H96765  -2.724  12.610   8.105 -0.0441 -1.0773  0.3979
  717MOL0     H96766  -2.714  12.765   8.026 -0.5785  0.0866  2.0324
  717MOL0     H96767  -2.498  12.549   8.015 -1.1626 -1.3895 -0.3010
  717MOL0     H96768  -2.476  12.717   7.980 -2.2505  0.2491 -0.5075
  717MOL0     H96769  -2.545  12.608   8.267  3.0456 -0.0687  1.0806
  717MOL0     H96770  -2.504  12.776   8.236 -0.0952  0.7516  1.0387
  717MOL0     H96771  -2.340  12.610   8.341  0.1192 -4.2124 -0.3950
  717MOL0     H96772  -2.309  12.547   8.181  1.5091  1.5030 -0.5511
  717MOL0     H96773  -2.260  12.835   8.261 -0.2153 -1.5465 -0.3226
  717MOL0     H96774  -2.274  12.787   8.104 -1.9225  3.5203  1.7194
  717MOL0     H96775  -2.088  12.632   8.113 -1.9393 -1.6053  0.5454
  717MOL0     H96776  -2.076  12.640   8.291  3.2059 -1.5056 -1.7213
  717MOL0     H96777  -2.341  12.774   7.633  3.8221 -1.1417 -0.3826
  717MOL0     H96778  -2.203  12.647   7.469  1.8569 -1.6926  1.6110
  717MOL0     H96779  -2.081  12.210   7.365 -1.5587 -0.3203 -0.1859
  717MOL0     H96780  -1.911  12.083   7.251  0.7055  0.0247 -1.2816
  717MOL0     H96781  -0.397  10.828   7.204  1.1856 -1.0343  0.0555
  717MOL0     H96782  -0.158  10.727   7.174  0.6902  0.0910 -3.6728
  717MOL0     H96783   0.228  10.638   6.835 -0.4962  1.8044 -0.2075
  717MOL0     H96784   0.475  10.592   6.825  1.2913 -0.1967  0.5109
  717MOL0     H96785   0.707  10.560   6.884 -2.0322 -0.7608  2.1269
  717MOL0     H96786   0.708  10.719   6.800 -4.5097 -3.9887 -1.0761
  717MOL0     H96787   0.919  10.651   6.830 -2.3751 -0.0922 -1.3290
  717MOL0     H96788   0.894  10.606   7.004  0.5204  1.5935  0.4460
  717MOL0     H96789   0.857  10.855   7.053  1.7981  1.7138  0.3682
  717MOL0     H96790   0.917  10.887   6.881 -0.4139  1.4420  0.5234
  717MOL0     H96791   1.145  10.786   6.955  0.3757  3.3889 -1.2306
  717MOL0     H96792   1.062  10.758   7.116 -0.0245 -0.3113 -0.1587
  717MOL0     H96793   1.184  11.169   7.082  0.7580 -0.4811 -2.1044
  717MOL0     H96794   0.530  10.855   7.151  1.0399 -1.9226 -0.3886
  717MOL0     H96795   0.276  10.912   7.158  1.0760 -0.3546  0.0323
  718MOL0     O96796   1.674   1.745   4.435  0.1177  0.9538  0.2176
  718MOL0     C96797   1.740   1.666   4.368 -0.2756 -0.7411 -0.4813
  718MOL0     O96798   1.683   1.566   4.289  0.1492  0.2041  0.5305
  718MOL0     C96799   1.554   1.573   4.268  0.1044  0.6252  0.3382
  718MOL0     C96800   1.502   1.605   4.140  0.3303  0.4239 -1.0427
  718MOL0     C96801   1.362   1.628   4.116 -0.2279 -0.2196 -0.1390
  718MOL0     C96802   1.267   1.608   4.214 -0.8028  0.4284 -0.5139
  718MOL0     O96803   1.129   1.609   4.201  0.0336 -0.3633 -0.2557
  718MOL0     C96804   1.067   1.642   4.075 -0.5903 -0.6202 -0.7566
  718MOL0     C96805   0.923   1.589   4.083  0.0444 -0.4172 -0.1114
  718MOL0     C96806   0.832   1.649   3.970  0.0210 -0.4662 -0.2852
  718MOL0     C96807   0.688   1.594   3.967 -0.0466 -0.3787 -1.1037
  718MOL0     C96808   0.591   1.670   3.871 -0.0728  0.0813  0.4743
  718MOL0     C96809   0.630   1.653   3.723  0.0797 -0.3114 -0.0259
  718MOL0     C96810   0.525   1.712   3.625 -0.0834 -0.4827 -0.4149
  718MOL0     C96811   0.585   1.741   3.489 -0.0140  0.5611 -0.1569
  718MOL0     N96812   0.490   1.822   3.412 -0.3519  0.0163 -0.1037
  718MOL0     C96813   0.362   1.782   3.386  0.3362 -0.5905  0.0939
  718MOL0     C96814   0.304   1.886   3.326  0.4944 -0.6658  0.7426
  718MOL0     C96815   0.147   1.889   3.292 -0.0237  0.6491 -0.0623
  718MOL0     C96816   0.120   1.878   3.141 -0.0760 -1.1818  0.6171
  718MOL0     C96817  -0.033   1.901   3.115 -0.1633  0.3021 -0.2610
  718MOL0     C96818  -0.075   1.934   2.979  0.8265 -0.9964  0.3736
  718MOL0     O96819  -0.213   1.965   2.975 -0.0812  0.1886 -0.0413
  718MOL0     C96820  -0.283   1.986   2.862  0.0396  0.8006 -0.3107
  718MOL0     C96821  -0.220   2.019   2.743  0.4307 -0.2930  0.4965
  718MOL0     C96822  -0.306   2.034   2.631 -0.2332 -0.6459  0.3691
  718MOL0     C96823  -0.224   2.057   2.510 -0.5795  0.2537  0.4489
  718MOL0     C96824  -0.446   2.024   2.633  0.5176 -0.2284  0.2114
  718MOL0     C96825  -0.535   2.016   2.518 -0.9762  0.2774 -0.3078
  718MOL0     O96826  -0.658   1.960   2.542 -0.3955  0.5605  0.0309
  718MOL0     C96827  -0.764   1.956   2.454 -0.2491 -0.2258 -0.4963
  718MOL0     C96828  -0.887   1.918   2.502  0.3143 -0.0028 -0.2598
  718MOL0     C96829  -0.997   1.895   2.410  0.0321 -0.2655  0.1386
  718MOL0     C96830  -0.986   1.902   2.273  0.2742  0.8669 -0.1489
  718MOL0     O96831  -1.081   1.869   2.178  0.2544  0.1569 -0.4239
  718MOL0     C96832  -1.207   1.839   2.226  0.5724 -0.0247 -0.1424
  718MOL0     C96833  -1.289   1.793   2.106 -0.0430  0.0447 -0.4779
  718MOL0     C96834  -1.441   1.780   2.139  0.5163  0.4804  0.5738
  718MOL0     C96835  -1.531   1.744   2.022 -0.4758 -0.4952  0.4076
  718MOL0     C96836  -1.682   1.767   2.052  0.7261 -0.9367  0.1589
  718MOL0     C96837  -1.766   1.758   1.922 -0.7009 -0.8297  0.9643
  718MOL0     C96838  -1.913   1.738   1.952  0.5079 -0.5324 -0.4970
  718MOL0     C96839  -1.998   1.795   1.839 -0.2972  0.6873 -0.0978
  718MOL0    Cl96840  -1.938   1.724   1.679 -0.2760 -0.3076  0.0628
  718MOL0     C96841  -0.856   1.936   2.223  0.2806 -0.4540 -0.6848
  718MOL0     C96842  -0.747   1.955   2.314 -0.2072 -0.9867  0.4274
  718MOL0     O96843  -0.497   2.063   2.411  0.6140  0.0415 -0.1479
  718MOL0     C96844  -0.502   1.995   2.763  0.1406 -0.7715 -0.4934
  718MOL0     C96845  -0.421   1.975   2.874  1.0311 -0.6638  0.2495
  718MOL0     N96846   0.395   1.989   3.323 -0.4830 -0.5085  0.4085
  718MOL0     N96847   0.509   1.948   3.361 -0.0833  0.3238 -0.8777
  718MOL0     C96848   1.317   1.589   4.343 -0.4243  0.7897 -0.1393
  718MOL0     C96849   1.455   1.567   4.373  0.4771  0.8841  1.1625
  718MOL0     C96850   1.890   1.688   4.367 -0.2463  0.0731  0.3226
  718MOL0     C96851   1.958   1.738   4.475 -0.7277 -0.4813  0.5570
  718MOL0     C96852   2.101   1.756   4.467  0.3217  1.3323  0.5452
  718MOL0     C96853   2.172   1.713   4.357  0.7669  0.1064 -0.3858
  718MOL0     O96854   2.308   1.743   4.343  0.2251 -0.0551 -0.2083
  718MOL0     C96855   2.381   1.649   4.271  0.0714 -0.2054  0.1576
  718MOL0     C96856   2.516   1.695   4.269  0.2426 -1.2730  0.1526
  718MOL0     C96857   2.633   1.582   4.255  1.0727  0.0878 -0.7103
  718MOL0     C96858   2.769   1.650   4.243  0.4671 -0.2263  1.0831
  718MOL0     C96859   2.771   1.714   4.113 -0.2387  0.0722  0.5505
  718MOL0     C96860   2.776   1.758   3.999 -0.2243 -0.0723 -0.9696
  718MOL0     C96861   2.093   1.683   4.242  0.1208  0.5213 -0.2248
  718MOL0     C96862   1.959   1.672   4.246  0.5979  0.6460 -0.2661
  718MOL0     H96863   1.576   1.623   4.063  3.4237  0.0030  1.6293
  718MOL0     H96864   1.342   1.658   4.014 -1.1140  0.1417  0.1370
  718MOL0     H96865   1.059   1.750   4.058 -1.7001 -0.3796  1.0454
  718MOL0     H96866   1.120   1.592   3.993  1.5973 -2.5604  1.6860
  718MOL0     H96867   0.921   1.480   4.080  2.3107 -0.5796  1.7854
  718MOL0     H96868   0.891   1.631   4.179  0.0531  0.7703 -0.6127
  718MOL0     H96869   0.834   1.757   3.989 -0.0062  0.1839 -3.3476
  718MOL0     H96870   0.884   1.633   3.875  2.1296 -0.1929  0.7560
  718MOL0     H96871   0.701   1.488   3.944  1.2360 -0.1471 -1.5478
  718MOL0     H96872   0.648   1.606   4.067  1.4135 -0.8850 -0.4308
  718MOL0     H96873   0.495   1.619   3.887 -0.5007  0.4702 -0.7888
  718MOL0     H96874   0.586   1.774   3.906  0.1708 -0.6049  2.6967
  718MOL0     H96875   0.728   1.698   3.703  0.3517 -1.6005 -1.9216
  718MOL0     H96876   0.643   1.546   3.700  3.1274 -0.0851  0.2168
  718MOL0     H96877   0.448   1.635   3.618  0.2192 -0.8189 -0.1377
  718MOL0     H96878   0.474   1.800   3.664  0.6590  0.8391 -2.2840
  718MOL0     H96879   0.610   1.649   3.436  1.1793 -0.3400  1.8648
  718MOL0     H96880   0.669   1.812   3.499 -0.3305  1.0389 -0.8498
  718MOL0     H96881   0.317   1.688   3.416  0.7720 -0.1954  2.1230
  718MOL0     H96882   0.104   1.807   3.351 -1.8272  2.6307  1.5438
  718MOL0     H96883   0.095   1.974   3.336 -0.8647  0.4131 -0.5675
  718MOL0     H96884   0.155   1.785   3.095 -0.4961 -0.2129 -1.8096
  718MOL0     H96885   0.170   1.962   3.093  0.0218 -2.1823 -1.1202
  718MOL0     H96886  -0.072   1.985   3.172 -1.2082  1.6201 -2.7654
  718MOL0     H96887  -0.088   1.809   3.136 -0.0087  0.5665  1.4586
  718MOL0     H96888  -0.043   1.860   2.905  2.1741  1.4078 -1.6188
  718MOL0     H96889  -0.024   2.027   2.953  0.6216 -0.6404  1.2066
  718MOL0     H96890  -0.112   2.029   2.738  0.2908  1.4252  0.1928
  718MOL0     H96891  -0.273   2.138   2.455  1.7561  1.5473  0.1714
  718MOL0     H96892  -0.120   2.083   2.529 -0.8281  0.1944  2.0432
  718MOL0     H96893  -0.218   1.975   2.437  0.7268  2.1802 -1.7668
  718MOL0     H96894  -0.899   1.907   2.610  1.5435  1.5710  0.0819
  718MOL0     H96895  -1.092   1.884   2.460  1.7182 -0.3444  3.6277
  718MOL0     H96896  -1.204   1.764   2.306 -1.1706  0.2865  0.2647
  718MOL0     H96897  -1.258   1.930   2.260 -1.2891 -0.7565 -0.8161
  718MOL0     H96898  -1.280   1.863   2.023  1.6469  1.1436  0.5503
  718MOL0     H96899  -1.251   1.698   2.069 -1.2402 -0.5882 -0.1246
  718MOL0     H96900  -1.474   1.871   2.191 -0.6811 -1.5047  3.5275
  718MOL0     H96901  -1.452   1.709   2.222  1.3552 -0.8306 -0.3977
  718MOL0     H96902  -1.521   1.809   1.935 -1.0202 -1.2705 -0.2443
  718MOL0     H96903  -1.514   1.642   1.988 -0.1022  0.3849 -2.3356
  718MOL0     H96904  -1.702   1.868   2.091 -0.3286 -0.6338 -1.1114
  718MOL0     H96905  -1.716   1.691   2.123  0.7371 -0.8773  0.2274
  718MOL0     H96906  -1.753   1.855   1.873 -0.4315 -0.6229  1.4406
  718MOL0     H96907  -1.723   1.678   1.861 -1.0037 -0.6023  0.4430
  718MOL0     H96908  -1.946   1.783   2.046  1.1470 -0.2669 -0.3946
  718MOL0     H96909  -1.921   1.631   1.976 -2.2047 -0.7309 -1.8467
  718MOL0     H96910  -1.978   1.902   1.830  1.6579  0.5096  1.4187
  718MOL0     H96911  -2.106   1.782   1.845 -0.5699  1.4547 -2.4725
  718MOL0     H96912  -0.857   1.939   2.114 -0.9123  0.3138 -0.6750
  718MOL0     H96913  -0.648   1.968   2.271 -0.7752 -2.9772 -1.6644
  718MOL0     H96914  -0.607   1.983   2.785  0.7173  1.3218  5.0480
  718MOL0     H96915  -0.464   1.954   2.971 -4.4783 -2.1701 -2.1371
  718MOL0     H96916   1.247   1.592   4.426 -0.0843  1.3799  0.1355
  718MOL0     H96917   1.489   1.556   4.476  2.8896 -0.3711  0.3090
  718MOL0     H96918   1.892   1.767   4.557  0.9483  2.5020  1.0066
  718MOL0     H96919   2.161   1.812   4.538  1.1477  1.8883 -0.5642
  718MOL0     H96920   2.377   1.551   4.321 -2.4997 -0.1581  0.1640
  718MOL0     H96921   2.342   1.642   4.170 -0.5029  0.2839  0.3417
  718MOL0     H96922   2.528   1.761   4.356 -2.3302  1.1895 -1.1899
  718MOL0     H96923   2.521   1.772   4.191 -0.2441  0.7496  2.0229
  718MOL0     H96924   2.610   1.515   4.171 -0.7838  3.0484 -2.7308
  718MOL0     H96925   2.641   1.523   4.346  6.2770  0.4891 -0.6134
  718MOL0     H96926   2.845   1.571   4.244  1.0780  0.1875 -2.2474
  718MOL0     H96927   2.794   1.724   4.320  0.3866  1.2303 -0.2388
  718MOL0     H96928   2.770   1.808   3.905 -0.5267  0.0958 -0.8614
  718MOL0     H96929   2.148   1.654   4.154  2.5795  0.4566  1.2420
  718MOL0     H96930   1.909   1.628   4.160 -0.3475 -2.3159  1.6397
  719MOL0     O96931  11.354   1.928   0.685  0.4278 -0.3548  0.2282
  719MOL0     C96932  11.268   1.929   0.772 -0.4948 -0.3171  0.1766
  719MOL0     O96933  11.292   1.931   0.904 -0.1837  0.0063  0.0233
  719MOL0     C96934  11.422   1.936   0.939  0.6187  1.3516 -0.0943
  719MOL0     C96935  11.474   2.059   0.966 -0.3769  0.2793  0.1823
  719MOL0     C96936  11.609   2.061   0.993 -0.0649 -0.5567 -0.8404
  719MOL0     C96937  11.694   1.952   1.011 -0.8805  0.6270  0.4040
  719MOL0     O96938  11.823   1.987   1.047  0.2036  0.3881  0.3413
  719MOL0     C96939  11.900   1.869   1.052  0.3242 -0.3934 -0.1354
  719MOL0     C96940  12.042   1.922   1.063 -0.1788 -0.2126 -0.2402
  719MOL0     C96941  12.099   1.951   0.924  0.3074  0.1882 -0.2374
  719MOL0     C96942  12.171   1.834   0.857  0.6681 -0.7438  0.1777
  719MOL0     C96943  12.178   1.856   0.707  0.3490 -0.1140 -0.6650
  719MOL0     C96944  12.277   1.971   0.674  0.3374 -0.4970 -0.4062
  719MOL0     C96945  12.286   2.006   0.527  0.0298  0.1358 -0.2344
  719MOL0     C96946  12.357   2.144   0.502 -0.3036  0.1013  0.2554
  719MOL0     N96947  12.510   2.136   0.515  0.3190  0.5217  0.2794
  719MOL0     C96948  12.594   2.128   0.407  0.5049 -0.1271  0.8285
  719MOL0     C96949  12.717   2.176   0.440  0.0607  0.1448 -0.4328
  719MOL0     C96950  12.833   2.216   0.351 -0.5908  0.1846 -0.5861
  719MOL0     C96951  12.956   2.128   0.383 -0.4154  0.9769 -0.8216
  719MOL0     C96952  13.054   2.184   0.482  0.3766 -0.3909 -0.4623
  719MOL0     C96953  13.166   2.088   0.521  0.4766  0.4776  0.2069
  719MOL0     O96954  13.126   1.989   0.616  0.1427 -1.4631  0.0614
  719MOL0     C96955  13.082   2.039   0.740 -1.0758  0.1121 -0.9646
  719MOL0     C96956  13.172   2.093   0.829  0.4929  0.3090  0.1646
  719MOL0     C96957  13.137   2.139   0.958  0.1495  0.7363  0.0469
  719MOL0     C96958  13.247   2.188   1.045  0.7513  0.0661 -0.2547
  719MOL0     C96959  13.006   2.132   0.995 -0.5224  0.7326  0.2427
  719MOL0     C96960  12.969   2.163   1.139 -0.1093  0.4349  0.5714
  719MOL0     O96961  12.917   2.291   1.158  0.1149  0.5163  0.0670
  719MOL0     C96962  12.873   2.321   1.286  0.0776 -0.0775  0.5076
  719MOL0     C96963  12.916   2.442   1.334 -0.5366 -0.8938 -0.2137
  719MOL0     C96964  12.862   2.500   1.451  1.1276 -0.5779 -1.2536
  719MOL0     C96965  12.789   2.420   1.536  0.3364  0.0908 -0.8626
  719MOL0     O96966  12.750   2.475   1.650  0.2667  0.3349  0.3824
  719MOL0     C96967  12.606   2.488   1.652 -0.3165 -0.7828  0.1885
  719MOL0     C96968  12.549   2.613   1.727 -0.0212  0.4558 -0.8897
  719MOL0     C96969  12.401   2.584   1.753 -0.3434  1.3501 -0.2018
  719MOL0     C96970  12.332   2.701   1.809 -0.1996 -0.3021  0.0225
  719MOL0     C96971  12.176   2.679   1.788 -0.1730  0.1057 -0.1162
  719MOL0     C96972  12.093   2.798   1.833  0.1743 -0.6387 -0.6564
  719MOL0     C96973  11.942   2.792   1.792 -0.0877  0.3128 -0.2589
  719MOL0     C96974  11.842   2.842   1.896  0.2440  0.3086  0.2032
  719MOL0    Cl96975  11.675   2.821   1.817 -0.7069 -0.6470 -0.1507
  719MOL0     C96976  12.752   2.298   1.499 -0.1406  0.2897  0.8915
  719MOL0     C96977  12.779   2.254   1.366  0.6896  0.2742 -0.3880
  719MOL0     O96978  12.974   2.079   1.226  0.2559 -0.9195 -0.4938
  719MOL0     C96979  12.914   2.081   0.906 -0.0080  0.1064 -0.3755
  719MOL0     C96980  12.952   2.032   0.784  0.2415  0.8017  0.1249
  719MOL0     N96981  12.713   2.206   0.576  0.6325 -1.0920 -1.1167
  719MOL0     N96982  12.590   2.176   0.619 -0.5738  1.1496 -0.0054
  719MOL0     C96983  11.633   1.824   0.993  0.7020 -1.0835  0.6030
  719MOL0     C96984  11.499   1.821   0.956 -0.6959  0.2842  0.2271
  719MOL0     C96985  11.125   1.933   0.737 -0.5668  0.4709 -0.0735
  719MOL0     C96986  11.021   1.930   0.838  0.3872  0.3598  0.5362
  719MOL0     C96987  10.882   1.926   0.798  0.0650 -0.6753  0.1167
  719MOL0     C96988  10.853   1.936   0.660  0.1042 -0.0818 -0.0128
  719MOL0     O96989  10.722   1.919   0.612 -0.5995  0.1918 -0.2517
  719MOL0     C96990  10.616   1.976   0.687 -0.0247  0.9675  0.1971
  719MOL0     C96991  10.632   2.126   0.707 -0.1053 -0.6106  0.5002
  719MOL0     C96992  10.650   2.198   0.570  0.5048  0.2615  0.4262
  719MOL0     C96993  10.531   2.205   0.478  0.7126 -0.0039  0.1544
  719MOL0     C96994  10.412   2.261   0.546  0.5273 -1.1612  0.6477
  719MOL0     C96995  10.311   2.306   0.594 -0.0916 -0.7341 -0.2110
  719MOL0     C96996  10.957   1.934   0.564 -0.0851 -0.1988  0.2582
  719MOL0     C96997  11.089   1.932   0.604  0.4973 -0.5664  0.8743
  719MOL0     H96998  11.411   2.145   0.946  0.8820  1.0800 -0.4342
  719MOL0     H96999  11.651   2.161   0.984 -1.4677 -0.0551 -2.2225
  719MOL0     H97000  11.867   1.809   1.136 -1.0640  2.1708  1.2758
  719MOL0     H97001  11.899   1.799   0.968 -1.9964 -0.4842 -0.0921
  719MOL0     H97002  12.037   2.013   1.124 -2.0547  2.2029 -3.6668
  719MOL0     H97003  12.099   1.846   1.116 -0.4951 -0.8496 -0.7975
  719MOL0     H97004  12.023   1.975   0.849 -0.2638 -3.1927 -0.8972
  719MOL0     H97005  12.168   2.035   0.936  1.1841 -0.3346 -1.4749
  719MOL0     H97006  12.269   1.821   0.903  0.6827  2.9023  1.5393
  719MOL0     H97007  12.117   1.740   0.871  0.0159 -0.1986  1.4698
  719MOL0     H97008  12.218   1.769   0.654  1.7657  1.6882 -2.7435
  719MOL0     H97009  12.078   1.880   0.669 -0.7147 -0.5400  1.7293
  719MOL0     H97010  12.266   2.055   0.742 -0.7339 -1.5766  0.8043
  719MOL0     H97011  12.375   1.933   0.704  0.3137  1.3757  2.4416
  719MOL0     H97012  12.334   1.927   0.469  3.6419 -0.2149  2.8645
  719MOL0     H97013  12.187   2.020   0.482 -1.0145 -1.7145  1.3424
  719MOL0     H97014  12.311   2.213   0.573 -0.4816 -1.9687  2.2768
  719MOL0     H97015  12.334   2.178   0.400 -1.2872 -0.5764  0.2346
  719MOL0     H97016  12.554   2.109   0.308 -4.7447  1.9136  2.2009
  719MOL0     H97017  12.814   2.191   0.246  2.2211  1.0944 -1.4052
  719MOL0     H97018  12.859   2.322   0.364  0.4782 -0.2764  1.4015
  719MOL0     H97019  13.012   2.101   0.293  1.6104 -0.2920  0.7507
  719MOL0     H97020  12.912   2.034   0.418  1.9280 -0.0470 -0.4278
  719MOL0     H97021  13.007   2.228   0.571  0.7052 -1.2173  0.1340
  719MOL0     H97022  13.103   2.272   0.439  2.5217 -0.1787  2.1645
  719MOL0     H97023  13.254   2.147   0.546  1.4698 -0.3704 -1.1260
  719MOL0     H97024  13.180   2.030   0.429  2.1469 -0.9518  1.3059
  719MOL0     H97025  13.278   2.101   0.805  0.5153  0.9528  0.4463
  719MOL0     H97026  13.331   2.210   0.979  0.5083 -0.6934 -0.8256
  719MOL0     H97027  13.215   2.283   1.088 -0.8552  0.9015 -3.0690
  719MOL0     H97028  13.276   2.115   1.121 -3.1342 -0.3642  1.0323
  719MOL0     H97029  12.976   2.499   1.264 -0.4346 -1.5476 -0.6701
  719MOL0     H97030  12.890   2.600   1.484 -0.4457  0.6885 -3.4566
  719MOL0     H97031  12.589   2.509   1.546  3.6374  0.6625 -0.3350
  719MOL0     H97032  12.572   2.389   1.682 -1.2319 -1.2068 -2.0377
  719MOL0     H97033  12.584   2.628   1.830 -0.9673 -0.1680 -0.4577
  719MOL0     H97034  12.558   2.708   1.674  1.1548 -0.3779 -2.2529
  719MOL0     H97035  12.389   2.497   1.817  0.6292  0.8882 -0.6364
  719MOL0     H97036  12.353   2.559   1.658 -0.4823 -1.1410  0.4792
  719MOL0     H97037  12.352   2.716   1.915 -1.7832  0.8826  0.2000
  719MOL0     H97038  12.362   2.788   1.750  1.4585 -0.0876  1.1434
  719MOL0     H97039  12.136   2.592   1.840 -0.7444  1.6364  2.1302
  719MOL0     H97040  12.154   2.666   1.681 -0.2908  2.8422 -0.4935
  719MOL0     H97041  12.101   2.830   1.937 -2.3981  0.4095 -0.7054
  719MOL0     H97042  12.125   2.881   1.770  0.3487  1.8002  2.4163
  719MOL0     H97043  11.910   2.691   1.765 -2.4809  1.6365 -2.8963
  719MOL0     H97044  11.924   2.853   1.703 -0.4205 -0.8060 -0.9729
  719MOL0     H97045  11.864   2.947   1.912  1.6860 -0.3542  3.1650
  719MOL0     H97046  11.848   2.796   1.995 -2.0093  0.4377  0.4350
  719MOL0     H97047  12.690   2.242   1.569  0.5702 -0.1143  1.2061
  719MOL0     H97048  12.719   2.173   1.326 -1.1020  1.3621 -0.0349
  719MOL0     H97049  12.809   2.069   0.932  0.5361 -2.0541  1.0881
  719MOL0     H97050  12.876   1.995   0.716  1.6918 -3.4853  0.5155
  719MOL0     H97051  11.696   1.736   0.982  0.3343 -1.2677 -0.1432
  719MOL0     H97052  11.459   1.721   0.944 -1.1676  0.6271 -1.2550
  719MOL0     H97053  11.048   1.918   0.943  3.3358 -0.0430 -0.1784
  719MOL0     H97054  10.803   1.927   0.872  1.4174  1.7671  1.6892
  719MOL0     H97055  10.523   1.960   0.632  0.6338  2.6689 -1.5231
  719MOL0     H97056  10.607   1.923   0.782  1.7694  0.8225  0.3319
  719MOL0     H97057  10.714   2.143   0.778 -0.0659  0.0948  0.2842
  719MOL0     H97058  10.544   2.168   0.756  0.0412 -2.1032  2.1464
  719MOL0     H97059  10.730   2.157   0.506 -1.3836  1.4627 -2.9917
  719MOL0     H97060  10.683   2.300   0.591  2.0361 -0.7036  3.1295
  719MOL0     H97061  10.506   2.110   0.429 -1.5560  0.8313 -0.4354
  719MOL0     H97062  10.568   2.278   0.406  1.5565 -0.3348  0.2401
  719MOL0     H97063  10.215   2.337   0.631 -0.7085 -2.4058 -0.3140
  719MOL0     H97064  10.943   1.923   0.457  2.2372  0.4020 -0.1520
  719MOL0     H97065  11.157   1.932   0.520 -2.0326 -1.7111 -1.3364
  720MOL0     O97066   5.476   2.074   9.224  0.1634 -0.7456  0.1406
  720MOL0     C97067   5.405   2.180   9.213 -0.3876  0.3969 -0.1289
  720MOL0     O97068   5.279   2.186   9.180  0.0477 -0.1188  0.3498
  720MOL0     C97069   5.204   2.073   9.172 -0.0139 -0.6653 -0.1710
  720MOL0     C97070   5.075   2.076   9.227  0.2687 -0.3290  0.4945
  720MOL0     C97071   5.003   1.958   9.212  0.5099 -0.7208  0.2124
  720MOL0     C97072   5.042   1.839   9.163  0.2979  0.6940  0.5553
  720MOL0     O97073   4.955   1.727   9.151  0.1179  0.1409  0.7171
  720MOL0     C97074   4.816   1.738   9.169  0.3471  0.4674 -0.8157
  720MOL0     C97075   4.745   1.639   9.075 -0.4571 -0.0169  0.0052
  720MOL0     C97076   4.782   1.499   9.120  0.3502 -0.2099 -0.4845
  720MOL0     C97077   4.686   1.453   9.236  0.0670 -0.4366 -0.4073
  720MOL0     C97078   4.744   1.319   9.300  0.3145  0.2622  0.5666
  720MOL0     C97079   4.717   1.189   9.220 -0.5204  0.1787  1.2068
  720MOL0     C97080   4.568   1.170   9.170  0.8318 -0.7000 -0.0620
  720MOL0     C97081   4.558   1.040   9.093  0.0224  0.3212 -0.4047
  720MOL0     N97082   4.423   0.986   9.073  1.1271 -0.0033 -1.0240
  720MOL0     C97083   4.324   1.045   8.996  0.1809 -0.1556  0.5221
  720MOL0     C97084   4.231   0.946   8.990 -0.7100  0.1825 -0.2732
  720MOL0     C97085   4.092   0.942   8.936 -0.4678  0.5635  0.5634
  720MOL0     C97086   4.086   0.878   8.798  0.5894  0.3317  0.0736
  720MOL0     C97087   3.943   0.885   8.752  0.4281  0.5911 -0.3952
  720MOL0     C97088   3.936   0.846   8.608  0.3497  0.1204 -0.3219
  720MOL0     O97089   3.802   0.869   8.555  0.3886 -0.1848 -0.2932
  720MOL0     C97090   3.710   0.764   8.550  0.2225 -0.5341  0.5486
  720MOL0     C97091   3.573   0.808   8.537  0.8637  0.4150  0.2608
  720MOL0     C97092   3.466   0.717   8.514  0.0107  0.0129 -0.5070
  720MOL0     C97093   3.330   0.788   8.496 -0.1368 -0.0483  0.2447
  720MOL0     C97094   3.497   0.578   8.490 -0.3535  0.1027 -0.1223
  720MOL0     C97095   3.398   0.488   8.443 -0.2007 -0.2941 -0.0870
  720MOL0     O97096   3.297   0.532   8.359 -0.2050 -0.2465  0.2443
  720MOL0     C97097   3.180   0.470   8.331 -0.6240  0.8771  0.2690
  720MOL0     C97098   3.066   0.549   8.307  0.6984 -0.7465  0.3484
  720MOL0     C97099   2.938   0.497   8.289 -0.4706 -0.0327  0.5171
  720MOL0     C97100   2.926   0.360   8.277 -0.7794  0.5793  0.5667
  720MOL0     O97101   2.806   0.317   8.227 -0.3137 -0.5553  0.0729
  720MOL0     C97102   2.768   0.185   8.249  0.2368 -0.2915 -0.0855
  720MOL0     C97103   2.622   0.153   8.198 -0.1284 -0.5431 -0.3099
  720MOL0     C97104   2.512   0.255   8.261 -0.1237 -0.3328  1.1474
  720MOL0     C97105   2.369   0.233   8.222  0.5472  0.0239 -0.1643
  720MOL0     C97106   2.280   0.356   8.202  0.2236 -0.1882  0.7961
  720MOL0     C97107   2.171   0.357   8.086 -1.0881  0.0132 -0.4288
  720MOL0     C97108   2.046   0.273   8.119 -0.8958  0.2127 -0.2554
  720MOL0     C97109   1.919   0.343   8.058  0.5752  1.1258  0.0544
  720MOL0    Cl97110   1.938   0.389   7.892  0.1970  0.3320  0.5337
  720MOL0     C97111   3.025   0.281   8.310 -0.1832  0.0707  0.1033
  720MOL0     C97112   3.153   0.330   8.334  0.2290 -0.1992 -0.6025
  720MOL0     O97113   3.413   0.374   8.478  0.1819  0.5829 -0.3264
  720MOL0     C97114   3.630   0.539   8.498  0.2250 -0.2201  0.3991
  720MOL0     C97115   3.730   0.628   8.534 -0.0232 -0.1830  0.2326
  720MOL0     N97116   4.279   0.836   9.055  1.0948 -0.3216  0.2170
  720MOL0     N97117   4.389   0.859   9.111 -0.3753 -0.2117 -0.3177
  720MOL0     C97118   5.169   1.836   9.112  0.3062  0.2485 -0.3358
  720MOL0     C97119   5.246   1.952   9.110 -0.2698  0.2217  0.2285
  720MOL0     C97120   5.473   2.308   9.256 -0.2049 -0.2541 -0.0881
  720MOL0     C97121   5.406   2.428   9.246  0.4278  0.1468  0.1878
  720MOL0     C97122   5.471   2.546   9.291  0.4469 -0.2682  0.0960
  720MOL0     C97123   5.600   2.541   9.335 -0.0587 -0.2069 -0.4011
  720MOL0     O97124   5.674   2.655   9.376  0.0880  0.3241  0.0917
  720MOL0     C97125   5.642   2.783   9.318 -1.1301 -0.3052  0.4085
  720MOL0     C97126   5.740   2.896   9.353  0.6555 -0.0301 -0.5399
  720MOL0     C97127   5.881   2.865   9.304 -0.4729  0.2937  0.4131
  720MOL0     C97128   5.984   2.983   9.318 -0.1870 -0.6030 -1.2555
  720MOL0     C97129   6.018   3.016   9.459 -0.3429 -0.8147  0.3129
  720MOL0     C97130   6.043   3.040   9.579 -0.0383  0.9464  0.3605
  720MOL0     C97131   5.664   2.419   9.343  0.1061  0.2477 -1.2359
  720MOL0     C97132   5.603   2.297   9.312 -0.1943  0.1047 -0.8634
  720MOL0     H97133   5.021   2.165   9.257 -2.4878 -0.8180 -2.4785
  720MOL0     H97134   4.898   1.954   9.242 -0.3332  1.0477 -2.1740
  720MOL0     H97135   4.798   1.709   9.273  2.7336 -1.1586 -0.7672
  720MOL0     H97136   4.776   1.838   9.150 -0.1459  0.7618  1.5168
  720MOL0     H97137   4.636   1.644   9.084 -0.5494  0.4856 -1.3105
  720MOL0     H97138   4.772   1.643   8.970  0.8124  1.2619  0.3452
  720MOL0     H97139   4.787   1.432   9.034 -2.7681  0.6863 -1.4986
  720MOL0     H97140   4.881   1.495   9.165  1.3438  2.3039 -2.2637
  720MOL0     H97141   4.683   1.535   9.309  1.3543 -1.9406  1.4311
  720MOL0     H97142   4.588   1.438   9.190  1.0652  0.8160 -3.0940
  720MOL0     H97143   4.852   1.321   9.281  0.3450 -1.3494  0.4263
  720MOL0     H97144   4.719   1.312   9.406 -0.3558 -0.2716  0.3826
  720MOL0     H97145   4.782   1.187   9.132 -0.3179  0.2616  1.3565
  720MOL0     H97146   4.734   1.100   9.281 -3.8975 -2.3050 -1.0396
  720MOL0     H97147   4.499   1.163   9.254  0.4928  0.1249 -0.2693
  720MOL0     H97148   4.519   1.246   9.110 -0.9223 -1.4194  0.4022
  720MOL0     H97149   4.605   0.967   9.160  0.8092 -1.0485 -2.3656
  720MOL0     H97150   4.618   1.033   9.002  2.8705  0.4823  1.3384
  720MOL0     H97151   4.306   1.148   8.965  0.6474  0.3987  2.0393
  720MOL0     H97152   4.030   0.888   9.008  1.9107 -1.6765  1.0703
  720MOL0     H97153   4.057   1.045   8.926 -1.1860  0.2506 -0.1714
  720MOL0     H97154   4.113   0.773   8.813  0.4837  0.6877  3.7662
  720MOL0     H97155   4.146   0.927   8.721  0.6648 -0.5767 -0.4593
  720MOL0     H97156   3.910   0.990   8.757  1.3062  1.2222 -4.2115
  720MOL0     H97157   3.879   0.816   8.807 -0.5464  1.5611 -0.2568
  720MOL0     H97158   3.959   0.740   8.607 -1.9765 -0.4649  0.9270
  720MOL0     H97159   4.005   0.914   8.557  1.5150 -0.2895  0.6575
  720MOL0     H97160   3.542   0.912   8.548 -3.0786 -0.7052  1.6835
  720MOL0     H97161   3.326   0.870   8.568  0.5064  1.0082 -0.8921
  720MOL0     H97162   3.323   0.843   8.402  2.4397  1.3008  0.7494
  720MOL0     H97163   3.245   0.723   8.520  0.0026  0.0936  1.1299
  720MOL0     H97164   3.081   0.656   8.299 -0.8140 -0.3819  1.8025
  720MOL0     H97165   2.863   0.571   8.262 -1.2646  0.0040  2.6394
  720MOL0     H97166   2.834   0.114   8.198  1.7456 -0.1416  1.5747
  720MOL0     H97167   2.774   0.167   8.357 -0.5271  2.4557  0.4886
  720MOL0     H97168   2.616   0.158   8.089 -1.5424 -3.9043 -0.5064
  720MOL0     H97169   2.588   0.054   8.231  1.7374 -0.3283  2.6315
  720MOL0     H97170   2.545   0.355   8.234 -2.5381 -0.0402 -1.1068
  720MOL0     H97171   2.522   0.236   8.368  0.2302  4.9578  2.2896
  720MOL0     H97172   2.373   0.182   8.125 -0.1100 -2.2726  0.9580
  720MOL0     H97173   2.322   0.169   8.297 -1.4191 -0.5306 -1.7648
  720MOL0     H97174   2.334   0.449   8.181 -1.8532  1.1930  1.3146
  720MOL0     H97175   2.226   0.379   8.294 -2.0525  2.5962 -1.0696
  720MOL0     H97176   2.136   0.458   8.066 -0.1665  0.2430 -0.9480
  720MOL0     H97177   2.227   0.315   8.002  1.1035  2.0216 -0.0890
  720MOL0     H97178   2.043   0.260   8.227 -1.1424  0.8271 -0.1820
  720MOL0     H97179   2.043   0.174   8.074 -1.6079  0.7787 -1.5127
  720MOL0     H97180   1.902   0.433   8.117  3.9578  0.2927  2.6621
  720MOL0     H97181   1.837   0.271   8.072 -0.7782  3.1339  4.2224
  720MOL0     H97182   3.014   0.173   8.313  0.0446  0.0425  2.6991
  720MOL0     H97183   3.235   0.261   8.352  0.8899  0.5373 -0.7196
  720MOL0     H97184   3.657   0.435   8.483 -2.4452 -1.1075  1.1642
  720MOL0     H97185   3.830   0.586   8.531  0.6054  1.0677 -4.5838
  720MOL0     H97186   5.212   1.749   9.064  0.7878  1.2231 -1.7219
  720MOL0     H97187   5.334   1.946   9.046 -1.7090 -2.9286 -1.7036
  720MOL0     H97188   5.311   2.445   9.197 -0.2671 -1.8238  0.7397
  720MOL0     H97189   5.421   2.642   9.281  1.7391  0.3222 -1.0570
  720MOL0     H97190   5.632   2.785   9.209 -4.4213 -1.1472  0.5827
  720MOL0     H97191   5.543   2.806   9.359 -1.8091 -1.0595 -0.7448
  720MOL0     H97192   5.735   2.920   9.460 -1.0003  1.7172 -0.9539
  720MOL0     H97193   5.696   2.980   9.300 -2.9341 -0.5254  1.2770
  720MOL0     H97194   5.868   2.855   9.196 -2.7572 -0.6326  0.7264
  720MOL0     H97195   5.923   2.778   9.354 -2.1147  1.2404  3.6987
  720MOL0     H97196   5.940   3.073   9.275  2.1885  0.3525 -1.8527
  720MOL0     H97197   6.072   2.962   9.257  1.4692  0.8796  0.4760
  720MOL0     H97198   6.062   3.065   9.682 -0.1435  2.1707  0.0889
  720MOL0     H97199   5.762   2.421   9.388 -0.8388 -2.7232  1.3156
  720MOL0     H97200   5.647   2.198   9.312 -1.7970 -0.6268 -0.5250
  721MOL0     O97201  10.979   6.261   6.820 -0.6075  0.6251 -0.3184
  721MOL0     C97202  10.979   6.374   6.858 -0.1708  1.3495  0.1094
  721MOL0     O97203  10.875   6.465   6.837 -1.0007  0.4611  0.6961
  721MOL0     C97204  10.745   6.439   6.802 -0.0068  0.4166 -0.7448
  721MOL0     C97205  10.672   6.554   6.789  0.4484 -0.0938  1.0312
  721MOL0     C97206  10.535   6.553   6.747  0.4950 -0.5799  0.1717
  721MOL0     C97207  10.474   6.430   6.730 -0.6772 -0.7658 -0.4700
  721MOL0     O97208  10.341   6.419   6.694 -0.5327 -0.6493 -0.4610
  721MOL0     C97209  10.262   6.307   6.735 -0.3721 -0.5465 -0.8846
  721MOL0     C97210  10.117   6.330   6.684  0.9114 -0.3705 -0.2883
  721MOL0     C97211  10.017   6.244   6.763  0.0966 -0.0954 -0.2481
  721MOL0     C97212   9.876   6.251   6.697 -0.2579  0.4229  0.1170
  721MOL0     C97213   9.766   6.181   6.788 -0.9703  1.0505 -0.3860
  721MOL0     C97214   9.627   6.190   6.724 -0.2375  0.3016  0.7958
  721MOL0     C97215   9.604   6.146   6.582  0.0312  0.4045  0.3021
  721MOL0     C97216   9.462   6.159   6.531  0.4871  0.7887 -0.1741
  721MOL0     N97217   9.364   6.068   6.590  0.1829 -0.6719 -0.4369
  721MOL0     C97218   9.376   5.930   6.582  0.3006 -0.3471 -1.2168
  721MOL0     C97219   9.291   5.876   6.671 -0.8183 -0.2005  0.4324
  721MOL0     C97220   9.281   5.726   6.690  1.0109 -0.0840  1.0906
  721MOL0     C97221   9.149   5.697   6.753  0.8704 -0.1929 -0.4138
  721MOL0     C97222   9.126   5.737   6.902  0.3856  0.9188  0.5886
  721MOL0     C97223   8.974   5.758   6.937 -0.5520 -0.1673  0.5803
  721MOL0     O97224   8.888   5.657   6.892  0.1907  0.2268  0.8371
  721MOL0     C97225   8.752   5.662   6.919  0.0045 -0.0463  0.2503
  721MOL0     C97226   8.679   5.565   6.861  0.3120 -0.6448  0.4919
  721MOL0     C97227   8.540   5.552   6.881 -0.6990  0.1797  0.3948
  721MOL0     C97228   8.471   5.429   6.824  0.0282 -0.1044 -0.3157
  721MOL0     C97229   8.474   5.638   6.972  0.5506 -0.7908  0.5489
  721MOL0     C97230   8.329   5.645   7.008  0.0991  0.3331  0.4404
  721MOL0     O97231   8.299   5.663   7.144  0.8660 -0.4673 -0.0660
  721MOL0     C97232   8.171   5.689   7.186  0.1900  0.3131  0.1071
  721MOL0     C97233   8.149   5.678   7.324 -0.1324 -0.3720 -0.4496
  721MOL0     C97234   8.019   5.705   7.381 -0.5773 -0.4482 -0.8344
  721MOL0     C97235   7.907   5.742   7.302 -0.5874 -1.0255  0.6968
  721MOL0     O97236   7.783   5.765   7.350 -0.0582 -0.1181  0.4524
  721MOL0     C97237   7.730   5.642   7.414  0.0685 -0.3111 -0.1322
  721MOL0     C97238   7.577   5.638   7.412 -0.3371 -0.3127  0.0865
  721MOL0     C97239   7.532   5.599   7.271  0.7372 -0.1695 -0.1009
  721MOL0     C97240   7.414   5.506   7.253 -0.3921 -0.4240 -0.3215
  721MOL0     C97241   7.370   5.485   7.106  0.5921 -0.5515 -0.5562
  721MOL0     C97242   7.272   5.365   7.083 -0.4493  0.6429  0.3123
  721MOL0     C97243   7.144   5.360   7.165 -0.3013 -0.2869 -0.4329
  721MOL0     C97244   7.025   5.446   7.112 -0.2888 -0.7759 -0.3377
  721MOL0    Cl97245   6.896   5.408   7.222  0.2664  0.3974  0.3019
  721MOL0     C97246   7.928   5.751   7.164 -0.0470  0.1025 -0.5662
  721MOL0     C97247   8.049   5.723   7.105 -0.5595  0.1087  0.1398
  721MOL0     O97248   8.251   5.596   6.921  0.4179  0.6117 -0.1925
  721MOL0     C97249   8.553   5.732   7.036  0.6705 -0.9736  0.1815
  721MOL0     C97250   8.690   5.748   7.001  0.7185  0.5032  0.1792
  721MOL0     N97251   9.210   5.986   6.714 -0.0742 -0.0409  0.7601
  721MOL0     N97252   9.259   6.100   6.667  0.4251 -0.2220 -0.1686
  721MOL0     C97253  10.557   6.314   6.749 -0.2621  0.4004 -0.4047
  721MOL0     C97254  10.686   6.318   6.797 -0.0803 -0.5169 -0.2309
  721MOL0     C97255  11.097   6.418   6.920 -0.2498  0.6438  0.8295
  721MOL0     C97256  11.214   6.340   6.935 -0.7553  0.0948 -0.2633
  721MOL0     C97257  11.323   6.389   7.000  0.0073 -0.7594  0.1771
  721MOL0     C97258  11.326   6.519   7.049  0.1634 -0.7379  0.3733
  721MOL0     O97259  11.433   6.585   7.109 -0.8820 -0.9253 -0.6927
  721MOL0     C97260  11.555   6.579   7.043  0.7076  0.1078 -0.4122
  721MOL0     C97261  11.673   6.535   7.148  0.4816  0.7058  0.1349
  721MOL0     C97262  11.802   6.499   7.074  0.8024 -0.2998 -0.0931
  721MOL0     C97263  11.934   6.514   7.151 -0.8242  0.2217 -0.3580
  721MOL0     C97264  11.921   6.447   7.279 -0.1330 -0.0618  0.1981
  721MOL0     C97265  11.912   6.366   7.368  0.2999 -0.8501  0.1057
  721MOL0     C97266  11.210   6.589   7.045 -0.5951 -0.2223 -0.2458
  721MOL0     C97267  11.098   6.541   6.983 -0.6787 -0.4974  0.0633
  721MOL0     H97268  10.729   6.639   6.826  0.5566 -0.6717  2.2457
  721MOL0     H97269  10.483   6.648   6.737  0.2684 -0.5320  1.6498
  721MOL0     H97270  10.298   6.213   6.693  0.3240 -0.3786 -0.6799
  721MOL0     H97271  10.262   6.313   6.844 -0.1335  2.5508 -0.9655
  721MOL0     H97272  10.097   6.437   6.698  0.2300 -0.5300 -0.0249
  721MOL0     H97273  10.110   6.315   6.576  1.1420 -1.1339 -0.1983
  721MOL0     H97274  10.052   6.141   6.757 -0.8328 -0.3800 -0.9573
  721MOL0     H97275  10.016   6.284   6.865 -1.2720  0.1828 -0.3546
  721MOL0     H97276   9.841   6.353   6.680 -0.3936  0.9594  3.0505
  721MOL0     H97277   9.877   6.212   6.595 -3.3217  2.1783 -0.7022
  721MOL0     H97278   9.792   6.075   6.782 -0.5242  1.2383 -2.2470
  721MOL0     H97279   9.775   6.214   6.892 -0.1309 -2.7927  0.9452
  721MOL0     H97280   9.565   6.120   6.781 -0.7258  1.1339  1.3108
  721MOL0     H97281   9.596   6.294   6.734 -0.8399  0.5154 -2.4366
  721MOL0     H97282   9.674   6.193   6.513  2.5877 -1.9567  1.1009
  721MOL0     H97283   9.629   6.039   6.579 -0.3279  0.3368 -1.1346
  721MOL0     H97284   9.464   6.143   6.422  0.9707 -1.5825  0.1368
  721MOL0     H97285   9.430   6.261   6.556 -1.7301 -0.3698  2.1991
  721MOL0     H97286   9.446   5.873   6.522  2.1053 -0.1149  0.5332
  721MOL0     H97287   9.288   5.682   6.590 -2.4213  0.5463  0.4396
  721MOL0     H97288   9.364   5.689   6.750  0.3582  0.2557  2.2418
  721MOL0     H97289   9.131   5.590   6.740  0.1797 -0.3807  1.7311
  721MOL0     H97290   9.067   5.742   6.697  1.5056  1.9531  0.2766
  721MOL0     H97291   9.167   5.834   6.930 -1.2425  1.0551  2.8041
  721MOL0     H97292   9.172   5.668   6.974 -1.7740  0.3923  1.5275
  721MOL0     H97293   8.933   5.845   6.885  1.8202 -0.2073 -1.5291
  721MOL0     H97294   8.968   5.773   7.045 -0.3695 -1.4299  0.7800
  721MOL0     H97295   8.732   5.495   6.797  2.4666 -1.5030  3.0319
  721MOL0     H97296   8.421   5.365   6.898 -0.0239 -0.7231 -0.8739
  721MOL0     H97297   8.390   5.457   6.756 -1.1188  1.4954  1.6100
  721MOL0     H97298   8.541   5.363   6.773  0.5135 -0.1569  0.4006
  721MOL0     H97299   8.231   5.649   7.390  0.4762 -2.5193 -2.0334
  721MOL0     H97300   8.008   5.703   7.489  1.0960 -2.5335 -0.6407
  721MOL0     H97301   7.767   5.554   7.360  1.1981 -0.1253  0.3053
  721MOL0     H97302   7.767   5.645   7.517  1.0948 -1.7718 -0.4293
  721MOL0     H97303   7.543   5.569   7.490 -2.3909  1.3492  0.7519
  721MOL0     H97304   7.534   5.736   7.435  2.0436  0.5506  1.2127
  721MOL0     H97305   7.605   5.542   7.213 -2.4626 -4.1055 -0.7265
  721MOL0     H97306   7.513   5.694   7.220  0.6069  1.4376  2.7188
  721MOL0     H97307   7.425   5.410   7.304 -0.6593 -1.4802 -2.1891
  721MOL0     H97308   7.333   5.551   7.311 -0.3789 -0.2205 -0.4612
  721MOL0     H97309   7.458   5.465   7.043  2.3130 -1.6231  2.0004
  721MOL0     H97310   7.325   5.582   7.085  0.8723 -0.6665 -1.7723
  721MOL0     H97311   7.247   5.353   6.977  0.9201 -2.0719  0.2116
  721MOL0     H97312   7.332   5.278   7.111  3.3839  3.7625  2.9039
  721MOL0     H97313   7.160   5.403   7.264 -3.6163  0.6662 -0.1958
  721MOL0     H97314   7.118   5.257   7.190  4.3280 -1.7183 -0.4715
  721MOL0     H97315   6.997   5.416   7.011  0.3125 -0.0015 -0.7465
  721MOL0     H97316   7.052   5.552   7.111 -3.0776  0.0618  1.5202
  721MOL0     H97317   7.847   5.801   7.111  1.0685  1.6741 -0.8481
  721MOL0     H97318   8.052   5.721   6.996  0.2798  0.3889  0.1450
  721MOL0     H97319   8.517   5.801   7.111 -3.3209  0.4087 -2.6513
  721MOL0     H97320   8.752   5.804   7.070 -1.2385 -0.3645  2.8302
  721MOL0     H97321  10.513   6.216   6.733  0.1755  0.2171 -0.5265
  721MOL0     H97322  10.744   6.229   6.818 -2.3381 -2.1041 -0.3491
  721MOL0     H97323  11.223   6.238   6.900  0.7485  1.1012 -3.0488
  721MOL0     H97324  11.409   6.323   7.007 -0.1415 -1.2278 -1.9608
  721MOL0     H97325  11.561   6.505   6.963 -1.2378 -0.0314 -0.4707
  721MOL0     H97326  11.582   6.672   6.992  1.6478 -0.6725 -1.3866
  721MOL0     H97327  11.636   6.450   7.205 -0.7190  1.8810  1.1900
  721MOL0     H97328  11.700   6.619   7.213 -3.0267 -0.2554  3.1953
  721MOL0     H97329  11.807   6.559   6.982 -1.6105  0.5622  0.2714
  721MOL0     H97330  11.802   6.394   7.044  2.5910 -1.0621  2.3227
  721MOL0     H97331  11.953   6.619   7.179 -0.9347 -0.0697  0.8869
  721MOL0     H97332  12.018   6.470   7.096 -1.0827  0.7744 -1.2175
  721MOL0     H97333  11.917   6.292   7.445  2.2907 -1.2431 -0.3554
  721MOL0     H97334  11.211   6.689   7.085  1.3109  0.0387 -0.8445
  721MOL0     H97335  11.010   6.603   6.998  0.4191  0.8266  1.4103
  722MOL0     O97336   1.060   9.187   0.472 -0.4505  0.2730 -1.5470
  722MOL0     C97337   1.076   9.194   0.594  1.2423  0.7933  0.0518
  722MOL0     O97338   0.970   9.210   0.686  0.0834  0.1488 -0.5062
  722MOL0     C97339   0.836   9.217   0.652  0.1720 -0.0284  0.4045
  722MOL0     C97340   0.740   9.155   0.739  0.3766  0.4753 -0.5674
  722MOL0     C97341   0.604   9.139   0.701 -0.1866  0.0727  0.2390
  722MOL0     C97342   0.559   9.200   0.577 -0.4758  1.0910 -0.7955
  722MOL0     O97343   0.431   9.197   0.538 -0.7437 -0.6315  0.1735
  722MOL0     C97344   0.318   9.205   0.636 -0.6134  0.1869 -0.1418
  722MOL0     C97345   0.217   9.312   0.587 -0.1679  0.3445  0.0706
  722MOL0     C97346   0.217   9.446   0.650 -0.5349  0.0293 -0.0425
  722MOL0     C97347   0.120   9.548   0.584 -0.7870  1.3519 -0.0144
  722MOL0     C97348   0.123   9.677   0.666 -0.7307 -0.5453  0.1861
  722MOL0     C97349   0.006   9.766   0.651  0.7783 -0.4156  0.8248
  722MOL0     C97350   0.004   9.883   0.754 -0.2147  0.5603 -0.6886
  722MOL0     C97351  -0.109   9.985   0.739  0.4059 -0.5601  0.0906
  722MOL0     N97352  -0.103  10.101   0.834 -0.8396  0.3050  0.3433
  722MOL0     C97353  -0.024  10.210   0.821  0.1105 -0.4145  0.3550
  722MOL0     C97354  -0.071  10.288   0.923  0.3728 -0.2462  0.8741
  722MOL0     C97355  -0.027  10.427   0.946 -0.1315 -1.0027 -0.0267
  722MOL0     C97356   0.089  10.425   1.055 -0.4223  0.2093  0.4421
  722MOL0     C97357   0.135  10.569   1.100  0.6122 -0.4255  1.5039
  722MOL0     C97358   0.251  10.558   1.196 -0.3594  0.7890 -0.0216
  722MOL0     O97359   0.278  10.700   1.236 -0.2088  0.4793  0.3712
  722MOL0     C97360   0.406  10.737   1.227 -0.3926 -0.1659  0.0802
  722MOL0     C97361   0.438  10.806   1.109 -0.1803 -0.1429 -0.0362
  722MOL0     C97362   0.568  10.853   1.083  0.0163  0.1821 -0.5931
  722MOL0     C97363   0.588  10.927   0.959  0.1318  0.0435  0.2677
  722MOL0     C97364   0.668  10.836   1.187 -0.8282 -0.3012  0.3476
  722MOL0     C97365   0.813  10.893   1.176  0.1292 -0.3618  0.5100
  722MOL0     O97366   0.895  10.877   1.284 -0.0305 -0.5205  0.1936
  722MOL0     C97367   1.027  10.842   1.265 -0.4644 -0.5755 -0.2030
  722MOL0     C97368   1.125  10.886   1.351 -0.9538 -0.0167 -0.4401
  722MOL0     C97369   1.249  10.826   1.354 -0.4643  0.7313 -0.0890
  722MOL0     C97370   1.293  10.731   1.260  0.0806 -0.6658 -1.4232
  722MOL0     O97371   1.414  10.679   1.273  0.3984 -0.2647  0.7058
  722MOL0     C97372   1.491  10.660   1.150 -0.0106 -0.2929 -0.4103
  722MOL0     C97373   1.642  10.654   1.178  0.5720 -0.3540 -0.3288
  722MOL0     C97374   1.670  10.522   1.239 -0.3586 -0.0459 -0.5373
  722MOL0     C97375   1.813  10.484   1.232  0.5305 -0.2249 -0.2638
  722MOL0     C97376   1.894  10.575   1.329  0.4064  0.5540  0.2433
  722MOL0     C97377   1.968  10.676   1.253 -0.1977 -0.4073  0.3713
  722MOL0     C97378   2.025  10.790   1.337 -0.0790  0.4193  0.2907
  722MOL0     C97379   2.140  10.747   1.426 -1.3358  0.0588  0.3721
  722MOL0    Cl97380   2.284  10.711   1.318  0.0315 -0.4281 -0.1097
  722MOL0     C97381   1.201  10.698   1.164 -0.2461 -0.6555  0.0921
  722MOL0     C97382   1.068  10.748   1.162  0.1168 -0.5568 -0.9633
  722MOL0     O97383   0.851  10.950   1.071  0.2704  0.2636 -0.1946
  722MOL0     C97384   0.637  10.754   1.299 -0.1875  0.0230 -0.0745
  722MOL0     C97385   0.502  10.712   1.323  0.0304 -0.0689 -0.0762
  722MOL0     N97386  -0.163  10.223   1.002 -0.6236 -0.7514  0.0877
  722MOL0     N97387  -0.182  10.113   0.946 -0.4555 -0.1148  0.3306
  722MOL0     C97388   0.655   9.264   0.497 -1.6436  0.3232 -0.0899
  722MOL0     C97389   0.789   9.272   0.530  0.8326 -0.0793 -0.8265
  722MOL0     C97390   1.218   9.201   0.633 -0.1565 -0.2290 -0.4277
  722MOL0     C97391   1.325   9.227   0.544  0.2386 -0.1144  0.4842
  722MOL0     C97392   1.459   9.236   0.586 -0.0998  0.0202 -0.2024
  722MOL0     C97393   1.493   9.223   0.720  0.4002  0.6296  0.0376
  722MOL0     O97394   1.618   9.226   0.773 -0.0806 -0.4408 -0.0229
  722MOL0     C97395   1.690   9.345   0.740 -0.2260 -0.5531  0.0374
  722MOL0     C97396   1.817   9.373   0.818  0.2212 -0.4082 -0.0734
  722MOL0     C97397   1.912   9.256   0.800  0.2631 -0.0399 -0.3410
  722MOL0     C97398   2.021   9.264   0.897 -0.4187 -0.6932 -0.0244
  722MOL0     C97399   2.115   9.377   0.878 -0.2035  0.0448  0.3968
  722MOL0     C97400   2.206   9.458   0.848 -0.1287  0.4295  0.8503
  722MOL0     C97401   1.384   9.201   0.806 -0.4968  0.5569 -0.5420
  722MOL0     C97402   1.247   9.191   0.766  0.3228  0.4781 -1.2547
  722MOL0     H97403   0.777   9.116   0.834  1.2274  0.9295 -0.7067
  722MOL0     H97404   0.525   9.093   0.759 -0.1140  2.6516  2.6411
  722MOL0     H97405   0.274   9.105   0.648 -0.0325 -0.0062  0.4219
  722MOL0     H97406   0.344   9.224   0.741  2.0844 -2.8911 -0.1076
  722MOL0     H97407   0.230   9.313   0.478  0.8140 -1.1461  0.1371
  722MOL0     H97408   0.123   9.259   0.607  0.1045  0.2528  1.1784
  722MOL0     H97409   0.190   9.434   0.755  2.1898 -0.9512  0.6256
  722MOL0     H97410   0.317   9.491   0.651 -0.6205  0.2585  1.8563
  722MOL0     H97411   0.142   9.555   0.477  1.1223 -1.1011  0.1172
  722MOL0     H97412   0.014   9.522   0.590 -1.5029  3.3937 -2.1671
  722MOL0     H97413   0.136   9.649   0.771 -1.6287 -0.8140  0.2269
  722MOL0     H97414   0.210   9.734   0.631 -0.5116  0.0500  1.6483
  722MOL0     H97415  -0.011   9.797   0.548 -4.7893  0.6213  1.7200
  722MOL0     H97416  -0.082   9.702   0.655  0.9962 -0.9794 -1.8578
  722MOL0     H97417  -0.003   9.846   0.857 -1.3759 -2.0993 -1.6328
  722MOL0     H97418   0.102   9.931   0.747 -1.2869  3.5143  2.0030
  722MOL0     H97419  -0.198   9.925   0.759  0.5973 -0.1495  2.3916
  722MOL0     H97420  -0.111  10.025   0.637 -1.7900  2.5117  1.2011
  722MOL0     H97421   0.040  10.247   0.742  0.1146 -2.6039 -0.7496
  722MOL0     H97422  -0.001  10.489   0.860 -3.3522  1.4904  0.5974
  722MOL0     H97423  -0.104  10.486   0.996  0.8240 -0.8999  1.3879
  722MOL0     H97424   0.178  10.375   1.016  0.0513  1.7948 -0.6151
  722MOL0     H97425   0.053  10.370   1.142  0.9321 -1.5091 -0.0227
  722MOL0     H97426   0.056  10.634   1.138  0.0109  1.3453 -2.2509
  722MOL0     H97427   0.180  10.621   1.015  1.4062 -2.4885  0.5794
  722MOL0     H97428   0.330  10.504   1.145 -0.8594 -0.4044  0.4455
  722MOL0     H97429   0.215  10.496   1.279  0.7186 -1.4769 -1.1810
  722MOL0     H97430   0.359  10.817   1.035 -0.5310  1.6018  0.5341
  722MOL0     H97431   0.496  10.946   0.903  0.8342  4.2483  0.1792
  722MOL0     H97432   0.614  11.031   0.985 -1.1216  0.1159  1.2926
  722MOL0     H97433   0.656  10.879   0.888  0.4877  2.5994 -1.2472
  722MOL0     H97434   1.095  10.957   1.427 -1.7877 -1.3788  0.5561
  722MOL0     H97435   1.314  10.860   1.434 -0.1133 -1.3799  0.5767
  722MOL0     H97436   1.456  10.567   1.103  0.2161 -0.2846 -0.5979
  722MOL0     H97437   1.469  10.750   1.092 -0.9729  0.3675  0.9233
  722MOL0     H97438   1.688  10.677   1.081 -2.6501  0.5305 -1.7939
  722MOL0     H97439   1.669  10.731   1.250  1.2244  0.6487 -1.6197
  722MOL0     H97440   1.612  10.442   1.192 -3.0908 -1.2184  4.1268
  722MOL0     H97441   1.629  10.510   1.340 -4.2453  0.6335 -1.8568
  722MOL0     H97442   1.817  10.376   1.247 -1.0248 -0.2055  0.5112
  722MOL0     H97443   1.847  10.492   1.128 -2.0461 -0.0682 -1.1713
  722MOL0     H97444   1.975  10.527   1.385  2.3085  2.8366 -0.3440
  722MOL0     H97445   1.826  10.625   1.399 -0.2341 -0.4413  0.3463
  722MOL0     H97446   2.049  10.635   1.192  0.3852  1.3288 -0.0761
  722MOL0     H97447   1.906  10.737   1.186  1.7228 -0.2010 -1.3209
  722MOL0     H97448   1.943  10.824   1.401 -1.0604 -2.3380  0.6006
  722MOL0     H97449   2.055  10.880   1.282  0.7574  1.0516  1.7076
  722MOL0     H97450   2.111  10.669   1.497 -2.2567 -1.6927 -1.8087
  722MOL0     H97451   2.150  10.835   1.491  0.4318 -0.3511  0.7036
  722MOL0     H97452   1.221  10.620   1.091 -1.8075  1.5956 -2.9709
  722MOL0     H97453   1.002  10.711   1.084  1.4013  1.6170 -3.2402
  722MOL0     H97454   0.713  10.745   1.376  1.6035 -0.0663 -1.7567
  722MOL0     H97455   0.484  10.672   1.423  0.8903  2.6404  1.2757
  722MOL0     H97456   0.616   9.309   0.407  1.0115 -1.6762 -2.3974
  722MOL0     H97457   0.850   9.329   0.461  0.1354 -1.3887 -2.6063
  722MOL0     H97458   1.306   9.224   0.437 -0.7837  0.7314  0.6231
  722MOL0     H97459   1.542   9.244   0.517  0.5999 -0.2385  0.5898
  722MOL0     H97460   1.713   9.358   0.634 -1.6251  1.5725 -0.0755
  722MOL0     H97461   1.626   9.432   0.759  0.4258 -0.3565  1.4294
  722MOL0     H97462   1.794   9.390   0.924 -1.5369 -2.6189 -0.0324
  722MOL0     H97463   1.865   9.466   0.787 -0.9470  0.6160  1.0399
  722MOL0     H97464   1.949   9.264   0.697 -0.5365 -1.8015 -0.8128
  722MOL0     H97465   1.856   9.162   0.800  1.6612 -0.9100 -0.4896
  722MOL0     H97466   2.081   9.173   0.886  2.7503  0.9442  2.0417
  722MOL0     H97467   1.973   9.255   0.995 -2.7141 -0.1256 -1.0270
  722MOL0     H97468   2.286   9.525   0.823  0.8119 -1.3647 -1.3650
  722MOL0     H97469   1.395   9.189   0.913  0.9081 -1.8675 -0.8811
  722MOL0     H97470   1.179   9.158   0.843 -0.5316  1.2953 -1.6380
  723MOL0     O97471   7.230   6.630   8.344 -0.0113  0.3552  0.4265
  723MOL0     C97472   7.321   6.685   8.410 -0.5030  0.2418  0.4186
  723MOL0     O97473   7.299   6.743   8.530 -0.4343 -0.6217 -0.7388
  723MOL0     C97474   7.198   6.692   8.616  0.2104 -1.0572  0.5021
  723MOL0     C97475   7.148   6.775   8.713 -0.7740 -0.8760  0.0133
  723MOL0     C97476   7.046   6.718   8.799 -0.0723 -1.2670  0.0579
  723MOL0     C97477   6.993   6.593   8.784 -0.5336  0.5584 -0.1998
  723MOL0     O97478   6.893   6.541   8.856  0.8230 -0.8868 -0.0354
  723MOL0     C97479   6.820   6.627   8.939 -0.6129 -0.1083 -0.0599
  723MOL0     C97480   6.696   6.549   8.998 -0.1703 -0.2730 -0.5929
  723MOL0     C97481   6.743   6.408   9.025  0.8975  0.6902 -0.4220
  723MOL0     C97482   6.662   6.343   9.144 -0.6031 -0.9289 -0.0024
  723MOL0     C97483   6.723   6.201   9.189 -0.4582  0.0508  0.2226
  723MOL0     C97484   6.645   6.146   9.309 -0.4149  0.6935 -0.1437
  723MOL0     C97485   6.706   6.018   9.362 -0.0134  0.0204 -0.2318
  723MOL0     C97486   6.702   6.012   9.520  1.0073 -0.1906 -0.8728
  723MOL0     N97487   6.574   5.969   9.578  0.1962  0.5127  0.1322
  723MOL0     C97488   6.516   5.850   9.550  0.4120  0.1786  1.1893
  723MOL0     C97489   6.384   5.861   9.585  0.1493  0.0458  0.2348
  723MOL0     C97490   6.266   5.769   9.577 -0.2775 -0.1273  0.1567
  723MOL0     C97491   6.159   5.828   9.487 -0.0112  0.5693  0.4226
  723MOL0     C97492   6.219   5.871   9.353  0.5944 -1.1154  0.5325
  723MOL0     C97493   6.101   5.878   9.246 -0.4057 -0.6331 -0.6191
  723MOL0     O97494   5.977   5.932   9.300 -0.4454  0.8623  0.3305
  723MOL0     C97495   5.863   5.893   9.230 -0.3649  0.4788  0.2569
  723MOL0     C97496   5.744   5.855   9.304 -0.2239  0.4337 -0.0252
  723MOL0     C97497   5.629   5.808   9.237 -0.1411  0.3676 -0.0950
  723MOL0     C97498   5.520   5.764   9.326 -0.0010  0.3493  0.7271
  723MOL0     C97499   5.617   5.810   9.092 -0.3290  0.5125  0.5244
  723MOL0     C97500   5.493   5.777   9.009 -0.7946 -0.5175 -0.3307
  723MOL0     O97501   5.509   5.783   8.878 -0.0721 -0.1191 -0.1075
  723MOL0     C97502   5.415   5.741   8.790 -0.4087  0.6726  0.6213
  723MOL0     C97503   5.457   5.662   8.688  0.0913 -0.2531 -0.7475
  723MOL0     C97504   5.360   5.621   8.595  0.5430  0.0583 -0.7438
  723MOL0     C97505   5.224   5.649   8.599  0.0833  0.4798 -0.3728
  723MOL0     O97506   5.142   5.587   8.507  0.5104  0.1530 -0.1455
  723MOL0     C97507   5.006   5.631   8.476 -0.0853  0.2043 -0.2866
  723MOL0     C97508   4.934   5.574   8.349 -0.1206  0.0327 -0.1685
  723MOL0     C97509   4.786   5.612   8.340  0.2009 -0.9107 -0.2241
  723MOL0     C97510   4.728   5.571   8.201 -0.3962  0.5131  0.0458
  723MOL0     C97511   4.585   5.605   8.182  0.5776 -0.6974 -0.2307
  723MOL0     C97512   4.549   5.746   8.146 -0.6883 -0.6300 -0.4594
  723MOL0     C97513   4.400   5.767   8.125 -0.1192 -0.2431  0.2459
  723MOL0     C97514   4.346   5.709   7.993  0.0515 -0.1325  0.5363
  723MOL0    Cl97515   4.265   5.552   8.022 -0.1392  0.0259 -0.0777
  723MOL0     C97516   5.178   5.727   8.706  0.9955  0.1058  1.1805
  723MOL0     C97517   5.275   5.783   8.795 -0.1089 -0.1073  0.6568
  723MOL0     O97518   5.380   5.757   9.055 -0.4812 -0.3785 -0.2370
  723MOL0     C97519   5.738   5.846   9.019  0.7995  0.4434  0.0146
  723MOL0     C97520   5.852   5.888   9.088 -0.4794  0.1366  0.1532
  723MOL0     N97521   6.374   5.989   9.647  0.6298  0.4207  0.8207
  723MOL0     N97522   6.485   6.047   9.646 -0.3111 -1.0169  0.4041
  723MOL0     C97523   7.049   6.512   8.689  0.4070  0.3717 -0.0489
  723MOL0     C97524   7.152   6.558   8.605  0.9338  0.4379 -0.3725
  723MOL0     C97525   7.454   6.703   8.351 -0.3818  0.1463 -0.2421
  723MOL0     C97526   7.468   6.695   8.214 -0.4763  0.0949 -0.5729
  723MOL0     C97527   7.584   6.709   8.148  0.3586 -0.3150 -0.5911
  723MOL0     C97528   7.697   6.734   8.221  0.6507 -0.8391  0.5068
  723MOL0     O97529   7.814   6.737   8.143 -0.4537 -0.3224 -0.1667
  723MOL0     C97530   7.928   6.682   8.207  0.1176  0.5007  0.3658
  723MOL0     C97531   8.052   6.683   8.110  0.8382  0.4268 -0.2710
  723MOL0     C97532   8.041   6.556   8.006 -0.4078  0.4765 -0.7378
  723MOL0     C97533   7.989   6.424   8.062 -0.4439 -0.1353 -0.0468
  723MOL0     C97534   8.063   6.373   8.187 -0.6957 -0.2863  0.6933
  723MOL0     C97535   8.118   6.348   8.293  0.6903 -0.0959 -0.0210
  723MOL0     C97536   7.691   6.742   8.360 -0.1808 -0.2586 -0.4877
  723MOL0     C97537   7.571   6.729   8.424  0.3958 -0.0211 -1.0040
  723MOL0     H97538   7.183   6.877   8.726  0.5059 -1.5888  2.7828
  723MOL0     H97539   7.014   6.776   8.885  1.9950  0.3952 -0.2138
  723MOL0     H97540   6.869   6.657   9.032 -2.8158 -0.5859  1.3212
  723MOL0     H97541   6.797   6.720   8.887 -1.3238 -0.2551 -0.0223
  723MOL0     H97542   6.663   6.584   9.096  1.3705 -2.7695  0.9047
  723MOL0     H97543   6.607   6.550   8.935  1.1303 -0.0662 -2.5222
  723MOL0     H97544   6.746   6.348   8.933  3.1986 -0.4266  0.3023
  723MOL0     H97545   6.847   6.416   9.058  0.4535  0.4130  1.1304
  723MOL0     H97546   6.677   6.415   9.226  1.0267  2.2896 -2.8586
  723MOL0     H97547   6.556   6.348   9.116 -0.2155 -2.6719 -2.0251
  723MOL0     H97548   6.709   6.135   9.103 -0.7637  2.3104 -1.5520
  723MOL0     H97549   6.826   6.219   9.219 -0.1721  0.8031 -1.1596
  723MOL0     H97550   6.642   6.232   9.376  1.0862  0.7494 -0.1133
  723MOL0     H97551   6.542   6.126   9.278 -0.5475 -0.3577  0.8921
  723MOL0     H97552   6.654   5.927   9.330  0.9425 -0.7063  0.2207
  723MOL0     H97553   6.810   6.011   9.329 -0.1842  2.6528 -1.5349
  723MOL0     H97554   6.742   6.103   9.564  1.9581 -1.2225  0.4608
  723MOL0     H97555   6.771   5.938   9.560 -0.4490 -0.0282  2.2202
  723MOL0     H97556   6.558   5.756   9.514 -0.3461 -1.5255  4.3364
  723MOL0     H97557   6.304   5.671   9.546 -1.4511 -1.6550  3.1151
  723MOL0     H97558   6.222   5.759   9.677 -0.0968  0.2858  0.2816
  723MOL0     H97559   6.107   5.914   9.532 -0.9009 -0.2909  1.0873
  723MOL0     H97560   6.083   5.751   9.474  0.6890 -0.4645  2.1405
  723MOL0     H97561   6.281   5.794   9.306 -0.0750 -1.4435  0.1704
  723MOL0     H97562   6.274   5.966   9.352  0.9213 -1.2104  3.2074
  723MOL0     H97563   6.086   5.771   9.231  0.2010 -1.4832  3.5699
  723MOL0     H97564   6.120   5.941   9.158  1.9152 -1.7503 -0.9901
  723MOL0     H97565   5.745   5.856   9.412  2.4155  2.2937  0.0182
  723MOL0     H97566   5.471   5.674   9.289 -0.8557  2.7572 -5.0774
  723MOL0     H97567   5.543   5.748   9.431  1.4994 -2.5765  0.0474
  723MOL0     H97568   5.450   5.847   9.307  0.7710  1.0456  0.8851
  723MOL0     H97569   5.563   5.637   8.676  1.3989  3.5450  1.2692
  723MOL0     H97570   5.378   5.541   8.524 -0.4202 -0.9401  0.1132
  723MOL0     H97571   4.951   5.597   8.564 -0.1117 -1.9695 -1.0775
  723MOL0     H97572   5.000   5.740   8.483  3.6127  0.4251  2.5564
  723MOL0     H97573   4.982   5.612   8.259 -0.3709 -1.0454 -0.7691
  723MOL0     H97574   4.944   5.466   8.336  1.0354  0.3926 -2.8094
  723MOL0     H97575   4.789   5.721   8.346  4.3369 -0.7781 -1.5037
  723MOL0     H97576   4.732   5.577   8.428  0.4640  3.6171  2.0415
  723MOL0     H97577   4.791   5.620   8.126 -0.1526  0.7284  0.3889
  723MOL0     H97578   4.742   5.464   8.186 -2.0453  0.4983 -1.8468
  723MOL0     H97579   4.529   5.571   8.270 -1.0127  1.2611 -0.4152
  723MOL0     H97580   4.548   5.542   8.100 -0.3769  2.2502 -2.2205
  723MOL0     H97581   4.569   5.812   8.232 -0.5356 -1.3559  0.0687
  723MOL0     H97582   4.613   5.789   8.069  0.0727  0.6840  0.8476
  723MOL0     H97583   4.383   5.876   8.127  2.3582  0.1829  0.3770
  723MOL0     H97584   4.353   5.722   8.213  1.4947 -1.2451  0.6333
  723MOL0     H97585   4.425   5.714   7.917 -2.1014 -1.4502 -1.9646
  723MOL0     H97586   4.273   5.775   7.944 -0.8333 -1.8128 -0.5250
  723MOL0     H97587   5.076   5.762   8.711  1.5591  2.3960 -1.2184
  723MOL0     H97588   5.244   5.858   8.867  0.5759  0.0356  0.8084
  723MOL0     H97589   5.752   5.848   8.912  2.2439 -0.8629  0.1405
  723MOL0     H97590   5.939   5.894   9.023 -0.2123 -5.0702 -0.4204
  723MOL0     H97591   7.020   6.408   8.696 -0.1400  0.6165  2.5126
  723MOL0     H97592   7.189   6.487   8.532  1.0001 -1.2666  1.2341
  723MOL0     H97593   7.381   6.676   8.151  0.8395  0.3278 -2.5349
  723MOL0     H97594   7.583   6.718   8.040 -0.9281  0.0474 -0.5668
  723MOL0     H97595   7.944   6.753   8.289 -3.1862  3.2954 -1.1653
  723MOL0     H97596   7.909   6.583   8.249 -1.8900  0.3175 -0.8358
  723MOL0     H97597   8.147   6.688   8.163  0.1187  3.2289  0.9761
  723MOL0     H97598   8.048   6.775   8.051 -1.1707  0.9511  0.5911
  723MOL0     H97599   8.143   6.539   7.972  0.4174 -0.8723  2.0535
  723MOL0     H97600   7.977   6.573   7.919 -0.2978  1.0227 -0.7133
  723MOL0     H97601   7.977   6.339   7.994 -1.1684 -2.0525  2.3313
  723MOL0     H97602   7.887   6.436   8.100 -0.4129 -2.3346  0.9300
  723MOL0     H97603   8.165   6.328   8.388  1.1983  1.1596  0.0123
  723MOL0     H97604   7.787   6.753   8.409 -0.6167  1.0858  0.1048
  723MOL0     H97605   7.560   6.730   8.532  1.0471 -0.6595 -0.9204
  724MOL0     O97606   0.641   4.465   2.658 -0.4430 -0.1887  0.7273
  724MOL0     C97607   0.696   4.556   2.591  0.7045  1.6697 -0.3077
  724MOL0     O97608   0.633   4.656   2.524 -0.0782 -0.1929  0.0102
  724MOL0     C97609   0.503   4.678   2.546  0.4872 -0.6567 -0.6061
  724MOL0     C97610   0.389   4.601   2.511 -0.4235  0.1869  0.1514
  724MOL0     C97611   0.259   4.655   2.527  0.9138 -0.2539 -1.0925
  724MOL0     C97612   0.234   4.780   2.580 -0.4890  0.3171 -0.2488
  724MOL0     O97613   0.114   4.833   2.583  0.5078  0.4090  1.0398
  724MOL0     C97614   0.057   4.880   2.709  0.5722 -0.1808 -0.1063
  724MOL0     C97615  -0.087   4.816   2.727 -0.4599  0.0152 -0.4612
  724MOL0     C97616  -0.166   4.801   2.594  1.0251 -0.6475 -0.1284
  724MOL0     C97617  -0.234   4.932   2.537  0.1112 -0.3138  0.3305
  724MOL0     C97618  -0.318   5.018   2.637 -1.0140  0.2351 -0.0496
  724MOL0     C97619  -0.442   4.937   2.681  0.6251  0.7381 -1.2163
  724MOL0     C97620  -0.544   5.035   2.736 -0.4776 -0.5549 -0.3812
  724MOL0     C97621  -0.671   4.955   2.772  0.2337  0.0592  0.6330
  724MOL0     N97622  -0.787   5.041   2.809  0.3073 -0.0853  0.6070
  724MOL0     C97623  -0.836   5.145   2.733  1.3026  0.8217  0.1173
  724MOL0     C97624  -0.928   5.203   2.814 -0.1560 -0.0878 -0.1289
  724MOL0     C97625  -1.016   5.331   2.789  0.2993 -0.2732  0.3325
  724MOL0     C97626  -1.144   5.300   2.724  0.5592  0.3578  0.4135
  724MOL0     C97627  -1.227   5.429   2.703  0.4694  0.5057  0.5364
  724MOL0     C97628  -1.353   5.382   2.619  0.2394 -0.7651  0.4327
  724MOL0     O97629  -1.430   5.494   2.575  0.2192  0.2955  0.3280
  724MOL0     C97630  -1.569   5.493   2.564  0.0664  0.1425  0.3147
  724MOL0     C97631  -1.626   5.617   2.535 -0.4514  0.6828 -0.6637
  724MOL0     C97632  -1.763   5.629   2.493  1.0671 -0.0339  0.3009
  724MOL0     C97633  -1.825   5.770   2.481 -0.2429  0.7911 -0.0860
  724MOL0     C97634  -1.837   5.511   2.452 -0.3645  0.0340  0.4888
  724MOL0     C97635  -1.974   5.506   2.389 -0.6150  1.6604 -0.3839
  724MOL0     O97636  -2.011   5.382   2.331 -0.1049  0.2654 -0.3014
  724MOL0     C97637  -2.140   5.344   2.331  1.2399 -0.0507 -0.3225
  724MOL0     C97638  -2.255   5.427   2.320 -0.1157  0.4707 -0.8508
  724MOL0     C97639  -2.375   5.367   2.305 -0.3872  0.9484 -0.1355
  724MOL0     C97640  -2.388   5.226   2.298  0.0529  0.4030  0.4872
  724MOL0     O97641  -2.500   5.148   2.292  0.0083  0.0648 -0.6172
  724MOL0     C97642  -2.624   5.212   2.320  0.0357  0.5246 -0.3467
  724MOL0     C97643  -2.731   5.100   2.316 -0.4574  0.1775 -0.5298
  724MOL0     C97644  -2.710   4.974   2.404  0.4426 -0.2968 -0.0900
  724MOL0     C97645  -2.833   4.886   2.427  0.3980  0.3624  0.5882
  724MOL0     C97646  -2.821   4.760   2.507 -0.3254  0.5156 -0.0622
  724MOL0     C97647  -2.704   4.678   2.447  0.1129 -0.7372 -0.3173
  724MOL0     C97648  -2.725   4.532   2.486 -0.3596 -0.7421 -0.2411
  724MOL0     C97649  -2.631   4.440   2.419 -0.1705 -0.0621  1.5726
  724MOL0    Cl97650  -2.464   4.481   2.458 -0.1798  0.1538  0.1857
  724MOL0     C97651  -2.275   5.147   2.311 -0.4211  0.2585  0.4240
  724MOL0     C97652  -2.144   5.207   2.334  0.4771  0.0165  0.2070
  724MOL0     O97653  -2.037   5.609   2.379  0.4146 -0.0194 -0.5198
  724MOL0     C97654  -1.772   5.390   2.479  0.0806  0.0590  0.1624
  724MOL0     C97655  -1.641   5.377   2.540  0.0121 -0.4412 -0.1957
  724MOL0     N97656  -0.929   5.139   2.933  0.3852  0.3694 -0.4143
  724MOL0     N97657  -0.846   5.045   2.930 -0.0776  0.1184  1.4240
  724MOL0     C97658   0.347   4.848   2.616  0.0024 -0.1978 -0.5902
  724MOL0     C97659   0.479   4.804   2.599  0.1606  0.7270 -0.2560
  724MOL0     C97660   0.847   4.555   2.572  0.2565  0.2668  0.0842
  724MOL0     C97661   0.926   4.446   2.607 -0.3241  1.0863 -0.5620
  724MOL0     C97662   1.067   4.437   2.576 -0.0387  0.6036  1.1865
  724MOL0     C97663   1.126   4.541   2.501 -0.7730 -0.8869 -0.6042
  724MOL0     O97664   1.255   4.551   2.459 -0.0773 -0.3766  0.1086
  724MOL0     C97665   1.359   4.472   2.521  0.2519 -0.2632 -1.1454
  724MOL0     C97666   1.382   4.335   2.454 -0.7635 -0.2704  0.0657
  724MOL0     C97667   1.498   4.259   2.516 -0.1805 -0.5552  0.2682
  724MOL0     C97668   1.636   4.286   2.448  0.1766 -0.9186  0.1224
  724MOL0     C97669   1.743   4.236   2.525 -0.2294  0.2664  0.2655
  724MOL0     C97670   1.836   4.194   2.591 -0.2862 -0.1581  0.2529
  724MOL0     C97671   1.048   4.656   2.470 -0.4596 -0.2981 -0.3305
  724MOL0     C97672   0.911   4.658   2.499  0.0321 -0.6147  1.0345
  724MOL0     H97673   0.410   4.499   2.482  0.6040  0.0796  1.2116
  724MOL0     H97674   0.173   4.590   2.517  1.9471 -1.4080 -3.1966
  724MOL0     H97675   0.117   4.850   2.796 -2.4315  0.2073  2.2409
  724MOL0     H97676   0.053   4.989   2.708  1.7660 -0.1152  0.6738
  724MOL0     H97677  -0.068   4.715   2.764  0.4692  0.2663 -0.2077
  724MOL0     H97678  -0.147   4.877   2.795  0.3565  0.8992 -0.5120
  724MOL0     H97679  -0.102   4.752   2.520  0.7534  1.1928 -1.6673
  724MOL0     H97680  -0.249   4.732   2.611 -1.4792  2.2871  0.5964
  724MOL0     H97681  -0.157   5.006   2.511 -0.1222 -0.0433  0.4133
  724MOL0     H97682  -0.289   4.898   2.448  3.5125 -2.8339 -1.0747
  724MOL0     H97683  -0.267   5.050   2.729  0.7686  1.8701 -1.5166
  724MOL0     H97684  -0.354   5.111   2.593  2.5181  1.6948 -0.1472
  724MOL0     H97685  -0.481   4.869   2.605  1.2825  0.1224 -1.0138
  724MOL0     H97686  -0.408   4.868   2.760  0.0202  0.9605 -0.7599
  724MOL0     H97687  -0.517   5.092   2.826  0.1515  0.1540 -1.0072
  724MOL0     H97688  -0.562   5.111   2.659  0.3047  0.7699  0.7066
  724MOL0     H97689  -0.658   4.883   2.854  0.6229 -0.5725  0.0268
  724MOL0     H97690  -0.686   4.901   2.678  2.2942  0.8768 -0.2185
  724MOL0     H97691  -0.803   5.176   2.634  1.1880 -0.2272 -0.2577
  724MOL0     H97692  -1.035   5.378   2.886  2.7592  2.5449 -0.4189
  724MOL0     H97693  -0.973   5.407   2.724  0.7922 -1.3026 -0.5820
  724MOL0     H97694  -1.197   5.236   2.794 -1.1339 -0.6819 -1.6967
  724MOL0     H97695  -1.134   5.244   2.630 -2.4534 -0.5992  0.5793
  724MOL0     H97696  -1.182   5.507   2.641  1.3327 -1.9811 -2.1729
  724MOL0     H97697  -1.265   5.466   2.799 -3.0443 -0.7954 -0.1849
  724MOL0     H97698  -1.417   5.314   2.675  0.2781 -1.6096 -0.5095
  724MOL0     H97699  -1.328   5.347   2.518 -0.9106  1.0752 -0.5454
  724MOL0     H97700  -1.565   5.703   2.558  0.2171 -0.3318  1.6727
  724MOL0     H97701  -1.838   5.806   2.379  1.4905 -1.7703 -1.3139
  724MOL0     H97702  -1.925   5.774   2.524 -0.5179  1.0305 -0.7366
  724MOL0     H97703  -1.762   5.837   2.541 -1.3928  2.7065 -0.9120
  724MOL0     H97704  -2.235   5.533   2.323  0.1981  0.4180 -1.0348
  724MOL0     H97705  -2.462   5.429   2.287 -0.6364  0.2438 -1.5017
  724MOL0     H97706  -2.629   5.252   2.422 -2.8327  2.5562 -1.1811
  724MOL0     H97707  -2.657   5.292   2.253  0.8341 -0.1398 -1.5642
  724MOL0     H97708  -2.825   5.143   2.354 -0.8186 -1.7917  0.9784
  724MOL0     H97709  -2.743   5.069   2.211 -0.9769 -2.5096  0.2498
  724MOL0     H97710  -2.680   5.010   2.503  4.4223 -0.6735 -1.0243
  724MOL0     H97711  -2.638   4.905   2.362  0.0394  0.6557 -2.4952
  724MOL0     H97712  -2.898   4.959   2.476  0.5030  1.0992 -0.3296
  724MOL0     H97713  -2.889   4.871   2.334 -2.2155  0.0319  2.0948
  724MOL0     H97714  -2.921   4.716   2.508 -0.8555  1.6209 -1.1997
  724MOL0     H97715  -2.795   4.788   2.610  1.9046 -1.1686 -0.0873
  724MOL0     H97716  -2.698   4.677   2.338  1.4422  0.9563 -0.2959
  724MOL0     H97717  -2.608   4.719   2.477 -0.4433  0.8079 -0.5828
  724MOL0     H97718  -2.827   4.510   2.453 -0.1156 -0.4995 -1.1928
  724MOL0     H97719  -2.711   4.523   2.594  0.2954  0.1568 -0.2389
  724MOL0     H97720  -2.636   4.451   2.310  0.5069 -0.6603  1.4760
  724MOL0     H97721  -2.660   4.337   2.442  0.0337 -0.9615 -1.6543
  724MOL0     H97722  -2.294   5.043   2.285  0.4385  0.6301 -1.9553
  724MOL0     H97723  -2.047   5.160   2.345  0.8893  0.6743 -0.5052
  724MOL0     H97724  -1.829   5.300   2.459  1.6702 -0.5999 -1.6376
  724MOL0     H97725  -1.594   5.279   2.546 -0.1351 -0.6050 -1.4816
  724MOL0     H97726   0.337   4.944   2.665 -0.3300  0.2068 -1.4402
  724MOL0     H97727   0.561   4.867   2.632 -2.6978  2.6995  3.8765
  724MOL0     H97728   0.887   4.360   2.661  0.6191  0.3554 -1.0177
  724MOL0     H97729   1.119   4.350   2.613 -2.0789  0.1424  3.1901
  724MOL0     H97730   1.454   4.523   2.539  2.7202 -5.1068  1.4357
  724MOL0     H97731   1.329   4.439   2.621  2.9151 -3.1063 -1.1426
  724MOL0     H97732   1.400   4.355   2.348  1.4357  0.8746  0.6037
  724MOL0     H97733   1.294   4.271   2.471 -1.4486 -0.0082 -2.1535
  724MOL0     H97734   1.466   4.154   2.511 -1.9364 -0.1471  1.7541
  724MOL0     H97735   1.504   4.290   2.621 -1.5191 -0.4987  0.3421
  724MOL0     H97736   1.654   4.394   2.439  0.9834 -1.0506  0.1047
  724MOL0     H97737   1.643   4.245   2.348  1.7463 -2.7538  0.9204
  724MOL0     H97738   1.925   4.150   2.632  2.0180  0.9676 -3.1072
  724MOL0     H97739   1.075   4.748   2.418 -0.4321  0.6026  1.2134
  724MOL0     H97740   0.860   4.754   2.493  3.0433  1.3508  3.4855
  725MOL0     O97741   5.633   0.756   6.446 -0.2718 -0.5636  0.7137
  725MOL0     C97742   5.655   0.711   6.559 -0.2821 -0.0231  0.0748
  725MOL0     O97743   5.566   0.716   6.658 -0.1897 -1.3993 -0.1920
  725MOL0     C97744   5.435   0.771   6.639 -0.5520 -0.4055 -0.2431
  725MOL0     C97745   5.348   0.732   6.536 -0.2400 -0.0443  0.7856
  725MOL0     C97746   5.221   0.790   6.517 -0.0567 -0.1781 -0.0534
  725MOL0     C97747   5.175   0.884   6.613  0.7297  0.3915  0.7500
  725MOL0     O97748   5.047   0.925   6.600 -0.2255 -0.3363 -0.5145
  725MOL0     C97749   4.975   0.989   6.713  0.0860 -0.6002  0.3826
  725MOL0     C97750   4.823   0.962   6.701 -0.5390 -0.0657 -0.5343
  725MOL0     C97751   4.772   1.024   6.572 -0.1714  0.0945 -0.2248
  725MOL0     C97752   4.758   1.176   6.581 -0.1482  0.4404 -0.0627
  725MOL0     C97753   4.644   1.226   6.492 -0.2277 -0.4388 -1.4961
  725MOL0     C97754   4.688   1.263   6.348 -0.0848  0.3384 -0.1263
  725MOL0     C97755   4.577   1.344   6.275 -0.0729 -0.0710 -0.0961
  725MOL0     C97756   4.462   1.251   6.216  0.3289 -0.2606 -0.8891
  725MOL0     N97757   4.334   1.325   6.202 -0.5747  0.7751  0.6343
  725MOL0     C97758   4.226   1.318   6.286 -0.0007  0.3540 -0.3063
  725MOL0     C97759   4.114   1.352   6.213  0.0433  0.9686 -0.1292
  725MOL0     C97760   3.978   1.325   6.280  0.3740  0.5023  0.6392
  725MOL0     C97761   3.879   1.303   6.165 -0.5801 -0.0331  0.8005
  725MOL0     C97762   3.750   1.250   6.223  1.0510 -0.0548 -0.2700
  725MOL0     C97763   3.648   1.217   6.115  0.0309  0.1101  0.1407
  725MOL0     O97764   3.538   1.135   6.152 -1.1442 -0.0610 -0.1985
  725MOL0     C97765   3.413   1.187   6.160  0.0330 -0.9645 -0.1115
  725MOL0     C97766   3.369   1.323   6.187  0.2483  0.2612  0.8385
  725MOL0     C97767   3.231   1.351   6.172  1.8198  0.2340  0.6438
  725MOL0     C97768   3.193   1.498   6.208 -0.1682  0.1849  0.6683
  725MOL0     C97769   3.131   1.249   6.129  0.2171  0.6765 -0.1520
  725MOL0     C97770   2.988   1.266   6.098  0.5011  0.5299 -0.4205
  725MOL0     O97771   2.896   1.166   6.134  0.4494 -0.1459 -0.8570
  725MOL0     C97772   2.763   1.160   6.100 -0.3652 -0.3052  0.3450
  725MOL0     C97773   2.697   1.223   5.991  0.6137 -0.4866 -0.0487
  725MOL0     C97774   2.557   1.195   5.960 -0.6751 -0.3796  0.0785
  725MOL0     C97775   2.489   1.114   6.057 -0.2501 -1.0727  0.2657
  725MOL0     O97776   2.349   1.086   6.040 -0.5296  0.4250  0.2985
  725MOL0     C97777   2.267   1.189   6.075  0.0919  0.0319 -0.1131
  725MOL0     C97778   2.122   1.162   6.036  0.0067  0.2884  0.0481
  725MOL0     C97779   2.109   1.120   5.892 -0.8288  0.4018 -0.3563
  725MOL0     C97780   1.962   1.073   5.875  0.0597 -0.3219 -0.0747
  725MOL0     C97781   1.914   1.025   5.735  0.4287  0.2664  0.0913
  725MOL0     C97782   1.898   0.871   5.740 -0.3183 -0.2047  0.1477
  725MOL0     C97783   2.033   0.797   5.769  0.7793  0.0676  0.7671
  725MOL0     C97784   2.004   0.650   5.762 -0.3967  0.2347  0.3207
  725MOL0    Cl97785   1.905   0.594   5.911 -0.0614 -0.3979 -0.0689
  725MOL0     C97786   2.557   1.054   6.163 -0.0299 -0.0490 -0.5063
  725MOL0     C97787   2.695   1.073   6.176 -0.4304  0.6908  0.4992
  725MOL0     O97788   2.963   1.368   6.035  0.0907  0.1648  0.3192
  725MOL0     C97789   3.178   1.112   6.128  0.0850 -0.7256 -0.2203
  725MOL0     C97790   3.312   1.092   6.134  0.2406 -0.0542 -0.2458
  725MOL0     N97791   4.158   1.380   6.081 -0.8620 -0.0487  0.1359
  725MOL0     N97792   4.286   1.365   6.077 -0.0467  0.0206  0.0146
  725MOL0     C97793   5.258   0.914   6.721 -0.2413 -0.3022 -0.9391
  725MOL0     C97794   5.391   0.863   6.732  0.0863 -0.5323  0.2910
  725MOL0     C97795   5.784   0.640   6.581 -0.7368 -0.6700  0.0602
  725MOL0     C97796   5.817   0.596   6.713 -0.4646  0.1182 -0.1151
  725MOL0     C97797   5.942   0.530   6.722 -0.1736 -0.2034 -0.4032
  725MOL0     C97798   6.040   0.530   6.625  0.5045  0.2972 -0.8927
  725MOL0     O97799   6.165   0.484   6.660 -0.0819  0.3334 -0.0677
  725MOL0     C97800   6.272   0.556   6.591  0.2177 -0.0799  0.0149
  725MOL0     C97801   6.413   0.529   6.631  0.3327 -0.5967 -0.0648
  725MOL0     C97802   6.505   0.618   6.553 -0.8187 -0.1499  0.2494
  725MOL0     C97803   6.648   0.609   6.605 -0.4340 -0.0693  1.1387
  725MOL0     C97804   6.743   0.704   6.534 -0.3121 -0.5654 -0.0887
  725MOL0     C97805   6.828   0.776   6.475  0.1583 -0.6865  0.2960
  725MOL0     C97806   6.005   0.576   6.499  0.1787 -0.4162 -0.0005
  725MOL0     C97807   5.883   0.629   6.476 -0.0940 -0.8566  0.2629
  725MOL0     H97808   5.378   0.650   6.472 -2.9971  0.9762 -2.0775
  725MOL0     H97809   5.161   0.751   6.436  0.3850  1.8678 -1.4570
  725MOL0     H97810   5.009   0.950   6.809  0.4493  0.0602  0.5204
  725MOL0     H97811   4.994   1.096   6.709 -0.8101 -0.4475 -0.0452
  725MOL0     H97812   4.815   0.853   6.696  4.2334 -0.5953 -1.8624
  725MOL0     H97813   4.761   0.996   6.785 -1.1241  0.3491 -1.1284
  725MOL0     H97814   4.828   1.004   6.480  0.2025  1.1274 -0.2366
  725MOL0     H97815   4.670   0.985   6.562 -0.5561  0.9555  0.2473
  725MOL0     H97816   4.728   1.200   6.683  0.9231  1.2465  0.0772
  725MOL0     H97817   4.850   1.224   6.548  0.7463 -0.3320  1.2313
  725MOL0     H97818   4.561   1.155   6.490  0.0867 -0.7954 -2.1144
  725MOL0     H97819   4.605   1.317   6.540 -0.6960 -1.4581  0.1292
  725MOL0     H97820   4.776   1.327   6.342 -1.9576  3.0056 -1.0417
  725MOL0     H97821   4.720   1.176   6.289 -0.1733  1.9179 -2.6947
  725MOL0     H97822   4.526   1.416   6.339 -0.2689  1.1400 -1.5710
  725MOL0     H97823   4.629   1.397   6.196  1.4755  0.8740  1.4977
  725MOL0     H97824   4.437   1.166   6.280  0.4997 -0.7630 -1.4887
  725MOL0     H97825   4.499   1.208   6.123  0.2701  1.8924 -1.9760
  725MOL0     H97826   4.222   1.273   6.384 -0.9932 -1.8121 -1.2597
  725MOL0     H97827   3.981   1.241   6.350  0.3070 -0.3222 -0.3210
  725MOL0     H97828   3.942   1.407   6.342 -1.2144  0.0037  0.4232
  725MOL0     H97829   3.913   1.230   6.092 -1.9546  1.1849 -1.1474
  725MOL0     H97830   3.864   1.402   6.121 -0.1474  0.4075  1.6099
  725MOL0     H97831   3.715   1.325   6.294  1.7595  0.5969 -0.5987
  725MOL0     H97832   3.766   1.156   6.277  0.1368 -0.8585 -1.3603
  725MOL0     H97833   3.706   1.163   6.040  0.1917  2.0347 -1.1980
  725MOL0     H97834   3.613   1.307   6.064 -0.3307 -0.9930 -1.6425
  725MOL0     H97835   3.454   1.384   6.215  2.0324 -1.1725 -1.0876
  725MOL0     H97836   3.124   1.492   6.293 -1.6982  1.0037 -0.4662
  725MOL0     H97837   3.283   1.554   6.232 -0.6057  1.1286  0.1553
  725MOL0     H97838   3.134   1.538   6.125  2.6442  0.8907 -1.1115
  725MOL0     H97839   2.752   1.294   5.930  0.7828  0.0668  0.7211
  725MOL0     H97840   2.516   1.235   5.868 -4.9179 -1.7996  1.1227
  725MOL0     H97841   2.267   1.184   6.185 -3.6146 -4.3669  0.0231
  725MOL0     H97842   2.290   1.290   6.042 -1.4659  1.1293  1.8861
  725MOL0     H97843   2.090   1.083   6.105  0.2084  1.4701  1.5531
  725MOL0     H97844   2.065   1.253   6.055  1.0331  1.3046 -1.5307
  725MOL0     H97845   2.179   1.036   5.879 -0.4616  0.7179 -0.4337
  725MOL0     H97846   2.131   1.207   5.830 -2.0716  0.5205 -0.6533
  725MOL0     H97847   1.945   1.000   5.954  2.7924 -0.7257  0.2190
  725MOL0     H97848   1.904   1.163   5.900  3.2011  2.0880 -0.7868
  725MOL0     H97849   1.993   1.047   5.662  0.1954 -0.1205 -0.2828
  725MOL0     H97850   1.818   1.056   5.692  1.5166  1.3548 -1.7031
  725MOL0     H97851   1.823   0.829   5.808 -1.0099 -3.1815 -2.2347
  725MOL0     H97852   1.866   0.832   5.643  2.7773 -1.7809 -0.3759
  725MOL0     H97853   2.067   0.833   5.867 -1.8537  0.5681  1.5825
  725MOL0     H97854   2.107   0.811   5.690 -1.1918 -1.9784 -1.6214
  725MOL0     H97855   2.099   0.595   5.772  0.4637  1.4935 -0.6263
  725MOL0     H97856   1.956   0.622   5.668  3.0248  1.2334 -1.9086
  725MOL0     H97857   2.507   0.992   6.237  2.6662 -1.5837  0.1449
  725MOL0     H97858   2.749   1.009   6.245 -1.8981  0.0535  1.1186
  725MOL0     H97859   3.107   1.034   6.102 -0.4198 -0.0958 -0.7297
  725MOL0     H97860   3.359   0.995   6.144  1.2152  0.1976 -2.0357
  725MOL0     H97861   5.221   0.974   6.804  2.9726 -1.0907  1.2342
  725MOL0     H97862   5.446   0.887   6.822 -0.2487  1.6900 -0.0380
  725MOL0     H97863   5.756   0.602   6.802 -1.3074  0.4536 -0.6971
  725MOL0     H97864   5.963   0.481   6.817  0.3882 -0.2304 -0.5372
  725MOL0     H97865   6.259   0.524   6.487 -1.4769  2.2802 -0.5930
  725MOL0     H97866   6.253   0.663   6.607  1.9410  0.4727 -1.3370
  725MOL0     H97867   6.439   0.428   6.596  0.0229 -0.1755 -1.5947
  725MOL0     H97868   6.419   0.535   6.740 -1.9882 -1.7994  0.1956
  725MOL0     H97869   6.488   0.726   6.556 -1.1799 -0.2206  1.7142
  725MOL0     H97870   6.499   0.590   6.447  1.6933 -2.4905  0.6158
  725MOL0     H97871   6.677   0.504   6.591 -4.9654 -1.2336 -1.3394
  725MOL0     H97872   6.645   0.641   6.709  0.1400 -2.2366  1.8747
  725MOL0     H97873   6.895   0.842   6.423 -1.1992 -0.5073 -1.3317
  725MOL0     H97874   6.073   0.574   6.415  1.1875  3.5066  0.5004
  725MOL0     H97875   5.860   0.659   6.374  0.8788  0.3716  0.3966
  726MOL0     O97876   6.988   3.028   2.180 -0.0858  0.5065  0.5537
  726MOL0     C97877   6.914   3.011   2.085 -0.0468  0.2104 -0.5133
  726MOL0     O97878   6.935   3.050   1.956 -0.0598  0.9119  0.4951
  726MOL0     C97879   7.055   3.076   1.910 -0.8321 -0.2217  0.0082
  726MOL0     C97880   7.071   3.195   1.835 -0.5639  0.4060 -0.0594
  726MOL0     C97881   7.192   3.236   1.790 -0.4887  0.3198 -0.2146
  726MOL0     C97882   7.310   3.162   1.825 -0.1580 -0.9408  0.9241
  726MOL0     O97883   7.418   3.220   1.780  0.1127  0.2665 -0.1158
  726MOL0     C97884   7.545   3.155   1.782  0.0192 -0.0881  0.2486
  726MOL0     C97885   7.605   3.179   1.912  0.1000 -0.0530  0.4716
  726MOL0     C97886   7.755   3.185   1.913 -0.0107  1.5394 -0.1179
  726MOL0     C97887   7.813   3.056   1.859 -0.0080  0.0111 -0.5435
  726MOL0     C97888   7.964   3.046   1.892 -0.7950 -0.4530 -0.4859
  726MOL0     C97889   8.028   2.922   1.825  0.4728 -0.2899  0.1212
  726MOL0     C97890   8.166   2.874   1.876 -0.6082  0.2331  0.2494
  726MOL0     C97891   8.210   2.738   1.811 -0.4220 -0.7814 -0.2271
  726MOL0     N97892   8.347   2.703   1.858  0.6500  0.5961  0.2053
  726MOL0     C97893   8.389   2.685   1.992  0.0352  0.1059 -0.2168
  726MOL0     C97894   8.507   2.612   1.979  0.3044  0.1401  0.2532
  726MOL0     C97895   8.578   2.547   2.090 -0.1979  0.5440 -0.2312
  726MOL0     C97896   8.645   2.642   2.176 -0.0329  0.7931 -0.2726
  726MOL0     C97897   8.688   2.561   2.301  0.2746  0.6324  0.4605
  726MOL0     C97898   8.748   2.655   2.402  0.0185  0.6050 -0.4255
  726MOL0     O97899   8.887   2.672   2.396  0.5600 -0.6030 -0.0935
  726MOL0     C97900   8.964   2.714   2.500 -0.1408 -0.1719  0.2018
  726MOL0     C97901   9.105   2.731   2.476  0.0418 -0.1844  0.3895
  726MOL0     C97902   9.198   2.761   2.578  0.4626 -0.7403 -0.0830
  726MOL0     C97903   9.348   2.748   2.549  0.1492  0.1434 -0.5188
  726MOL0     C97904   9.149   2.780   2.712  0.1174  0.2629 -0.2238
  726MOL0     C97905   9.225   2.796   2.833 -0.1525 -0.1313  0.1896
  726MOL0     O97906   9.354   2.837   2.830 -0.4050 -0.7918  0.5631
  726MOL0     C97907   9.423   2.816   2.947 -0.0482 -0.0035 -0.4438
  726MOL0     C97908   9.406   2.895   3.059 -0.1007 -0.4530 -0.0434
  726MOL0     C97909   9.489   2.895   3.172 -0.1166 -0.4311  0.2769
  726MOL0     C97910   9.593   2.804   3.177 -0.1093  0.7330  0.1339
  726MOL0     O97911   9.681   2.799   3.285  0.1980  0.4369  0.1009
  726MOL0     C97912   9.743   2.682   3.323 -0.0253  0.4328 -0.4038
  726MOL0     C97913   9.849   2.703   3.437 -0.1942  0.8511 -0.3215
  726MOL0     C97914   9.913   2.565   3.473 -0.6027  0.5452 -0.6195
  726MOL0     C97915  10.055   2.554   3.420 -0.8550  0.8179  0.0322
  726MOL0     C97916  10.123   2.424   3.462  0.1563  0.3418  0.3765
  726MOL0     C97917  10.205   2.439   3.592 -0.7085 -0.2358  0.0314
  726MOL0     C97918  10.316   2.331   3.592  0.1720 -0.4272 -0.0371
  726MOL0     C97919  10.399   2.358   3.720  0.6807 -0.5220  0.7650
  726MOL0    Cl97920  10.491   2.213   3.750  0.4633 -0.2863  0.0297
  726MOL0     C97921   9.615   2.723   3.060 -1.0566  0.4813 -0.3536
  726MOL0     C97922   9.535   2.731   2.945  0.4814 -0.2489  0.4367
  726MOL0     O97923   9.164   2.758   2.938 -0.3050  0.8511 -0.5611
  726MOL0     C97924   9.010   2.772   2.723 -0.6091  0.5982 -0.1162
  726MOL0     C97925   8.913   2.739   2.625  0.1289  0.5174 -0.5940
  726MOL0     N97926   8.520   2.578   1.849  0.1141 -0.8082 -0.1968
  726MOL0     N97927   8.437   2.637   1.772  0.3880  0.1378 -0.4515
  726MOL0     C97928   7.295   3.036   1.883 -0.4688 -0.2733 -0.0456
  726MOL0     C97929   7.171   2.993   1.925 -0.4245 -0.3157 -0.0204
  726MOL0     C97930   6.782   2.950   2.107  0.1412  0.4325  0.5471
  726MOL0     C97931   6.746   2.919   2.236  0.6561 -0.5241  0.7744
  726MOL0     C97932   6.617   2.859   2.253 -0.9755 -1.1565  0.0663
  726MOL0     C97933   6.524   2.835   2.157  0.3671  0.2785  0.5714
  726MOL0     O97934   6.406   2.772   2.192  0.3820 -0.7934  0.0902
  726MOL0     C97935   6.306   2.740   2.094  0.7614  0.3366 -0.5836
  726MOL0     C97936   6.212   2.629   2.160  0.0505  0.0444 -0.1304
  726MOL0     C97937   6.159   2.663   2.305  0.2084  0.1942 -0.7801
  726MOL0     C97938   6.084   2.798   2.320  0.2946 -0.2667 -0.5525
  726MOL0     C97939   5.947   2.777   2.382 -0.9672  0.2816 -0.1255
  726MOL0     C97940   5.839   2.771   2.438 -0.4548  0.3047  0.0135
  726MOL0     C97941   6.553   2.870   2.022 -0.1481  0.2272 -0.3450
  726MOL0     C97942   6.683   2.925   2.004 -0.8717 -0.3966 -0.0842
  726MOL0     H97943   6.980   3.250   1.816 -1.2222  0.7860  3.4425
  726MOL0     H97944   7.211   3.323   1.728 -3.1986  0.0938 -1.4794
  726MOL0     H97945   7.550   3.050   1.751  2.5803 -0.7488  2.5346
  726MOL0     H97946   7.599   3.202   1.699 -0.7389 -2.2673 -1.5804
  726MOL0     H97947   7.568   3.278   1.942  1.5153  0.1991  1.5153
  726MOL0     H97948   7.574   3.101   1.982  1.8487 -2.1576 -0.9609
  726MOL0     H97949   7.787   3.270   1.853  0.6355  1.0761 -0.4472
  726MOL0     H97950   7.786   3.198   2.017 -0.5456 -0.2335  0.2991
  726MOL0     H97951   7.764   2.962   1.887 -2.0804  0.8885 -1.0976
  726MOL0     H97952   7.802   3.055   1.750  1.0096  2.4965 -0.7323
  726MOL0     H97953   7.999   3.139   1.847 -0.0345  0.7525  2.3751
  726MOL0     H97954   7.984   3.062   1.999 -0.3256  0.6066 -0.7176
  726MOL0     H97955   7.952   2.847   1.850  1.9807 -1.5533  1.0548
  726MOL0     H97956   8.026   2.952   1.720 -1.4817 -1.1187 -0.1244
  726MOL0     H97957   8.232   2.956   1.848  0.7217 -1.2079 -0.9853
  726MOL0     H97958   8.162   2.880   1.985 -2.9562  2.6915  0.1449
  726MOL0     H97959   8.222   2.756   1.704  1.9701  0.9658  0.2608
  726MOL0     H97960   8.142   2.659   1.844  2.4131 -2.1536  2.8711
  726MOL0     H97961   8.349   2.719   2.087  1.9942  3.7113 -0.4928
  726MOL0     H97962   8.496   2.498   2.143 -2.7163  1.1071 -3.2744
  726MOL0     H97963   8.642   2.465   2.056 -1.8589  0.2741 -3.0660
  726MOL0     H97964   8.573   2.719   2.204 -0.6624 -0.8060  2.8473
  726MOL0     H97965   8.732   2.691   2.131 -1.1879  2.7119 -0.5297
  726MOL0     H97966   8.763   2.491   2.263  0.3879  2.2085 -2.5598
  726MOL0     H97967   8.610   2.499   2.348  0.6880  0.4930  0.9724
  726MOL0     H97968   8.724   2.609   2.499  0.4235  0.2424 -0.4924
  726MOL0     H97969   8.698   2.752   2.397 -1.6684 -0.2223 -0.5228
  726MOL0     H97970   9.143   2.715   2.376 -1.0503  2.2042 -0.4756
  726MOL0     H97971   9.370   2.783   2.448  0.8833 -0.0038 -0.4155
  726MOL0     H97972   9.407   2.812   2.615 -1.3507  0.8539  0.1774
  726MOL0     H97973   9.372   2.642   2.563 -1.5016  0.1562  4.2388
  726MOL0     H97974   9.334   2.976   3.063  1.6228  1.0951  2.3052
  726MOL0     H97975   9.467   2.947   3.265 -2.6930 -2.0802  0.6955
  726MOL0     H97976   9.674   2.601   3.352  1.2415 -1.5830 -2.6664
  726MOL0     H97977   9.802   2.639   3.242  0.9271  3.7043 -1.5953
  726MOL0     H97978   9.928   2.775   3.414  0.4931  1.4387  3.2356
  726MOL0     H97979   9.781   2.742   3.513 -1.7806 -0.8796 -0.7779
  726MOL0     H97980   9.859   2.473   3.449 -3.7721  0.5906  4.8614
  726MOL0     H97981   9.935   2.568   3.580  2.6782  1.1158 -1.1797
  726MOL0     H97982  10.058   2.581   3.314 -1.5021 -1.7696 -0.7369
  726MOL0     H97983  10.111   2.637   3.463  0.6715  0.0860 -0.4612
  726MOL0     H97984  10.180   2.388   3.376 -3.2158  0.5550 -2.1804
  726MOL0     H97985  10.046   2.348   3.476 -2.0888  2.6835  1.7077
  726MOL0     H97986  10.256   2.535   3.596 -1.5363  0.1635  1.6132
  726MOL0     H97987  10.149   2.430   3.686 -0.1739  0.8307  0.4618
  726MOL0     H97988  10.376   2.334   3.501  0.5288  0.1478  0.2203
  726MOL0     H97989  10.273   2.230   3.601 -2.3689  0.6650  1.1061
  726MOL0     H97990  10.329   2.401   3.792  0.4457  2.0340 -0.8303
  726MOL0     H97991  10.471   2.438   3.700 -2.2779  2.0217 -0.7072
  726MOL0     H97992   9.694   2.649   3.052 -2.2750 -0.6692 -3.4465
  726MOL0     H97993   9.555   2.682   2.850 -2.3518  1.0877 -0.9828
  726MOL0     H97994   8.969   2.809   2.816  0.0170 -3.2229  1.8652
  726MOL0     H97995   8.809   2.761   2.645  0.7277  1.6482  1.6364
  726MOL0     H97996   7.378   2.976   1.920  0.1219  1.1358  1.0315
  726MOL0     H97997   7.170   2.898   1.978 -2.9315 -0.2694  0.1704
  726MOL0     H97998   6.800   2.952   2.325 -1.0968  2.0871  0.9742
  726MOL0     H97999   6.587   2.829   2.353 -0.8465  2.0134  1.1755
  726MOL0     H98000   6.258   2.834   2.065 -1.5902 -1.2052 -1.9319
  726MOL0     H98001   6.352   2.686   2.011  2.2003 -1.6311  1.3858
  726MOL0     H98002   6.285   2.548   2.161 -0.2449 -0.2206  0.9850
  726MOL0     H98003   6.129   2.608   2.091  2.2131  4.2660 -4.6752
  726MOL0     H98004   6.247   2.672   2.370 -0.6205 -0.3652  0.4610
  726MOL0     H98005   6.104   2.580   2.350  2.9561  0.0375  2.7253
  726MOL0     H98006   6.070   2.830   2.217 -0.1249 -2.4103 -1.2283
  726MOL0     H98007   6.147   2.865   2.379 -0.8997 -0.9266  1.5795
  726MOL0     H98008   5.741   2.760   2.480 -0.4666  2.1659  0.5655
  726MOL0     H98009   6.494   2.860   1.932 -1.1204  0.3751  0.2692
  726MOL0     H98010   6.714   2.948   1.903 -2.4370 -2.0430 -0.9943
  727MOL0     O98011   0.600   5.500   5.110 -0.6829 -0.1456  0.0647
  727MOL0     C98012   0.672   5.596   5.080 -0.0933 -0.1861  0.7437
  727MOL0     O98013   0.619   5.708   5.030 -0.1143 -0.4915  0.4068
  727MOL0     C98014   0.487   5.720   4.988 -0.4983 -0.7402  0.7225
  727MOL0     C98015   0.425   5.842   5.022  1.0650 -0.7529  0.0527
  727MOL0     C98016   0.294   5.858   4.975 -0.6112  0.9317 -0.3552
  727MOL0     C98017   0.219   5.763   4.902 -0.1251 -0.5631  0.0014
  727MOL0     O98018   0.094   5.786   4.866 -0.3363  0.1376  0.9833
  727MOL0     C98019   0.057   5.764   4.727 -0.1846 -0.6775 -0.3030
  727MOL0     C98020  -0.079   5.829   4.691  0.3506  0.1005 -0.8544
  727MOL0     C98021  -0.120   5.786   4.545  1.0556  0.2141 -0.1242
  727MOL0     C98022  -0.054   5.873   4.443 -0.1247  0.1807  0.5936
  727MOL0     C98023  -0.050   5.814   4.304 -0.6472  0.1773 -0.7405
  727MOL0     C98024  -0.166   5.856   4.197 -0.2048 -0.4820 -0.1916
  727MOL0     C98025  -0.307   5.814   4.254  0.1788  0.3491 -0.4960
  727MOL0     C98026  -0.417   5.825   4.150  0.4677 -0.3707 -0.6282
  727MOL0     N98027  -0.417   5.952   4.077 -0.0732 -0.2251 -0.0511
  727MOL0     C98028  -0.461   6.074   4.128  0.5345  0.4433 -1.1530
  727MOL0     C98029  -0.416   6.158   4.033 -0.2824 -0.2589  0.4278
  727MOL0     C98030  -0.435   6.309   4.044  0.3673 -0.2968 -0.8192
  727MOL0     C98031  -0.577   6.356   4.011  0.6165  0.0832  0.0024
  727MOL0     C98032  -0.692   6.294   4.081  0.5931 -0.1757 -1.1036
  727MOL0     C98033  -0.830   6.356   4.040  0.0436 -0.1093 -0.0093
  727MOL0     O98034  -0.838   6.490   4.078 -0.1735  0.4551 -0.0757
  727MOL0     C98035  -0.952   6.548   4.137  0.1294 -0.0049  0.3256
  727MOL0     C98036  -1.013   6.503   4.259 -0.1067 -0.4204  0.4035
  727MOL0     C98037  -1.117   6.580   4.313 -1.1305 -0.7005 -0.8612
  727MOL0     C98038  -1.158   6.530   4.451 -0.1096  0.2306  1.1211
  727MOL0     C98039  -1.178   6.693   4.240 -0.0116  0.5327  1.2655
  727MOL0     C98040  -1.289   6.786   4.297 -0.1233  0.4700  0.4656
  727MOL0     O98041  -1.315   6.900   4.231  0.4197  0.9503 -0.4890
  727MOL0     C98042  -1.425   6.982   4.252  0.9609  0.3290 -0.3473
  727MOL0     C98043  -1.546   6.949   4.324 -0.3126  0.1897  0.0618
  727MOL0     C98044  -1.652   7.044   4.337 -0.2108 -0.2437 -0.5180
  727MOL0     C98045  -1.632   7.168   4.280 -0.0244  0.3005  0.6705
  727MOL0     O98046  -1.725   7.265   4.306 -0.1744 -0.8903 -0.5399
  727MOL0     C98047  -1.705   7.400   4.262  0.0045 -0.7584 -0.4474
  727MOL0     C98048  -1.786   7.489   4.349  0.4941  0.1138 -0.6031
  727MOL0     C98049  -1.945   7.459   4.327 -0.3756 -0.3135  0.8202
  727MOL0     C98050  -2.038   7.573   4.350 -0.4562  0.3156  0.1751
  727MOL0     C98051  -2.018   7.632   4.488 -0.1238 -0.4982  0.5848
  727MOL0     C98052  -2.109   7.749   4.525 -0.3683  0.7032 -0.0824
  727MOL0     C98053  -2.144   7.760   4.678  0.3547  0.2585 -0.5106
  727MOL0     C98054  -2.215   7.890   4.700 -0.2595  1.3342 -0.6930
  727MOL0    Cl98055  -2.282   7.896   4.864  0.3201  0.0075  0.1757
  727MOL0     C98056  -1.518   7.196   4.193  0.4775 -0.5531 -0.5115
  727MOL0     C98057  -1.415   7.106   4.194 -0.2500  0.2888 -0.1242
  727MOL0     O98058  -1.344   6.746   4.398  0.1571  0.2243  0.7036
  727MOL0     C98059  -1.121   6.719   4.113  0.8207 -0.6975  0.4103
  727MOL0     C98060  -1.008   6.659   4.076 -1.1527  0.4531  0.5177
  727MOL0     N98061  -0.345   6.095   3.937 -1.0002 -0.4946  0.2863
  727MOL0     N98062  -0.347   5.972   3.964 -0.0657  0.2507 -0.6498
  727MOL0     C98063   0.290   5.648   4.871 -1.3935  0.3225 -0.1380
  727MOL0     C98064   0.420   5.616   4.916 -0.9517  0.6602  0.0522
  727MOL0     C98065   0.806   5.603   5.129 -1.5910  0.1844 -0.0263
  727MOL0     C98066   0.862   5.731   5.167 -0.1702  0.5937 -0.3137
  727MOL0     C98067   0.994   5.742   5.202 -0.3120 -0.5257  0.3378
  727MOL0     C98068   1.076   5.630   5.214  0.8354 -0.9006  0.5157
  727MOL0     O98069   1.214   5.638   5.223  0.0599  0.4288 -0.3380
  727MOL0     C98070   1.280   5.578   5.112  0.8009 -0.1296  0.1176
  727MOL0     C98071   1.257   5.653   4.978 -1.7508  0.7855 -0.3125
  727MOL0     C98072   1.297   5.800   4.998  0.5333  0.5279 -0.0795
  727MOL0     C98073   1.298   5.872   4.868 -0.6596  0.2256 -0.5053
  727MOL0     C98074   1.172   5.907   4.812  0.0884  0.3285 -0.2126
  727MOL0     C98075   1.053   5.934   4.786 -0.3411 -0.5345 -0.8795
  727MOL0     C98076   1.017   5.505   5.209  0.2261 -0.2161 -0.0769
  727MOL0     C98077   0.882   5.490   5.153 -1.2583 -0.2286 -0.2515
  727MOL0     H98078   0.477   5.918   5.079 -0.1610  3.3920 -3.7660
  727MOL0     H98079   0.252   5.950   5.012 -1.1559  0.0717  1.2311
  727MOL0     H98080   0.126   5.817   4.661 -0.6106 -1.3886 -1.3291
  727MOL0     H98081   0.058   5.659   4.695  0.0958 -0.8198  0.1472
  727MOL0     H98082  -0.155   5.793   4.760 -0.3675  1.6637 -0.7904
  727MOL0     H98083  -0.076   5.937   4.713 -1.8447 -0.0858  0.7149
  727MOL0     H98084  -0.096   5.680   4.534 -4.4646 -1.4011  0.5700
  727MOL0     H98085  -0.228   5.802   4.542  0.8377 -1.0380  0.4513
  727MOL0     H98086  -0.105   5.970   4.442 -2.1147 -0.7013 -2.8464
  727MOL0     H98087   0.048   5.880   4.481  0.1289 -0.9130  0.1596
  727MOL0     H98088   0.044   5.858   4.271  0.0183 -0.6880 -0.0270
  727MOL0     H98089  -0.038   5.705   4.308 -0.7404  0.0601 -2.5445
  727MOL0     H98090  -0.167   5.965   4.186  0.1560 -0.2691  1.5364
  727MOL0     H98091  -0.146   5.821   4.096 -2.2816 -0.8844 -0.5060
  727MOL0     H98092  -0.300   5.706   4.274  0.4465  0.3326 -0.6768
  727MOL0     H98093  -0.320   5.871   4.347 -2.2197 -3.6259  1.9170
  727MOL0     H98094  -0.517   5.798   4.185  0.3845  1.0854  0.3393
  727MOL0     H98095  -0.396   5.750   4.073 -0.1678  0.6459 -1.8401
  727MOL0     H98096  -0.528   6.079   4.214  0.6492 -1.8348 -0.8814
  727MOL0     H98097  -0.400   6.334   4.145  1.3578 -0.5294 -1.0928
  727MOL0     H98098  -0.369   6.361   3.973  0.8807 -1.1646 -0.9892
  727MOL0     H98099  -0.578   6.341   3.903  1.8245 -0.6214  0.0714
  727MOL0     H98100  -0.583   6.464   4.026 -1.0237 -0.1641  1.4605
  727MOL0     H98101  -0.671   6.296   4.189 -1.5025  3.2833 -0.5931
  727MOL0     H98102  -0.699   6.188   4.055  0.6217 -0.0137 -1.7836
  727MOL0     H98103  -0.909   6.298   4.089 -1.5425  1.4557 -0.5722
  727MOL0     H98104  -0.848   6.353   3.932 -1.9491 -1.9173  0.2956
  727MOL0     H98105  -0.984   6.412   4.311 -2.0350 -2.3198 -1.6406
  727MOL0     H98106  -1.260   6.495   4.438  1.0332 -2.9856 -0.2226
  727MOL0     H98107  -1.088   6.455   4.489  2.6087  2.0985  0.1539
  727MOL0     H98108  -1.151   6.612   4.523 -0.8453 -0.6050  2.1742
  727MOL0     H98109  -1.563   6.846   4.354 -2.8047  0.1444 -1.2168
  727MOL0     H98110  -1.741   7.032   4.398  1.3182 -0.5110  1.8057
  727MOL0     H98111  -1.600   7.431   4.270 -0.7717  1.9791  0.3282
  727MOL0     H98112  -1.736   7.422   4.159  0.9533  2.5965 -0.1604
  727MOL0     H98113  -1.765   7.472   4.455 -1.7881 -1.1606 -0.2964
  727MOL0     H98114  -1.758   7.592   4.325 -1.2386  1.4448  2.5168
  727MOL0     H98115  -1.982   7.378   4.391 -1.0417  1.6218  3.0178
  727MOL0     H98116  -1.964   7.433   4.223  1.2858  1.2964  0.0646
  727MOL0     H98117  -2.025   7.653   4.277  1.2382 -0.3651 -0.3217
  727MOL0     H98118  -2.138   7.531   4.336 -1.8194  3.5596 -0.6801
  727MOL0     H98119  -1.915   7.669   4.497  1.2592 -3.8340  0.2676
  727MOL0     H98120  -2.025   7.556   4.567  0.6029 -0.7160  0.4539
  727MOL0     H98121  -2.062   7.844   4.496  2.2907 -0.1316  1.1525
  727MOL0     H98122  -2.200   7.734   4.465 -3.1476  2.5715  3.2939
  727MOL0     H98123  -2.059   7.760   4.747 -2.5567 -1.7894  3.4878
  727MOL0     H98124  -2.213   7.679   4.703  0.4720  0.7866  1.7119
  727MOL0     H98125  -2.293   7.916   4.627 -0.2513  2.9017 -0.1579
  727MOL0     H98126  -2.143   7.972   4.698 -1.4520  2.4032 -0.9694
  727MOL0     H98127  -1.496   7.295   4.153 -0.7747  0.4729  1.2344
  727MOL0     H98128  -1.312   7.128   4.170  1.1183 -2.3277  2.6710
  727MOL0     H98129  -1.170   6.787   4.043  4.0827  0.4435 -0.9692
  727MOL0     H98130  -0.951   6.694   3.990  1.9512 -2.4380  1.2065
  727MOL0     H98131   0.243   5.583   4.797 -0.8502  0.8036 -0.9070
  727MOL0     H98132   0.475   5.529   4.882  0.3954  1.5728 -0.1749
  727MOL0     H98133   0.797   5.818   5.168 -2.0210 -0.5755 -3.4088
  727MOL0     H98134   1.042   5.837   5.223  1.1158 -0.0942 -3.8657
  727MOL0     H98135   1.386   5.567   5.138  0.6733  0.3283  0.8638
  727MOL0     H98136   1.257   5.472   5.101  3.3469 -0.4796 -3.7576
  727MOL0     H98137   1.156   5.638   4.940 -1.6348 -0.3868 -0.1905
  727MOL0     H98138   1.323   5.603   4.907  2.5116 -0.6463  4.0561
  727MOL0     H98139   1.394   5.808   5.048 -0.3582 -2.0757  2.3378
  727MOL0     H98140   1.232   5.849   5.071  0.6029  2.1684 -1.0741
  727MOL0     H98141   1.349   5.808   4.796  1.6126 -1.7013  2.5582
  727MOL0     H98142   1.357   5.964   4.868  1.8651 -1.2815 -0.6803
  727MOL0     H98143   0.948   5.944   4.764 -1.1452 -5.2495 -0.4339
  727MOL0     H98144   1.070   5.411   5.222 -0.1331 -0.6039 -1.3330
  727MOL0     H98145   0.842   5.391   5.132 -2.4102  0.1556  0.0619
  728MOL0     O98146   4.782   4.564   7.322 -0.3980 -0.3826 -0.2498
  728MOL0     C98147   4.870   4.492   7.377  0.7414  0.0500 -0.2040
  728MOL0     O98148   4.843   4.393   7.473 -0.3522  0.1214 -0.4084
  728MOL0     C98149   4.711   4.383   7.521 -0.0761  0.2300  0.6751
  728MOL0     C98150   4.598   4.371   7.435 -1.4418 -0.0964 -0.0890
  728MOL0     C98151   4.467   4.372   7.496 -0.0782  0.6744 -1.2276
  728MOL0     C98152   4.462   4.367   7.639  0.0973  0.3221 -1.1982
  728MOL0     O98153   4.333   4.372   7.696 -0.1287 -0.1546  0.6867
  728MOL0     C98154   4.317   4.427   7.822 -0.4988  0.1860 -0.0755
  728MOL0     C98155   4.272   4.320   7.922  0.0964 -0.8172  0.3274
  728MOL0     C98156   4.120   4.296   7.892 -0.0367  0.1114  0.2448
  728MOL0     C98157   4.059   4.178   7.969  0.0297 -0.1122 -0.4188
  728MOL0     C98158   3.916   4.147   7.960 -0.4720 -0.0321 -0.4612
  728MOL0     C98159   3.882   4.038   7.853  0.3122 -0.0203 -0.8098
  728MOL0     C98160   3.737   4.001   7.839  0.0265 -0.5702  0.0789
  728MOL0     C98161   3.646   4.112   7.790  0.0442  0.2747  0.1924
  728MOL0     N98162   3.691   4.154   7.657  0.2147 -0.5012 -0.0160
  728MOL0     C98163   3.730   4.279   7.644 -0.2422 -0.2194  0.5435
  728MOL0     C98164   3.757   4.290   7.506  0.3904 -0.4516 -0.5211
  728MOL0     C98165   3.775   4.425   7.442 -0.0136 -0.1490  0.8095
  728MOL0     C98166   3.920   4.474   7.425  0.2422 -0.0796  0.6815
  728MOL0     C98167   3.995   4.501   7.555 -0.4815 -0.7210 -0.0545
  728MOL0     C98168   4.129   4.574   7.537  0.2104  0.7947  0.5815
  728MOL0     O98169   4.156   4.646   7.661  0.4920  0.6435  0.7077
  728MOL0     C98170   4.261   4.733   7.662 -0.7729  0.1717 -0.2668
  728MOL0     C98171   4.377   4.725   7.582 -0.2499 -0.2172 -1.1443
  728MOL0     C98172   4.492   4.810   7.602  1.0693  0.4698  0.2264
  728MOL0     C98173   4.605   4.777   7.508 -1.1904  0.7052 -0.1622
  728MOL0     C98174   4.486   4.901   7.708  0.0715 -0.1824  0.0235
  728MOL0     C98175   4.592   5.004   7.747  0.5660 -0.2968  0.4966
  728MOL0     O98176   4.599   5.046   7.877  0.0841 -0.0459 -0.6574
  728MOL0     C98177   4.708   5.116   7.916  0.1070 -0.3191  0.1994
  728MOL0     C98178   4.701   5.252   7.903 -0.2340  0.3841  0.0117
  728MOL0     C98179   4.805   5.330   7.944 -0.3227 -0.1348  0.0708
  728MOL0     C98180   4.920   5.270   8.002  0.2470 -0.8469 -0.9181
  728MOL0     O98181   5.027   5.342   8.048 -0.3142 -0.7270  0.0812
  728MOL0     C98182   5.093   5.426   7.952 -0.5271 -0.2662  0.2153
  728MOL0     C98183   5.189   5.353   7.866  0.0521 -0.0973  0.1953
  728MOL0     C98184   5.124   5.300   7.741  0.4197 -0.4236  0.7038
  728MOL0     C98185   5.057   5.403   7.638 -0.1570  0.7390 -0.3889
  728MOL0     C98186   5.021   5.344   7.500  0.2393  0.0147 -0.4578
  728MOL0     C98187   4.896   5.246   7.494  0.7998 -0.7088  0.2065
  728MOL0     C98188   4.863   5.193   7.351  0.3426 -0.6287 -0.1528
  728MOL0     C98189   4.823   5.304   7.249 -0.4387  0.1903 -0.0281
  728MOL0    Cl98190   4.661   5.376   7.296 -0.3014  0.1801  0.7612
  728MOL0     C98191   4.925   5.130   8.013 -0.1422  0.4932  0.5086
  728MOL0     C98192   4.814   5.052   7.974  0.1194 -0.4187 -0.4459
  728MOL0     O98193   4.668   5.039   7.657  0.0283 -0.4151  0.3228
  728MOL0     C98194   4.371   4.902   7.788 -0.2197 -0.0181  0.0263
  728MOL0     C98195   4.260   4.822   7.769  0.4910  0.0649 -0.1921
  728MOL0     N98196   3.733   4.169   7.451 -0.8075  0.0668  0.1485
  728MOL0     N98197   3.673   4.089   7.534  0.1815 -0.1341  0.8694
  728MOL0     C98198   4.579   4.354   7.718 -0.9290 -0.0310  0.3746
  728MOL0     C98199   4.701   4.366   7.663 -0.2157  0.3975 -0.0938
  728MOL0     C98200   5.015   4.516   7.364  0.5384  0.0812  0.0215
  728MOL0     C98201   5.062   4.614   7.275 -0.6392  0.5681 -0.4048
  728MOL0     C98202   5.200   4.633   7.261  0.6672  0.1572 -0.5000
  728MOL0     C98203   5.295   4.568   7.339  0.1389 -0.1629  0.2891
  728MOL0     O98204   5.425   4.606   7.312 -0.1477  0.6672 -0.0659
  728MOL0     C98205   5.539   4.538   7.375  0.1887 -1.1449 -0.3962
  728MOL0     C98206   5.676   4.568   7.304 -0.1490  0.6879 -0.3890
  728MOL0     C98207   5.699   4.717   7.297  0.7272  0.0075  0.4721
  728MOL0     C98208   5.810   4.744   7.209 -0.6375 -0.5067  0.8762
  728MOL0     C98209   5.822   4.883   7.150 -0.1551  0.0288 -0.3635
  728MOL0     C98210   5.819   5.004   7.121  0.1502  0.3929  0.1429
  728MOL0     C98211   5.248   4.469   7.425 -0.1324 -0.2247 -1.1637
  728MOL0     C98212   5.114   4.444   7.441 -0.3153  0.0850  0.5758
  728MOL0     H98213   4.596   4.372   7.327  0.8163 -0.2596 -0.1652
  728MOL0     H98214   4.377   4.394   7.440 -0.4174  0.8458 -0.6228
  728MOL0     H98215   4.412   4.470   7.856 -0.5224  0.0008  0.2278
  728MOL0     H98216   4.252   4.515   7.821  0.0154  0.6032  1.0227
  728MOL0     H98217   4.335   4.233   7.903  0.0144 -0.8807  0.3499
  728MOL0     H98218   4.288   4.364   8.021  1.4303  2.2635 -1.1319
  728MOL0     H98219   4.066   4.390   7.905 -1.8529 -0.6868 -1.0248
  728MOL0     H98220   4.110   4.263   7.788  1.2017  0.6785 -0.0779
  728MOL0     H98221   4.106   4.086   7.933  0.8660  0.0584  0.2198
  728MOL0     H98222   4.080   4.197   8.074  0.0703  0.1633 -0.4775
  728MOL0     H98223   3.878   4.115   8.058 -1.8444  1.4556 -0.4752
  728MOL0     H98224   3.855   4.234   7.934  1.4008  0.4757 -3.6858
  728MOL0     H98225   3.921   4.077   7.759  0.1294  0.0124 -0.8727
  728MOL0     H98226   3.924   3.940   7.878 -1.7264 -1.1462 -1.5482
  728MOL0     H98227   3.732   3.916   7.770 -1.6764 -0.9817  0.6546
  728MOL0     H98228   3.700   3.964   7.935  0.9520  3.6631  2.2884
  728MOL0     H98229   3.647   4.192   7.865  1.4325  0.9796 -0.5300
  728MOL0     H98230   3.542   4.079   7.783  0.2165 -1.3693  3.4102
  728MOL0     H98231   3.740   4.353   7.722  1.8769 -0.4512  0.5704
  728MOL0     H98232   3.738   4.418   7.339  2.8199  0.9945 -0.4106
  728MOL0     H98233   3.721   4.497   7.504  1.1830  0.1239  1.5748
  728MOL0     H98234   3.912   4.563   7.362  1.1302 -1.2076 -1.1116
  728MOL0     H98235   3.983   4.404   7.369  1.6962  0.6283  1.3821
  728MOL0     H98236   4.013   4.402   7.596  0.2990 -1.0715 -1.2041
  728MOL0     H98237   3.930   4.563   7.617  0.1448  0.9454 -0.9737
  728MOL0     H98238   4.103   4.641   7.454 -2.0545  2.7519  2.7077
  728MOL0     H98239   4.212   4.514   7.497 -1.2910 -0.0881 -1.3736
  728MOL0     H98240   4.381   4.651   7.502 -2.0056  2.0334 -3.4729
  728MOL0     H98241   4.702   4.823   7.532 -1.7802  1.3471  1.0858
  728MOL0     H98242   4.617   4.672   7.479 -2.3432  0.5006  0.0507
  728MOL0     H98243   4.581   4.830   7.416 -0.3186 -0.8625 -1.3572
  728MOL0     H98244   4.606   5.289   7.866  0.0486  2.5251  1.2734
  728MOL0     H98245   4.809   5.438   7.950  1.2977 -0.0677 -1.4945
  728MOL0     H98246   5.025   5.488   7.893 -1.7001 -0.5114  1.2730
  728MOL0     H98247   5.149   5.495   8.015 -3.3416  1.2161  1.2749
  728MOL0     H98248   5.275   5.416   7.842  0.5859 -0.6390  0.6390
  728MOL0     H98249   5.222   5.269   7.928 -2.4621 -1.2684  0.0546
  728MOL0     H98250   5.029   5.252   7.767 -0.5046  0.0221 -1.5439
  728MOL0     H98251   5.193   5.239   7.682 -0.0044  0.5246 -0.8559
  728MOL0     H98252   4.975   5.455   7.688  0.1201 -0.1782  1.1156
  728MOL0     H98253   5.134   5.479   7.626  2.7833 -1.3371  3.0151
  728MOL0     H98254   5.104   5.283   7.462  0.0755 -1.1618  1.0119
  728MOL0     H98255   5.000   5.413   7.418  0.3023  0.1022 -0.4014
  728MOL0     H98256   4.923   5.161   7.557 -4.9301 -1.4850  2.2155
  728MOL0     H98257   4.816   5.303   7.540  2.2713  1.9105 -0.2698
  728MOL0     H98258   4.783   5.119   7.350 -0.2349 -0.0111 -0.5360
  728MOL0     H98259   4.948   5.144   7.302  1.3195  1.0291 -0.2096
  728MOL0     H98260   4.824   5.257   7.150 -2.8520  1.6268 -0.8473
  728MOL0     H98261   4.898   5.384   7.245  0.5552 -0.4126  3.6690
  728MOL0     H98262   5.016   5.084   8.051 -0.2432  0.1618  0.3590
  728MOL0     H98263   4.817   4.944   7.984 -0.0609 -0.3725  0.1227
  728MOL0     H98264   4.365   4.979   7.864 -2.9449  1.8200 -1.8851
  728MOL0     H98265   4.165   4.843   7.816  0.4197  1.7165 -0.9984
  728MOL0     H98266   4.568   4.345   7.826  0.5116 -1.3132  0.4432
  728MOL0     H98267   4.797   4.362   7.713  1.2791 -0.5965 -2.7892
  728MOL0     H98268   5.002   4.667   7.202  0.6295  1.4846 -0.8225
  728MOL0     H98269   5.231   4.716   7.197  0.2009  0.0553 -0.8652
  728MOL0     H98270   5.561   4.551   7.481  2.2451 -1.3567 -0.7549
  728MOL0     H98271   5.514   4.431   7.372 -0.2904 -1.0925  0.9216
  728MOL0     H98272   5.683   4.521   7.205 -2.5395  1.2504 -0.8830
  728MOL0     H98273   5.746   4.511   7.366 -0.3600  0.9129  0.0590
  728MOL0     H98274   5.728   4.757   7.395  0.1814  2.7259 -0.3685
  728MOL0     H98275   5.609   4.767   7.260  2.2168  1.2555 -1.7708
  728MOL0     H98276   5.810   4.676   7.123 -0.8212  0.6023 -0.0340
  728MOL0     H98277   5.908   4.729   7.255  1.2325 -1.4879 -3.0068
  728MOL0     H98278   5.801   5.106   7.094 -0.5754 -0.1098 -1.4572
  728MOL0     H98279   5.321   4.404   7.472  0.6909  2.6943  2.0707
  728MOL0     H98280   5.085   4.360   7.505 -2.1433 -1.8671 -2.5504
  729MOL0     O98281   4.196  11.318   9.535 -0.2967  0.9872  0.1711
  729MOL0     C98282   4.289  11.295   9.462 -0.5104 -0.2099 -0.9607
  729MOL0     O98283   4.310  11.173   9.397  0.3330 -0.3251  0.1048
  729MOL0     C98284   4.241  11.063   9.446  0.5827  0.1622  0.1764
  729MOL0     C98285   4.305  10.983   9.532 -0.1725  1.4112  0.7318
  729MOL0     C98286   4.248  10.866   9.575  0.7931 -0.0413 -0.0908
  729MOL0     C98287   4.110  10.834   9.541  0.2624  0.7691 -0.5819
  729MOL0     O98288   4.051  10.718   9.579  0.7496 -0.0583  1.1332
  729MOL0     C98289   4.125  10.631   9.673  0.9721  1.0552 -0.2687
  729MOL0     C98290   4.037  10.507   9.700 -0.6856  0.1650  0.2665
  729MOL0     C98291   3.915  10.534   9.791  0.7567 -0.1325 -0.7015
  729MOL0     C98292   3.835  10.405   9.808 -0.1093  0.4942  0.2805
  729MOL0     C98293   3.690  10.438   9.867 -0.1563  0.7806 -0.3253
  729MOL0     C98294   3.611  10.532   9.773 -0.4522 -0.0080 -0.3642
  729MOL0     C98295   3.464  10.533   9.815  0.0481 -0.0137 -0.8298
  729MOL0     C98296   3.393  10.622   9.718 -0.0584  0.0243 -0.0863
  729MOL0     N98297   3.245  10.649   9.744 -0.6808  0.9924 -0.2730
  729MOL0     C98298   3.135  10.586   9.682 -0.7513 -0.0170 -0.2427
  729MOL0     C98299   3.028  10.647   9.733 -0.2647 -0.0443 -0.7124
  729MOL0     C98300   2.887  10.611   9.683 -0.8282  0.0544  1.2233
  729MOL0     C98301   2.791  10.579   9.798  0.7221  0.2675  0.3811
  729MOL0     C98302   2.662  10.525   9.730  0.2332 -0.9220 -0.0623
  729MOL0     C98303   2.553  10.507   9.835  0.1691 -0.2252  0.4932
  729MOL0     O98304   2.418  10.504   9.783 -0.0245 -0.7748  0.0420
  729MOL0     C98305   2.312  10.483   9.872 -0.2250 -0.2492 -0.0657
  729MOL0     C98306   2.322  10.453  10.005  0.0722 -0.0660 -0.8178
  729MOL0     C98307   2.211  10.461  10.097 -0.1032 -0.2442 -0.3382
  729MOL0     C98308   2.237  10.447  10.248 -0.1685  0.0185 -0.4083
  729MOL0     C98309   2.085  10.489  10.036 -0.1342  0.5041 -0.4166
  729MOL0     C98310   1.968  10.497  10.129  0.2165 -0.3581  0.3506
  729MOL0     O98311   1.961  10.434  10.250  0.0813 -0.5293  0.3913
  729MOL0     C98312   1.843  10.425  10.321 -0.0770  0.2045 -0.5126
  729MOL0     C98313   1.830  10.484  10.443 -0.1428 -0.0640  0.5530
  729MOL0     C98314   1.702  10.467  10.505 -0.0984 -0.9532  0.2660
  729MOL0     C98315   1.603  10.391  10.455 -0.2589 -0.1262  0.2973
  729MOL0     O98316   1.475  10.379  10.512 -0.6793  0.5771  0.4326
  729MOL0     C98317   1.435  10.478  10.595  0.4175  0.5740 -0.7324
  729MOL0     C98318   1.280  10.498  10.604  0.1107 -0.5104  0.2428
  729MOL0     C98319   1.195  10.369  10.634 -1.4178  0.1270  0.2560
  729MOL0     C98320   1.062  10.409  10.688  0.4853 -0.0085  0.3740
  729MOL0     C98321   0.965  10.287  10.702 -0.4182  0.6209  0.0680
  729MOL0     C98322   0.834  10.323  10.770  0.0651  0.0969  1.0951
  729MOL0     C98323   0.741  10.202  10.782 -0.6535  0.1871 -0.1274
  729MOL0     C98324   0.646  10.216  10.902  0.0854  0.0021 -0.2582
  729MOL0    Cl98325   0.548  10.367  10.863 -0.1833  0.2985  0.0730
  729MOL0     C98326   1.626  10.323  10.335  0.1621  0.5018 -0.8164
  729MOL0     C98327   1.742  10.346  10.266  0.3842 -0.0349 -0.4806
  729MOL0     O98328   1.872  10.571  10.085 -0.7324 -0.1618 -0.2933
  729MOL0     C98329   2.070  10.487   9.896 -0.0274 -0.3723 -0.5636
  729MOL0     C98330   2.187  10.495   9.817  0.2208 -0.2070  0.3282
  729MOL0     N98331   3.064  10.731   9.829 -0.3401  0.4709 -0.3858
  729MOL0     N98332   3.194  10.733   9.834 -0.1054 -0.2456  0.3402
  729MOL0     C98333   4.036  10.925   9.470  0.0439 -0.0060 -0.5661
  729MOL0     C98334   4.103  11.039   9.425  0.7659  0.0811  0.3589
  729MOL0     C98335   4.376  11.414   9.431  0.7847 -0.1148 -0.0048
  729MOL0     C98336   4.321  11.542   9.433 -0.5986 -0.1209  0.6178
  729MOL0     C98337   4.397  11.652   9.382  0.3184 -0.3131 -0.1505
  729MOL0     C98338   4.529  11.632   9.345  0.1629 -0.3016  0.2899
  729MOL0     O98339   4.610  11.737   9.301 -0.1401  0.6469 -0.5069
  729MOL0     C98340   4.572  11.880   9.322 -0.6477 -0.1047 -0.4814
  729MOL0     C98341   4.666  11.979   9.253  0.1641 -0.3041 -0.2841
  729MOL0     C98342   4.814  11.950   9.281  0.9600 -0.9362  0.2320
  729MOL0     C98343   4.898  12.056   9.222 -0.3642  0.1393 -0.2497
  729MOL0     C98344   5.045  12.033   9.256 -0.1333  0.3334  0.5013
  729MOL0     C98345   5.156  12.004   9.284 -0.3663  0.0338  0.5241
  729MOL0     C98346   4.587  11.507   9.345 -1.1486 -0.0502 -0.6789
  729MOL0     C98347   4.513  11.402   9.391 -0.4706  0.1763  0.4324
  729MOL0     H98348   4.410  10.997   9.553  0.7727 -0.4373 -2.1550
  729MOL0     H98349   4.310  10.803   9.638  1.2851  0.2976 -0.2223
  729MOL0     H98350   4.216  10.588   9.631  0.2765 -1.3182  0.4857
  729MOL0     H98351   4.138  10.685   9.767 -2.1816  0.1713  0.8046
  729MOL0     H98352   3.997  10.466   9.606  0.2112 -0.8738  0.3201
  729MOL0     H98353   4.098  10.431   9.750  1.8569  1.6121 -0.4061
  729MOL0     H98354   3.961  10.552   9.889  2.2315  1.7372 -1.6570
  729MOL0     H98355   3.857  10.622   9.760  1.1324  0.3717 -0.0253
  729MOL0     H98356   3.818  10.340   9.722 -1.1802 -0.4588  1.1795
  729MOL0     H98357   3.904  10.340   9.865  1.7697  1.6202 -0.6197
  729MOL0     H98358   3.635  10.343   9.869 -2.7384  2.1915  1.5048
  729MOL0     H98359   3.688  10.476   9.970  1.4449  2.1556 -0.7591
  729MOL0     H98360   3.661  10.626   9.797  4.4011 -2.1449 -0.8573
  729MOL0     H98361   3.630  10.508   9.668  2.3706  0.3147 -0.0166
  729MOL0     H98362   3.420  10.433   9.805  1.8073 -0.9820  0.5150
  729MOL0     H98363   3.453  10.571   9.916  0.7140 -1.3070 -0.2402
  729MOL0     H98364   3.412  10.590   9.615  1.8856 -2.1651  0.8758
  729MOL0     H98365   3.435  10.722   9.732 -0.6904  0.1321  1.2602
  729MOL0     H98366   3.137  10.502   9.614 -0.5127 -0.2600  0.0667
  729MOL0     H98367   2.860  10.693   9.617  1.6228 -0.4058 -0.5228
  729MOL0     H98368   2.905  10.523   9.621  1.4081  1.3929 -0.1713
  729MOL0     H98369   2.751  10.665   9.853  0.5775  1.0738 -0.9417
  729MOL0     H98370   2.840  10.513   9.870 -1.2423 -1.2170  0.4439
  729MOL0     H98371   2.676  10.440   9.664 -1.0438  0.5268 -2.3304
  729MOL0     H98372   2.634  10.602   9.658 -0.0646 -1.3465 -0.4008
  729MOL0     H98373   2.554  10.592   9.905 -0.9822 -1.6949  2.4064
  729MOL0     H98374   2.584  10.415   9.885  0.2223  0.1450  1.1633
  729MOL0     H98375   2.418  10.424  10.047 -0.7458 -1.1208  0.3992
  729MOL0     H98376   2.341  10.477  10.262 -0.7754  2.3294 -0.3540
  729MOL0     H98377   2.180  10.512  10.315  2.2819  0.6652  1.1886
  729MOL0     H98378   2.222  10.350  10.297 -1.1404  1.3832  2.2256
  729MOL0     H98379   1.905  10.549  10.486  1.3703 -1.1675 -0.3313
  729MOL0     H98380   1.706  10.523  10.598  0.4834  1.9964 -1.4105
  729MOL0     H98381   1.476  10.438  10.688 -0.0843 -5.2190 -2.6019
  729MOL0     H98382   1.480  10.574  10.568  0.5592  0.6315 -0.2968
  729MOL0     H98383   1.248  10.571  10.679 -1.5611  0.1989 -1.1067
  729MOL0     H98384   1.247  10.544  10.511  0.4484  2.0160  1.2836
  729MOL0     H98385   1.237  10.298  10.705 -0.4952  1.8387  1.4968
  729MOL0     H98386   1.188  10.302  10.547  5.2387  2.9331 -3.2013
  729MOL0     H98387   1.073  10.459  10.784 -1.5968  1.2807  0.0178
  729MOL0     H98388   1.014  10.486  10.625 -1.2095 -1.4497 -0.1824
  729MOL0     H98389   1.017  10.208  10.757 -0.3579  1.5799  1.4469
  729MOL0     H98390   0.944  10.258  10.599  2.2891  0.5276 -0.5450
  729MOL0     H98391   0.854  10.358  10.871  0.9444 -3.2819  2.2127
  729MOL0     H98392   0.793  10.405  10.710  1.0439  0.3602  0.7671
  729MOL0     H98393   0.805  10.117  10.808  1.0143  1.4843  0.1579
  729MOL0     H98394   0.699  10.177  10.684 -0.1417  0.3618 -0.3975
  729MOL0     H98395   0.699  10.225  10.998  1.2092  0.6867 -0.9212
  729MOL0     H98396   0.577  10.132  10.912  0.1706 -0.0827 -0.3745
  729MOL0     H98397   1.539  10.276  10.289  0.5110 -2.4555  1.2179
  729MOL0     H98398   1.758  10.305  10.167 -0.4997 -0.4820 -0.4562
  729MOL0     H98399   1.975  10.500   9.846 -0.1796 -0.3326 -0.2611
  729MOL0     H98400   2.178  10.501   9.709  0.2235 -0.6867  0.2985
  729MOL0     H98401   3.931  10.909   9.445  0.0663  1.8554 -2.0905
  729MOL0     H98402   4.046  11.107   9.363 -2.2423 -0.3673  2.4538
  729MOL0     H98403   4.224  11.555   9.481 -1.3779 -1.2329 -0.5895
  729MOL0     H98404   4.355  11.752   9.377  3.2979  1.0209 -1.0240
  729MOL0     H98405   4.473  11.907   9.283 -0.5184  0.7233 -0.2740
  729MOL0     H98406   4.573  11.902   9.429  0.0031  1.6386 -0.7985
  729MOL0     H98407   4.648  12.084   9.281 -0.7687 -0.3226 -0.7603
  729MOL0     H98408   4.649  11.986   9.145  0.7320 -1.4729 -0.4628
  729MOL0     H98409   4.837  11.857   9.230  1.6755 -0.5095 -0.2453
  729MOL0     H98410   4.827  11.939   9.390  0.8423  2.1051  0.6638
  729MOL0     H98411   4.875  12.159   9.251 -1.3387 -0.3196  0.6497
  729MOL0     H98412   4.881  12.053   9.114 -0.5234  0.9906 -0.2596
  729MOL0     H98413   5.254  11.969   9.311 -0.8727 -2.8621 -1.0100
  729MOL0     H98414   4.687  11.496   9.305 -0.2998  0.0344  1.2931
  729MOL0     H98415   4.553  11.301   9.384 -2.4335 -0.5666 -1.2522
  730MOL0     O98416   1.696   5.560   2.059  0.5446 -0.4130 -0.9583
  730MOL0     C98417   1.815   5.550   2.027  0.2008 -0.4649 -0.0269
  730MOL0     O98418   1.861   5.466   1.933  0.7909 -0.1797 -0.3472
  730MOL0     C98419   1.772   5.378   1.883  0.7934  0.6891  0.7413
  730MOL0     C98420   1.801   5.240   1.876 -0.0599 -0.1975 -0.2275
  730MOL0     C98421   1.707   5.149   1.821  1.0850  0.4700 -0.1692
  730MOL0     C98422   1.581   5.193   1.756  0.4517 -0.5071 -0.0883
  730MOL0     O98423   1.492   5.121   1.678  0.1216 -0.3180  0.2707
  730MOL0     C98424   1.548   4.997   1.632  0.2206 -0.8721  0.5642
  730MOL0     C98425   1.525   4.885   1.730 -0.2176  0.0280 -0.0957
  730MOL0     C98426   1.378   4.857   1.745  0.1623  0.3521  1.4139
  730MOL0     C98427   1.353   4.762   1.847  0.3773 -0.1888 -0.9700
  730MOL0     C98428   1.213   4.707   1.855  0.4231  0.3465  0.3563
  730MOL0     C98429   1.183   4.669   1.997  0.5942  0.2995 -1.0119
  730MOL0     C98430   1.285   4.581   2.060  0.1277 -0.3748  0.5789
  730MOL0     C98431   1.295   4.441   2.000  0.3618  0.5379  1.2883
  730MOL0     N98432   1.165   4.370   2.018 -0.4717 -0.0445 -0.5300
  730MOL0     C98433   1.118   4.335   2.144  0.3963  0.2130  0.1532
  730MOL0     C98434   0.993   4.284   2.106 -0.3466  0.4199 -0.2777
  730MOL0     C98435   0.888   4.227   2.204  0.9657  0.4053  0.2099
  730MOL0     C98436   0.757   4.299   2.171 -0.0315 -0.2933  0.0381
  730MOL0     C98437   0.633   4.246   2.245  0.5186  0.3341 -0.3438
  730MOL0     C98438   0.510   4.338   2.252 -0.0156  0.4161 -0.6171
  730MOL0     O98439   0.394   4.255   2.290 -0.3496 -0.4065 -0.9083
  730MOL0     C98440   0.264   4.308   2.289 -1.1880  0.5397 -0.1046
  730MOL0     C98441   0.230   4.440   2.256  0.2529 -0.0896 -0.7230
  730MOL0     C98442   0.094   4.483   2.258  0.3181  0.2127  0.0846
  730MOL0     C98443   0.076   4.627   2.219  0.2144 -0.2980 -0.0203
  730MOL0     C98444  -0.002   4.387   2.300 -0.0941  0.1128  0.2900
  730MOL0     C98445  -0.141   4.432   2.300  0.3389 -0.1170  0.5870
  730MOL0     O98446  -0.194   4.514   2.196 -0.1468 -0.7583  0.5718
  730MOL0     C98447  -0.331   4.525   2.190  0.6620  0.3438  0.6929
  730MOL0     C98448  -0.400   4.644   2.223 -0.0540  0.6935  0.0136
  730MOL0     C98449  -0.539   4.663   2.195  0.2387 -0.3278  0.3055
  730MOL0     C98450  -0.612   4.557   2.149 -0.4904 -0.2422 -0.4610
  730MOL0     O98451  -0.744   4.579   2.122  0.6552  0.0654 -0.5302
  730MOL0     C98452  -0.834   4.478   2.074  0.9753  0.2973 -0.0332
  730MOL0     C98453  -0.964   4.538   2.007 -1.0592  0.5281 -0.0205
  730MOL0     C98454  -1.067   4.618   2.085  0.2301  0.0947  0.3913
  730MOL0     C98455  -1.161   4.685   1.990 -0.5147 -1.1292  0.3498
  730MOL0     C98456  -1.250   4.776   2.072 -0.0195  0.1238  0.2139
  730MOL0     C98457  -1.359   4.688   2.123  0.7288  0.2949 -0.2809
  730MOL0     C98458  -1.457   4.771   2.192  0.3331  0.5130  0.0393
  730MOL0     C98459  -1.597   4.716   2.213  1.5409 -0.1396 -0.4398
  730MOL0    Cl98460  -1.671   4.690   2.057 -0.4197 -0.3051  0.0969
  730MOL0     C98461  -0.546   4.433   2.134 -0.2892 -0.3912 -0.1556
  730MOL0     C98462  -0.408   4.417   2.146  1.1333 -0.9967 -0.1992
  730MOL0     O98463  -0.212   4.385   2.386 -0.6274 -0.0382  0.3594
  730MOL0     C98464   0.037   4.253   2.330 -0.6476  0.9956  0.7164
  730MOL0     C98465   0.169   4.216   2.323 -0.0679  0.4568 -0.3216
  730MOL0     N98466   0.975   4.272   1.968  0.9773 -0.3748 -0.0477
  730MOL0     N98467   1.077   4.341   1.915 -0.2451  0.0503 -0.8105
  730MOL0     C98468   1.565   5.334   1.757  0.5476  0.1210 -0.1809
  730MOL0     C98469   1.656   5.422   1.813  0.3615  0.1584  0.6869
  730MOL0     C98470   1.915   5.629   2.095  0.4290 -0.0533 -1.4126
  730MOL0     C98471   1.902   5.668   2.226 -0.3926  0.5126  0.1881
  730MOL0     C98472   1.998   5.742   2.300  0.6693 -0.9325 -0.5944
  730MOL0     C98473   2.108   5.797   2.233  0.0372  0.8084 -0.6320
  730MOL0     O98474   2.180   5.877   2.311 -0.1242  0.1034  0.2088
  730MOL0     C98475   2.251   5.992   2.243 -0.2787  0.8004  0.4478
  730MOL0     C98476   2.276   6.099   2.342  0.4766 -0.7144 -1.0545
  730MOL0     C98477   2.144   6.127   2.425 -1.2738  0.2566 -0.3682
  730MOL0     C98478   2.168   6.250   2.510  0.0159 -0.1265  0.0651
  730MOL0     C98479   2.058   6.301   2.595  0.6502  0.0505  1.0359
  730MOL0     C98480   1.963   6.324   2.668 -0.5394 -0.3495 -0.4669
  730MOL0     C98481   2.128   5.761   2.105  0.0315  0.8272 -0.4504
  730MOL0     C98482   2.036   5.672   2.035  0.4934  0.3501 -0.4907
  730MOL0     H98483   1.894   5.204   1.917 -0.3690  1.0410  1.7108
  730MOL0     H98484   1.747   5.048   1.831  0.2637  0.2339  0.9546
  730MOL0     H98485   1.502   4.982   1.535  0.1408  2.9946 -0.1700
  730MOL0     H98486   1.656   5.003   1.613 -0.0928 -0.6376 -1.3289
  730MOL0     H98487   1.595   4.804   1.706  0.7876  0.8925 -0.1646
  730MOL0     H98488   1.565   4.917   1.827  3.1912 -1.7902 -0.7377
  730MOL0     H98489   1.326   4.951   1.765 -2.4454 -0.5632 -0.4334
  730MOL0     H98490   1.326   4.812   1.659 -2.0973  0.7843  2.4813
  730MOL0     H98491   1.424   4.679   1.843 -0.2006 -0.9826  2.4980
  730MOL0     H98492   1.382   4.810   1.941  0.1243 -2.2714  0.2248
  730MOL0     H98493   1.135   4.776   1.823  0.0764  0.1349  0.7266
  730MOL0     H98494   1.205   4.620   1.788  0.5105  1.7116 -1.4943
  730MOL0     H98495   1.195   4.760   2.057  1.9164  0.7881 -1.9819
  730MOL0     H98496   1.080   4.633   1.996  0.4626  0.5424 -3.6701
  730MOL0     H98497   1.381   4.633   2.074  0.7629 -1.3839  0.0841
  730MOL0     H98498   1.261   4.559   2.164  1.8796 -3.9352  0.3742
  730MOL0     H98499   1.367   4.395   2.069  0.2427  0.9773  1.7148
  730MOL0     H98500   1.335   4.459   1.900  1.2965  0.7231  1.6823
  730MOL0     H98501   1.170   4.338   2.239  2.1585 -2.1967 -0.6371
  730MOL0     H98502   0.875   4.119   2.192 -0.9789  0.7253 -0.9294
  730MOL0     H98503   0.924   4.245   2.306 -0.7240  1.8557  0.6026
  730MOL0     H98504   0.732   4.304   2.064 -1.3146  2.6112  0.3653
  730MOL0     H98505   0.753   4.406   2.195  1.2675  0.0353 -1.0790
  730MOL0     H98506   0.666   4.221   2.346 -0.0879 -0.6823 -0.3758
  730MOL0     H98507   0.600   4.154   2.196  0.1643  0.5142 -0.4470
  730MOL0     H98508   0.498   4.388   2.156  1.4935  0.9884 -0.5311
  730MOL0     H98509   0.529   4.416   2.326  1.6421  0.6657 -1.2681
  730MOL0     H98510   0.312   4.508   2.234 -1.7041  2.8822  0.5584
  730MOL0     H98511   0.141   4.691   2.280  2.0838  1.0321 -3.1657
  730MOL0     H98512   0.087   4.623   2.110 -1.0902 -0.3089 -0.1712
  730MOL0     H98513  -0.025   4.668   2.230 -0.0408  0.3075 -3.4759
  730MOL0     H98514  -0.353   4.725   2.278  0.4865  0.7392 -0.4933
  730MOL0     H98515  -0.589   4.757   2.214 -1.7880 -1.3084  0.0198
  730MOL0     H98516  -0.792   4.415   1.995  1.4220  1.4330 -0.7252
  730MOL0     H98517  -0.867   4.418   2.159  1.0025 -1.4930 -1.2205
  730MOL0     H98518  -0.932   4.605   1.926 -0.6606  1.5224  0.9297
  730MOL0     H98519  -1.007   4.450   1.958  1.5714 -0.2397 -1.1193
  730MOL0     H98520  -1.009   4.689   2.144  0.9606 -0.5857  0.5193
  730MOL0     H98521  -1.107   4.549   2.160 -1.5498 -0.4714 -1.0319
  730MOL0     H98522  -1.108   4.756   1.926  0.4068 -0.4509  1.8054
  730MOL0     H98523  -1.212   4.613   1.925 -1.8455  0.5001 -0.4802
  730MOL0     H98524  -1.296   4.851   2.007 -0.2829 -0.4343 -0.2539
  730MOL0     H98525  -1.191   4.823   2.151  2.5522 -1.4262 -0.6548
  730MOL0     H98526  -1.409   4.652   2.032  0.7963  0.0172 -0.2068
  730MOL0     H98527  -1.325   4.613   2.194 -1.6919  0.1544  0.8515
  730MOL0     H98528  -1.469   4.857   2.126  0.4012 -1.5521 -2.8259
  730MOL0     H98529  -1.416   4.798   2.290  2.0507 -0.4343 -0.3864
  730MOL0     H98530  -1.656   4.794   2.261  1.4730 -0.7026  0.4249
  730MOL0     H98531  -1.596   4.624   2.272  2.2782 -0.2248 -0.5663
  730MOL0     H98532  -0.588   4.343   2.089  2.2131 -0.6049 -2.2717
  730MOL0     H98533  -0.356   4.327   2.116  1.5138 -0.1247 -2.3751
  730MOL0     H98534  -0.028   4.174   2.366 -0.8316  1.1430  0.7075
  730MOL0     H98535   0.203   4.116   2.350 -1.0709 -0.1580 -1.3005
  730MOL0     H98536   1.472   5.366   1.710 -0.9179 -1.5499  1.4553
  730MOL0     H98537   1.633   5.526   1.793  0.3879  0.2600  1.1682
  730MOL0     H98538   1.801   5.657   2.266 -1.6974  3.3917 -1.8842
  730MOL0     H98539   1.974   5.773   2.401 -2.9856 -2.4059 -0.8782
  730MOL0     H98540   2.336   5.955   2.185 -1.5421  0.8916 -1.5492
  730MOL0     H98541   2.179   6.036   2.174 -0.2695  1.9741  1.1638
  730MOL0     H98542   2.313   6.194   2.300  3.0897 -0.6957  1.0380
  730MOL0     H98543   2.359   6.066   2.405  1.6648  2.0637 -1.0097
  730MOL0     H98544   2.124   6.048   2.498  1.2685  1.2305  1.5387
  730MOL0     H98545   2.065   6.140   2.351 -2.7206 -0.4021  1.0281
  730MOL0     H98546   2.203   6.335   2.450  0.2296 -0.4000 -0.2028
  730MOL0     H98547   2.242   6.216   2.583  0.6656 -1.0986 -1.0184
  730MOL0     H98548   1.871   6.346   2.719 -1.7403 -0.4509 -2.5053
  730MOL0     H98549   2.211   5.796   2.045  3.5320 -2.3376  2.1306
  730MOL0     H98550   2.056   5.642   1.933 -1.5273 -3.1058 -0.0645
  731MOL0     O98551   0.309   2.509  11.302 -0.3310 -0.2313  0.1340
  731MOL0     C98552   0.346   2.544  11.193  0.1922  0.0730 -0.1029
  731MOL0     O98553   0.269   2.525  11.075 -0.3509  1.2549  0.1734
  731MOL0     C98554   0.137   2.486  11.087  0.0638  0.8322 -0.6377
  731MOL0     C98555   0.110   2.357  11.134  0.3262  0.9074 -0.2646
  731MOL0     C98556  -0.022   2.309  11.158  0.1807 -0.8663  0.3058
  731MOL0     C98557  -0.124   2.393  11.129  0.2392  0.3262 -0.4279
  731MOL0     O98558  -0.253   2.344  11.136 -0.7164 -0.2810  0.7591
  731MOL0     C98559  -0.365   2.432  11.130 -0.7283 -0.3068 -0.3509
  731MOL0     C98560  -0.481   2.355  11.184 -0.2128 -0.1970  0.3221
  731MOL0     C98561  -0.605   2.435  11.220 -0.0389  0.1923  0.5564
  731MOL0     C98562  -0.725   2.348  11.277 -0.2085 -0.1385 -0.3827
  731MOL0     C98563  -0.856   2.413  11.285 -0.1091  0.0311  0.1200
  731MOL0     C98564  -0.944   2.327  11.383 -0.2464 -0.0429 -0.6387
  731MOL0     C98565  -1.089   2.373  11.376 -0.0980  1.1733  0.0631
  731MOL0     C98566  -1.154   2.321  11.502  0.0772 -0.1671  0.4583
  731MOL0     N98567  -1.306   2.329  11.504  0.1922 -0.0317 -0.2135
  731MOL0     C98568  -1.384   2.429  11.449 -0.7555  0.4583  0.5447
  731MOL0     C98569  -1.505   2.382  11.449  0.4345  0.1081 -0.3753
  731MOL0     C98570  -1.594   2.442  11.350 -0.3473  0.9894 -0.0766
  731MOL0     C98571  -1.739   2.398  11.358  0.2356  0.3671  1.1300
  731MOL0     C98572  -1.817   2.507  11.298  0.4370  0.1477  1.1889
  731MOL0     C98573  -1.963   2.463  11.286  0.4991 -0.0675  0.6465
  731MOL0     O98574  -2.047   2.552  11.211  0.2667 -0.9719  0.2048
  731MOL0     C98575  -2.181   2.530  11.218  0.7577  0.1128  0.3206
  731MOL0     C98576  -2.256   2.599  11.122  0.0908 -0.1146  0.0485
  731MOL0     C98577  -2.397   2.593  11.119  0.4255 -0.3426  0.0277
  731MOL0     C98578  -2.464   2.665  11.007 -0.2820 -0.3078  0.3239
  731MOL0     C98579  -2.465   2.513  11.218 -0.1447 -0.5856  0.4278
  731MOL0     C98580  -2.615   2.516  11.229 -0.0407  0.1990 -0.1616
  731MOL0     O98581  -2.683   2.633  11.210 -0.0158  0.9166  0.0355
  731MOL0     C98582  -2.813   2.642  11.245 -0.0177  0.2318  0.7143
  731MOL0     C98583  -2.850   2.745  11.346 -0.0909  0.1811  0.3399
  731MOL0     C98584  -2.980   2.776  11.369  0.0197  0.5666  0.3671
  731MOL0     C98585  -3.086   2.694  11.307 -0.0836 -0.9342 -0.7009
  731MOL0     O98586  -3.219   2.712  11.329 -0.3917  0.4444  0.5326
  731MOL0     C98587  -3.251   2.736  11.465  1.0267 -0.5548  0.1678
  731MOL0     C98588  -3.391   2.666  11.483 -0.1332 -0.3494 -0.6191
  731MOL0     C98589  -3.425   2.657  11.636  0.4740 -0.1552 -0.2954
  731MOL0     C98590  -3.469   2.798  11.677  0.7102  0.0705 -0.2665
  731MOL0     C98591  -3.536   2.805  11.812 -0.2122  0.5468  0.7467
  731MOL0     C98592  -3.545   2.946  11.865 -0.5890 -0.1987  0.1624
  731MOL0     C98593  -3.630   3.037  11.778 -0.1483 -0.7655  0.1058
  731MOL0     C98594  -3.656   3.174  11.850  0.1125  0.2659 -0.1649
  731MOL0    Cl98595  -3.755   3.274  11.731 -0.1613 -0.5674 -0.4270
  731MOL0     C98596  -3.051   2.591  11.215 -0.4788  0.5906  0.8211
  731MOL0     C98597  -2.919   2.558  11.190 -0.8134 -0.9311 -0.4218
  731MOL0     O98598  -2.671   2.406  11.228 -0.5994 -0.1471 -0.1181
  731MOL0     C98599  -2.389   2.419  11.285 -0.1192 -0.3127 -0.2022
  731MOL0     C98600  -2.254   2.428  11.291  0.1611  0.0881  0.5969
  731MOL0     N98601  -1.513   2.257  11.502  0.0445  0.1441  0.7088
  731MOL0     N98602  -1.390   2.228  11.537 -0.2662  0.4827 -0.2040
  731MOL0     C98603  -0.096   2.525  11.076  0.1684  0.4597 -0.1157
  731MOL0     C98604   0.030   2.569  11.069 -0.3210  0.2094 -0.5738
  731MOL0     C98605   0.470   2.629  11.173  0.6645  0.8794 -0.4338
  731MOL0     C98606   0.520   2.653  11.045 -0.6017  0.6122 -0.6354
  731MOL0     C98607   0.639   2.729  11.029  0.1594  0.3179 -0.4222
  731MOL0     C98608   0.702   2.791  11.143  0.1435 -1.1381 -0.1033
  731MOL0     O98609   0.814   2.864  11.140  0.1078  0.8469 -0.3474
  731MOL0     C98610   0.874   2.886  11.014 -0.0967  0.1528 -0.1483
  731MOL0     C98611   1.021   2.934  11.051 -0.1850  1.2199  0.7253
  731MOL0     C98612   1.108   2.815  11.097  0.1671  0.8424  0.9093
  731MOL0     C98613   1.249   2.861  11.139  0.2678  0.3024  0.7689
  731MOL0     C98614   1.251   2.905  11.276 -0.0909 -0.5262 -0.4746
  731MOL0     C98615   1.241   2.946  11.388 -1.0244  0.2377 -0.6476
  731MOL0     C98616   0.655   2.758  11.268 -0.6303  0.7500 -0.6928
  731MOL0     C98617   0.540   2.674  11.285  0.7611 -0.9856  0.4866
  731MOL0     H98618   0.191   2.286  11.144 -1.1837 -1.0429 -1.1427
  731MOL0     H98619  -0.048   2.217  11.210 -0.2378 -0.7979  0.2191
  731MOL0     H98620  -0.351   2.526  11.185 -1.8181 -0.7144  0.6824
  731MOL0     H98621  -0.372   2.458  11.024  2.8102 -1.9732 -1.1336
  731MOL0     H98622  -0.514   2.272  11.122  0.7020  0.1386 -0.6477
  731MOL0     H98623  -0.440   2.305  11.272 -0.3381 -0.1229  0.4227
  731MOL0     H98624  -0.575   2.518  11.284  1.7070  0.7450 -0.8808
  731MOL0     H98625  -0.641   2.487  11.131 -2.6222  2.0514  2.5750
  731MOL0     H98626  -0.739   2.256  11.219 -0.2628 -0.3764  0.0045
  731MOL0     H98627  -0.693   2.314  11.376 -0.8842  2.5261  0.8402
  731MOL0     H98628  -0.850   2.512  11.331 -0.3510  0.3528 -0.5377
  731MOL0     H98629  -0.896   2.420  11.183  2.3229  1.4537 -0.8301
  731MOL0     H98630  -0.945   2.218  11.372 -1.5532 -0.4402  2.3813
  731MOL0     H98631  -0.910   2.338  11.486 -2.2906  0.0600  0.0797
  731MOL0     H98632  -1.092   2.482  11.364  0.9668  0.9754 -2.6795
  731MOL0     H98633  -1.137   2.334  11.286 -3.5593 -0.2521  2.3070
  731MOL0     H98634  -1.118   2.362  11.597  4.3293  0.5023 -1.2167
  731MOL0     H98635  -1.118   2.218  11.512  0.3707  0.1963  4.3640
  731MOL0     H98636  -1.348   2.521  11.404  2.4986 -0.4414  0.9962
  731MOL0     H98637  -1.591   2.549  11.371  1.0656  0.9341  0.1277
  731MOL0     H98638  -1.552   2.433  11.250  0.7784  0.6138  0.4066
  731MOL0     H98639  -1.766   2.380  11.462 -1.4345 -0.9667  0.5076
  731MOL0     H98640  -1.755   2.306  11.301 -0.4921 -0.5613  2.7703
  731MOL0     H98641  -1.778   2.536  11.200  0.5600  0.2108  1.2561
  731MOL0     H98642  -1.810   2.592  11.367  3.6016  0.6263  0.4434
  731MOL0     H98643  -1.992   2.460  11.391 -2.7388 -0.1454 -0.1258
  731MOL0     H98644  -1.958   2.367  11.235  0.7988  0.9234 -1.3029
  731MOL0     H98645  -2.193   2.643  11.045 -2.6197 -0.2887 -2.4464
  731MOL0     H98646  -2.387   2.718  10.950  0.4324 -2.2402 -0.5926
  731MOL0     H98647  -2.516   2.595  10.941  0.3310 -2.6315  2.1815
  731MOL0     H98648  -2.538   2.736  11.046 -0.3939  1.2041 -2.4164
  731MOL0     H98649  -2.761   2.796  11.384  0.9221 -1.5192  0.3402
  731MOL0     H98650  -3.005   2.853  11.441  1.8612  1.9107 -0.3699
  731MOL0     H98651  -3.177   2.683  11.526  2.6209  0.1671 -1.0629
  731MOL0     H98652  -3.250   2.841  11.493 -3.3208  0.0829 -1.3855
  731MOL0     H98653  -3.472   2.720  11.431  0.2337 -0.2954 -1.1456
  731MOL0     H98654  -3.379   2.564  11.447  3.8631 -0.2797  0.1386
  731MOL0     H98655  -3.343   2.631  11.704  2.3538 -0.2699 -2.4889
  731MOL0     H98656  -3.510   2.589  11.646 -0.6954  1.3202  0.2104
  731MOL0     H98657  -3.381   2.863  11.679  2.9834 -2.7840 -0.7399
  731MOL0     H98658  -3.530   2.845  11.600  0.4826  0.2431  0.0192
  731MOL0     H98659  -3.480   2.742  11.882  2.6150  1.4293 -0.5530
  731MOL0     H98660  -3.631   2.752  11.806 -0.9637  1.5625  2.9253
  731MOL0     H98661  -3.590   2.945  11.965  0.2062 -0.7237  0.5256
  731MOL0     H98662  -3.444   2.983  11.885 -1.3620  1.7297  0.7082
  731MOL0     H98663  -3.722   2.980  11.766  0.2834 -1.2192 -1.1129
  731MOL0     H98664  -3.587   3.045  11.678 -2.9365 -1.4520 -1.2621
  731MOL0     H98665  -3.566   3.221  11.890 -1.7119  0.8497  3.7175
  731MOL0     H98666  -3.725   3.154  11.933  0.4696 -0.9858 -0.1546
  731MOL0     H98667  -3.128   2.530  11.171  0.4615 -1.6818  2.1511
  731MOL0     H98668  -2.912   2.468  11.131  0.0085 -1.2155  0.0985
  731MOL0     H98669  -2.452   2.346  11.337 -1.5101  1.6727  1.0751
  731MOL0     H98670  -2.205   2.347  11.345  2.6645 -0.0701 -1.6698
  731MOL0     H98671  -0.170   2.603  11.063 -1.7672 -0.9971  1.5657
  731MOL0     H98672   0.052   2.666  11.027  0.4838 -1.0419 -3.3286
  731MOL0     H98673   0.474   2.619  10.953  1.1333 -1.2640 -0.8855
  731MOL0     H98674   0.678   2.768  10.936  5.7795  1.9834  2.1927
  731MOL0     H98675   0.886   2.788  10.968  2.6591  0.5206 -0.3639
  731MOL0     H98676   0.816   2.951  10.948  0.3178 -0.0394 -0.7074
  731MOL0     H98677   1.005   2.996  11.139 -0.7151 -0.1741  1.6496
  731MOL0     H98678   1.069   2.982  10.965  3.7757 -2.9048  0.2695
  731MOL0     H98679   1.115   2.749  11.010  0.8191  0.7205  1.0484
  731MOL0     H98680   1.060   2.761  11.180  0.2642  2.8906  2.4036
  731MOL0     H98681   1.294   2.936  11.073 -0.9792 -1.9345 -2.9026
  731MOL0     H98682   1.310   2.771  11.144 -1.6091 -0.9913  2.5002
  731MOL0     H98683   1.247   2.993  11.485 -3.3730  0.8161 -0.7311
  731MOL0     H98684   0.729   2.778  11.346  2.3901 -1.6935 -2.6847
  731MOL0     H98685   0.516   2.640  11.385  1.8545 -0.4300  0.9570
  732MOL0     O98686  10.100   2.486  10.109  0.0775  0.0374 -0.4065
  732MOL0     C98687  10.177   2.440  10.194 -0.8284  1.3827  0.1688
  732MOL0     O98688  10.144   2.353  10.298 -0.5979 -0.2201  0.0909
  732MOL0     C98689  10.017   2.328  10.330  0.2934  0.4107 -0.9232
  732MOL0     C98690   9.988   2.317  10.465 -0.2134 -0.0520 -0.8263
  732MOL0     C98691   9.860   2.281  10.516  0.3877  1.2240  0.3523
  732MOL0     C98692   9.752   2.273  10.431  0.3413  0.4664 -0.8617
  732MOL0     O98693   9.636   2.240  10.498  0.2982 -0.3302 -0.3786
  732MOL0     C98694   9.510   2.274  10.433 -0.1946  0.7311  0.2651
  732MOL0     C98695   9.422   2.298  10.550 -0.3229  0.1000 -0.1616
  732MOL0     C98696   9.282   2.338  10.494 -0.6423  0.1513 -0.1285
  732MOL0     C98697   9.196   2.439  10.583 -0.7862 -0.8446  0.8872
  732MOL0     C98698   9.057   2.449  10.516 -0.0336  0.8258 -0.4236
  732MOL0     C98699   8.959   2.551  10.570  0.0677 -0.0333  0.0129
  732MOL0     C98700   8.998   2.696  10.541  0.0147 -0.1133  0.5131
  732MOL0     C98701   8.919   2.793  10.626 -0.0027 -0.1935  0.1593
  732MOL0     N98702   8.919   2.932  10.598 -0.0365 -0.2737 -0.2956
  732MOL0     C98703   9.020   2.997  10.526 -0.1546  0.3032 -0.0643
  732MOL0     C98704   8.997   3.119  10.547 -0.4638  0.5006  0.1821
  732MOL0     C98705   9.070   3.238  10.488  0.3006 -0.7841  1.0224
  732MOL0     C98706   9.214   3.245  10.528  0.9206  0.1768  0.7267
  732MOL0     C98707   9.287   3.376  10.473 -0.4298 -0.0525  0.2846
  732MOL0     C98708   9.429   3.410  10.525  0.0803  0.4654  0.4587
  732MOL0     O98709   9.509   3.293  10.531  1.5409  0.2724 -1.3852
  732MOL0     C98710   9.640   3.325  10.555  0.6134 -0.4283  0.5425
  732MOL0     C98711   9.691   3.449  10.606 -0.3386 -0.7025 -0.0597
  732MOL0     C98712   9.832   3.467  10.592 -0.2410 -0.0372 -0.3470
  732MOL0     C98713   9.888   3.603  10.629  1.1673  0.9287  0.3065
  732MOL0     C98714   9.914   3.354  10.548  0.5347  0.2021 -0.1728
  732MOL0     C98715  10.052   3.381  10.530  1.4176  0.0101 -0.5060
  732MOL0     O98716  10.082   3.491  10.450  0.3697 -0.3589  0.3778
  732MOL0     C98717  10.202   3.520  10.409 -0.1354 -0.0373  0.8515
  732MOL0     C98718  10.306   3.430  10.389  0.3506  0.2987  0.1254
  732MOL0     C98719  10.426   3.467  10.325  0.4237  0.2984 -0.0890
  732MOL0     C98720  10.443   3.603  10.285  0.1995 -0.5272  0.2448
  732MOL0     O98721  10.560   3.645  10.221  0.1763 -0.3880  0.2420
  732MOL0     C98722  10.661   3.549  10.204 -0.5571  0.5020  0.1274
  732MOL0     C98723  10.760   3.610  10.103 -0.6742  0.6283  0.2487
  732MOL0     C98724  10.864   3.503  10.056 -0.0478 -0.7224  0.4468
  732MOL0     C98725  10.931   3.551   9.931  0.2264  0.5731  0.3784
  732MOL0     C98726  11.028   3.672   9.937  0.0088 -0.1258  0.3510
  732MOL0     C98727  11.157   3.657  10.012  0.0071  0.5230 -0.1152
  732MOL0     C98728  11.192   3.782  10.093 -0.3986 -0.0094  0.1984
  732MOL0     C98729  11.322   3.772  10.161 -0.3047  0.3174 -0.1642
  732MOL0    Cl98730  11.461   3.730  10.050 -0.2192 -0.3945  0.2643
  732MOL0     C98731  10.340   3.689  10.307 -0.6182 -0.7540 -0.6752
  732MOL0     C98732  10.218   3.649  10.357  0.0469  0.3289  0.2643
  732MOL0     O98733  10.129   3.304  10.592  0.4701  0.1441 -0.8463
  732MOL0     C98734   9.856   3.240  10.502  0.4752  0.0042  0.3903
  732MOL0     C98735   9.724   3.225  10.502  0.2001 -0.9410  0.5178
  732MOL0     N98736   8.894   3.137  10.634 -0.1979 -0.7837 -0.2984
  732MOL0     N98737   8.856   3.023  10.673  0.1554 -0.2559 -0.0823
  732MOL0     C98738   9.775   2.294  10.291 -0.1411  0.8331 -0.5772
  732MOL0     C98739   9.906   2.308  10.249 -0.2102  0.3648  0.0562
  732MOL0     C98740  10.316   2.481  10.179 -0.3991 -1.5685  1.1084
  732MOL0     C98741  10.406   2.454  10.279  0.7078 -0.4438 -0.5231
  732MOL0     C98742  10.537   2.494  10.250  0.2509  0.7469  0.0040
  732MOL0     C98743  10.588   2.571  10.145 -0.1627  0.7643  0.0261
  732MOL0     O98744  10.718   2.599  10.151 -0.1415 -0.2218 -0.4460
  732MOL0     C98745  10.769   2.708  10.072  0.7153 -0.2555 -0.5686
  732MOL0     C98746  10.870   2.655   9.974 -0.0092 -0.2695  0.0592
  732MOL0     C98747  11.013   2.613  10.013 -0.8228 -0.1548 -0.4522
  732MOL0     C98748  11.100   2.545   9.907  0.1348  0.5183  0.4185
  732MOL0     C98749  11.240   2.575   9.927  0.1518 -0.9460 -0.2773
  732MOL0     C98750  11.351   2.608   9.956  0.5115 -0.4735  0.6999
  732MOL0     C98751  10.491   2.603  10.052  0.1197  0.9219  1.1971
  732MOL0     C98752  10.361   2.554  10.066  0.0821  0.0225  0.8066
  732MOL0     H98753  10.077   2.330  10.527  0.0367  1.8832 -1.5281
  732MOL0     H98754   9.840   2.257  10.620 -1.7134 -2.1657 -0.6798
  732MOL0     H98755   9.526   2.368  10.378 -0.2866 -0.0985 -1.2357
  732MOL0     H98756   9.485   2.191  10.366  1.4292  0.1324  0.3617
  732MOL0     H98757   9.427   2.209  10.614 -0.6095  0.4031  0.2863
  732MOL0     H98758   9.464   2.380  10.608  3.1254 -0.3595 -1.7502
  732MOL0     H98759   9.302   2.380  10.395  0.9063  1.3674  0.6586
  732MOL0     H98760   9.216   2.251  10.489 -0.9498  0.1444  2.5025
  732MOL0     H98761   9.184   2.404  10.686  0.2820 -3.6503  0.1558
  732MOL0     H98762   9.240   2.539  10.588 -1.1053 -0.7546  1.9504
  732MOL0     H98763   9.069   2.459  10.408  3.1861 -0.8250 -0.3545
  732MOL0     H98764   9.009   2.352  10.527  0.3167  0.8797  2.1300
  732MOL0     H98765   8.860   2.539  10.525 -0.1469  1.4310  0.0473
  732MOL0     H98766   8.957   2.536  10.679 -1.8174  2.0683  0.3466
  732MOL0     H98767   9.105   2.714  10.556  0.3249 -2.2107  1.1880
  732MOL0     H98768   8.967   2.703  10.436  0.7241 -1.6413  0.1705
  732MOL0     H98769   8.946   2.788  10.732 -0.1722  3.4956  0.5110
  732MOL0     H98770   8.817   2.755  10.614 -0.0407 -1.1315  2.8099
  732MOL0     H98771   9.096   2.957  10.460  1.0471 -2.6036  2.7920
  732MOL0     H98772   9.063   3.242  10.379 -1.0712 -0.8676  1.0837
  732MOL0     H98773   9.017   3.328  10.521  0.9690 -0.0853  0.2489
  732MOL0     H98774   9.273   3.160  10.492 -0.2144  1.0863 -3.8734
  732MOL0     H98775   9.226   3.248  10.637  2.8410  3.6835  0.5383
  732MOL0     H98776   9.224   3.462  10.498  1.7562  1.2060  1.7063
  732MOL0     H98777   9.306   3.360  10.366  1.8715 -3.0357  1.0243
  732MOL0     H98778   9.418   3.463  10.620  3.0345  0.9154  0.6423
  732MOL0     H98779   9.467   3.474  10.445  0.7306 -3.1139 -2.3534
  732MOL0     H98780   9.628   3.515  10.664  0.4427  0.4902 -0.5444
  732MOL0     H98781   9.903   3.668  10.542 -0.7219 -1.1355 -1.6651
  732MOL0     H98782   9.826   3.655  10.702  0.8270  1.7632 -0.5533
  732MOL0     H98783   9.984   3.583  10.679  1.1332  0.2919  0.1273
  732MOL0     H98784  10.293   3.325  10.414  0.1680 -0.3306 -2.3910
  732MOL0     H98785  10.503   3.391  10.312 -1.1464 -0.8813 -4.2281
  732MOL0     H98786  10.708   3.527  10.301 -2.1532  1.9307  1.2975
  732MOL0     H98787  10.619   3.462  10.153 -0.8841  2.1726 -2.6724
  732MOL0     H98788  10.705   3.639  10.013 -0.4283 -2.8737 -1.1949
  732MOL0     H98789  10.817   3.686  10.157 -0.0375 -0.4649  1.1471
  732MOL0     H98790  10.815   3.408  10.029  0.4735 -0.8269 -0.1583
  732MOL0     H98791  10.942   3.486  10.131 -0.1082  2.6746  1.4412
  732MOL0     H98792  10.986   3.463   9.897 -0.0297  1.4260 -2.4758
  732MOL0     H98793  10.849   3.570   9.861  1.7075  0.4760 -1.4263
  732MOL0     H98794  10.973   3.754   9.983  0.2910  0.0406  0.3929
  732MOL0     H98795  11.050   3.705   9.835 -3.6014  1.4100 -0.0805
  732MOL0     H98796  11.148   3.578  10.087 -1.1068 -0.2581 -1.0274
  732MOL0     H98797  11.236   3.632   9.940 -1.6100 -0.2074 -1.7188
  732MOL0     H98798  11.114   3.799  10.167  1.4942  0.5231  2.1620
  732MOL0     H98799  11.188   3.870  10.028  1.6012 -0.7640 -1.0630
  732MOL0     H98800  11.311   3.694  10.236 -3.2479  0.1203 -0.6647
  732MOL0     H98801  11.340   3.864  10.217 -0.1693  0.5797 -0.6389
  732MOL0     H98802  10.347   3.787  10.259 -0.5944 -0.6971 -0.5558
  732MOL0     H98803  10.141   3.726  10.360 -1.1533 -0.8506  0.1646
  732MOL0     H98804   9.915   3.162  10.453 -1.1199  0.7742 -3.0228
  732MOL0     H98805   9.687   3.128  10.467  0.5918 -0.8040 -0.3148
  732MOL0     H98806   9.693   2.296  10.220 -0.7230  0.7935  0.0917
  732MOL0     H98807   9.923   2.330  10.144  0.3571 -1.2369 -0.2097
  732MOL0     H98808  10.387   2.402  10.372  1.0668 -0.7350 -0.6092
  732MOL0     H98809  10.617   2.457  10.313 -0.9609 -0.2255  1.0256
  732MOL0     H98810  10.690   2.748  10.009  0.1202 -0.6322 -0.0756
  732MOL0     H98811  10.820   2.783  10.134 -0.5849  0.6530 -0.5573
  732MOL0     H98812  10.880   2.740   9.906 -1.0945  0.7772  1.1503
  732MOL0     H98813  10.824   2.571   9.922  1.7048 -0.6055 -0.9940
  732MOL0     H98814  10.998   2.535  10.088  0.9371  2.7800  3.2921
  732MOL0     H98815  11.058   2.701  10.059 -0.3336 -0.7779  0.2863
  732MOL0     H98816  11.073   2.585   9.809  0.8639 -0.0232 -0.0153
  732MOL0     H98817  11.082   2.437   9.906 -0.8715  0.6617 -0.9020
  732MOL0     H98818  11.452   2.620   9.991  0.6828  1.5613 -0.3839
  732MOL0     H98819  10.496   2.664   9.962  0.8214  0.9706  1.2681
  732MOL0     H98820  10.283   2.589   9.999  0.3609  0.6834  0.8263
  733MOL0     O98821  11.333   5.897   5.532  0.7021 -0.0877  1.0237
  733MOL0     C98822  11.401   5.863   5.436 -1.1330 -0.1693 -0.3023
  733MOL0     O98823  11.364   5.850   5.311 -0.1102 -0.5424  0.2156
  733MOL0     C98824  11.234   5.880   5.268 -0.2534 -0.3872  0.1640
  733MOL0     C98825  11.231   5.870   5.131 -0.5161 -0.1214 -0.6314
  733MOL0     C98826  11.119   5.881   5.057 -0.1874 -0.2216  0.3656
  733MOL0     C98827  10.996   5.912   5.125  0.0753  0.3589 -0.1633
  733MOL0     O98828  10.889   5.921   5.050  0.1665  0.1309  0.5616
  733MOL0     C98829  10.762   5.986   5.096 -0.5191 -0.1162 -0.5238
  733MOL0     C98830  10.765   6.135   5.076 -0.5311  0.4854 -0.5338
  733MOL0     C98831  10.670   6.211   5.172 -0.4700 -0.0266 -0.4036
  733MOL0     C98832  10.662   6.359   5.122  0.1098 -0.0865 -0.3910
  733MOL0     C98833  10.536   6.443   5.163  0.0447 -0.5465 -1.1779
  733MOL0     C98834  10.524   6.435   5.319  0.4672  0.9966  0.2072
  733MOL0     C98835  10.410   6.536   5.349 -0.2904 -0.1969 -0.3578
  733MOL0     C98836  10.388   6.536   5.499 -0.2433  0.4296 -0.7086
  733MOL0     N98837  10.431   6.672   5.550  0.6211 -0.1654 -0.0872
  733MOL0     C98838  10.552   6.698   5.612  0.3054 -0.7812 -1.7168
  733MOL0     C98839  10.538   6.826   5.663  0.5769  0.7038 -0.5715
  733MOL0     C98840  10.647   6.898   5.739  0.2626  0.3252 -1.3540
  733MOL0     C98841  10.739   6.966   5.638 -0.2341 -0.4909 -0.3692
  733MOL0     C98842  10.859   7.047   5.697 -0.4998 -1.2730 -0.1167
  733MOL0     C98843  10.991   6.969   5.697 -0.5342 -0.1003 -0.2262
  733MOL0     O98844  11.089   7.019   5.790 -0.1339 -0.6595 -0.6277
  733MOL0     C98845  11.193   6.942   5.815  0.0851  0.9880  0.0358
  733MOL0     C98846  11.185   6.815   5.870  0.0584 -0.0594  0.2391
  733MOL0     C98847  11.293   6.743   5.907  0.3331 -0.5982  0.3109
  733MOL0     C98848  11.267   6.606   5.967 -0.1378  0.5077  0.2257
  733MOL0     C98849  11.424   6.804   5.898 -0.1535  0.1286  0.3333
  733MOL0     C98850  11.558   6.757   5.964  0.3681 -0.0337  0.2979
  733MOL0     O98851  11.669   6.834   5.947  0.6025 -0.3743  0.0244
  733MOL0     C98852  11.787   6.785   5.975 -0.0144 -0.8323 -0.6056
  733MOL0     C98853  11.840   6.665   5.919  0.1629 -0.5464  0.2267
  733MOL0     C98854  11.967   6.622   5.947 -0.1677  0.2489  0.5243
  733MOL0     C98855  12.057   6.709   6.019  0.1688 -0.3572  0.1382
  733MOL0     O98856  12.189   6.672   6.053 -0.0748  0.3454  0.3326
  733MOL0     C98857  12.231   6.530   6.045  0.2611  0.3735 -0.0310
  733MOL0     C98858  12.372   6.508   6.105  0.2285 -0.6162 -0.2645
  733MOL0     C98859  12.466   6.628   6.091 -0.7462 -0.4682  0.4145
  733MOL0     C98860  12.616   6.591   6.139 -0.1707 -0.4768  1.1138
  733MOL0     C98861  12.626   6.530   6.282 -1.2262  0.8134 -0.5911
  733MOL0     C98862  12.559   6.614   6.388 -0.2773 -0.2301 -0.0124
  733MOL0     C98863  12.608   6.760   6.381 -0.0900  0.3995 -0.4103
  733MOL0     C98864  12.581   6.840   6.515 -0.0720  0.0075 -0.5316
  733MOL0    Cl98865  12.700   6.793   6.637 -0.1609 -0.6668  0.6759
  733MOL0     C98866  12.009   6.827   6.081  0.0321  0.3583  0.2813
  733MOL0     C98867  11.872   6.859   6.057  0.1009  0.8662  0.5407
  733MOL0     O98868  11.562   6.646   6.020  0.3124  0.4764  0.7005
  733MOL0     C98869  11.432   6.921   5.832  0.7947 -0.4777 -0.1561
  733MOL0     C98870  11.312   6.994   5.796  0.2579  0.0324 -0.0125
  733MOL0     N98871  10.409   6.867   5.627 -0.1984  0.3957  0.6992
  733MOL0     N98872  10.339   6.774   5.563 -0.4787  0.7816  0.0520
  733MOL0     C98873  10.999   5.933   5.259 -0.2970 -0.6112  0.1306
  733MOL0     C98874  11.114   5.902   5.335  0.2881 -0.6527 -0.4677
  733MOL0     C98875  11.548   5.817   5.456  0.2899 -0.4297 -0.5057
  733MOL0     C98876  11.608   5.729   5.359 -0.5220 -0.9741 -0.1581
  733MOL0     C98877  11.733   5.665   5.393 -1.2068 -0.9188  0.0005
  733MOL0     C98878  11.798   5.696   5.509  0.3857 -0.4964 -0.6307
  733MOL0     O98879  11.924   5.665   5.543  0.8395 -0.5466  0.4245
  733MOL0     C98880  11.996   5.567   5.476  0.4624 -0.4333 -0.9189
  733MOL0     C98881  12.112   5.517   5.557 -0.4364 -0.1890  0.9901
  733MOL0     C98882  12.232   5.625   5.544  0.1663 -0.5495 -0.4145
  733MOL0     C98883  12.363   5.583   5.614 -0.2227  0.6776  0.1280
  733MOL0     C98884  12.411   5.449   5.580  0.5443 -0.6995  0.3541
  733MOL0     C98885  12.439   5.342   5.534  0.4477 -0.1841  1.1349
  733MOL0     C98886  11.736   5.788   5.598  0.0786 -0.2553  0.5574
  733MOL0     C98887  11.612   5.846   5.579 -0.1639 -0.2644  0.0601
  733MOL0     H98888  11.318   5.832   5.079  0.6748 -1.4720  2.1445
  733MOL0     H98889  11.102   5.866   4.951 -1.1102 -0.8617  0.5868
  733MOL0     H98890  10.679   5.930   5.052 -0.1288 -2.8953  1.9208
  733MOL0     H98891  10.745   5.966   5.203 -1.0224 -0.4188 -0.6582
  733MOL0     H98892  10.868   6.171   5.086 -0.6297  0.7420 -0.4188
  733MOL0     H98893  10.721   6.146   4.977  1.9108 -2.4827 -2.1241
  733MOL0     H98894  10.571   6.164   5.176 -1.1769  1.4250  3.9846
  733MOL0     H98895  10.718   6.208   5.270 -0.4151  0.4498 -0.4134
  733MOL0     H98896  10.752   6.406   5.161  1.1078 -1.3293 -1.1582
  733MOL0     H98897  10.676   6.363   5.013 -0.2263  0.9489 -0.4126
  733MOL0     H98898  10.531   6.547   5.131 -2.9774  0.2674  1.4529
  733MOL0     H98899  10.447   6.399   5.118 -2.3908  0.1030  2.6122
  733MOL0     H98900  10.509   6.330   5.345  2.3423  0.4201 -0.8578
  733MOL0     H98901  10.618   6.467   5.363  1.0865  0.6570 -0.8261
  733MOL0     H98902  10.441   6.636   5.316  3.0715 -0.8443  0.5245
  733MOL0     H98903  10.320   6.493   5.303 -1.1625 -0.7959  1.8028
  733MOL0     H98904  10.451   6.460   5.546  1.8222  1.3079 -1.9285
  733MOL0     H98905  10.282   6.517   5.515 -0.2632  0.6652 -0.5520
  733MOL0     H98906  10.648   6.646   5.613  1.2096  0.7306 -3.1827
  733MOL0     H98907  10.601   6.971   5.806  0.1914 -1.6170  0.8784
  733MOL0     H98908  10.702   6.828   5.803  1.7710  2.1427 -0.6025
  733MOL0     H98909  10.676   7.035   5.581  0.1636 -0.5941 -0.9404
  733MOL0     H98910  10.774   6.894   5.564  4.6480  1.9334 -0.8254
  733MOL0     H98911  10.830   7.073   5.799 -0.7267 -3.2080  0.3478
  733MOL0     H98912  10.879   7.142   5.646 -0.2404 -0.6260  1.1492
  733MOL0     H98913  11.031   6.969   5.595  0.5112 -0.7364  0.1657
  733MOL0     H98914  10.969   6.863   5.713 -1.4100 -0.0677 -1.1143
  733MOL0     H98915  11.091   6.762   5.888  0.2281 -1.1894 -1.8401
  733MOL0     H98916  11.171   6.575   5.924  0.9077 -0.9893 -1.1595
  733MOL0     H98917  11.342   6.534   5.933 -1.4004 -0.3506 -0.8803
  733MOL0     H98918  11.261   6.592   6.075 -1.1390 -4.1636 -0.2317
  733MOL0     H98919  11.773   6.602   5.862  1.3728 -0.1678 -1.6959
  733MOL0     H98920  12.014   6.542   5.889  0.1748  1.0081 -0.2782
  733MOL0     H98921  12.161   6.464   6.098  1.1659  0.4612  1.3138
  733MOL0     H98922  12.219   6.498   5.941 -3.7466 -2.3549  1.0140
  733MOL0     H98923  12.352   6.504   6.213 -0.8073  0.5135 -0.3945
  733MOL0     H98924  12.408   6.413   6.064 -1.2898 -1.3568  0.0615
  733MOL0     H98925  12.429   6.695   6.169 -0.4981 -2.1542  2.0741
  733MOL0     H98926  12.464   6.675   5.993  1.0450  1.8387  1.3809
  733MOL0     H98927  12.664   6.521   6.070 -1.0333  0.9457 -1.0333
  733MOL0     H98928  12.672   6.685   6.138 -0.5428  0.0379 -4.7705
  733MOL0     H98929  12.730   6.524   6.313 -1.2704  1.7108 -0.2562
  733MOL0     H98930  12.582   6.431   6.296 -0.8329  0.5256 -1.3548
  733MOL0     H98931  12.450   6.609   6.379 -0.2666 -4.0525  0.4386
  733MOL0     H98932  12.579   6.582   6.491  1.6342  1.3604  0.1804
  733MOL0     H98933  12.570   6.814   6.294 -2.6489 -1.2610 -0.4420
  733MOL0     H98934  12.715   6.769   6.366  1.0607 -2.0336  4.3153
  733MOL0     H98935  12.483   6.820   6.558  1.8973 -0.9613  4.1692
  733MOL0     H98936  12.598   6.946   6.493  0.7997 -0.3805 -1.8983
  733MOL0     H98937  12.071   6.890   6.144  2.8052 -1.9214  0.0677
  733MOL0     H98938  11.828   6.951   6.095  0.1157  1.3287 -0.5390
  733MOL0     H98939  11.528   6.971   5.822  0.7785  0.2320  2.6824
  733MOL0     H98940  11.320   7.102   5.782 -0.0866 -0.0407 -0.8497
  733MOL0     H98941  10.910   5.956   5.317  1.5144 -1.9392  3.7699
  733MOL0     H98942  11.120   5.913   5.443  3.0899  2.0271 -0.7810
  733MOL0     H98943  11.561   5.708   5.263  0.0442 -2.7886 -0.0824
  733MOL0     H98944  11.770   5.600   5.315 -2.6173  0.1401 -1.6117
  733MOL0     H98945  11.928   5.482   5.463  0.8202 -0.9289  0.3501
  733MOL0     H98946  12.031   5.599   5.377  0.1718  0.6095 -0.7022
  733MOL0     H98947  12.134   5.420   5.512 -0.0342  1.3103 -2.3730
  733MOL0     H98948  12.081   5.505   5.661  0.9156 -0.4593  1.3844
  733MOL0     H98949  12.190   5.717   5.585 -3.4684 -1.2524 -2.1566
  733MOL0     H98950  12.257   5.643   5.439  1.0639 -0.0139 -0.1172
  733MOL0     H98951  12.355   5.592   5.722  2.5248 -1.4819  0.6143
  733MOL0     H98952  12.449   5.642   5.584  0.7276 -0.5550  0.3514
  733MOL0     H98953  12.452   5.255   5.473 -2.8970  0.3675 -0.6002
  733MOL0     H98954  11.780   5.803   5.696  0.1735  1.3834  0.2852
  733MOL0     H98955  11.581   5.911   5.660 -2.2228 -1.2498  0.1282
  734MOL0     O98956   1.839   3.709   2.481  0.3154 -0.2398 -0.7057
  734MOL0     C98957   1.873   3.782   2.577  0.6738  0.2769  0.4022
  734MOL0     O98958   1.790   3.864   2.653  0.0928 -0.0747  0.5253
  734MOL0     C98959   1.653   3.859   2.641  0.2620 -0.9440 -0.2678
  734MOL0     C98960   1.590   3.743   2.604 -0.1581  1.1177 -0.1880
  734MOL0     C98961   1.449   3.736   2.610  0.0189  0.5810 -0.1779
  734MOL0     C98962   1.372   3.839   2.667  0.5274 -1.1860 -0.3392
  734MOL0     O98963   1.231   3.832   2.680  0.4325  0.4575 -0.0988
  734MOL0     C98964   1.160   3.722   2.637  0.5211  0.1899  0.2035
  734MOL0     C98965   1.035   3.718   2.728 -0.0107 -0.8071 -0.7311
  734MOL0     C98966   0.954   3.594   2.705  1.2223  0.4302 -0.0196
  734MOL0     C98967   0.803   3.625   2.693 -1.1190  0.9141 -0.3620
  734MOL0     C98968   0.722   3.495   2.693 -0.2783 -0.2028 -0.0377
  734MOL0     C98969   0.573   3.521   2.685 -0.3300  0.5458 -0.1810
  734MOL0     C98970   0.507   3.557   2.814 -0.1487 -0.6455  0.6654
  734MOL0     C98971   0.380   3.625   2.790  0.6645  0.1420 -0.5434
  734MOL0     N98972   0.304   3.667   2.915  0.1527 -0.6022  0.3568
  734MOL0     C98973   0.286   3.798   2.945  0.1124 -0.6839  0.2035
  734MOL0     C98974   0.230   3.800   3.068 -0.6087 -0.7515  0.7997
  734MOL0     C98975   0.167   3.924   3.132 -0.3111 -0.9482  0.4510
  734MOL0     C98976   0.038   3.976   3.066 -0.6128 -0.3470  0.3171
  734MOL0     C98977  -0.085   3.920   3.141  0.6069  0.2783 -0.1112
  734MOL0     C98978  -0.213   3.990   3.093 -0.1192 -0.7252 -0.2171
  734MOL0     O98979  -0.267   3.942   2.970 -0.5127 -0.3573 -0.2311
  734MOL0     C98980  -0.371   4.012   2.911 -0.7235  0.8840 -0.0885
  734MOL0     C98981  -0.432   4.124   2.969  0.2864  0.1785  0.7610
  734MOL0     C98982  -0.546   4.171   2.909  0.3797  0.7696 -1.0034
  734MOL0     C98983  -0.593   4.302   2.963  0.3871  0.8080 -0.2867
  734MOL0     C98984  -0.604   4.112   2.796  0.1487  0.3285 -0.0930
  734MOL0     C98985  -0.739   4.147   2.738  0.9570 -0.3660 -0.1448
  734MOL0     O98986  -0.818   4.219   2.824  0.7208 -0.0123  1.5419
  734MOL0     C98987  -0.954   4.214   2.803  0.6652  0.1740  0.3740
  734MOL0     C98988  -1.019   4.135   2.899 -0.2294 -0.0857 -0.7065
  734MOL0     C98989  -1.157   4.109   2.890  0.6323  0.2686  0.4163
  734MOL0     C98990  -1.233   4.168   2.783  0.1090  0.0129  0.3238
  734MOL0     O98991  -1.369   4.141   2.750 -0.5076 -0.4024 -0.0665
  734MOL0     C98992  -1.434   4.034   2.816  1.5432  0.0919  0.1838
  734MOL0     C98993  -1.573   4.022   2.770 -0.0245 -0.5916 -0.3477
  734MOL0     C98994  -1.672   4.132   2.835 -0.1635  0.3286 -0.5041
  734MOL0     C98995  -1.797   4.152   2.749 -0.3399  0.6842  0.2655
  734MOL0     C98996  -1.899   4.247   2.807 -0.4846  0.1594  0.4268
  734MOL0     C98997  -2.031   4.206   2.739 -0.4829  0.7883 -0.1439
  734MOL0     C98998  -2.152   4.275   2.800  0.4323  0.5310 -0.4880
  734MOL0     C98999  -2.281   4.272   2.708  1.2101  0.3729 -0.3385
  734MOL0    Cl99000  -2.423   4.347   2.797  0.1577 -0.5374  0.0360
  734MOL0     C99001  -1.162   4.245   2.690  0.5242 -0.7490 -0.3623
  734MOL0     C99002  -1.029   4.264   2.691 -0.5637  0.0593 -0.2789
  734MOL0     O99003  -0.770   4.108   2.628 -0.6444  0.1773  0.3171
  734MOL0     C99004  -0.543   4.004   2.740 -0.1127  0.5137  0.3069
  734MOL0     C99005  -0.429   3.957   2.797 -0.0237  0.2239  0.3399
  734MOL0     N99006   0.208   3.673   3.113 -0.1599  0.2392  0.2555
  734MOL0     N99007   0.253   3.592   3.020 -0.0823 -0.6133  1.0992
  734MOL0     C99008   1.432   3.954   2.705 -0.5241  0.2212 -0.3239
  734MOL0     C99009   1.571   3.966   2.702  0.4961  1.1190  0.7996
  734MOL0     C99010   2.020   3.798   2.598 -0.6839  0.0092 -1.0164
  734MOL0     C99011   2.062   3.864   2.708  0.5301  0.2219 -0.0878
  734MOL0     C99012   2.203   3.905   2.727 -0.8350 -0.2768 -0.0741
  734MOL0     C99013   2.294   3.861   2.627 -0.3649 -0.5940 -0.3228
  734MOL0     O99014   2.428   3.890   2.645  0.2895 -0.2461  0.1367
  734MOL0     C99015   2.492   3.936   2.526  0.3591  0.2993  0.2131
  734MOL0     C99016   2.635   3.906   2.540  0.5405 -0.3433  0.2065
  734MOL0     C99017   2.710   3.969   2.658  0.3831 -0.8540 -0.3939
  734MOL0     C99018   2.861   3.942   2.634  0.3236  1.3771 -0.2873
  734MOL0     C99019   2.927   4.057   2.570  0.4572  0.3955 -0.8016
  734MOL0     C99020   2.967   4.132   2.483  0.5461  0.6202 -0.8216
  734MOL0     C99021   2.253   3.771   2.533 -0.2180  0.2166 -0.2947
  734MOL0     C99022   2.121   3.746   2.515  1.0073  0.3153 -0.7179
  734MOL0     H99023   1.635   3.650   2.569  0.0666  0.9424  0.5498
  734MOL0     H99024   1.399   3.648   2.568  2.5473 -1.1451  0.1969
  734MOL0     H99025   1.137   3.735   2.531  1.6519 -0.2866 -0.1200
  734MOL0     H99026   1.218   3.631   2.654  1.6126  0.8382  0.1119
  734MOL0     H99027   1.061   3.718   2.835  0.1465 -0.9373 -0.7687
  734MOL0     H99028   0.975   3.804   2.698  1.9419  0.5943 -0.8409
  734MOL0     H99029   0.987   3.542   2.615  0.8619  0.8765 -0.4138
  734MOL0     H99030   0.970   3.526   2.789 -0.0894 -0.9285 -0.8175
  734MOL0     H99031   0.771   3.692   2.773  0.9407  0.0819  1.2401
  734MOL0     H99032   0.776   3.679   2.601  1.4145  1.4027 -0.8925
  734MOL0     H99033   0.747   3.430   2.609 -0.4678  1.9044 -1.8142
  734MOL0     H99034   0.743   3.432   2.780 -3.0325 -2.4557 -0.8432
  734MOL0     H99035   0.562   3.603   2.613  2.6240  1.4560  0.2719
  734MOL0     H99036   0.525   3.428   2.652  0.2560  0.2531 -0.2388
  734MOL0     H99037   0.498   3.474   2.884 -0.4557 -1.5224 -0.3969
  734MOL0     H99038   0.570   3.636   2.856 -1.5052  1.7554 -1.5097
  734MOL0     H99039   0.315   3.548   2.748 -1.0730  1.1473  0.1835
  734MOL0     H99040   0.394   3.710   2.723  0.4577  2.5654  2.3065
  734MOL0     H99041   0.316   3.886   2.888  2.1057  0.7125  3.1597
  734MOL0     H99042   0.135   3.909   3.236 -0.7762 -0.5112  0.3800
  734MOL0     H99043   0.241   4.004   3.136 -2.2588  0.9722  0.0109
  734MOL0     H99044   0.046   3.955   2.959  0.3752 -2.3161  0.7274
  734MOL0     H99045   0.036   4.085   3.079  4.2184 -0.0802  0.6366
  734MOL0     H99046  -0.080   3.937   3.249 -0.9511  3.0562 -0.3747
  734MOL0     H99047  -0.100   3.813   3.122 -3.4604  0.8287 -0.8514
  734MOL0     H99048  -0.195   4.098   3.096  1.2637 -0.9566  1.4346
  734MOL0     H99049  -0.285   3.977   3.175  2.7353  0.3329  2.7043
  734MOL0     H99050  -0.402   4.159   3.067 -0.3503  1.2248  0.5998
  734MOL0     H99051  -0.511   4.349   3.019  0.5293 -0.6945  0.8413
  734MOL0     H99052  -0.613   4.365   2.877  1.8243  1.2508 -0.3229
  734MOL0     H99053  -0.684   4.289   3.023  0.4688 -1.6733 -0.5993
  734MOL0     H99054  -0.961   4.091   2.979 -2.1265 -1.8102 -0.1838
  734MOL0     H99055  -1.202   4.043   2.964  0.7446  0.5602  0.7519
  734MOL0     H99056  -1.383   3.939   2.800  0.9083 -0.0891 -0.8928
  734MOL0     H99057  -1.443   4.048   2.924 -0.9833 -0.3427  0.0989
  734MOL0     H99058  -1.565   4.028   2.661  0.4431  1.1184 -0.2476
  734MOL0     H99059  -1.614   3.922   2.789 -0.3842 -0.4998 -0.6191
  734MOL0     H99060  -1.621   4.228   2.851 -1.0979  0.5965  1.1003
  734MOL0     H99061  -1.696   4.099   2.936 -2.0599  0.7318 -0.7761
  734MOL0     H99062  -1.777   4.191   2.649 -1.5485 -0.4504 -0.4596
  734MOL0     H99063  -1.839   4.052   2.732  0.1899  0.8019 -2.1698
  734MOL0     H99064  -1.882   4.355   2.798 -0.4521  0.0672 -0.7611
  734MOL0     H99065  -1.912   4.219   2.912  0.8379 -0.4440  0.4414
  734MOL0     H99066  -2.017   4.218   2.631  2.8035  0.0343  0.0947
  734MOL0     H99067  -2.032   4.097   2.748  1.2532  0.6298 -1.3741
  734MOL0     H99068  -2.118   4.379   2.796 -0.5883  0.8582 -0.9806
  734MOL0     H99069  -2.167   4.236   2.901  1.2400 -0.2552 -0.6632
  734MOL0     H99070  -2.316   4.169   2.696  0.1746  0.5353  0.9435
  734MOL0     H99071  -2.261   4.336   2.622  1.9186  4.2803  2.4418
  734MOL0     H99072  -1.215   4.288   2.605 -2.5217 -2.2357  0.6253
  734MOL0     H99073  -0.989   4.303   2.598 -0.9608  1.9750  0.3047
  734MOL0     H99074  -0.585   3.957   2.651 -0.1555  4.0625 -1.7451
  734MOL0     H99075  -0.364   3.879   2.758 -0.4567 -0.7404  1.4684
  734MOL0     H99076   1.362   4.026   2.746 -1.7442 -0.5371 -1.0309
  734MOL0     H99077   1.622   4.058   2.724  1.6139  0.8906 -0.6789
  734MOL0     H99078   1.988   3.899   2.779 -0.2050  0.1399 -0.7956
  734MOL0     H99079   2.247   3.968   2.804 -0.3465  2.6168 -2.5115
  734MOL0     H99080   2.464   3.894   2.429  0.4788  1.1040 -0.1744
  734MOL0     H99081   2.477   4.044   2.516  1.3540  0.2981 -1.9611
  734MOL0     H99082   2.686   3.929   2.446 -3.0523 -0.1722 -1.8599
  734MOL0     H99083   2.651   3.799   2.554  1.1225 -0.1073  1.5349
  734MOL0     H99084   2.684   3.911   2.747  2.1074 -2.0788 -0.6458
  734MOL0     H99085   2.683   4.074   2.673 -2.7959 -1.7456  0.9394
  734MOL0     H99086   2.881   3.854   2.573 -0.9463 -1.2159  2.7627
  734MOL0     H99087   2.914   3.924   2.729 -0.3223 -0.6365 -0.2692
  734MOL0     H99088   2.985   4.180   2.389 -0.1027  2.6182  0.0193
  734MOL0     H99089   2.330   3.718   2.478 -1.0608 -2.3916  0.8703
  734MOL0     H99090   2.088   3.694   2.426 -2.1345 -0.2794  0.6815
  735MOL0     O99091   6.677   4.831   9.287 -0.3075 -0.4979  0.2545
  735MOL0     C99092   6.742   4.798   9.391  0.4358 -0.5639 -0.3957
  735MOL0     O99093   6.694   4.732   9.505 -0.1989 -0.1986 -1.0665
  735MOL0     C99094   6.560   4.716   9.509 -0.0733  0.7141  0.1323
  735MOL0     C99095   6.468   4.824   9.512  0.2388 -0.1273  0.3912
  735MOL0     C99096   6.331   4.802   9.515  0.2399 -0.2052  0.4545
  735MOL0     C99097   6.283   4.669   9.539  0.0735 -0.7412 -0.0103
  735MOL0     O99098   6.155   4.631   9.555  0.0419 -0.7091 -0.5289
  735MOL0     C99099   6.043   4.726   9.546 -0.2549 -0.0440  0.0543
  735MOL0     C99100   5.924   4.658   9.613 -1.3280  0.3525 -0.2447
  735MOL0     C99101   5.793   4.733   9.579  0.2079 -0.5010 -0.1459
  735MOL0     C99102   5.673   4.658   9.656 -0.4530  0.1110  0.2872
  735MOL0     C99103   5.537   4.722   9.625 -0.1011 -0.7954  0.4093
  735MOL0     C99104   5.419   4.665   9.695 -0.1843 -0.2115  0.9124
  735MOL0     C99105   5.309   4.762   9.662  0.1288  1.0034 -0.3863
  735MOL0     C99106   5.182   4.728   9.741  0.0769  0.0792  0.2903
  735MOL0     N99107   5.088   4.842   9.740 -0.3048 -0.0600  0.4388
  735MOL0     C99108   4.964   4.841   9.664  0.3491 -0.8973 -0.7523
  735MOL0     C99109   4.882   4.924   9.734 -0.8053  0.9911  0.0708
  735MOL0     C99110   4.735   4.948   9.713  0.4380 -0.5880  0.3400
  735MOL0     C99111   4.649   4.828   9.723  1.2629 -0.1025 -0.7154
  735MOL0     C99112   4.658   4.766   9.865  1.2264 -0.8558  0.5456
  735MOL0     C99113   4.609   4.861   9.973 -0.2718 -0.2209 -0.8281
  735MOL0     O99114   4.608   4.810  10.116  0.1310  0.8377 -0.3369
  735MOL0     C99115   4.510   4.856  10.196 -0.2967  0.4995  0.1196
  735MOL0     C99116   4.454   4.773  10.295 -0.1723 -0.3152 -0.3477
  735MOL0     C99117   4.351   4.818  10.369  0.1997  0.5704  0.1112
  735MOL0     C99118   4.266   4.709  10.447 -0.1399 -0.7488 -0.4789
  735MOL0     C99119   4.302   4.955  10.365 -0.7324  0.5845  0.6349
  735MOL0     C99120   4.188   5.000  10.441  0.5391 -0.0173  0.2723
  735MOL0     O99121   4.134   5.122  10.407  0.7852 -0.1361  0.1883
  735MOL0     C99122   4.050   5.188  10.503  0.7052  0.0365 -0.6924
  735MOL0     C99123   4.066   5.329  10.533 -0.3869  0.4666  0.0865
  735MOL0     C99124   3.988   5.397  10.626 -0.1270  0.4707 -0.1415
  735MOL0     C99125   3.889   5.328  10.694  0.3294 -0.0324 -0.0794
  735MOL0     O99126   3.805   5.393  10.780 -0.1196 -0.3910 -0.7057
  735MOL0     C99127   3.846   5.516  10.852 -0.5366  0.3289 -0.5013
  735MOL0     C99128   3.778   5.633  10.788 -0.4353 -0.0316  0.0167
  735MOL0     C99129   3.640   5.657  10.844  0.2851  0.4056  0.3327
  735MOL0     C99130   3.628   5.718  10.983  0.4689 -0.2246 -0.9152
  735MOL0     C99131   3.490   5.688  11.048 -1.0665  0.4259  0.1261
  735MOL0     C99132   3.457   5.782  11.162 -0.1361  0.9410 -0.3780
  735MOL0     C99133   3.306   5.783  11.196 -0.2711  0.3807 -0.8716
  735MOL0     C99134   3.250   5.881  11.298 -0.6103  0.0267 -0.0360
  735MOL0    Cl99135   3.252   6.045  11.208  0.2097  0.0802  0.0082
  735MOL0     C99136   3.862   5.194  10.662  0.5684  1.0069  0.2053
  735MOL0     C99137   3.940   5.128  10.566  0.3916  0.5884 -0.9191
  735MOL0     O99138   4.154   4.936  10.540 -0.1033  0.0772  0.0013
  735MOL0     C99139   4.360   5.037  10.270  0.0706 -0.4647  0.6497
  735MOL0     C99140   4.460   4.989  10.178  0.5581  0.5032  0.1238
  735MOL0     N99141   4.961   4.981   9.840  0.6736  0.6701  0.2249
  735MOL0     N99142   5.074   4.924   9.841 -0.1933  1.0525 -0.2252
  735MOL0     C99143   6.377   4.567   9.546 -0.1657  0.7580 -0.2337
  735MOL0     C99144   6.511   4.593   9.543  0.4896  0.1006  0.3697
  735MOL0     C99145   6.889   4.781   9.371  1.1079  0.6919 -0.1017
  735MOL0     C99146   6.968   4.739   9.484  0.3710  0.1302 -0.9311
  735MOL0     C99147   7.110   4.724   9.476 -0.7866 -0.4745 -0.8004
  735MOL0     C99148   7.166   4.753   9.353 -0.8026  1.5088  0.6847
  735MOL0     O99149   7.303   4.744   9.348  0.1530 -0.1800  0.0599
  735MOL0     C99150   7.351   4.616   9.309  0.2469  0.1818  0.6630
  735MOL0     C99151   7.491   4.604   9.367  0.2625 -0.0791  0.1143
  735MOL0     C99152   7.505   4.632   9.520 -1.0708 -0.1034  0.0463
  735MOL0     C99153   7.595   4.744   9.565  0.0930  0.0389  0.2878
  735MOL0     C99154   7.736   4.727   9.515 -0.4887  1.0602  0.4517
  735MOL0     C99155   7.847   4.719   9.462  0.0114  0.0463  0.1505
  735MOL0     C99156   7.093   4.780   9.243 -0.2568  0.0834  0.2240
  735MOL0     C99157   6.957   4.793   9.250 -0.0641 -0.4366  0.6896
  735MOL0     H99158   6.509   4.925   9.506 -1.7464  0.6424 -1.9410
  735MOL0     H99159   6.267   4.890   9.518 -1.3595 -1.3185  0.2731
  735MOL0     H99160   6.062   4.823   9.592  0.8375  0.3803 -1.2339
  735MOL0     H99161   6.005   4.745   9.445 -1.2366 -0.4780  0.3251
  735MOL0     H99162   5.909   4.559   9.569 -1.2139 -0.2144  0.9522
  735MOL0     H99163   5.940   4.655   9.721 -2.3197 -0.9646 -0.1129
  735MOL0     H99164   5.800   4.839   9.605  1.3763 -0.6190  0.0876
  735MOL0     H99165   5.774   4.723   9.472 -0.0020 -0.0992 -0.1484
  735MOL0     H99166   5.676   4.553   9.626  3.8363 -0.1263  1.0074
  735MOL0     H99167   5.680   4.655   9.765 -0.5394 -1.6495  0.2750
  735MOL0     H99168   5.537   4.827   9.655  0.5601 -0.7156  0.1424
  735MOL0     H99169   5.522   4.711   9.517  2.2866  1.1488 -0.1899
  735MOL0     H99170   5.402   4.570   9.644  0.3972  0.3233 -0.3077
  735MOL0     H99171   5.445   4.662   9.801  2.5409  1.5512  0.3794
  735MOL0     H99172   5.333   4.865   9.692 -2.5475  1.1348  1.7681
  735MOL0     H99173   5.277   4.749   9.559 -2.7777 -0.3541  0.5818
  735MOL0     H99174   5.200   4.699   9.845 -2.3098  0.3173  0.8378
  735MOL0     H99175   5.139   4.635   9.704  0.1816 -0.2304  0.9309
  735MOL0     H99176   4.939   4.772   9.583  1.9717 -2.4936  0.0448
  735MOL0     H99177   4.697   5.026   9.780 -0.6959 -0.6722 -0.1811
  735MOL0     H99178   4.715   4.976   9.609 -0.1810 -0.4997  0.4760
  735MOL0     H99179   4.675   4.754   9.647  1.7004  1.8710 -2.6026
  735MOL0     H99180   4.550   4.872   9.708  1.8053  1.9658  1.1837
  735MOL0     H99181   4.758   4.731   9.894  1.6132  0.9000  1.4986
  735MOL0     H99182   4.598   4.675   9.866  1.0016 -0.7328 -0.7358
  735MOL0     H99183   4.507   4.893   9.950 -1.4515 -1.6651  1.7834
  735MOL0     H99184   4.685   4.939   9.970 -1.1910  0.6976 -0.9364
  735MOL0     H99185   4.492   4.673  10.312  0.4089  0.2924  2.4695
  735MOL0     H99186   4.306   4.608  10.435  1.5893 -0.2499  0.7081
  735MOL0     H99187   4.239   4.727  10.552 -0.1341  0.2508 -0.6378
  735MOL0     H99188   4.173   4.703  10.391 -0.7338  0.8199  0.2711
  735MOL0     H99189   4.150   5.383  10.492  0.6230 -0.7874  0.4407
  735MOL0     H99190   4.014   5.501  10.643  1.8194 -0.0510  0.2721
  735MOL0     H99191   3.811   5.516  10.956 -1.6887  0.9766 -0.8781
  735MOL0     H99192   3.955   5.528  10.852 -0.5886  0.8482 -1.1296
  735MOL0     H99193   3.844   5.720  10.788 -0.0489 -0.1587 -3.4206
  735MOL0     H99194   3.766   5.616  10.680 -1.8794 -2.0198  0.4331
  735MOL0     H99195   3.576   5.568  10.844 -0.5337  0.8735 -2.9350
  735MOL0     H99196   3.600   5.730  10.774  3.0395  0.0049 -1.8647
  735MOL0     H99197   3.704   5.679  11.051 -1.2759 -0.6448  0.9000
  735MOL0     H99198   3.635   5.826  10.969  0.7867  0.0594  1.0922
  735MOL0     H99199   3.484   5.585  11.084  0.6473  0.0033 -0.6861
  735MOL0     H99200   3.412   5.704  10.973 -1.5018  0.9278  0.6680
  735MOL0     H99201   3.509   5.757  11.255  1.0797  1.8658 -0.7829
  735MOL0     H99202   3.489   5.882  11.134  1.4827  0.7432  0.6433
  735MOL0     H99203   3.277   5.686  11.239 -1.6579  0.9229 -0.5360
  735MOL0     H99204   3.253   5.784  11.100 -2.5223 -1.8764  0.2237
  735MOL0     H99205   3.309   5.885  11.390  1.3138  2.8913 -1.2370
  735MOL0     H99206   3.145   5.859  11.319 -0.8873  0.3758 -0.9845
  735MOL0     H99207   3.780   5.149  10.717  2.0029 -0.3973  1.3204
  735MOL0     H99208   3.935   5.020  10.553  0.8907  0.6084 -1.3167
  735MOL0     H99209   4.326   5.139  10.256 -2.0065 -1.2503 -0.5452
  735MOL0     H99210   4.497   5.059  10.104 -1.9584 -0.0594 -1.8480
  735MOL0     H99211   6.350   4.462   9.551 -3.1650  1.3666 -1.3976
  735MOL0     H99212   6.572   4.506   9.563 -2.0337 -1.5468  1.3280
  735MOL0     H99213   6.911   4.726   9.575 -1.9941 -2.8690 -2.6569
  735MOL0     H99214   7.177   4.692   9.555  0.3300 -0.0565 -1.5592
  735MOL0     H99215   7.284   4.538   9.348  0.2739 -0.4176 -0.4398
  735MOL0     H99216   7.356   4.609   9.200 -3.2197  0.8773  0.3377
  735MOL0     H99217   7.557   4.673   9.314 -0.2273 -1.6094 -2.7001
  735MOL0     H99218   7.516   4.500   9.340  0.9614  0.2471 -0.5398
  735MOL0     H99219   7.538   4.539   9.568  2.1543  0.1914 -1.3998
  735MOL0     H99220   7.404   4.652   9.559 -0.4906  1.5518  0.7773
  735MOL0     H99221   7.613   4.755   9.673  1.0506  2.8483 -0.0927
  735MOL0     H99222   7.564   4.843   9.531 -1.5448 -0.0744  1.3599
  735MOL0     H99223   7.939   4.708   9.410  0.9100 -1.3538  1.8858
  735MOL0     H99224   7.156   4.807   9.159 -0.2216  1.2764  0.6077
  735MOL0     H99225   6.916   4.837   9.160 -1.3997 -0.7109  1.1454
  736MOL0     O99226   6.124   6.971   6.441  0.6500  0.2483  0.2561
  736MOL0     C99227   6.163   6.919   6.338  0.0731 -0.5028  0.2934
  736MOL0     O99228   6.118   6.797   6.289 -0.5631 -0.1105  0.4032
  736MOL0     C99229   6.003   6.749   6.342 -0.0873  0.3632  0.1594
  736MOL0     C99230   5.884   6.736   6.262  0.4037 -0.3367 -0.2712
  736MOL0     C99231   5.769   6.682   6.327  0.9410 -0.9943 -0.2552
  736MOL0     C99232   5.768   6.638   6.456 -0.5344  1.3121 -0.2433
  736MOL0     O99233   5.650   6.586   6.504  0.4216 -0.1739  0.6970
  736MOL0     C99234   5.634   6.497   6.611 -0.4031 -0.3553 -1.2392
  736MOL0     C99235   5.588   6.357   6.574  0.4228  0.4113  0.0980
  736MOL0     C99236   5.443   6.346   6.528 -0.2042 -0.0752 -0.1353
  736MOL0     C99237   5.341   6.425   6.612  0.1556  0.0681 -0.5135
  736MOL0     C99238   5.190   6.388   6.597  0.4872  0.4156  0.1410
  736MOL0     C99239   5.121   6.459   6.481 -0.6547  0.1256  0.3704
  736MOL0     C99240   4.980   6.414   6.475  0.2406  0.8285  0.0684
  736MOL0     C99241   4.900   6.471   6.356 -0.0333 -0.0885 -0.5912
  736MOL0     N99242   4.854   6.613   6.360 -0.0074  0.1220  0.0654
  736MOL0     C99243   4.767   6.658   6.459 -0.2609 -0.1810 -0.4247
  736MOL0     C99244   4.764   6.796   6.448  0.3856 -0.6735 -1.0965
  736MOL0     C99245   4.674   6.877   6.534 -0.8162  0.5795 -0.0423
  736MOL0     C99246   4.626   7.001   6.468  0.2589 -0.0020  1.0328
  736MOL0     C99247   4.515   6.980   6.364  0.7865 -0.4230 -0.2144
  736MOL0     C99248   4.382   6.952   6.432  0.0240 -0.2704 -0.0121
  736MOL0     O99249   4.303   6.917   6.324  0.5181  0.8034  0.0577
  736MOL0     C99250   4.188   6.848   6.360  0.0793 -0.2083  0.0359
  736MOL0     C99251   4.123   6.839   6.486 -0.6513  0.1872 -0.4292
  736MOL0     C99252   4.005   6.778   6.510 -0.3401  0.7012 -0.8820
  736MOL0     C99253   3.958   6.764   6.653  0.4557 -0.0633  0.3263
  736MOL0     C99254   3.922   6.730   6.397  0.4663 -0.1263  0.1230
  736MOL0     C99255   3.787   6.672   6.409 -0.3874  0.6502  0.0961
  736MOL0     O99256   3.715   6.684   6.300 -0.3012 -0.1774  0.4504
  736MOL0     C99257   3.578   6.667   6.307 -0.4141  1.1795  0.0717
  736MOL0     C99258   3.522   6.599   6.201  0.2494  0.0066  0.8698
  736MOL0     C99259   3.386   6.571   6.205  0.2749  0.2491 -0.8363
  736MOL0     C99260   3.308   6.614   6.310 -0.1847 -0.9792  0.0422
  736MOL0     O99261   3.171   6.593   6.338 -0.2643 -0.4055  0.0060
  736MOL0     C99262   3.100   6.507   6.255 -0.3063  0.2576  0.4241
  736MOL0     C99263   3.037   6.586   6.133 -0.6774  0.5193 -0.3046
  736MOL0     C99264   2.900   6.635   6.184 -0.9811 -0.2276 -1.1482
  736MOL0     C99265   2.836   6.743   6.089 -0.0955 -0.4094 -0.2779
  736MOL0     C99266   2.687   6.764   6.106 -0.1529  0.1546  1.1786
  736MOL0     C99267   2.631   6.882   6.045  0.7930 -0.4943 -0.0507
  736MOL0     C99268   2.485   6.900   6.082  0.3461  0.8164  0.4585
  736MOL0     C99269   2.431   7.026   6.023 -0.1354 -0.3546 -0.0823
  736MOL0    Cl99270   2.463   7.173   6.116 -0.0310  0.0130  0.2929
  736MOL0     C99271   3.373   6.689   6.409  0.0065 -0.0675 -0.8639
  736MOL0     C99272   3.509   6.716   6.412 -0.5243 -0.1208  0.0396
  736MOL0     O99273   3.762   6.590   6.502 -0.7719 -0.8779  0.0554
  736MOL0     C99274   3.977   6.752   6.268  0.4269 -0.2898 -0.0411
  736MOL0     C99275   4.104   6.804   6.256  0.8426  0.4213  0.8618
  736MOL0     N99276   4.853   6.829   6.356  0.5925 -0.3906  0.6341
  736MOL0     N99277   4.911   6.722   6.313 -0.6615  0.3121 -0.2909
  736MOL0     C99278   5.885   6.649   6.525  0.1747  0.1804  0.0916
  736MOL0     C99279   5.997   6.696   6.468 -0.2371  0.2366 -0.0748
  736MOL0     C99280   6.275   6.980   6.265 -0.3197 -1.1162  0.7076
  736MOL0     C99281   6.357   7.067   6.333  0.2523 -0.2045 -0.5959
  736MOL0     C99282   6.456   7.149   6.276  0.4102 -0.6670  0.6316
  736MOL0     C99283   6.471   7.140   6.137 -0.2002  0.0098 -0.3307
  736MOL0     O99284   6.555   7.232   6.075 -0.1926  0.3518 -0.0512
  736MOL0     C99285   6.662   7.175   5.992  0.2748 -0.1370 -0.3233
  736MOL0     C99286   6.629   7.205   5.847  0.0348 -0.5819 -0.7970
  736MOL0     C99287   6.747   7.158   5.759  0.3296  0.4621  0.1259
  736MOL0     C99288   6.739   7.160   5.599 -0.7239 -0.3632 -1.1026
  736MOL0     C99289   6.667   7.049   5.548  0.6509  0.2337  1.0787
  736MOL0     C99290   6.610   6.961   5.487 -0.7980  1.0462 -0.3918
  736MOL0     C99291   6.404   7.046   6.071  0.6798 -0.1015  0.0193
  736MOL0     C99292   6.307   6.968   6.134 -0.6698  0.4507 -0.4361
  736MOL0     H99293   5.874   6.760   6.156 -0.6854 -2.0244 -0.5752
  736MOL0     H99294   5.674   6.671   6.275  0.7671  1.7808 -0.6953
  736MOL0     H99295   5.724   6.472   6.669 -1.9755  0.2273  1.6274
  736MOL0     H99296   5.564   6.552   6.675  0.5389  2.1267 -2.2205
  736MOL0     H99297   5.649   6.314   6.494  0.0816 -0.8923  0.5076
  736MOL0     H99298   5.603   6.290   6.659  1.0425  0.5127  0.0734
  736MOL0     H99299   5.430   6.371   6.423  3.6622 -2.4006 -1.3462
  736MOL0     H99300   5.412   6.242   6.538 -1.3206  0.1608 -0.9468
  736MOL0     H99301   5.371   6.395   6.713 -2.3732 -1.5087 -0.1449
  736MOL0     H99302   5.356   6.533   6.602 -2.5523  0.9707  3.0622
  736MOL0     H99303   5.194   6.280   6.582 -1.4137  0.1376  1.3688
  736MOL0     H99304   5.147   6.412   6.694 -1.5326  0.8549 -0.8023
  736MOL0     H99305   5.130   6.568   6.490 -0.8151  0.2098 -0.4357
  736MOL0     H99306   5.160   6.423   6.386 -0.9904  2.9749 -0.9396
  736MOL0     H99307   4.973   6.305   6.465 -2.6081  1.0421 -1.2503
  736MOL0     H99308   4.929   6.441   6.568 -0.2590 -1.5774  0.5713
  736MOL0     H99309   4.809   6.411   6.344  1.0348 -1.8882 -0.0900
  736MOL0     H99310   4.963   6.460   6.267 -0.6296 -0.5628 -0.9626
  736MOL0     H99311   4.724   6.598   6.539 -0.0676  0.0290 -0.1595
  736MOL0     H99312   4.597   6.814   6.581 -1.5810  0.7135 -1.0868
  736MOL0     H99313   4.736   6.921   6.613 -0.9038  1.6906 -0.5716
  736MOL0     H99314   4.711   7.038   6.410 -1.1004  0.0835 -1.0561
  736MOL0     H99315   4.601   7.074   6.545 -0.1963 -0.1642  1.0446
  736MOL0     H99316   4.541   6.888   6.311 -3.7090 -2.0082 -0.0693
  736MOL0     H99317   4.507   7.067   6.299 -0.7924 -1.9784 -2.2398
  736MOL0     H99318   4.346   7.047   6.473 -0.7837 -0.6085  0.0831
  736MOL0     H99319   4.390   6.874   6.509 -2.5105 -0.9957 -0.3623
  736MOL0     H99320   4.179   6.853   6.577 -1.3027  1.0859 -0.1552
  736MOL0     H99321   3.999   6.841   6.719 -4.1768  2.6176  0.5481
  736MOL0     H99322   3.854   6.797   6.659  1.5930  3.8156  1.5114
  736MOL0     H99323   3.959   6.659   6.684 -1.3611  0.2213  1.5349
  736MOL0     H99324   3.584   6.573   6.116 -2.2912  3.2781 -2.3241
  736MOL0     H99325   3.328   6.512   6.134 -0.3628  0.0368 -0.1535
  736MOL0     H99326   3.159   6.421   6.222 -1.3294  0.7245 -2.9498
  736MOL0     H99327   3.008   6.465   6.297 -2.4234  0.4831 -3.5247
  736MOL0     H99328   3.102   6.673   6.114  0.6592 -0.1095  1.1497
  736MOL0     H99329   3.017   6.520   6.048 -1.7708 -2.2452  1.9504
  736MOL0     H99330   2.916   6.671   6.286 -0.8327 -3.0500 -0.0750
  736MOL0     H99331   2.833   6.548   6.187  0.2429 -1.1898  1.1802
  736MOL0     H99332   2.894   6.835   6.099 -2.8213  1.2965  0.8459
  736MOL0     H99333   2.858   6.700   5.991  1.4419 -2.0516  0.7002
  736MOL0     H99334   2.654   6.771   6.210 -0.6813 -0.0139  1.0252
  736MOL0     H99335   2.644   6.678   6.052 -1.4350  2.7325 -2.3044
  736MOL0     H99336   2.695   6.960   6.087 -0.6568  0.1261  1.0743
  736MOL0     H99337   2.652   6.879   5.938  3.2965  1.6126  0.2948
  736MOL0     H99338   2.477   6.896   6.191 -1.8913  0.7285  0.3235
  736MOL0     H99339   2.433   6.813   6.042  0.6234 -1.3169  4.3303
  736MOL0     H99340   2.322   7.020   6.013 -0.3111 -3.0348  2.1765
  736MOL0     H99341   2.472   7.029   5.922  1.1135 -0.1656  0.4157
  736MOL0     H99342   3.309   6.728   6.488 -1.0038  0.3625 -1.8655
  736MOL0     H99343   3.558   6.783   6.481 -1.6516  0.6136  0.1615
  736MOL0     H99344   3.924   6.737   6.174 -0.4601 -1.9782  0.6956
  736MOL0     H99345   4.138   6.814   6.153 -2.6520  1.2943 -0.3363
  736MOL0     H99346   5.885   6.622   6.630  1.4119 -2.6377 -0.5409
  736MOL0     H99347   6.087   6.701   6.528  0.5592 -0.9033 -1.1291
  736MOL0     H99348   6.342   7.072   6.441  3.6594  1.5870 -0.0738
  736MOL0     H99349   6.507   7.231   6.326 -0.2346 -0.8347  1.5766
  736MOL0     H99350   6.754   7.226   6.022 -1.0429  0.6399  2.8224
  736MOL0     H99351   6.683   7.069   6.007  1.1938 -0.5642 -3.7742
  736MOL0     H99352   6.600   7.309   5.832  2.1220  0.3503  1.0014
  736MOL0     H99353   6.535   7.151   5.829 -0.1325 -0.5231 -0.1452
  736MOL0     H99354   6.788   7.062   5.793  0.6077 -0.3378 -2.2881
  736MOL0     H99355   6.827   7.229   5.781 -0.3431  0.6722  2.0373
  736MOL0     H99356   6.836   7.179   5.553 -0.5849  1.2669 -0.2063
  736MOL0     H99357   6.682   7.249   5.571 -1.8742 -1.1820 -1.4914
  736MOL0     H99358   6.562   6.875   5.444  0.0100 -0.4389  1.5134
  736MOL0     H99359   6.420   7.056   5.965  6.0270  0.1894  0.5804
  736MOL0     H99360   6.250   6.908   6.063 -1.0033 -0.0645  0.2579
  737MOL0     O99361  10.023   5.029   0.207 -0.6379 -0.4481  0.3948
  737MOL0     C99362   9.969   4.926   0.243 -0.0669  0.2510  0.9224
  737MOL0     O99363  10.017   4.833   0.327 -0.3602 -0.1261 -0.6589
  737MOL0     C99364  10.143   4.831   0.373 -0.7759  0.1379  0.6234
  737MOL0     C99365  10.227   4.951   0.371 -0.6028 -0.0352  0.4499
  737MOL0     C99366  10.361   4.933   0.409  0.0604  0.8056  0.3331
  737MOL0     C99367  10.415   4.811   0.440  0.5332 -0.1063  0.3795
  737MOL0     O99368  10.549   4.808   0.472 -0.5423  0.5077 -1.0195
  737MOL0     C99369  10.595   4.701   0.548  0.7193  0.2681 -0.4046
  737MOL0     C99370  10.731   4.726   0.590 -0.1500 -0.2481 -0.4083
  737MOL0     C99371  10.738   4.826   0.715  0.4331  0.3066 -0.2033
  737MOL0     C99372  10.876   4.843   0.776 -0.1101 -0.0399  0.1200
  737MOL0     C99373  10.908   4.991   0.795  0.1437 -1.5463 -0.2574
  737MOL0     C99374  10.932   5.072   0.657  0.3305  0.7479 -0.0062
  737MOL0     C99375  11.079   5.114   0.633  0.7648 -1.6535  1.0522
  737MOL0     C99376  11.115   5.234   0.718  0.1550 -0.5186  0.6511
  737MOL0     N99377  11.045   5.347   0.670 -0.5322 -0.8583  0.5343
  737MOL0     C99378  10.930   5.399   0.725 -0.3302 -0.9598 -0.0381
  737MOL0     C99379  10.868   5.468   0.627  0.5448 -0.6198 -0.5292
  737MOL0     C99380  10.742   5.543   0.619 -1.0178 -0.1510 -0.2996
  737MOL0     C99381  10.761   5.700   0.627  0.0774 -0.3093  0.2214
  737MOL0     C99382  10.633   5.778   0.633 -0.0207 -0.0254  0.2502
  737MOL0     C99383  10.560   5.774   0.498 -0.0628  0.5141  0.1125
  737MOL0     O99384  10.482   5.884   0.477  0.7502 -0.1457 -0.0997
  737MOL0     C99385  10.345   5.873   0.461  0.6970 -0.3583 -0.5332
  737MOL0     C99386  10.253   5.976   0.491  0.5486  0.0594  0.1904
  737MOL0     C99387  10.114   5.960   0.481 -0.4538  0.0553  0.1037
  737MOL0     C99388  10.026   6.086   0.485 -0.7543  0.4371 -0.6437
  737MOL0     C99389  10.074   5.828   0.446  0.3817  0.0607  0.3117
  737MOL0     C99390   9.929   5.800   0.420 -1.0232 -0.2000 -0.8764
  737MOL0     O99391   9.904   5.692   0.337 -0.0535 -0.0795  0.0217
  737MOL0     C99392   9.780   5.697   0.271 -0.8822 -0.1365 -0.4197
  737MOL0     C99393   9.776   5.710   0.132  0.4185  0.4354 -0.8489
  737MOL0     C99394   9.658   5.731   0.070 -0.0636  0.2118  0.8221
  737MOL0     C99395   9.536   5.746   0.137  0.3281  0.6602  0.4116
  737MOL0     O99396   9.418   5.753   0.064  0.3685 -0.2760  1.1552
  737MOL0     C99397   9.411   5.848  -0.043  0.4006 -0.6550  0.7766
  737MOL0     C99398   9.274   5.847  -0.101 -0.4204  0.4124  0.3082
  737MOL0     C99399   9.247   5.970  -0.192 -0.0769 -0.2065  0.9287
  737MOL0     C99400   9.158   5.928  -0.312 -0.5104  0.6381  0.2667
  737MOL0     C99401   9.150   6.043  -0.415  0.1689 -0.1479 -1.1978
  737MOL0     C99402   9.059   5.996  -0.535 -0.4940  0.3284  0.2874
  737MOL0     C99403   9.090   6.058  -0.676  0.4166 -0.3051 -0.0796
  737MOL0     C99404   9.063   6.205  -0.678 -0.7387 -0.1520  0.4216
  737MOL0    Cl99405   8.894   6.243  -0.646  0.1619  0.4132 -0.0333
  737MOL0     C99406   9.542   5.722   0.272  0.4776  0.8200  0.3764
  737MOL0     C99407   9.659   5.700   0.340  0.1177 -0.3607  0.3578
  737MOL0     O99408   9.844   5.878   0.457  0.4074  0.0693 -0.0845
  737MOL0     C99409  10.159   5.730   0.414 -0.4127 -0.1460  0.2135
  737MOL0     C99410  10.294   5.756   0.413  0.0466 -0.1313  0.8539
  737MOL0     N99411  10.946   5.460   0.511 -0.6743  0.0678 -0.4469
  737MOL0     N99412  11.043   5.384   0.536  0.5456  0.1103 -0.2011
  737MOL0     C99413  10.331   4.697   0.441 -0.5252 -0.3923 -0.6925
  737MOL0     C99414  10.198   4.710   0.414 -0.2349 -0.5618 -0.4417
  737MOL0     C99415   9.832   4.888   0.199  0.8793  0.3417 -0.9102
  737MOL0     C99416   9.758   4.964   0.108  0.5051 -0.3556  0.1391
  737MOL0     C99417   9.621   4.931   0.084 -0.7317 -0.6930 -0.1556
  737MOL0     C99418   9.565   4.819   0.139  1.2407  0.2418  0.3489
  737MOL0     O99419   9.431   4.786   0.134 -0.0403 -0.7505 -0.4642
  737MOL0     C99420   9.346   4.829   0.027  0.9366  0.2603 -0.7053
  737MOL0     C99421   9.215   4.746   0.034 -0.0680  0.2041  0.1756
  737MOL0     C99422   9.132   4.715  -0.095  0.2509 -0.0505  0.3645
  737MOL0     C99423   9.049   4.836  -0.138  0.5648 -0.1749  1.2652
  737MOL0     C99424   8.932   4.874  -0.061  0.5722 -0.6576 -0.7810
  737MOL0     C99425   8.828   4.899   0.001  0.1227 -0.5302  0.6450
  737MOL0     C99426   9.634   4.751   0.241  1.0941  0.0732 -1.4438
  737MOL0     C99427   9.764   4.788   0.277  0.2332 -0.4037 -0.5380
  737MOL0     H99428  10.194   5.054   0.355  5.5240  2.1818 -0.5667
  737MOL0     H99429  10.428   5.017   0.416 -0.0319  0.8430  0.7799
  737MOL0     H99430  10.523   4.691   0.629 -1.1209  0.5382 -1.9299
  737MOL0     H99431  10.583   4.612   0.486 -2.3501  1.6467 -2.0445
  737MOL0     H99432  10.778   4.632   0.620  1.9104  0.1576 -2.0665
  737MOL0     H99433  10.793   4.765   0.508 -0.3281  0.6629 -0.1191
  737MOL0     H99434  10.701   4.923   0.682 -0.8763  0.3898  1.4302
  737MOL0     H99435  10.670   4.786   0.791 -0.2940  0.4719 -0.7575
  737MOL0     H99436  10.892   4.776   0.862  1.8126 -1.5562 -1.3334
  737MOL0     H99437  10.949   4.790   0.714 -0.6956 -1.0776  0.3010
  737MOL0     H99438  10.835   5.036   0.864  1.2019 -0.8634  0.4545
  737MOL0     H99439  11.000   4.989   0.855  0.1803 -2.2941 -0.3331
  737MOL0     H99440  10.913   4.995   0.581  1.3650 -0.7750  1.2102
  737MOL0     H99441  10.861   5.155   0.653  2.1880  2.6359  2.7781
  737MOL0     H99442  11.157   5.048   0.672  2.0869  0.3514  1.9924
  737MOL0     H99443  11.116   5.126   0.531 -0.9044 -0.1099  0.5941
  737MOL0     H99444  11.223   5.255   0.715 -0.1985  1.3152 -0.9414
  737MOL0     H99445  11.077   5.206   0.817 -0.0285 -0.9038  0.4742
  737MOL0     H99446  10.886   5.389   0.824 -2.8353  0.7250 -0.8658
  737MOL0     H99447  10.690   5.525   0.525  0.7609 -1.2168 -1.1296
  737MOL0     H99448  10.680   5.498   0.697 -1.2835  0.0368 -0.4047
  737MOL0     H99449  10.816   5.723   0.536 -0.9319 -0.8203 -0.5294
  737MOL0     H99450  10.827   5.724   0.712  0.7025  1.7579 -0.7888
  737MOL0     H99451  10.662   5.882   0.654  2.8222 -1.0257  1.7477
  737MOL0     H99452  10.573   5.736   0.714 -1.5642  1.2001 -0.2065
  737MOL0     H99453  10.497   5.684   0.506 -0.3767  0.7529  0.3575
  737MOL0     H99454  10.621   5.774   0.407 -1.3712  1.0185 -0.7850
  737MOL0     H99455  10.292   6.076   0.509  1.1898  0.2915 -2.1642
  737MOL0     H99456   9.958   6.074   0.570  0.8562  0.5043  0.7014
  737MOL0     H99457  10.083   6.178   0.495  2.2986 -1.4388  0.6818
  737MOL0     H99458   9.978   6.086   0.387 -0.4274 -0.6456 -0.8164
  737MOL0     H99459   9.868   5.707   0.074 -0.2276  3.1621 -2.1776
  737MOL0     H99460   9.672   5.737  -0.038 -0.8666 -1.9192  0.5557
  737MOL0     H99461   9.458   5.942  -0.015  3.0159 -1.8382  0.7263
  737MOL0     H99462   9.473   5.802  -0.121  0.0504 -1.6736  1.0783
  737MOL0     H99463   9.253   5.752  -0.150 -0.2157 -0.9434  2.6756
  737MOL0     H99464   9.214   5.858  -0.010  1.4621 -0.1023  1.6841
  737MOL0     H99465   9.344   6.011  -0.224 -1.6849  1.9185 -1.6666
  737MOL0     H99466   9.194   6.041  -0.127  2.6305  1.6156  1.3631
  737MOL0     H99467   9.196   5.836  -0.359  4.7013  2.1694  0.8344
  737MOL0     H99468   9.055   5.917  -0.279 -0.6372  3.2951  0.9430
  737MOL0     H99469   9.253   6.055  -0.450  1.0849  1.3668  1.7108
  737MOL0     H99470   9.111   6.138  -0.378 -0.9115 -1.1577  0.3589
  737MOL0     H99471   9.080   5.890  -0.553 -3.9486 -0.5975  0.7723
  737MOL0     H99472   8.953   6.007  -0.507 -0.7851  1.6366 -1.1763
  737MOL0     H99473   9.023   6.024  -0.756 -2.2426  0.7923  1.5442
  737MOL0     H99474   9.194   6.040  -0.705  2.7493  2.8993  4.8994
  737MOL0     H99475   9.095   6.235  -0.779  0.5123  0.4917  0.9898
  737MOL0     H99476   9.134   6.252  -0.609  1.0955 -1.5529 -0.4132
  737MOL0     H99477   9.452   5.733   0.332 -1.5088  0.7447 -2.3459
  737MOL0     H99478   9.659   5.694   0.449  1.4713  3.5711  0.7326
  737MOL0     H99479  10.121   5.636   0.374  2.1141 -0.4270 -1.7905
  737MOL0     H99480  10.360   5.689   0.359  2.6372  1.8646  1.3331
  737MOL0     H99481  10.376   4.601   0.466 -1.4013 -0.5945  0.1762
  737MOL0     H99482  10.123   4.632   0.423  1.3107 -2.2742 -1.8405
  737MOL0     H99483   9.796   5.041   0.043 -2.9562 -0.7923 -2.7071
  737MOL0     H99484   9.565   5.003   0.025  0.2234  0.3519  0.1643
  737MOL0     H99485   9.322   4.936   0.020 -0.2364  0.0860  0.3410
  737MOL0     H99486   9.383   4.799  -0.072 -1.1094  0.3476 -1.5563
  737MOL0     H99487   9.142   4.801   0.095 -3.3331 -0.6238 -2.6715
  737MOL0     H99488   9.237   4.645   0.071  0.8962  0.2830 -0.1580
  737MOL0     H99489   9.067   4.629  -0.076 -0.4029  0.6176  1.1923
  737MOL0     H99490   9.200   4.690  -0.178  0.3751 -0.6044  0.6231
  737MOL0     H99491   9.033   4.818  -0.245  1.0937 -0.5057  1.2395
  737MOL0     H99492   9.108   4.928  -0.130  0.1461  0.0480  1.8694
  737MOL0     H99493   8.734   4.920   0.048 -0.4922  1.5926 -1.3824
  737MOL0     H99494   9.588   4.660   0.279  0.4785  1.2148  0.6564
  737MOL0     H99495   9.801   4.727   0.359 -2.7089  1.1766  2.2004
  738MOL0     O99496   8.773   9.891   3.254 -0.5814  0.0964 -0.4400
  738MOL0     C99497   8.734   9.785   3.218  0.8404 -0.8558  0.9714
  738MOL0     O99498   8.810   9.687   3.149 -0.0458  0.2875 -0.7356
  738MOL0     C99499   8.944   9.710   3.117  0.0363 -0.3782  0.2815
  738MOL0     C99500   9.042   9.632   3.171  0.2530 -0.1739 -1.3842
  738MOL0     C99501   9.177   9.655   3.150  0.4748  0.2804  0.2698
  738MOL0     C99502   9.221   9.760   3.068  0.0207  0.4099 -0.1061
  738MOL0     O99503   9.355   9.750   3.039  0.1390 -0.1646  0.0971
  738MOL0     C99504   9.419   9.832   2.936  0.0029 -0.1042  0.0851
  738MOL0     C99505   9.548   9.771   2.893 -1.2342 -0.9045 -0.1880
  738MOL0     C99506   9.624   9.867   2.789 -0.6483  1.0221 -0.9687
  738MOL0     C99507   9.759   9.796   2.756 -0.9389  0.3456  0.4770
  738MOL0     C99508   9.843   9.871   2.647  0.3148  0.9485  0.0653
  738MOL0     C99509   9.866  10.006   2.702 -0.4887 -0.2249  0.4360
  738MOL0     C99510   9.973  10.071   2.613 -0.2256  0.3777 -0.0504
  738MOL0     C99511  10.016  10.210   2.669 -0.8140  0.0648  0.1274
  738MOL0     N99512  10.112  10.285   2.577  0.5319 -0.0283  0.0339
  738MOL0     C99513  10.240  10.249   2.557  0.4667 -0.1779  0.4042
  738MOL0     C99514  10.270  10.311   2.439 -0.2057 -0.4536 -0.9926
  738MOL0     C99515  10.387  10.270   2.359  0.2519  0.3450  0.2204
  738MOL0     C99516  10.505  10.377   2.359 -0.2748 -1.4113  0.4621
  738MOL0     C99517  10.563  10.396   2.505 -0.3037 -0.5381 -0.4555
  738MOL0     C99518  10.704  10.449   2.508 -0.1866  0.0663  0.6017
  738MOL0     O99519  10.704  10.581   2.444 -0.0227  0.1709 -0.2778
  738MOL0     C99520  10.819  10.649   2.466 -0.1367 -0.5819  0.0731
  738MOL0     C99521  10.814  10.788   2.431  0.1052  0.1151  1.0856
  738MOL0     C99522  10.913  10.879   2.447 -0.6554  0.0402 -0.8091
  738MOL0     C99523  10.903  11.027   2.396 -0.4544 -0.7171 -0.0499
  738MOL0     C99524  11.029  10.828   2.514 -0.3533  0.1754  0.0596
  738MOL0     C99525  11.146  10.912   2.534  0.0785 -1.1054 -1.0870
  738MOL0     O99526  11.169  10.954   2.662 -0.1418 -0.2979 -0.4520
  738MOL0     C99527  11.249  11.066   2.679 -0.2908  0.1009 -0.5706
  738MOL0     C99528  11.314  11.085   2.796 -0.2639  1.4036  0.8821
  738MOL0     C99529  11.385  11.195   2.835  1.0102  0.1530 -0.9908
  738MOL0     C99530  11.397  11.299   2.739 -0.0214 -0.9810  0.1510
  738MOL0     O99531  11.471  11.408   2.786 -0.1218  0.7711  0.4068
  738MOL0     C99532  11.608  11.395   2.738  0.9236 -0.4978 -0.0394
  738MOL0     C99533  11.690  11.340   2.859  0.2530 -0.4608 -0.2027
  738MOL0     C99534  11.836  11.375   2.825  0.3190 -0.3722 -0.0273
  738MOL0     C99535  11.936  11.322   2.933 -0.2498  0.1382  1.0368
  738MOL0     C99536  12.063  11.400   2.933  0.2279  0.3218 -0.9224
  738MOL0     C99537  12.177  11.356   3.028 -0.5407  0.2664 -0.1142
  738MOL0     C99538  12.307  11.434   3.005  0.1989  0.7109 -0.0432
  738MOL0     C99539  12.399  11.412   3.127  0.5256 -0.4760 -1.1411
  738MOL0    Cl99540  12.344  11.494   3.279  0.1852 -0.2238 -0.4468
  738MOL0     C99541  11.333  11.287   2.615 -0.9451  0.5683 -0.2758
  738MOL0     C99542  11.254  11.176   2.589 -0.1395 -0.4536  0.1427
  738MOL0     O99543  11.220  10.923   2.440  0.8238 -0.2410  0.4273
  738MOL0     C99544  11.038  10.691   2.557 -0.2857  0.7884  0.0789
  738MOL0     C99545  10.932  10.603   2.532 -0.4577  0.0351  0.8586
  738MOL0     N99546  10.166  10.389   2.406 -0.1228 -0.0641  0.9380
  738MOL0     N99547  10.072  10.376   2.485  0.1456 -0.1534  0.4589
  738MOL0     C99548   9.124   9.843   3.002  0.0728  0.2967 -1.2917
  738MOL0     C99549   8.986   9.822   3.037 -0.2833 -0.1242 -0.0675
  738MOL0     C99550   8.595   9.749   3.248  0.4755 -0.3135  0.9466
  738MOL0     C99551   8.516   9.857   3.288 -0.2886 -0.0235 -0.0421
  738MOL0     C99552   8.381   9.851   3.312  0.3508  0.8115  0.6913
  738MOL0     C99553   8.318   9.723   3.299  1.0858  1.7699  0.8749
  738MOL0     O99554   8.187   9.683   3.328 -0.1302  0.0920  0.1772
  738MOL0     C99555   8.096   9.781   3.378 -0.3976 -0.6725  0.3225
  738MOL0     C99556   7.947   9.759   3.341 -0.1267 -0.1804 -0.0867
  738MOL0     C99557   7.882   9.643   3.418  0.2042  0.2819  0.3437
  738MOL0     C99558   7.734   9.624   3.379  0.4351  0.0145  0.8658
  738MOL0     C99559   7.688   9.492   3.426 -0.0913 -0.4351  0.0150
  738MOL0     C99560   7.667   9.382   3.458  0.0577  0.0172 -0.3250
  738MOL0     C99561   8.394   9.614   3.255 -0.3708 -0.4177 -0.0639
  738MOL0     C99562   8.532   9.627   3.224 -0.3905 -0.7212 -0.5892
  738MOL0     H99563   9.010   9.545   3.227  0.7406  0.2919 -0.3472
  738MOL0     H99564   9.234   9.570   3.186  0.0188  1.1381  3.2944
  738MOL0     H99565   9.344   9.826   2.857 -2.1063 -1.2615  2.0240
  738MOL0     H99566   9.427   9.933   2.977  0.4109 -0.1918  0.2284
  738MOL0     H99567   9.606   9.760   2.985 -1.7174 -0.7603  0.1377
  738MOL0     H99568   9.536   9.668   2.857  1.3455 -1.3234 -0.0572
  738MOL0     H99569   9.563   9.869   2.698 -3.7806 -0.7264  0.8726
  738MOL0     H99570   9.630   9.968   2.832 -1.5912 -0.7121  3.9278
  738MOL0     H99571   9.825   9.798   2.843  0.4747 -1.3907 -0.4737
  738MOL0     H99572   9.732   9.693   2.731 -2.2575  0.5874  0.8184
  738MOL0     H99573   9.939   9.820   2.635 -0.5010 -1.2597  2.0263
  738MOL0     H99574   9.794   9.877   2.550 -0.8863 -1.5560  0.4199
  738MOL0     H99575   9.778  10.070   2.715 -0.8335 -0.3463 -1.1173
  738MOL0     H99576   9.913   9.994   2.799 -0.8424 -1.5947  0.4606
  738MOL0     H99577  10.054  10.001   2.590 -2.0249 -1.5365 -0.8510
  738MOL0     H99578   9.925  10.093   2.517 -0.1602 -2.4793 -0.8207
  738MOL0     H99579  10.066  10.196   2.765  0.0081  3.4815  0.3503
  738MOL0     H99580   9.925  10.268   2.691 -1.5751 -2.0224  3.0495
  738MOL0     H99581  10.282  10.170   2.618 -3.8082 -0.5123  3.3821
  738MOL0     H99582  10.420  10.181   2.413 -2.5282 -0.5331  0.5830
  738MOL0     H99583  10.359  10.255   2.254 -0.2460  1.3096  0.2062
  738MOL0     H99584  10.476  10.471   2.311 -2.3643 -2.7025 -0.9890
  738MOL0     H99585  10.586  10.341   2.295  1.0291  0.4145  1.0043
  738MOL0     H99586  10.549  10.304   2.563 -2.5207 -0.2410 -0.4153
  738MOL0     H99587  10.493  10.464   2.555  1.1089 -1.2713  2.8224
  738MOL0     H99588  10.772  10.379   2.459 -0.1453 -0.5871  1.5639
  738MOL0     H99589  10.730  10.457   2.614  2.9679 -2.2247  0.1412
  738MOL0     H99590  10.726  10.822   2.378  1.9045  1.6555 -1.1071
  738MOL0     H99591  10.970  11.089   2.456 -1.2763  0.7527 -0.5754
  738MOL0     H99592  10.947  11.029   2.296  0.4217  1.0545  0.3244
  738MOL0     H99593  10.807  11.080   2.389  0.3910  1.3978  2.4441
  738MOL0     H99594  11.291  11.012   2.873  0.9399 -0.6260 -0.5928
  738MOL0     H99595  11.418  11.206   2.938  0.4262  0.7573 -0.8636
  738MOL0     H99596  11.614  11.323   2.657  2.0558  2.0356 -2.3479
  738MOL0     H99597  11.648  11.494   2.717  1.4784 -0.7611 -0.2326
  738MOL0     H99598  11.657  11.383   2.954 -2.7821 -2.0273 -0.4307
  738MOL0     H99599  11.681  11.231   2.861  2.7748 -0.7650 -1.0957
  738MOL0     H99600  11.842  11.484   2.813 -0.5089  0.1207  3.0695
  738MOL0     H99601  11.867  11.330   2.731  1.0083 -0.6057  0.3051
  738MOL0     H99602  11.895  11.322   3.035  0.6072  0.5817  1.3987
  738MOL0     H99603  11.954  11.216   2.916 -2.7191 -0.4163  1.5116
  738MOL0     H99604  12.035  11.502   2.960 -1.7556 -0.3558 -0.2853
  738MOL0     H99605  12.100  11.391   2.830  0.6595 -3.5422 -0.5941
  738MOL0     H99606  12.143  11.372   3.131  1.4456 -3.4989  1.3250
  738MOL0     H99607  12.190  11.248   3.013  1.9474  0.2733  1.4114
  738MOL0     H99608  12.284  11.541   3.002 -1.7402  0.3330  0.0374
  738MOL0     H99609  12.347  11.387   2.915 -0.7849  2.0910 -1.2488
  738MOL0     H99610  12.485  11.476   3.100 -0.6668  1.6537 -0.1606
  738MOL0     H99611  12.443  11.317   3.157  1.3368  0.8050  2.1998
  738MOL0     H99612  11.346  11.363   2.539  0.9650 -0.5436 -1.1285
  738MOL0     H99613  11.182  11.165   2.509 -1.8798 -1.5127  1.7467
  738MOL0     H99614  11.129  10.649   2.601  0.1833  1.3400 -0.3435
  738MOL0     H99615  10.939  10.501   2.569 -1.3877 -0.2281  0.3366
  738MOL0     H99616   9.151   9.930   2.943 -1.8724  2.7016  1.0680
  738MOL0     H99617   8.910   9.882   2.988  1.9082  2.3402 -0.7011
  738MOL0     H99618   8.556   9.956   3.308  1.3406 -0.9879  1.7918
  738MOL0     H99619   8.336   9.939   3.355  1.5431  1.3667  0.8363
  738MOL0     H99620   8.111   9.802   3.485  3.2161 -4.5713  0.8480
  738MOL0     H99621   8.120   9.873   3.324  0.3210 -1.1359 -0.1658
  738MOL0     H99622   7.941   9.745   3.232 -0.0620  1.4585 -0.3214
  738MOL0     H99623   7.890   9.851   3.359 -1.8144 -1.3472  0.7739
  738MOL0     H99624   7.889   9.673   3.523 -3.8270  2.4565  0.1760
  738MOL0     H99625   7.942   9.552   3.407 -0.7572 -0.3725  0.3745
  738MOL0     H99626   7.729   9.635   3.270  0.4273  1.1194  0.9613
  738MOL0     H99627   7.686   9.716   3.414  0.9518  0.0572  1.4888
  738MOL0     H99628   7.639   9.280   3.476 -1.2130  0.5688  0.9302
  738MOL0     H99629   8.339   9.521   3.247  0.7860 -1.1106 -0.0472
  738MOL0     H99630   8.589   9.540   3.194 -0.9742 -1.8126  1.2817
  739MOL0     O99631   7.397   7.100   7.680 -0.1088  0.5013 -0.3792
  739MOL0     C99632   7.520   7.131   7.661 -0.0824  0.2578  0.2538
  739MOL0     O99633   7.571   7.159   7.529  0.3147 -1.0511 -1.0937
  739MOL0     C99634   7.486   7.116   7.427 -0.1200 -0.6744  0.2672
  739MOL0     C99635   7.435   7.216   7.351 -0.1635 -0.6595  0.1971
  739MOL0     C99636   7.373   7.177   7.232  0.1965 -0.2640  0.6741
  739MOL0     C99637   7.360   7.040   7.193 -0.3171  0.1883  0.0659
  739MOL0     O99638   7.301   7.013   7.069 -0.8199 -0.8119 -0.3670
  739MOL0     C99639   7.364   6.924   6.981  0.5720  0.4614 -0.2512
  739MOL0     C99640   7.491   7.003   6.921  0.4169 -0.4577  0.4110
  739MOL0     C99641   7.545   6.937   6.796  0.4450 -0.2302  0.4613
  739MOL0     C99642   7.508   6.783   6.777  0.3373 -1.2040  0.1031
  739MOL0     C99643   7.621   6.715   6.692 -0.6511 -0.0246 -0.1083
  739MOL0     C99644   7.633   6.755   6.543  0.1636  0.5419 -0.2838
  739MOL0     C99645   7.514   6.704   6.461 -1.0944  0.9267 -0.0002
  739MOL0     C99646   7.517   6.725   6.310  1.0058 -1.0410  0.6998
  739MOL0     N99647   7.601   6.638   6.226 -0.4524 -0.0901  0.8535
  739MOL0     C99648   7.573   6.512   6.200  0.1338  0.6307 -0.2748
  739MOL0     C99649   7.678   6.462   6.129  0.2385  0.3284  0.3447
  739MOL0     C99650   7.691   6.326   6.072 -0.1836  0.4045  0.3083
  739MOL0     C99651   7.614   6.322   5.939  0.5775 -0.6725 -0.5317
  739MOL0     C99652   7.461   6.305   5.949 -0.0285 -0.2855 -0.0654
  739MOL0     C99653   7.397   6.218   6.048 -0.9888 -0.5528 -0.1678
  739MOL0     O99654   7.419   6.078   6.012  0.7126 -0.5617 -0.0729
  739MOL0     C99655   7.294   6.017   5.986 -0.5448  0.7382  0.0454
  739MOL0     C99656   7.254   5.916   6.077  0.3183 -1.1294  1.2178
  739MOL0     C99657   7.118   5.861   6.055  0.2295  0.6848  0.5663
  739MOL0     C99658   7.064   5.750   6.142 -0.6354 -0.1112 -0.2650
  739MOL0     C99659   7.048   5.906   5.941  0.7685 -0.5917 -0.1289
  739MOL0     C99660   6.914   5.861   5.914 -0.8191 -0.9399  0.4591
  739MOL0     O99661   6.888   5.725   5.913 -0.2368  0.6391 -0.0201
  739MOL0     C99662   6.758   5.700   5.889  0.9912  0.4867 -0.4528
  739MOL0     C99663   6.669   5.661   5.992 -0.0530  0.1177  0.3120
  739MOL0     C99664   6.529   5.652   5.966 -0.5227 -0.8655  0.2834
  739MOL0     C99665   6.483   5.669   5.835  1.0482  0.7035  0.0784
  739MOL0     O99666   6.343   5.635   5.802 -1.8215 -0.0797  0.0061
  739MOL0     C99667   6.252   5.697   5.893  0.2052  0.0436 -0.4632
  739MOL0     C99668   6.105   5.667   5.850 -0.4451  0.0951  0.7724
  739MOL0     C99669   5.995   5.719   5.943 -1.2201 -0.0180  0.0215
  739MOL0     C99670   5.871   5.622   5.953 -0.6034  0.4451  0.0110
  739MOL0     C99671   5.780   5.692   6.049  0.8382 -0.2920 -1.4357
  739MOL0     C99672   5.656   5.622   6.088 -0.4205  0.4202 -0.0296
  739MOL0     C99673   5.586   5.693   6.202  0.1944 -0.3215 -0.4229
  739MOL0     C99674   5.434   5.662   6.194 -0.4367  0.2935 -0.7112
  739MOL0    Cl99675   5.373   5.747   6.044  0.3376  0.2720 -0.0177
  739MOL0     C99676   6.568   5.717   5.739  0.4702 -1.0851  0.3210
  739MOL0     C99677   6.710   5.725   5.761 -0.5661  0.6861 -0.0439
  739MOL0     O99678   6.835   5.956   5.905 -0.2704 -0.0833  0.1452
  739MOL0     C99679   7.103   5.992   5.845  0.1297 -0.6493  0.1274
  739MOL0     C99680   7.228   6.044   5.876  0.3493 -0.5682 -0.0379
  739MOL0     N99681   7.771   6.561   6.121 -0.2656  0.1672 -0.2995
  739MOL0     N99682   7.727   6.672   6.178  0.3295 -0.3528  0.8621
  739MOL0     C99683   7.403   6.937   7.278  0.7826 -0.1541  0.9749
  739MOL0     C99684   7.479   6.976   7.392 -1.2349  0.5795  1.4221
  739MOL0     C99685   7.607   7.136   7.774 -0.8171  0.0421 -1.1646
  739MOL0     C99686   7.560   7.089   7.898 -0.2350  0.0576  0.2403
  739MOL0     C99687   7.638   7.103   8.012  0.0085  0.4880 -0.1603
  739MOL0     C99688   7.763   7.167   8.015 -0.0138 -0.9608 -0.2333
  739MOL0     O99689   7.829   7.180   8.136  0.4141  0.9485 -0.5663
  739MOL0     C99690   7.816   7.073   8.229  0.6767  0.0907 -0.3418
  739MOL0     C99691   7.957   7.052   8.283  0.0692 -0.5787  0.6418
  739MOL0     C99692   8.023   7.184   8.335  0.2478 -0.1916 -1.0600
  739MOL0     C99693   8.119   7.169   8.452  0.2982 -0.2722 -0.6131
  739MOL0     C99694   8.045   7.152   8.575 -0.7490  0.1528  0.0951
  739MOL0     C99695   8.000   7.150   8.691 -0.2848  0.7409  0.6258
  739MOL0     C99696   7.824   7.202   7.890  0.0361  0.0553  0.0926
  739MOL0     C99697   7.742   7.181   7.776  0.4345 -0.2241  0.4461
  739MOL0     H99698   7.465   7.319   7.371 -0.4079 -0.2952 -1.1572
  739MOL0     H99699   7.347   7.257   7.164  1.6738 -0.1328  0.2376
  739MOL0     H99700   7.400   6.835   7.034  0.3076  0.5758  0.1249
  739MOL0     H99701   7.297   6.904   6.896  1.8955  3.0089 -2.0492
  739MOL0     H99702   7.463   7.104   6.891 -0.4167 -1.4722 -2.6339
  739MOL0     H99703   7.564   7.007   7.003 -1.5144 -0.6048  2.2348
  739MOL0     H99704   7.517   6.996   6.708  0.0632 -2.4795 -1.0062
  739MOL0     H99705   7.655   6.932   6.799  0.6621 -2.1792 -3.6373
  739MOL0     H99706   7.495   6.730   6.872 -1.4586  1.6254  1.5731
  739MOL0     H99707   7.416   6.786   6.718  0.5041 -2.8403 -0.2897
  739MOL0     H99708   7.718   6.736   6.736  0.0807 -1.8155 -0.7566
  739MOL0     H99709   7.620   6.605   6.694 -1.0222 -0.0067  1.4123
  739MOL0     H99710   7.633   6.863   6.526  2.3210  0.2325 -2.6633
  739MOL0     H99711   7.718   6.711   6.491 -2.0137 -1.8580 -2.1482
  739MOL0     H99712   7.504   6.596   6.476 -0.7256  0.8191 -0.5105
  739MOL0     H99713   7.428   6.756   6.503 -1.7274  1.2446 -1.6281
  739MOL0     H99714   7.556   6.827   6.301  0.2306 -0.6523  1.6563
  739MOL0     H99715   7.418   6.733   6.264 -0.8831  2.7760  4.6712
  739MOL0     H99716   7.478   6.471   6.233 -0.8335  3.3394  0.6445
  739MOL0     H99717   7.798   6.310   6.056 -0.7406 -3.4928 -0.4953
  739MOL0     H99718   7.657   6.247   6.140 -2.1665  3.0346  2.6156
  739MOL0     H99719   7.642   6.229   5.889  0.6500 -1.7655  1.4585
  739MOL0     H99720   7.636   6.410   5.878 -1.0348  0.2697  0.1806
  739MOL0     H99721   7.420   6.291   5.848  1.2814 -0.1652 -0.6331
  739MOL0     H99722   7.422   6.404   5.974 -2.5428 -1.1803 -0.1972
  739MOL0     H99723   7.294   6.251   6.064 -0.9053 -0.8146  0.9477
  739MOL0     H99724   7.451   6.227   6.142 -1.4376  2.0183 -0.0864
  739MOL0     H99725   7.307   5.883   6.166 -1.2948 -2.1072  1.8824
  739MOL0     H99726   7.093   5.771   6.246  1.9329 -0.6439 -0.8172
  739MOL0     H99727   6.956   5.732   6.132 -0.2871 -1.1319 -2.8621
  739MOL0     H99728   7.110   5.662   6.098 -0.6296 -0.2051 -0.0723
  739MOL0     H99729   6.715   5.649   6.090 -0.3830  1.7162  0.6905
  739MOL0     H99730   6.467   5.625   6.050  0.8557 -0.4345  1.4946
  739MOL0     H99731   6.268   5.662   5.996  0.3736  0.8095 -0.2198
  739MOL0     H99732   6.270   5.805   5.892  0.6966 -0.0394 -0.7455
  739MOL0     H99733   6.096   5.713   5.751 -0.1935  0.3759  0.8743
  739MOL0     H99734   6.109   5.558   5.840 -2.0386  0.1015 -0.3342
  739MOL0     H99735   5.958   5.810   5.893  1.6110  1.9528  1.2487
  739MOL0     H99736   6.043   5.744   6.038 -0.7349  2.9772 -0.9138
  739MOL0     H99737   5.833   5.594   5.855  1.6961 -0.8358 -0.5847
  739MOL0     H99738   5.908   5.535   6.010 -0.5448  0.0404 -0.6343
  739MOL0     H99739   5.759   5.791   6.008  0.3120  0.1679 -0.1253
  739MOL0     H99740   5.839   5.709   6.140 -1.9992  1.9423  0.1894
  739MOL0     H99741   5.589   5.623   6.001 -1.4693 -0.3223  0.7370
  739MOL0     H99742   5.688   5.517   6.095  3.3842  1.2579 -1.8718
  739MOL0     H99743   5.591   5.802   6.195 -2.5354  0.0222  1.4205
  739MOL0     H99744   5.652   5.666   6.285 -1.4480 -1.3407  0.6082
  739MOL0     H99745   5.383   5.690   6.287  0.6524  2.9341 -0.8067
  739MOL0     H99746   5.419   5.554   6.193 -2.1190  0.5052 -1.3519
  739MOL0     H99747   6.517   5.744   5.647 -2.2798 -1.5231  1.6172
  739MOL0     H99748   6.774   5.768   5.684 -0.5679 -0.3669 -0.6518
  739MOL0     H99749   7.060   6.009   5.746 -0.5972 -2.8733  0.0038
  739MOL0     H99750   7.280   6.114   5.812 -1.2796  2.5844  1.8197
  739MOL0     H99751   7.393   6.832   7.252 -1.1162  0.5487 -1.5387
  739MOL0     H99752   7.520   6.905   7.462 -0.3587 -1.6244 -1.1645
  739MOL0     H99753   7.460   7.049   7.910  0.7035 -1.9523  2.0308
  739MOL0     H99754   7.588   7.086   8.106  0.6417  1.8374  0.4388
  739MOL0     H99755   7.755   7.100   8.316 -2.4503 -3.0019 -1.3635
  739MOL0     H99756   7.778   6.974   8.204  0.6060 -0.8377  2.9491
  739MOL0     H99757   8.013   7.011   8.198  2.6338  2.2245  0.7943
  739MOL0     H99758   7.948   6.986   8.369  0.5460  0.0529  1.1846
  739MOL0     H99759   7.943   7.252   8.365  2.4117  1.2342  2.1186
  739MOL0     H99760   8.085   7.222   8.252  0.1303 -0.6605 -1.3612
  739MOL0     H99761   8.180   7.260   8.453 -1.3588  0.8934  0.8503
  739MOL0     H99762   8.174   7.077   8.430 -4.4400 -3.2306 -1.5137
  739MOL0     H99763   7.952   7.146   8.787  2.0653  1.7240  1.9258
  739MOL0     H99764   7.920   7.245   7.861  0.0377  0.4512  0.6705
  739MOL0     H99765   7.783   7.216   7.682 -0.8327  0.8146  0.2523
  740MOL0     O99766  10.691   4.974   9.609  0.2386  0.3135 -0.4453
  740MOL0     C99767  10.770   4.902   9.659 -0.6745  0.6756  0.4025
  740MOL0     O99768  10.756   4.823   9.770  0.5473 -0.0491 -0.3439
  740MOL0     C99769  10.637   4.847   9.843 -0.1083 -0.5305  0.4425
  740MOL0     C99770  10.510   4.815   9.787 -0.4485  0.5689  0.2263
  740MOL0     C99771  10.398   4.820   9.859 -0.0075  0.2474 -0.3796
  740MOL0     C99772  10.402   4.883   9.990  1.3075  0.1164  0.5120
  740MOL0     O99773  10.293   4.908  10.070 -0.2595 -0.7858  0.6106
  740MOL0     C99774  10.174   4.886   9.998  0.1875 -0.3605 -0.1253
  740MOL0     C99775  10.046   4.903  10.079  0.7701  0.5666 -0.3764
  740MOL0     C99776   9.909   4.868  10.019  0.7695  0.0407  0.4311
  740MOL0     C99777   9.794   4.901  10.119  0.1400  0.3654  0.0099
  740MOL0     C99778   9.668   4.820  10.081  0.0928  0.3261  0.1791
  740MOL0     C99779   9.627   4.821   9.930  0.5694  1.1752 -0.7440
  740MOL0     C99780   9.507   4.743   9.912  0.3059 -0.0058  0.3190
  740MOL0     C99781   9.440   4.788   9.780  0.8067  1.0149  0.1052
  740MOL0     N99782   9.296   4.779   9.783  0.1052  0.2648  0.2069
  740MOL0     C99783   9.224   4.692   9.870 -1.6209 -0.0808  1.2311
  740MOL0     C99784   9.095   4.738   9.856  0.0790 -0.1522 -0.2364
  740MOL0     C99785   8.974   4.709   9.938 -0.0555  0.4225  0.4960
  740MOL0     C99786   8.981   4.762  10.085 -0.0276 -0.5320  0.6118
  740MOL0     C99787   8.841   4.799  10.144 -0.1844  0.8800 -0.0141
  740MOL0     C99788   8.758   4.681  10.187  0.1782 -0.0520  0.0952
  740MOL0     O99789   8.705   4.616  10.068  0.3256  0.4809 -0.3676
  740MOL0     C99790   8.644   4.496  10.100  0.3296  0.2265 -0.5865
  740MOL0     C99791   8.636   4.402  10.003  0.2116 -0.5255 -0.8152
  740MOL0     C99792   8.588   4.272  10.030 -0.1061  0.3681 -0.8054
  740MOL0     C99793   8.578   4.169   9.914  0.6350  0.2414  0.0627
  740MOL0     C99794   8.536   4.238  10.161 -0.5837 -1.1627  0.6494
  740MOL0     C99795   8.467   4.108  10.195  0.0273 -0.1560 -0.1365
  740MOL0     O99796   8.368   4.117  10.290  0.0079  1.4165 -0.1653
  740MOL0     C99797   8.330   3.996  10.348 -0.9120  0.3152  0.7184
  740MOL0     C99798   8.423   3.899  10.395  0.7136 -0.9313 -0.5652
  740MOL0     C99799   8.380   3.777  10.448  0.1060  0.7821 -1.1170
  740MOL0     C99800   8.246   3.750  10.471 -0.4941 -0.2510 -0.4345
  740MOL0     O99801   8.205   3.627  10.519  0.3607  0.8178 -0.4719
  740MOL0     C99802   8.082   3.570  10.480  0.7307  0.4269  0.1502
  740MOL0     C99803   8.072   3.419  10.520 -0.1717 -0.7215  0.6255
  740MOL0     C99804   8.195   3.338  10.473  0.5206 -0.6875  0.1972
  740MOL0     C99805   8.222   3.335  10.329 -0.1503  0.2899 -1.2281
  740MOL0     C99806   8.321   3.231  10.285  0.5548 -0.4086 -0.6316
  740MOL0     C99807   8.464   3.253  10.329  0.3124  0.1141 -0.6996
  740MOL0     C99808   8.551   3.156  10.255 -0.0942 -0.6417 -0.4171
  740MOL0     C99809   8.696   3.166  10.294 -0.1028  0.4543 -0.9071
  740MOL0    Cl99810   8.787   3.047  10.203  0.2992 -0.3461  0.2282
  740MOL0     C99811   8.154   3.853  10.441 -0.2238  0.8442  0.3244
  740MOL0     C99812   8.199   3.976  10.376  0.2618  1.1617  0.1928
  740MOL0     O99813   8.504   4.000  10.138 -0.0383 -0.3594  0.3417
  740MOL0     C99814   8.542   4.341  10.259 -0.5674 -0.2492 -1.1070
  740MOL0     C99815   8.606   4.463  10.228 -0.2086  1.3509 -0.0469
  740MOL0     N99816   9.095   4.832   9.754 -0.6663 -0.6714 -0.6710
  740MOL0     N99817   9.218   4.866   9.719 -0.5097 -0.2647  0.2566
  740MOL0     C99818  10.523   4.920  10.041  0.4417  0.3880  0.5197
  740MOL0     C99819  10.636   4.900   9.974 -1.1618 -0.5243 -0.0842
  740MOL0     C99820  10.890   4.882   9.579 -0.1180 -0.8476  0.1419
  740MOL0     C99821  10.952   4.990   9.509 -0.4240 -0.4908 -0.2673
  740MOL0     C99822  11.074   4.972   9.442  0.0203  0.0410 -0.3295
  740MOL0     C99823  11.138   4.848   9.442 -0.1245  0.5829  0.0796
  740MOL0     O99824  11.259   4.826   9.384 -0.0753  0.3047  0.0551
  740MOL0     C99825  11.328   4.942   9.326  1.1075  0.2402  0.5683
  740MOL0     C99826  11.463   4.889   9.277 -0.2643  0.3582  0.0712
  740MOL0     C99827  11.443   4.821   9.139 -0.1713 -0.3147 -0.6276
  740MOL0     C99828  11.573   4.766   9.080  0.6293 -0.2157 -0.0310
  740MOL0     C99829  11.686   4.861   9.087 -0.2201 -0.9107 -0.2565
  740MOL0     C99830  11.789   4.929   9.092  0.3640  1.1534  0.2927
  740MOL0     C99831  11.073   4.739   9.504  0.6978 -0.1501 -0.2195
  740MOL0     C99832  10.953   4.754   9.571  0.4209 -0.9874 -0.3444
  740MOL0     H99833  10.518   4.781   9.684  0.5382 -2.1835  1.1316
  740MOL0     H99834  10.312   4.790   9.801  0.6551 -0.6096 -0.9444
  740MOL0     H99835  10.170   4.949   9.909 -3.6852 -1.1540 -0.6988
  740MOL0     H99836  10.173   4.781   9.965  0.2303  0.3217 -2.4904
  740MOL0     H99837  10.053   4.858  10.179 -1.4080  3.5710  1.2992
  740MOL0     H99838  10.042   5.011  10.097  0.2939  0.3826  0.7297
  740MOL0     H99839   9.904   4.916   9.921  0.3274 -0.8030  0.0324
  740MOL0     H99840   9.897   4.759  10.015 -0.5351  0.1589  0.6831
  740MOL0     H99841   9.821   4.878  10.222  0.6639 -0.2654 -0.2628
  740MOL0     H99842   9.770   5.007  10.109 -1.5230  0.0893  0.7172
  740MOL0     H99843   9.680   4.718  10.119 -1.9395  0.8408  2.5193
  740MOL0     H99844   9.579   4.862  10.130  0.7396  0.2818  1.4207
  740MOL0     H99845   9.613   4.926   9.903  1.7974  1.4146 -0.5036
  740MOL0     H99846   9.713   4.776   9.879 -1.0476  2.2322 -4.7501
  740MOL0     H99847   9.517   4.634   9.907 -0.1935  0.0086 -1.3730
  740MOL0     H99848   9.437   4.758   9.994  2.1762  0.1755  1.9622
  740MOL0     H99849   9.471   4.723   9.698 -2.6911  0.5679 -1.0477
  740MOL0     H99850   9.481   4.886   9.752 -0.8499  0.8772 -3.4185
  740MOL0     H99851   9.263   4.614   9.934  1.1805 -0.3639 -0.6198
  740MOL0     H99852   8.892   4.759   9.885 -1.1109  0.0483  1.7183
  740MOL0     H99853   8.943   4.604   9.934 -5.5522  1.7422  0.4005
  740MOL0     H99854   9.025   4.860  10.064  0.8268 -1.5312 -2.9799
  740MOL0     H99855   9.041   4.704  10.154 -0.1497 -1.5901 -0.1464
  740MOL0     H99856   8.780   4.858  10.075  1.5081 -0.1771 -2.6121
  740MOL0     H99857   8.863   4.863  10.230 -1.9314  1.3200  0.1431
  740MOL0     H99858   8.679   4.725  10.248 -0.8332 -0.4543 -0.9023
  740MOL0     H99859   8.828   4.620  10.246 -0.7028 -2.1197 -0.8955
  740MOL0     H99860   8.663   4.430   9.902 -0.3539  0.4569 -0.7120
  740MOL0     H99861   8.483   4.117   9.923 -0.4611  1.8740 -1.4311
  740MOL0     H99862   8.572   4.212   9.813 -0.1692 -1.1604 -0.5125
  740MOL0     H99863   8.662   4.100   9.901  1.0212  0.9666 -1.6969
  740MOL0     H99864   8.530   3.900  10.377  1.0250 -1.0330  1.1236
  740MOL0     H99865   8.439   3.690  10.476 -1.6106 -0.4545 -1.1471
  740MOL0     H99866   8.009   3.633  10.532  2.8263  0.8833  2.7630
  740MOL0     H99867   8.072   3.579  10.371 -0.2865 -2.0237 -0.0266
  740MOL0     H99868   8.065   3.407  10.629 -0.8170 -0.7340  0.5859
  740MOL0     H99869   7.986   3.361  10.487  0.6232 -1.2548 -0.5814
  740MOL0     H99870   8.179   3.234  10.503 -1.2945 -1.3781 -2.7948
  740MOL0     H99871   8.286   3.369  10.526 -0.4017  1.0224  0.8456
  740MOL0     H99872   8.134   3.295  10.278  0.8966 -0.1123 -2.7552
  740MOL0     H99873   8.261   3.430  10.293 -1.3966  1.7137  0.8958
  740MOL0     H99874   8.319   3.233  10.176 -1.9184  0.5894 -0.6505
  740MOL0     H99875   8.271   3.139  10.316 -1.3682  1.0529  0.8835
  740MOL0     H99876   8.495   3.355  10.306 -1.3618  0.6168 -0.8755
  740MOL0     H99877   8.478   3.247  10.437  2.1302  0.4058 -0.9013
  740MOL0     H99878   8.532   3.182  10.151 -1.1456 -1.5927 -0.4830
  740MOL0     H99879   8.523   3.052  10.275 -1.7944 -0.1096  0.1477
  740MOL0     H99880   8.709   3.137  10.399  3.7797  3.8537 -0.2274
  740MOL0     H99881   8.745   3.262  10.277  5.4467 -2.2657 -2.5153
  740MOL0     H99882   8.047   3.848  10.459 -0.5929 -0.9958 -1.8856
  740MOL0     H99883   8.120   4.045  10.349 -0.3884  0.0487 -0.8345
  740MOL0     H99884   8.507   4.323  10.360 -0.4772  2.3907 -0.5537
  740MOL0     H99885   8.613   4.530  10.313 -0.0785  2.7569 -1.1354
  740MOL0     H99886  10.523   4.972  10.136 -3.1775 -1.1048  1.4901
  740MOL0     H99887  10.730   4.930  10.020 -2.5946  1.8694  1.5172
  740MOL0     H99888  10.909   5.087   9.533  0.1866 -0.5501  1.1865
  740MOL0     H99889  11.119   5.060   9.398  1.0050  0.0335  0.6079
  740MOL0     H99890  11.276   4.975   9.236  0.5192 -1.6113  0.1888
  740MOL0     H99891  11.350   5.012   9.407 -0.5160  2.2640 -0.6367
  740MOL0     H99892  11.500   4.817   9.350  3.8643  1.6805 -0.4233
  740MOL0     H99893  11.540   4.965   9.261  2.2342 -2.2956 -1.6468
  740MOL0     H99894  11.389   4.875   9.061 -2.1567 -1.5742 -0.1970
  740MOL0     H99895  11.371   4.742   9.160  1.2749 -1.4866  0.1050
  740MOL0     H99896  11.546   4.751   8.975 -1.9265 -0.5850  0.6008
  740MOL0     H99897  11.595   4.665   9.117 -0.6047 -0.5807 -0.2385
  740MOL0     H99898  11.878   4.987   9.103  1.0512 -0.1597  2.3065
  740MOL0     H99899  11.117   4.641   9.497  0.2962 -0.4502  1.0451
  740MOL0     H99900  10.914   4.670   9.628 -0.8565  1.1720  2.2184
  741MOL0     O99901   4.880   1.383   3.434 -0.4777  0.6774  0.2285
  741MOL0     C99902   4.962   1.435   3.359  0.1993 -0.5908 -0.2772
  741MOL0     O99903   4.950   1.450   3.225  0.7019 -0.5706  0.2332
  741MOL0     C99904   4.862   1.361   3.170 -0.9389 -0.2677 -0.0226
  741MOL0     C99905   4.737   1.400   3.135  0.1605 -0.4255  0.7084
  741MOL0     C99906   4.648   1.310   3.070 -0.6399 -0.2342  0.4640
  741MOL0     C99907   4.684   1.176   3.055 -1.4159 -0.3558 -0.3990
  741MOL0     O99908   4.592   1.092   3.005 -0.0985 -0.2463  0.2496
  741MOL0     C99909   4.591   0.964   3.065 -0.3324  0.4795  0.2183
  741MOL0     C99910   4.463   0.894   3.031  0.3812 -0.1713  0.5028
  741MOL0     C99911   4.339   0.967   3.078  0.2173  0.2212  0.4773
  741MOL0     C99912   4.252   1.035   2.981 -0.3660 -0.4080  0.4992
  741MOL0     C99913   4.122   1.097   3.052 -0.2056 -0.6430  0.0128
  741MOL0     C99914   4.036   1.207   2.995 -0.3612 -0.0587  0.7393
  741MOL0     C99915   4.113   1.337   2.965 -0.5394 -0.7406 -0.8322
  741MOL0     C99916   4.031   1.463   2.958  0.6946 -0.5532  1.6813
  741MOL0     N99917   3.952   1.477   2.838  0.4979  0.5850 -0.0338
  741MOL0     C99918   3.983   1.557   2.731  1.1198  0.7019 -0.6752
  741MOL0     C99919   3.865   1.555   2.662  0.0549  0.1872  0.7170
  741MOL0     C99920   3.836   1.637   2.539 -0.3080 -0.0128  0.3973
  741MOL0     C99921   3.832   1.782   2.569  0.0173 -0.3065  0.2904
  741MOL0     C99922   3.724   1.819   2.674 -0.9863 -0.1508  0.1634
  741MOL0     C99923   3.744   1.951   2.748  0.0529 -0.1336  0.3734
  741MOL0     O99924   3.694   2.060   2.675 -0.3280 -0.2291  1.1251
  741MOL0     C99925   3.560   2.073   2.663 -0.1288  0.3985  0.6557
  741MOL0     C99926   3.502   2.163   2.563 -0.0507  0.2970  0.3042
  741MOL0     C99927   3.360   2.176   2.543  0.3974  1.0238  0.3746
  741MOL0     C99928   3.322   2.276   2.437 -0.5511  0.8711 -0.0472
  741MOL0     C99929   3.272   2.094   2.623  0.7023 -0.3679  0.3841
  741MOL0     C99930   3.121   2.108   2.610 -0.4578  0.6573 -0.2638
  741MOL0     O99931   3.057   2.012   2.694  0.2969 -0.0709 -0.1349
  741MOL0     C99932   2.920   2.003   2.711  0.1262 -0.2842  0.3839
  741MOL0     C99933   2.821   2.098   2.686 -0.0277 -0.2488 -0.4407
  741MOL0     C99934   2.689   2.064   2.714  1.0824 -0.0160 -0.1471
  741MOL0     C99935   2.640   1.942   2.771 -0.0912 -0.3806 -0.0565
  741MOL0     O99936   2.502   1.921   2.780 -0.7309 -0.1959  0.8697
  741MOL0     C99937   2.466   1.801   2.849 -0.2229  0.5097 -0.1517
  741MOL0     C99938   2.314   1.801   2.846  1.0149 -0.1792 -1.1092
  741MOL0     C99939   2.254   1.855   2.979 -0.1667 -0.1620  0.1230
  741MOL0     C99940   2.285   1.773   3.105  0.2315  0.9355 -0.0730
  741MOL0     C99941   2.220   1.639   3.114  0.5928 -0.2009  0.7799
  741MOL0     C99942   2.227   1.563   3.247 -0.1810 -0.1294  0.8236
  741MOL0     C99943   2.105   1.587   3.340  0.8156  0.5041 -0.7184
  741MOL0     C99944   2.134   1.540   3.484  0.4208 -0.6486 -0.4427
  741MOL0    Cl99945   2.195   1.367   3.489 -0.1293 -0.0301  0.6295
  741MOL0     C99946   2.745   1.854   2.806  0.6712  0.3196 -1.0931
  741MOL0     C99947   2.880   1.890   2.786 -0.8623 -0.6133 -0.8076
  741MOL0     O99948   3.069   2.183   2.525  0.3225 -0.7607 -0.8488
  741MOL0     C99949   3.324   1.996   2.702 -0.2959 -0.7683 -0.6454
  741MOL0     C99950   3.464   1.982   2.720 -0.8741 -0.7975 -0.7876
  741MOL0     N99951   3.773   1.473   2.721 -0.3274 -0.3383  0.4327
  741MOL0     N99952   3.837   1.409   2.820  0.5695 -0.4489 -0.4406
  741MOL0     C99953   4.813   1.132   3.097 -0.3736  0.3283 -0.8500
  741MOL0     C99954   4.904   1.229   3.138 -0.2242  0.5554 -1.5217
  741MOL0     C99955   5.069   1.504   3.425  0.2312 -1.1288 -0.1028
  741MOL0     C99956   5.067   1.536   3.562  0.5025  0.5058 -0.2468
  741MOL0     C99957   5.161   1.610   3.630  0.6768  0.2784 -0.2164
  741MOL0     C99958   5.279   1.646   3.563  0.2975 -0.4657 -0.7647
  741MOL0     O99959   5.372   1.726   3.632 -0.0124 -0.0891  0.7323
  741MOL0     C99960   5.513   1.715   3.590 -0.1875 -0.7871  0.3632
  741MOL0     C99961   5.582   1.779   3.711 -0.6804  0.7117 -0.3989
  741MOL0     C99962   5.589   1.684   3.829  0.3692  1.0942  1.1645
  741MOL0     C99963   5.642   1.762   3.943  0.7406 -0.5150  0.1983
  741MOL0     C99964   5.686   1.655   4.032 -0.6539  0.2595  0.4452
  741MOL0     C99965   5.733   1.573   4.110  0.6469 -0.0980 -0.5411
  741MOL0     C99966   5.289   1.612   3.424  0.2795 -0.3438  0.2323
  741MOL0     C99967   5.182   1.552   3.352  1.5497 -0.2499  0.3578
  741MOL0     H99968   4.706   1.502   3.155 -0.0917  0.3479 -2.9099
  741MOL0     H99969   4.554   1.351   3.035  0.4032  1.7815 -0.1811
  741MOL0     H99970   4.671   0.901   3.025 -2.2338 -2.6033  0.9584
  741MOL0     H99971   4.595   0.963   3.174 -1.8615  1.5694  0.3174
  741MOL0     H99972   4.455   0.869   2.925 -4.4111 -6.4102  1.7316
  741MOL0     H99973   4.464   0.801   3.090 -0.9539 -1.4713 -1.4290
  741MOL0     H99974   4.278   0.900   3.140  1.9456 -1.0367  0.8975
  741MOL0     H99975   4.359   1.050   3.147 -1.1983  1.0624 -0.0653
  741MOL0     H99976   4.310   1.114   2.932  2.0407 -1.7471  1.0215
  741MOL0     H99977   4.221   0.962   2.906 -1.2811  0.5714 -0.1081
  741MOL0     H99978   4.063   1.009   3.081  1.5458 -1.3480  1.5886
  741MOL0     H99979   4.150   1.159   3.137 -3.1534  2.9447 -1.3498
  741MOL0     H99980   3.984   1.164   2.910  0.5648  0.9886 -0.3927
  741MOL0     H99981   3.962   1.232   3.072  0.6741  1.7437  1.2177
  741MOL0     H99982   4.189   1.369   3.038 -0.9679 -1.5518 -0.0025
  741MOL0     H99983   4.165   1.313   2.872  0.8964 -1.0708  0.0216
  741MOL0     H99984   4.086   1.557   2.969 -2.0848  1.6935 -1.7051
  741MOL0     H99985   3.958   1.461   3.040 -1.7855 -0.9736 -0.4271
  741MOL0     H99986   4.073   1.614   2.709  0.4617  1.2781 -1.9952
  741MOL0     H99987   3.918   1.620   2.469  0.2413 -0.1488  1.0694
  741MOL0     H99988   3.739   1.611   2.497 -0.1221 -0.7292  0.4115
  741MOL0     H99989   3.812   1.831   2.473  0.2867 -3.4718 -1.5125
  741MOL0     H99990   3.923   1.830   2.606 -0.1519  0.3947 -0.1881
  741MOL0     H99991   3.717   1.741   2.750  0.8927 -1.1303 -0.6100
  741MOL0     H99992   3.630   1.818   2.617 -0.1857 -2.2625 -1.2153
  741MOL0     H99993   3.848   1.963   2.778 -0.6792  0.8436  2.7725
  741MOL0     H99994   3.687   1.939   2.841 -0.4498  0.4982  0.1530
  741MOL0     H99995   3.562   2.241   2.518 -1.4440  1.3045  0.1428
  741MOL0     H99996   3.414   2.321   2.399 -1.3769  1.7049 -1.1001
  741MOL0     H99997   3.270   2.233   2.352  0.2381  0.5545 -0.3844
  741MOL0     H99998   3.269   2.355   2.491  2.8287  2.9115  0.5808
  741MOL0     H99999   2.844   2.199   2.653  1.5149  0.2025  1.7779
  741MOL0     H    0   2.612   2.133   2.678 -3.0615 -3.4079  1.3491
  741MOL0     H    1   2.499   1.705   2.808 -1.2869 -1.1803  2.6651
  741MOL0     H    2   2.512   1.811   2.947  0.5925 -4.5311  0.2471
  741MOL0     H    3   2.268   1.852   2.761 -0.4653 -1.5193 -1.1465
  741MOL0     H    4   2.285   1.696   2.842 -0.7940  0.2936 -1.5261
  741MOL0     H    5   2.148   1.879   2.970  0.2551  2.3338  0.8373
  741MOL0     H    6   2.304   1.952   2.986  0.7003 -0.4042 -1.9191
  741MOL0     H    7   2.391   1.751   3.091 -0.3326 -1.6342 -1.0315
  741MOL0     H    8   2.261   1.831   3.195 -1.5705  0.3284 -0.1219
  741MOL0     H    9   2.265   1.580   3.034  0.4329  0.9524 -0.1757
  741MOL0     H   10   2.116   1.660   3.090  0.1449 -4.6974 -2.5264
  741MOL0     H   11   2.220   1.459   3.216  3.2186  0.1636 -1.3606
  741MOL0     H   12   2.325   1.576   3.294  1.2350 -1.8074 -1.4598
  741MOL0     H   13   2.031   1.515   3.304  0.7246 -0.0222  0.4864
  741MOL0     H   14   2.063   1.688   3.350 -0.8088 -0.0478 -1.6395
  741MOL0     H   15   2.040   1.552   3.540  1.6820  0.0622  1.6224
  741MOL0     H   16   2.210   1.612   3.516  2.2132 -1.0412 -3.4574
  741MOL0     H   17   2.731   1.765   2.866  2.4635 -0.2974 -1.5279
  741MOL0     H   18   2.955   1.820   2.823 -0.1011  2.4599  4.5205
  741MOL0     H   19   3.262   1.919   2.746 -1.2101 -1.5570 -3.1276
  741MOL0     H   20   3.488   1.904   2.792 -0.7095 -0.0052  0.0266
  741MOL0     H   21   4.858   1.034   3.086 -0.1474  0.4559 -1.0575
  741MOL0     H   22   5.007   1.213   3.169 -0.4044  0.2634 -1.0617
  741MOL0     H   23   4.990   1.498   3.628  3.0444 -0.9803  2.0562
  741MOL0     H   24   5.158   1.634   3.736  0.4509  2.2632 -0.6343
  741MOL0     H   25   5.554   1.617   3.563 -0.2039 -0.0374 -2.6134
  741MOL0     H   26   5.522   1.779   3.503 -1.8910 -1.5098 -0.3945
  741MOL0     H   27   5.535   1.875   3.737  0.0708  0.6396  1.4193
  741MOL0     H   28   5.686   1.793   3.679 -0.4943 -0.0280 -0.1288
  741MOL0     H   29   5.650   1.601   3.792 -0.4247  0.7739  0.5214
  741MOL0     H   30   5.487   1.648   3.849 -1.2015  3.7739 -1.1193
  741MOL0     H   31   5.568   1.816   4.004  2.4035  0.7438  1.1747
  741MOL0     H   32   5.722   1.826   3.906  1.5492  0.1657  2.8921
  741MOL0     H   33   5.777   1.500   4.175  0.8983 -0.4943 -1.1406
  741MOL0     H   34   5.381   1.636   3.372  2.9180  0.1898  4.7388
  741MOL0     H   35   5.202   1.527   3.249  1.8028  2.5636 -0.3547
  742MOL0     O   36   1.574  11.335   4.185 -0.3262 -0.4545  0.0930
  742MOL0     C   37   1.605  11.293   4.297 -0.9139  0.3384 -0.5051
  742MOL0     O   38   1.516  11.267   4.395 -0.6106 -0.0942 -0.1922
  742MOL0     C   39   1.391  11.325   4.413  0.1978 -0.3806  0.0382
  742MOL0     C   40   1.287  11.244   4.465  0.0814 -0.1327 -1.5565
  742MOL0     C   41   1.170  11.308   4.504  0.7669 -0.1845  0.4872
  742MOL0     C   42   1.148  11.450   4.478 -1.1505 -0.2758 -0.4457
  742MOL0     O   43   1.035  11.526   4.515 -0.3110  0.8022  0.0884
  742MOL0     C   44   0.933  11.455   4.579  1.0074  0.1853 -0.2922
  742MOL0     C   45   0.841  11.556   4.639  0.6428 -0.2207  0.1132
  742MOL0     C   46   0.785  11.671   4.552 -0.0898 -0.5743  0.1033
  742MOL0     C   47   0.671  11.748   4.614  1.0837 -0.3278  0.1578
  742MOL0     C   48   0.583  11.829   4.518  0.0481 -0.0859 -0.2255
  742MOL0     C   49   0.508  11.755   4.403 -0.0235 -0.0247 -1.1723
  742MOL0     C   50   0.400  11.655   4.467  0.3469  0.5849  0.3937
  742MOL0     C   51   0.354  11.536   4.369  0.8234  0.3311 -1.1595
  742MOL0     N   52   0.460  11.438   4.355  0.1514  0.0321  0.6825
  742MOL0     C   53   0.472  11.378   4.228  0.0047 -0.2520 -0.4723
  742MOL0     C   54   0.557  11.275   4.253 -0.1873  0.0224  0.4677
  742MOL0     C   55   0.615  11.184   4.149  0.1721 -0.0271 -0.6033
  742MOL0     C   56   0.753  11.226   4.118  0.5758  0.7557  1.0574
  742MOL0     C   57   0.858  11.215   4.230 -0.8777  0.7447  0.2606
  742MOL0     C   58   1.004  11.227   4.179  0.1614  0.3349  0.4218
  742MOL0     O   59   1.049  11.126   4.091  0.2523 -0.1915  0.6401
  742MOL0     C   60   1.169  11.069   4.117 -0.2617  0.0467 -0.1685
  742MOL0     C   61   1.159  10.936   4.165 -0.3922 -0.2725  0.0917
  742MOL0     C   62   1.276  10.858   4.194  0.0007 -0.1634 -0.9088
  742MOL0     C   63   1.264  10.728   4.262  0.3924  0.3147  0.2541
  742MOL0     C   64   1.403  10.912   4.163  0.1462 -0.0854 -0.4619
  742MOL0     C   65   1.531  10.836   4.175 -0.1593 -0.1109  0.2373
  742MOL0     O   66   1.638  10.883   4.096  0.2877 -0.2919  0.3951
  742MOL0     C   67   1.769  10.841   4.116  0.0032  0.5356 -0.4907
  742MOL0     C   68   1.805  10.711   4.068 -0.3847  0.1387  0.0328
  742MOL0     C   69   1.937  10.664   4.059  0.3293 -0.2736 -0.4494
  742MOL0     C   70   2.035  10.756   4.101  0.0015 -0.2762 -0.1820
  742MOL0     O   71   2.160  10.716   4.087 -0.0898 -1.2184  0.0966
  742MOL0     C   72   2.243  10.804   4.007 -0.9850 -0.1929 -0.0539
  742MOL0     C   73   2.350  10.731   3.925  0.1049  0.1508  0.8593
  742MOL0     C   74   2.446  10.832   3.874 -0.2901  0.9270  0.8899
  742MOL0     C   75   2.570  10.760   3.813  0.6845  0.2922 -0.9647
  742MOL0     C   76   2.628  10.833   3.695 -0.4101 -0.8865  0.1192
  742MOL0     C   77   2.546  10.819   3.565 -0.7605  0.1970 -0.2717
  742MOL0     C   78   2.604  10.912   3.453 -0.4187 -1.0248 -0.3483
  742MOL0     C   79   2.521  10.910   3.323  1.0611  0.0082  1.1450
  742MOL0    Cl   80   2.446  10.753   3.268  0.0079  0.0276  0.3258
  742MOL0     C   81   2.005  10.884   4.145 -0.1446 -0.7894 -0.1017
  742MOL0     C   82   1.872  10.928   4.152 -0.7185  0.1261  0.7582
  742MOL0     O   83   1.539  10.747   4.255 -0.2385 -0.5369  0.2626
  742MOL0     C   84   1.416  11.046   4.131  0.5427 -0.7119 -0.5917
  742MOL0     C   85   1.304  11.124   4.102  0.3317  0.3379  0.4395
  742MOL0     N   86   0.588  11.265   4.388 -0.1142 -0.2894 -0.0255
  742MOL0     N   87   0.536  11.370   4.443  0.0774 -0.1652  0.3847
  742MOL0     C   88   1.245  11.521   4.415 -0.7765 -0.7182  0.3274
  742MOL0     C   89   1.366  11.458   4.393  1.1022  0.5130  0.5460
  742MOL0     C   90   1.750  11.266   4.325  0.6649  0.5959 -0.8243
  742MOL0     C   91   1.787  11.260   4.459  0.5432  0.7453  0.4121
  742MOL0     C   92   1.925  11.273   4.497  0.4349  0.4037  0.0834
  742MOL0     C   93   2.025  11.269   4.401  0.0080 -0.7259 -0.6432
  742MOL0     O   94   2.152  11.290   4.444 -0.5692  0.1250  0.1610
  742MOL0     C   95   2.247  11.331   4.346  1.1699  0.1350 -0.5853
  742MOL0     C   96   2.364  11.388   4.419  0.6330  0.1594 -0.0207
  742MOL0     C   97   2.465  11.291   4.475  0.1903 -0.5277 -0.1309
  742MOL0     C   98   2.605  11.341   4.477  0.2263 -0.2960 -1.2219
  742MOL0     C   99   2.693  11.238   4.541  0.2399  0.3686 -1.5522
  742MOL0     C  100   2.748  11.157   4.613 -0.7629  0.6360  0.2159
  742MOL0     C  101   1.982  11.268   4.266  0.2850 -0.5639 -0.3731
  742MOL0     C  102   1.851  11.274   4.230  0.2058  0.6871  0.4622
  742MOL0     H  103   1.302  11.140   4.489 -3.0988 -0.3157  0.1029
  742MOL0     H  104   1.088  11.255   4.551  1.2450  0.2313  1.8530
  742MOL0     H  105   0.879  11.389   4.510 -2.2997  1.9550  0.3988
  742MOL0     H  106   0.973  11.404   4.666 -0.6851  3.5522  2.7229
  742MOL0     H  107   0.749  11.507   4.675  1.4244 -1.1902  0.8421
  742MOL0     H  108   0.889  11.602   4.726  1.8163 -3.3656  1.2477
  742MOL0     H  109   0.856  11.749   4.523  0.0982 -1.1289 -1.0025
  742MOL0     H  110   0.742  11.629   4.461 -1.0566 -0.6056  0.5621
  742MOL0     H  111   0.597  11.681   4.658 -1.8801  1.1939 -2.1864
  742MOL0     H  112   0.719  11.795   4.701 -1.5383 -1.3884  2.3314
  742MOL0     H  113   0.504  11.885   4.568  1.0648  1.3293 -0.1605
  742MOL0     H  114   0.648  11.901   4.468 -0.6859  1.0725  0.4523
  742MOL0     H  115   0.453  11.827   4.341  0.5922  1.2483 -0.2865
  742MOL0     H  116   0.566  11.696   4.331  0.6474 -1.6722  0.6227
  742MOL0     H  117   0.428  11.613   4.564  1.2522 -1.5942 -0.7414
  742MOL0     H  118   0.318  11.723   4.492 -1.9432 -2.6856  2.7213
  742MOL0     H  119   0.326  11.580   4.273  2.1788  2.2045 -0.7638
  742MOL0     H  120   0.264  11.489   4.409 -1.0625  1.0061 -4.2150
  742MOL0     H  121   0.444  11.406   4.127  1.0251  1.5677 -0.2976
  742MOL0     H  122   0.619  11.089   4.203 -3.2102  1.5096  2.8355
  742MOL0     H  123   0.554  11.186   4.058  0.5895  2.7755 -0.9169
  742MOL0     H  124   0.743  11.323   4.068 -2.2264 -0.6054 -1.3234
  742MOL0     H  125   0.797  11.154   4.049  1.2867  1.5733  0.6412
  742MOL0     H  126   0.858  11.118   4.281 -0.5246  0.2656 -0.6338
  742MOL0     H  127   0.843  11.292   4.307  2.1021 -0.0962  1.8342
  742MOL0     H  128   1.075  11.238   4.262  2.0012 -2.0716 -0.6966
  742MOL0     H  129   0.999  11.321   4.124  0.0471 -0.5069 -1.0403
  742MOL0     H  130   1.062  10.886   4.166  0.5397 -2.1550  1.6816
  742MOL0     H  131   1.327  10.735   4.351  1.6795  2.9449 -0.7324
  742MOL0     H  132   1.161  10.726   4.298  0.3473 -0.8720  0.0712
  742MOL0     H  133   1.282  10.649   4.189 -3.5355 -0.4210 -0.1071
  742MOL0     H  134   1.726  10.646   4.032  0.3927 -0.0983 -1.3013
  742MOL0     H  135   1.972  10.567   4.025  1.1818 -0.4007  0.7326
  742MOL0     H  136   2.185  10.874   3.945 -1.0761 -0.1009  0.1350
  742MOL0     H  137   2.297  10.861   4.084 -0.3156 -0.6804 -0.1562
  742MOL0     H  138   2.405  10.654   3.979  2.3672 -0.1968 -1.6965
  742MOL0     H  139   2.304  10.681   3.839  2.3433  2.9130 -2.1853
  742MOL0     H  140   2.479  10.891   3.960  0.2926  0.9502  0.6565
  742MOL0     H  141   2.400  10.894   3.797 -1.4102 -0.5736  0.2984
  742MOL0     H  142   2.650  10.750   3.888  0.1215  2.1818 -0.0652
  742MOL0     H  143   2.555  10.660   3.771  2.6327  0.8799 -3.3121
  742MOL0     H  144   2.730  10.802   3.671  1.3057  2.4798  2.2652
  742MOL0     H  145   2.632  10.940   3.717  0.5679 -0.0153 -3.5415
  742MOL0     H  146   2.560  10.718   3.526  2.9116  1.0630 -1.5685
  742MOL0     H  147   2.442  10.840   3.594 -0.4311 -1.7130  2.6658
  742MOL0     H  148   2.704  10.876   3.425 -1.3391 -0.9795 -4.3192
  742MOL0     H  149   2.609  11.007   3.507  2.0082 -1.1534 -0.2503
  742MOL0     H  150   2.577  10.952   3.240 -1.6351 -0.3200 -0.9660
  742MOL0     H  151   2.443  10.986   3.337 -0.7067 -1.8131  1.6568
  742MOL0     H  152   2.081  10.958   4.167 -0.9257 -0.3686  1.3062
  742MOL0     H  153   1.842  11.029   4.178 -1.2949 -0.1657  1.2559
  742MOL0     H  154   1.510  11.099   4.126 -1.8198  3.9468 -1.2350
  742MOL0     H  155   1.325  11.224   4.065 -2.5844  0.6880 -0.4948
  742MOL0     H  156   1.235  11.620   4.372  4.5065  1.0077  2.2361
  742MOL0     H  157   1.437  11.523   4.343 -0.1028  1.3370 -0.1311
  742MOL0     H  158   1.713  11.243   4.536 -0.3468 -0.2561 -0.6311
  742MOL0     H  159   1.941  11.267   4.604 -0.0120  2.7297  0.3246
  742MOL0     H  160   2.286  11.245   4.291  0.0250 -1.9871  1.6485
  742MOL0     H  161   2.200  11.413   4.292 -2.1046  0.1774  1.9669
  742MOL0     H  162   2.332  11.449   4.504  2.3648 -0.6530  1.2827
  742MOL0     H  163   2.415  11.448   4.343 -0.4348  0.9931 -0.1092
  742MOL0     H  164   2.479  11.210   4.402  0.0171 -2.9094  2.3142
  742MOL0     H  165   2.438  11.241   4.568 -2.9502 -0.8588 -1.0976
  742MOL0     H  166   2.621  11.433   4.535 -2.4381 -0.8631  0.5863
  742MOL0     H  167   2.643  11.362   4.377 -0.7928  1.5659 -1.2635
  742MOL0     H  168   2.813  11.083   4.655  0.1357  0.5158 -1.2827
  742MOL0     H  169   2.060  11.260   4.191  0.8290  2.0717 -0.2042
  742MOL0     H  170   1.825  11.275   4.125  0.6831 -0.5238  0.3248
  743MOL0     O  171   1.336   9.125   3.358  0.4414  0.3141  0.3717
  743MOL0     C  172   1.337   9.208   3.447  0.0298  0.1729  0.0064
  743MOL0     O  173   1.229   9.255   3.524  0.2031  0.1751  0.2919
  743MOL0     C  174   1.146   9.158   3.576 -0.0067 -0.1784 -1.5847
  743MOL0     C  175   1.169   9.019   3.582 -0.2086 -0.3811  0.2330
  743MOL0     C  176   1.077   8.936   3.643  0.1524 -0.3827 -0.0742
  743MOL0     C  177   0.953   8.980   3.692 -1.2619  0.5071  0.2215
  743MOL0     O  178   0.868   8.905   3.760 -0.2953 -0.4335 -0.6572
  743MOL0     C  179   0.853   8.762   3.736 -0.2197 -0.0981 -0.7017
  743MOL0     C  180   0.715   8.731   3.790  0.8776  0.3178 -0.1392
  743MOL0     C  181   0.677   8.587   3.735  0.3508  0.6006  0.4522
  743MOL0     C  182   0.577   8.502   3.820 -0.1668  0.1411 -0.5580
  743MOL0     C  183   0.443   8.576   3.831  0.4552  0.2297 -0.0205
  743MOL0     C  184   0.330   8.479   3.880  0.4766 -0.3113  0.2703
  743MOL0     C  185   0.188   8.531   3.866 -0.8552 -0.5805  0.3140
  743MOL0     C  186   0.092   8.413   3.889 -0.5289 -0.9441  0.4017
  743MOL0     N  187  -0.044   8.456   3.930 -0.3702  0.6845 -0.2393
  743MOL0     C  188  -0.151   8.483   3.852  0.0855  1.1784  0.8953
  743MOL0     C  189  -0.251   8.522   3.929  0.2030 -0.3452  0.3966
  743MOL0     C  190  -0.384   8.571   3.888  0.8538 -1.2687  0.4258
  743MOL0     C  191  -0.373   8.683   3.783 -0.0947 -0.4440  0.4634
  743MOL0     C  192  -0.487   8.783   3.787  0.4533  0.0076  1.4349
  743MOL0     C  193  -0.615   8.707   3.776  0.5143 -1.0950 -0.4573
  743MOL0     O  194  -0.655   8.653   3.911  0.0258  0.2258 -0.5755
  743MOL0     C  195  -0.774   8.595   3.906 -0.2566 -0.4209 -0.7867
  743MOL0     C  196  -0.788   8.457   3.909 -0.1555  0.3047 -0.4383
  743MOL0     C  197  -0.910   8.394   3.921  0.1750 -0.6181 -0.6581
  743MOL0     C  198  -0.899   8.246   3.896 -0.0324 -0.9169  1.0468
  743MOL0     C  199  -1.026   8.475   3.943  0.7616 -0.0283  0.3370
  743MOL0     C  200  -1.169   8.427   3.967 -0.3208  0.1530  0.1553
  743MOL0     O  201  -1.204   8.292   3.937 -0.3007  0.3093  0.3032
  743MOL0     C  202  -1.340   8.264   3.920  1.0018 -0.2831 -0.2554
  743MOL0     C  203  -1.425   8.243   4.034 -0.3087 -0.2836  0.4281
  743MOL0     C  204  -1.563   8.217   4.007 -0.4721 -0.2255 -0.4139
  743MOL0     C  205  -1.615   8.204   3.877  0.5472  0.3416 -0.2386
  743MOL0     O  206  -1.742   8.182   3.851  0.6094 -0.3840 -0.5862
  743MOL0     C  207  -1.803   8.074   3.915 -0.0901  0.2820  0.4963
  743MOL0     C  208  -1.896   8.133   4.019  0.3011 -0.3419 -0.1011
  743MOL0     C  209  -1.960   8.038   4.127 -0.1578 -1.2803  1.0058
  743MOL0     C  210  -2.069   7.937   4.063 -0.2326  0.0201 -0.6201
  743MOL0     C  211  -2.206   7.944   4.133 -0.1331  0.2401  0.2156
  743MOL0     C  212  -2.305   7.863   4.057  0.2486 -0.6971  0.2250
  743MOL0     C  213  -2.431   7.847   4.140  0.1949 -0.4961  0.3903
  743MOL0     C  214  -2.549   7.952   4.106 -0.7233  0.1482 -0.3845
  743MOL0    Cl  215  -2.714   7.871   4.108  0.4854  0.2353  0.0233
  743MOL0     C  216  -1.527   8.235   3.770  0.3279  0.6642 -0.2585
  743MOL0     C  217  -1.396   8.261   3.788 -0.3337  0.0870 -0.6415
  743MOL0     O  218  -1.256   8.510   3.996  0.1692  0.5688  0.0822
  743MOL0     C  219  -1.007   8.618   3.936  0.4372  1.0296  0.6061
  743MOL0     C  220  -0.885   8.676   3.910  0.2043  0.6371  0.5488
  743MOL0     N  221  -0.211   8.491   4.059  0.8221  0.3082 -0.0240
  743MOL0     N  222  -0.087   8.461   4.061 -0.8694  0.4815 -0.0124
  743MOL0     C  223   0.928   9.117   3.695 -0.2840  0.2584  0.6186
  743MOL0     C  224   1.022   9.210   3.636  0.0580  0.0275  0.1661
  743MOL0     C  225   1.472   9.270   3.460 -0.1315 -0.5671 -0.3922
  743MOL0     C  226   1.567   9.242   3.368  0.6401 -0.5355 -0.4951
  743MOL0     C  227   1.696   9.275   3.397  0.1286  0.9022  0.9554
  743MOL0     C  228   1.731   9.344   3.516  0.6549 -0.2667  0.0744
  743MOL0     O  229   1.853   9.389   3.545 -0.6071 -0.9072  0.7411
  743MOL0     C  230   1.965   9.320   3.496  0.0585 -0.8797 -0.0646
  743MOL0     C  231   2.110   9.368   3.546 -0.6710 -0.2581  0.2586
  743MOL0     C  232   2.168   9.466   3.449  0.0820  0.1004 -0.2854
  743MOL0     C  233   2.297   9.528   3.498 -0.5688  0.0790 -0.1359
  743MOL0     C  234   2.409   9.433   3.502 -0.0077 -0.6820  0.2389
  743MOL0     C  235   2.504   9.369   3.512 -0.5097  0.2685  0.8211
  743MOL0     C  236   1.630   9.381   3.606 -0.6104  0.4164  1.0283
  743MOL0     C  237   1.498   9.344   3.579 -0.2489 -0.0461 -0.1310
  743MOL0     H  238   1.267   8.979   3.559  0.9940 -0.9877  5.1820
  743MOL0     H  239   1.110   8.833   3.652  1.4904 -0.0071 -0.5874
  743MOL0     H  240   0.858   8.744   3.628 -1.2075  0.4437 -0.8498
  743MOL0     H  241   0.934   8.711   3.790 -0.3642 -1.0163 -1.3380
  743MOL0     H  242   0.713   8.723   3.899 -0.3985  1.0782 -0.0839
  743MOL0     H  243   0.632   8.799   3.771 -2.0421 -3.2552 -1.4045
  743MOL0     H  244   0.635   8.587   3.634  0.3258 -1.8101  0.3951
  743MOL0     H  245   0.761   8.518   3.727  0.6281  0.8492  1.1453
  743MOL0     H  246   0.574   8.407   3.767  1.4627 -0.5249  0.4395
  743MOL0     H  247   0.614   8.473   3.919 -1.7745  1.5332  0.5055
  743MOL0     H  248   0.447   8.669   3.888  1.4306  0.9865 -1.2603
  743MOL0     H  249   0.409   8.598   3.730  1.5629 -0.3908 -0.5546
  743MOL0     H  250   0.330   8.390   3.817  0.4462 -0.1503  0.0379
  743MOL0     H  251   0.352   8.452   3.983 -2.3038 -2.0593  0.5040
  743MOL0     H  252   0.174   8.611   3.939  1.8343  0.8622 -0.6377
  743MOL0     H  253   0.167   8.576   3.769  1.0697  0.2555  0.2408
  743MOL0     H  254   0.123   8.347   3.970 -4.0584 -0.8308  2.0363
  743MOL0     H  255   0.093   8.337   3.810  0.2003 -2.6600  1.9859
  743MOL0     H  256  -0.144   8.493   3.744 -0.9707  0.4639  0.7483
  743MOL0     H  257  -0.443   8.491   3.843  0.3748  1.5167 -4.7634
  743MOL0     H  258  -0.417   8.619   3.980  1.4296 -0.5375  0.2645
  743MOL0     H  259  -0.374   8.637   3.684 -3.5593 -1.4374  0.8200
  743MOL0     H  260  -0.284   8.745   3.795 -0.5273  0.8223 -2.2005
  743MOL0     H  261  -0.466   8.844   3.699 -1.9360 -0.1091  0.6996
  743MOL0     H  262  -0.474   8.834   3.883  3.0876  1.5316  0.3642
  743MOL0     H  263  -0.613   8.627   3.702  1.7653 -0.2489 -1.3827
  743MOL0     H  264  -0.690   8.780   3.745 -0.7719 -0.5597  3.3712
  743MOL0     H  265  -0.695   8.406   3.889  0.3157  0.0633  2.0799
  743MOL0     H  266  -0.806   8.219   3.844 -0.0534  1.4601 -0.3421
  743MOL0     H  267  -0.900   8.187   3.988 -0.5390 -1.2485  0.8356
  743MOL0     H  268  -0.983   8.212   3.835  0.4778 -0.3931  0.0244
  743MOL0     H  269  -1.387   8.262   4.134  0.5067 -1.2899  0.3303
  743MOL0     H  270  -1.632   8.198   4.089  0.6874 -0.7548  0.4699
  743MOL0     H  271  -1.849   8.020   3.832  0.7141  1.0294 -0.4725
  743MOL0     H  272  -1.733   8.006   3.965 -0.3944 -0.3073  0.1362
  743MOL0     H  273  -1.839   8.203   4.081 -0.2989 -0.7303  0.9065
  743MOL0     H  274  -1.980   8.179   3.966  1.7726  0.5270 -1.7949
  743MOL0     H  275  -2.009   8.092   4.208 -0.6863 -2.1347  1.2672
  743MOL0     H  276  -1.879   7.982   4.175 -0.0836 -1.2463  0.9210
  743MOL0     H  277  -2.076   7.953   3.955 -0.7920  1.1386 -0.4316
  743MOL0     H  278  -2.036   7.833   4.073  0.0536  0.2575  1.5479
  743MOL0     H  279  -2.238   8.048   4.130 -0.5230  0.0973 -1.1577
  743MOL0     H  280  -2.197   7.910   4.236 -2.4284  1.9569  1.0860
  743MOL0     H  281  -2.314   7.907   3.957 -2.1969  0.2458  0.7956
  743MOL0     H  282  -2.261   7.763   4.047  1.7417 -0.0725  0.3155
  743MOL0     H  283  -2.398   7.859   4.244  1.9778  0.0285 -0.2085
  743MOL0     H  284  -2.475   7.751   4.112 -1.2898  0.1566  0.3820
  743MOL0     H  285  -2.546   7.970   3.998 -0.4725 -0.7634 -0.5372
  743MOL0     H  286  -2.548   8.044   4.166 -1.6508  1.8233 -2.7781
  743MOL0     H  287  -1.563   8.223   3.668 -1.6547 -1.7729  0.6028
  743MOL0     H  288  -1.335   8.275   3.699 -3.3539 -1.1917 -3.0817
  743MOL0     H  289  -1.090   8.685   3.956 -2.0385 -1.9338  0.9658
  743MOL0     H  290  -0.888   8.785   3.902 -1.0648  0.9383  3.5589
  743MOL0     H  291   0.829   9.148   3.726 -1.1845  0.2766 -2.0824
  743MOL0     H  292   0.991   9.313   3.624 -2.5136 -0.2742  2.9509
  743MOL0     H  293   1.539   9.185   3.279  0.5097 -1.2828  0.0095
  743MOL0     H  294   1.768   9.262   3.317 -0.5562 -1.0146  0.6014
  743MOL0     H  295   1.962   9.213   3.518 -1.1786 -1.1049 -1.1931
  743MOL0     H  296   1.953   9.342   3.389  0.2128  2.3780  0.4728
  743MOL0     H  297   2.180   9.286   3.563  1.1911  1.0289 -0.8554
  743MOL0     H  298   2.094   9.431   3.633  0.5893  0.1011  0.2544
  743MOL0     H  299   2.096   9.548   3.439 -3.2497 -2.7766 -2.5883
  743MOL0     H  300   2.178   9.435   3.345  1.5155 -2.0606  0.4247
  743MOL0     H  301   2.287   9.567   3.600 -0.2415  1.8003 -0.7164
  743MOL0     H  302   2.320   9.615   3.435  1.6245  0.0132  0.4864
  743MOL0     H  303   2.601   9.323   3.516 -0.3006  0.7640  1.7681
  743MOL0     H  304   1.651   9.424   3.703  1.0583  2.3397 -0.1000
  743MOL0     H  305   1.429   9.379   3.655 -1.2285  2.8289 -2.1595
  744MOL0     O  306   6.192   8.793   8.934  0.2893 -0.0278  0.0501
  744MOL0     C  307   6.286   8.774   8.855 -1.1229  0.4875 -0.2503
  744MOL0     O  308   6.279   8.714   8.728 -0.7684 -0.7715 -0.8954
  744MOL0     C  309   6.164   8.681   8.678  0.1465 -0.1341  0.0905
  744MOL0     C  310   6.038   8.745   8.696 -0.1556 -0.7548  0.2828
  744MOL0     C  311   5.921   8.686   8.645 -0.1999  0.1605  0.3209
  744MOL0     C  312   5.924   8.560   8.580 -0.2106  0.8602  0.0360
  744MOL0     O  313   5.816   8.511   8.525 -0.2999  0.2466 -0.1213
  744MOL0     C  314   5.788   8.379   8.567 -0.1660 -0.0876  0.0982
  744MOL0     C  315   5.757   8.374   8.711 -0.4968  0.0704 -0.4456
  744MOL0     C  316   5.628   8.448   8.758  0.7400  0.4023  0.6173
  744MOL0     C  317   5.607   8.432   8.906  0.7974  0.6314 -0.2148
  744MOL0     C  318   5.471   8.502   8.936 -0.1186  0.1354  0.4754
  744MOL0     C  319   5.405   8.461   9.067 -0.1952  0.3441 -0.4259
  744MOL0     C  320   5.260   8.515   9.079  0.0144 -0.5358  0.0464
  744MOL0     C  321   5.242   8.572   9.208  0.3397  0.3292  0.5728
  744MOL0     N  322   5.216   8.476   9.316 -0.6451 -0.1806  0.7084
  744MOL0     C  323   5.096   8.406   9.334 -0.4677  0.1024 -0.7144
  744MOL0     C  324   5.123   8.327   9.447 -0.1463 -0.6237  0.6703
  744MOL0     C  325   5.015   8.228   9.506 -0.7430 -0.1799  0.0534
  744MOL0     C  326   4.996   8.286   9.644 -0.4841  0.1261 -0.3263
  744MOL0     C  327   4.908   8.188   9.726 -0.4571  0.5862 -0.1975
  744MOL0     C  328   4.760   8.164   9.670 -0.4349 -0.4615  0.8518
  744MOL0     O  329   4.729   8.040   9.722  0.3262  0.7184  0.1082
  744MOL0     C  330   4.600   7.990   9.696  0.0193  1.1095  0.5218
  744MOL0     C  331   4.483   8.069   9.671  0.0201  0.2466  0.2729
  744MOL0     C  332   4.355   8.012   9.662  0.1380  0.5793 -0.7254
  744MOL0     C  333   4.240   8.114   9.651 -0.1764 -0.1106 -0.2182
  744MOL0     C  334   4.339   7.868   9.679  0.7978  0.4677  0.2887
  744MOL0     C  335   4.213   7.796   9.672 -0.2142  0.1393  0.0317
  744MOL0     O  336   4.230   7.664   9.624 -0.0771 -0.0814  0.6985
  744MOL0     C  337   4.127   7.590   9.580 -0.5328 -0.0001 -0.2476
  744MOL0     C  338   4.156   7.464   9.548 -0.3733  0.1191 -0.2963
  744MOL0     C  339   4.061   7.381   9.486  0.6417 -0.5141  0.1074
  744MOL0     C  340   3.932   7.424   9.462  0.5570  0.0844 -0.4251
  744MOL0     O  341   3.839   7.337   9.402 -0.0944  0.6713  0.1135
  744MOL0     C  342   3.712   7.382   9.357  0.6270  0.1541  0.0678
  744MOL0     C  343   3.608   7.376   9.470 -0.8370  0.2611  0.4109
  744MOL0     C  344   3.573   7.226   9.499 -0.0982 -0.0943  0.1507
  744MOL0     C  345   3.443   7.224   9.571 -0.5410 -0.2183 -0.2929
  744MOL0     C  346   3.388   7.085   9.587  0.4998 -0.4365  0.2385
  744MOL0     C  347   3.249   7.081   9.658 -0.0606  0.1345 -0.3793
  744MOL0     C  348   3.191   6.940   9.662 -0.4466 -0.2012  0.5923
  744MOL0     C  349   3.214   6.867   9.797 -0.9027 -0.2030  0.2632
  744MOL0    Cl  350   3.124   6.956   9.924  0.1777 -0.0220  0.3186
  744MOL0     C  351   3.901   7.560   9.479  0.4416  0.0404  0.2307
  744MOL0     C  352   4.002   7.641   9.539  0.4506 -0.0433 -0.0995
  744MOL0     O  353   4.116   7.847   9.720  0.0760 -0.1909  0.8595
  744MOL0     C  354   4.449   7.786   9.715  0.9725 -1.1617 -0.4055
  744MOL0     C  355   4.572   7.855   9.728  0.4444 -0.1684 -1.0106
  744MOL0     N  356   5.257   8.341   9.484  0.1508  0.0746  0.1796
  744MOL0     N  357   5.305   8.428   9.404  0.3842  0.7579 -0.5208
  744MOL0     C  358   6.044   8.496   8.564 -0.8077  0.7115 -0.4674
  744MOL0     C  359   6.162   8.558   8.615  0.4952  0.4789  0.8388
  744MOL0     C  360   6.419   8.830   8.901  0.4447  0.0497 -0.0947
  744MOL0     C  361   6.519   8.865   8.810 -0.6154  0.1902  1.3816
  744MOL0     C  362   6.648   8.911   8.849  0.4900 -0.6157 -1.4316
  744MOL0     C  363   6.677   8.906   8.989  0.7025  0.5275  0.4038
  744MOL0     O  364   6.802   8.955   9.026  0.8576  0.0040  0.0706
  744MOL0     C  365   6.842   8.952   9.166 -0.7139 -1.1071  1.0913
  744MOL0     C  366   6.786   9.077   9.234 -0.6166  0.5511 -0.1723
  744MOL0     C  367   6.850   9.200   9.177 -0.1647 -0.1884 -0.3670
  744MOL0     C  368   6.844   9.343   9.259 -0.2577  0.2690 -0.0421
  744MOL0     C  369   6.709   9.384   9.286  0.3527  0.2229 -0.0133
  744MOL0     C  370   6.594   9.415   9.322  0.1413  1.1165 -0.0651
  744MOL0     C  371   6.577   8.852   9.080 -0.6434  0.8510  0.2727
  744MOL0     C  372   6.443   8.819   9.041  0.2650  0.4780  0.5009
  744MOL0     H  373   6.021   8.840   8.746 -1.2462 -0.4682 -0.5971
  744MOL0     H  374   5.824   8.735   8.642  0.2276  1.0525 -2.7367
  744MOL0     H  375   5.704   8.355   8.501  1.1001  0.1493 -1.6828
  744MOL0     H  376   5.866   8.310   8.534  3.0548  4.3550 -2.6997
  744MOL0     H  377   5.740   8.267   8.730  0.9311 -0.0894  0.0109
  744MOL0     H  378   5.838   8.407   8.777 -2.6100  2.6006  1.1055
  744MOL0     H  379   5.630   8.556   8.739 -2.5525  0.0009 -3.2632
  744MOL0     H  380   5.548   8.400   8.702 -0.2033  3.8694 -1.3015
  744MOL0     H  381   5.600   8.327   8.938  2.1797 -0.4016 -2.9833
  744MOL0     H  382   5.690   8.474   8.964  2.3160 -1.3638 -0.8372
  744MOL0     H  383   5.484   8.610   8.921 -3.8418  0.5442 -1.1902
  744MOL0     H  384   5.400   8.480   8.856  1.4692  0.6221 -1.1202
  744MOL0     H  385   5.390   8.353   9.070 -1.9450  0.5808  0.2476
  744MOL0     H  386   5.474   8.482   9.149  0.1412  1.6900 -1.0285
  744MOL0     H  387   5.246   8.593   9.003 -3.5402 -0.3375  0.7152
  744MOL0     H  388   5.185   8.438   9.055 -1.8171  1.8621 -2.6469
  744MOL0     H  389   5.149   8.629   9.216  0.4409  0.6134 -0.2491
  744MOL0     H  390   5.327   8.639   9.223 -0.2130  0.3395  5.5345
  744MOL0     H  391   5.004   8.409   9.277 -0.1271 -0.0392 -1.2759
  744MOL0     H  392   4.924   8.237   9.446  0.4882  0.2016 -1.8415
  744MOL0     H  393   5.059   8.128   9.506  4.0722  1.6733  0.4104
  744MOL0     H  394   4.957   8.388   9.641  0.0999  0.3596  0.0592
  744MOL0     H  395   5.089   8.287   9.700 -0.1975 -2.0359 -0.6606
  744MOL0     H  396   4.907   8.232   9.826 -1.5617  3.0053 -1.1753
  744MOL0     H  397   4.959   8.092   9.733 -0.5844  0.6364  2.1364
  744MOL0     H  398   4.750   8.168   9.561  3.7181  4.9207  0.2451
  744MOL0     H  399   4.699   8.244   9.713  0.9810  0.9880  0.2585
  744MOL0     H  400   4.493   8.176   9.654 -0.2712  0.0980 -0.9665
  744MOL0     H  401   4.270   8.219   9.657  0.1952 -0.2678  1.3093
  744MOL0     H  402   4.187   8.088   9.559 -0.7019 -3.2395  0.8473
  744MOL0     H  403   4.165   8.101   9.730 -0.1366  1.9369  0.2176
  744MOL0     H  404   4.259   7.438   9.573 -1.1681 -0.9420  2.2178
  744MOL0     H  405   4.092   7.279   9.466  1.4401 -0.3550  0.4976
  744MOL0     H  406   3.710   7.481   9.310 -0.8955  0.1929  0.1821
  744MOL0     H  407   3.680   7.318   9.275  1.3638  1.5155 -1.3260
  744MOL0     H  408   3.648   7.426   9.558  0.2341 -0.2683  0.2393
  744MOL0     H  409   3.515   7.420   9.433 -0.0277  0.4049 -1.5919
  744MOL0     H  410   3.650   7.183   9.564 -1.1541  1.2628  2.4414
  744MOL0     H  411   3.563   7.163   9.411 -0.6532 -0.0456  0.1753
  744MOL0     H  412   3.462   7.271   9.669 -0.5307 -1.0241  0.1024
  744MOL0     H  413   3.374   7.286   9.513  1.6335  0.2550 -2.5066
  744MOL0     H  414   3.464   7.035   9.646  2.9472  0.4139 -2.0012
  744MOL0     H  415   3.379   7.041   9.487 -1.1543 -2.8749  1.3554
  744MOL0     H  416   3.259   7.117   9.761  0.5512  1.2448 -0.8058
  744MOL0     H  417   3.169   7.146   9.620 -0.3582  1.2931  2.0564
  744MOL0     H  418   3.239   6.882   9.582  4.0489  2.3134  1.1791
  744MOL0     H  419   3.087   6.954   9.629  0.7062  1.5731 -2.8128
  744MOL0     H  420   3.321   6.863   9.819 -0.6957 -0.5768 -0.7203
  744MOL0     H  421   3.171   6.766   9.802 -3.7003  0.9404  1.2553
  744MOL0     H  422   3.800   7.594   9.455  0.3670  0.3522  0.9365
  744MOL0     H  423   3.984   7.746   9.557 -2.9395 -0.1571 -1.8988
  744MOL0     H  424   4.437   7.683   9.746 -2.4932 -1.4135 -2.0595
  744MOL0     H  425   4.644   7.777   9.746 -0.0869 -0.5770 -0.6203
  744MOL0     H  426   6.052   8.400   8.514 -0.7208  1.9935 -3.0834
  744MOL0     H  427   6.263   8.521   8.601  0.0401  0.1744 -2.5713
  744MOL0     H  428   6.489   8.879   8.707 -2.7387 -0.5296  1.8601
  744MOL0     H  429   6.716   8.954   8.777 -1.8952  3.3724 -1.6022
  744MOL0     H  430   6.803   8.870   9.228 -0.9260 -1.2158  0.8187
  744MOL0     H  431   6.950   8.960   9.176 -0.6068  1.1752 -0.9219
  744MOL0     H  432   6.811   9.080   9.340  1.2614  0.3600 -0.5701
  744MOL0     H  433   6.680   9.087   9.211 -1.1131 -1.0887  1.2180
  744MOL0     H  434   6.815   9.205   9.073  0.5439  0.1947 -0.5958
  744MOL0     H  435   6.958   9.189   9.171  0.5327  3.0874  2.7227
  744MOL0     H  436   6.906   9.406   9.195  2.3097 -3.8919 -2.0644
  744MOL0     H  437   6.896   9.331   9.355  3.6779  2.6424 -1.6273
  744MOL0     H  438   6.502   9.460   9.355 -0.3973  1.3911 -1.8132
  744MOL0     H  439   6.590   8.851   9.188 -2.7435  3.6697  0.6581
  744MOL0     H  440   6.369   8.788   9.114  1.7075 -0.9241  1.4434
  745MOL0     O  441   3.989   5.249   5.401 -0.3055 -0.4567  0.1762
  745MOL0     C  442   3.930   5.194   5.302  0.4481 -0.6933  0.3612
  745MOL0     O  443   3.996   5.148   5.189 -0.2139  0.2763  0.2159
  745MOL0     C  444   4.134   5.137   5.179  1.1386 -1.2784  0.3269
  745MOL0     C  445   4.235   5.163   5.268 -0.2485 -0.3075 -0.0465
  745MOL0     C  446   4.366   5.141   5.231 -0.1704  0.4276 -0.4009
  745MOL0     C  447   4.402   5.092   5.105 -0.0490 -1.0468  0.3210
  745MOL0     O  448   4.530   5.057   5.070  0.1683 -0.7843 -0.2092
  745MOL0     C  449   4.631   5.026   5.168 -0.3513 -0.0534 -0.3217
  745MOL0     C  450   4.758   4.989   5.108  0.2343 -0.6123  0.7941
  745MOL0     C  451   4.856   4.947   5.211  0.7358 -0.1537 -0.0245
  745MOL0     C  452   4.987   4.974   5.133 -0.9215 -0.5201  0.2518
  745MOL0     C  453   5.109   4.966   5.222 -0.2741 -0.0139  0.3018
  745MOL0     C  454   5.138   4.825   5.277 -0.4163  0.0150  0.1178
  745MOL0     C  455   5.182   4.716   5.176 -0.1795 -0.4700  0.4495
  745MOL0     C  456   5.265   4.771   5.057  0.6735 -0.2607 -0.3006
  745MOL0     N  457   5.260   4.677   4.940 -0.2886  0.1425  0.8580
  745MOL0     C  458   5.192   4.703   4.822  0.0313 -0.4601 -0.1023
  745MOL0     C  459   5.197   4.586   4.745 -0.0400 -0.5621 -0.7441
  745MOL0     C  460   5.120   4.582   4.619  0.7158  0.1059  0.4347
  745MOL0     C  461   4.987   4.495   4.639 -0.1298 -0.5135  1.0301
  745MOL0     C  462   4.892   4.585   4.712  0.1009 -0.4159 -1.3992
  745MOL0     C  463   4.753   4.531   4.739  0.7385 -0.2294 -0.4510
  745MOL0     O  464   4.685   4.642   4.807 -0.2559 -0.3540 -0.0409
  745MOL0     C  465   4.550   4.633   4.814 -0.0314 -0.6986 -0.2820
  745MOL0     C  466   4.470   4.529   4.763 -0.2115  0.0860 -0.3925
  745MOL0     C  467   4.339   4.516   4.786 -0.4866  0.7394  0.1646
  745MOL0     C  468   4.273   4.405   4.709  0.5617 -0.2443 -0.5362
  745MOL0     C  469   4.273   4.616   4.865  0.5329 -0.7746  0.3207
  745MOL0     C  470   4.126   4.618   4.891 -0.5759  0.3739  0.1176
  745MOL0     O  471   4.086   4.707   4.990 -0.3718 -0.4074 -0.1597
  745MOL0     C  472   3.955   4.718   5.018  0.4651 -0.5346  0.2104
  745MOL0     C  473   3.884   4.823   4.962  0.4171 -0.0946  0.8523
  745MOL0     C  474   3.749   4.843   4.984  0.5434  0.3060  0.5643
  745MOL0     C  475   3.676   4.750   5.059  0.0547 -0.6109 -0.0634
  745MOL0     O  476   3.548   4.775   5.083  0.3973  0.3778 -0.3088
  745MOL0     C  477   3.468   4.676   5.158 -0.9663 -0.3407  0.2087
  745MOL0     C  478   3.321   4.716   5.157 -0.2532  0.4224  0.5899
  745MOL0     C  479   3.275   4.736   5.012 -0.8526 -0.5017  0.1368
  745MOL0     C  480   3.119   4.747   4.995 -0.3378  0.8106 -0.2864
  745MOL0     C  481   3.068   4.887   5.023 -0.8312  1.0066 -0.3603
  745MOL0     C  482   2.923   4.911   4.982  0.0362  0.3317  0.1225
  745MOL0     C  483   2.824   4.790   5.030 -0.4545 -0.0742 -0.3214
  745MOL0     C  484   2.762   4.712   4.923  0.4043  0.3329  0.4581
  745MOL0    Cl  485   2.832   4.554   4.913  0.2365 -0.4551 -0.4758
  745MOL0     C  486   3.746   4.640   5.108 -1.1304  1.4626  0.4858
  745MOL0     C  487   3.882   4.624   5.085 -0.8069  0.3465 -0.1516
  745MOL0     O  488   4.043   4.556   4.822 -0.8683 -0.7086  0.2990
  745MOL0     C  489   4.353   4.719   4.919 -0.2968 -0.0763  0.6351
  745MOL0     C  490   4.485   4.734   4.887 -0.1699 -0.9662 -0.8309
  745MOL0     N  491   5.267   4.486   4.815 -0.1647 -0.4008  0.0503
  745MOL0     N  492   5.308   4.549   4.928 -1.0561 -0.5120  0.3395
  745MOL0     C  493   4.299   5.073   5.014  1.1208  0.5672 -0.9725
  745MOL0     C  494   4.168   5.097   5.051 -0.0229 -0.3365  0.6028
  745MOL0     C  495   3.784   5.188   5.302  0.4657  1.6657  0.9478
  745MOL0     C  496   3.697   5.258   5.397  0.4115 -0.2540  0.6686
  745MOL0     C  497   3.557   5.247   5.376  0.3048 -0.1148 -0.5844
  745MOL0     C  498   3.495   5.175   5.266 -0.2387 -0.2640  0.2274
  745MOL0     O  499   3.362   5.154   5.251 -0.0819  0.1053  0.0162
  745MOL0     C  500   3.265   5.227   5.336 -0.3128 -0.6532  0.6546
  745MOL0     C  501   3.134   5.247   5.259  0.1652 -0.2704  0.2036
  745MOL0     C  502   3.138   5.327   5.127 -0.7137  0.5118  0.1201
  745MOL0     C  503   3.016   5.307   5.033  0.2127  0.1062  0.0660
  745MOL0     C  504   3.023   5.397   4.916 -0.9155 -0.0779 -0.3810
  745MOL0     C  505   3.022   5.474   4.825 -0.6134 -0.9927 -0.4433
  745MOL0     C  506   3.583   5.123   5.167 -0.3052 -0.0207  0.4276
  745MOL0     C  507   3.724   5.129   5.186  0.7438  0.1755 -0.2126
  745MOL0     H  508   4.233   5.196   5.372  2.1917  1.3615 -0.4611
  745MOL0     H  509   4.440   5.148   5.311 -0.5171  2.1802 -0.1747
  745MOL0     H  510   4.650   5.113   5.233 -0.4190  1.3242 -2.0724
  745MOL0     H  511   4.601   4.939   5.228  0.1222 -0.6146 -0.8898
  745MOL0     H  512   4.747   4.907   5.036 -0.4959 -1.2112  1.5728
  745MOL0     H  513   4.798   5.072   5.049  1.3992 -3.1868 -2.3299
  745MOL0     H  514   4.843   5.007   5.302 -1.7285 -1.2187  0.4005
  745MOL0     H  515   4.863   4.843   5.244  2.3380 -0.0762 -0.0240
  745MOL0     H  516   5.006   4.920   5.040  2.2465  0.4467  0.2186
  745MOL0     H  517   4.993   5.078   5.101  1.1553 -0.7747 -0.3362
  745MOL0     H  518   5.191   5.017   5.170 -0.6088  1.4104  1.1060
  745MOL0     H  519   5.091   5.034   5.306  2.6284  0.1297  0.9096
  745MOL0     H  520   5.218   4.836   5.351  1.2474  0.4050 -1.6782
  745MOL0     H  521   5.045   4.799   5.330 -1.0719  0.3784 -0.8315
  745MOL0     H  522   5.226   4.629   5.225  2.0171  0.5035  0.3419
  745MOL0     H  523   5.087   4.678   5.136  0.5727 -1.3889 -0.5310
  745MOL0     H  524   5.366   4.772   5.100  1.2133 -1.4838 -1.4602
  745MOL0     H  525   5.231   4.871   5.027  0.1042 -1.0789 -2.5825
  745MOL0     H  526   5.158   4.801   4.790  2.2797 -0.1617 -1.7244
  745MOL0     H  527   5.095   4.680   4.577  0.0777  0.9851  2.6948
  745MOL0     H  528   5.185   4.533   4.547 -1.4157 -0.5366 -1.1659
  745MOL0     H  529   5.012   4.398   4.682 -5.1977 -2.3711  0.4970
  745MOL0     H  530   4.955   4.473   4.536  1.4813 -2.6340  0.8977
  745MOL0     H  531   4.888   4.679   4.657 -1.2798  0.3956 -0.0108
  745MOL0     H  532   4.928   4.607   4.813 -2.5283 -0.6173 -0.3340
  745MOL0     H  533   4.762   4.438   4.795 -2.7860 -0.3398  0.2051
  745MOL0     H  534   4.710   4.513   4.640 -2.4693 -1.1307  0.9533
  745MOL0     H  535   4.505   4.457   4.689 -1.3856  0.2653 -1.1527
  745MOL0     H  536   4.333   4.320   4.677  0.9859  0.5520 -1.9485
  745MOL0     H  537   4.192   4.366   4.771  1.9589  0.2575  1.7174
  745MOL0     H  538   4.233   4.453   4.618 -1.7046  0.9521  0.9880
  745MOL0     H  539   3.938   4.886   4.892  0.0117  0.6754  1.2254
  745MOL0     H  540   3.704   4.933   4.943 -0.6191 -0.2199  0.6447
  745MOL0     H  541   3.457   4.578   5.110  0.0277  0.2845 -1.3789
  745MOL0     H  542   3.518   4.663   5.254  0.5029 -0.4133 -0.5408
  745MOL0     H  543   3.267   4.627   5.192  0.5281 -0.0269  0.6646
  745MOL0     H  544   3.301   4.798   5.226 -0.1698  0.3471  0.7038
  745MOL0     H  545   3.301   4.645   4.957 -5.5687 -1.2317 -1.2928
  745MOL0     H  546   3.318   4.827   4.969 -1.7048  1.5496  3.2649
  745MOL0     H  547   3.107   4.732   4.887  1.4289  1.5033 -0.6254
  745MOL0     H  548   3.071   4.668   5.053 -1.4104  0.6815 -1.3104
  745MOL0     H  549   3.135   4.961   4.980 -0.7458  0.2543 -1.5585
  745MOL0     H  550   3.067   4.888   5.132 -3.4043 -0.5627 -0.2760
  745MOL0     H  551   2.893   5.011   5.014  1.3697  0.6160  0.5404
  745MOL0     H  552   2.922   4.903   4.873 -2.3210  0.2579  0.1008
  745MOL0     H  553   2.748   4.826   5.100  0.7068 -0.7052  1.3264
  745MOL0     H  554   2.876   4.717   5.092 -2.5653 -3.4656 -2.2183
  745MOL0     H  555   2.775   4.765   4.829 -0.1206 -1.6417 -0.7816
  745MOL0     H  556   2.653   4.703   4.926  0.2317 -0.0865 -3.0609
  745MOL0     H  557   3.703   4.553   5.157  4.2569 -0.9991  1.5677
  745MOL0     H  558   3.947   4.546   5.122  1.6991  1.8773 -1.0440
  745MOL0     H  559   4.327   4.799   4.987  0.3560  0.4741  0.2463
  745MOL0     H  560   4.535   4.820   4.930  2.0366 -2.0365 -1.0917
  745MOL0     H  561   4.320   5.024   4.919  0.5863 -3.3900  0.7491
  745MOL0     H  562   4.095   5.075   4.974  0.7842 -1.5597  0.1595
  745MOL0     H  563   3.738   5.316   5.479  0.3547 -0.4051  0.8036
  745MOL0     H  564   3.493   5.290   5.452 -1.1420 -2.4448 -0.3794
  745MOL0     H  565   3.261   5.164   5.425  0.1190  0.6734  1.6508
  745MOL0     H  566   3.304   5.326   5.363 -1.6409  0.1697 -0.3519
  745MOL0     H  567   3.057   5.296   5.319 -0.3591 -0.6260 -0.1698
  745MOL0     H  568   3.104   5.143   5.239  2.4640 -1.3328  1.8370
  745MOL0     H  569   3.230   5.296   5.076  0.7401  1.7867  1.8488
  745MOL0     H  570   3.149   5.433   5.151  5.9284  0.6924 -1.8059
  745MOL0     H  571   2.931   5.340   5.093  0.9806 -0.2574  1.4028
  745MOL0     H  572   3.016   5.200   5.010 -2.8579 -0.0770  0.5110
  745MOL0     H  573   3.001   5.528   4.735 -0.1418 -1.6647 -0.9700
  745MOL0     H  574   3.566   5.070   5.074  3.6535 -1.8772  0.5226
  745MOL0     H  575   3.784   5.093   5.103  2.4322  2.6815 -0.1887
  746MOL0     O  576   9.522   7.910   0.192 -0.7138 -0.3681 -0.0774
  746MOL0     C  577   9.523   7.807   0.127 -0.4317 -0.6241  0.0299
  746MOL0     O  578   9.410   7.756   0.065 -0.1827 -0.5130  0.2173
  746MOL0     C  579   9.296   7.815   0.092  0.6469  0.3253 -0.4423
  746MOL0     C  580   9.242   7.816   0.218  0.0442  0.4634 -1.3004
  746MOL0     C  581   9.120   7.873   0.247  0.0354 -0.5362 -0.4798
  746MOL0     C  582   9.035   7.925   0.151 -0.4160  0.8922  0.6173
  746MOL0     O  583   8.909   7.973   0.191 -0.3223 -0.0167  0.6953
  746MOL0     C  584   8.817   8.038   0.095  0.4992  0.5353  0.1316
  746MOL0     C  585   8.697   8.098   0.161  0.5788 -0.3268  1.2602
  746MOL0     C  586   8.592   8.002   0.209 -0.6832 -0.2587 -0.3907
  746MOL0     C  587   8.524   8.067   0.325 -0.1069  0.0359  0.2815
  746MOL0     C  588   8.393   7.992   0.355 -0.2286 -1.0661 -0.7665
  746MOL0     C  589   8.302   8.105   0.409 -1.2489 -0.6177 -0.0631
  746MOL0     C  590   8.179   8.048   0.455  0.6450 -0.5268  0.5195
  746MOL0     C  591   8.063   8.139   0.506 -0.9744 -0.6743  0.0159
  746MOL0     N  592   8.018   8.238   0.412  0.8759 -0.1702 -0.5991
  746MOL0     C  593   8.085   8.358   0.378 -0.7319 -0.1728 -0.5922
  746MOL0     C  594   8.005   8.433   0.305 -0.6693 -0.0123  0.1646
  746MOL0     C  595   8.034   8.568   0.250  0.1298 -0.5603 -0.6951
  746MOL0     C  596   8.181   8.601   0.230 -0.2906  1.1204  0.7814
  746MOL0     C  597   8.247   8.511   0.117  0.9035 -0.2614  0.0755
  746MOL0     C  598   8.399   8.527   0.119 -0.3352  1.2565 -0.6352
  746MOL0     O  599   8.452   8.464   0.235 -0.0291 -0.4916 -0.5306
  746MOL0     C  600   8.587   8.465   0.257  0.1602 -0.2574 -0.9562
  746MOL0     C  601   8.637   8.454   0.388 -0.1285  0.5704  0.2979
  746MOL0     C  602   8.775   8.433   0.417  0.9624 -0.1809 -0.7757
  746MOL0     C  603   8.792   8.398   0.566  0.3535  0.2476 -0.3001
  746MOL0     C  604   8.860   8.435   0.309 -0.2332 -0.6551  0.3562
  746MOL0     C  605   9.009   8.434   0.328  0.3130  1.5631  1.1066
  746MOL0     O  606   9.087   8.417   0.211  0.7150  0.1889  0.6644
  746MOL0     C  607   9.212   8.397   0.230  0.3368  0.1264 -0.2079
  746MOL0     C  608   9.252   8.259   0.246 -0.0458  0.0338 -0.1476
  746MOL0     C  609   9.393   8.235   0.252  0.3198  0.0110  0.1149
  746MOL0     C  610   9.486   8.348   0.237 -0.0702 -1.0495  0.1457
  746MOL0     O  611   9.622   8.329   0.245  0.3663  0.2819  0.4354
  746MOL0     C  612   9.675   8.231   0.153 -0.3129  0.3583 -0.5490
  746MOL0     C  613   9.803   8.177   0.218  0.0288  0.1813  0.5397
  746MOL0     C  614   9.900   8.119   0.107  0.8990  0.6446 -0.3750
  746MOL0     C  615  10.037   8.097   0.159 -0.1618 -0.6754  0.7497
  746MOL0     C  616  10.127   8.017   0.054  0.1486 -0.5995  0.6515
  746MOL0     C  617  10.265   7.982   0.102 -0.2752 -0.6623 -0.0645
  746MOL0     C  618  10.270   7.864   0.192  0.2754  0.9063  0.1303
  746MOL0     C  619  10.250   7.731   0.121 -0.3959 -0.5490 -0.1185
  746MOL0    Cl  620  10.403   7.692   0.041 -0.2226  0.5623  0.1209
  746MOL0     C  621   9.446   8.485   0.233 -0.1558  0.3396  0.6126
  746MOL0     C  622   9.309   8.504   0.220  0.7295  0.5801 -0.4024
  746MOL0     O  623   9.058   8.437   0.443 -0.1349 -0.1720  0.2173
  746MOL0     C  624   8.813   8.429   0.177 -0.2506  0.4823 -0.6931
  746MOL0     C  625   8.679   8.449   0.148 -1.0002  0.2958 -0.0342
  746MOL0     N  626   7.890   8.362   0.292 -0.3761 -0.4010  0.3604
  746MOL0     N  627   7.894   8.250   0.358  0.0486 -0.0678 -0.2819
  746MOL0     C  628   9.083   7.917   0.022 -0.0917 -0.2177  0.5497
  746MOL0     C  629   9.206   7.865  -0.010 -0.2854 -0.1710 -0.7911
  746MOL0     C  630   9.641   7.727   0.100  0.6833 -0.1637 -0.2413
  746MOL0     C  631   9.756   7.750   0.171 -0.7339  0.1453 -0.3814
  746MOL0     C  632   9.880   7.695   0.130 -0.7420 -0.3093 -0.3562
  746MOL0     C  633   9.886   7.593   0.026 -0.3091  0.7171  1.1447
  746MOL0     O  634   9.994   7.505   0.019  0.7790  1.0989  0.2614
  746MOL0     C  635  10.012   7.408  -0.079 -0.1534  0.4981  0.5380
  746MOL0     C  636  10.109   7.300  -0.034 -0.2659  0.2926  0.6100
  746MOL0     C  637  10.258   7.357  -0.017  0.3625  0.0340 -0.0321
  746MOL0     C  638  10.359   7.247  -0.045 -0.2633  0.7488  1.0326
  746MOL0     C  639  10.370   7.163   0.079 -0.0685  0.4983  0.2519
  746MOL0     C  640  10.373   7.096   0.181 -0.5909  1.0327  0.2226
  746MOL0     C  641   9.763   7.571  -0.051 -0.3349  0.1694 -0.3686
  746MOL0     C  642   9.649   7.641  -0.017 -0.7677 -0.0558  0.0807
  746MOL0     H  643   9.303   7.771   0.296 -0.2748  0.8140 -0.8411
  746MOL0     H  644   9.096   7.877   0.353  1.6403 -1.3665 -0.0430
  746MOL0     H  645   8.865   8.126   0.052  0.6638  0.5110  0.2648
  746MOL0     H  646   8.805   7.974   0.006 -1.4136 -1.8761  1.9891
  746MOL0     H  647   8.739   8.147   0.250 -1.8000  3.0362  0.7124
  746MOL0     H  648   8.652   8.180   0.105  1.0950  0.5889  2.1523
  746MOL0     H  649   8.514   7.995   0.132 -2.2609  0.9498  1.0133
  746MOL0     H  650   8.632   7.903   0.233 -0.4991 -0.1136 -0.0884
  746MOL0     H  651   8.593   8.060   0.410  0.9285  1.5020 -0.4170
  746MOL0     H  652   8.506   8.173   0.309  0.9389  0.0943 -0.5864
  746MOL0     H  653   8.346   7.948   0.267  3.5848 -3.3496 -1.8909
  746MOL0     H  654   8.404   7.911   0.428 -0.0931  0.3641  0.8689
  746MOL0     H  655   8.345   8.146   0.501  3.5961  1.0117 -2.6772
  746MOL0     H  656   8.292   8.189   0.339  1.5191  1.1549  1.4610
  746MOL0     H  657   8.145   8.001   0.362 -4.0169 -2.1326  2.6810
  746MOL0     H  658   8.190   7.963   0.523 -0.5273  0.0743  1.4918
  746MOL0     H  659   8.080   8.180   0.606 -1.0021  1.1139 -0.6688
  746MOL0     H  660   7.987   8.061   0.518  0.2749 -2.1443 -1.1331
  746MOL0     H  661   8.186   8.385   0.407 -0.2086 -2.2068 -0.3442
  746MOL0     H  662   7.972   8.580   0.161 -2.6761 -0.5142  1.1397
  746MOL0     H  663   7.999   8.640   0.325  1.5705 -1.0886  0.5391
  746MOL0     H  664   8.231   8.588   0.326 -2.4904  1.6416  2.0453
  746MOL0     H  665   8.182   8.706   0.201  1.5865  1.3442  1.5456
  746MOL0     H  666   8.211   8.545   0.019  1.6838 -1.0559 -0.5089
  746MOL0     H  667   8.227   8.404   0.132  0.2018 -0.4627 -1.8961
  746MOL0     H  668   8.439   8.629   0.114  1.3434  0.6032 -1.1801
  746MOL0     H  669   8.442   8.479   0.030  0.7307 -1.9808  1.4491
  746MOL0     H  670   8.562   8.469   0.465 -2.3530  1.3869 -1.8927
  746MOL0     H  671   8.880   8.450   0.605 -0.8061  1.2043  1.1562
  746MOL0     H  672   8.705   8.426   0.626 -0.0028 -1.7558  0.2013
  746MOL0     H  673   8.799   8.289   0.579  2.8253  0.4300  0.4253
  746MOL0     H  674   9.181   8.177   0.242  1.6160 -1.4091 -1.9282
  746MOL0     H  675   9.432   8.136   0.271  2.2524  0.4491 -1.2895
  746MOL0     H  676   9.616   8.143   0.126  2.7522 -0.5149 -5.9274
  746MOL0     H  677   9.705   8.282   0.061 -1.2683 -1.8001 -2.1385
  746MOL0     H  678   9.858   8.263   0.257  0.5192  3.0418 -5.3309
  746MOL0     H  679   9.777   8.100   0.292 -2.8232 -1.4948 -1.9522
  746MOL0     H  680   9.903   8.187   0.021 -0.2746 -1.1896 -1.9416
  746MOL0     H  681   9.868   8.024   0.064  2.6440  0.0619 -0.4904
  746MOL0     H  682  10.073   8.200   0.159  0.5554 -0.9141  1.6322
  746MOL0     H  683  10.045   8.063   0.262  0.7770  0.1045  0.9434
  746MOL0     H  684  10.141   8.063  -0.044  0.3961 -0.5694  0.6982
  746MOL0     H  685  10.071   7.924   0.041 -1.7465  0.2517  2.2134
  746MOL0     H  686  10.329   7.964   0.016 -1.8964 -0.2808 -1.4154
  746MOL0     H  687  10.307   8.071   0.151 -0.8813 -1.8296  2.7683
  746MOL0     H  688  10.177   7.869   0.249 -2.3905 -0.9705 -3.6075
  746MOL0     H  689  10.360   7.866   0.255  0.0032 -0.5405  0.5940
  746MOL0     H  690  10.170   7.735   0.046 -2.6661 -1.3951  2.1285
  746MOL0     H  691  10.214   7.648   0.183 -0.3259 -1.6611 -1.5095
  746MOL0     H  692   9.518   8.566   0.229  1.5234 -0.9249  2.6339
  746MOL0     H  693   9.270   8.604   0.210 -1.4917  0.0214  1.5828
  746MOL0     H  694   8.890   8.423   0.101  2.3383  1.7678  1.6713
  746MOL0     H  695   8.640   8.450   0.047  0.9984  0.7384 -0.8565
  746MOL0     H  696   9.029   7.950  -0.066 -0.1932 -1.6273  0.0474
  746MOL0     H  697   9.247   7.873  -0.110  3.9320 -1.5026  0.6104
  746MOL0     H  698   9.763   7.819   0.254  2.2038  1.1609 -1.3481
  746MOL0     H  699   9.968   7.720   0.188  0.3741 -0.1217 -2.0539
  746MOL0     H  700   9.922   7.357  -0.114  1.0946 -1.3866 -0.1035
  746MOL0     H  701  10.055   7.458  -0.166  1.2346 -2.8708 -0.8998
  746MOL0     H  702  10.105   7.229  -0.117 -1.3465  1.1682 -0.1137
  746MOL0     H  703  10.075   7.251   0.058  0.8274  1.2624  1.5729
  746MOL0     H  704  10.265   7.404   0.081 -1.2319  2.0804 -0.8273
  746MOL0     H  705  10.276   7.443  -0.082  0.0770  3.2390  3.7175
  746MOL0     H  706  10.461   7.286  -0.051  0.5932 -1.4782  0.2159
  746MOL0     H  707  10.333   7.182  -0.128  0.9767  2.3950 -0.7470
  746MOL0     H  708  10.375   7.028   0.264  0.4018  2.1680  1.1656
  746MOL0     H  709   9.757   7.507  -0.138 -0.2800 -2.6478  1.5499
  746MOL0     H  710   9.556   7.619  -0.069  0.6686 -2.8721 -1.5724
  747MOL0     O  711   4.832  10.517   1.750 -0.1352 -0.2468 -0.5850
  747MOL0     C  712   4.923  10.597   1.736  0.2698 -0.5955 -0.2641
  747MOL0     O  713   4.929  10.684   1.627 -0.0794  0.2817 -0.2656
  747MOL0     C  714   4.853  10.684   1.516 -0.5072  0.0995 -0.0574
  747MOL0     C  715   4.712  10.691   1.532 -0.1628 -0.2577  0.6198
  747MOL0     C  716   4.625  10.718   1.425 -0.2575  0.5849  0.2018
  747MOL0     C  717   4.683  10.730   1.296 -0.1167  0.8142  0.2578
  747MOL0     O  718   4.621  10.754   1.171  0.2452 -1.4167 -0.4664
  747MOL0     C  719   4.485  10.798   1.168  0.2777  1.2749  0.2234
  747MOL0     C  720   4.452  10.936   1.190  0.2288  0.5191 -0.5414
  747MOL0     C  721   4.301  10.966   1.220  0.3713 -0.2277  0.1034
  747MOL0     C  722   4.211  10.941   1.093 -0.3021 -0.0066 -0.2545
  747MOL0     C  723   4.058  10.940   1.129  0.0099  0.2356  0.0752
  747MOL0     C  724   3.970  10.884   1.016 -0.4465 -0.7595  0.4324
  747MOL0     C  725   3.999  10.735   0.973 -0.2385  0.5782  0.2938
  747MOL0     C  726   4.005  10.630   1.087 -0.3289 -0.7047 -0.5283
  747MOL0     N  727   3.872  10.612   1.158 -0.4559 -0.6203 -1.0164
  747MOL0     C  728   3.831  10.694   1.260  0.1137  1.1240 -0.5984
  747MOL0     C  729   3.718  10.633   1.302 -0.9761  0.8993 -0.0307
  747MOL0     C  730   3.643  10.663   1.432 -0.0370  0.3857  0.3448
  747MOL0     C  731   3.510  10.726   1.382  0.8106 -1.2997 -1.1980
  747MOL0     C  732   3.431  10.783   1.495 -0.2081 -0.3621 -0.3078
  747MOL0     C  733   3.292  10.827   1.458 -0.8789  0.3772 -0.2105
  747MOL0     O  734   3.215  10.709   1.434  0.8149 -0.2449 -0.0851
  747MOL0     C  735   3.082  10.731   1.395  0.7902  0.2637 -0.4793
  747MOL0     C  736   2.991  10.634   1.427 -0.2799  0.3809  0.5172
  747MOL0     C  737   2.851  10.651   1.416 -0.7643 -0.9418  0.0354
  747MOL0     C  738   2.766  10.535   1.451  0.3513  0.3857  0.1313
  747MOL0     C  739   2.800  10.779   1.371 -0.3541  0.6414 -0.6647
  747MOL0     C  740   2.662  10.817   1.365 -0.0838 -0.4248 -0.7672
  747MOL0     O  741   2.633  10.945   1.335 -0.2012 -0.0039 -0.1794
  747MOL0     C  742   2.508  10.987   1.307  0.2059  0.2095 -0.8983
  747MOL0     C  743   2.465  10.981   1.175  0.7349 -0.3872 -0.4360
  747MOL0     C  744   2.339  11.036   1.149 -0.1207 -0.4544 -0.7435
  747MOL0     C  745   2.259  11.096   1.245  0.1474  0.7946  0.2342
  747MOL0     O  746   2.142  11.152   1.206  0.9205 -0.3174 -0.6156
  747MOL0     C  747   2.136  11.264   1.115  0.7331 -0.1927 -0.2198
  747MOL0     C  748   2.020  11.361   1.132 -0.4074 -0.3294  1.0821
  747MOL0     C  749   1.886  11.283   1.117  0.4073 -0.1628 -0.7653
  747MOL0     C  750   1.770  11.374   1.148  0.0836 -0.7341 -0.4020
  747MOL0     C  751   1.648  11.311   1.213  0.0164 -0.2309  0.0030
  747MOL0     C  752   1.574  11.206   1.134  0.2231  0.9065 -0.5590
  747MOL0     C  753   1.474  11.118   1.220  0.6257  0.6453 -0.2150
  747MOL0     C  754   1.368  11.208   1.304 -0.6242  0.2791  0.0730
  747MOL0    Cl  755   1.445  11.270   1.457 -0.0829  0.0802  0.0081
  747MOL0     C  756   2.315  11.097   1.375  0.1988  0.4557 -0.3743
  747MOL0     C  757   2.432  11.036   1.409 -0.8587  0.0465  0.7639
  747MOL0     O  758   2.584  10.736   1.403 -0.4997  0.6057 -0.4089
  747MOL0     C  759   2.896  10.868   1.321 -0.5293  0.0357  0.0407
  747MOL0     C  760   3.035  10.844   1.330 -0.3789 -0.0399 -0.2537
  747MOL0     N  761   3.697  10.509   1.234  0.0141  0.3329 -0.4634
  747MOL0     N  762   3.782  10.509   1.141  0.0270  0.5175  0.0143
  747MOL0     C  763   4.823  10.706   1.280 -0.1033  0.6416 -0.3345
  747MOL0     C  764   4.909  10.679   1.389  0.4372  0.4430 -0.4854
  747MOL0     C  765   5.025  10.625   1.836  0.3917  0.0635 -0.5692
  747MOL0     C  766   5.133  10.704   1.798  0.0912 -0.6431 -1.0359
  747MOL0     C  767   5.237  10.719   1.893 -0.3476  0.1594  0.4452
  747MOL0     C  768   5.243  10.647   2.007 -0.0395 -1.1481  0.1253
  747MOL0     O  769   5.351  10.659   2.084  0.8574 -0.1059 -0.2012
  747MOL0     C  770   5.412  10.528   2.091  0.0895 -0.6838  0.7684
  747MOL0     C  771   5.559  10.538   2.145 -0.3429 -0.3046 -0.2670
  747MOL0     C  772   5.567  10.553   2.296  1.0033  0.0099  0.3197
  747MOL0     C  773   5.702  10.554   2.363 -0.7386 -0.9768  0.4984
  747MOL0     C  774   5.771  10.673   2.337 -0.5448  0.8784  0.2217
  747MOL0     C  775   5.847  10.765   2.321 -0.4951  0.1743 -0.3651
  747MOL0     C  776   5.127  10.586   2.052 -0.5114  0.3329  0.5230
  747MOL0     C  777   5.025  10.567   1.966 -0.4372  0.0214  0.1209
  747MOL0     H  778   4.665  10.688   1.630 -4.2806 -1.6225 -1.1726
  747MOL0     H  779   4.517  10.724   1.434 -0.0658  1.2010  2.6617
  747MOL0     H  780   4.447  10.769   1.070  0.8131  1.1453  0.0513
  747MOL0     H  781   4.430  10.745   1.247 -0.9822  0.3263 -1.2340
  747MOL0     H  782   4.519  10.980   1.264 -1.4594 -0.4134  1.6375
  747MOL0     H  783   4.473  10.980   1.092 -1.5715  0.0963 -1.1610
  747MOL0     H  784   4.268  10.906   1.306 -0.3560  1.5116  1.0820
  747MOL0     H  785   4.289  11.071   1.247  1.1917 -0.1619  0.2371
  747MOL0     H  786   4.248  10.997   1.007  1.5742 -0.3667  0.2835
  747MOL0     H  787   4.224  10.835   1.069 -2.3593 -0.2079 -0.7117
  747MOL0     H  788   4.046  10.879   1.219  2.0247 -1.5354 -0.7572
  747MOL0     H  789   4.030  11.045   1.143  3.5898  1.3861 -0.5457
  747MOL0     H  790   3.866  10.893   1.047 -0.3183  2.0202  0.3648
  747MOL0     H  791   3.968  10.951   0.929 -1.9134 -1.5861 -0.1957
  747MOL0     H  792   3.924  10.703   0.901  0.3034 -3.3437  1.2379
  747MOL0     H  793   4.100  10.732   0.931 -0.7822 -0.6700 -1.0149
  747MOL0     H  794   4.090  10.648   1.153 -1.6937 -1.3486  1.4988
  747MOL0     H  795   4.018  10.535   1.035  0.7385  0.9927 -3.6876
  747MOL0     H  796   3.893  10.771   1.306  2.2244 -1.5038  1.3390
  747MOL0     H  797   3.619  10.577   1.495  1.3798 -1.2389 -1.2325
  747MOL0     H  798   3.696  10.740   1.490 -0.2182  2.3686 -1.9387
  747MOL0     H  799   3.445  10.651   1.336 -0.9344 -0.8871  0.4746
  747MOL0     H  800   3.524  10.805   1.308 -1.9899 -0.5143 -0.9860
  747MOL0     H  801   3.481  10.870   1.538  0.7263 -1.1197  0.2086
  747MOL0     H  802   3.428  10.707   1.573 -1.8366 -1.4169 -1.3321
  747MOL0     H  803   3.291  10.887   1.366 -2.1502 -1.0035 -1.1439
  747MOL0     H  804   3.253  10.893   1.537 -1.1483  2.5824 -2.0726
  747MOL0     H  805   3.032  10.549   1.482  0.2323 -0.5074 -1.1409
  747MOL0     H  806   2.690  10.560   1.525 -1.5412  0.4389 -1.7391
  747MOL0     H  807   2.700  10.499   1.372  1.1869  0.0101 -0.4192
  747MOL0     H  808   2.822  10.452   1.496  0.8312  1.5016  1.6566
  747MOL0     H  809   2.537  10.942   1.104  0.4069 -0.6491 -0.6236
  747MOL0     H  810   2.296  11.033   1.049 -1.1469 -0.0323 -0.3293
  747MOL0     H  811   2.228  11.325   1.115 -0.6532  2.0044  0.1068
  747MOL0     H  812   2.123  11.224   1.014 -1.4582 -1.3019  0.4522
  747MOL0     H  813   2.029  11.405   1.232  1.4967 -2.7699  2.0889
  747MOL0     H  814   2.026  11.437   1.054 -2.1745  0.2497  1.4656
  747MOL0     H  815   1.877  11.194   1.181  1.4323  0.3792  0.1659
  747MOL0     H  816   1.875  11.256   1.011 -1.3299 -1.4705 -0.2964
  747MOL0     H  817   1.815  11.449   1.214 -1.1915 -0.3382  0.0523
  747MOL0     H  818   1.734  11.425   1.058 -2.5273  1.5618  1.7682
  747MOL0     H  819   1.580  11.392   1.243 -0.2970 -0.0189 -1.2335
  747MOL0     H  820   1.681  11.254   1.300  0.6868 -3.1778 -2.0083
  747MOL0     H  821   1.514  11.254   1.057  1.0588 -1.6488 -2.9955
  747MOL0     H  822   1.641  11.142   1.075  2.4945  2.9413 -0.3314
  747MOL0     H  823   1.529  11.049   1.283  1.7167  0.6585 -1.1188
  747MOL0     H  824   1.413  11.051   1.158  0.7951  0.0974  0.2087
  747MOL0     H  825   1.279  11.152   1.331 -0.3754 -0.3395 -0.3803
  747MOL0     H  826   1.339  11.296   1.245  1.2427  0.1543 -1.1003
  747MOL0     H  827   2.263  11.138   1.460  4.8620  4.0690  1.1904
  747MOL0     H  828   2.478  11.046   1.507  0.8394  4.2083 -0.2461
  747MOL0     H  829   2.866  10.967   1.287  0.6055  0.2900 -0.2535
  747MOL0     H  830   3.094  10.921   1.282 -1.4360 -1.4432 -4.1698
  747MOL0     H  831   4.863  10.723   1.181  0.2307  1.9408 -0.0075
  747MOL0     H  832   5.015  10.671   1.370  0.4381  0.1973 -0.3752
  747MOL0     H  833   5.129  10.743   1.697 -0.0588  2.3095  0.0160
  747MOL0     H  834   5.323  10.777   1.861  0.4424 -1.1019  0.2109
  747MOL0     H  835   5.349  10.462   2.151  1.0800 -1.6126  0.8213
  747MOL0     H  836   5.425  10.497   1.987  2.0257  0.9300  0.4642
  747MOL0     H  837   5.599  10.622   2.088 -0.3696 -0.2409 -0.1927
  747MOL0     H  838   5.606  10.444   2.116  2.4874  1.2112 -0.9739
  747MOL0     H  839   5.509  10.468   2.336 -1.7271  1.8645  0.5831
  747MOL0     H  840   5.512  10.642   2.328  0.1875  0.6121 -2.5092
  747MOL0     H  841   5.761  10.469   2.330 -0.8404 -0.7117 -0.3854
  747MOL0     H  842   5.683  10.563   2.471 -0.1420  1.5873  0.4636
  747MOL0     H  843   5.923  10.840   2.309  0.5455 -0.3409  2.3044
  747MOL0     H  844   5.114  10.527   2.143 -2.0194  1.0117  0.7785
  747MOL0     H  845   4.950  10.495   1.996 -0.0339  0.1846  1.5542
  748MOL0     O  846   5.045   5.381   5.687  0.2325 -0.1922  0.1189
  748MOL0     C  847   5.138   5.421   5.758  0.3268 -0.7686  0.3008
  748MOL0     O  848   5.122   5.477   5.877 -0.3644  0.0385 -0.5424
  748MOL0     C  849   5.010   5.497   5.953 -0.3331 -0.0388  0.1739
  748MOL0     C  850   4.874   5.480   5.916  0.2078  0.2583  0.1392
  748MOL0     C  851   4.770   5.513   5.997  0.1518 -0.4009  0.4736
  748MOL0     C  852   4.795   5.582   6.110 -0.1153  0.2826 -0.9078
  748MOL0     O  853   4.685   5.614   6.188 -0.2134 -0.3552  0.5065
  748MOL0     C  854   4.705   5.682   6.305 -0.3698 -0.9232  0.2935
  748MOL0     C  855   4.567   5.729   6.364 -0.5817  0.0442 -0.0925
  748MOL0     C  856   4.483   5.598   6.405  0.6300  0.6194 -0.4117
  748MOL0     C  857   4.335   5.647   6.435 -0.5239  0.6181  0.4552
  748MOL0     C  858   4.245   5.525   6.488 -0.2441  0.2836 -0.0777
  748MOL0     C  859   4.115   5.579   6.541  0.3541 -0.2382  0.3198
  748MOL0     C  860   4.020   5.481   6.612  0.3621 -0.3596 -0.3038
  748MOL0     C  861   3.873   5.507   6.569 -0.3517  0.6061 -0.8550
  748MOL0     N  862   3.774   5.423   6.646 -0.5549  0.3556  0.9434
  748MOL0     C  863   3.667   5.468   6.717  0.0927 -0.2221  0.8223
  748MOL0     C  864   3.618   5.356   6.772  0.5712 -0.8261 -1.6037
  748MOL0     C  865   3.494   5.341   6.858 -0.4616 -0.1054  0.5331
  748MOL0     C  866   3.356   5.351   6.789 -0.8740  0.5336  0.1759
  748MOL0     C  867   3.316   5.492   6.726  0.2873 -0.0751  0.5222
  748MOL0     C  868   3.167   5.492   6.691  0.1710 -0.0746  0.8933
  748MOL0     O  869   3.133   5.397   6.578 -0.1702 -0.5222 -0.2526
  748MOL0     C  870   3.008   5.408   6.519 -0.7833 -1.3020  0.0266
  748MOL0     C  871   2.911   5.500   6.562  0.3063  0.4644  0.1706
  748MOL0     C  872   2.793   5.524   6.497 -0.0444  0.3667 -0.4267
  748MOL0     C  873   2.698   5.628   6.555 -0.0577  0.5175 -1.1443
  748MOL0     C  874   2.769   5.460   6.374  0.2163 -0.2483 -0.0922
  748MOL0     C  875   2.669   5.499   6.278  0.6860  0.3755  0.2992
  748MOL0     O  876   2.632   5.626   6.275 -0.6251 -0.6224 -0.4528
  748MOL0     C  877   2.500   5.660   6.263  0.0032 -0.5377 -0.2844
  748MOL0     C  878   2.400   5.610   6.349  0.0054  0.1609  0.6376
  748MOL0     C  879   2.269   5.643   6.316  0.6872  1.1717 -0.2828
  748MOL0     C  880   2.236   5.719   6.201  0.0244 -0.1211 -0.1631
  748MOL0     O  881   2.111   5.727   6.150  0.1171  0.1956  0.2064
  748MOL0     C  882   1.998   5.684   6.229  0.0923 -0.7956 -0.0304
  748MOL0     C  883   1.864   5.686   6.150  0.1348  0.0274  0.1556
  748MOL0     C  884   1.797   5.825   6.152 -0.3901 -0.4642  0.2735
  748MOL0     C  885   1.686   5.821   6.044  0.4489  0.2487 -0.0761
  748MOL0     C  886   1.548   5.771   6.098 -0.5676  0.1087 -0.7652
  748MOL0     C  887   1.440   5.784   5.996  0.2430 -1.0765 -0.0882
  748MOL0     C  888   1.446   5.697   5.872 -0.3729  1.3327 -0.0204
  748MOL0     C  889   1.306   5.668   5.811 -0.4334 -0.1251 -0.2186
  748MOL0    Cl  890   1.237   5.535   5.913  0.1551 -0.5472 -0.1928
  748MOL0     C  891   2.335   5.765   6.122 -0.5327 -0.7893 -0.1443
  748MOL0     C  892   2.469   5.742   6.156  0.2753  0.7783  0.5440
  748MOL0     O  893   2.618   5.405   6.221  0.3883 -0.4432  0.1798
  748MOL0     C  894   2.864   5.366   6.335 -0.2970  0.2058  1.3465
  748MOL0     C  895   2.982   5.342   6.399  0.0254 -0.0335 -1.1600
  748MOL0     N  896   3.695   5.248   6.733 -0.2088 -0.7141 -0.4562
  748MOL0     N  897   3.783   5.285   6.644  0.1303  0.4324  0.2882
  748MOL0     C  898   4.928   5.611   6.149  0.0337  0.4301  0.5693
  748MOL0     C  899   5.034   5.568   6.075  0.1975  0.4589 -0.2379
  748MOL0     C  900   5.276   5.406   5.705 -0.1588 -0.1322  0.6727
  748MOL0     C  901   5.389   5.450   5.775  0.1408 -0.3408  0.7743
  748MOL0     C  902   5.527   5.425   5.737  0.3293  0.5987  0.2509
  748MOL0     C  903   5.543   5.365   5.608 -0.0946  0.2157  0.6208
  748MOL0     O  904   5.659   5.323   5.555 -0.5636  0.4089 -0.8727
  748MOL0     C  905   5.783   5.361   5.610  0.0707  0.8760 -0.1898
  748MOL0     C  906   5.903   5.328   5.511  0.0087  1.1508  0.0125
  748MOL0     C  907   5.919   5.169   5.510  0.0020  0.1197 -0.7205
  748MOL0     C  908   6.052   5.129   5.450 -0.3628  0.6375  0.8123
  748MOL0     C  909   6.046   5.149   5.303 -0.4063 -0.8561 -0.2602
  748MOL0     C  910   6.039   5.147   5.179  0.6010  0.1771  0.1667
  748MOL0     C  911   5.432   5.339   5.530 -0.2150  0.3949 -0.2057
  748MOL0     C  912   5.303   5.356   5.575 -0.7392  0.5416  0.0495
  748MOL0     H  913   4.837   5.426   5.829 -1.7605 -0.1613  1.1844
  748MOL0     H  914   4.665   5.509   5.968 -0.1970  2.4386  1.0259
  748MOL0     H  915   4.761   5.621   6.377 -1.3459 -1.2250  0.8072
  748MOL0     H  916   4.763   5.774   6.292 -0.3023 -0.6311  2.3551
  748MOL0     H  917   4.587   5.785   6.456 -2.5627  2.3629 -0.9685
  748MOL0     H  918   4.502   5.779   6.291  2.0069 -1.5986 -3.8488
  748MOL0     H  919   4.479   5.530   6.319  1.1439  2.6786 -2.1407
  748MOL0     H  920   4.526   5.547   6.492  1.3831  0.2132 -1.0119
  748MOL0     H  921   4.334   5.724   6.513  2.3814  1.6358 -0.3721
  748MOL0     H  922   4.286   5.683   6.344 -0.5034 -1.8661 -0.6175
  748MOL0     H  923   4.226   5.464   6.399  1.1081  3.7078 -2.9454
  748MOL0     H  924   4.303   5.476   6.567  0.5448 -0.2894 -0.9852
  748MOL0     H  925   4.127   5.668   6.602 -0.8174  1.5081 -1.8268
  748MOL0     H  926   4.064   5.613   6.450 -1.1396 -2.0504  0.4127
  748MOL0     H  927   4.037   5.375   6.591  1.2814 -1.1565  3.5495
  748MOL0     H  928   4.035   5.485   6.721  3.2369 -4.2041 -0.3605
  748MOL0     H  929   3.871   5.470   6.467 -2.1344 -0.2314 -0.5555
  748MOL0     H  930   3.845   5.611   6.552 -0.7352  0.2717 -2.3787
  748MOL0     H  931   3.625   5.565   6.739 -1.0947 -1.1538  3.0230
  748MOL0     H  932   3.489   5.239   6.899  0.3846  0.6270  2.5437
  748MOL0     H  933   3.501   5.418   6.935 -0.2657  0.9454 -0.5151
  748MOL0     H  934   3.291   5.331   6.875  0.9049 -1.6382  1.1205
  748MOL0     H  935   3.338   5.268   6.720 -0.4689 -0.8884  1.6860
  748MOL0     H  936   3.370   5.509   6.632  0.1392  0.3070  0.5067
  748MOL0     H  937   3.337   5.576   6.792 -5.1253  1.1001  1.2114
  748MOL0     H  938   3.138   5.594   6.664 -1.9640 -0.7127  0.5337
  748MOL0     H  939   3.104   5.466   6.777 -1.3581  0.3414 -0.0489
  748MOL0     H  940   2.925   5.558   6.652 -3.0386  3.8024 -1.1753
  748MOL0     H  941   2.589   5.624   6.545 -0.1449 -0.1847 -0.0709
  748MOL0     H  942   2.732   5.644   6.658  0.3774 -2.5693 -0.6951
  748MOL0     H  943   2.712   5.720   6.498 -4.5481  2.5460  0.5670
  748MOL0     H  944   2.427   5.569   6.446  1.4659 -0.0969  0.1446
  748MOL0     H  945   2.187   5.607   6.378  0.0972  1.5417 -0.8331
  748MOL0     H  946   2.006   5.584   6.275  2.3339 -0.1828  1.0582
  748MOL0     H  947   1.976   5.735   6.323  0.6930 -2.8881  1.3371
  748MOL0     H  948   1.881   5.647   6.050 -0.8573 -0.0443  0.0044
  748MOL0     H  949   1.801   5.617   6.207 -0.4344  1.8335  1.8417
  748MOL0     H  950   1.875   5.899   6.129 -1.2187  0.2365 -0.3889
  748MOL0     H  951   1.759   5.850   6.251 -0.4031  0.1730  0.1178
  748MOL0     H  952   1.677   5.922   6.005 -0.8126  0.6946  1.2947
  748MOL0     H  953   1.724   5.761   5.960  0.7402  1.1432 -0.5947
  748MOL0     H  954   1.525   5.824   6.191 -3.6290 -2.0030 -0.1895
  748MOL0     H  955   1.550   5.668   6.133 -0.6996  0.1993 -0.4886
  748MOL0     H  956   1.348   5.766   6.053 -0.9042  3.1572 -0.2780
  748MOL0     H  957   1.440   5.886   5.958  3.3063 -0.9057  0.0950
  748MOL0     H  958   1.503   5.609   5.903  0.0662  2.6777  3.4327
  748MOL0     H  959   1.519   5.744   5.805  1.7822 -0.5693  0.8598
  748MOL0     H  960   1.324   5.629   5.711  2.1955  1.1090 -0.2834
  748MOL0     H  961   1.238   5.753   5.806 -2.0643 -1.4401 -2.6655
  748MOL0     H  962   2.311   5.822   6.032  0.5299  0.5192  0.3606
  748MOL0     H  963   2.544   5.777   6.086 -1.2355 -0.8598 -2.0671
  748MOL0     H  964   2.833   5.324   6.240  0.3583 -1.1239  1.6945
  748MOL0     H  965   3.055   5.269   6.365  0.1764 -0.2618 -0.3705
  748MOL0     H  966   4.939   5.657   6.246 -2.9645 -1.8464  2.1382
  748MOL0     H  967   5.134   5.583   6.114 -0.0483  0.6635  0.3245
  748MOL0     H  968   5.367   5.488   5.875 -0.1282 -2.4749  1.5918
  748MOL0     H  969   5.604   5.446   5.810 -0.3398 -0.2792  1.2468
  748MOL0     H  970   5.786   5.468   5.634  0.0197  0.4062  2.2107
  748MOL0     H  971   5.792   5.307   5.705 -2.5604 -2.7947 -1.7872
  748MOL0     H  972   5.985   5.383   5.557  0.3581  1.8334 -1.3549
  748MOL0     H  973   5.882   5.368   5.411 -3.2111  1.6524  0.7548
  748MOL0     H  974   5.828   5.131   5.463 -0.2346 -0.2619  0.0271
  748MOL0     H  975   5.923   5.126   5.611  0.0125 -0.4916 -0.9729
  748MOL0     H  976   6.062   5.023   5.473 -2.6444 -0.1527 -1.3812
  748MOL0     H  977   6.138   5.190   5.480  1.7088 -1.4330 -0.5487
  748MOL0     H  978   5.991   5.141   5.083  1.1269 -2.3517  0.0013
  748MOL0     H  979   5.444   5.293   5.433 -0.5726  1.7848 -0.9254
  748MOL0     H  980   5.220   5.325   5.512 -0.7324 -1.0127  0.7473
  749MOL0     O  981   6.740   9.255   0.081 -0.3047 -0.2310 -0.5718
  749MOL0     C  982   6.711   9.201  -0.028 -0.7925  0.0543 -0.5899
  749MOL0     O  983   6.783   9.218  -0.150 -0.5507  0.0511 -0.6219
  749MOL0     C  984   6.892   9.301  -0.149 -0.3725  0.0375 -0.6311
  749MOL0     C  985   6.884   9.431  -0.212  0.0061  0.7156 -0.7026
  749MOL0     C  986   6.999   9.505  -0.217 -0.4368 -0.2643  0.4460
  749MOL0     C  987   7.114   9.467  -0.171 -1.8238  0.5853 -0.0340
  749MOL0     O  988   7.213   9.555  -0.200  0.4208  0.0053 -0.1213
  749MOL0     C  989   7.335   9.536  -0.133  0.1107  0.0513  0.5207
  749MOL0     C  990   7.413   9.666  -0.152  0.2874 -0.6954 -0.1288
  749MOL0     C  991   7.343   9.780  -0.081 -0.8133  0.1320 -1.1905
  749MOL0     C  992   7.416   9.912  -0.096 -0.0388  0.2360  0.3290
  749MOL0     C  993   7.353  10.026  -0.022 -0.3943  0.7241  0.2213
  749MOL0     C  994   7.353  10.001   0.130 -0.0315  0.1690 -0.3147
  749MOL0     C  995   7.272  10.107   0.214 -0.4632  0.4761  0.9266
  749MOL0     C  996   7.115  10.115   0.183 -0.4519  0.2378  0.0058
  749MOL0     N  997   7.039   9.986   0.208  0.2266 -0.5021 -0.3957
  749MOL0     C  998   7.054   9.856   0.147 -0.3466 -0.0331  0.7734
  749MOL0     C  999   6.980   9.773   0.219 -0.1219  1.0274 -0.1680
  749MOL0     C 1000   6.969   9.622   0.202 -0.3748  0.5545 -0.1076
  749MOL0     C 1001   6.846   9.575   0.128  0.7062 -0.3215  0.1007
  749MOL0     C 1002   6.708   9.602   0.188 -0.6913 -0.3750  0.1825
  749MOL0     C 1003   6.684   9.568   0.336  0.5375  0.7781 -0.4516
  749MOL0     O 1004   6.553   9.613   0.386  0.8575 -0.1267 -0.0844
  749MOL0     C 1005   6.445   9.526   0.375 -0.3249 -0.5171 -0.0308
  749MOL0     C 1006   6.314   9.577   0.375 -0.4064  0.1781 -2.0201
  749MOL0     C 1007   6.192   9.505   0.369 -0.0287  0.1842 -0.2248
  749MOL0     C 1008   6.062   9.587   0.370  0.2754 -0.0112 -0.0668
  749MOL0     C 1009   6.204   9.358   0.349  0.2295  0.3886 -0.7147
  749MOL0     C 1010   6.075   9.281   0.336  0.0005  0.4194 -0.1202
  749MOL0     O 1011   6.095   9.158   0.285 -0.9451  0.2374 -0.0293
  749MOL0     C 1012   5.993   9.084   0.248  0.2166 -0.9938 -0.8450
  749MOL0     C 1013   5.955   9.072   0.115  0.1295 -0.1667  0.1499
  749MOL0     C 1014   5.842   8.994   0.076  0.2010 -0.2077 -0.5952
  749MOL0     C 1015   5.784   8.901   0.171 -0.8097 -0.4907 -0.3876
  749MOL0     O 1016   5.697   8.796   0.134 -0.4323  0.1277  0.3002
  749MOL0     C 1017   5.666   8.787  -0.004  0.0348 -0.2728 -0.2841
  749MOL0     C 1018   5.566   8.675  -0.020  0.1596  0.4781 -0.8677
  749MOL0     C 1019   5.526   8.635  -0.162  0.1095 -0.4443  0.0239
  749MOL0     C 1020   5.486   8.748  -0.250 -0.0427  0.0857  0.1617
  749MOL0     C 1021   5.351   8.797  -0.203  0.0499 -0.5019 -0.5014
  749MOL0     C 1022   5.322   8.909  -0.301  0.1587  0.4032 -0.0409
  749MOL0     C 1023   5.173   8.951  -0.311  1.0830 -0.1087  0.7425
  749MOL0     C 1024   5.148   9.041  -0.431 -0.3251  0.5754  0.0900
  749MOL0    Cl 1025   4.994   9.119  -0.421 -0.4968 -0.0012  0.2352
  749MOL0     C 1026   5.810   8.925   0.300 -0.3033 -0.1220  0.0286
  749MOL0     C 1027   5.907   9.016   0.349 -0.1519  0.9430 -0.5496
  749MOL0     O 1028   5.966   9.317   0.376 -0.6440  0.2366 -0.0045
  749MOL0     C 1029   6.335   9.310   0.352  0.2042  0.8260  0.8028
  749MOL0     C 1030   6.448   9.390   0.356  0.0698 -0.6571 -0.3114
  749MOL0     N 1031   6.902   9.849   0.306 -0.0290  1.1530  0.9296
  749MOL0     N 1032   6.944   9.966   0.304  0.5840  0.2197  0.3949
  749MOL0     C 1033   7.125   9.339  -0.105  0.0233 -0.6951  0.1951
  749MOL0     C 1034   7.012   9.262  -0.095 -0.5273 -0.0473 -0.5820
  749MOL0     C 1035   6.588   9.113  -0.023 -0.8023 -0.4540  1.0593
  749MOL0     C 1036   6.565   9.028  -0.140  0.3755 -1.1799 -0.0748
  749MOL0     C 1037   6.461   8.942  -0.132  0.0986  0.7168 -0.4019
  749MOL0     C 1038   6.385   8.928  -0.020 -0.1966  0.2459  0.6575
  749MOL0     O 1039   6.291   8.832  -0.010  0.2853  0.3047  0.1653
  749MOL0     C 1040   6.212   8.772  -0.122 -0.0577 -0.2673  0.9541
  749MOL0     C 1041   6.060   8.784  -0.099 -1.1892 -1.1170  0.2224
  749MOL0     C 1042   5.979   8.706  -0.205  0.0745 -0.0135 -0.0842
  749MOL0     C 1043   5.939   8.567  -0.161  0.2801  0.0135  0.5918
  749MOL0     C 1044   6.054   8.479  -0.155  0.4741  0.2819  0.0166
  749MOL0     C 1045   6.140   8.399  -0.154 -0.4506 -0.1004  0.2922
  749MOL0     C 1046   6.412   8.995   0.095 -0.1210  0.7629  0.2369
  749MOL0     C 1047   6.519   9.082   0.102  0.0500  0.7025  0.4651
  749MOL0     H 1048   6.791   9.468  -0.253 -1.1839 -1.0823  0.2502
  749MOL0     H 1049   7.005   9.602  -0.265  4.2505 -0.9113 -0.7950
  749MOL0     H 1050   7.326   9.501  -0.030 -3.5898  0.4978  0.4939
  749MOL0     H 1051   7.379   9.453  -0.189  0.7793 -1.4760  3.1542
  749MOL0     H 1052   7.520   9.651  -0.131  0.9664  3.0398 -0.0805
  749MOL0     H 1053   7.422   9.686  -0.259 -2.7407  0.2292 -0.2879
  749MOL0     H 1054   7.243   9.797  -0.124 -1.1088 -1.2369 -1.0876
  749MOL0     H 1055   7.334   9.740   0.020  2.6904 -1.8907 -1.5065
  749MOL0     H 1056   7.519   9.898  -0.061  0.6445  0.5072 -1.4692
  749MOL0     H 1057   7.421   9.950  -0.199 -1.3614 -1.1715 -0.3005
  749MOL0     H 1058   7.411  10.113  -0.052  0.8772 -0.2789 -0.3420
  749MOL0     H 1059   7.250  10.040  -0.056 -1.7947 -0.9686  3.2837
  749MOL0     H 1060   7.319   9.902   0.162 -0.1962  0.0935 -0.7155
  749MOL0     H 1061   7.455  10.014   0.166 -0.8675  0.5592  2.1141
  749MOL0     H 1062   7.288  10.097   0.322  1.6439 -0.0605  0.6092
  749MOL0     H 1063   7.318  10.205   0.200 -2.0345  0.8330 -3.2067
  749MOL0     H 1064   7.092  10.136   0.078 -0.5766 -0.2364 -0.0634
  749MOL0     H 1065   7.069  10.191   0.247 -0.7420 -0.2360  0.3748
  749MOL0     H 1066   7.113   9.824   0.062 -3.1205  0.0427 -1.3466
  749MOL0     H 1067   7.056   9.566   0.166 -1.4124 -1.1725 -0.0404
  749MOL0     H 1068   6.965   9.578   0.302 -0.6914 -1.7201 -1.0441
  749MOL0     H 1069   6.860   9.468   0.111 -2.2603 -0.6850 -0.4825
  749MOL0     H 1070   6.839   9.606   0.024 -1.7683 -2.8139 -0.5987
  749MOL0     H 1071   6.635   9.547   0.129 -2.9918  2.5622  0.0149
  749MOL0     H 1072   6.687   9.707   0.166  1.1298 -0.2582 -1.2147
  749MOL0     H 1073   6.765   9.599   0.401 -0.2693  0.2329  0.8415
  749MOL0     H 1074   6.690   9.459   0.333  1.5482  0.6637  2.5842
  749MOL0     H 1075   6.307   9.683   0.399 -1.1169 -0.1378 -0.7445
  749MOL0     H 1076   5.984   9.554   0.302  0.7517 -2.7299  0.5712
  749MOL0     H 1077   6.030   9.588   0.475 -0.9556 -1.3061 -0.3998
  749MOL0     H 1078   6.071   9.692   0.343  0.4090 -0.0092 -0.0150
  749MOL0     H 1079   6.007   9.122   0.034 -0.0490  0.4744  0.4187
  749MOL0     H 1080   5.809   8.992  -0.027  1.2682 -0.0527 -0.9499
  749MOL0     H 1081   5.641   8.888  -0.037  4.0649  1.8257  2.2583
  749MOL0     H 1082   5.760   8.767  -0.056 -1.7915 -0.4310 -3.8185
  749MOL0     H 1083   5.601   8.589   0.038  0.0157  0.3882 -0.9140
  749MOL0     H 1084   5.474   8.695   0.035 -0.2868 -2.4037 -0.3793
  749MOL0     H 1085   5.449   8.558  -0.174 -1.7181  1.0118  1.7257
  749MOL0     H 1086   5.621   8.603  -0.206  0.7560  1.2469  0.1102
  749MOL0     H 1087   5.554   8.832  -0.231 -1.5033  0.8340  2.5955
  749MOL0     H 1088   5.478   8.724  -0.356  0.6429 -1.4475  0.4376
  749MOL0     H 1089   5.346   8.830  -0.099 -1.6338 -1.1652 -0.3502
  749MOL0     H 1090   5.272   8.722  -0.209  1.8274 -2.8250  2.3234
  749MOL0     H 1091   5.374   8.997  -0.261  1.3272 -1.0659  1.8581
  749MOL0     H 1092   5.359   8.891  -0.402 -1.8370 -1.1031 -0.5754
  749MOL0     H 1093   5.151   9.010  -0.222  2.4416  1.1082  0.3101
  749MOL0     H 1094   5.113   8.860  -0.323  1.4641 -0.3062  0.3119
  749MOL0     H 1095   5.147   8.976  -0.519 -1.6929  1.0846 -0.3012
  749MOL0     H 1096   5.224   9.119  -0.442 -0.7822  0.9879 -0.2043
  749MOL0     H 1097   5.740   8.871   0.363 -3.8312  4.0797  0.1479
  749MOL0     H 1098   5.924   9.043   0.453  2.9734  1.0167 -0.9735
  749MOL0     H 1099   6.345   9.205   0.325 -1.8810  1.3628 -2.8237
  749MOL0     H 1100   6.531   9.323   0.378 -1.4549 -2.3772  0.3847
  749MOL0     H 1101   7.214   9.300  -0.054 -0.7778  1.0858  3.2323
  749MOL0     H 1102   7.028   9.168  -0.043  1.6312  0.5657 -0.0637
  749MOL0     H 1103   6.617   9.049  -0.233  0.5538  2.1136  0.6408
  749MOL0     H 1104   6.435   8.883  -0.219  3.1162  1.9864 -2.3705
  749MOL0     H 1105   6.236   8.825  -0.214 -1.0793 -0.2931  0.6627
  749MOL0     H 1106   6.231   8.665  -0.134 -3.2287 -0.8145 -0.0109
  749MOL0     H 1107   6.033   8.890  -0.108  0.8431 -0.5338  0.4456
  749MOL0     H 1108   6.028   8.734  -0.007  1.2761  0.2510  1.9237
  749MOL0     H 1109   6.035   8.696  -0.299 -0.4220  2.5157 -0.7190
  749MOL0     H 1110   5.886   8.755  -0.234  0.6699 -0.2661 -2.6555
  749MOL0     H 1111   5.868   8.526  -0.233 -1.7350  0.4172  2.2791
  749MOL0     H 1112   5.892   8.564  -0.063 -1.6742 -0.5498 -0.3185
  749MOL0     H 1113   6.206   8.316  -0.145 -0.4512 -0.3529 -1.6127
  749MOL0     H 1114   6.342   8.979   0.177 -2.4179 -2.1352 -2.0748
  749MOL0     H 1115   6.542   9.134   0.195 -1.1884  3.5605 -0.6938
  750MOL0     O 1116   1.801   0.574   9.501  0.6143  0.2159  0.2656
  750MOL0     C 1117   1.845   0.458   9.483  0.0697 -0.7537  0.1285
  750MOL0     O 1118   1.766   0.347   9.465 -0.6384  0.2372 -0.4038
  750MOL0     C 1119   1.627   0.352   9.460 -0.2669  1.0246  0.2439
  750MOL0     C 1120   1.566   0.231   9.419 -0.2024 -0.0415  0.7195
  750MOL0     C 1121   1.429   0.228   9.398  0.8845 -0.3671 -0.1150
  750MOL0     C 1122   1.342   0.328   9.434  0.1287 -0.3892  0.4810
  750MOL0     O 1123   1.206   0.294   9.433 -0.1521 -0.0232  0.5744
  750MOL0     C 1124   1.113   0.398   9.473  0.4991  0.3911  0.3604
  750MOL0     C 1125   0.966   0.358   9.449  0.6788 -0.2561 -1.4705
  750MOL0     C 1126   0.877   0.494   9.462  1.3719 -0.8460 -0.1102
  750MOL0     C 1127   0.721   0.460   9.425 -1.6388  0.0176  0.0790
  750MOL0     C 1128   0.665   0.386   9.539  0.4739 -0.0544 -0.7764
  750MOL0     C 1129   0.557   0.295   9.489  0.0703  0.2802 -0.1655
  750MOL0     C 1130   0.439   0.366   9.426 -0.0942  0.3808  0.3077
  750MOL0     C 1131   0.346   0.265   9.371 -0.0116  1.0639  0.1971
  750MOL0     N 1132   0.213   0.315   9.345 -0.1461 -0.0442 -0.1492
  750MOL0     C 1133   0.176   0.426   9.273 -0.3867  0.6578  0.6292
  750MOL0     C 1134   0.040   0.420   9.261  0.5989 -0.4663  0.5422
  750MOL0     C 1135  -0.057   0.515   9.184 -0.6164  0.2447 -0.1451
  750MOL0     C 1136  -0.094   0.628   9.266  1.0128 -0.4059  0.9177
  750MOL0     C 1137  -0.247   0.618   9.294 -0.2811  0.5956 -0.1297
  750MOL0     C 1138  -0.269   0.525   9.416  0.9244 -0.6715 -0.5949
  750MOL0     O 1139  -0.403   0.464   9.435 -0.3754  0.3211  0.1780
  750MOL0     C 1140  -0.512   0.534   9.399 -0.5114 -0.2715  0.7509
  750MOL0     C 1141  -0.593   0.488   9.296 -0.6751 -0.3269  0.4208
  750MOL0     C 1142  -0.693   0.570   9.248  0.6449  0.3654  0.3185
  750MOL0     C 1143  -0.784   0.508   9.143  0.1687  0.2040 -0.1762
  750MOL0     C 1144  -0.706   0.701   9.288 -0.6690  0.9551 -0.6840
  750MOL0     C 1145  -0.809   0.795   9.232  0.2205  1.0805 -0.1980
  750MOL0     O 1146  -0.804   0.913   9.297  0.0840 -0.1811 -0.0102
  750MOL0     C 1147  -0.890   1.011   9.249  0.0796 -0.3941 -0.0261
  750MOL0     C 1148  -0.838   1.100   9.161 -0.1339 -0.0303 -0.1757
  750MOL0     C 1149  -0.920   1.188   9.087  0.1912  0.6265  0.3063
  750MOL0     C 1150  -1.056   1.190   9.113  0.3165  0.4698 -0.2621
  750MOL0     O 1151  -1.157   1.255   9.048 -0.2869 -0.4442  0.7938
  750MOL0     C 1152  -1.116   1.339   8.937 -0.1303  0.7663  0.0986
  750MOL0     C 1153  -1.246   1.375   8.851 -0.4691 -0.2812 -0.5391
  750MOL0     C 1154  -1.314   1.477   8.945 -0.0996 -0.1470 -0.2463
  750MOL0     C 1155  -1.441   1.534   8.875  0.4249  0.6764  0.2524
  750MOL0     C 1156  -1.537   1.630   8.954  0.2852 -0.1295  0.3697
  750MOL0     C 1157  -1.651   1.675   8.870 -0.4754  0.6130  0.7603
  750MOL0     C 1158  -1.749   1.771   8.934 -0.2946 -0.2079 -0.5463
  750MOL0     C 1159  -1.775   1.757   9.080 -0.3009  0.0822  1.0133
  750MOL0    Cl 1160  -1.928   1.857   9.107 -0.1700 -0.4739  0.2145
  750MOL0     C 1161  -1.112   1.102   9.204  0.8168 -0.5406  0.7628
  750MOL0     C 1162  -1.030   1.011   9.271  0.0320  0.0187 -0.7527
  750MOL0     O 1163  -0.875   0.781   9.125  0.3940 -0.4421  0.6235
  750MOL0     C 1164  -0.627   0.736   9.393  0.1015 -0.8978 -0.1582
  750MOL0     C 1165  -0.525   0.662   9.446 -0.7122  0.2731  0.3580
  750MOL0     N 1166  -0.001   0.303   9.323  0.6105 -0.0262 -0.3204
  750MOL0     N 1167   0.100   0.242   9.367 -0.0189  0.0147  0.2231
  750MOL0     C 1168   1.405   0.446   9.483  0.9446 -0.3525 -0.6913
  750MOL0     C 1169   1.541   0.455   9.496 -0.1960 -0.9741 -0.1864
  750MOL0     C 1170   1.986   0.437   9.464 -1.1785  0.0802 -0.1614
  750MOL0     C 1171   2.040   0.311   9.421 -0.4693 -0.0384  0.3131
  750MOL0     C 1172   2.175   0.299   9.399 -0.7064 -0.1050  0.4732
  750MOL0     C 1173   2.273   0.399   9.430  0.7760  0.1548  0.4213
  750MOL0     O 1174   2.403   0.375   9.418 -0.3408  0.3482  0.4631
  750MOL0     C 1175   2.490   0.483   9.464  0.6604  0.4095  0.4366
  750MOL0     C 1176   2.636   0.437   9.447  0.3510 -0.1967 -0.1323
  750MOL0     C 1177   2.691   0.502   9.314 -0.0482  0.0109 -0.1726
  750MOL0     C 1178   2.843   0.455   9.309  0.3076 -0.2721  0.0807
  750MOL0     C 1179   2.923   0.561   9.242 -0.6858  1.3143 -0.4962
  750MOL0     C 1180   3.010   0.638   9.201  0.5604 -0.2108  0.6508
  750MOL0     C 1181   2.221   0.529   9.461  0.0667  0.4009 -0.6286
  750MOL0     C 1182   2.079   0.543   9.484 -0.5617  0.5524  0.4817
  750MOL0     H 1183   1.638   0.153   9.399 -1.5460 -0.6829 -2.0593
  750MOL0     H 1184   1.383   0.142   9.350 -0.5192 -1.1595  2.4524
  750MOL0     H 1185   1.144   0.407   9.577  2.5415 -1.0123 -0.0660
  750MOL0     H 1186   1.122   0.494   9.420  0.7211  0.5446  0.6775
  750MOL0     H 1187   0.949   0.322   9.347 -0.6514 -4.5318  0.0376
  750MOL0     H 1188   0.941   0.277   9.517  1.2811  1.2835  0.7076
  750MOL0     H 1189   0.868   0.542   9.560  1.2900 -0.1687 -0.4460
  750MOL0     H 1190   0.920   0.569   9.395  1.5030 -0.7780  0.0502
  750MOL0     H 1191   0.673   0.557   9.408 -1.0474  0.4573  0.8601
  750MOL0     H 1192   0.719   0.414   9.326  2.1827  1.9475 -1.0955
  750MOL0     H 1193   0.745   0.331   9.590 -0.3828 -0.2163  0.4423
  750MOL0     H 1194   0.620   0.458   9.608  1.9517  1.8184 -1.6898
  750MOL0     H 1195   0.618   0.239   9.417  0.6032  0.7738 -0.1023
  750MOL0     H 1196   0.525   0.226   9.568  0.8768  0.0793 -0.0003
  750MOL0     H 1197   0.400   0.429   9.506 -1.2692 -1.4595  1.2762
  750MOL0     H 1198   0.471   0.428   9.342 -2.5087 -2.7876 -3.3045
  750MOL0     H 1199   0.341   0.185   9.446 -0.2504  0.8109 -0.0878
  750MOL0     H 1200   0.389   0.223   9.279  1.1196  0.5238  0.9514
  750MOL0     H 1201   0.235   0.511   9.241 -1.1788  0.9792  0.0070
  750MOL0     H 1202  -0.005   0.553   9.096  0.8989 -1.4536 -0.0561
  750MOL0     H 1203  -0.137   0.457   9.137 -0.1268  0.7430 -1.6198
  750MOL0     H 1204  -0.086   0.718   9.204  1.4712  0.5472  2.3414
  750MOL0     H 1205  -0.039   0.640   9.359  0.2326 -0.4111  1.3931
  750MOL0     H 1206  -0.303   0.556   9.223 -1.8428 -0.7299  2.1260
  750MOL0     H 1207  -0.300   0.713   9.302  0.0532  0.9191 -1.5107
  750MOL0     H 1208  -0.252   0.586   9.505  1.4705 -1.0801 -0.4098
  750MOL0     H 1209  -0.190   0.450   9.417  0.9882 -0.6140 -1.3123
  750MOL0     H 1210  -0.586   0.383   9.271  0.9966  0.1300 -1.2139
  750MOL0     H 1211  -0.766   0.530   9.037  1.4449 -1.7058 -0.4097
  750MOL0     H 1212  -0.768   0.401   9.161  1.9713  0.7655  2.0470
  750MOL0     H 1213  -0.888   0.536   9.163  0.4199  0.8445  0.2562
  750MOL0     H 1214  -0.731   1.101   9.141  0.3667  0.4439  2.2494
  750MOL0     H 1215  -0.881   1.257   9.012 -3.4484 -0.2203 -2.6106
  750MOL0     H 1216  -1.068   1.433   8.966  0.0254  1.0419 -1.0126
  750MOL0     H 1217  -1.057   1.277   8.868 -1.8920  1.0643 -1.7618
  750MOL0     H 1218  -1.210   1.420   8.758 -1.4822  3.0121  0.5102
  750MOL0     H 1219  -1.313   1.290   8.836  1.8781 -2.8980  2.2979
  750MOL0     H 1220  -1.246   1.560   8.967  0.7243 -0.2570 -2.1702
  750MOL0     H 1221  -1.335   1.438   9.045  0.1921  0.6005  0.1157
  750MOL0     H 1222  -1.415   1.570   8.775  4.5316 -2.5592 -0.1528
  750MOL0     H 1223  -1.496   1.441   8.861  0.6557  0.3242  1.5353
  750MOL0     H 1224  -1.477   1.714   8.990  0.3428  0.3164 -0.7455
  750MOL0     H 1225  -1.568   1.585   9.049 -0.6157  2.4696  1.3947
  750MOL0     H 1226  -1.618   1.715   8.774 -2.4264  0.5065 -0.0041
  750MOL0     H 1227  -1.709   1.591   8.830 -1.4122  2.3933 -1.9092
  750MOL0     H 1228  -1.844   1.765   8.879 -0.6995  0.7053  0.0273
  750MOL0     H 1229  -1.709   1.872   8.921  0.3901 -0.3119  0.6003
  750MOL0     H 1230  -1.696   1.802   9.140  2.0023  0.5762 -2.1691
  750MOL0     H 1231  -1.776   1.651   9.106  3.7617 -0.7272 -1.3550
  750MOL0     H 1232  -1.218   1.090   9.225  1.4731 -0.5604  4.9709
  750MOL0     H 1233  -1.067   0.941   9.346  0.7140  0.6591  0.1933
  750MOL0     H 1234  -0.648   0.833   9.437 -0.9927 -0.9552 -0.5314
  750MOL0     H 1235  -0.458   0.706   9.520 -0.1402  0.2974 -0.1645
  750MOL0     H 1236   1.342   0.527   9.517  2.0303  0.8053 -1.3355
  750MOL0     H 1237   1.580   0.546   9.540  1.7071 -2.0786  0.4964
  750MOL0     H 1238   1.976   0.223   9.411 -2.1435  1.1296  0.2629
  750MOL0     H 1239   2.210   0.199   9.374 -2.2623 -1.5142  3.3000
  750MOL0     H 1240   2.463   0.573   9.409 -1.9376 -0.2424  0.5285
  750MOL0     H 1241   2.463   0.511   9.566  0.1731  1.9554 -0.0985
  750MOL0     H 1242   2.630   0.329   9.430 -0.8263 -0.5843  2.3190
  750MOL0     H 1243   2.697   0.455   9.536 -3.1102 -0.2564  2.4653
  750MOL0     H 1244   2.683   0.611   9.316  5.7476  0.7742  0.2730
  750MOL0     H 1245   2.627   0.464   9.234  1.7060 -0.7021 -1.3193
  750MOL0     H 1246   2.851   0.357   9.260  0.8960  1.2426 -3.1275
  750MOL0     H 1247   2.899   0.430   9.399  3.8719 -2.7795 -2.5758
  750MOL0     H 1248   3.081   0.712   9.169 -0.4542  0.3395 -0.3940
  750MOL0     H 1249   2.286   0.615   9.474 -1.8730  1.6659  1.3665
  750MOL0     H 1250   2.048   0.639   9.525  1.2647  0.4314  2.2901
  751MOL0     O 1251  11.109   2.953   5.087 -0.2608  0.1156 -0.3663
  751MOL0     C 1252  11.088   3.068   5.042 -0.2610 -0.3139 -0.2259
  751MOL0     O 1253  11.181   3.149   4.987 -0.2510 -0.7904 -0.4925
  751MOL0     C 1254  11.313   3.123   4.994  0.1744 -0.6874 -0.3034
  751MOL0     C 1255  11.386   3.082   5.111 -0.0058  0.5849  0.1621
  751MOL0     C 1256  11.524   3.062   5.106 -0.6329  0.3363  0.1997
  751MOL0     C 1257  11.598   3.087   4.992  0.7112  0.1837  0.9513
  751MOL0     O 1258  11.733   3.061   4.983  0.1253 -0.3829 -0.9648
  751MOL0     C 1259  11.792   2.979   5.081  0.0525  0.4732  0.2573
  751MOL0     C 1260  11.944   2.967   5.065  0.2348 -0.5392 -0.4650
  751MOL0     C 1261  11.992   2.865   5.165 -0.5536  0.8411  0.2649
  751MOL0     C 1262  12.146   2.853   5.152  0.4494 -0.8075 -0.6194
  751MOL0     C 1263  12.211   2.772   5.271 -0.0305 -0.7288  0.7185
  751MOL0     C 1264  12.359   2.774   5.248  0.1460 -0.1382 -0.9626
  751MOL0     C 1265  12.435   2.730   5.374  0.0785 -1.1354  0.4072
  751MOL0     C 1266  12.590   2.739   5.356  0.4637  0.5524 -1.2465
  751MOL0     N 1267  12.671   2.667   5.452 -0.4695  0.2233  0.0425
  751MOL0     C 1268  12.663   2.537   5.485  0.4064 -0.4343 -0.0504
  751MOL0     C 1269  12.770   2.519   5.572  1.0062 -0.4050 -0.7103
  751MOL0     C 1270  12.793   2.391   5.644 -0.4453 -0.1211 -0.3722
  751MOL0     C 1271  12.780   2.389   5.795  0.0325 -0.3740 -0.6807
  751MOL0     C 1272  12.635   2.405   5.851 -0.0554  0.3837 -0.7025
  751MOL0     C 1273  12.585   2.258   5.861  0.2974 -0.2762  0.0418
  751MOL0     O 1274  12.441   2.245   5.896  0.8963  0.3467  0.4229
  751MOL0     C 1275  12.350   2.297   5.814  0.4696  0.1014  0.0329
  751MOL0     C 1276  12.380   2.320   5.681  0.5206  0.0128  0.7470
  751MOL0     C 1277  12.278   2.342   5.587  0.0238  0.0479  0.2616
  751MOL0     C 1278  12.314   2.345   5.445  1.5670 -0.1561  0.2620
  751MOL0     C 1279  12.144   2.362   5.637  0.7395  0.2216 -0.2158
  751MOL0     C 1280  12.024   2.406   5.553 -0.6264 -0.2939 -0.2327
  751MOL0     O 1281  12.048   2.522   5.475 -0.3245  0.2387  0.0746
  751MOL0     C 1282  11.943   2.547   5.391 -0.4650  0.1354 -0.3194
  751MOL0     C 1283  11.879   2.656   5.430  0.2466 -0.0426  0.8130
  751MOL0     C 1284  11.763   2.697   5.365 -0.3534  0.9537  0.1317
  751MOL0     C 1285  11.711   2.619   5.251 -0.5738 -0.2666  0.1073
  751MOL0     O 1286  11.599   2.678   5.202 -1.4642 -0.1894  0.4531
  751MOL0     C 1287  11.522   2.613   5.099  0.4196  0.0521  0.2639
  751MOL0     C 1288  11.414   2.709   5.033  0.1490 -0.6026 -0.0053
  751MOL0     C 1289  11.342   2.642   4.919 -0.3275  0.2939  0.2637
  751MOL0     C 1290  11.225   2.714   4.855  0.5061 -0.2045 -0.6193
  751MOL0     C 1291  11.196   2.645   4.719  0.4860  0.3238  0.5276
  751MOL0     C 1292  11.061   2.696   4.670 -0.2843 -0.8903  0.9365
  751MOL0     C 1293  11.052   2.854   4.654  0.0028  0.0440 -0.5906
  751MOL0     C 1294  10.940   2.901   4.569  0.5771 -0.4963  0.3189
  751MOL0    Cl 1295  10.788   2.834   4.625  0.4958  0.2543  0.0099
  751MOL0     C 1296  11.793   2.508   5.210  0.4738  0.6884  0.0476
  751MOL0     C 1297  11.912   2.479   5.276 -0.6666 -0.5453 -0.1194
  751MOL0     O 1298  11.913   2.347   5.555 -0.2258  0.2162 -0.3988
  751MOL0     C 1299  12.112   2.350   5.770 -0.0801 -0.5022 -0.1905
  751MOL0     C 1300  12.220   2.315   5.856  0.1072 -0.3744 -0.2287
  751MOL0     N 1301  12.848   2.635   5.576  0.3363 -0.4601 -1.0889
  751MOL0     N 1302  12.775   2.724   5.515  0.0396  0.3760 -0.3414
  751MOL0     C 1303  11.535   3.138   4.881  0.5948 -0.3944  0.5556
  751MOL0     C 1304  11.391   3.154   4.884 -0.4830  0.3376 -0.9801
  751MOL0     C 1305  10.958   3.130   5.067 -0.9170  0.4495 -0.1289
  751MOL0     C 1306  10.938   3.259   5.023 -0.7537 -0.1433  1.0591
  751MOL0     C 1307  10.812   3.316   5.048  0.5653  0.2050  0.7389
  751MOL0     C 1308  10.712   3.249   5.123  0.0040 -0.9856  0.2035
  751MOL0     O 1309  10.590   3.308   5.135 -0.0302  0.6501 -0.7315
  751MOL0     C 1310  10.528   3.290   5.259  0.0236 -0.3190 -0.1367
  751MOL0     C 1311  10.400   3.390   5.273 -0.5010  0.0444  1.3589
  751MOL0     C 1312  10.278   3.351   5.197 -0.7884  0.6245 -0.1972
  751MOL0     C 1313  10.170   3.451   5.231  0.6542  0.8057  0.9703
  751MOL0     C 1314  10.195   3.566   5.150  0.2341 -0.4616  0.1688
  751MOL0     C 1315  10.222   3.651   5.064 -0.1682 -0.2834  0.4758
  751MOL0     C 1316  10.738   3.125   5.168  0.6787  0.1484  0.7307
  751MOL0     C 1317  10.859   3.062   5.143 -1.2417 -0.5468 -0.4836
  751MOL0     H 1318  11.327   3.057   5.198 -3.0968 -0.6985 -2.0886
  751MOL0     H 1319  11.549   3.006   5.195  2.5153  0.1824 -0.6510
  751MOL0     H 1320  11.775   3.008   5.185 -0.6582  1.2736 -0.0677
  751MOL0     H 1321  11.754   2.880   5.057 -3.8882  2.6624 -4.0115
  751MOL0     H 1322  11.965   2.943   4.961  0.8127  0.9212 -0.7079
  751MOL0     H 1323  11.999   3.061   5.075  1.1408 -1.2945  3.1086
  751MOL0     H 1324  11.971   2.892   5.269  0.4255 -0.8241  0.9369
  751MOL0     H 1325  11.949   2.765   5.152 -0.4237  0.7489  0.5343
  751MOL0     H 1326  12.153   2.786   5.066 -1.1922 -1.1746 -0.5046
  751MOL0     H 1327  12.195   2.950   5.142  4.4407 -2.6519 -0.9396
  751MOL0     H 1328  12.192   2.822   5.367  5.0827  1.2267  1.0058
  751MOL0     H 1329  12.180   2.668   5.283  2.7914 -1.4852  2.3141
  751MOL0     H 1330  12.390   2.709   5.165  1.7327 -0.5272 -0.1062
  751MOL0     H 1331  12.410   2.870   5.239  2.2867 -1.0541  0.5914
  751MOL0     H 1332  12.404   2.804   5.448 -1.9517  1.2453 -2.5943
  751MOL0     H 1333  12.395   2.638   5.417 -0.7699 -0.7753  0.4107
  751MOL0     H 1334  12.628   2.842   5.359  1.6232  0.1219 -0.6462
  751MOL0     H 1335  12.605   2.689   5.260 -0.3568 -4.0794  0.7902
  751MOL0     H 1336  12.588   2.464   5.455 -1.9076  0.9528  1.9650
  751MOL0     H 1337  12.736   2.310   5.598  0.6263 -1.0146 -0.1623
  751MOL0     H 1338  12.900   2.375   5.636 -0.2050 -1.2172  3.2552
  751MOL0     H 1339  12.846   2.465   5.836  0.0741 -0.4312 -0.6419
  751MOL0     H 1340  12.821   2.301   5.845  1.9694  0.0776 -1.3773
  751MOL0     H 1341  12.572   2.470   5.789  0.5749  2.8014  1.0680
  751MOL0     H 1342  12.636   2.456   5.948  0.7220  0.4702 -0.7506
  751MOL0     H 1343  12.627   2.213   5.952 -1.2641  2.6624  2.4180
  751MOL0     H 1344  12.604   2.194   5.775 -0.7895 -0.8254  0.1872
  751MOL0     H 1345  12.483   2.303   5.649  0.2133  1.7548 -1.3923
  751MOL0     H 1346  12.223   2.318   5.389  1.6601  0.2211 -0.0792
  751MOL0     H 1347  12.335   2.447   5.410  2.9334 -0.7998 -0.9130
  751MOL0     H 1348  12.383   2.264   5.420 -0.4743 -2.1403  0.7705
  751MOL0     H 1349  11.911   2.716   5.515 -1.0779  0.6765  0.8300
  751MOL0     H 1350  11.715   2.786   5.404 -1.3653  1.9137 -2.9502
  751MOL0     H 1351  11.595   2.595   5.019  0.1923  1.8009 -0.3879
  751MOL0     H 1352  11.470   2.527   5.140  1.1051  0.0251  1.0988
  751MOL0     H 1353  11.341   2.735   5.110  0.1006  0.6534 -0.4481
  751MOL0     H 1354  11.464   2.801   5.000 -0.2910  0.1662  1.4068
  751MOL0     H 1355  11.316   2.542   4.956 -0.0312  0.5849  1.2869
  751MOL0     H 1356  11.418   2.608   4.848  0.1327  0.1792  0.8029
  751MOL0     H 1357  11.142   2.703   4.926  0.3339 -0.7300 -0.8968
  751MOL0     H 1358  11.254   2.818   4.843  0.5885 -0.2336 -0.6713
  751MOL0     H 1359  11.179   2.540   4.743 -3.9280 -0.0150 -2.8845
  751MOL0     H 1360  11.281   2.661   4.652  0.1262  1.1026  0.2389
  751MOL0     H 1361  11.050   2.662   4.567  0.1306  0.3858  0.4540
  751MOL0     H 1362  10.979   2.670   4.739 -1.0039  2.5381  1.5336
  751MOL0     H 1363  11.141   2.894   4.605 -0.3641  0.2083 -1.1269
  751MOL0     H 1364  11.039   2.882   4.759  2.1463 -0.5726 -0.0957
  751MOL0     H 1365  10.950   2.881   4.462 -0.1637 -0.5481  0.2541
  751MOL0     H 1366  10.917   3.006   4.587 -2.8150 -1.3328  1.7378
  751MOL0     H 1367  11.756   2.461   5.120  1.2494 -0.3740  0.2693
  751MOL0     H 1368  11.976   2.393   5.264 -0.9456 -0.9546  1.1816
  751MOL0     H 1369  12.009   2.356   5.804 -0.7862 -1.5140 -2.0210
  751MOL0     H 1370  12.223   2.302   5.963  2.2030  0.0070 -0.1989
  751MOL0     H 1371  11.598   3.159   4.796  3.1923 -0.1630  2.4218
  751MOL0     H 1372  11.349   3.203   4.797 -0.2052 -0.3034 -1.4891
  751MOL0     H 1373  11.005   3.314   4.959 -1.8712 -1.2583 -1.1656
  751MOL0     H 1374  10.785   3.413   5.007 -2.2491  0.1539  2.2066
  751MOL0     H 1375  10.488   3.188   5.269 -0.6467 -0.1706 -1.1248
  751MOL0     H 1376  10.591   3.307   5.346 -3.1810  1.8756  1.9713
  751MOL0     H 1377  10.426   3.493   5.247  1.3611 -1.3641 -3.5884
  751MOL0     H 1378  10.376   3.390   5.379 -1.7763  1.6728  1.1178
  751MOL0     H 1379  10.256   3.250   5.234  5.4594 -0.7038  1.1414
  751MOL0     H 1380  10.294   3.343   5.089  1.5131  0.6488  0.0996
  751MOL0     H 1381  10.171   3.472   5.339  2.0458 -1.9528  1.5864
  751MOL0     H 1382  10.068   3.418   5.209  1.9141 -2.1419 -1.1312
  751MOL0     H 1383  10.247   3.716   4.982  0.8463  0.2055  1.1538
  751MOL0     H 1384  10.665   3.066   5.223 -2.0470  2.0294 -0.6400
  751MOL0     H 1385  10.876   2.968   5.195 -4.8175 -0.8017  0.4819
  752MOL0     O 1386   3.269  10.048   1.746  0.8811  0.2643  0.0192
  752MOL0     C 1387   3.212   9.943   1.720  0.3483 -0.9227  0.1796
  752MOL0     O 1388   3.082   9.919   1.732 -0.2642 -0.2587  0.2176
  752MOL0     C 1389   3.007  10.035   1.727 -0.0690  0.8136 -0.0370
  752MOL0     C 1390   2.947  10.076   1.845  0.1433  0.2949 -0.1367
  752MOL0     C 1391   2.843  10.163   1.825 -0.3134 -0.4576 -0.1000
  752MOL0     C 1392   2.816  10.240   1.704 -1.0457  0.5629 -0.4070
  752MOL0     O 1393   2.721  10.336   1.684  0.2381  0.6612  0.1920
  752MOL0     C 1394   2.597  10.330   1.754 -0.7010 -0.7011 -0.1758
  752MOL0     C 1395   2.494  10.343   1.653  0.4560  0.9594  0.6730
  752MOL0     C 1396   2.354  10.353   1.706 -0.0126 -0.2269  0.9689
  752MOL0     C 1397   2.309  10.205   1.742 -0.3833 -0.6039  0.4845
  752MOL0     C 1398   2.157  10.220   1.789 -0.5808  0.4539 -0.2983
  752MOL0     C 1399   2.099  10.078   1.815  0.0534 -0.2733 -0.3898
  752MOL0     C 1400   1.947  10.084   1.823 -0.1286 -0.3855  0.4440
  752MOL0     C 1401   1.887   9.960   1.894  0.1228 -0.0961  0.1440
  752MOL0     N 1402   1.739   9.972   1.892 -0.0405 -1.1295  0.3426
  752MOL0     C 1403   1.657   9.955   1.782  0.8738 -0.2063  0.1442
  752MOL0     C 1404   1.530   9.976   1.836 -0.3099 -0.5382 -0.6218
  752MOL0     C 1405   1.404   9.964   1.757 -0.0448 -0.4193 -0.0536
  752MOL0     C 1406   1.408   9.856   1.644  1.1051 -0.5782  1.0010
  752MOL0     C 1407   1.267   9.805   1.591  0.0584 -0.9801 -0.3589
  752MOL0     C 1408   1.193   9.924   1.530 -0.0407  0.9853 -0.0473
  752MOL0     O 1409   1.100   9.888   1.431  0.2068  0.1234 -0.2337
  752MOL0     C 1410   0.973   9.842   1.464 -0.6171 -0.9371 -1.0693
  752MOL0     C 1411   0.890   9.823   1.354  0.0792  0.0721  0.6129
  752MOL0     C 1412   0.766   9.758   1.369  0.0800 -0.0725 -0.3294
  752MOL0     C 1413   0.698   9.729   1.232 -0.3522  0.9858 -0.5931
  752MOL0     C 1414   0.716   9.736   1.512  0.6603  0.3763  0.0711
  752MOL0     C 1415   0.592   9.672   1.536  0.0966 -0.1332  0.2778
  752MOL0     O 1416   0.593   9.599   1.648 -0.0827  0.4026  0.8220
  752MOL0     C 1417   0.481   9.524   1.686  0.6805  0.0159 -0.8659
  752MOL0     C 1418   0.350   9.574   1.674 -0.3805 -0.4813  0.3742
  752MOL0     C 1419   0.245   9.498   1.718  0.4404  0.7017  0.0258
  752MOL0     C 1420   0.260   9.376   1.786  0.3143  0.4141  0.0383
  752MOL0     O 1421   0.156   9.304   1.825  0.2605 -0.7437 -0.9451
  752MOL0     C 1422   0.167   9.197   1.924 -1.0070 -0.1069  0.5217
  752MOL0     C 1423   0.029   9.143   1.956  0.0459 -0.0013  0.3493
  752MOL0     C 1424  -0.056   9.254   2.014  0.4278  0.9356 -0.0878
  752MOL0     C 1425  -0.194   9.205   2.085  0.1506 -0.2951  0.1290
  752MOL0     C 1426  -0.199   9.123   2.214 -0.2474 -0.0970 -0.1279
  752MOL0     C 1427  -0.097   9.144   2.320 -0.4272 -0.3261 -0.3281
  752MOL0     C 1428  -0.119   9.049   2.437  1.0805 -0.2804 -0.2685
  752MOL0     C 1429   0.015   9.019   2.513 -0.8470 -0.4242 -0.4489
  752MOL0    Cl 1430   0.119   8.928   2.410 -0.1587 -0.1385  0.0324
  752MOL0     C 1431   0.392   9.328   1.785  0.1285  0.0501  0.2887
  752MOL0     C 1432   0.498   9.399   1.736  0.2333  0.2622 -0.3300
  752MOL0     O 1433   0.500   9.677   1.461  0.0197  0.4995  0.4157
  752MOL0     C 1434   0.807   9.768   1.620  0.8834  0.1331 -0.4485
  752MOL0     C 1435   0.934   9.818   1.593 -0.0441 -0.5207 -0.2949
  752MOL0     N 1436   1.545  10.022   1.964 -0.4784  0.7182  0.3487
  752MOL0     N 1437   1.668  10.004   2.002 -0.3498  0.1304 -0.0130
  752MOL0     C 1438   2.891  10.206   1.591 -0.4667 -0.9333  0.2088
  752MOL0     C 1439   2.988  10.106   1.605 -0.4441 -0.6093 -0.2251
  752MOL0     C 1440   3.296   9.830   1.669  0.7513  1.0782  0.4843
  752MOL0     C 1441   3.251   9.701   1.682  0.8143 -0.0526 -0.3234
  752MOL0     C 1442   3.313   9.598   1.618 -0.7498  0.6751  0.0111
  752MOL0     C 1443   3.433   9.617   1.548 -0.0777 -0.0374  0.4921
  752MOL0     O 1444   3.485   9.505   1.484 -0.4096  0.0948 -0.2179
  752MOL0     C 1445   3.587   9.518   1.385  0.4026  0.1978  0.1410
  752MOL0     C 1446   3.639   9.390   1.331  0.0478 -0.1881  0.4161
  752MOL0     C 1447   3.707   9.407   1.190 -0.9229 -0.3527  0.6151
  752MOL0     C 1448   3.753   9.277   1.122  0.8045  0.2224  0.2129
  752MOL0     C 1449   3.874   9.229   1.195 -0.7541  0.6122  0.8044
  752MOL0     C 1450   3.967   9.166   1.243  0.7172 -0.6222 -0.9039
  752MOL0     C 1451   3.491   9.749   1.548 -0.1956  0.4463 -0.1896
  752MOL0     C 1452   3.412   9.854   1.605 -0.5047 -0.6450  0.7981
  752MOL0     H 1453   2.971  10.037   1.943  0.9559  2.4440  0.5671
  752MOL0     H 1454   2.795  10.196   1.916  2.5167 -0.5729  1.5650
  752MOL0     H 1455   2.586  10.233   1.804 -1.6746  0.2063  1.4189
  752MOL0     H 1456   2.574  10.409   1.825  0.1630  0.3690 -1.0520
  752MOL0     H 1457   2.506  10.434   1.594 -0.1583 -0.0910 -1.1598
  752MOL0     H 1458   2.516  10.272   1.573 -0.4326  1.5316 -0.0945
  752MOL0     H 1459   2.352  10.422   1.791 -1.0004 -0.6960  1.3395
  752MOL0     H 1460   2.288  10.385   1.626 -0.0978 -0.3036  1.0083
  752MOL0     H 1461   2.307  10.134   1.659 -2.8404 -0.0506 -0.0083
  752MOL0     H 1462   2.374  10.171   1.823  1.7206 -1.4836 -1.4480
  752MOL0     H 1463   2.160  10.284   1.877  2.3304 -2.6218  2.1118
  752MOL0     H 1464   2.108  10.282   1.713 -1.0894  0.0095 -0.3430
  752MOL0     H 1465   2.132  10.011   1.735  2.0151  1.1092 -0.8336
  752MOL0     H 1466   2.148  10.034   1.901  0.5710  1.8819  0.4844
  752MOL0     H 1467   1.921  10.168   1.887 -1.1954 -1.3908  1.3706
  752MOL0     H 1468   1.903  10.110   1.726 -1.3888  0.7342  1.2785
  752MOL0     H 1469   1.928   9.959   1.995  0.6513 -1.0141 -0.0721
  752MOL0     H 1470   1.918   9.871   1.839 -2.7449 -0.8126 -0.4714
  752MOL0     H 1471   1.682   9.924   1.681 -0.3043 -1.3575  0.1788
  752MOL0     H 1472   1.317   9.939   1.818 -0.3252 -0.4613 -0.4659
  752MOL0     H 1473   1.390  10.057   1.701 -1.5016 -0.5990 -0.0327
  752MOL0     H 1474   1.468   9.769   1.675  1.3040 -0.1631  1.8070
  752MOL0     H 1475   1.461   9.894   1.556 -1.6362  1.0346 -0.0605
  752MOL0     H 1476   1.224   9.773   1.686  3.4034  0.1162  1.6885
  752MOL0     H 1477   1.283   9.725   1.517  1.8224 -2.0618  1.0868
  752MOL0     H 1478   1.260   9.998   1.485  1.5525 -0.8996 -0.9619
  752MOL0     H 1479   1.143   9.971   1.615  0.1039 -0.6392  0.9821
  752MOL0     H 1480   0.932   9.850   1.257  0.5301  0.8269  1.0099
  752MOL0     H 1481   0.633   9.641   1.237 -1.4116  1.5507 -2.9212
  752MOL0     H 1482   0.634   9.813   1.204 -3.3046 -0.4343  1.3817
  752MOL0     H 1483   0.764   9.697   1.151 -2.3002 -1.3945 -1.3733
  752MOL0     H 1484   0.328   9.674   1.639  2.5623  0.6716  1.5022
  752MOL0     H 1485   0.144   9.530   1.691  0.0544 -0.4976  0.0002
  752MOL0     H 1486   0.232   9.123   1.877  2.1173  3.5696 -1.5892
  752MOL0     H 1487   0.229   9.223   2.010  0.6278  1.5561 -1.0350
  752MOL0     H 1488  -0.008   9.113   1.858 -0.9826  0.2095  0.6596
  752MOL0     H 1489   0.032   9.058   2.025 -4.1211  0.7704  1.8212
  752MOL0     H 1490  -0.089   9.321   1.934  0.5700  1.6650  0.4430
  752MOL0     H 1491   0.011   9.306   2.084 -1.7457  2.1737  1.1888
  752MOL0     H 1492  -0.254   9.296   2.090  0.0584 -0.3971  1.1599
  752MOL0     H 1493  -0.252   9.150   2.011  3.0598 -0.2498 -2.3813
  752MOL0     H 1494  -0.195   9.016   2.191 -0.1094 -0.8926  3.1163
  752MOL0     H 1495  -0.296   9.137   2.261  0.9051 -1.5767  2.9710
  752MOL0     H 1496   0.007   9.127   2.293  1.0082  2.2843  2.8435
  752MOL0     H 1497  -0.103   9.248   2.353 -0.2499 -1.0231  2.1296
  752MOL0     H 1498  -0.164   8.952   2.415 -0.1519  0.1976  0.0614
  752MOL0     H 1499  -0.188   9.103   2.503  2.1360  0.5207  0.2031
  752MOL0     H 1500   0.003   8.964   2.606 -1.6152 -1.3923 -1.1078
  752MOL0     H 1501   0.057   9.116   2.543 -2.1499  0.1586 -0.4435
  752MOL0     H 1502   0.407   9.234   1.838  0.3283 -0.0592  0.0371
  752MOL0     H 1503   0.593   9.347   1.740 -0.8545 -1.7263  1.0883
  752MOL0     H 1504   0.787   9.745   1.725 -2.1210 -2.3386 -1.3833
  752MOL0     H 1505   0.997   9.835   1.680 -0.1126  0.3907 -0.4167
  752MOL0     H 1506   2.871  10.245   1.492 -0.2329 -0.9078  0.1729
  752MOL0     H 1507   3.032  10.064   1.515 -2.7016  0.3077 -1.8520
  752MOL0     H 1508   3.163   9.673   1.740  1.4532 -0.4185  0.4980
  752MOL0     H 1509   3.263   9.501   1.626  2.1904 -1.2447 -2.4463
  752MOL0     H 1510   3.558   9.583   1.302 -0.4268 -2.1692 -1.5117
  752MOL0     H 1511   3.671   9.568   1.435  2.0454 -4.2265  2.4326
  752MOL0     H 1512   3.561   9.313   1.322 -0.3009  0.4384 -3.2707
  752MOL0     H 1513   3.708   9.355   1.408  0.7688 -0.4786 -0.3491
  752MOL0     H 1514   3.784   9.483   1.203  0.7368 -1.5122 -1.6587
  752MOL0     H 1515   3.627   9.444   1.125 -0.0402  1.3855  0.4507
  752MOL0     H 1516   3.793   9.301   1.024  1.8700 -2.2515 -0.0339
  752MOL0     H 1517   3.675   9.201   1.111  1.0055  0.2061 -1.1992
  752MOL0     H 1518   4.052   9.123   1.291  0.5876  1.7918  1.7361
  752MOL0     H 1519   3.584   9.767   1.495  1.5368 -3.3678  1.2240
  752MOL0     H 1520   3.450   9.954   1.590 -0.5234 -1.0570 -3.1172
  753MOL0     O 1521   8.736   9.986   6.092 -0.4660  0.8352  0.0904
  753MOL0     C 1522   8.811   9.980   5.993 -0.2179 -0.7177  0.1739
  753MOL0     O 1523   8.770   9.991   5.859 -0.5377  0.4121 -0.6112
  753MOL0     C 1524   8.640   9.998   5.809 -0.0441 -0.0960 -0.3109
  753MOL0     C 1525   8.604   9.911   5.710  1.3146 -0.6414 -0.4154
  753MOL0     C 1526   8.471   9.926   5.652 -0.2499  0.3552 -0.4908
  753MOL0     C 1527   8.382  10.022   5.696  0.3438 -0.1564  0.1483
  753MOL0     O 1528   8.259  10.033   5.635  0.1027  0.1739  0.1859
  753MOL0     C 1529   8.212  10.157   5.583  0.0919  0.4296  0.2205
  753MOL0     C 1530   8.085  10.133   5.523  0.9993 -0.6151  0.3891
  753MOL0     C 1531   8.100  10.034   5.398  0.0224  0.1976  0.3887
  753MOL0     C 1532   7.959   9.992   5.343  0.4049 -0.5899  0.1892
  753MOL0     C 1533   7.959   9.923   5.207  0.0394 -0.1498 -0.1190
  753MOL0     C 1534   8.053   9.959   5.094 -0.5368  0.0568 -0.3097
  753MOL0     C 1535   8.029  10.091   5.044 -0.4333  0.0390  0.1280
  753MOL0     C 1536   8.102  10.123   4.910 -0.9475  0.0370  0.0889
  753MOL0     N 1537   8.028  10.206   4.812  0.2592  0.3076 -0.3678
  753MOL0     C 1538   7.943  10.316   4.839  0.3157  0.1499  0.0548
  753MOL0     C 1539   7.857  10.320   4.736 -0.2846 -0.1187 -0.0969
  753MOL0     C 1540   7.739  10.413   4.714  0.2641 -0.3341 -0.3192
  753MOL0     C 1541   7.610  10.348   4.763 -0.9552 -0.0365 -0.0414
  753MOL0     C 1542   7.579  10.214   4.695  0.1429 -0.3393  0.1089
  753MOL0     C 1543   7.429  10.163   4.685 -0.4713  0.4195 -0.3354
  753MOL0     O 1544   7.356  10.167   4.562 -0.0393  0.3686 -0.4340
  753MOL0     C 1545   7.312  10.292   4.534  0.8585  0.6697 -0.5342
  753MOL0     C 1546   7.375  10.374   4.444 -0.0030 -0.2491 -0.8051
  753MOL0     C 1547   7.322  10.504   4.418 -0.2898 -0.6586 -0.1463
  753MOL0     C 1548   7.420  10.588   4.330 -0.4191  0.5514  1.0807
  753MOL0     C 1549   7.199  10.540   4.477 -0.7939 -0.2398  0.1630
  753MOL0     C 1550   7.124  10.666   4.444 -0.4610 -0.1336  0.2389
  753MOL0     O 1551   6.990  10.668   4.461 -0.5361 -1.0593 -0.0558
  753MOL0     C 1552   6.909  10.765   4.404  0.0360 -0.7427  1.6220
  753MOL0     C 1553   6.782  10.783   4.462 -0.8165  0.1748 -0.3116
  753MOL0     C 1554   6.697  10.885   4.413 -0.5637  0.6957 -0.5803
  753MOL0     C 1555   6.733  10.957   4.302  0.1874 -0.4080  0.4673
  753MOL0     O 1556   6.645  11.054   4.259  0.7836  0.9668 -0.3443
  753MOL0     C 1557   6.699  11.166   4.190  0.6311  0.8161 -0.4159
  753MOL0     C 1558   6.597  11.243   4.111  0.1364 -0.2896  0.1637
  753MOL0     C 1559   6.494  11.306   4.204 -0.5395 -0.2593 -0.5691
  753MOL0     C 1560   6.396  11.401   4.136  0.1538 -0.3364  0.4566
  753MOL0     C 1561   6.455  11.540   4.146 -0.0754  0.1153 -0.0625
  753MOL0     C 1562   6.359  11.645   4.092 -0.4299  0.1000  0.2959
  753MOL0     C 1563   6.436  11.772   4.070  0.0213  0.3263  0.5625
  753MOL0     C 1564   6.348  11.898   4.075 -0.7766 -0.2077  0.4261
  753MOL0    Cl 1565   6.310  11.939   4.248 -0.4438  0.0555  0.1800
  753MOL0     C 1566   6.852  10.936   4.238  0.1497  0.8413  0.2412
  753MOL0     C 1567   6.943  10.842   4.285  0.3956  0.7245  0.3689
  753MOL0     O 1568   7.193  10.763   4.409  0.4013 -0.3052 -0.0041
  753MOL0     C 1569   7.134  10.450   4.561  0.9549 -0.0840 -0.1684
  753MOL0     C 1570   7.191  10.326   4.594 -0.7953  0.3468  1.2500
  753MOL0     N 1571   7.892  10.214   4.655 -0.4244  0.3789  0.5572
  753MOL0     N 1572   7.983  10.142   4.701  0.3821 -0.2170  0.3590
  753MOL0     C 1573   8.425  10.113   5.797  0.0374 -0.8019  0.6482
  753MOL0     C 1574   8.552  10.099   5.847  0.1233  0.0358 -0.2130
  753MOL0     C 1575   8.960   9.972   6.016 -0.3473 -0.5481 -0.2829
  753MOL0     C 1576   9.047   9.969   5.908 -0.3039  0.4954 -0.3166
  753MOL0     C 1577   9.180   9.945   5.938  0.2748 -0.5690 -0.0253
  753MOL0     C 1578   9.230   9.930   6.066  0.1318 -0.5474 -0.0415
  753MOL0     O 1579   9.363   9.908   6.090  0.4706  0.2460 -0.7229
  753MOL0     C 1580   9.461   9.939   5.990  0.7113 -0.2712  0.1055
  753MOL0     C 1581   9.599   9.898   6.032  0.0766  1.1860 -0.0175
  753MOL0     C 1582   9.618   9.747   6.015  0.2218 -0.1182 -0.2741
  753MOL0     C 1583   9.768   9.723   6.037  0.1986 -0.0306  0.4167
  753MOL0     C 1584   9.807   9.600   5.971 -0.5158  0.0761 -0.4803
  753MOL0     C 1585   9.846   9.504   5.913 -0.3235  0.0108 -0.3983
  753MOL0     C 1586   9.143   9.942   6.175  0.2754  0.2600  0.6362
  753MOL0     C 1587   9.007   9.962   6.146  0.3601 -0.3957  0.7998
  753MOL0     H 1588   8.666   9.830   5.672  1.7832 -0.9987  1.0669
  753MOL0     H 1589   8.431   9.851   5.584 -0.9605 -1.5881  1.9217
  753MOL0     H 1590   8.186  10.224   5.665 -1.4472  1.8351 -1.3457
  753MOL0     H 1591   8.282  10.201   5.511 -0.0592 -0.2686 -0.3633
  753MOL0     H 1592   8.022  10.078   5.592 -1.6380  1.9234  0.2230
  753MOL0     H 1593   8.050  10.235   5.503  0.9348 -0.3422  1.7879
  753MOL0     H 1594   8.160  10.080   5.319 -1.3068 -1.3448 -1.6115
  753MOL0     H 1595   8.144   9.942   5.438  0.4083 -0.3996 -1.3230
  753MOL0     H 1596   7.896   9.928   5.406  0.3065 -2.1293 -1.3921
  753MOL0     H 1597   7.920  10.092   5.323 -1.8465 -1.7847 -1.9029
  753MOL0     H 1598   7.972   9.815   5.223 -2.0494 -0.3145  0.7423
  753MOL0     H 1599   7.853   9.923   5.180 -0.5402 -2.2112  1.8372
  753MOL0     H 1600   8.152   9.961   5.140 -1.4761  3.1445  1.9523
  753MOL0     H 1601   8.041   9.879   5.021 -0.0442 -0.4227  0.1250
  753MOL0     H 1602   7.921  10.097   5.029 -0.4889  0.1517  0.5854
  753MOL0     H 1603   8.053  10.157   5.128 -2.7314 -1.5398  2.1533
  753MOL0     H 1604   8.132  10.028   4.866 -1.2648 -0.0026 -0.0546
  753MOL0     H 1605   8.189  10.183   4.937 -1.8155  0.6483  1.6306
  753MOL0     H 1606   7.955  10.379   4.927 -0.8444 -0.9710  1.0504
  753MOL0     H 1607   7.756  10.508   4.766 -1.3144 -0.1545 -0.0748
  753MOL0     H 1608   7.732  10.428   4.606 -0.2896  1.8290 -0.0413
  753MOL0     H 1609   7.533  10.425   4.748  0.6871  1.4519 -1.3129
  753MOL0     H 1610   7.620  10.336   4.871 -0.6563  1.1739  0.0761
  753MOL0     H 1611   7.634  10.141   4.755 -1.1712 -1.3190  0.1758
  753MOL0     H 1612   7.629  10.215   4.598  0.1531 -0.2813  0.1151
  753MOL0     H 1613   7.374  10.205   4.769  1.0313 -0.6841  1.2727
  753MOL0     H 1614   7.437  10.055   4.701  3.9310  0.5904 -0.1421
  753MOL0     H 1615   7.468  10.346   4.395 -0.9949 -0.6121 -2.5547
  753MOL0     H 1616   7.368  10.650   4.257 -1.6782 -0.9830  0.6166
  753MOL0     H 1617   7.482  10.660   4.384 -0.1850  2.1443 -1.1730
  753MOL0     H 1618   7.479  10.517   4.272 -3.4046 -1.4382  0.2494
  753MOL0     H 1619   6.755  10.736   4.556  0.2925  0.9992  0.4376
  753MOL0     H 1620   6.603  10.902   4.464  1.1242  2.8935  2.1108
  753MOL0     H 1621   6.742  11.235   4.263 -1.6438  1.1557  0.6998
  753MOL0     H 1622   6.768  11.130   4.113 -0.5370 -2.8096  0.0652
  753MOL0     H 1623   6.655  11.312   4.050  0.6467  0.5707  1.5609
  753MOL0     H 1624   6.546  11.181   4.036  1.9167 -0.1062 -1.2415
  753MOL0     H 1625   6.541  11.341   4.297  2.8590 -0.8190 -1.9132
  753MOL0     H 1626   6.430  11.220   4.226 -0.8323 -0.6221 -2.6640
  753MOL0     H 1627   6.373  11.364   4.035 -2.6496  2.8568 -0.2973
  753MOL0     H 1628   6.299  11.407   4.186 -0.7168 -3.0374 -0.7427
  753MOL0     H 1629   6.550  11.554   4.093 -0.5289  2.5013 -0.3507
  753MOL0     H 1630   6.481  11.552   4.252  1.2021 -0.1365 -0.3365
  753MOL0     H 1631   6.329  11.597   3.998  1.4079  0.2634 -0.4114
  753MOL0     H 1632   6.275  11.649   4.162  0.3145 -1.3591  1.3230
  753MOL0     H 1633   6.480  11.766   3.970 -0.2464  0.3069  0.4438
  753MOL0     H 1634   6.521  11.788   4.137  0.1983  1.7703  0.0351
  753MOL0     H 1635   6.256  11.888   4.018  0.4289  1.4274 -1.9636
  753MOL0     H 1636   6.405  11.978   4.026  0.6339  0.9229  3.6051
  753MOL0     H 1637   6.884  10.982   4.145  0.2980 -2.7718 -1.6811
  753MOL0     H 1638   7.037  10.829   4.231 -0.2653 -1.5581 -0.3287
  753MOL0     H 1639   7.043  10.468   4.618  0.7371 -3.3397  0.7258
  753MOL0     H 1640   7.136  10.263   4.663 -1.4304 -0.6418 -0.1192
  753MOL0     H 1641   8.366  10.194   5.838  2.3084  0.1107  2.3648
  753MOL0     H 1642   8.593  10.169   5.920  1.2372  0.5440 -1.2973
  753MOL0     H 1643   9.007   9.963   5.807 -3.3670  0.5288  0.7885
  753MOL0     H 1644   9.243   9.911   5.856  0.2073 -1.0389  0.1185
  753MOL0     H 1645   9.434   9.897   5.892 -0.2803 -2.2986  1.1977
  753MOL0     H 1646   9.461  10.048   5.978 -1.9534 -0.1383  0.5663
  753MOL0     H 1647   9.613   9.921   6.138  1.6455  0.9314 -0.1445
  753MOL0     H 1648   9.680   9.952   5.982 -0.4529  2.6523  0.6652
  753MOL0     H 1649   9.585   9.717   5.915 -1.6097  0.2025  0.1905
  753MOL0     H 1650   9.563   9.692   6.092  2.0460 -0.2822  0.9619
  753MOL0     H 1651   9.780   9.717   6.146  0.3065  2.0148  0.5596
  753MOL0     H 1652   9.822   9.804   5.988  1.5340 -3.3961 -4.2908
  753MOL0     H 1653   9.882   9.410   5.876  1.1283 -0.2481  1.4803
  753MOL0     H 1654   9.172   9.918   6.277  0.2092 -2.0619  0.1639
  753MOL0     H 1655   8.942   9.976   6.231 -1.0339 -0.2511 -0.2582
  754MOL0     O 1656  11.096   6.917   1.653  0.2263  0.0758 -0.1239
  754MOL0     C 1657  11.126   6.819   1.579 -0.6885 -1.2905  0.3311
  754MOL0     O 1658  11.050   6.765   1.471  1.1738 -0.1079 -0.0938
  754MOL0     C 1659  10.924   6.823   1.445  0.9543 -0.1156  0.4513
  754MOL0     C 1660  10.808   6.745   1.448  0.0804  0.0179 -0.0534
  754MOL0     C 1661  10.693   6.800   1.383 -0.6484 -0.3929 -0.1322
  754MOL0     C 1662  10.685   6.936   1.351  0.3357  0.2209  1.0142
  754MOL0     O 1663  10.570   6.996   1.294 -0.5818  0.7461  0.3361
  754MOL0     C 1664  10.450   6.915   1.269  0.9491 -0.9810 -0.1020
  754MOL0     C 1665  10.328   7.003   1.257 -0.2278 -0.2879 -0.7379
  754MOL0     C 1666  10.211   6.929   1.208  0.7358  0.0850 -0.6965
  754MOL0     C 1667  10.094   7.026   1.217  0.1093  0.2709 -0.3508
  754MOL0     C 1668   9.972   6.995   1.125 -0.1183  0.3835  0.7071
  754MOL0     C 1669   9.857   7.088   1.147  0.7984 -0.0560 -0.2956
  754MOL0     C 1670   9.727   7.034   1.086  0.1634 -0.1889 -0.3449
  754MOL0     C 1671   9.600   7.097   1.138  0.2186  0.1709  0.6321
  754MOL0     N 1672   9.481   7.063   1.048 -0.0527  1.0630 -0.5173
  754MOL0     C 1673   9.406   7.147   0.964  0.3239  0.2448  0.8587
  754MOL0     C 1674   9.283   7.089   0.956 -0.5894 -0.1290 -0.4806
  754MOL0     C 1675   9.173   7.166   0.896 -0.6779 -0.0351 -0.2067
  754MOL0     C 1676   9.033   7.127   0.956  0.0609 -0.2415 -0.0147
  754MOL0     C 1677   8.919   7.198   0.884  0.4924  0.8528  0.2960
  754MOL0     C 1678   8.929   7.351   0.887 -0.1935  0.4765  0.1448
  754MOL0     O 1679   8.944   7.394   1.026  0.3467 -0.0215  0.1830
  754MOL0     C 1680   8.832   7.381   1.110 -0.2003 -0.2581  0.4129
  754MOL0     C 1681   8.705   7.433   1.073  0.6062  0.4593  0.1522
  754MOL0     C 1682   8.596   7.447   1.166  1.1933 -0.2733  0.8487
  754MOL0     C 1683   8.478   7.533   1.118  0.2784  0.5345 -0.0318
  754MOL0     C 1684   8.623   7.419   1.305  0.2512 -0.3753  1.1989
  754MOL0     C 1685   8.526   7.440   1.419 -0.6867 -0.4243 -0.1727
  754MOL0     O 1686   8.400   7.477   1.393  0.4170  0.3275  0.1680
  754MOL0     C 1687   8.328   7.535   1.489  0.5508 -0.6209  0.3632
  754MOL0     C 1688   8.288   7.444   1.589 -0.4539 -0.1751 -0.0258
  754MOL0     C 1689   8.191   7.483   1.686  0.3579 -0.1510  0.3767
  754MOL0     C 1690   8.142   7.613   1.680 -0.5105  0.7344  0.2384
  754MOL0     O 1691   8.037   7.636   1.764 -0.2475 -0.5044 -0.3293
  754MOL0     C 1692   7.930   7.728   1.720  0.8668 -0.7193  0.2855
  754MOL0     C 1693   7.825   7.666   1.617  0.0667  0.6346  0.1769
  754MOL0     C 1694   7.715   7.759   1.581  0.4353 -0.5593  0.4029
  754MOL0     C 1695   7.628   7.703   1.468 -0.7515  0.4982 -0.4625
  754MOL0     C 1696   7.531   7.806   1.421  0.0777  0.1507  0.1836
  754MOL0     C 1697   7.419   7.753   1.328  0.1179  0.4501  0.1056
  754MOL0     C 1698   7.329   7.859   1.269  0.1256 -0.5351  0.4016
  754MOL0     C 1699   7.209   7.801   1.195 -0.7305  0.1269  0.4365
  754MOL0    Cl 1700   7.112   7.696   1.304 -0.4360 -0.6139 -0.7815
  754MOL0     C 1701   8.186   7.704   1.586 -1.1120  0.4363 -0.2723
  754MOL0     C 1702   8.277   7.664   1.493 -1.2094 -0.0047 -0.2395
  754MOL0     O 1703   8.575   7.423   1.531 -0.0347 -1.3273  0.6263
  754MOL0     C 1704   8.747   7.360   1.334 -0.1818  0.6723 -0.0716
  754MOL0     C 1705   8.849   7.353   1.241  0.2416 -0.5115  0.6382
  754MOL0     N 1706   9.285   6.965   1.023  0.4024  0.2461 -0.3172
  754MOL0     N 1707   9.404   6.956   1.076 -0.0142  1.0489 -1.3197
  754MOL0     C 1708  10.795   7.016   1.366  0.4446 -0.5188  0.7422
  754MOL0     C 1709  10.912   6.960   1.411 -0.0563 -0.8421 -0.4137
  754MOL0     C 1710  11.261   6.759   1.606 -0.4277  0.1568 -0.4663
  754MOL0     C 1711  11.294   6.627   1.585 -0.0808  0.1185 -0.1993
  754MOL0     C 1712  11.426   6.574   1.615  0.1185  0.3001 -0.1691
  754MOL0     C 1713  11.515   6.652   1.683 -1.5899 -0.0855 -0.1464
  754MOL0     O 1714  11.637   6.620   1.726 -0.0214 -0.4161 -0.1593
  754MOL0     C 1715  11.691   6.493   1.693  0.6060  1.3187 -0.3998
  754MOL0     C 1716  11.820   6.460   1.762 -0.3953  0.5678 -0.1491
  754MOL0     C 1717  11.795   6.409   1.910 -1.0735  0.0840  0.0290
  754MOL0     C 1718  11.930   6.368   1.978  0.5867  0.0801  0.1886
  754MOL0     C 1719  11.990   6.486   2.029 -0.1790  0.2258 -0.4698
  754MOL0     C 1720  12.031   6.595   2.075  0.4293 -0.0792 -0.1170
  754MOL0     C 1721  11.482   6.781   1.710 -1.2547 -0.8455  0.0886
  754MOL0     C 1722  11.366   6.843   1.665  0.3431 -0.1914 -1.0868
  754MOL0     H 1723  10.812   6.646   1.492  1.7272  0.5017  0.9866
  754MOL0     H 1724  10.599   6.749   1.366  0.7396 -2.7234 -1.4141
  754MOL0     H 1725  10.457   6.848   1.183 -1.9461 -2.3559  0.5951
  754MOL0     H 1726  10.428   6.860   1.361 -2.6352 -2.1055 -1.4641
  754MOL0     H 1727  10.315   7.029   1.363  2.5833 -3.0603  0.4392
  754MOL0     H 1728  10.345   7.091   1.194 -0.8937  0.5816  0.2422
  754MOL0     H 1729  10.213   6.896   1.104  1.9590  0.1871 -0.7267
  754MOL0     H 1730  10.191   6.840   1.268  2.0007  1.6218  2.2319
  754MOL0     H 1731  10.063   7.030   1.322 -0.3214  1.2856 -0.5098
  754MOL0     H 1732  10.129   7.127   1.194  0.3398  0.7863  1.9956
  754MOL0     H 1733   9.997   7.005   1.018  0.2978  0.3600  0.8003
  754MOL0     H 1734   9.940   6.894   1.149 -4.2996  1.4201  0.3272
  754MOL0     H 1735   9.839   7.097   1.255 -0.4918 -3.0826 -0.1355
  754MOL0     H 1736   9.861   7.184   1.096  0.6307 -0.1695 -0.5272
  754MOL0     H 1737   9.734   7.037   0.977  2.2794  0.8251 -0.2330
  754MOL0     H 1738   9.729   6.926   1.104 -1.4065 -0.1749  0.0065
  754MOL0     H 1739   9.622   7.204   1.145 -0.1423  0.1504  4.1594
  754MOL0     H 1740   9.578   7.063   1.240 -1.5883 -0.9540 -0.0985
  754MOL0     H 1741   9.428   7.241   0.914  0.7325  0.1202  0.7997
  754MOL0     H 1742   9.193   7.272   0.911  0.8843  0.2645 -3.4771
  754MOL0     H 1743   9.174   7.147   0.788  1.6107 -1.8580  0.0465
  754MOL0     H 1744   9.019   7.147   1.062 -2.2741  0.0057 -0.3026
  754MOL0     H 1745   9.022   7.020   0.936 -0.3215 -0.0008 -1.2088
  754MOL0     H 1746   8.820   7.169   0.919 -0.5174  0.7770 -2.4216
  754MOL0     H 1747   8.924   7.163   0.781 -3.4434 -0.6423  0.4542
  754MOL0     H 1748   8.837   7.390   0.841 -1.0985 -2.9217 -1.1835
  754MOL0     H 1749   9.003   7.394   0.819 -0.7531 -0.3868 -1.0453
  754MOL0     H 1750   8.682   7.472   0.975  1.1829  1.5729  0.4534
  754MOL0     H 1751   8.494   7.565   1.015 -0.9540  1.1299 -0.0621
  754MOL0     H 1752   8.389   7.473   1.140  0.9037 -1.8137 -3.1102
  754MOL0     H 1753   8.466   7.620   1.183 -2.5089 -1.2123  2.0439
  754MOL0     H 1754   8.318   7.340   1.586 -1.5288 -0.4552 -2.1986
  754MOL0     H 1755   8.153   7.412   1.758 -1.7631  1.9441  1.4295
  754MOL0     H 1756   7.862   7.746   1.803 -1.0718 -1.1632 -1.1365
  754MOL0     H 1757   7.961   7.829   1.691  0.3202 -0.5286  0.3571
  754MOL0     H 1758   7.877   7.630   1.528  0.5916 -0.6757  0.9882
  754MOL0     H 1759   7.774   7.584   1.669  1.3982  0.2176  0.8605
  754MOL0     H 1760   7.752   7.857   1.550 -2.2107  0.4987  0.3505
  754MOL0     H 1761   7.651   7.785   1.665  1.3508  0.1013  0.9172
  754MOL0     H 1762   7.702   7.678   1.392  1.4279  2.4494  0.8981
  754MOL0     H 1763   7.579   7.611   1.501  0.4293  0.1508  0.4040
  754MOL0     H 1764   7.584   7.885   1.367 -1.7907  1.4291  0.1449
  754MOL0     H 1765   7.487   7.858   1.507  0.9989  0.9854  0.1782
  754MOL0     H 1766   7.461   7.699   1.243 -0.0940  0.1785  0.1713
  754MOL0     H 1767   7.361   7.691   1.397 -2.7754  1.8954 -0.8699
  754MOL0     H 1768   7.386   7.927   1.204  3.6224  1.3354  4.8154
  754MOL0     H 1769   7.284   7.918   1.350 -0.7884 -1.4433  0.5783
  754MOL0     H 1770   7.247   7.739   1.114 -1.6138  1.0294 -0.6875
  754MOL0     H 1771   7.149   7.880   1.150 -2.0825  0.0669  2.0163
  754MOL0     H 1772   8.143   7.803   1.579 -3.3249 -0.3876  0.8910
  754MOL0     H 1773   8.306   7.734   1.415  1.2760 -3.0591 -2.3218
  754MOL0     H 1774   8.776   7.338   1.436 -1.2040 -1.1240 -0.1367
  754MOL0     H 1775   8.948   7.312   1.259  0.2952 -1.7082 -1.8494
  754MOL0     H 1776  10.784   7.119   1.335  0.9062 -0.8460 -0.5735
  754MOL0     H 1777  10.997   7.027   1.399 -0.5581  0.4551  2.4486
  754MOL0     H 1778  11.215   6.569   1.540 -0.1736 -0.8382  1.1281
  754MOL0     H 1779  11.438   6.469   1.590 -3.1491 -0.7978  2.1844
  754MOL0     H 1780  11.622   6.408   1.692 -0.4122  2.0974 -2.4873
  754MOL0     H 1781  11.716   6.499   1.587 -0.7308  0.6005 -0.7815
  754MOL0     H 1782  11.900   6.533   1.748  0.2451 -0.3658 -1.6084
  754MOL0     H 1783  11.855   6.371   1.709 -0.7307  0.8557 -0.8604
  754MOL0     H 1784  11.730   6.321   1.902  0.3435 -0.8878 -1.4078
  754MOL0     H 1785  11.744   6.483   1.972 -0.4637  1.0392 -0.5762
  754MOL0     H 1786  11.999   6.316   1.912 -1.8395 -1.0917 -1.5771
  754MOL0     H 1787  11.922   6.295   2.059  0.8156 -1.6248 -1.2557
  754MOL0     H 1788  12.067   6.690   2.108 -1.0092  0.1508  0.8767
  754MOL0     H 1789  11.552   6.838   1.771 -0.3286  0.5499 -2.1388
  754MOL0     H 1790  11.344   6.948   1.683  2.0059  0.0502 -0.1518
  755MOL0     O 1791   6.230   8.684   3.008  0.3496 -0.0554 -0.6449
  755MOL0     C 1792   6.330   8.702   2.927  0.8146  0.4677  0.4599
  755MOL0     O 1793   6.345   8.643   2.808  0.2099  0.3927  0.2555
  755MOL0     C 1794   6.239   8.574   2.764 -0.4253 -0.4234  0.9031
  755MOL0     C 1795   6.146   8.627   2.672 -0.2960 -0.6790  0.6628
  755MOL0     C 1796   6.060   8.532   2.609  0.0823 -0.1896 -0.9025
  755MOL0     C 1797   6.044   8.403   2.647 -0.5529  0.1726 -1.1112
  755MOL0     O 1798   5.966   8.319   2.575  0.4507 -0.0811 -0.2146
  755MOL0     C 1799   6.020   8.203   2.518  1.0201 -0.8837 -0.3788
  755MOL0     C 1800   6.049   8.253   2.372  0.8917  0.4635 -0.2254
  755MOL0     C 1801   6.086   8.130   2.291 -0.1908  0.3169  0.8321
  755MOL0     C 1802   5.978   8.061   2.208 -0.0314  0.1083  0.3833
  755MOL0     C 1803   6.038   7.939   2.123  0.0831 -0.0535  0.4919
  755MOL0     C 1804   5.927   7.871   2.032 -0.2270 -1.0990  0.3990
  755MOL0     C 1805   5.988   7.750   1.964  0.4513  0.3733 -1.0616
  755MOL0     C 1806   5.902   7.678   1.854 -0.5761  1.0592  0.1756
  755MOL0     N 1807   5.799   7.599   1.915  0.2618 -0.0663  0.0130
  755MOL0     C 1808   5.677   7.650   1.940 -0.1645  1.0403 -0.8350
  755MOL0     C 1809   5.613   7.528   1.964 -0.2126  0.0063  0.4594
  755MOL0     C 1810   5.467   7.517   2.005  0.5936 -0.0336 -0.6437
  755MOL0     C 1811   5.386   7.568   1.892  0.1374  0.1716 -0.1710
  755MOL0     C 1812   5.409   7.520   1.754  0.7180 -0.3519 -0.2200
  755MOL0     C 1813   5.298   7.563   1.649  0.8652  0.2051 -0.0703
  755MOL0     O 1814   5.182   7.475   1.662 -0.2727 -0.1666 -0.3806
  755MOL0     C 1815   5.059   7.525   1.629  0.6619 -0.6247 -0.3381
  755MOL0     C 1816   4.948   7.447   1.677  0.5654 -1.0958 -0.0795
  755MOL0     C 1817   4.815   7.492   1.669  0.2495  0.6236  0.4636
  755MOL0     C 1818   4.697   7.401   1.717 -0.2374 -0.5524 -0.1024
  755MOL0     C 1819   4.784   7.617   1.611 -0.0806  0.2098 -0.4029
  755MOL0     C 1820   4.652   7.688   1.614 -0.9979  0.5648 -0.4831
  755MOL0     O 1821   4.563   7.653   1.709 -0.3944 -0.9728  0.4558
  755MOL0     C 1822   4.451   7.730   1.717  0.0906 -1.1171  0.1486
  755MOL0     C 1823   4.347   7.711   1.615  0.2014  0.5181 -0.9836
  755MOL0     C 1824   4.235   7.799   1.622 -0.1669 -0.3528 -0.1131
  755MOL0     C 1825   4.219   7.898   1.727 -0.8245 -0.1232  1.4709
  755MOL0     O 1826   4.111   7.983   1.741 -0.5171  0.2136  0.0806
  755MOL0     C 1827   4.008   7.981   1.640 -0.6173  0.1395  0.4723
  755MOL0     C 1828   3.888   8.058   1.682 -0.7785 -0.4255  0.5178
  755MOL0     C 1829   3.795   7.985   1.786 -0.2103 -0.5800 -0.4830
  755MOL0     C 1830   3.675   8.067   1.814 -0.4662 -0.0165  0.5600
  755MOL0     C 1831   3.585   7.979   1.896 -0.0678  0.6425  0.4685
  755MOL0     C 1832   3.455   7.925   1.824  0.1818 -0.2592  0.0694
  755MOL0     C 1833   3.483   7.801   1.734  0.5423  0.3939  0.1901
  755MOL0     C 1834   3.358   7.747   1.665 -0.5371  0.2234 -0.3076
  755MOL0    Cl 1835   3.222   7.747   1.783 -0.2493  0.3401 -0.2235
  755MOL0     C 1836   4.322   7.912   1.819  0.3936 -0.2874  0.5143
  755MOL0     C 1837   4.433   7.833   1.810 -0.7158 -0.0788  0.2441
  755MOL0     O 1838   4.640   7.776   1.530 -0.7597  0.3488 -0.0151
  755MOL0     C 1839   4.897   7.685   1.547 -0.0835  0.4051  0.2267
  755MOL0     C 1840   5.029   7.639   1.558 -0.0394 -1.1306 -0.4797
  755MOL0     N 1841   5.689   7.416   1.950 -0.2172 -0.0643 -0.7589
  755MOL0     N 1842   5.806   7.464   1.929 -0.1694  0.8933  0.2891
  755MOL0     C 1843   6.132   8.353   2.749 -0.2268 -0.2334 -0.5978
  755MOL0     C 1844   6.231   8.436   2.795 -0.6861  0.4017 -0.3071
  755MOL0     C 1845   6.423   8.801   2.960 -0.9653 -0.4160  0.0973
  755MOL0     C 1846   6.400   8.893   3.066  0.0447 -1.1094 -0.1979
  755MOL0     C 1847   6.498   8.992   3.082  0.1557  0.1260 -0.2807
  755MOL0     C 1848   6.606   9.013   3.001 -0.2005 -0.0807 -1.0556
  755MOL0     O 1849   6.688   9.117   3.034  0.2214 -0.7724  0.2672
  755MOL0     C 1850   6.797   9.147   2.943 -0.6053  0.3372  0.0969
  755MOL0     C 1851   6.873   9.262   3.004  0.0690 -1.0424 -1.2158
  755MOL0     C 1852   6.785   9.372   3.068 -0.6737 -0.1837  0.7126
  755MOL0     C 1853   6.854   9.468   3.163 -0.5735 -0.4185  1.1190
  755MOL0     C 1854   6.978   9.511   3.117  0.1324  0.0033 -0.2263
  755MOL0     C 1855   7.087   9.552   3.097 -0.3151 -0.5323 -0.2937
  755MOL0     C 1856   6.629   8.915   2.904 -0.4279 -0.1822 -1.0066
  755MOL0     C 1857   6.533   8.816   2.883  0.0365  0.3535  0.5750
  755MOL0     H 1858   6.149   8.731   2.639 -1.6074 -0.6777  0.4861
  755MOL0     H 1859   5.988   8.553   2.530 -0.6328  0.2106 -0.1591
  755MOL0     H 1860   6.114   8.166   2.559  1.2016 -1.4740 -1.2924
  755MOL0     H 1861   5.942   8.126   2.512 -1.5100  1.5460 -1.3971
  755MOL0     H 1862   5.966   8.301   2.319  1.6179  0.9208 -0.9631
  755MOL0     H 1863   6.135   8.320   2.380  0.7729  0.7919 -1.4154
  755MOL0     H 1864   6.176   8.162   2.236 -3.1721  1.5957 -3.8825
  755MOL0     H 1865   6.121   8.049   2.355 -1.1143  1.7967  3.3740
  755MOL0     H 1866   5.891   8.030   2.267  0.4796 -1.9207  0.1550
  755MOL0     H 1867   5.941   8.138   2.140 -0.3064  0.1252  0.5512
  755MOL0     H 1868   6.117   7.987   2.064 -1.9360  0.7103 -1.7445
  755MOL0     H 1869   6.082   7.865   2.190 -1.5657 -1.0545  0.5028
  755MOL0     H 1870   5.849   7.846   2.105  0.6429 -1.1120  1.3622
  755MOL0     H 1871   5.885   7.943   1.961 -0.0838 -1.6515 -0.2551
  755MOL0     H 1872   6.087   7.784   1.931  0.1811  3.5955  1.0017
  755MOL0     H 1873   6.001   7.667   2.034 -2.6029  3.2680  3.4666
  755MOL0     H 1874   5.966   7.614   1.792 -1.3194  0.5913 -0.1327
  755MOL0     H 1875   5.859   7.741   1.776 -0.5347  0.4423 -0.3509
  755MOL0     H 1876   5.636   7.749   1.952 -1.8805  0.2481  0.3104
  755MOL0     H 1877   5.447   7.412   2.030  0.9116  0.1073  0.2491
  755MOL0     H 1878   5.448   7.581   2.092 -1.5793  0.7543 -1.6346
  755MOL0     H 1879   5.395   7.677   1.896  0.9165  0.1016  0.1639
  755MOL0     H 1880   5.282   7.544   1.919  0.4528 -0.9586  0.1179
  755MOL0     H 1881   5.405   7.410   1.753  1.6134 -0.4092 -2.7427
  755MOL0     H 1882   5.508   7.549   1.717  1.5756 -4.3041 -1.4880
  755MOL0     H 1883   5.339   7.560   1.547  1.3552  0.5149  0.1138
  755MOL0     H 1884   5.270   7.666   1.672 -0.0520 -0.0878  0.1681
  755MOL0     H 1885   4.958   7.356   1.736  0.3392 -1.0918 -0.0355
  755MOL0     H 1886   4.716   7.295   1.701 -0.4755 -0.2233 -3.4199
  755MOL0     H 1887   4.682   7.429   1.821  1.3934 -1.2738  0.3443
  755MOL0     H 1888   4.601   7.413   1.665 -0.0012  1.9717 -0.0836
  755MOL0     H 1889   4.354   7.643   1.531 -2.8792  2.3124 -2.8482
  755MOL0     H 1890   4.160   7.795   1.543  0.8252  0.7765 -1.1445
  755MOL0     H 1891   4.044   8.023   1.546 -0.8794  2.4580  1.3315
  755MOL0     H 1892   3.982   7.880   1.608  1.2371  0.3421 -1.9033
  755MOL0     H 1893   3.931   8.150   1.721 -2.3834  0.3526  0.5224
  755MOL0     H 1894   3.842   8.075   1.584  0.0778  0.8124  0.3056
  755MOL0     H 1895   3.854   7.971   1.877 -1.2235 -2.8138 -0.1128
  755MOL0     H 1896   3.777   7.885   1.745  4.1245 -1.8786  0.2292
  755MOL0     H 1897   3.720   8.149   1.870 -1.1520  0.9291 -0.2516
  755MOL0     H 1898   3.621   8.116   1.733  2.2998  1.8370 -0.3119
  755MOL0     H 1899   3.548   8.042   1.977  0.0101  2.1919 -0.6504
  755MOL0     H 1900   3.638   7.904   1.954  0.2552  2.2485  2.3434
  755MOL0     H 1901   3.400   7.884   1.909 -0.6765 -2.0106 -1.2750
  755MOL0     H 1902   3.398   7.988   1.756 -1.9198 -1.4759  0.6122
  755MOL0     H 1903   3.529   7.718   1.789 -1.0306  0.3046  1.4703
  755MOL0     H 1904   3.551   7.837   1.657 -0.0374 -2.1790 -1.6711
  755MOL0     H 1905   3.380   7.643   1.639  1.2989  0.5992 -0.3925
  755MOL0     H 1906   3.326   7.797   1.574 -2.7188 -1.4670 -0.5420
  755MOL0     H 1907   4.302   7.981   1.900 -0.0750  2.3727 -1.7243
  755MOL0     H 1908   4.521   7.846   1.874 -1.8766  2.7330  1.4299
  755MOL0     H 1909   4.883   7.776   1.491 -0.2118  0.7482  0.8103
  755MOL0     H 1910   5.101   7.710   1.518 -0.6122 -0.1849  0.1311
  755MOL0     H 1911   6.136   8.254   2.793  3.3552  0.4455  0.9354
  755MOL0     H 1912   6.303   8.401   2.868 -1.7843 -0.2942  0.4671
  755MOL0     H 1913   6.314   8.878   3.130 -0.0233 -2.0680 -0.5021
  755MOL0     H 1914   6.482   9.076   3.149  3.6836 -0.7933  1.9631
  755MOL0     H 1915   6.860   9.058   2.941 -0.8305  0.1879 -0.9962
  755MOL0     H 1916   6.767   9.174   2.841  0.1591 -0.7817 -0.4415
  755MOL0     H 1917   6.940   9.295   2.924 -0.8913  3.7287 -0.3510
  755MOL0     H 1918   6.935   9.224   3.086 -0.5787  1.8250  0.7805
  755MOL0     H 1919   6.700   9.339   3.128 -0.4316  2.4826  2.6942
  755MOL0     H 1920   6.740   9.428   2.985  2.7326 -0.1087 -1.3087
  755MOL0     H 1921   6.870   9.422   3.261 -0.5166 -0.5266  1.0608
  755MOL0     H 1922   6.788   9.554   3.174  0.6578  0.9018 -1.0147
  755MOL0     H 1923   7.184   9.580   3.062 -0.4360  1.7892  1.0332
  755MOL0     H 1924   6.723   8.917   2.849 -0.4357  2.0924 -1.0038
  755MOL0     H 1925   6.554   8.741   2.807 -2.2942 -1.4139  1.5558
  756MOL0     O 1926   8.398   5.014   5.728  0.3724  0.2067 -0.4534
  756MOL0     C 1927   8.440   5.037   5.615  0.2014  0.4324 -0.4066
  756MOL0     O 1928   8.373   5.014   5.490  0.1193 -0.1994 -0.9608
  756MOL0     C 1929   8.256   4.945   5.501 -0.3235 -0.4554  0.4950
  756MOL0     C 1930   8.247   4.821   5.560  0.2681  0.4409 -0.1692
  756MOL0     C 1931   8.122   4.758   5.582 -0.5330  0.7549  0.2081
  756MOL0     C 1932   8.000   4.826   5.557 -0.2417  0.2151  0.3222
  756MOL0     O 1933   7.892   4.750   5.582 -0.1405 -0.0938 -0.1377
  756MOL0     C 1934   7.763   4.814   5.577  0.9529  0.5019 -0.2097
  756MOL0     C 1935   7.662   4.716   5.624 -0.5737  0.4273  0.4330
  756MOL0     C 1936   7.522   4.758   5.611  0.2766  0.5518 -0.3194
  756MOL0     C 1937   7.433   4.638   5.660 -0.7667  0.3763 -0.3471
  756MOL0     C 1938   7.294   4.685   5.689 -0.0625  0.1617  0.1701
  756MOL0     C 1939   7.203   4.571   5.748 -0.1268  0.3125  0.2255
  756MOL0     C 1940   7.133   4.508   5.621  0.5093  0.3613 -0.5301
  756MOL0     C 1941   7.035   4.396   5.663 -0.1523  0.3121 -0.8037
  756MOL0     N 1942   6.898   4.435   5.704 -0.3164  0.1407  0.1582
  756MOL0     C 1943   6.855   4.434   5.834  0.8724  0.5360 -0.7659
  756MOL0     C 1944   6.737   4.508   5.830  0.0075  0.7820 -0.4476
  756MOL0     C 1945   6.652   4.526   5.947 -0.0789  0.0307 -0.5233
  756MOL0     C 1946   6.719   4.531   6.084 -0.5708 -0.2119 -0.5283
  756MOL0     C 1947   6.652   4.632   6.185 -0.3106  0.1889 -0.2167
  756MOL0     C 1948   6.496   4.610   6.198 -0.2464  0.0659 -0.6366
  756MOL0     O 1949   6.449   4.674   6.324 -0.5937  0.7522 -0.5004
  756MOL0     C 1950   6.334   4.747   6.325  0.3108 -0.0016  0.2565
  756MOL0     C 1951   6.325   4.859   6.405  0.4466  0.1262 -1.1599
  756MOL0     C 1952   6.201   4.932   6.408 -0.4117 -0.3351 -0.8548
  756MOL0     C 1953   6.190   5.037   6.512  0.5902  0.0171 -0.3863
  756MOL0     C 1954   6.085   4.893   6.339 -0.4676  0.2863  0.4823
  756MOL0     C 1955   5.953   4.965   6.354  0.3184  0.5205 -0.5360
  756MOL0     O 1956   5.850   4.896   6.304  0.5596  0.6292  0.1967
  756MOL0     C 1957   5.721   4.932   6.323 -0.7079  0.4811 -0.8230
  756MOL0     C 1958   5.663   4.994   6.429  0.2777 -0.8628  0.2239
  756MOL0     C 1959   5.528   5.026   6.437  0.6213  0.1109  0.0093
  756MOL0     C 1960   5.443   4.983   6.337  0.3755 -0.1320  0.2129
  756MOL0     O 1961   5.306   5.019   6.345 -0.3718  0.7861  0.1263
  756MOL0     C 1962   5.238   4.963   6.460  0.3893 -0.6159 -0.4127
  756MOL0     C 1963   5.087   4.961   6.442 -0.1087  0.2974  0.0260
  756MOL0     C 1964   5.011   4.864   6.538  0.6068 -0.7486 -0.1693
  756MOL0     C 1965   4.858   4.878   6.505  1.3902  0.1001 -0.6317
  756MOL0     C 1966   4.785   4.783   6.605  0.2339 -0.3744  0.0061
  756MOL0     C 1967   4.636   4.769   6.567 -1.0004 -0.2468  0.0309
  756MOL0     C 1968   4.564   4.678   6.663  0.3964  0.0799 -0.1439
  756MOL0     C 1969   4.418   4.670   6.632 -0.1422  0.3517  0.4897
  756MOL0    Cl 1970   4.352   4.823   6.678  0.5040 -0.3618 -0.0222
  756MOL0     C 1971   5.501   4.921   6.228  0.0161  0.0592 -0.2846
  756MOL0     C 1972   5.640   4.889   6.217 -0.1427  0.2676  0.3656
  756MOL0     O 1973   5.941   5.071   6.404  0.5158 -0.0466  0.1081
  756MOL0     C 1974   6.101   4.780   6.256 -0.7054 -0.2980  0.4776
  756MOL0     C 1975   6.225   4.710   6.248  0.1332 -1.0412 -0.1434
  756MOL0     N 1976   6.723   4.555   5.701 -0.2556  0.1914 -0.4400
  756MOL0     N 1977   6.814   4.516   5.620 -1.3961 -1.0975 -0.9211
  756MOL0     C 1978   8.012   4.957   5.497  0.1250 -0.2319 -0.3259
  756MOL0     C 1979   8.131   5.016   5.473 -1.0168 -0.0592 -0.1989
  756MOL0     C 1980   8.580   5.084   5.606 -0.6918 -0.9636  0.3785
  756MOL0     C 1981   8.646   5.133   5.720  0.1803  0.3438 -0.2222
  756MOL0     C 1982   8.776   5.184   5.706 -0.2376 -0.2854 -0.0379
  756MOL0     C 1983   8.849   5.182   5.586 -0.2212 -0.0803  0.7808
  756MOL0     O 1984   8.986   5.213   5.558 -0.2594 -0.3310  0.4699
  756MOL0     C 1985   9.060   5.285   5.654  0.2823 -0.5408 -0.8672
  756MOL0     C 1986   9.213   5.274   5.640  0.3728 -0.4363  0.4488
  756MOL0     C 1987   9.242   5.121   5.622 -0.8081 -0.1126  1.1095
  756MOL0     C 1988   9.395   5.093   5.630  0.5738 -0.1833 -0.2607
  756MOL0     C 1989   9.474   5.191   5.555  0.4477 -1.2249 -0.5509
  756MOL0     C 1990   9.541   5.261   5.489  0.2554  0.6806  0.1820
  756MOL0     C 1991   8.784   5.117   5.483 -0.3516  1.1597  0.6744
  756MOL0     C 1992   8.650   5.079   5.490 -0.1723  0.7468  0.2934
  756MOL0     H 1993   8.338   4.777   5.600  1.9829  2.1830 -1.9605
  756MOL0     H 1994   8.125   4.659   5.625 -0.2209  1.0686  0.9353
  756MOL0     H 1995   7.765   4.902   5.642  1.6193 -1.3364  2.4235
  756MOL0     H 1996   7.726   4.852   5.481 -2.9375  1.0493  1.3149
  756MOL0     H 1997   7.670   4.626   5.563 -3.1767  1.2586 -1.2768
  756MOL0     H 1998   7.674   4.701   5.732  0.5719  0.9454  0.3988
  756MOL0     H 1999   7.507   4.839   5.682 -0.7520 -1.5652  2.0512
  756MOL0     H 2000   7.500   4.792   5.509  2.3030  0.5771 -0.7929
  756MOL0     H 2001   7.443   4.555   5.589 -0.7892 -1.1849  1.4019
  756MOL0     H 2002   7.471   4.585   5.748 -2.2381 -2.1906 -1.1792
  756MOL0     H 2003   7.288   4.777   5.749 -2.3180 -2.0949  3.8055
  756MOL0     H 2004   7.243   4.717   5.598  2.5092  2.6307 -0.5593
  756MOL0     H 2005   7.252   4.493   5.808  1.6143  1.5111  0.4018
  756MOL0     H 2006   7.128   4.617   5.813 -0.7907  0.6253 -0.7553
  756MOL0     H 2007   7.078   4.580   5.561 -2.0723 -0.1278  1.0636
  756MOL0     H 2008   7.215   4.466   5.562  0.4687  1.0345 -1.0829
  756MOL0     H 2009   7.085   4.342   5.744 -1.0117  0.3504 -0.2323
  756MOL0     H 2010   7.035   4.334   5.573  1.2407  1.7736 -1.8731
  756MOL0     H 2011   6.908   4.404   5.924 -3.0166 -2.7272  0.6964
  756MOL0     H 2012   6.592   4.616   5.931 -2.3013 -1.1777  0.4713
  756MOL0     H 2013   6.577   4.446   5.950 -1.0196  0.9092  1.4395
  756MOL0     H 2014   6.824   4.561   6.077 -1.2732  4.1341  3.1148
  756MOL0     H 2015   6.722   4.434   6.135 -0.9506  1.6279  3.3550
  756MOL0     H 2016   6.669   4.731   6.141 -0.6673 -0.1007 -1.0329
  756MOL0     H 2017   6.705   4.624   6.280  2.5098  2.1214 -1.5206
  756MOL0     H 2018   6.471   4.503   6.206 -0.5215  0.1304 -0.6354
  756MOL0     H 2019   6.466   4.660   6.106 -0.3380  1.5058  0.1469
  756MOL0     H 2020   6.403   4.875   6.477 -1.0930 -0.0778  0.6272
  756MOL0     H 2021   6.169   5.133   6.466  0.2323 -0.9343 -2.3024
  756MOL0     H 2022   6.117   5.007   6.588 -0.3706 -1.9397 -1.9813
  756MOL0     H 2023   6.284   5.063   6.562  0.1932 -0.6658  0.7706
  756MOL0     H 2024   5.718   5.023   6.518 -1.0024  0.9354  0.4785
  756MOL0     H 2025   5.489   5.079   6.523  2.2106  3.0025 -0.9132
  756MOL0     H 2026   5.273   4.860   6.468  2.9738  0.2515  0.2736
  756MOL0     H 2027   5.270   5.013   6.552  1.0088  2.7930 -2.3372
  756MOL0     H 2028   5.060   5.061   6.477 -3.8154 -0.5644  0.0227
  756MOL0     H 2029   5.064   4.944   6.337  0.5774  0.2217 -0.1129
  756MOL0     H 2030   5.024   4.892   6.644  1.8290  0.4205 -0.5951
  756MOL0     H 2031   5.052   4.763   6.529 -5.4215 -3.5064 -1.4317
  756MOL0     H 2032   4.826   4.983   6.510  1.9336  0.2359  0.1218
  756MOL0     H 2033   4.837   4.849   6.401  0.0229 -1.4824  0.0435
  756MOL0     H 2034   4.794   4.820   6.708 -1.3118 -2.4309  0.9600
  756MOL0     H 2035   4.832   4.685   6.601  1.4261  0.1291  1.0676
  756MOL0     H 2036   4.596   4.870   6.576  4.5274  2.4066 -0.7766
  756MOL0     H 2037   4.622   4.736   6.463 -1.7863 -0.1357  0.0960
  756MOL0     H 2038   4.571   4.727   6.761 -2.5873  3.3503 -1.3523
  756MOL0     H 2039   4.616   4.582   6.670  2.2734  1.1435  1.3802
  756MOL0     H 2040   4.369   4.587   6.686 -0.1132 -0.0689 -0.1207
  756MOL0     H 2041   4.409   4.657   6.524 -2.7555  3.4142  0.1992
  756MOL0     H 2042   5.436   4.932   6.142  0.9107 -0.1283 -0.9889
  756MOL0     H 2043   5.690   4.844   6.132 -0.4599 -0.2764  0.4609
  756MOL0     H 2044   6.019   4.768   6.186  0.9601 -1.6407 -1.3874
  756MOL0     H 2045   6.225   4.620   6.187 -2.1583 -1.8527  0.9390
  756MOL0     H 2046   7.920   5.007   5.468 -0.8059 -1.1691  0.8698
  756MOL0     H 2047   8.113   5.112   5.426 -2.7258 -0.1137  0.2909
  756MOL0     H 2048   8.591   5.119   5.812 -2.2424 -0.7866 -1.7367
  756MOL0     H 2049   8.825   5.230   5.792  2.5828 -1.1100 -1.0854
  756MOL0     H 2050   9.023   5.388   5.657 -2.1205 -1.3416  2.3732
  756MOL0     H 2051   9.045   5.245   5.755  0.9700  0.3811 -0.3871
  756MOL0     H 2052   9.255   5.316   5.732  0.1636  2.1483 -0.5593
  756MOL0     H 2053   9.250   5.330   5.554 -0.5900  0.2075  0.4292
  756MOL0     H 2054   9.200   5.090   5.526  3.4079  0.0133 -0.9760
  756MOL0     H 2055   9.193   5.059   5.698 -5.2819 -0.7021 -1.8678
  756MOL0     H 2056   9.408   4.992   5.592 -0.1212 -1.1809  1.9736
  756MOL0     H 2057   9.427   5.085   5.735 -0.1640  0.3031  0.0127
  756MOL0     H 2058   9.594   5.313   5.412  0.8629 -1.7392 -1.1376
  756MOL0     H 2059   8.824   5.105   5.382  0.6557 -0.2871  1.2108
  756MOL0     H 2060   8.603   5.029   5.406  0.1568  0.6699  0.1539
  757MOL0     O 2061   8.074   3.527   9.959 -0.3078 -0.2027  0.6818
  757MOL0     C 2062   8.146   3.596  10.035  0.5498 -0.2300 -0.1066
  757MOL0     O 2063   8.102   3.704  10.111 -0.1985  0.1250  0.6456
  757MOL0     C 2064   7.965   3.726  10.127 -0.2052  0.1259  0.5713
  757MOL0     C 2065   7.921   3.868  10.120  0.1045  0.0976  0.0022
  757MOL0     C 2066   7.793   3.891  10.173 -0.6420 -0.9417 -0.2660
  757MOL0     C 2067   7.707   3.791  10.210  0.3800  0.4283  0.4121
  757MOL0     O 2068   7.581   3.825  10.251  0.1152  0.1420 -0.5337
  757MOL0     C 2069   7.530   3.758  10.369 -0.2539  0.5570 -0.0699
  757MOL0     C 2070   7.582   3.839  10.491 -0.2177 -0.3726  0.2274
  757MOL0     C 2071   7.531   3.981  10.496 -0.3239 -0.2504 -0.1167
  757MOL0     C 2072   7.602   4.041  10.619  0.2557 -0.0558 -0.2941
  757MOL0     C 2073   7.587   4.190  10.622 -0.1059 -0.1307  0.1012
  757MOL0     C 2074   7.634   4.244  10.755 -0.2255  0.6949 -0.2603
  757MOL0     C 2075   7.773   4.301  10.730 -0.4210  0.0642 -0.8335
  757MOL0     C 2076   7.813   4.389  10.853 -0.5862 -0.5040  0.3885
  757MOL0     N 2077   7.770   4.527  10.847 -0.7686 -0.0702  0.1948
  757MOL0     C 2078   7.843   4.631  10.801 -0.4756 -0.2136  0.9206
  757MOL0     C 2079   7.772   4.744  10.825 -0.0205 -0.4811  0.4547
  757MOL0     C 2080   7.785   4.879  10.768  0.1265 -0.2115  0.3638
  757MOL0     C 2081   7.920   4.935  10.809 -0.9215 -0.0817  0.6041
  757MOL0     C 2082   7.942   5.070  10.741 -0.1765  0.5578  0.4122
  757MOL0     C 2083   8.069   5.138  10.784  0.2130 -0.0813  0.2009
  757MOL0     O 2084   8.184   5.049  10.746  0.1245  0.2888 -0.1939
  757MOL0     C 2085   8.307   5.096  10.774 -0.2380  0.3933  1.5966
  757MOL0     C 2086   8.329   5.228  10.805 -0.7151 -1.0695  0.4877
  757MOL0     C 2087   8.461   5.280  10.839  0.5027 -0.3859 -0.0969
  757MOL0     C 2088   8.463   5.426  10.866 -0.4549 -0.4645  0.0287
  757MOL0     C 2089   8.569   5.191  10.827  0.9568  0.4876 -0.2629
  757MOL0     C 2090   8.706   5.224  10.857  0.1329 -0.1103 -0.9632
  757MOL0     O 2091   8.770   5.117  10.907  0.2383 -0.3660  0.3272
  757MOL0     C 2092   8.900   5.150  10.941 -0.5557 -0.2178 -0.0678
  757MOL0     C 2093   8.938   5.167  11.074 -0.3654 -0.3353  0.7499
  757MOL0     C 2094   9.068   5.182  11.112  0.4506 -0.4052 -0.2468
  757MOL0     C 2095   9.170   5.192  11.014  0.6632 -0.5629 -0.0948
  757MOL0     O 2096   9.304   5.198  11.034 -0.7364  0.2240  0.3365
  757MOL0     C 2097   9.370   5.072  11.065  0.0695  0.1550 -0.1714
  757MOL0     C 2098   9.521   5.096  11.110 -1.2159  0.1619  0.2702
  757MOL0     C 2099   9.612   5.139  10.986  0.1718  0.4185  0.0715
  757MOL0     C 2100   9.684   5.019  10.926  0.3552 -0.7242 -0.7849
  757MOL0     C 2101   9.802   4.963  11.008 -0.3118 -0.1525  0.3345
  757MOL0     C 2102   9.915   5.058  11.036 -0.2814 -0.4620  0.9711
  757MOL0     C 2103  10.042   4.981  11.094 -0.6272 -0.6652 -0.6525
  757MOL0     C 2104  10.037   4.993  11.251 -0.4773  1.1379 -0.4032
  757MOL0    Cl 2105  10.140   4.867  11.329 -0.2276  0.1477 -0.0961
  757MOL0     C 2106   9.129   5.184  10.873  0.9572  0.3400 -0.1117
  757MOL0     C 2107   8.999   5.150  10.840  0.2920 -0.4125 -0.5567
  757MOL0     O 2108   8.759   5.330  10.826 -0.2739 -0.5664 -0.4660
  757MOL0     C 2109   8.536   5.051  10.806  0.4404 -0.3418 -0.5475
  757MOL0     C 2110   8.414   5.006  10.778  0.4826 -0.1212  0.5388
  757MOL0     N 2111   7.671   4.710  10.910 -0.4890  1.0876  0.4308
  757MOL0     N 2112   7.661   4.578  10.916 -0.1054 -0.0525 -0.4337
  757MOL0     C 2113   7.744   3.652  10.209  0.0332  0.0662 -0.7321
  757MOL0     C 2114   7.882   3.620  10.170 -0.8203  0.1981  0.0763
  757MOL0     C 2115   8.286   3.556  10.041 -0.4642 -0.2342 -1.2342
  757MOL0     C 2116   8.382   3.646  10.100 -0.3394  0.6641  0.1242
  757MOL0     C 2117   8.516   3.602  10.113 -0.2685 -0.5816 -0.0969
  757MOL0     C 2118   8.553   3.480  10.060  0.3462  0.4954 -0.5852
  757MOL0     O 2119   8.686   3.434  10.061  0.6459  0.4246 -0.5879
  757MOL0     C 2120   8.789   3.527  10.063 -0.9909 -0.1627 -0.3951
  757MOL0     C 2121   8.818   3.599   9.928  0.2363 -0.1482  0.1052
  757MOL0     C 2122   8.941   3.686   9.923  0.4772  0.4904  0.0497
  757MOL0     C 2123   8.928   3.775   9.805  0.7139  0.2831  0.2281
  757MOL0     C 2124   9.056   3.846   9.793 -0.7259 -1.0211 -0.4425
  757MOL0     C 2125   9.162   3.917   9.784  0.5818  0.4466 -0.6427
  757MOL0     C 2126   8.461   3.398   9.996 -0.4992 -0.1996 -1.2643
  757MOL0     C 2127   8.334   3.438   9.985  0.7243 -0.1542  0.5087
  757MOL0     H 2128   7.988   3.949  10.094  1.7221 -0.2809  2.6342
  757MOL0     H 2129   7.750   3.990  10.162  1.1044 -0.3523 -2.8484
  757MOL0     H 2130   7.421   3.770  10.368 -0.4588 -1.0530 -0.9039
  757MOL0     H 2131   7.560   3.653  10.378 -2.1476 -0.0339 -0.1936
  757MOL0     H 2132   7.551   3.794  10.586 -1.8646 -1.3102 -0.7197
  757MOL0     H 2133   7.691   3.845  10.487 -0.3243  1.1085 -3.2331
  757MOL0     H 2134   7.558   4.040  10.408 -3.8785  1.6361 -0.1264
  757MOL0     H 2135   7.423   3.994  10.489 -0.5819 -0.0435  2.9407
  757MOL0     H 2136   7.537   3.991  10.691  1.5216 -2.0887 -0.5055
  757MOL0     H 2137   7.703   4.004  10.637 -0.3338 -2.4922 -1.6320
  757MOL0     H 2138   7.629   4.247  10.539  0.6842  0.6264  0.9992
  757MOL0     H 2139   7.479   4.207  10.630 -0.2836 -1.3556  0.5398
  757MOL0     H 2140   7.574   4.327  10.795 -0.3061 -0.3164  1.8550
  757MOL0     H 2141   7.642   4.170  10.835 -1.2188 -0.5374 -1.2653
  757MOL0     H 2142   7.838   4.213  10.738 -1.5623 -0.7466 -0.1923
  757MOL0     H 2143   7.790   4.353  10.635  0.0607 -0.1440 -0.8665
  757MOL0     H 2144   7.922   4.385  10.857 -0.4058  1.3621 -1.3945
  757MOL0     H 2145   7.772   4.340  10.942  0.2015  0.6496  1.4232
  757MOL0     H 2146   7.938   4.620  10.749  0.2526 -1.6625  2.4755
  757MOL0     H 2147   7.774   4.890  10.660  1.3526 -0.6314  0.1811
  757MOL0     H 2148   7.716   4.952  10.813  1.2880  0.4008  1.2019
  757MOL0     H 2149   7.998   4.872  10.764  1.0783  2.8245 -0.2886
  757MOL0     H 2150   7.933   4.949  10.917 -0.5918  0.6977  0.4709
  757MOL0     H 2151   7.862   5.142  10.757 -1.0962  0.8130 -3.9872
  757MOL0     H 2152   7.942   5.056  10.632  1.9401 -1.1087  0.5371
  757MOL0     H 2153   8.066   5.148  10.893  1.1144 -0.9435  0.3135
  757MOL0     H 2154   8.062   5.241  10.747 -0.3434 -0.4788 -0.8503
  757MOL0     H 2155   8.253   5.305  10.817 -0.2397 -0.4684 -0.2494
  757MOL0     H 2156   8.420   5.488  10.786 -0.6506  0.6637  0.9940
  757MOL0     H 2157   8.395   5.434  10.951 -1.1070  0.7298 -0.5765
  757MOL0     H 2158   8.558   5.468  10.898 -0.1159  0.6388 -2.2112
  757MOL0     H 2159   8.872   5.159  11.160  0.1556  0.6297  1.2440
  757MOL0     H 2160   9.103   5.195  11.214  2.5547 -0.6401 -0.8945
  757MOL0     H 2161   9.329   5.028  11.156  1.2637  0.1247  0.3786
  757MOL0     H 2162   9.366   4.990  10.993 -0.5527  0.4061 -0.4221
  757MOL0     H 2163   9.527   5.183  11.176  0.4660 -1.1801  1.9897
  757MOL0     H 2164   9.555   5.004  11.158  2.5172  1.2855  0.1181
  757MOL0     H 2165   9.682   5.216  11.019 -1.5877  1.6913  0.9831
  757MOL0     H 2166   9.553   5.183  10.906  0.2974 -1.4850 -1.1485
  757MOL0     H 2167   9.605   4.945  10.911 -1.1246  0.9341 -1.5442
  757MOL0     H 2168   9.720   5.049  10.827 -1.6910  1.5004 -0.9567
  757MOL0     H 2169   9.845   4.881  10.951 -1.8926 -1.1089  0.4471
  757MOL0     H 2170   9.772   4.913  11.101  1.3672 -1.3977  0.2417
  757MOL0     H 2171   9.965   5.101  10.949  0.9912 -1.1580  1.3227
  757MOL0     H 2172   9.878   5.131  11.108  0.8734 -0.5129  1.6434
  757MOL0     H 2173  10.136   5.024  11.059 -1.6016  0.2573 -2.1899
  757MOL0     H 2174  10.036   4.874  11.070 -3.2095 -1.0960  1.4085
  757MOL0     H 2175   9.940   4.960  11.290  0.8590 -0.7739  1.5306
  757MOL0     H 2176  10.070   5.086  11.298  1.2167  1.8033 -2.7262
  757MOL0     H 2177   9.207   5.201  10.799  1.4158  1.5380  0.6146
  757MOL0     H 2178   8.964   5.134  10.738  0.1362  0.4724 -0.6519
  757MOL0     H 2179   8.609   4.970  10.800  2.4469  1.2670  0.7633
  757MOL0     H 2180   8.394   4.901  10.760  0.6843 -0.3727  1.7204
  757MOL0     H 2181   7.679   3.570  10.236 -0.6226  0.2186 -1.7580
  757MOL0     H 2182   7.909   3.515  10.171  0.8632  0.4948  3.8643
  757MOL0     H 2183   8.336   3.738  10.132  0.0204  1.0675 -0.5060
  757MOL0     H 2184   8.588   3.672  10.154 -4.1374  3.8231  0.0039
  757MOL0     H 2185   8.787   3.593  10.151 -2.2214 -1.4996  0.6273
  757MOL0     H 2186   8.881   3.475  10.091 -0.4856  1.4849  1.2360
  757MOL0     H 2187   8.738   3.672   9.910 -1.1333 -1.7691 -0.7634
  757MOL0     H 2188   8.802   3.527   9.846 -0.8994  2.8942 -2.5781
  757MOL0     H 2189   9.029   3.621   9.916  0.0033 -0.0212 -1.4997
  757MOL0     H 2190   8.954   3.754  10.008  0.9003  0.7866 -0.2427
  757MOL0     H 2191   8.852   3.853   9.815  0.3522 -0.1663  1.0119
  757MOL0     H 2192   8.900   3.727   9.710  0.4211 -0.9003  0.8973
  757MOL0     H 2193   9.255   3.968   9.769  1.5883  0.2598  3.7634
  757MOL0     H 2194   8.494   3.308   9.945 -1.6092 -0.7828 -0.9917
  757MOL0     H 2195   8.268   3.378   9.924 -0.6701 -1.0626  2.7793
  758MOL0     O 2196   6.898  10.843   7.015 -0.1476  0.2170 -0.2036
  758MOL0     C 2197   6.977  10.802   7.100  0.1276 -0.2214  0.5519
  758MOL0     O 2198   6.942  10.750   7.226  0.4364 -0.2472 -0.4770
  758MOL0     C 2199   6.800  10.716   7.236 -0.4544  0.4754 -0.1772
  758MOL0     C 2200   6.720  10.771   7.337 -0.3979 -1.2207 -0.1407
  758MOL0     C 2201   6.582  10.763   7.337  0.3034  0.2559  0.5233
  758MOL0     C 2202   6.514  10.692   7.243 -0.5054  0.6705  0.1114
  758MOL0     O 2203   6.380  10.685   7.264  0.0209  0.8811  0.4152
  758MOL0     C 2204   6.299  10.602   7.177 -0.3947  0.2862  0.1297
  758MOL0     C 2205   6.295  10.459   7.204 -0.9815 -0.2369 -0.5260
  758MOL0     C 2206   6.253  10.417   7.342 -0.9903 -0.1578 -1.3952
  758MOL0     C 2207   6.110  10.467   7.370 -0.0816 -0.3231  0.8031
  758MOL0     C 2208   6.042  10.376   7.476 -0.1122  0.1147  0.3572
  758MOL0     C 2209   6.083  10.421   7.625  0.2271 -0.2000 -0.6298
  758MOL0     C 2210   5.991  10.364   7.731  0.3569 -0.8408  0.0931
  758MOL0     C 2211   6.016  10.420   7.866 -0.4936  0.1691 -0.2989
  758MOL0     N 2212   5.925  10.387   7.977 -0.7146 -0.5873  0.0367
  758MOL0     C 2213   5.905  10.267   8.036  0.1645 -0.4491 -0.5042
  758MOL0     C 2214   5.793  10.273   8.115 -0.2345  1.2500 -0.0988
  758MOL0     C 2215   5.738  10.154   8.176 -0.2426 -0.9633  0.2601
  758MOL0     C 2216   5.593  10.170   8.214  1.1809 -0.8455  1.3795
  758MOL0     C 2217   5.523  10.040   8.249 -0.0578  0.3169  0.1899
  758MOL0     C 2218   5.392  10.060   8.322  0.3798 -0.3277 -0.1803
  758MOL0     O 2219   5.319   9.933   8.322 -0.3156  0.0635  0.3880
  758MOL0     C 2220   5.228   9.909   8.228  0.5881 -0.2034  1.2713
  758MOL0     C 2221   5.211   9.971   8.104  1.1119 -0.2646  0.4690
  758MOL0     C 2222   5.105   9.940   8.015  0.2279  0.5481  0.6230
  758MOL0     C 2223   5.101  10.011   7.875  0.3087  0.1848 -0.1714
  758MOL0     C 2224   5.018   9.831   8.045 -0.2626  0.3726  0.5849
  758MOL0     C 2225   4.908   9.790   7.957 -0.6289  0.3698 -0.8234
  758MOL0     O 2226   4.845   9.681   8.014  0.0872 -0.5413  0.2095
  758MOL0     C 2227   4.733   9.637   7.945  0.6099 -0.4493 -0.3978
  758MOL0     C 2228   4.613   9.651   8.007 -0.7740 -0.4417 -0.3566
  758MOL0     C 2229   4.491   9.608   7.950 -0.1181 -0.3563 -0.2253
  758MOL0     C 2230   4.501   9.561   7.821 -0.4658  0.1991 -0.0838
  758MOL0     O 2231   4.384   9.530   7.769 -0.0230  0.0671  0.2604
  758MOL0     C 2232   4.385   9.412   7.692  0.0448  0.3322 -0.8536
  758MOL0     C 2233   4.240   9.395   7.666 -0.5763 -0.7213 -0.2063
  758MOL0     C 2234   4.163   9.357   7.794 -0.1637 -0.0981  0.5428
  758MOL0     C 2235   4.019   9.338   7.766  0.5845 -0.1229 -1.1144
  758MOL0     C 2236   3.984   9.196   7.719 -0.6564 -1.0112  0.1524
  758MOL0     C 2237   3.956   9.103   7.838 -0.2254 -0.9318 -0.2036
  758MOL0     C 2238   3.917   8.965   7.780  0.3359  0.1353 -0.2093
  758MOL0     C 2239   3.958   8.850   7.866 -0.2466  0.3276 -0.2054
  758MOL0    Cl 2240   3.881   8.879   8.016  0.1200  0.0039 -0.3353
  758MOL0     C 2241   4.622   9.557   7.749 -0.1905 -0.1468  0.2710
  758MOL0     C 2242   4.737   9.591   7.815  0.4057 -0.0846  0.1424
  758MOL0     O 2243   4.882   9.846   7.856 -0.3057  0.2236  0.1557
  758MOL0     C 2244   5.022   9.782   8.176 -0.5293 -0.2322 -0.3634
  758MOL0     C 2245   5.121   9.816   8.260 -0.0186 -0.3238 -0.6557
  758MOL0     N 2246   5.750  10.398   8.108  0.3949 -0.0313  0.3455
  758MOL0     N 2247   5.825  10.466   8.025 -0.2892  0.7774  0.1544
  758MOL0     C 2248   6.589  10.636   7.138 -0.3619 -0.7346  0.5570
  758MOL0     C 2249   6.726  10.645   7.128  0.2390  0.4085  0.1872
  758MOL0     C 2250   7.124  10.807   7.081  0.5336 -0.2410  1.0808
  758MOL0     C 2251   7.173  10.836   6.954 -0.3243 -0.3153  0.3254
  758MOL0     C 2252   7.319  10.839   6.930  0.3455 -0.4437 -0.0480
  758MOL0     C 2253   7.413  10.822   7.033  0.1809  0.0609  0.1293
  758MOL0     O 2254   7.544  10.816   6.992  0.2639 -0.9801  0.6348
  758MOL0     C 2255   7.655  10.828   7.076 -0.4960 -1.1017 -0.1091
  758MOL0     C 2256   7.684  10.979   7.101  0.2069  1.1826 -0.6240
  758MOL0     C 2257   7.789  11.017   7.203 -1.2085 -0.0544 -1.3044
  758MOL0     C 2258   7.734  11.037   7.336  1.3603 -0.7048 -0.0682
  758MOL0     C 2259   7.839  11.087   7.433 -0.5347  0.1058  0.0509
  758MOL0     C 2260   7.907  11.094   7.534 -0.3346 -0.0021  0.1648
  758MOL0     C 2261   7.357  10.789   7.157  0.0188  0.2551  0.1290
  758MOL0     C 2262   7.221  10.782   7.181 -0.3923  0.3043  0.1940
  758MOL0     H 2263   6.768  10.821   7.420 -0.9850  1.0602 -1.1001
  758MOL0     H 2264   6.530  10.809   7.420  0.0613  0.1684  0.4193
  758MOL0     H 2265   6.198  10.641   7.163  0.1483  1.2603 -1.4983
  758MOL0     H 2266   6.347  10.620   7.080  0.8862  0.6684  0.8054
  758MOL0     H 2267   6.238  10.403   7.130 -1.8160 -1.7800  1.2037
  758MOL0     H 2268   6.399  10.431   7.186 -0.9846 -0.3910 -0.3168
  758MOL0     H 2269   6.254  10.309   7.361 -1.8271 -0.2088 -1.5858
  758MOL0     H 2270   6.318  10.464   7.416 -1.5397  1.6366 -2.0071
  758MOL0     H 2271   6.101  10.574   7.391 -0.2766 -0.1515 -0.0744
  758MOL0     H 2272   6.058  10.455   7.274 -0.2071  2.9373  0.3500
  758MOL0     H 2273   5.934  10.392   7.469 -0.1622  1.5717  2.9385
  758MOL0     H 2274   6.070  10.272   7.456  2.3438  0.7607  0.0479
  758MOL0     H 2275   6.184  10.385   7.645 -0.1255 -0.8239  0.0946
  758MOL0     H 2276   6.083  10.530   7.629 -2.8423 -0.0940 -0.8355
  758MOL0     H 2277   5.892  10.388   7.692  1.0632 -0.1176 -1.3482
  758MOL0     H 2278   5.994  10.255   7.732  1.4690 -0.8261  1.3677
  758MOL0     H 2279   6.037  10.528   7.861  3.1478 -0.2590  2.0067
  758MOL0     H 2280   6.113  10.378   7.892 -0.6538  0.0295  0.0717
  758MOL0     H 2281   5.955  10.174   8.009  1.0524 -0.3133  0.6096
  758MOL0     H 2282   5.746  10.089   8.088  0.6167 -0.7079  0.1479
  758MOL0     H 2283   5.792  10.120   8.265  1.8737  5.2459  1.8402
  758MOL0     H 2284   5.545  10.216   8.127  0.8692 -3.6077 -0.0302
  758MOL0     H 2285   5.590  10.240   8.298  1.0755 -0.8001  1.3383
  758MOL0     H 2286   5.594   9.981   8.307  1.1093 -0.2219 -1.6760
  758MOL0     H 2287   5.508   9.999   8.148 -0.4853 -2.2228  1.2014
  758MOL0     H 2288   5.332  10.137   8.272 -1.3470 -2.0000 -0.8530
  758MOL0     H 2289   5.421  10.082   8.425  1.1296  0.2900 -0.5161
  758MOL0     H 2290   5.283  10.041   8.064  0.2286 -1.0939 -2.9158
  758MOL0     H 2291   5.140   9.941   7.800 -1.6925 -1.3767  0.1632
  758MOL0     H 2292   5.005  10.055   7.846  0.3240  0.0674 -0.4041
  758MOL0     H 2293   5.172  10.093   7.868 -1.0605  1.2956 -2.0766
  758MOL0     H 2294   4.606   9.713   8.096 -2.2725 -0.0336 -0.7273
  758MOL0     H 2295   4.395   9.621   7.998 -0.6308 -0.1829 -1.2760
  758MOL0     H 2296   4.437   9.404   7.596  1.3454  3.0866 -0.4677
  758MOL0     H 2297   4.418   9.324   7.747 -0.9610 -1.8976 -3.5712
  758MOL0     H 2298   4.189   9.483   7.627 -2.5814 -1.1329  1.3070
  758MOL0     H 2299   4.239   9.317   7.589 -1.0603 -2.0206  1.0783
  758MOL0     H 2300   4.170   9.446   7.857 -1.6845 -1.4362  2.7456
  758MOL0     H 2301   4.196   9.261   7.835 -1.0489 -1.9980 -2.8181
  758MOL0     H 2302   3.981   9.351   7.867  2.4776 -0.9053 -0.2616
  758MOL0     H 2303   3.987   9.414   7.695  0.6813  0.0085 -1.0170
  758MOL0     H 2304   4.066   9.153   7.661 -1.4561 -0.7338 -1.2167
  758MOL0     H 2305   3.898   9.205   7.653 -1.6988  1.1999  1.6870
  758MOL0     H 2306   4.048   9.100   7.896  0.3171  2.7880 -0.5912
  758MOL0     H 2307   3.881   9.145   7.906  0.3694  1.0714 -0.6919
  758MOL0     H 2308   3.964   8.950   7.682  3.1565 -0.6306  1.1307
  758MOL0     H 2309   3.809   8.952   7.778 -0.0459  2.6168  0.6068
  758MOL0     H 2310   4.068   8.854   7.873 -0.2482  0.2877 -0.1583
  758MOL0     H 2311   3.928   8.752   7.828  0.3375 -1.0233  2.5537
  758MOL0     H 2312   4.637   9.521   7.647 -0.4028  3.3975 -1.1581
  758MOL0     H 2313   4.837   9.587   7.771  0.5922 -1.2537  0.6444
  758MOL0     H 2314   4.949   9.712   8.215 -0.7183 -0.8733 -1.8050
  758MOL0     H 2315   5.136   9.779   8.361 -2.2428  0.7241  0.1190
  758MOL0     H 2316   6.533  10.573   7.069 -4.1966  2.6369  0.2475
  758MOL0     H 2317   6.785  10.611   7.043  1.8302  2.2661  0.4761
  758MOL0     H 2318   7.116  10.836   6.862  1.1717  1.3871 -0.6774
  758MOL0     H 2319   7.363  10.852   6.831  0.8317  0.2131  0.2511
  758MOL0     H 2320   7.654  10.766   7.166  0.3216 -0.8652  0.0737
  758MOL0     H 2321   7.740  10.793   7.017 -1.9379  0.0591 -3.0731
  758MOL0     H 2322   7.598  11.037   7.137 -1.0924 -0.0392 -1.6340
  758MOL0     H 2323   7.707  11.019   7.002  1.1149  0.5031 -0.7025
  758MOL0     H 2324   7.842  11.108   7.173 -1.2879 -0.6493 -3.4301
  758MOL0     H 2325   7.861  10.935   7.197 -2.8021 -1.4032 -4.4164
  758MOL0     H 2326   7.687  10.944   7.369  0.1528 -0.6345 -1.5056
  758MOL0     H 2327   7.661  11.118   7.333  1.7872 -0.2943  0.3773
  758MOL0     H 2328   7.956  11.104   7.629  0.4950 -2.4923  0.0838
  758MOL0     H 2329   7.411  10.746   7.241 -1.4478 -1.7025  0.1396
  758MOL0     H 2330   7.195  10.750   7.282  0.3632 -2.1734 -0.3338
  759MOL0     O 2331   3.840   5.522   8.794  0.2340  0.2828  0.7527
  759MOL0     C 2332   3.894   5.523   8.906  0.1739  0.3148  0.7446
  759MOL0     O 2333   3.884   5.427   8.999 -0.0008  0.3885  0.1234
  759MOL0     C 2334   3.820   5.310   8.957 -0.6164 -0.4186  0.6188
  759MOL0     C 2335   3.684   5.291   8.966  0.9852  1.1180  0.6833
  759MOL0     C 2336   3.625   5.168   8.913 -0.1514 -0.7431  0.3658
  759MOL0     C 2337   3.702   5.074   8.858  0.0355 -0.4070  0.2283
  759MOL0     O 2338   3.652   4.962   8.807 -0.1184  0.3650 -0.2508
  759MOL0     C 2339   3.510   4.940   8.796  0.1052  0.0129  0.5754
  759MOL0     C 2340   3.456   5.021   8.666  0.3361 -0.2592  0.2387
  759MOL0     C 2341   3.296   5.025   8.655 -0.4972  0.0076  0.3901
  759MOL0     C 2342   3.242   5.005   8.514 -0.1690 -0.4054 -1.3814
  759MOL0     C 2343   3.093   4.970   8.521  1.2259 -0.0989  0.1130
  759MOL0     C 2344   3.023   4.988   8.384  0.4856  0.3140 -0.7357
  759MOL0     C 2345   2.880   4.947   8.421  0.8522  0.0391  0.3717
  759MOL0     C 2346   2.824   4.863   8.296  0.0393  0.1558 -0.5581
  759MOL0     N 2347   2.688   4.810   8.307  0.7040  0.1018 -0.3745
  759MOL0     C 2348   2.651   4.710   8.391 -0.2856  1.1169  1.6437
  759MOL0     C 2349   2.523   4.685   8.367 -0.0529  0.5912 -0.4518
  759MOL0     C 2350   2.450   4.575   8.435 -0.6900  0.3978 -0.2585
  759MOL0     C 2351   2.352   4.500   8.360 -0.4581  0.4498 -0.3573
  759MOL0     C 2352   2.334   4.362   8.432  0.4841 -0.1345 -0.2924
  759MOL0     C 2353   2.217   4.269   8.382  0.7268 -0.1270 -0.5511
  759MOL0     O 2354   2.100   4.341   8.430  0.2123  1.3128  0.4187
  759MOL0     C 2355   1.972   4.293   8.399  0.0031 -0.1193 -0.1484
  759MOL0     C 2356   1.860   4.368   8.428 -0.3548 -0.4287  0.5276
  759MOL0     C 2357   1.731   4.327   8.398  0.4328  0.3611 -0.6157
  759MOL0     C 2358   1.621   4.417   8.427 -1.0319 -0.5266  0.7326
  759MOL0     C 2359   1.712   4.192   8.360 -0.5993 -1.3566  0.6971
  759MOL0     C 2360   1.583   4.137   8.321 -0.5927 -0.8457 -0.7586
  759MOL0     O 2361   1.582   4.002   8.327  0.7477 -1.0689  0.6759
  759MOL0     C 2362   1.457   3.953   8.332 -0.3268  0.7205  0.3795
  759MOL0     C 2363   1.399   3.936   8.203  0.1875 -0.2577  0.3547
  759MOL0     C 2364   1.273   3.877   8.198  0.2896 -0.3087  0.2426
  759MOL0     C 2365   1.195   3.847   8.314  0.2817 -0.1760  0.6021
  759MOL0     O 2366   1.071   3.787   8.319 -0.0134 -0.9316  0.4390
  759MOL0     C 2367   0.994   3.776   8.202  0.1979  0.1706  0.1230
  759MOL0     C 2368   0.857   3.737   8.230 -0.2362 -0.1015 -0.0570
  759MOL0     C 2369   0.766   3.727   8.093  0.2099  0.2201 -0.2159
  759MOL0     C 2370   0.623   3.677   8.122  0.0098 -0.3280 -0.3691
  759MOL0     C 2371   0.551   3.753   8.233  0.4897  0.2909  0.0196
  759MOL0     C 2372   0.399   3.747   8.204  0.7116 -0.1776 -1.0320
  759MOL0     C 2373   0.327   3.829   8.300 -0.1489 -0.8569 -0.1174
  759MOL0     C 2374   0.185   3.779   8.331 -0.3224  0.1230 -0.6728
  759MOL0    Cl 2375   0.189   3.614   8.406  0.4165  0.4492  0.0175
  759MOL0     C 2376   1.250   3.880   8.437 -0.8016 -0.3602 -1.2174
  759MOL0     C 2377   1.388   3.921   8.452  0.7519 -0.5474  0.6128
  759MOL0     O 2378   1.488   4.210   8.275 -0.7168  0.0504 -0.3561
  759MOL0     C 2379   1.828   4.109   8.338 -0.1286 -0.3071 -0.6345
  759MOL0     C 2380   1.952   4.160   8.352  0.2732  0.1945  0.6905
  759MOL0     N 2381   2.478   4.751   8.255 -0.4727  0.0590  0.0177
  759MOL0     N 2382   2.580   4.834   8.221  0.5352  0.6969 -0.3778
  759MOL0     C 2383   3.839   5.098   8.855 -0.9872  0.4271  0.8603
  759MOL0     C 2384   3.898   5.210   8.897  0.6739 -0.3312  0.2538
  759MOL0     C 2385   3.956   5.648   8.945  0.5215  0.3436 -0.5699
  759MOL0     C 2386   3.980   5.758   8.857 -0.4765  0.1065 -0.7954
  759MOL0     C 2387   4.030   5.878   8.915  0.3622  0.1657 -0.8557
  759MOL0     C 2388   4.058   5.892   9.051  0.5197  0.7101  0.0322
  759MOL0     O 2389   4.105   6.012   9.095  0.2675 -0.1863 -0.0391
  759MOL0     C 2390   4.137   6.031   9.235 -0.5337  0.0909 -1.2864
  759MOL0     C 2391   4.230   6.157   9.245 -0.4627 -0.9468  0.0927
  759MOL0     C 2392   4.125   6.266   9.202  0.5354  0.0386 -0.1514
  759MOL0     C 2393   4.179   6.408   9.214 -0.1344  0.2675 -0.1187
  759MOL0     C 2394   4.269   6.448   9.105 -0.1365  0.4142 -0.0024
  759MOL0     C 2395   4.331   6.480   9.010 -0.6585  0.0654 -0.1187
  759MOL0     C 2396   4.027   5.791   9.140  0.6925  0.7745 -0.6187
  759MOL0     C 2397   3.981   5.670   9.092 -0.2061 -0.5967  0.3149
  759MOL0     H 2398   3.616   5.373   8.991  1.9373  2.1669 -0.0367
  759MOL0     H 2399   3.517   5.177   8.911 -0.0245  4.0661  1.8916
  759MOL0     H 2400   3.502   4.833   8.779  1.0316  0.0785 -0.3912
  759MOL0     H 2401   3.453   4.944   8.889 -0.4276 -2.4442  0.4129
  759MOL0     H 2402   3.507   5.118   8.668  2.6796 -1.4241  1.6422
  759MOL0     H 2403   3.487   4.981   8.569 -3.6849  0.3456 -1.5096
  759MOL0     H 2404   3.259   4.939   8.711 -3.5396 -0.9721 -2.7603
  759MOL0     H 2405   3.246   5.112   8.698  0.0020 -0.3715  1.7714
  759MOL0     H 2406   3.268   5.101   8.469 -0.4017 -0.2089 -1.0994
  759MOL0     H 2407   3.297   4.933   8.453  1.6531 -0.3641  0.1385
  759MOL0     H 2408   3.080   4.866   8.552  0.9470 -0.4171 -1.0546
  759MOL0     H 2409   3.043   5.035   8.594  0.7889  1.7429 -1.7210
  759MOL0     H 2410   3.028   5.090   8.346 -3.2455  1.0773  0.4279
  759MOL0     H 2411   3.076   4.926   8.312  1.3810 -0.3190  0.4366
  759MOL0     H 2412   2.869   4.884   8.510  0.8700  0.1116  0.4257
  759MOL0     H 2413   2.823   5.041   8.425  0.1675 -0.3261 -0.3859
  759MOL0     H 2414   2.886   4.776   8.275  1.0137 -0.4702  3.8341
  759MOL0     H 2415   2.831   4.925   8.206  0.0302 -0.7296 -1.1836
  759MOL0     H 2416   2.712   4.666   8.469 -0.8342 -0.3348  1.2833
  759MOL0     H 2417   2.509   4.505   8.495 -4.0467 -0.8367  1.9223
  759MOL0     H 2418   2.392   4.623   8.515  2.0882  1.2394  1.4081
  759MOL0     H 2419   2.390   4.481   8.260 -1.2280 -1.6375 -0.3105
  759MOL0     H 2420   2.256   4.553   8.354 -1.5683 -1.3460  0.4906
  759MOL0     H 2421   2.324   4.372   8.540  1.8174 -2.3181  0.0932
  759MOL0     H 2422   2.419   4.294   8.416 -1.1632 -2.2498 -0.5610
  759MOL0     H 2423   2.239   4.169   8.420  2.4146  0.3368 -0.2219
  759MOL0     H 2424   2.206   4.256   8.274 -1.3198 -2.8001 -0.1131
  759MOL0     H 2425   1.889   4.468   8.457 -0.1703 -0.1448 -0.5943
  759MOL0     H 2426   1.576   4.461   8.337 -5.4176 -3.3686  1.2474
  759MOL0     H 2427   1.543   4.356   8.473 -0.5552 -1.4410  0.3409
  759MOL0     H 2428   1.660   4.496   8.493 -1.6837 -1.3492  2.1390
  759MOL0     H 2429   1.458   3.960   8.116 -0.8430  0.9584 -0.0371
  759MOL0     H 2430   1.244   3.838   8.100 -0.3300  1.2558 -0.2268
  759MOL0     H 2431   1.003   3.867   8.142  0.6264  0.7883  1.0885
  759MOL0     H 2432   1.050   3.703   8.144 -0.6915 -0.8932  0.5563
  759MOL0     H 2433   0.851   3.646   8.291  0.8501  1.2043  2.1052
  759MOL0     H 2434   0.812   3.823   8.281  0.7602  1.2023 -1.3133
  759MOL0     H 2435   0.820   3.671   8.016 -2.2905  1.3337 -2.9843
  759MOL0     H 2436   0.750   3.828   8.055 -0.6165  0.6751  1.2491
  759MOL0     H 2437   0.564   3.690   8.031 -1.2286 -2.1598  0.1135
  759MOL0     H 2438   0.626   3.573   8.157 -1.4766 -0.4649 -0.5694
  759MOL0     H 2439   0.574   3.858   8.218  0.3449 -0.0533 -3.5054
  759MOL0     H 2440   0.579   3.719   8.333  0.3689  0.0898 -0.0143
  759MOL0     H 2441   0.368   3.785   8.106  0.5579  0.4526 -0.7426
  759MOL0     H 2442   0.363   3.645   8.215  2.5852 -0.8383 -0.5350
  759MOL0     H 2443   0.320   3.931   8.262 -0.1800 -0.2409  1.4635
  759MOL0     H 2444   0.366   3.836   8.402 -1.9582  2.8706  0.5006
  759MOL0     H 2445   0.132   3.775   8.236 -0.9615 -1.8382 -0.2854
  759MOL0     H 2446   0.130   3.849   8.395 -1.5626 -0.7048 -0.8190
  759MOL0     H 2447   1.194   3.856   8.527  2.5109 -0.6851  0.9143
  759MOL0     H 2448   1.432   3.927   8.552 -1.0266 -1.4708  1.4931
  759MOL0     H 2449   1.824   4.005   8.310 -2.1283 -0.2033 -0.9396
  759MOL0     H 2450   2.035   4.090   8.344  0.6323  0.3575  2.6522
  759MOL0     H 2451   3.902   5.021   8.813 -0.8833  0.9881 -0.0259
  759MOL0     H 2452   4.006   5.218   8.889  0.4756  1.6001 -1.2526
  759MOL0     H 2453   3.963   5.759   8.750 -1.1438  2.6378 -0.7423
  759MOL0     H 2454   4.059   5.951   8.840 -0.1550 -1.5492 -2.8346
  759MOL0     H 2455   4.048   6.033   9.299  0.8388  0.7549  0.6957
  759MOL0     H 2456   4.201   5.948   9.266  0.8119  0.8417 -1.9976
  759MOL0     H 2457   4.315   6.152   9.176 -0.2564 -0.5215  0.3093
  759MOL0     H 2458   4.277   6.174   9.342  1.1382  1.2453 -0.9845
  759MOL0     H 2459   4.036   6.260   9.265  0.6925  0.4833  0.1172
  759MOL0     H 2460   4.099   6.263   9.096 -0.0937 -2.0521  0.0209
  759MOL0     H 2461   4.226   6.421   9.312 -0.9947 -0.3197  0.3817
  759MOL0     H 2462   4.101   6.483   9.201  0.2470  0.4804 -1.3244
  759MOL0     H 2463   4.394   6.509   8.928 -0.4748  0.9294  0.3256
  759MOL0     H 2464   4.044   5.800   9.247  1.5755  0.0834 -0.6863
  759MOL0     H 2465   3.932   5.599   9.157 -1.7814 -0.1334 -0.3153
  760MOL0     O 2466  10.674   5.425  10.687 -0.5900  1.1236 -0.3876
  760MOL0     C 2467  10.554   5.428  10.669  0.1454 -0.0521 -0.1488
  760MOL0     O 2468  10.474   5.338  10.721  0.5395  0.5111 -1.1028
  760MOL0     C 2469  10.509   5.244  10.821 -0.8303 -1.1876  0.5656
  760MOL0     C 2470  10.483   5.109  10.804  0.6224  0.4502  0.1983
  760MOL0     C 2471  10.524   5.010  10.892  0.0329  0.4900  0.4974
  760MOL0     C 2472  10.590   5.041  11.005 -0.3162 -0.7728 -0.6411
  760MOL0     O 2473  10.609   4.937  11.094  0.6839  0.2180  0.7235
  760MOL0     C 2474  10.539   4.948  11.213 -0.1434  1.0783 -0.6647
  760MOL0     C 2475  10.515   4.803  11.274  0.1283 -0.2642  0.6479
  760MOL0     C 2476  10.638   4.738  11.334  1.0627  0.0112 -0.0522
  760MOL0     C 2477  10.602   4.613  11.412 -0.0390  0.0161 -0.6683
  760MOL0     C 2478  10.709   4.589  11.515  0.7068  0.5980 -0.4152
  760MOL0     C 2479  10.694   4.467  11.605  0.9091 -0.6880  0.1672
  760MOL0     C 2480  10.824   4.467  11.688  0.4502  0.1110 -0.0525
  760MOL0     C 2481  10.827   4.347  11.782 -0.7903 -0.0733  0.8625
  760MOL0     N 2482  10.749   4.348  11.902 -0.6052 -0.6170  0.0309
  760MOL0     C 2483  10.808   4.368  12.026 -0.0511  0.5624  0.8058
  760MOL0     C 2484  10.721   4.329  12.118  0.2394  0.2664  0.2003
  760MOL0     C 2485  10.768   4.332  12.266  0.1801 -0.3967  0.4892
  760MOL0     C 2486  10.750   4.475  12.340  0.4545 -0.1412 -0.4958
  760MOL0     C 2487  10.605   4.521  12.375 -0.0581  0.7219 -0.7399
  760MOL0     C 2488  10.501   4.496  12.272  0.0514  0.3694  0.2877
  760MOL0     O 2489  10.383   4.568  12.308 -0.4517 -0.3141 -0.2346
  760MOL0     C 2490  10.277   4.574  12.220 -0.5351 -0.6420 -0.3016
  760MOL0     C 2491  10.276   4.490  12.105 -0.2316  0.8340  0.3735
  760MOL0     C 2492  10.166   4.462  12.031 -0.0995 -0.6645  0.6624
  760MOL0     C 2493  10.177   4.352  11.928  0.3135 -0.0287  0.5304
  760MOL0     C 2494  10.042   4.531  12.066  0.5044  0.2644 -1.0725
  760MOL0     C 2495   9.914   4.514  11.994 -0.8228 -0.3265 -0.1976
  760MOL0     O 2496   9.797   4.547  12.061  0.4342  0.2461 -0.1042
  760MOL0     C 2497   9.677   4.539  11.997  0.1523 -0.4070  0.3845
  760MOL0     C 2498   9.636   4.439  11.914 -0.2255  0.9663  0.9595
  760MOL0     C 2499   9.506   4.435  11.865 -0.2090  0.2056  0.2322
  760MOL0     C 2500   9.410   4.537  11.890  0.6731 -0.2051 -0.9957
  760MOL0     O 2501   9.282   4.529  11.844  0.3597  0.0159  0.5356
  760MOL0     C 2502   9.179   4.630  11.858 -0.2209 -0.1296  0.4109
  760MOL0     C 2503   9.083   4.621  11.740  0.2473 -0.2173 -0.3394
  760MOL0     C 2504   9.027   4.477  11.716 -1.1306 -0.1690 -0.6766
  760MOL0     C 2505   8.967   4.413  11.829  0.6851  1.0264  0.4998
  760MOL0     C 2506   8.911   4.271  11.796  0.9384 -0.3655 -1.1024
  760MOL0     C 2507   9.014   4.165  11.759  0.1590  0.9541  0.9192
  760MOL0     C 2508   8.946   4.024  11.770 -0.0534  0.5111  0.0923
  760MOL0     C 2509   9.043   3.927  11.722  1.2411  0.7260 -0.3932
  760MOL0    Cl 2510   8.988   3.767  11.718 -0.5344 -0.1854 -0.1188
  760MOL0     C 2511   9.457   4.639  11.971 -0.3457 -0.0466 -0.0909
  760MOL0     C 2512   9.588   4.638  12.024 -0.2295 -0.2328 -0.1931
  760MOL0     O 2513   9.922   4.479  11.873 -0.3966  0.2144 -0.3918
  760MOL0     C 2514  10.044   4.613  12.175 -0.0771 -0.3482 -0.1846
  760MOL0     C 2515  10.163   4.634  12.258  0.9810  0.3622 -0.7948
  760MOL0     N 2516  10.606   4.298  12.058  0.0805 -0.1751 -0.1795
  760MOL0     N 2517  10.622   4.321  11.931 -0.0672  0.1291  0.4601
  760MOL0     C 2518  10.631   5.181  11.021 -0.3283 -0.3225 -0.5292
  760MOL0     C 2519  10.589   5.274  10.927  1.1082  0.0804 -0.3713
  760MOL0     C 2520  10.486   5.544  10.596 -0.4396 -0.7365  0.1961
  760MOL0     C 2521  10.551   5.648  10.526 -0.5655  0.3139 -0.5534
  760MOL0     C 2522  10.488   5.753  10.458 -0.1523  0.1354  0.3198
  760MOL0     C 2523  10.357   5.754  10.454  1.0464 -1.3150  0.9841
  760MOL0     O 2524  10.279   5.846  10.397  0.3614 -0.7791  0.5734
  760MOL0     C 2525  10.337   5.967  10.350  0.1738  0.1052  0.3037
  760MOL0     C 2526  10.236   6.064  10.293  0.3134 -0.0760  0.8026
  760MOL0     C 2527  10.301   6.194  10.245  0.0876  0.0719 -0.3124
  760MOL0     C 2528  10.196   6.282  10.169  1.6613  0.4367 -0.2878
  760MOL0     C 2529  10.217   6.433  10.178  0.7012 -0.1394 -0.8260
  760MOL0     C 2530  10.243   6.554  10.192 -0.4914 -0.0071  0.1050
  760MOL0     C 2531  10.289   5.655  10.531  0.3716  0.2112  0.2032
  760MOL0     C 2532  10.350   5.546  10.591 -0.7567  0.4631 -0.5495
  760MOL0     H 2533  10.423   5.078  10.718 -1.6070  1.5722  1.2781
  760MOL0     H 2534  10.503   4.908  10.861  2.1031 -0.5013  2.1489
  760MOL0     H 2535  10.591   5.006  11.290 -1.3529  0.4064  0.7092
  760MOL0     H 2536  10.438   4.988  11.198 -0.9222 -0.0641  1.1064
  760MOL0     H 2537  10.446   4.801  11.358 -0.5176  0.6860  0.1620
  760MOL0     H 2538  10.467   4.738  11.201  0.7137  0.8251 -0.7757
  760MOL0     H 2539  10.705   4.701  11.256 -1.3585 -2.0647 -1.2846
  760MOL0     H 2540  10.694   4.818  11.384  0.0319  0.9315 -0.3414
  760MOL0     H 2541  10.505   4.618  11.463  0.3469 -1.7450  0.3347
  760MOL0     H 2542  10.612   4.527  11.344  4.0460 -0.9079  0.8137
  760MOL0     H 2543  10.797   4.582  11.451  2.2764  0.1956  1.6646
  760MOL0     H 2544  10.706   4.675  11.583 -3.1093  1.9171 -1.9384
  760MOL0     H 2545  10.600   4.484  11.659  0.4594  0.5595 -0.9514
  760MOL0     H 2546  10.699   4.382  11.536  0.6216  0.9304 -1.9511
  760MOL0     H 2547  10.907   4.457  11.617 -0.5447 -1.0402 -1.0984
  760MOL0     H 2548  10.833   4.565  11.737  0.6586  0.3903 -0.6448
  760MOL0     H 2549  10.928   4.360  11.822  0.1464 -0.5266 -1.2121
  760MOL0     H 2550  10.822   4.258  11.720  1.5193  0.1276  0.3225
  760MOL0     H 2551  10.903   4.418  12.037 -0.5489  1.2072  2.6414
  760MOL0     H 2552  10.709   4.253  12.314 -2.2484  0.7562 -0.4402
  760MOL0     H 2553  10.873   4.303  12.257  0.5835  1.3705 -0.9825
  760MOL0     H 2554  10.788   4.557  12.278 -0.1807 -1.2203 -2.3906
  760MOL0     H 2555  10.813   4.466  12.429 -1.3625 -0.1776  0.8480
  760MOL0     H 2556  10.620   4.627  12.400 -0.4130  1.0063 -1.7008
  760MOL0     H 2557  10.595   4.477  12.475  0.3329 -1.0402 -1.4421
  760MOL0     H 2558  10.469   4.392  12.272  0.1835  0.2718 -2.2496
  760MOL0     H 2559  10.546   4.524  12.177 -0.5711  1.2992  0.2471
  760MOL0     H 2560  10.361   4.430  12.074 -0.4465  2.0717 -2.9985
  760MOL0     H 2561  10.269   4.293  11.938  0.1943 -0.5961 -1.4001
  760MOL0     H 2562  10.087   4.291  11.941 -0.4016  1.1867  1.5016
  760MOL0     H 2563  10.173   4.394  11.827 -3.5878 -1.8068 -0.2466
  760MOL0     H 2564   9.703   4.359  11.883 -0.6343  0.7489  0.6317
  760MOL0     H 2565   9.478   4.350  11.803  0.8556  0.4595 -0.6118
  760MOL0     H 2566   9.122   4.612  11.950 -1.5731 -1.6428 -0.6709
  760MOL0     H 2567   9.221   4.731  11.856 -1.7388  0.5807 -3.0740
  760MOL0     H 2568   8.995   4.678  11.772  0.4379 -0.9163  1.5831
  760MOL0     H 2569   9.121   4.669  11.650 -0.5623 -0.4242 -0.7967
  760MOL0     H 2570   9.115   4.418  11.689  0.1813  0.9686  0.9346
  760MOL0     H 2571   8.946   4.496  11.645 -3.7025 -0.7454  1.9238
  760MOL0     H 2572   9.038   4.397  11.911  1.8069 -1.7342 -0.8820
  760MOL0     H 2573   8.886   4.481  11.857  0.9906  1.7746 -0.3955
  760MOL0     H 2574   8.832   4.279  11.721  0.1533 -0.8403 -0.3474
  760MOL0     H 2575   8.872   4.241  11.893  1.6494  0.1390 -0.6474
  760MOL0     H 2576   9.050   4.184  11.658  1.2651 -0.8931  0.9107
  760MOL0     H 2577   9.102   4.178  11.823  0.4189  1.8382  0.3971
  760MOL0     H 2578   8.853   4.021  11.713  1.0652 -0.6253 -1.7821
  760MOL0     H 2579   8.934   4.018  11.879  2.4488 -1.5632  0.3624
  760MOL0     H 2580   9.130   3.942  11.786 -0.4906 -0.0642  2.2927
  760MOL0     H 2581   9.071   3.958  11.620  3.2853 -1.5081 -0.5986
  760MOL0     H 2582   9.390   4.719  12.001 -1.1482 -0.1024 -1.6188
  760MOL0     H 2583   9.616   4.727  12.079  2.2840 -1.6002  0.9312
  760MOL0     H 2584   9.967   4.679  12.214 -0.5450 -0.8506 -0.2502
  760MOL0     H 2585  10.161   4.705  12.339 -1.2503 -1.4913  0.8892
  760MOL0     H 2586  10.686   5.222  11.106 -1.5496  0.5395 -0.1189
  760MOL0     H 2587  10.620   5.377  10.939  0.8606 -0.0047  1.3778
  760MOL0     H 2588  10.658   5.634  10.525 -0.4343  1.0509 -2.8495
  760MOL0     H 2589  10.554   5.823  10.407 -2.6064  0.9908 -1.8718
  760MOL0     H 2590  10.396   6.008  10.433  1.3983  0.8180 -0.8877
  760MOL0     H 2591  10.409   5.940  10.273  0.2123  1.5159 -0.1831
  760MOL0     H 2592  10.170   6.088  10.377 -0.7740 -1.5252  0.4107
  760MOL0     H 2593  10.177   6.016  10.214 -1.2578 -0.6508  2.2529
  760MOL0     H 2594  10.375   6.171  10.168 -2.7770  0.7184 -3.5386
  760MOL0     H 2595  10.347   6.249  10.328 -2.2236  0.8942  0.5306
  760MOL0     H 2596  10.096   6.261  10.207  1.1960  1.2754 -1.0178
  760MOL0     H 2597  10.199   6.249  10.065 -0.4084 -2.2031  0.3663
  760MOL0     H 2598  10.262   6.657  10.215  0.2954  0.3478 -1.9931
  760MOL0     H 2599  10.181   5.660  10.539  0.2755  1.4648 -1.3719
  760MOL0     H 2600  10.280   5.472  10.628 -1.7162  0.6365 -1.9810
  761MOL0     O 2601   6.602   5.321   2.792 -0.0314 -0.1839 -0.3822
  761MOL0     C 2602   6.671   5.408   2.857  0.0621 -0.3829  0.3844
  761MOL0     O 2603   6.626   5.534   2.900  0.3723  0.3283  0.5883
  761MOL0     C 2604   6.491   5.554   2.910  0.0866 -0.2109  0.4486
  761MOL0     C 2605   6.388   5.468   2.916  0.6981 -0.1492 -0.3381
  761MOL0     C 2606   6.256   5.506   2.913  0.9226  0.1107 -0.0889
  761MOL0     C 2607   6.219   5.636   2.908  0.2460 -0.8629 -0.1469
  761MOL0     O 2608   6.082   5.663   2.898 -0.6761 -0.1645 -0.5003
  761MOL0     C 2609   6.042   5.797   2.871 -0.1641  1.3257 -0.5361
  761MOL0     C 2610   5.895   5.805   2.863  0.2089 -0.1598  0.0740
  761MOL0     C 2611   5.834   5.956   2.847 -0.6408 -0.0624  0.1598
  761MOL0     C 2612   5.860   6.019   2.711 -0.2110  0.1764  0.5840
  761MOL0     C 2613   5.764   6.140   2.700 -0.9090  0.1020 -0.0433
  761MOL0     C 2614   5.794   6.252   2.806  0.1848 -0.5527  0.4714
  761MOL0     C 2615   5.711   6.375   2.763  0.6530  0.3213 -0.9161
  761MOL0     C 2616   5.729   6.499   2.846 -0.2944 -1.1611 -0.3939
  761MOL0     N 2617   5.618   6.598   2.854  0.2681  0.3007  0.3606
  761MOL0     C 2618   5.558   6.658   2.960  0.8132 -0.1246  0.4765
  761MOL0     C 2619   5.467   6.734   2.901  0.0735  0.3413 -0.8002
  761MOL0     C 2620   5.370   6.832   2.969 -0.5002  0.4543 -0.0572
  761MOL0     C 2621   5.353   6.814   3.129 -0.3374  0.5657  0.2564
  761MOL0     C 2622   5.264   6.692   3.166 -0.2781 -0.2780  1.5215
  761MOL0     C 2623   5.114   6.727   3.170 -0.0467  0.2361  0.2787
  761MOL0     O 2624   5.070   6.764   3.038  0.2517  0.7524  0.0419
  761MOL0     C 2625   4.940   6.800   3.009 -0.1861  0.1857  0.2555
  761MOL0     C 2626   4.849   6.818   3.110  0.1016  0.1421  0.3896
  761MOL0     C 2627   4.731   6.881   3.077  0.6391  0.3150  0.6037
  761MOL0     C 2628   4.630   6.907   3.196 -0.4931  0.6053  0.2423
  761MOL0     C 2629   4.693   6.916   2.938 -0.0489  0.5114 -0.0157
  761MOL0     C 2630   4.552   6.950   2.893 -0.6110 -0.4833  0.0636
  761MOL0     O 2631   4.457   6.913   2.978  0.0124 -0.4404  0.3304
  761MOL0     C 2632   4.334   6.966   2.948 -0.9084 -0.2785 -0.4087
  761MOL0     C 2633   4.264   6.917   2.838  0.1911  0.3525  0.0672
  761MOL0     C 2634   4.142   6.981   2.806 -0.2152  0.0063  0.4643
  761MOL0     C 2635   4.085   7.081   2.892 -0.0211  0.9589 -0.1264
  761MOL0     O 2636   3.964   7.148   2.874 -0.3068 -0.0930 -0.0275
  761MOL0     C 2637   3.854   7.082   2.799  0.9766  0.5202 -0.2974
  761MOL0     C 2638   3.868   7.130   2.650 -0.3379 -0.3041 -0.4582
  761MOL0     C 2639   3.732   7.127   2.576  0.0910  0.3389 -0.1837
  761MOL0     C 2640   3.629   7.224   2.634 -0.0376  1.1009  0.0944
  761MOL0     C 2641   3.505   7.267   2.556  0.1718 -0.0851  0.9582
  761MOL0     C 2642   3.415   7.149   2.513  1.1822 -0.3915 -0.0341
  761MOL0     C 2643   3.339   7.078   2.624  0.2332 -0.2188 -0.5848
  761MOL0     C 2644   3.259   6.953   2.571 -0.3970 -0.1686 -0.0077
  761MOL0    Cl 2645   3.374   6.806   2.571 -0.2553  0.0376  0.1821
  761MOL0     C 2646   4.165   7.125   3.006 -0.2278  0.1072  0.8069
  761MOL0     C 2647   4.288   7.064   3.034  0.6085 -0.1434 -0.8523
  761MOL0     O 2648   4.540   6.989   2.778  0.2631  0.4886  0.8524
  761MOL0     C 2649   4.787   6.893   2.835  1.1376  0.6143 -0.0711
  761MOL0     C 2650   4.906   6.833   2.874 -0.4147  0.1465 -0.0905
  761MOL0     N 2651   5.479   6.733   2.766  0.0223 -0.4010  0.4046
  761MOL0     N 2652   5.571   6.648   2.739 -0.2800 -0.3018  0.0088
  761MOL0     C 2653   6.323   5.730   2.912 -0.6725 -0.7384  0.1418
  761MOL0     C 2654   6.454   5.690   2.912 -0.7087 -0.6839  0.4747
  761MOL0     C 2655   6.820   5.367   2.878  0.4163  0.2854 -0.1961
  761MOL0     C 2656   6.880   5.271   2.803  0.3312  0.2824 -0.4501
  761MOL0     C 2657   7.009   5.232   2.832  0.3763  0.6729  0.8134
  761MOL0     C 2658   7.081   5.285   2.935 -0.0170 -0.4161  0.2774
  761MOL0     O 2659   7.210   5.237   2.946  0.0164 -0.4092  0.1952
  761MOL0     C 2660   7.291   5.303   3.047 -0.6032 -0.5993  0.9824
  761MOL0     C 2661   7.422   5.228   3.053 -0.5641  0.3977  0.4505
  761MOL0     C 2662   7.519   5.280   3.151 -0.5967 -0.9820  0.2042
  761MOL0     C 2663   7.649   5.198   3.168  0.1281 -0.0133 -0.5682
  761MOL0     C 2664   7.632   5.069   3.234  0.3231  0.4113  0.4199
  761MOL0     C 2665   7.619   4.965   3.292 -0.9454  0.0219  0.6081
  761MOL0     C 2666   7.019   5.382   3.024  0.7579  0.6854  0.7979
  761MOL0     C 2667   6.885   5.425   2.992  0.2987 -1.1815 -0.3407
  761MOL0     H 2668   6.407   5.361   2.923 -0.6370 -0.4734 -1.2265
  761MOL0     H 2669   6.178   5.430   2.915  0.9484  0.0878  1.3833
  761MOL0     H 2670   6.085   5.869   2.941  0.3425  1.6234 -1.1554
  761MOL0     H 2671   6.076   5.829   2.773 -2.3477  4.2807 -0.4543
  761MOL0     H 2672   5.866   5.758   2.768 -0.9289  1.0605 -0.2132
  761MOL0     H 2673   5.850   5.748   2.945  1.8686  1.0436  1.9095
  761MOL0     H 2674   5.725   5.950   2.855 -0.9340 -0.9080 -2.9832
  761MOL0     H 2675   5.861   6.024   2.929 -1.7630  1.8792 -1.0132
  761MOL0     H 2676   5.964   6.054   2.712  0.2755 -1.2298  0.8895
  761MOL0     H 2677   5.836   5.954   2.626  2.3334  0.3975 -0.3893
  761MOL0     H 2678   5.787   6.177   2.600  1.7486 -0.7141  0.1861
  761MOL0     H 2679   5.660   6.107   2.703 -0.4577 -1.4075  0.0175
  761MOL0     H 2680   5.743   6.234   2.900  1.8166  3.5563  2.3903
  761MOL0     H 2681   5.899   6.282   2.795 -0.5500  1.9631 -0.5046
  761MOL0     H 2682   5.728   6.409   2.660  2.0190  0.7804 -0.5563
  761MOL0     H 2683   5.605   6.353   2.777  1.4124 -2.6105  1.0011
  761MOL0     H 2684   5.819   6.548   2.808  0.5850 -2.2173  0.2843
  761MOL0     H 2685   5.747   6.482   2.953 -1.5317  0.3521  0.0949
  761MOL0     H 2686   5.586   6.642   3.064  0.9638  2.0906  0.8176
  761MOL0     H 2687   5.401   6.937   2.960  2.1424  0.0223  2.4081
  761MOL0     H 2688   5.274   6.825   2.918 -0.5711 -0.0222  0.1404
  761MOL0     H 2689   5.310   6.909   3.160  3.6870  2.5050  0.4777
  761MOL0     H 2690   5.457   6.811   3.163 -0.1855  1.7682 -0.0620
  761MOL0     H 2691   5.290   6.660   3.267  1.5203  1.2500  1.5853
  761MOL0     H 2692   5.275   6.608   3.096  1.1183  1.3370 -0.2988
  761MOL0     H 2693   5.103   6.818   3.229  2.2779  0.1823  0.9213
  761MOL0     H 2694   5.044   6.653   3.210 -0.1209  0.5202  0.6702
  761MOL0     H 2695   4.864   6.782   3.211  2.6870 -0.3942 -0.1061
  761MOL0     H 2696   4.679   6.889   3.292 -2.4730  1.4860  1.4749
  761MOL0     H 2697   4.596   7.011   3.197 -0.4693  0.7214  3.8447
  761MOL0     H 2698   4.539   6.848   3.187 -1.9192  2.8008 -0.6355
  761MOL0     H 2699   4.293   6.826   2.786 -1.7364 -1.9242  2.6394
  761MOL0     H 2700   4.080   6.932   2.732 -1.3996 -2.0398  2.6582
  761MOL0     H 2701   3.856   6.972   2.806 -0.2865  0.5562  1.2001
  761MOL0     H 2702   3.758   7.116   2.838 -2.0850 -3.1991 -3.5926
  761MOL0     H 2703   3.914   7.229   2.642 -3.8390  1.3449 -2.0369
  761MOL0     H 2704   3.935   7.060   2.600  1.9894  0.2843  1.6311
  761MOL0     H 2705   3.686   7.028   2.571 -0.9727  0.8667 -1.3664
  761MOL0     H 2706   3.751   7.153   2.471 -1.0159  0.3486 -0.3944
  761MOL0     H 2707   3.590   7.191   2.731  2.6352  1.1685  1.2737
  761MOL0     H 2708   3.684   7.315   2.659  0.5903  1.0617 -1.0945
  761MOL0     H 2709   3.533   7.317   2.462  2.7133 -0.5462  1.3943
  761MOL0     H 2710   3.447   7.341   2.611  1.9363  0.7721  1.7792
  761MOL0     H 2711   3.344   7.176   2.434 -0.5360 -1.5742  1.0468
  761MOL0     H 2712   3.468   7.070   2.458  0.0063 -1.6891  0.6411
  761MOL0     H 2713   3.273   7.143   2.683  0.0587  0.1751 -1.2096
  761MOL0     H 2714   3.394   7.038   2.710 -2.1427  0.7534  1.5089
  761MOL0     H 2715   3.217   6.966   2.471  2.3496  0.7528 -1.1335
  761MOL0     H 2716   3.181   6.928   2.644 -0.5016 -0.4641 -0.2187
  761MOL0     H 2717   4.129   7.207   3.067  1.1731 -0.3906  2.4065
  761MOL0     H 2718   4.324   7.090   3.134  0.3178 -2.4045 -0.1076
  761MOL0     H 2719   4.760   6.892   2.730  0.0151 -0.3551  0.2052
  761MOL0     H 2720   4.979   6.801   2.800  1.5106 -2.5791  2.7259
  761MOL0     H 2721   6.309   5.837   2.914 -0.0401 -0.6547  0.6975
  761MOL0     H 2722   6.524   5.773   2.908 -2.1505  0.6354  1.4579
  761MOL0     H 2723   6.816   5.233   2.724 -1.6282  0.6800  0.8772
  761MOL0     H 2724   7.072   5.172   2.768  2.9224  4.2663 -0.3627
  761MOL0     H 2725   7.306   5.409   3.024  1.3474 -1.2987 -1.3507
  761MOL0     H 2726   7.239   5.312   3.143  0.2862  0.9599  1.3478
  761MOL0     H 2727   7.464   5.220   2.952  0.3736 -0.0531  0.8692
  761MOL0     H 2728   7.388   5.134   3.097 -0.8273  2.1048  4.2367
  761MOL0     H 2729   7.470   5.303   3.246  0.2234  0.4595  0.2962
  761MOL0     H 2730   7.546   5.377   3.109  0.6717 -2.2013 -2.0238
  761MOL0     H 2731   7.718   5.262   3.226 -0.2376 -2.4374  2.8570
  761MOL0     H 2732   7.683   5.176   3.067 -1.5805 -1.3493 -0.8902
  761MOL0     H 2733   7.589   4.870   3.332 -2.5359  1.1189  2.2060
  761MOL0     H 2734   7.070   5.428   3.108  0.0135 -1.0036  2.2377
  761MOL0     H 2735   6.839   5.507   3.046  0.8194 -0.9625 -0.2243
  762MOL0     O 2736   7.492   2.733   5.791  0.1518  0.2348  0.6078
  762MOL0     C 2737   7.525   2.698   5.679  0.5263 -0.2976  0.3540
  762MOL0     O 2738   7.455   2.717   5.563 -0.3563 -0.4070 -0.2003
  762MOL0     C 2739   7.353   2.798   5.565  0.2034 -1.4297  0.1998
  762MOL0     C 2740   7.372   2.936   5.590  1.0720 -0.9024 -0.4909
  762MOL0     C 2741   7.260   3.022   5.591  1.1401 -0.3952 -1.0832
  762MOL0     C 2742   7.130   2.972   5.567  0.7348  0.4261  0.8782
  762MOL0     O 2743   7.022   3.061   5.585 -0.6562  0.1698  0.3505
  762MOL0     C 2744   6.891   3.014   5.554 -0.3814 -0.3555  0.5784
  762MOL0     C 2745   6.813   3.141   5.559  1.4670  0.2450  0.3092
  762MOL0     C 2746   6.784   3.169   5.707  0.3675  0.3479 -0.4020
  762MOL0     C 2747   6.721   3.313   5.714 -0.0224 -0.7321  0.3418
  762MOL0     C 2748   6.687   3.362   5.851  0.5031 -0.4412 -0.3343
  762MOL0     C 2749   6.539   3.335   5.877  0.0144 -0.0701 -0.8231
  762MOL0     C 2750   6.442   3.425   5.794 -0.3838 -0.2211 -0.2415
  762MOL0     C 2751   6.299   3.379   5.774 -0.0878  0.9643 -0.1347
  762MOL0     N 2752   6.285   3.274   5.669 -0.0986 -0.2346 -0.4472
  762MOL0     C 2753   6.325   3.143   5.669 -0.4501 -1.0141 -0.8555
  762MOL0     C 2754   6.275   3.089   5.556 -1.0675  1.4897 -0.4599
  762MOL0     C 2755   6.266   2.946   5.512  0.0506 -0.5499  0.2932
  762MOL0     C 2756   6.347   2.922   5.389 -0.2766  0.0840  0.4644
  762MOL0     C 2757   6.499   2.913   5.398 -0.4222  0.3603 -0.0152
  762MOL0     C 2758   6.549   2.780   5.447 -0.0150 -0.6991 -0.1545
  762MOL0     O 2759   6.603   2.776   5.580 -0.1903 -0.4564  0.0291
  762MOL0     C 2760   6.694   2.673   5.610  0.8656  0.2097  1.1997
  762MOL0     C 2761   6.784   2.692   5.716  0.3175  0.3603  0.3919
  762MOL0     C 2762   6.891   2.605   5.748 -0.2016  0.5040 -0.0178
  762MOL0     C 2763   6.978   2.627   5.870  0.3582  0.0481  0.4903
  762MOL0     C 2764   6.909   2.497   5.664 -0.8066 -0.5620 -0.3723
  762MOL0     C 2765   7.026   2.405   5.673 -0.1439  0.5229 -0.2053
  762MOL0     O 2766   7.138   2.449   5.730 -0.2172  0.3548  0.0863
  762MOL0     C 2767   7.239   2.358   5.754  0.2715 -0.1426  0.2066
  762MOL0     C 2768   7.355   2.373   5.686 -0.0516  0.5425 -0.2970
  762MOL0     C 2769   7.471   2.285   5.714 -0.2628  0.6481  0.5324
  762MOL0     C 2770   7.456   2.171   5.807 -0.5036  0.1972  0.3584
  762MOL0     O 2771   7.563   2.082   5.836 -0.6459 -0.0164  0.5418
  762MOL0     C 2772   7.680   2.107   5.748 -0.7093  0.3589  0.7952
  762MOL0     C 2773   7.789   2.020   5.804 -0.1595 -0.2622 -0.0384
  762MOL0     C 2774   7.843   2.079   5.941 -0.6573  0.0935  0.8993
  762MOL0     C 2775   7.986   2.140   5.914 -0.2604 -0.5391 -0.4441
  762MOL0     C 2776   8.059   2.176   6.051 -0.2357  0.2960 -1.0576
  762MOL0     C 2777   8.196   2.224   6.027  0.5571 -0.2856 -0.9944
  762MOL0     C 2778   8.267   2.235   6.167  0.7069 -0.2047  0.1909
  762MOL0     C 2779   8.406   2.289   6.158 -0.2873  0.0305 -0.0863
  762MOL0    Cl 2780   8.529   2.147   6.176  0.1630 -0.4364 -0.1316
  762MOL0     C 2781   7.324   2.164   5.867 -0.0974  0.8159 -0.2118
  762MOL0     C 2782   7.224   2.254   5.838 -0.9426 -0.0317  0.2699
  762MOL0     O 2783   7.012   2.293   5.621 -0.0768 -0.7409  0.2829
  762MOL0     C 2784   6.816   2.473   5.557 -0.0411  0.0281 -0.1614
  762MOL0     C 2785   6.714   2.563   5.527  0.0904  0.2951  0.4246
  762MOL0     N 2786   6.208   3.185   5.488 -0.5159 -0.1934  0.4127
  762MOL0     N 2787   6.209   3.293   5.561 -0.0948  0.1083  0.1147
  762MOL0     C 2788   7.114   2.833   5.541  0.3956  0.3040 -1.3211
  762MOL0     C 2789   7.225   2.755   5.536  0.2064  0.1213  0.6105
  762MOL0     C 2790   7.654   2.626   5.661 -0.3480  0.1299  0.9420
  762MOL0     C 2791   7.731   2.589   5.771 -0.2859 -0.1830 -0.1581
  762MOL0     C 2792   7.855   2.520   5.751  0.2434  0.1668 -0.8157
  762MOL0     C 2793   7.902   2.485   5.625  1.1168 -1.2439  0.2301
  762MOL0     O 2794   8.017   2.422   5.588 -0.4510  0.3253 -0.9061
  762MOL0     C 2795   8.138   2.505   5.621  0.1895 -0.3474 -0.0836
  762MOL0     C 2796   8.179   2.609   5.516 -0.7608  0.7203 -0.4365
  762MOL0     C 2797   8.081   2.735   5.533 -0.0725 -0.0042 -0.7814
  762MOL0     C 2798   8.157   2.868   5.520  0.3645 -0.0721  0.7864
  762MOL0     C 2799   8.219   2.879   5.385  0.4622  0.2131 -0.6993
  762MOL0     C 2800   8.254   2.876   5.268  0.4055  0.0370 -0.1418
  762MOL0     C 2801   7.812   2.505   5.521  0.2733  0.1149  0.6497
  762MOL0     C 2802   7.701   2.580   5.535  0.2375 -1.4085  0.0858
  762MOL0     H 2803   7.467   2.985   5.611 -0.4618  1.6498  1.1179
  762MOL0     H 2804   7.274   3.129   5.604  0.6441 -0.5614  1.0144
  762MOL0     H 2805   6.897   2.983   5.449  1.8873 -0.9656  0.8182
  762MOL0     H 2806   6.850   2.935   5.617 -1.5581 -0.5849 -0.4482
  762MOL0     H 2807   6.867   3.225   5.514  0.1690  1.0507  0.2087
  762MOL0     H 2808   6.718   3.131   5.505  2.8519  0.9166 -2.4441
  762MOL0     H 2809   6.712   3.100   5.751 -0.8649  0.8528 -1.5436
  762MOL0     H 2810   6.876   3.162   5.765  0.6504 -0.4813 -0.9230
  762MOL0     H 2811   6.794   3.387   5.677 -2.4015  1.9075  0.5451
  762MOL0     H 2812   6.643   3.330   5.640  2.5516  2.4287 -1.9608
  762MOL0     H 2813   6.741   3.308   5.929 -1.2853 -3.5602 -1.0937
  762MOL0     H 2814   6.705   3.470   5.854 -2.3500  0.0886  0.8469
  762MOL0     H 2815   6.512   3.231   5.857  0.7671 -0.1626 -1.3936
  762MOL0     H 2816   6.523   3.354   5.983  1.9952 -2.3754 -0.0391
  762MOL0     H 2817   6.440   3.519   5.850  1.1224  1.4981 -2.8719
  762MOL0     H 2818   6.469   3.437   5.689 -1.4881 -3.3227 -0.9899
  762MOL0     H 2819   6.239   3.469   5.754  0.7217  0.7220 -4.4271
  762MOL0     H 2820   6.268   3.333   5.868 -0.7933 -0.6746 -1.1271
  762MOL0     H 2821   6.377   3.102   5.755 -0.0035  1.9216  0.3997
  762MOL0     H 2822   6.290   2.880   5.596 -1.6143 -0.4824  0.8610
  762MOL0     H 2823   6.164   2.920   5.484  0.3714 -3.8203  1.7188
  762MOL0     H 2824   6.323   3.000   5.316  0.5040  0.0375  0.1501
  762MOL0     H 2825   6.315   2.832   5.336  1.1051  0.9005 -1.8850
  762MOL0     H 2826   6.543   2.993   5.459  2.1556 -0.3722 -0.7809
  762MOL0     H 2827   6.534   2.928   5.296  1.0418  0.6615  0.4992
  762MOL0     H 2828   6.631   2.755   5.379  0.6236 -2.1582  1.0973
  762MOL0     H 2829   6.461   2.716   5.434 -0.9113  0.6202 -0.8741
  762MOL0     H 2830   6.769   2.784   5.771 -1.1363 -0.0564  0.7344
  762MOL0     H 2831   6.942   2.709   5.933  0.1455  0.1276  0.2645
  762MOL0     H 2832   6.990   2.537   5.931 -2.1059 -0.0411  0.9393
  762MOL0     H 2833   7.077   2.662   5.840 -0.9267  3.5070 -0.1761
  762MOL0     H 2834   7.351   2.465   5.629  0.0514  1.5485  1.2439
  762MOL0     H 2835   7.563   2.326   5.676  0.5761  0.6034  2.4118
  762MOL0     H 2836   7.667   2.092   5.640  2.5414  2.7975 -0.1028
  762MOL0     H 2837   7.715   2.210   5.756  0.9193 -0.1330  0.3622
  762MOL0     H 2838   7.763   1.914   5.818 -0.9943  0.2238  2.6256
  762MOL0     H 2839   7.864   2.013   5.724 -0.6268  0.5228 -0.5526
  762MOL0     H 2840   7.834   1.996   6.012 -1.1188 -1.2852 -0.6855
  762MOL0     H 2841   7.777   2.163   5.966  0.1180  0.6459  1.1235
  762MOL0     H 2842   8.051   2.069   5.863 -0.0301 -2.2688  2.0619
  762MOL0     H 2843   7.978   2.227   5.848  2.5647  0.8161  0.8552
  762MOL0     H 2844   8.055   2.091   6.120  1.1571  2.5783  2.1181
  762MOL0     H 2845   8.007   2.253   6.109  0.0894 -0.9401  1.0017
  762MOL0     H 2846   8.241   2.141   5.972 -1.8379 -2.7731  0.5225
  762MOL0     H 2847   8.190   2.318   5.972 -0.4948 -0.3406 -0.9844
  762MOL0     H 2848   8.264   2.143   6.227 -0.9384 -0.1275  0.2865
  762MOL0     H 2849   8.217   2.309   6.230  0.4343 -0.7713  0.6535
  762MOL0     H 2850   8.421   2.358   6.241 -3.5946 -1.9453  2.4351
  762MOL0     H 2851   8.427   2.346   6.067 -0.5966 -1.1432 -0.9141
  762MOL0     H 2852   7.313   2.076   5.931  3.8724 -0.1940 -0.6669
  762MOL0     H 2853   7.121   2.242   5.870 -1.2807  1.2596 -0.2832
  762MOL0     H 2854   6.826   2.385   5.495 -1.4209 -0.6673  0.5675
  762MOL0     H 2855   6.648   2.544   5.443  2.0425  0.3859 -1.1977
  762MOL0     H 2856   7.015   2.793   5.523  1.2854 -2.3453 -0.7194
  762MOL0     H 2857   7.216   2.651   5.504 -1.7543 -0.2970  2.3035
  762MOL0     H 2858   7.699   2.597   5.874 -1.7058  2.0541 -0.7124
  762MOL0     H 2859   7.912   2.494   5.840 -0.5137 -0.0029 -0.3747
  762MOL0     H 2860   8.122   2.555   5.717 -3.0197  0.8733 -1.1339
  762MOL0     H 2861   8.223   2.437   5.628 -0.0341 -1.0803 -3.1328
  762MOL0     H 2862   8.167   2.568   5.415  2.4583 -0.5117 -0.4290
  762MOL0     H 2863   8.282   2.643   5.521 -1.2616  2.3523 -0.6851
  762MOL0     H 2864   8.022   2.742   5.625 -1.8975  2.9725 -2.0363
  762MOL0     H 2865   7.992   2.728   5.469 -0.4665 -1.2032 -0.1499
  762MOL0     H 2866   8.229   2.879   5.601 -1.6881  0.1071  2.6888
  762MOL0     H 2867   8.086   2.951   5.523  0.9548  0.4297  1.3686
  762MOL0     H 2868   8.276   2.864   5.164  1.4579 -1.3088  0.1940
  762MOL0     H 2869   7.827   2.460   5.423 -1.0693 -0.7797  0.8230
  762MOL0     H 2870   7.651   2.609   5.443  0.8044 -0.3506  0.0983
  763MOL0     O 2871   7.414   6.045   9.866  0.1744 -0.3967 -0.6146
  763MOL0     C 2872   7.508   6.023   9.943  0.6891  0.2987  0.0959
  763MOL0     O 2873   7.559   5.897   9.974 -0.4478  0.2072 -0.1426
  763MOL0     C 2874   7.516   5.804   9.888 -0.1883 -0.3275 -0.6134
  763MOL0     C 2875   7.589   5.774   9.770 -0.4301 -0.2327 -0.3952
  763MOL0     C 2876   7.540   5.685   9.674  0.2815  0.2180 -0.2309
  763MOL0     C 2877   7.416   5.620   9.694  0.4806 -0.2335 -0.3907
  763MOL0     O 2878   7.347   5.533   9.606 -0.2123  0.0203 -0.2559
  763MOL0     C 2879   7.368   5.538   9.458  0.0808 -0.4749  0.3296
  763MOL0     C 2880   7.233   5.584   9.403  0.3801 -0.3169  0.2912
  763MOL0     C 2881   7.240   5.565   9.256  0.2413 -0.6677 -0.0047
  763MOL0     C 2882   7.112   5.605   9.187  0.3154 -0.9079  0.2916
  763MOL0     C 2883   7.119   5.611   9.039 -0.5492  0.0017 -0.3629
  763MOL0     C 2884   6.978   5.630   8.980 -0.1923 -0.4515 -0.5354
  763MOL0     C 2885   6.882   5.507   8.991  0.2238  0.5725  0.7366
  763MOL0     C 2886   6.753   5.526   8.917  1.0916  0.3099 -0.7923
  763MOL0     N 2887   6.638   5.563   9.008 -0.0655 -0.0830 -0.1134
  763MOL0     C 2888   6.551   5.471   9.067 -0.0983  0.9528 -0.1698
  763MOL0     C 2889   6.479   5.546   9.155  0.1025 -0.4266 -0.9133
  763MOL0     C 2890   6.380   5.504   9.252 -0.0329  0.6190 -0.1806
  763MOL0     C 2891   6.244   5.499   9.185  0.7822 -1.0981 -0.0067
  763MOL0     C 2892   6.139   5.472   9.292 -0.3167  0.3733 -1.2304
  763MOL0     C 2893   6.002   5.470   9.232 -0.5727 -0.0208 -0.4806
  763MOL0     O 2894   5.906   5.460   9.335 -0.3759 -0.9528  0.2255
  763MOL0     C 2895   5.774   5.442   9.296 -0.1166 -0.2110 -0.2002
  763MOL0     C 2896   5.677   5.445   9.390  0.2565 -0.1045 -0.1736
  763MOL0     C 2897   5.534   5.431   9.362  0.3108  0.8588  0.5471
  763MOL0     C 2898   5.436   5.444   9.474 -0.8811 -0.2553 -0.0315
  763MOL0     C 2899   5.494   5.409   9.231 -0.2924 -0.1668 -0.4123
  763MOL0     C 2900   5.359   5.376   9.188  0.7496 -1.2106 -0.3888
  763MOL0     O 2901   5.343   5.358   9.055  0.0834  0.6490 -0.1839
  763MOL0     C 2902   5.232   5.319   8.997  0.9067 -0.2896  0.4012
  763MOL0     C 2903   5.186   5.383   8.876 -0.2392 -0.1455  0.1162
  763MOL0     C 2904   5.068   5.334   8.821 -0.1638  0.3154 -0.1035
  763MOL0     C 2905   4.989   5.238   8.869  0.7375  0.1728 -0.1359
  763MOL0     O 2906   4.866   5.204   8.806  0.2009 -0.5093 -1.0267
  763MOL0     C 2907   4.822   5.271   8.688 -0.3843 -0.0925  0.9565
  763MOL0     C 2908   4.886   5.198   8.567  0.1346 -0.3719 -0.0429
  763MOL0     C 2909   4.807   5.215   8.434  0.4001  0.0778 -0.1683
  763MOL0     C 2910   4.658   5.180   8.432 -0.2206  0.2724  0.9134
  763MOL0     C 2911   4.602   5.195   8.288 -0.8331  1.5868 -0.1839
  763MOL0     C 2912   4.454   5.168   8.279  0.0781 -0.3145  0.4059
  763MOL0     C 2913   4.396   5.234   8.148  0.1735 -0.3290 -0.0212
  763MOL0     C 2914   4.250   5.202   8.137  0.2605  0.6337 -0.5409
  763MOL0    Cl 2915   4.188   5.050   8.213 -0.1720  0.2839  0.4529
  763MOL0     C 2916   5.040   5.170   8.977 -0.5442  0.6939 -0.2145
  763MOL0     C 2917   5.156   5.208   9.041 -0.3364 -0.2023 -0.4017
  763MOL0     O 2918   5.259   5.377   9.265  0.4969  0.1787  0.7375
  763MOL0     C 2919   5.600   5.404   9.135 -0.0509  0.5803  0.1411
  763MOL0     C 2920   5.734   5.429   9.163 -0.1514  0.0436  0.7083
  763MOL0     N 2921   6.523   5.673   9.162  0.1669 -0.5012  0.9965
  763MOL0     N 2922   6.615   5.683   9.070  0.5648  0.5996  0.4353
  763MOL0     C 2923   7.346   5.653   9.808  0.3385  0.1345  0.1532
  763MOL0     C 2924   7.390   5.738   9.907 -0.4084  0.3555 -0.2932
  763MOL0     C 2925   7.555   6.135  10.027  0.2691  0.1137  0.1190
  763MOL0     C 2926   7.481   6.255  10.036  0.0628  0.2198  0.2190
  763MOL0     C 2927   7.514   6.359  10.121 -0.4540  1.2115  0.5747
  763MOL0     C 2928   7.612   6.339  10.216 -0.1921 -0.2947  0.9047
  763MOL0     O 2929   7.646   6.441  10.299  0.3681  0.0930 -0.9776
  763MOL0     C 2930   7.772   6.507  10.270  0.5512  0.0654 -0.0146
  763MOL0     C 2931   7.792   6.640  10.347 -0.0793  0.2933 -0.5658
  763MOL0     C 2932   7.944   6.674  10.375 -0.5601 -0.9966  0.2168
  763MOL0     C 2933   7.975   6.826  10.383  0.6335 -0.0515  0.2190
  763MOL0     C 2934   7.893   6.893  10.493  0.8323 -0.0831 -0.7689
  763MOL0     C 2935   7.834   6.937  10.596  0.0046  0.0662  0.7230
  763MOL0     C 2936   7.692   6.223  10.213 -0.1925  0.5476  1.2066
  763MOL0     C 2937   7.666   6.121  10.113 -0.3712  0.1284 -0.3411
  763MOL0     H 2938   7.686   5.819   9.751  0.7138 -1.9186  1.1175
  763MOL0     H 2939   7.592   5.665   9.581  0.8533  0.0575  0.1167
  763MOL0     H 2940   7.447   5.603   9.420 -0.7259 -1.4171 -3.2818
  763MOL0     H 2941   7.392   5.435   9.430  1.8639 -0.2320  0.8569
  763MOL0     H 2942   7.152   5.532   9.456 -0.5697  2.2150  1.5417
  763MOL0     H 2943   7.221   5.692   9.419 -0.9976 -0.1986 -1.2818
  763MOL0     H 2944   7.330   5.610   9.214 -0.6203  0.6632 -0.4867
  763MOL0     H 2945   7.250   5.456   9.246  0.1086 -0.7911  1.1118
  763MOL0     H 2946   7.035   5.531   9.209 -2.4602  1.6908  0.0221
  763MOL0     H 2947   7.084   5.705   9.222 -0.1913 -0.4863 -1.2404
  763MOL0     H 2948   7.181   5.699   9.018 -1.2838  0.9623  1.2357
  763MOL0     H 2949   7.166   5.523   8.996  3.5842  2.7615 -2.1965
  763MOL0     H 2950   6.926   5.712   9.031 -2.6317 -2.8847  1.1554
  763MOL0     H 2951   6.975   5.666   8.877 -0.9322  0.8057 -0.1044
  763MOL0     H 2952   6.940   5.430   8.938 -0.3263  1.5272 -1.3385
  763MOL0     H 2953   6.865   5.484   9.097  1.8997 -2.9572  0.3936
  763MOL0     H 2954   6.717   5.429   8.881 -0.5568 -1.1705  4.0999
  763MOL0     H 2955   6.767   5.595   8.833 -1.3084 -0.3594 -1.8359
  763MOL0     H 2956   6.537   5.367   9.040 -0.0206  1.7553 -3.7976
  763MOL0     H 2957   6.411   5.413   9.306 -1.5326  2.0254  3.3157
  763MOL0     H 2958   6.380   5.577   9.333 -0.7370 -1.0760  1.4243
  763MOL0     H 2959   6.237   5.430   9.100 -0.6082 -1.0074 -0.0001
  763MOL0     H 2960   6.226   5.597   9.139 -0.4010 -0.4340  1.7311
  763MOL0     H 2961   6.151   5.551   9.368 -1.1387 -0.7732  0.1536
  763MOL0     H 2962   6.159   5.386   9.357 -1.1295  2.3997  1.9832
  763MOL0     H 2963   6.007   5.380   9.170  1.1782 -1.2612  1.3293
  763MOL0     H 2964   5.980   5.555   9.167 -0.9680 -2.6471 -4.0736
  763MOL0     H 2965   5.702   5.469   9.493  2.4385  1.7321 -1.0625
  763MOL0     H 2966   5.344   5.496   9.448 -0.1278  0.5906 -1.0722
  763MOL0     H 2967   5.408   5.347   9.518 -0.0258 -0.8553 -0.7593
  763MOL0     H 2968   5.475   5.510   9.552  0.8200  1.0717 -1.9223
  763MOL0     H 2969   5.243   5.462   8.830  1.0416 -0.4601  1.0963
  763MOL0     H 2970   5.042   5.378   8.725  0.7298 -0.5268 -0.7487
  763MOL0     H 2971   4.713   5.275   8.680 -0.2312  0.1728 -2.6138
  763MOL0     H 2972   4.843   5.378   8.692  0.5755 -0.3081  2.5777
  763MOL0     H 2973   4.988   5.236   8.555  0.9399 -2.3827 -0.0119
  763MOL0     H 2974   4.883   5.091   8.590  1.8666 -0.2061  1.1375
  763MOL0     H 2975   4.859   5.146   8.366  0.8142  0.7084 -0.5040
  763MOL0     H 2976   4.817   5.317   8.395 -0.9208  1.1944  2.2249
  763MOL0     H 2977   4.646   5.076   8.466  2.1807  0.0860  1.3584
  763MOL0     H 2978   4.600   5.242   8.501 -5.0337 -3.3768  0.7567
  763MOL0     H 2979   4.648   5.128   8.216 -0.8878  1.3310  0.0199
  763MOL0     H 2980   4.611   5.302   8.266  1.0200  1.5377  0.2141
  763MOL0     H 2981   4.437   5.060   8.269  0.6788 -0.4862  1.1772
  763MOL0     H 2982   4.400   5.199   8.369 -2.3294 -0.5663 -0.8674
  763MOL0     H 2983   4.448   5.191   8.063 -1.2849 -0.0738 -1.0817
  763MOL0     H 2984   4.423   5.339   8.137  1.6564 -0.7413 -0.5208
  763MOL0     H 2985   4.235   5.185   8.030  2.0076 -3.0795 -0.3553
  763MOL0     H 2986   4.182   5.274   8.182 -3.7354 -2.2801 -1.3730
  763MOL0     H 2987   4.984   5.083   9.009 -0.0272  0.9564  1.5594
  763MOL0     H 2988   5.189   5.147   9.124 -2.5725 -1.8768 -0.6400
  763MOL0     H 2989   5.574   5.379   9.033  2.2837 -0.6846 -0.2120
  763MOL0     H 2990   5.807   5.420   9.083 -1.1495 -0.6510 -0.1553
  763MOL0     H 2991   7.248   5.606   9.814 -0.1594  0.9861 -0.9330
  763MOL0     H 2992   7.328   5.760   9.993  0.4967  1.7002  0.0340
  763MOL0     H 2993   7.388   6.265   9.980 -0.1988  1.5188  0.8477
  763MOL0     H 2994   7.455   6.451  10.119  0.7001  1.9679  0.6390
  763MOL0     H 2995   7.851   6.438  10.300 -0.1229 -1.0938 -0.8420
  763MOL0     H 2996   7.790   6.531  10.165  1.1489  1.4582  0.3763
  763MOL0     H 2997   7.739   6.632  10.442  1.8171  0.8089  0.6107
  763MOL0     H 2998   7.739   6.715  10.288 -0.8851  1.3360  1.3935
  763MOL0     H 2999   8.010   6.630  10.299  0.7886 -4.2299  3.0190
  763MOL0     H 3000   7.962   6.629  10.472 -1.7491  0.0677  0.9666
  763MOL0     H 3001   7.957   6.873  10.285 -2.4533  0.6686  1.0281
  763MOL0     H 3002   8.080   6.834  10.412  1.6574 -5.4445 -0.9640
  763MOL0     H 3003   7.779   6.979  10.678 -0.1289 -0.1581  0.7488
  763MOL0     H 3004   7.771   6.195  10.282  1.1727  1.1793 -0.0433
  763MOL0     H 3005   7.719   6.026  10.117 -0.8815 -0.1258  0.9599
  764MOL0     O 3006   2.217   8.693   2.365 -0.4817 -0.1133  0.6788
  764MOL0     C 3007   2.198   8.722   2.477  0.6732  0.3828 -0.2685
  764MOL0     O 3008   2.080   8.763   2.531  0.1011  0.1924  0.2539
  764MOL0     C 3009   1.972   8.772   2.450 -0.8228  0.1509  0.1144
  764MOL0     C 3010   1.909   8.898   2.431 -0.0892  0.7586 -0.2168
  764MOL0     C 3011   1.791   8.902   2.356 -1.0471  0.1903  1.1270
  764MOL0     C 3012   1.728   8.791   2.309 -0.3087 -0.8431 -0.3561
  764MOL0     O 3013   1.619   8.804   2.231  0.3095  0.8123  0.4427
  764MOL0     C 3014   1.611   8.902   2.129 -0.0401 -0.9442 -0.2152
  764MOL0     C 3015   1.519   9.017   2.172 -0.2625  0.1531  1.1137
  764MOL0     C 3016   1.385   8.993   2.115  0.2927  0.0328 -0.1525
  764MOL0     C 3017   1.303   9.122   2.149 -0.3262  0.0370  0.8074
  764MOL0     C 3018   1.150   9.110   2.134  0.6986  0.3489 -0.6540
  764MOL0     C 3019   1.091   9.129   1.992  0.2999 -0.2228 -0.1512
  764MOL0     C 3020   0.942   9.164   2.002  0.0263 -0.0865  0.2929
  764MOL0     C 3021   0.849   9.045   1.973  0.7203 -0.1087  0.2208
  764MOL0     N 3022   0.708   9.069   2.021 -0.0990 -0.1906 -0.7785
  764MOL0     C 3023   0.684   9.086   2.159  1.2506  0.6969  0.5525
  764MOL0     C 3024   0.555   9.084   2.165  0.9317  0.0039  0.0767
  764MOL0     C 3025   0.463   9.101   2.282  0.1442  0.8915  0.3658
  764MOL0     C 3026   0.399   9.239   2.276  0.8717  0.2379  0.2397
  764MOL0     C 3027   0.281   9.250   2.374  0.2192  0.0369  0.5786
  764MOL0     C 3028   0.233   9.395   2.356  0.2858  0.5769  0.4289
  764MOL0     O 3029   0.137   9.402   2.250  0.2324  0.4388  0.2467
  764MOL0     C 3030   0.087   9.527   2.223  0.6546  0.8118  0.3180
  764MOL0     C 3031   0.042   9.619   2.318  0.3412  0.4472  0.2778
  764MOL0     C 3032   0.009   9.748   2.277 -1.0282  0.0363 -0.0128
  764MOL0     C 3033  -0.035   9.843   2.385 -0.4701 -0.1892 -0.3851
  764MOL0     C 3034   0.027   9.789   2.152 -0.0270  0.1234  0.3637
  764MOL0     C 3035  -0.023   9.920   2.092 -0.4074  0.3590  0.2956
  764MOL0     O 3036   0.049   9.971   1.994 -0.6350 -0.5664 -0.3278
  764MOL0     C 3037  -0.022  10.055   1.911 -0.4163 -0.4394  0.0366
  764MOL0     C 3038  -0.019  10.190   1.940 -0.8402 -0.4190  0.1182
  764MOL0     C 3039  -0.103  10.278   1.866 -0.2658 -0.2514 -0.6998
  764MOL0     C 3040  -0.183  10.228   1.769 -0.4586  0.2431  0.4087
  764MOL0     O 3041  -0.280  10.309   1.711 -0.0345 -0.5946  0.3605
  764MOL0     C 3042  -0.372  10.371   1.803  0.2605 -1.0159  0.0533
  764MOL0     C 3043  -0.510  10.394   1.741  0.1471  0.0154  0.0571
  764MOL0     C 3044  -0.541  10.538   1.712  0.3580  0.6425  0.4777
  764MOL0     C 3045  -0.658  10.540   1.613  0.3754  0.3409 -0.3433
  764MOL0     C 3046  -0.678  10.678   1.549  0.1368  0.3944 -0.1818
  764MOL0     C 3047  -0.798  10.668   1.451 -0.3522 -0.0607  0.3929
  764MOL0     C 3048  -0.798  10.776   1.341  0.4527 -0.7684 -0.0762
  764MOL0     C 3049  -0.900  10.735   1.240 -0.6383  0.5847  0.5930
  764MOL0    Cl 3050  -0.848  10.599   1.150  0.1745 -0.0199  0.6267
  764MOL0     C 3051  -0.177  10.090   1.725  0.8262 -0.8855 -0.1407
  764MOL0     C 3052  -0.091  10.006   1.796 -0.5479  0.8808 -0.7488
  764MOL0     O 3053  -0.125   9.979   2.136  0.2610  0.5052 -1.2053
  764MOL0     C 3054   0.073   9.696   2.052 -0.8030 -0.2396  0.2003
  764MOL0     C 3055   0.100   9.568   2.092 -0.2866 -0.5147  0.2794
  764MOL0     N 3056   0.500   9.066   2.036  0.5798 -0.4166 -0.2833
  764MOL0     N 3057   0.594   9.058   1.948  0.5851  0.5718  1.4732
  764MOL0     C 3058   1.780   8.668   2.348  0.0586 -0.5222 -0.2580
  764MOL0     C 3059   1.914   8.661   2.401 -0.0152  1.4513 -0.9721
  764MOL0     C 3060   2.310   8.739   2.578  0.3801  0.7616  0.0229
  764MOL0     C 3061   2.444   8.711   2.533  0.2109  0.5080  0.5871
  764MOL0     C 3062   2.547   8.727   2.629 -0.4162 -0.4525  0.3107
  764MOL0     C 3063   2.518   8.789   2.755  0.1550  0.6897 -0.5018
  764MOL0     O 3064   2.622   8.816   2.838 -0.0931  0.2166  0.0733
  764MOL0     C 3065   2.643   8.726   2.955  0.0288  0.9938  0.3094
  764MOL0     C 3066   2.742   8.616   2.909  0.2695 -0.2290 -0.0011
  764MOL0     C 3067   2.877   8.629   2.982  0.6300  0.3328 -0.4838
  764MOL0     C 3068   2.960   8.730   2.908  0.5218  1.0129  0.7802
  764MOL0     C 3069   3.094   8.744   2.960 -0.4928  0.2307  0.2771
  764MOL0     C 3070   3.200   8.757   3.015 -0.5700 -0.0097 -0.9599
  764MOL0     C 3071   2.388   8.793   2.797  0.7998  0.2671  0.2176
  764MOL0     C 3072   2.283   8.774   2.711  0.3296 -0.3049  0.1865
  764MOL0     H 3073   1.955   8.984   2.478 -1.6191  1.6977 -0.3793
  764MOL0     H 3074   1.747   8.999   2.338 -0.0411  0.4393 -0.1451
  764MOL0     H 3075   1.707   8.950   2.107  0.6754 -2.3571 -0.3221
  764MOL0     H 3076   1.579   8.855   2.036 -1.4532  1.2411 -0.8948
  764MOL0     H 3077   1.506   9.038   2.278 -2.4723  1.1363  0.7077
  764MOL0     H 3078   1.539   9.112   2.122 -0.7612  1.1064  2.6818
  764MOL0     H 3079   1.382   8.976   2.007 -0.6156  1.7956 -0.4495
  764MOL0     H 3080   1.347   8.906   2.169 -0.0282 -0.0042 -0.4351
  764MOL0     H 3081   1.313   9.151   2.254 -3.5202  0.9609  0.9563
  764MOL0     H 3082   1.351   9.196   2.084  2.5913 -1.8898  0.5939
  764MOL0     H 3083   1.111   9.021   2.184  0.6526  1.4907  1.4898
  764MOL0     H 3084   1.121   9.191   2.201  0.4548 -1.3739  1.4206
  764MOL0     H 3085   1.138   9.219   1.952  2.0496 -0.4616  1.2559
  764MOL0     H 3086   1.107   9.039   1.932  0.4581  0.0650 -0.5512
  764MOL0     H 3087   0.937   9.201   2.105  4.1116  1.5497  0.0526
  764MOL0     H 3088   0.917   9.238   1.926  0.0590 -0.9670 -0.5907
  764MOL0     H 3089   0.873   8.952   2.025 -3.6230 -1.2618  0.5474
  764MOL0     H 3090   0.835   9.021   1.867 -1.3941  1.1727  0.1671
  764MOL0     H 3091   0.759   9.089   2.237  2.3347  3.0204 -0.4820
  764MOL0     H 3092   0.375   9.037   2.267 -2.5046  4.0685  1.0959
  764MOL0     H 3093   0.514   9.074   2.374 -1.5037 -2.9487  0.3534
  764MOL0     H 3094   0.350   9.264   2.182 -0.7267  1.7575  1.4056
  764MOL0     H 3095   0.486   9.302   2.297  2.4348 -2.1676  1.5295
  764MOL0     H 3096   0.308   9.237   2.479 -0.1590 -1.7996  0.4644
  764MOL0     H 3097   0.207   9.175   2.345  1.0825 -0.8863  0.7009
  764MOL0     H 3098   0.319   9.459   2.335 -0.2536  0.3276 -3.1888
  764MOL0     H 3099   0.187   9.431   2.448 -2.2518 -2.3731  0.4660
  764MOL0     H 3100   0.042   9.608   2.426  1.4764  0.8522  0.3325
  764MOL0     H 3101  -0.138   9.876   2.371 -0.1078  0.8685 -0.7030
  764MOL0     H 3102  -0.016   9.797   2.482 -3.1503 -2.1516 -0.6906
  764MOL0     H 3103   0.020   9.936   2.368  0.9527 -1.2572 -2.0142
  764MOL0     H 3104   0.045  10.221   2.022 -0.5313 -0.6548 -0.0274
  764MOL0     H 3105  -0.099  10.378   1.907  2.4725 -0.7233  0.4093
  764MOL0     H 3106  -0.394  10.301   1.884 -3.0671 -0.1001  0.0844
  764MOL0     H 3107  -0.333  10.464   1.846 -1.5987 -0.4275  0.5807
  764MOL0     H 3108  -0.517  10.326   1.655 -0.9783 -2.6144  2.0748
  764MOL0     H 3109  -0.589  10.344   1.798  0.1853 -4.7200 -3.4237
  764MOL0     H 3110  -0.454  10.590   1.671  2.0944 -1.5358  1.2118
  764MOL0     H 3111  -0.564  10.602   1.798  1.8667  1.2451  0.4709
  764MOL0     H 3112  -0.635  10.465   1.536 -0.3832  0.0130 -0.2648
  764MOL0     H 3113  -0.748  10.507   1.667 -0.3299  0.1016 -1.6171
  764MOL0     H 3114  -0.585  10.703   1.499  0.1098  1.6889  0.3918
  764MOL0     H 3115  -0.695  10.763   1.615 -0.0653 -2.7712  4.3597
  764MOL0     H 3116  -0.786  10.569   1.406 -2.1058  0.5862 -1.6405
  764MOL0     H 3117  -0.889  10.673   1.511  1.2852 -0.1814  3.0336
  764MOL0     H 3118  -0.699  10.788   1.297 -0.7068  0.1221 -2.6571
  764MOL0     H 3119  -0.825  10.876   1.378  1.5275 -0.5204  0.0675
  764MOL0     H 3120  -0.918  10.819   1.171 -1.3621  2.4794  2.9572
  764MOL0     H 3121  -0.990  10.726   1.301 -0.7104  1.2018  0.5927
  764MOL0     H 3122  -0.239  10.056   1.642  1.2744 -0.8560 -0.4952
  764MOL0     H 3123  -0.085   9.904   1.758 -4.1039  0.6487 -1.0617
  764MOL0     H 3124   0.081   9.724   1.947 -1.5207  1.4367  0.5547
  764MOL0     H 3125   0.131   9.491   2.023 -0.1038 -0.1670 -0.0299
  764MOL0     H 3126   1.720   8.579   2.335 -1.4163  0.4753 -0.4944
  764MOL0     H 3127   1.961   8.565   2.419  3.3175  2.6049 -2.6633
  764MOL0     H 3128   2.469   8.685   2.431 -1.0436  1.7843 -0.0743
  764MOL0     H 3129   2.653   8.707   2.619  0.0199  2.2608 -1.5602
  764MOL0     H 3130   2.677   8.773   3.048  1.5070 -0.1722  0.3968
  764MOL0     H 3131   2.549   8.681   2.988  1.0284  0.1626  2.2036
  764MOL0     H 3132   2.757   8.619   2.800 -1.9531  0.4274 -0.3562
  764MOL0     H 3133   2.701   8.519   2.938 -1.7447  1.4783  3.4188
  764MOL0     H 3134   2.932   8.535   2.989  1.3392  0.8481  1.8621
  764MOL0     H 3135   2.866   8.665   3.085  4.0654 -0.3408  0.2391
  764MOL0     H 3136   2.910   8.827   2.917  0.6328  1.3365 -1.5247
  764MOL0     H 3137   2.974   8.707   2.802  3.0295 -2.8267  1.7571
  764MOL0     H 3138   3.293   8.775   3.064 -2.2700  3.8051  1.3213
  764MOL0     H 3139   2.369   8.832   2.896  0.0242  0.5571 -0.0418
  764MOL0     H 3140   2.181   8.782   2.747 -0.5711  4.3025 -2.6863
  765MOL0     O 3141   4.831   6.933   9.382 -0.3183 -0.1228  0.4795
  765MOL0     C 3142   4.856   6.886   9.266  0.6682 -0.4316  0.2761
  765MOL0     O 3143   4.769   6.881   9.160 -0.0202 -0.5482  0.2839
  765MOL0     C 3144   4.638   6.932   9.146 -0.8587  0.5584 -0.0126
  765MOL0     C 3145   4.579   7.028   9.223  0.2388 -0.3630 -0.1548
  765MOL0     C 3146   4.451   7.076   9.181  0.9947  0.3814 -0.5406
  765MOL0     C 3147   4.378   7.022   9.074  0.1445 -0.3006  0.3590
  765MOL0     O 3148   4.257   7.070   9.045  0.0515  0.3846 -0.3818
  765MOL0     C 3149   4.186   7.020   8.935  0.1862 -0.4755 -0.9764
  765MOL0     C 3150   4.038   7.052   8.942  0.7410  0.2676  0.3603
  765MOL0     C 3151   3.982   6.981   9.060  0.4688  0.5858  0.0776
  765MOL0     C 3152   3.835   6.929   9.044  0.7732 -0.1069 -0.1041
  765MOL0     C 3153   3.727   7.035   9.046 -0.0457  0.2489  0.1164
  765MOL0     C 3154   3.633   7.026   9.165  0.4417  0.1723 -0.0080
  765MOL0     C 3155   3.545   6.902   9.161 -0.0165 -0.4153 -0.2948
  765MOL0     C 3156   3.475   6.885   9.023 -0.8377  1.0091  0.5995
  765MOL0     N 3157   3.358   6.793   9.018 -0.5893  0.4813  0.3777
  765MOL0     C 3158   3.225   6.825   9.043 -0.4048 -0.8068 -0.0514
  765MOL0     C 3159   3.163   6.705   9.068 -0.0818  0.8474 -0.7180
  765MOL0     C 3160   3.024   6.688   9.120  0.1277 -0.5088 -0.5503
  765MOL0     C 3161   2.980   6.542   9.111  0.4142  1.0879  0.4718
  765MOL0     C 3162   2.971   6.493   8.963 -0.2277  0.8427 -0.4501
  765MOL0     C 3163   2.907   6.352   8.954  0.0248 -0.6159  0.4324
  765MOL0     O 3164   2.765   6.352   8.978 -0.3981  0.9313  0.2175
  765MOL0     C 3165   2.705   6.225   8.994  0.1476  0.9864  0.2853
  765MOL0     C 3166   2.580   6.202   9.051 -0.6263 -0.7415 -0.0452
  765MOL0     C 3167   2.515   6.081   9.064  0.0767 -0.2796 -0.3289
  765MOL0     C 3168   2.388   6.084   9.156  0.7685  0.0316 -0.2030
  765MOL0     C 3169   2.577   5.964   9.027 -1.2249  1.2010 -0.2723
  765MOL0     C 3170   2.528   5.835   9.052 -0.2162  0.1058  0.3003
  765MOL0     O 3171   2.413   5.831   9.112 -0.5469  0.2147 -0.5140
  765MOL0     C 3172   2.360   5.707   9.137  0.1861 -0.0572 -0.5422
  765MOL0     C 3173   2.243   5.684   9.073 -0.6266  0.9262  0.3589
  765MOL0     C 3174   2.177   5.563   9.092 -0.5717 -0.0433  0.6126
  765MOL0     C 3175   2.227   5.469   9.176  0.5570  1.3254 -0.9735
  765MOL0     O 3176   2.154   5.356   9.213 -0.1673  0.6764 -0.2158
  765MOL0     C 3177   2.049   5.392   9.313 -0.3105 -0.0402 -0.6390
  765MOL0     C 3178   1.984   5.261   9.368 -0.5104  0.7559 -0.0577
  765MOL0     C 3179   1.892   5.187   9.272 -0.4216 -0.2808 -0.9164
  765MOL0     C 3180   1.737   5.215   9.305  0.0571 -0.7162  0.3261
  765MOL0     C 3181   1.634   5.112   9.249  0.8720  0.8748 -0.1914
  765MOL0     C 3182   1.623   5.122   9.092  1.2246 -0.3119  0.0012
  765MOL0     C 3183   1.524   5.032   9.019 -0.2112  0.1413  0.5943
  765MOL0     C 3184   1.380   5.051   9.063 -0.6509  0.3320  0.4825
  765MOL0    Cl 3185   1.269   4.917   8.982 -0.6277 -0.1970 -0.1574
  765MOL0     C 3186   2.332   5.501   9.265 -0.0951  0.7589  0.1250
  765MOL0     C 3187   2.408   5.615   9.237 -0.7619  0.1225 -0.8294
  765MOL0     O 3188   2.588   5.743   8.996 -0.2651  0.0562 -0.5255
  765MOL0     C 3189   2.700   5.982   8.961 -0.5750 -0.4109  0.5845
  765MOL0     C 3190   2.764   6.105   8.948 -0.2430  0.2748 -0.2832
  765MOL0     N 3191   3.257   6.602   9.057  0.1187 -0.1449  0.5773
  765MOL0     N 3192   3.368   6.655   9.014  0.1446 -0.1851  0.8876
  765MOL0     C 3193   4.436   6.914   9.008  0.0301 -0.4266  0.7966
  765MOL0     C 3194   4.565   6.873   9.033 -0.1746  0.3811 -0.0835
  765MOL0     C 3195   4.985   6.814   9.257  0.3130 -0.6277 -0.4231
  765MOL0     C 3196   5.061   6.809   9.366 -0.5168  0.6018 -0.5677
  765MOL0     C 3197   5.179   6.733   9.350  1.2152 -0.2817 -0.5834
  765MOL0     C 3198   5.207   6.665   9.230 -0.0300  0.5569  0.5138
  765MOL0     O 3199   5.317   6.591   9.207 -0.5573 -0.3307 -0.1468
  765MOL0     C 3200   5.444   6.646   9.237 -0.8746 -0.8751 -0.0902
  765MOL0     C 3201   5.472   6.794   9.195  0.5155 -0.2410  0.4785
  765MOL0     C 3202   5.464   6.829   9.045  0.4314  1.4755  1.3152
  765MOL0     C 3203   5.452   6.719   8.935  0.3042  0.3152 -0.6193
  765MOL0     C 3204   5.431   6.754   8.796  1.6319  0.0589  0.2739
  765MOL0     C 3205   5.407   6.788   8.681  0.4466 -0.7240 -0.4319
  765MOL0     C 3206   5.110   6.660   9.132  0.3178 -0.2215 -0.2558
  765MOL0     C 3207   5.001   6.736   9.146 -0.2671  0.7328 -0.5047
  765MOL0     H 3208   4.610   7.059   9.322 -0.2274  0.4364 -0.2472
  765MOL0     H 3209   4.404   7.144   9.251  0.7800  1.1284 -1.3975
  765MOL0     H 3210   4.233   7.068   8.849 -1.8263 -0.6445 -2.2334
  765MOL0     H 3211   4.195   6.914   8.909  0.1143 -0.9517  0.8192
  765MOL0     H 3212   4.040   7.162   8.947  2.7338  0.2374  1.3419
  765MOL0     H 3213   4.000   7.020   8.845  0.0266  4.9792 -1.1719
  765MOL0     H 3214   4.042   6.892   9.081 -0.3377 -0.3857 -1.5596
  765MOL0     H 3215   3.976   7.044   9.149  2.6508  1.4456 -0.3081
  765MOL0     H 3216   3.824   6.887   8.943  1.5775 -0.9947  0.1584
  765MOL0     H 3217   3.815   6.841   9.106  1.3530  0.4506  0.8925
  765MOL0     H 3218   3.776   7.132   9.052 -2.3565  1.5272 -0.6468
  765MOL0     H 3219   3.677   7.022   8.949  1.8999 -0.3222 -0.8771
  765MOL0     H 3220   3.693   7.011   9.255 -1.5593  1.4684  1.6319
  765MOL0     H 3221   3.558   7.106   9.168  0.0668 -0.1768  3.0501
  765MOL0     H 3222   3.617   6.821   9.179  0.4104 -0.4584 -2.0700
  765MOL0     H 3223   3.467   6.904   9.238  0.2059  2.2687 -0.0442
  765MOL0     H 3224   3.539   6.830   8.953 -1.9631 -0.9147  1.0030
  765MOL0     H 3225   3.448   6.975   8.967  1.5264  0.5906 -1.4073
  765MOL0     H 3226   3.182   6.925   9.049  1.4338  0.5274 -4.7182
  765MOL0     H 3227   3.028   6.722   9.224 -1.3147  0.8204 -0.8959
  765MOL0     H 3228   2.960   6.758   9.066 -0.5431 -1.4121 -0.9660
  765MOL0     H 3229   2.876   6.546   9.145  0.1492  0.4208 -0.2165
  765MOL0     H 3230   3.028   6.479   9.186  0.8671  2.3984  1.3000
  765MOL0     H 3231   3.071   6.488   8.920  1.4332 -2.0157  3.1760
  765MOL0     H 3232   2.903   6.556   8.905 -0.9156 -0.7943 -1.4681
  765MOL0     H 3233   2.965   6.284   9.018  0.1716  0.4385  1.4674
  765MOL0     H 3234   2.935   6.319   8.854  3.2213  1.9725  0.2837
  765MOL0     H 3235   2.542   6.296   9.090  0.8094  0.1756 -0.7230
  765MOL0     H 3236   2.375   6.190   9.180  0.6097  0.1902 -0.9792
  765MOL0     H 3237   2.300   6.048   9.103  1.3939  0.5040 -1.6069
  765MOL0     H 3238   2.386   6.025   9.249 -1.7081 -0.4313 -0.4844
  765MOL0     H 3239   2.211   5.771   9.017 -1.3441 -0.9655 -2.4022
  765MOL0     H 3240   2.087   5.535   9.038 -1.2872  0.5636  1.4539
  765MOL0     H 3241   2.105   5.438   9.394 -2.6694  1.3747  0.2896
  765MOL0     H 3242   1.965   5.455   9.282  0.7057  1.4227 -0.5042
  765MOL0     H 3243   2.065   5.190   9.385 -2.8753 -1.7669  1.5522
  765MOL0     H 3244   1.934   5.279   9.464 -2.5172 -0.2454 -0.8737
  765MOL0     H 3245   1.902   5.078   9.280  2.2565  0.0329  1.7992
  765MOL0     H 3246   1.910   5.228   9.173 -2.0125  1.3374 -0.5828
  765MOL0     H 3247   1.732   5.226   9.414  2.3537  0.7848  0.3378
  765MOL0     H 3248   1.716   5.316   9.268 -0.9056 -1.0857 -0.1570
  765MOL0     H 3249   1.537   5.139   9.291  0.0923 -0.6688 -0.9160
  765MOL0     H 3250   1.657   5.011   9.286 -0.5743  0.4781 -0.3207
  765MOL0     H 3251   1.595   5.227   9.078 -0.8572 -0.7639  0.4267
  765MOL0     H 3252   1.723   5.111   9.051  1.2744 -2.8490  0.6359
  765MOL0     H 3253   1.547   4.927   9.037 -0.1113  0.3426  1.7479
  765MOL0     H 3254   1.530   5.058   8.913 -1.6739 -1.1575  0.1554
  765MOL0     H 3255   1.344   5.150   9.034 -0.5215  0.2094 -0.0974
  765MOL0     H 3256   1.387   5.034   9.171  0.1579 -0.6724  0.2956
  765MOL0     H 3257   2.348   5.439   9.353 -0.4852  0.9187  0.3150
  765MOL0     H 3258   2.501   5.634   9.291 -0.8906 -1.1838 -0.0945
  765MOL0     H 3259   2.744   5.894   8.915 -0.5006  0.5335 -1.2328
  765MOL0     H 3260   2.863   6.109   8.904  1.3033 -1.5984  2.7321
  765MOL0     H 3261   4.379   6.873   8.925  1.3316 -0.0903 -0.3163
  765MOL0     H 3262   4.615   6.801   8.970  3.6194  0.1794  2.8501
  765MOL0     H 3263   5.030   6.858   9.458  1.8860 -1.4889  1.4993
  765MOL0     H 3264   5.243   6.717   9.435 -0.1374  0.6398  0.6593
  765MOL0     H 3265   5.467   6.636   9.344  0.2177  2.0170  0.0195
  765MOL0     H 3266   5.506   6.574   9.183  0.3623  1.3375 -1.7224
  765MOL0     H 3267   5.577   6.810   9.219  1.3196  1.5756 -3.4194
  765MOL0     H 3268   5.403   6.863   9.244 -1.8397 -1.2968 -1.1508
  765MOL0     H 3269   5.551   6.894   9.030  2.1903 -0.9754  0.2773
  765MOL0     H 3270   5.382   6.901   9.035  0.3473  1.4214  1.5823
  765MOL0     H 3271   5.365   6.655   8.955 -0.8117  1.0467 -2.8104
  765MOL0     H 3272   5.544   6.660   8.943  0.7590  1.1621  0.8864
  765MOL0     H 3273   5.391   6.805   8.576  0.1394 -1.5146 -0.5286
  765MOL0     H 3274   5.133   6.602   9.043  1.5218  0.3989 -0.3661
  765MOL0     H 3275   4.928   6.747   9.066  0.2161  0.3048 -1.0105
  766MOL0     O 3276   2.998   0.770  10.899  0.1058 -0.6549  0.0509
  766MOL0     C 3277   2.948   0.677  10.959  0.4949 -0.1544  0.0925
  766MOL0     O 3278   3.025   0.616  11.061  0.5059 -0.5145  0.0268
  766MOL0     C 3279   3.155   0.643  11.076  0.5157  0.1975 -0.1319
  766MOL0     C 3280   3.208   0.704  11.189  0.3253  0.5687 -0.1731
  766MOL0     C 3281   3.346   0.715  11.201  0.3249  0.0026  0.4741
  766MOL0     C 3282   3.440   0.682  11.094  0.2848 -0.3918  0.1759
  766MOL0     O 3283   3.572   0.720  11.119 -0.0000  0.0782 -0.6451
  766MOL0     C 3284   3.671   0.717  11.014 -0.1518 -0.3843 -0.0132
  766MOL0     C 3285   3.792   0.794  11.067 -0.6068  0.1578  0.2871
  766MOL0     C 3286   3.926   0.746  10.993  0.2438  0.2078 -0.0883
  766MOL0     C 3287   4.053   0.826  11.039  0.7857 -0.0096 -0.5378
  766MOL0     C 3288   4.185   0.751  11.005 -0.1120 -0.2981  0.4882
  766MOL0     C 3289   4.307   0.833  11.050 -0.6258 -0.4719 -0.6310
  766MOL0     C 3290   4.309   0.841  11.206  1.1414  0.2056 -0.1242
  766MOL0     C 3291   4.440   0.864  11.267 -0.3659  0.0057 -0.6311
  766MOL0     N 3292   4.538   0.766  11.244 -0.8529  0.0813  0.2809
  766MOL0     C 3293   4.558   0.646  11.317  0.2953  0.3728 -0.4739
  766MOL0     C 3294   4.655   0.581  11.244 -0.9556  0.7446 -0.4551
  766MOL0     C 3295   4.708   0.434  11.269 -0.3552  0.1632  0.6800
  766MOL0     C 3296   4.610   0.330  11.197  0.1219  0.1785 -0.4396
  766MOL0     C 3297   4.466   0.351  11.251 -0.5890 -0.3689  0.0563
  766MOL0     C 3298   4.381   0.226  11.218 -0.3500  0.3389  0.0576
  766MOL0     O 3299   4.336   0.238  11.079  0.4349 -0.0199 -0.3548
  766MOL0     C 3300   4.209   0.193  11.047 -0.1876  0.3330  0.3684
  766MOL0     C 3301   4.149   0.214  10.921  0.1428  0.3922 -0.2543
  766MOL0     C 3302   4.022   0.160  10.879  0.2044  0.1887 -0.3700
  766MOL0     C 3303   3.986   0.185  10.735  0.2472  0.3473  0.5083
  766MOL0     C 3304   3.941   0.086  10.970  0.0981 -0.8185 -0.6972
  766MOL0     C 3305   3.805   0.049  10.956 -0.8677  0.4272  0.2371
  766MOL0     O 3306   3.736  -0.002  11.062  0.0967 -0.1415  0.4343
  766MOL0     C 3307   3.604  -0.032  11.038 -0.5452 -0.6491  0.7037
  766MOL0     C 3308   3.539  -0.087  10.920 -0.5305  0.6083 -0.1268
  766MOL0     C 3309   3.408  -0.142  10.928 -0.3405 -0.8942 -0.8559
  766MOL0     C 3310   3.335  -0.128  11.047  0.4581  0.1826 -0.2490
  766MOL0     O 3311   3.199  -0.165  11.054  0.2383 -0.3395  0.0564
  766MOL0     C 3312   3.104  -0.062  11.094  0.3760 -1.7454 -0.2948
  766MOL0     C 3313   3.061  -0.093  11.232 -0.5201 -0.5574  0.0089
  766MOL0     C 3314   2.958  -0.209  11.237 -0.3513  0.0439  0.2301
  766MOL0     C 3315   2.922  -0.238  11.387 -0.5039  0.0460 -0.2863
  766MOL0     C 3316   2.782  -0.309  11.394  0.2129 -0.8813 -0.3817
  766MOL0     C 3317   2.749  -0.369  11.536 -0.2856 -0.6197  0.4644
  766MOL0     C 3318   2.622  -0.464  11.512  0.9074  1.0912 -0.7396
  766MOL0     C 3319   2.565  -0.545  11.629 -0.8526 -0.0168  0.6182
  766MOL0    Cl 3320   2.697  -0.670  11.668 -0.0050 -0.0124 -0.0712
  766MOL0     C 3321   3.388  -0.060  11.158  0.6381  0.1757 -0.2367
  766MOL0     C 3322   3.526  -0.009  11.151 -0.6756  0.4881  0.2762
  766MOL0     O 3323   3.765   0.079  10.851  0.0771  0.6003  0.7696
  766MOL0     C 3324   4.006   0.052  11.094  0.0281  0.2009  0.1001
  766MOL0     C 3325   4.140   0.099  11.127  0.5954 -1.0039  0.8368
  766MOL0     N 3326   4.696   0.658  11.138 -0.7738 -0.0488  0.1173
  766MOL0     N 3327   4.635   0.770  11.142 -0.1814  0.0909  0.0592
  766MOL0     C 3328   3.383   0.620  10.973  0.2087  0.5694  1.2002
  766MOL0     C 3329   3.247   0.600  10.976 -0.3360  0.6581 -0.3410
  766MOL0     C 3330   2.802   0.634  10.929 -0.3771 -0.7383 -0.9428
  766MOL0     C 3331   2.752   0.510  10.978 -0.2634 -0.3332 -0.9002
  766MOL0     C 3332   2.609   0.498  10.968  0.3189  0.7567 -0.2684
  766MOL0     C 3333   2.521   0.590  10.906 -0.1558 -0.1363 -0.1431
  766MOL0     O 3334   2.387   0.560  10.896 -0.2917 -0.1444 -0.0917
  766MOL0     C 3335   2.302   0.679  10.876  0.0836  0.3860 -0.2819
  766MOL0     C 3336   2.280   0.758  11.001 -0.2728  0.7766  0.6920
  766MOL0     C 3337   2.213   0.899  10.974  0.6994 -0.0804  0.1298
  766MOL0     C 3338   2.182   0.981  11.099 -0.1334 -0.2236 -0.5072
  766MOL0     C 3339   2.109   1.100  11.061  0.1594  0.1520  0.0660
  766MOL0     C 3340   2.047   1.200  11.026  0.4877  0.2580 -0.0930
  766MOL0     C 3341   2.579   0.718  10.874  0.0559 -1.0206 -0.2723
  766MOL0     C 3342   2.716   0.742  10.880  0.4113 -0.2960 -0.5021
  766MOL0     H 3343   3.137   0.720  11.269 -0.6820 -0.7157 -0.7757
  766MOL0     H 3344   3.388   0.765  11.288  2.6053 -1.5233  0.3160
  766MOL0     H 3345   3.707   0.615  11.008 -0.3173 -0.3649 -1.5369
  766MOL0     H 3346   3.636   0.760  10.920  0.7398  0.5208  0.0503
  766MOL0     H 3347   3.778   0.903  11.062  0.1087  0.2709  0.6186
  766MOL0     H 3348   3.807   0.776  11.174  0.3401  0.0931  0.1495
  766MOL0     H 3349   3.947   0.647  11.034 -0.4689  0.3997  0.7681
  766MOL0     H 3350   3.911   0.741  10.884 -1.8077 -0.0319  0.1529
  766MOL0     H 3351   4.060   0.920  10.983  1.6717 -0.1712 -0.7194
  766MOL0     H 3352   4.046   0.845  11.146  0.6723 -1.7729 -0.2014
  766MOL0     H 3353   4.189   0.658  11.062 -0.4198 -0.1075  0.8238
  766MOL0     H 3354   4.181   0.739  10.896 -0.0873 -0.4979  0.5094
  766MOL0     H 3355   4.400   0.792  11.008  0.5470  1.7407 -0.3407
  766MOL0     H 3356   4.303   0.936  11.016 -2.0866  0.5804  2.3228
  766MOL0     H 3357   4.250   0.931  11.227 -3.8445 -2.0205 -2.7634
  766MOL0     H 3358   4.264   0.752  11.250  0.1300  1.1072  0.7159
  766MOL0     H 3359   4.422   0.864  11.375  0.3792 -2.9152 -0.4394
  766MOL0     H 3360   4.474   0.967  11.255 -0.0147  0.0041  0.2717
  766MOL0     H 3361   4.516   0.617  11.413  1.2719 -3.0116 -0.9528
  766MOL0     H 3362   4.804   0.425  11.217  0.3172 -0.3942  1.9668
  766MOL0     H 3363   4.723   0.421  11.376 -1.8812  1.4670  1.0900
  766MOL0     H 3364   4.643   0.228  11.222  1.3797  0.3831 -1.1468
  766MOL0     H 3365   4.612   0.335  11.088  2.5650 -0.3208 -0.4773
  766MOL0     H 3366   4.423   0.432  11.192 -2.9382  0.0537  2.1870
  766MOL0     H 3367   4.470   0.371  11.358 -0.0829 -1.8229  0.3345
  766MOL0     H 3368   4.300   0.224  11.291 -0.9167  1.7499 -0.5060
  766MOL0     H 3369   4.426   0.127  11.229 -0.7637  0.1195 -0.1768
  766MOL0     H 3370   4.208   0.276  10.854 -0.9971  0.4832 -1.1930
  766MOL0     H 3371   4.060   0.242  10.678 -0.3557  0.9682  0.3339
  766MOL0     H 3372   3.968   0.093  10.678  0.1462  0.2627  0.6753
  766MOL0     H 3373   3.889   0.234  10.729 -0.0467  0.0205  2.2711
  766MOL0     H 3374   3.595  -0.100  10.828  1.1218 -1.0701  1.0547
  766MOL0     H 3375   3.358  -0.197  10.848 -0.7341 -0.2006 -1.0908
  766MOL0     H 3376   3.141   0.041  11.088 -0.3173 -1.2139  2.8849
  766MOL0     H 3377   3.014  -0.071  11.031 -0.5340  0.7089  0.5148
  766MOL0     H 3378   3.144  -0.115  11.300 -0.8845 -2.2653 -0.0448
  766MOL0     H 3379   3.019  -0.007  11.283  3.4852  0.9331  1.1991
  766MOL0     H 3380   3.009  -0.300  11.205 -3.2692 -2.4630  2.0416
  766MOL0     H 3381   2.866  -0.191  11.180 -0.9342  0.6845  1.3336
  766MOL0     H 3382   3.003  -0.294  11.434  0.1708 -0.6938 -2.2309
  766MOL0     H 3383   2.910  -0.145  11.443 -1.1446 -1.2613  1.8793
  766MOL0     H 3384   2.781  -0.388  11.318  0.6275  0.9294 -2.3723
  766MOL0     H 3385   2.704  -0.241  11.358  1.5381  0.5530 -0.6793
  766MOL0     H 3386   2.830  -0.428  11.579  1.0949  0.6356 -0.3562
  766MOL0     H 3387   2.725  -0.289  11.606  1.4719  0.7302 -0.4078
  766MOL0     H 3388   2.658  -0.535  11.436 -1.7326  0.4676 -1.5157
  766MOL0     H 3389   2.534  -0.413  11.471 -1.8274 -0.6023  2.5368
  766MOL0     H 3390   2.474  -0.597  11.597 -1.1686  1.0498 -0.2878
  766MOL0     H 3391   2.523  -0.496  11.718 -1.5045  3.5616 -1.4452
  766MOL0     H 3392   3.330  -0.035  11.246  2.1388 -0.3872  0.9505
  766MOL0     H 3393   3.568   0.037  11.240 -0.4344  2.5633 -0.8520
  766MOL0     H 3394   3.950  -0.008  11.165 -2.8205  0.0911 -2.0705
  766MOL0     H 3395   4.165   0.075  11.230  1.6468  0.0942  0.8690
  766MOL0     H 3396   3.451   0.600  10.891 -0.1128 -0.9139  1.2724
  766MOL0     H 3397   3.210   0.534  10.898 -2.2700 -0.8370  1.7013
  766MOL0     H 3398   2.819   0.452  11.040 -0.6691 -0.3718 -0.4912
  766MOL0     H 3399   2.568   0.403  11.002  1.1505  0.6813  0.5826
  766MOL0     H 3400   2.323   0.756  10.801 -3.6052  2.5663  0.6497
  766MOL0     H 3401   2.210   0.639  10.833  0.3823 -0.3437 -0.2463
  766MOL0     H 3402   2.376   0.761  11.053  0.6608  1.1957 -0.9865
  766MOL0     H 3403   2.213   0.703  11.068 -0.6954  1.3188  0.7278
  766MOL0     H 3404   2.128   0.870  10.911  0.8491 -0.2284 -0.0055
  766MOL0     H 3405   2.269   0.962  10.905 -0.7305  1.4456  0.2931
  766MOL0     H 3406   2.269   1.014  11.156 -2.1353  3.0182  0.9529
  766MOL0     H 3407   2.123   0.924  11.170  0.2359 -0.5079 -0.4273
  766MOL0     H 3408   1.988   1.287  11.009 -1.0139 -0.8430 -0.7768
  766MOL0     H 3409   2.514   0.795  10.835 -0.6644 -0.2599  2.2242
  766MOL0     H 3410   2.747   0.841  10.850 -2.7709  1.1446  0.5055
  767MOL0     O 3411   8.392   1.346   1.448 -0.2696 -0.1840  0.3604
  767MOL0     C 3412   8.462   1.333   1.548 -0.1057  0.6248 -0.0115
  767MOL0     O 3413   8.421   1.308   1.673  0.3129 -0.0339  0.0396
  767MOL0     C 3414   8.289   1.286   1.699  0.0987 -0.1447 -0.1401
  767MOL0     C 3415   8.186   1.373   1.663  0.2558 -0.6446  0.3295
  767MOL0     C 3416   8.054   1.327   1.678  0.6449 -0.4842  0.3770
  767MOL0     C 3417   8.017   1.216   1.749 -0.4940 -0.7567 -0.6503
  767MOL0     O 3418   7.886   1.184   1.773  0.5365  0.4767  0.4367
  767MOL0     C 3419   7.854   1.198   1.914 -0.0958 -0.2090  0.0957
  767MOL0     C 3420   7.698   1.187   1.918 -0.9579 -0.0364  0.1370
  767MOL0     C 3421   7.629   1.292   1.825 -0.0085  0.0462 -0.0864
  767MOL0     C 3422   7.490   1.329   1.873 -1.1703  0.2239 -0.7240
  767MOL0     C 3423   7.495   1.433   1.984 -0.3870 -0.0922  0.0129
  767MOL0     C 3424   7.388   1.547   1.968  0.8362 -0.2666  0.7146
  767MOL0     C 3425   7.419   1.662   2.048  0.0029 -0.5629  0.0530
  767MOL0     C 3426   7.440   1.632   2.197 -0.1621  0.2520  0.2454
  767MOL0     N 3427   7.324   1.578   2.269  0.5913 -0.1586  0.0567
  767MOL0     C 3428   7.271   1.451   2.255  0.2321 -0.3047  0.5884
  767MOL0     C 3429   7.173   1.438   2.344  0.1529  0.3535 -1.1647
  767MOL0     C 3430   7.089   1.314   2.358 -0.2530 -0.1238 -0.1617
  767MOL0     C 3431   6.942   1.348   2.335  0.4305  0.2732 -0.1984
  767MOL0     C 3432   6.873   1.461   2.412  0.8679 -0.0202 -0.8421
  767MOL0     C 3433   6.712   1.423   2.406 -0.2992 -0.3652 -0.4865
  767MOL0     O 3434   6.629   1.539   2.415  0.3263  0.5416 -0.3284
  767MOL0     C 3435   6.491   1.520   2.434 -0.5182 -0.7021 -0.2369
  767MOL0     C 3436   6.429   1.638   2.476 -0.0147  0.1293  0.3637
  767MOL0     C 3437   6.287   1.641   2.492 -0.3480 -0.6398  0.5892
  767MOL0     C 3438   6.219   1.771   2.514 -0.2474  0.9368 -0.0490
  767MOL0     C 3439   6.220   1.516   2.474 -0.1249 -0.0024  0.9262
  767MOL0     C 3440   6.072   1.499   2.468 -0.0925 -0.8627  0.7565
  767MOL0     O 3441   6.003   1.571   2.563 -0.0250  0.4245  0.2824
  767MOL0     C 3442   5.867   1.573   2.540 -0.0501  0.3766 -0.6315
  767MOL0     C 3443   5.781   1.478   2.600  0.3836  0.2008  0.0605
  767MOL0     C 3444   5.643   1.475   2.582 -0.0893 -0.0988  0.1581
  767MOL0     C 3445   5.589   1.564   2.488  0.6321 -0.0908  0.6265
  767MOL0     O 3446   5.459   1.566   2.436 -0.2485 -1.1952  0.0817
  767MOL0     C 3447   5.356   1.571   2.538  0.0944  0.1024 -0.0265
  767MOL0     C 3448   5.241   1.656   2.483 -0.5892  0.0571 -0.6309
  767MOL0     C 3449   5.164   1.559   2.393  0.1459  0.1950 -0.5107
  767MOL0     C 3450   5.051   1.650   2.338  0.0989  0.2518  0.5534
  767MOL0     C 3451   4.959   1.558   2.257  0.6395  0.2396 -0.2302
  767MOL0     C 3452   4.845   1.626   2.174 -0.9139  0.5381  0.2831
  767MOL0     C 3453   4.746   1.527   2.118  0.2100 -0.9053 -0.4722
  767MOL0     C 3454   4.676   1.435   2.212 -0.4544  0.2690 -0.1245
  767MOL0    Cl 3455   4.571   1.330   2.119  0.1839  0.0240 -0.5101
  767MOL0     C 3456   5.668   1.663   2.438 -0.2550  0.0938 -0.9618
  767MOL0     C 3457   5.800   1.680   2.474 -0.9074  0.8478 -0.3430
  767MOL0     O 3458   6.019   1.434   2.378  0.4679  0.2357  0.2000
  767MOL0     C 3459   6.294   1.392   2.464  0.5297 -0.0989  0.3946
  767MOL0     C 3460   6.433   1.397   2.447 -0.5870 -0.1324  0.4465
  767MOL0     N 3461   7.166   1.556   2.414 -0.3558 -0.6688  0.1962
  767MOL0     N 3462   7.258   1.640   2.372  0.2401  0.6923 -0.4315
  767MOL0     C 3463   8.126   1.139   1.799 -0.1766  0.3599  0.0509
  767MOL0     C 3464   8.258   1.160   1.764  0.0806 -0.2237  0.2770
  767MOL0     C 3465   8.607   1.367   1.535  0.1743 -0.7450  0.1313
  767MOL0     C 3466   8.651   1.430   1.416 -0.2374 -0.1387  0.9556
  767MOL0     C 3467   8.783   1.480   1.403  0.1875  0.3072  0.5380
  767MOL0     C 3468   8.873   1.438   1.500 -0.2523 -0.2780 -0.6868
  767MOL0     O 3469   8.999   1.490   1.481  0.7026  0.4173  0.0775
  767MOL0     C 3470   9.045   1.592   1.567 -0.3839  0.2876 -0.1255
  767MOL0     C 3471   8.955   1.717   1.580  0.4147  0.0367  0.7492
  767MOL0     C 3472   8.944   1.812   1.452  0.0667  0.7515 -0.1506
  767MOL0     C 3473   9.079   1.884   1.443 -0.2352 -0.4708 -0.6704
  767MOL0     C 3474   9.072   1.982   1.335 -0.1005  0.9751  1.0125
  767MOL0     C 3475   9.058   2.057   1.242 -0.7213 -0.1178  0.1150
  767MOL0     C 3476   8.835   1.372   1.614  0.0532 -0.5548 -0.2423
  767MOL0     C 3477   8.701   1.331   1.630  0.3181 -0.3709 -0.1619
  767MOL0     H 3478   8.202   1.471   1.620  1.6665 -1.4526 -1.0821
  767MOL0     H 3479   7.973   1.392   1.648 -1.8780 -2.3965  2.5836
  767MOL0     H 3480   7.904   1.123   1.976  0.7416  1.2371  1.2338
  767MOL0     H 3481   7.885   1.299   1.943 -0.3979 -0.5090  1.5533
  767MOL0     H 3482   7.675   1.088   1.877  0.6189 -0.6510  0.6606
  767MOL0     H 3483   7.658   1.197   2.019 -1.4874  0.6338 -0.1284
  767MOL0     H 3484   7.695   1.375   1.797  0.0777 -0.3993 -1.2407
  767MOL0     H 3485   7.605   1.238   1.733 -0.1790  0.8531 -0.5220
  767MOL0     H 3486   7.435   1.367   1.786  0.1195 -0.5136 -1.8923
  767MOL0     H 3487   7.445   1.237   1.913  2.8808 -0.9755  1.6071
  767MOL0     H 3488   7.494   1.379   2.079 -1.3019  0.0570  0.0956
  767MOL0     H 3489   7.594   1.479   1.975 -1.2152  1.7841  0.0542
  767MOL0     H 3490   7.397   1.587   1.866  1.0126  0.1652  0.8957
  767MOL0     H 3491   7.282   1.517   1.966  2.2573 -6.7936  0.7507
  767MOL0     H 3492   7.501   1.722   2.007 -0.5431 -1.8368 -3.2093
  767MOL0     H 3493   7.328   1.722   2.041  0.6611  0.5402  0.6402
  767MOL0     H 3494   7.474   1.727   2.237  3.9274 -1.4685  1.3115
  767MOL0     H 3495   7.528   1.572   2.221  2.6197  2.1478 -4.0983
  767MOL0     H 3496   7.292   1.381   2.175 -3.9149 -0.6755 -0.4145
  767MOL0     H 3497   7.124   1.230   2.297 -4.4417 -1.5956 -0.8915
  767MOL0     H 3498   7.103   1.268   2.457 -2.9497  1.9376  1.3092
  767MOL0     H 3499   6.888   1.253   2.333 -1.1217  1.1350 -1.4218
  767MOL0     H 3500   6.928   1.378   2.231 -0.1577  0.4018 -0.0842
  767MOL0     H 3501   6.877   1.552   2.351 -2.7528  1.5932  0.9744
  767MOL0     H 3502   6.915   1.474   2.512 -0.6410  0.6404 -0.2660
  767MOL0     H 3503   6.701   1.356   2.492 -2.8365  1.6343  0.8782
  767MOL0     H 3504   6.689   1.364   2.316  0.0600 -0.3621 -0.5866
  767MOL0     H 3505   6.492   1.726   2.480  0.2888 -0.1132  1.1580
  767MOL0     H 3506   6.290   1.853   2.522  1.4357 -0.5077  0.6249
  767MOL0     H 3507   6.145   1.781   2.434 -1.4110 -2.9933  0.3307
  767MOL0     H 3508   6.171   1.763   2.612  1.9222 -1.6112  0.9492
  767MOL0     H 3509   5.816   1.398   2.664 -0.3483  1.0404  1.5761
  767MOL0     H 3510   5.591   1.397   2.637 -0.9221  1.5581  1.8342
  767MOL0     H 3511   5.328   1.469   2.569 -1.0914  0.8247  1.3781
  767MOL0     H 3512   5.397   1.612   2.631 -0.4735 -1.2516  0.8553
  767MOL0     H 3513   5.173   1.690   2.561 -1.5364 -0.6121 -1.1536
  767MOL0     H 3514   5.286   1.738   2.426  2.0204  0.0350  1.1755
  767MOL0     H 3515   5.125   1.472   2.448  2.7284 -0.3464  0.5937
  767MOL0     H 3516   5.222   1.531   2.306 -2.1892 -0.0652 -2.0828
  767MOL0     H 3517   4.988   1.699   2.413  2.1394 -0.2027  2.7206
  767MOL0     H 3518   5.100   1.731   2.283  2.2322  0.4081  2.5237
  767MOL0     H 3519   4.918   1.497   2.338 -2.3374 -0.0505 -1.7984
  767MOL0     H 3520   5.018   1.494   2.191 -1.0002 -3.5322  1.6502
  767MOL0     H 3521   4.795   1.698   2.239 -1.2042 -0.4015  1.1163
  767MOL0     H 3522   4.889   1.682   2.090  1.8466  0.5962  1.6679
  767MOL0     H 3523   4.813   1.464   2.059  1.1707 -0.0502 -0.3177
  767MOL0     H 3524   4.666   1.576   2.062  1.5912  0.2072 -1.5463
  767MOL0     H 3525   4.615   1.495   2.280 -0.8336  1.8065 -1.7536
  767MOL0     H 3526   4.749   1.373   2.264 -1.3715 -0.8703 -0.1523
  767MOL0     H 3527   5.636   1.748   2.379 -0.2898 -0.5862 -1.9484
  767MOL0     H 3528   5.862   1.764   2.444  0.8093 -0.4397 -0.6039
  767MOL0     H 3529   6.239   1.300   2.450  1.5619 -0.7036  0.2926
  767MOL0     H 3530   6.487   1.315   2.400 -0.0507  0.0305  0.7736
  767MOL0     H 3531   8.104   1.042   1.843 -2.0305  0.0843 -1.3487
  767MOL0     H 3532   8.327   1.086   1.802  0.1522 -0.0874  0.4120
  767MOL0     H 3533   8.578   1.454   1.339  0.9792 -1.7217 -0.7935
  767MOL0     H 3534   8.808   1.539   1.315 -1.2384  1.3446  0.8003
  767MOL0     H 3535   9.063   1.551   1.667  0.8860  0.9926 -0.0422
  767MOL0     H 3536   9.140   1.623   1.522 -1.5584  2.8153 -1.0634
  767MOL0     H 3537   8.999   1.782   1.657 -2.0740  2.0659  0.5933
  767MOL0     H 3538   8.851   1.693   1.607 -0.0549  1.9874  0.8122
  767MOL0     H 3539   8.866   1.885   1.476 -2.8829 -1.5547 -2.0370
  767MOL0     H 3540   8.914   1.761   1.360  1.3590 -2.2733  0.9979
  767MOL0     H 3541   9.163   1.814   1.438 -0.7130 -1.2381  1.3115
  767MOL0     H 3542   9.101   1.935   1.537  0.2212 -1.1236 -0.4184
  767MOL0     H 3543   9.069   2.114   1.152 -0.2857  0.4680  0.5349
  767MOL0     H 3544   8.904   1.352   1.696 -0.6925  1.1923  0.8674
  767MOL0     H 3545   8.673   1.273   1.717 -2.0767 -1.1129 -1.3383
  768MOL0     O 3546   5.609   9.217   2.833  0.1828  0.2830  0.4690
  768MOL0     C 3547   5.674   9.245   2.741  0.1381  0.0886 -0.1284
  768MOL0     O 3548   5.654   9.215   2.621  0.3895  0.6850  1.2867
  768MOL0     C 3549   5.555   9.122   2.587  1.1469 -0.6091  0.2151
  768MOL0     C 3550   5.579   9.049   2.466 -0.0833 -0.1640 -0.8554
  768MOL0     C 3551   5.482   8.966   2.418  0.2777  0.0489  0.3512
  768MOL0     C 3552   5.363   8.945   2.482  0.6754 -0.0037  0.1665
  768MOL0     O 3553   5.292   8.841   2.425 -0.2860 -0.1128  0.2666
  768MOL0     C 3554   5.239   8.745   2.522 -0.4569 -0.7935  0.3287
  768MOL0     C 3555   5.185   8.625   2.442 -0.5701 -0.2469 -0.4955
  768MOL0     C 3556   5.115   8.657   2.306  0.0382  0.5538  0.6971
  768MOL0     C 3557   5.008   8.769   2.314  0.1525  0.1551 -1.4130
  768MOL0     C 3558   4.966   8.809   2.168  0.0199 -0.0765 -0.7581
  768MOL0     C 3559   4.908   8.953   2.157 -1.0371 -0.4108  0.8350
  768MOL0     C 3560   4.816   9.004   2.261  0.4418  0.0702 -0.7075
  768MOL0     C 3561   4.696   8.908   2.279  0.1915  0.3067  0.2055
  768MOL0     N 3562   4.613   8.934   2.393 -0.6698 -0.2266  0.6930
  768MOL0     C 3563   4.649   8.985   2.515 -0.4054 -0.9105 -0.1017
  768MOL0     C 3564   4.540   8.983   2.593  0.9150  0.7312  1.1942
  768MOL0     C 3565   4.535   9.023   2.738 -0.2702  0.8294  0.0066
  768MOL0     C 3566   4.446   9.152   2.770  0.0799  1.4511  0.5271
  768MOL0     C 3567   4.508   9.279   2.748  0.1090 -1.0177  0.3723
  768MOL0     C 3568   4.452   9.389   2.811  0.1879 -0.4114 -0.5899
  768MOL0     O 3569   4.319   9.402   2.763 -0.5381  0.4460 -0.5445
  768MOL0     C 3570   4.243   9.507   2.817  0.0482 -0.4714  0.6619
  768MOL0     C 3571   4.293   9.594   2.920  0.0052  0.2871  0.3174
  768MOL0     C 3572   4.220   9.712   2.950  0.2776 -0.6111  0.2869
  768MOL0     C 3573   4.260   9.786   3.067 -0.4519 -0.3462  0.5224
  768MOL0     C 3574   4.108   9.749   2.871  0.0879  0.2016 -0.0883
  768MOL0     C 3575   4.032   9.879   2.875  1.1557 -0.1215  0.3443
  768MOL0     O 3576   3.985   9.933   2.760  0.3520 -0.1179 -0.1047
  768MOL0     C 3577   3.930  10.057   2.755 -0.1049  0.0318 -1.2165
  768MOL0     C 3578   3.793  10.073   2.719 -1.0146 -0.2912  0.4472
  768MOL0     C 3579   3.734  10.194   2.743  0.0748  0.3366  0.4121
  768MOL0     C 3580   3.801  10.302   2.791  0.3147 -0.1140  0.3130
  768MOL0     O 3581   3.736  10.418   2.806 -0.1811  0.2087 -0.0133
  768MOL0     C 3582   3.764  10.479   2.929 -0.6611 -0.2155 -0.3103
  768MOL0     C 3583   3.656  10.578   2.963  0.7324 -0.1036 -0.1109
  768MOL0     C 3584   3.528  10.515   3.017 -0.1231 -0.9543 -0.8556
  768MOL0     C 3585   3.432  10.441   2.919 -0.6000 -0.2152  0.4049
  768MOL0     C 3586   3.284  10.432   2.969  0.1790 -0.4766 -0.8600
  768MOL0     C 3587   3.284  10.375   3.109 -0.2063 -0.2765 -0.3171
  768MOL0     C 3588   3.137  10.352   3.144  0.8162  0.9931  0.0351
  768MOL0     C 3589   3.123  10.297   3.277  0.0834  0.1602  0.0781
  768MOL0    Cl 3590   2.994  10.170   3.275  0.1831  0.5276 -0.0245
  768MOL0     C 3591   3.936  10.294   2.817 -0.2823  0.0371  0.2175
  768MOL0     C 3592   4.002  10.165   2.804 -0.1574 -0.6629  0.1399
  768MOL0     O 3593   4.024   9.944   2.980 -1.2497  0.6697  0.3547
  768MOL0     C 3594   4.068   9.662   2.772  0.8052  0.1998  0.1607
  768MOL0     C 3595   4.132   9.544   2.746  0.4753 -0.6964  0.0756
  768MOL0     N 3596   4.430   8.942   2.517 -0.4042  0.0002 -0.1231
  768MOL0     N 3597   4.479   8.919   2.397 -0.7395  0.3337  0.0274
  768MOL0     C 3598   5.330   9.027   2.595 -0.1289 -0.3886  0.5632
  768MOL0     C 3599   5.428   9.112   2.645  0.7250  0.5670 -0.4860
  768MOL0     C 3600   5.802   9.313   2.771 -0.4731  0.0047 -0.3818
  768MOL0     C 3601   5.904   9.325   2.676 -0.5061 -0.4083 -0.9411
  768MOL0     C 3602   6.026   9.368   2.711 -0.2252 -1.4195 -0.3006
  768MOL0     C 3603   6.058   9.415   2.835  0.9469  0.5862 -0.2503
  768MOL0     O 3604   6.174   9.473   2.876  0.2683 -0.4274 -0.4367
  768MOL0     C 3605   6.285   9.498   2.784  0.3778  0.3756  1.0808
  768MOL0     C 3606   6.271   9.638   2.725  0.5100 -0.6644  0.7806
  768MOL0     C 3607   6.404   9.673   2.654  0.1828  0.3757  0.6183
  768MOL0     C 3608   6.400   9.809   2.585 -0.2345 -0.4073 -0.5690
  768MOL0     C 3609   6.522   9.848   2.514 -0.3468 -0.1872 -0.2853
  768MOL0     C 3610   6.620   9.883   2.454  0.7221  0.1652  1.4321
  768MOL0     C 3611   5.958   9.403   2.941  0.4793 -0.7436 -0.1405
  768MOL0     C 3612   5.835   9.350   2.905 -1.2525 -0.7409  0.0479
  768MOL0     H 3613   5.675   9.058   2.417 -1.2726 -0.6962 -3.4390
  768MOL0     H 3614   5.506   8.903   2.333 -0.6064  1.2442 -0.8176
  768MOL0     H 3615   5.310   8.715   2.598 -0.1416  0.6340  0.6283
  768MOL0     H 3616   5.155   8.799   2.567 -0.8732 -2.1559  1.2346
  768MOL0     H 3617   5.267   8.553   2.438 -0.3591  0.0204 -0.9240
  768MOL0     H 3618   5.122   8.572   2.515  0.6959  1.7416  2.2470
  768MOL0     H 3619   5.192   8.689   2.235 -0.8759 -0.7315 -0.9503
  768MOL0     H 3620   5.068   8.567   2.264  2.2234  0.4910 -1.8929
  768MOL0     H 3621   4.925   8.736   2.378  1.6994 -0.0891  0.5477
  768MOL0     H 3622   5.057   8.855   2.361 -0.4779  0.0451 -0.5170
  768MOL0     H 3623   5.044   8.805   2.092 -0.1981  1.9302 -1.1380
  768MOL0     H 3624   4.897   8.729   2.139  0.6746 -1.0492  0.2695
  768MOL0     H 3625   4.992   9.022   2.172  0.3749 -1.9786  0.5344
  768MOL0     H 3626   4.870   8.958   2.055 -2.0008 -0.5387  1.1832
  768MOL0     H 3627   4.871   9.013   2.355  1.6935  0.5150 -1.4607
  768MOL0     H 3628   4.775   9.103   2.237  0.0363 -0.1530 -0.9495
  768MOL0     H 3629   4.730   8.807   2.303 -1.4315  0.0058  1.3997
  768MOL0     H 3630   4.643   8.921   2.183  0.5196 -0.3069 -0.0617
  768MOL0     H 3631   4.741   9.031   2.547 -1.7733  2.3126 -0.4023
  768MOL0     H 3632   4.498   8.931   2.785  1.6051  0.5083  0.9371
  768MOL0     H 3633   4.639   9.028   2.771  0.6169 -2.7721 -1.6378
  768MOL0     H 3634   4.424   9.157   2.877  3.2061  1.5672  1.2620
  768MOL0     H 3635   4.358   9.137   2.707  1.9858  0.8313 -2.1986
  768MOL0     H 3636   4.508   9.297   2.640  1.7921 -1.4484  0.2709
  768MOL0     H 3637   4.609   9.254   2.781  0.3816  0.3488  0.6075
  768MOL0     H 3638   4.511   9.480   2.796 -0.1938  1.1686  5.2090
  768MOL0     H 3639   4.462   9.379   2.919  1.8615  1.1821 -0.5405
  768MOL0     H 3640   4.379   9.574   2.983 -0.4558  1.6732  1.4467
  768MOL0     H 3641   4.279   9.891   3.047 -2.7111 -0.1063 -0.6963
  768MOL0     H 3642   4.170   9.783   3.129 -1.9217 -2.4887 -1.5547
  768MOL0     H 3643   4.348   9.742   3.115 -0.5579 -0.5266  0.5542
  768MOL0     H 3644   3.734   9.985   2.694  2.0580 -2.7516  1.2221
  768MOL0     H 3645   3.636  10.198   2.698  1.1750 -1.0926 -2.3344
  768MOL0     H 3646   3.768  10.396   3.000 -1.5019 -0.6445 -0.7630
  768MOL0     H 3647   3.861  10.530   2.926  1.1477 -3.4460 -0.9049
  768MOL0     H 3648   3.690  10.642   3.045 -0.3727  0.3143  0.0318
  768MOL0     H 3649   3.636  10.640   2.875  0.1592  0.5722  0.4807
  768MOL0     H 3650   3.464  10.595   3.056  2.6411  0.0020  2.2044
  768MOL0     H 3651   3.550  10.447   3.100 -2.4037  1.4049  1.9413
  768MOL0     H 3652   3.427  10.477   2.816  1.9094 -2.2455 -0.5475
  768MOL0     H 3653   3.478  10.343   2.904  0.8693  0.4204  0.5542
  768MOL0     H 3654   3.226  10.368   2.902  0.2303 -1.3868 -0.0566
  768MOL0     H 3655   3.240  10.532   2.970 -0.8359 -0.7787  3.1154
  768MOL0     H 3656   3.340  10.281   3.099  0.8334  0.1648  1.0501
  768MOL0     H 3657   3.325  10.450   3.177  0.5185 -0.5827 -0.4001
  768MOL0     H 3658   3.090  10.276   3.080  1.6803  2.2253 -2.1560
  768MOL0     H 3659   3.080  10.445   3.132  1.1378  1.3172  0.9495
  768MOL0     H 3660   3.086  10.368   3.351 -2.1971 -0.8328 -0.0439
  768MOL0     H 3661   3.218  10.251   3.308  0.6750  0.7611 -0.7970
  768MOL0     H 3662   3.987  10.382   2.856 -1.7976  0.7234  0.7156
  768MOL0     H 3663   4.105  10.161   2.838  0.3258 -0.5766 -1.2660
  768MOL0     H 3664   3.982   9.684   2.709 -0.1694 -0.2284  1.3047
  768MOL0     H 3665   4.095   9.480   2.666  0.4041  1.2077 -1.5070
  768MOL0     H 3666   5.234   9.023   2.644  1.4459  1.7751  4.2688
  768MOL0     H 3667   5.401   9.179   2.726  1.8963  0.9732 -0.4001
  768MOL0     H 3668   5.890   9.309   2.569  3.0596 -0.7788 -1.4695
  768MOL0     H 3669   6.092   9.371   2.625 -0.1708 -1.1441 -0.2490
  768MOL0     H 3670   6.378   9.488   2.841 -0.6203 -2.2060  2.4204
  768MOL0     H 3671   6.292   9.417   2.711 -1.2984 -1.2393  2.6119
  768MOL0     H 3672   6.254   9.714   2.802 -4.5726  0.4975 -1.1173
  768MOL0     H 3673   6.191   9.634   2.650  0.1314 -0.0353  1.1388
  768MOL0     H 3674   6.428   9.590   2.587  0.6461  1.1984 -0.2659
  768MOL0     H 3675   6.488   9.677   2.725  1.0875 -0.9886 -0.3088
  768MOL0     H 3676   6.387   9.881   2.667  0.3917 -2.6685  1.6523
  768MOL0     H 3677   6.312   9.810   2.521  0.9284 -2.0749 -2.3180
  768MOL0     H 3678   6.696   9.920   2.388 -1.3925  1.6230 -0.3239
  768MOL0     H 3679   5.993   9.431   3.040  0.9191 -1.9955  0.0815
  768MOL0     H 3680   5.773   9.333   2.992  1.3500 -1.1780  1.9661
  769MOL0     O 3681  11.088   7.220   5.170 -0.9283 -0.9209 -0.3168
  769MOL0     C 3682  11.107   7.169   5.282  0.5259  0.8610  0.4377
  769MOL0     O 3683  11.011   7.102   5.355 -0.2565 -0.3643 -0.2463
  769MOL0     C 3684  10.883   7.099   5.303 -0.1581 -0.1166 -0.0346
  769MOL0     C 3685  10.821   6.971   5.289  0.2618  0.7639 -0.9554
  769MOL0     C 3686  10.683   6.959   5.268 -0.4807  0.7368 -0.2633
  769MOL0     C 3687  10.608   7.080   5.243  0.3980 -0.2155 -0.1478
  769MOL0     O 3688  10.473   7.079   5.229 -0.0911 -0.2211  0.5693
  769MOL0     C 3689  10.396   6.958   5.243 -0.4593  0.3533 -0.0151
  769MOL0     C 3690  10.244   7.007   5.248 -0.5080  1.1027 -0.3266
  769MOL0     C 3691  10.149   6.887   5.283 -0.4685 -0.1440 -1.0277
  769MOL0     C 3692  10.013   6.920   5.214 -0.4146 -1.0186  0.1657
  769MOL0     C 3693   9.894   6.840   5.271  0.4248 -0.0548 -0.3212
  769MOL0     C 3694   9.774   6.833   5.180  0.8535 -0.0854  1.2239
  769MOL0     C 3695   9.762   6.701   5.096  0.5828 -1.2139  0.1398
  769MOL0     C 3696   9.683   6.712   4.969  0.4250  0.0486 -0.1572
  769MOL0     N 3697   9.555   6.778   5.002 -0.5273 -0.6436 -0.5448
  769MOL0     C 3698   9.452   6.737   5.078  0.3006  0.6611 -0.0537
  769MOL0     C 3699   9.371   6.845   5.092 -0.4200 -0.4457  0.0352
  769MOL0     C 3700   9.233   6.837   5.160 -0.0891 -0.5793 -0.2950
  769MOL0     C 3701   9.116   6.897   5.073  0.7999 -0.0453 -0.6574
  769MOL0     C 3702   9.108   6.812   4.945  0.1947  0.0017  0.3996
  769MOL0     C 3703   9.005   6.868   4.848  0.3253 -1.4283 -0.6294
  769MOL0     O 3704   8.877   6.860   4.919  0.1291  0.7947  0.1335
  769MOL0     C 3705   8.763   6.883   4.856  0.1457  0.8753  0.3935
  769MOL0     C 3706   8.749   6.924   4.725  1.1085  0.3580 -0.8018
  769MOL0     C 3707   8.624   6.960   4.663 -0.6458  0.6366 -0.3428
  769MOL0     C 3708   8.622   6.980   4.513 -0.3877 -0.4127 -0.0629
  769MOL0     C 3709   8.506   6.952   4.747 -0.0888 -0.7189 -0.2265
  769MOL0     C 3710   8.363   6.979   4.704 -0.2668 -0.6010 -0.3430
  769MOL0     O 3711   8.257   6.968   4.796 -0.7010  0.4391 -0.5380
  769MOL0     C 3712   8.131   7.002   4.756  0.1662 -0.5934  0.3193
  769MOL0     C 3713   8.038   6.897   4.770  0.6133 -0.5420 -0.7019
  769MOL0     C 3714   7.914   6.909   4.718  0.6424  0.3141  0.3983
  769MOL0     C 3715   7.866   7.029   4.669  0.1125 -0.7849 -0.2221
  769MOL0     O 3716   7.738   7.033   4.631  0.3687  0.1321  0.2809
  769MOL0     C 3717   7.684   7.158   4.615  0.6750  0.4530  0.7799
  769MOL0     C 3718   7.525   7.142   4.599 -0.8864  0.3523 -1.1420
  769MOL0     C 3719   7.487   7.177   4.454 -0.1662  0.2806  1.4380
  769MOL0     C 3720   7.343   7.167   4.410  0.4640  0.7282 -0.1308
  769MOL0     C 3721   7.269   7.281   4.470 -0.4784  0.5651  0.6960
  769MOL0     C 3722   7.301   7.414   4.408 -0.3722 -0.0388  0.4825
  769MOL0     C 3723   7.207   7.536   4.428 -0.2758 -0.4311 -0.5623
  769MOL0     C 3724   7.071   7.514   4.359 -0.0278  0.6795  0.0761
  769MOL0    Cl 3725   7.098   7.586   4.197 -0.2097  0.3142  0.4295
  769MOL0     C 3726   7.967   7.127   4.642 -0.1398 -0.0348 -0.4525
  769MOL0     C 3727   8.097   7.116   4.691 -0.4269  0.2653  1.0419
  769MOL0     O 3728   8.353   7.001   4.587  0.4220 -0.9314  0.1824
  769MOL0     C 3729   8.522   6.909   4.880 -0.6343 -0.0615  1.0670
  769MOL0     C 3730   8.648   6.878   4.935  0.2035  0.0349  0.1606
  769MOL0     N 3731   9.428   6.952   5.019  0.9990 -0.5448 -0.1869
  769MOL0     N 3732   9.541   6.913   4.963  0.0934  0.3370 -0.1198
  769MOL0     C 3733  10.671   7.206   5.256  0.3284 -0.1134  0.1972
  769MOL0     C 3734  10.800   7.213   5.280 -0.2107  0.0491 -0.9919
  769MOL0     C 3735  11.253   7.150   5.326  0.5027 -0.7026  1.1909
  769MOL0     C 3736  11.349   7.145   5.218  0.2534 -0.4707  0.7730
  769MOL0     C 3737  11.477   7.111   5.242 -0.3129 -0.1570 -0.6065
  769MOL0     C 3738  11.524   7.104   5.372 -0.2423 -0.1450 -0.2719
  769MOL0     O 3739  11.656   7.081   5.397  0.0988 -0.3289 -0.6819
  769MOL0     C 3740  11.751   7.039   5.303 -0.4813  0.2333  0.5597
  769MOL0     C 3741  11.894   7.096   5.342  0.2895 -0.9157 -0.9742
  769MOL0     C 3742  11.943   7.016   5.464  0.5651 -0.2993  0.3737
  769MOL0     C 3743  12.076   7.064   5.517  0.4074 -0.4197 -0.5752
  769MOL0     C 3744  12.120   6.978   5.635  0.1366  0.1777  0.8230
  769MOL0     C 3745  12.164   6.902   5.722  0.1449 -0.2425 -0.1429
  769MOL0     C 3746  11.433   7.109   5.477 -0.4313 -0.1887 -0.5064
  769MOL0     C 3747  11.299   7.134   5.456 -0.5631 -1.5963 -0.5237
  769MOL0     H 3748  10.887   6.885   5.296  1.1315  1.1169 -3.6401
  769MOL0     H 3749  10.633   6.864   5.258 -0.7984  0.6027  2.0521
  769MOL0     H 3750  10.413   6.889   5.160 -0.9300  0.5543 -0.2864
  769MOL0     H 3751  10.431   6.911   5.335 -2.2715 -1.8474 -0.3645
  769MOL0     H 3752  10.238   7.083   5.327 -1.7920  0.9194 -0.2282
  769MOL0     H 3753  10.221   7.050   5.150 -0.3153 -0.5445 -1.1239
  769MOL0     H 3754  10.187   6.792   5.247 -0.1380 -0.4085  0.0061
  769MOL0     H 3755  10.135   6.889   5.392  0.1801  0.0205 -0.9429
  769MOL0     H 3756   9.983   7.024   5.225  0.7803 -0.2483 -2.9740
  769MOL0     H 3757  10.031   6.887   5.112  0.3519 -1.7396  0.5127
  769MOL0     H 3758   9.938   6.744   5.301  1.6636  0.5494 -0.1505
  769MOL0     H 3759   9.858   6.882   5.365  1.4516 -2.5980  1.3125
  769MOL0     H 3760   9.682   6.852   5.237  0.8833  0.5792  1.0626
  769MOL0     H 3761   9.774   6.924   5.119 -0.2372 -0.7720  0.1624
  769MOL0     H 3762   9.865   6.673   5.069  1.4581  1.4794  0.3629
  769MOL0     H 3763   9.721   6.625   5.162  1.6062  0.4059  2.8235
  769MOL0     H 3764   9.673   6.608   4.938  6.1658 -0.7159 -0.5653
  769MOL0     H 3765   9.728   6.771   4.888 -0.1253  0.9743  0.2014
  769MOL0     H 3766   9.416   6.638   5.105 -0.8920  0.9394 -0.5744
  769MOL0     H 3767   9.206   6.738   5.198 -2.0604 -0.6595 -1.7026
  769MOL0     H 3768   9.235   6.903   5.247 -1.1847 -2.0593  0.8978
  769MOL0     H 3769   9.140   7.000   5.045  1.3184  0.5667  1.7802
  769MOL0     H 3770   9.024   6.906   5.131  1.7602 -2.4306  1.4157
  769MOL0     H 3771   9.083   6.712   4.981  1.9249  0.5188  3.3689
  769MOL0     H 3772   9.204   6.810   4.892 -0.8251 -0.0399 -1.5482
  769MOL0     H 3773   8.993   6.805   4.759 -2.7253 -5.6000  2.3315
  769MOL0     H 3774   9.028   6.971   4.819 -1.4886 -0.1201  2.1254
  769MOL0     H 3775   8.829   6.934   4.653  0.8877 -1.2142 -1.3134
  769MOL0     H 3776   8.562   7.068   4.489  0.1707  0.1276  0.5303
  769MOL0     H 3777   8.723   6.987   4.471 -0.2168  0.3447  0.4519
  769MOL0     H 3778   8.579   6.894   4.460  0.8849 -0.6896 -0.6848
  769MOL0     H 3779   8.062   6.805   4.822  0.6727  0.2439  0.6824
  769MOL0     H 3780   7.849   6.822   4.718 -1.1050  1.5343  1.9040
  769MOL0     H 3781   7.702   7.222   4.702  2.0748 -0.6110  1.3081
  769MOL0     H 3782   7.723   7.197   4.520  0.0435  1.2713  0.8414
  769MOL0     H 3783   7.490   7.040   4.620 -3.3685  1.5728  1.2707
  769MOL0     H 3784   7.469   7.209   4.665 -1.7126  0.9928 -2.4708
  769MOL0     H 3785   7.535   7.104   4.388 -1.2095  2.1793 -1.6325
  769MOL0     H 3786   7.522   7.277   4.427 -0.1020  0.2789  1.5179
  769MOL0     H 3787   7.326   7.169   4.302 -0.6925  0.4922  0.0289
  769MOL0     H 3788   7.300   7.072   4.444  0.4069 -0.3244 -2.9215
  769MOL0     H 3789   7.298   7.281   4.576 -0.1417  0.5702  0.6038
  769MOL0     H 3790   7.163   7.255   4.461 -0.1298 -0.8489  0.5114
  769MOL0     H 3791   7.403   7.442   4.437 -0.8652  0.3904  1.8598
  769MOL0     H 3792   7.305   7.389   4.301 -1.1481  2.2072 -0.1168
  769MOL0     H 3793   7.251   7.629   4.392 -0.0100  0.3285  1.5574
  769MOL0     H 3794   7.200   7.540   4.537 -0.5942 -0.0259 -0.5973
  769MOL0     H 3795   6.997   7.576   4.410 -0.4983 -0.6660  1.0956
  769MOL0     H 3796   7.051   7.407   4.351 -0.1058  0.7866 -1.6376
  769MOL0     H 3797   7.932   7.214   4.588 -4.3702 -1.3630 -0.2055
  769MOL0     H 3798   8.171   7.193   4.674 -1.1554  1.1122  1.5990
  769MOL0     H 3799   8.450   6.898   4.960 -0.0897  0.4229  1.6406
  769MOL0     H 3800   8.654   6.843   5.038  0.5320 -0.7016 -0.0995
  769MOL0     H 3801  10.622   7.303   5.258 -2.8505 -1.4874 -2.0008
  769MOL0     H 3802  10.849   7.307   5.305  0.3464 -0.6996  0.9192
  769MOL0     H 3803  11.318   7.160   5.115 -0.1184  1.8596  1.1758
  769MOL0     H 3804  11.537   7.082   5.156  0.3520  0.1227 -0.2409
  769MOL0     H 3805  11.762   6.930   5.303  2.2094  0.4345  0.5266
  769MOL0     H 3806  11.750   7.075   5.200  2.0273  2.9407  1.3489
  769MOL0     H 3807  11.870   7.198   5.374 -1.7370 -1.4929 -0.4419
  769MOL0     H 3808  11.960   7.097   5.255 -0.3982 -2.0840 -1.5397
  769MOL0     H 3809  11.946   6.907   5.451 -0.6978 -0.1819 -1.2879
  769MOL0     H 3810  11.858   7.019   5.532 -1.0521 -3.2978 -1.2942
  769MOL0     H 3811  12.071   7.170   5.541  2.2364 -0.5747  0.7566
  769MOL0     H 3812  12.157   7.053   5.445  0.1604 -1.7069 -0.6780
  769MOL0     H 3813  12.185   6.843   5.809 -0.4157 -0.3787 -0.0964
  769MOL0     H 3814  11.472   7.080   5.574  1.5319 -0.2117 -1.2562
  769MOL0     H 3815  11.233   7.122   5.542 -1.6600 -3.5039 -1.5603
  770MOL0     O 3816   3.643  11.009   8.308  0.6048 -0.2420 -0.5428
  770MOL0     C 3817   3.530  11.026   8.356  0.1667 -0.3304 -0.5785
  770MOL0     O 3818   3.479  11.145   8.406  0.1342 -0.6018  0.6102
  770MOL0     C 3819   3.556  11.253   8.392 -0.4856 -0.3602 -0.4482
  770MOL0     C 3820   3.508  11.366   8.337  0.2386 -0.4923  0.6108
  770MOL0     C 3821   3.587  11.478   8.346  0.1543 -1.1121  0.6664
  770MOL0     C 3822   3.715  11.490   8.406 -0.7773  0.1091  0.3665
  770MOL0     O 3823   3.791  11.609   8.413 -0.5322 -0.5623  0.3833
  770MOL0     C 3824   3.880  11.619   8.302  0.0647 -0.7195 -0.3379
  770MOL0     C 3825   3.937  11.757   8.291  0.3716  0.1870 -0.1040
  770MOL0     C 3826   4.045  11.763   8.169 -0.2969 -0.1470 -0.1410
  770MOL0     C 3827   4.178  11.695   8.227  0.4949  0.3189  0.9565
  770MOL0     C 3828   4.288  11.746   8.129  0.6614  0.4370 -0.1450
  770MOL0     C 3829   4.412  11.674   8.167  0.1709  0.3540 -0.2720
  770MOL0     C 3830   4.536  11.718   8.091 -0.3330 -0.2140  0.8109
  770MOL0     C 3831   4.662  11.628   8.115  0.0536  0.6284 -0.4313
  770MOL0     N 3832   4.738  11.654   8.241 -0.3480  0.7652 -0.3094
  770MOL0     C 3833   4.694  11.641   8.368  0.0771 -0.3013 -0.0651
  770MOL0     C 3834   4.755  11.737   8.440 -0.3386 -0.8388  0.1153
  770MOL0     C 3835   4.725  11.758   8.586  0.0190  0.3668  0.4063
  770MOL0     C 3836   4.795  11.647   8.653 -0.9767 -0.8515 -0.4639
  770MOL0     C 3837   4.809  11.675   8.809 -1.0633 -0.1080  1.0397
  770MOL0     C 3838   4.675  11.730   8.870 -0.2009 -0.7699 -0.2602
  770MOL0     O 3839   4.589  11.619   8.863  0.4609  0.3522 -0.1761
  770MOL0     C 3840   4.476  11.628   8.941 -0.1122  0.2701  0.3041
  770MOL0     C 3841   4.416  11.747   8.977 -0.5639  0.3380 -0.2547
  770MOL0     C 3842   4.311  11.756   9.057  0.2582  0.5878  0.6366
  770MOL0     C 3843   4.271  11.894   9.095 -0.3290 -0.0578 -0.5694
  770MOL0     C 3844   4.236  11.635   9.080 -0.2371  0.3331 -0.3450
  770MOL0     C 3845   4.106  11.623   9.151  0.0566  0.2761 -0.2295
  770MOL0     O 3846   4.051  11.496   9.152 -0.5425  0.3569 -0.8147
  770MOL0     C 3847   3.917  11.475   9.168  0.4578 -0.4213 -0.4652
  770MOL0     C 3848   3.822  11.567   9.132  0.0123  0.0714 -0.2049
  770MOL0     C 3849   3.687  11.557   9.152  0.8025 -0.1033 -0.3930
  770MOL0     C 3850   3.635  11.432   9.212 -0.3723 -0.1048  0.1697
  770MOL0     O 3851   3.511  11.402   9.232  0.0605 -0.2823  0.2958
  770MOL0     C 3852   3.416  11.494   9.178  0.1675 -0.2604 -0.2710
  770MOL0     C 3853   3.263  11.433   9.172 -0.7165 -0.6648 -0.3853
  770MOL0     C 3854   3.218  11.377   9.312 -0.7652  1.2907 -0.0547
  770MOL0     C 3855   3.062  11.385   9.312 -0.3928  0.0032  0.2649
  770MOL0     C 3856   3.008  11.316   9.438 -0.1501  0.1553 -0.5949
  770MOL0     C 3857   2.859  11.321   9.449  0.4953  0.0724  0.3500
  770MOL0     C 3858   2.796  11.449   9.488  0.9822 -0.5466  0.2572
  770MOL0     C 3859   2.666  11.438   9.563  0.0921 -0.7143  0.3651
  770MOL0    Cl 3860   2.541  11.381   9.444 -0.5929 -0.5022  0.0495
  770MOL0     C 3861   3.736  11.333   9.238  0.0387 -0.8632 -0.8303
  770MOL0     C 3862   3.872  11.354   9.218 -0.4826 -0.0514  0.2110
  770MOL0     O 3863   4.055  11.730   9.197  0.0836 -0.0501  0.2352
  770MOL0     C 3864   4.295  11.513   9.042  0.0162 -0.5548  0.3142
  770MOL0     C 3865   4.418  11.510   8.980  0.4093  0.0725 -0.4059
  770MOL0     N 3866   4.844  11.800   8.356  0.0830 -0.4694 -0.1947
  770MOL0     N 3867   4.842  11.741   8.242  0.3602 -0.3700 -0.4580
  770MOL0     C 3868   3.757  11.377   8.465 -0.1231  0.0011  0.1006
  770MOL0     C 3869   3.681  11.257   8.465 -0.2563  0.6371 -0.2237
  770MOL0     C 3870   3.445  10.912   8.362  0.4519  0.0085  1.2835
  770MOL0     C 3871   3.496  10.779   8.386  0.4394  0.2104  0.2907
  770MOL0     C 3872   3.402  10.677   8.407  0.4572  0.1108 -0.8969
  770MOL0     C 3873   3.263  10.697   8.395 -0.8265 -0.6145  0.1572
  770MOL0     O 3874   3.157  10.613   8.410  0.5865  0.3505 -0.0207
  770MOL0     C 3875   3.177  10.475   8.431 -0.5243  0.0213 -0.4259
  770MOL0     C 3876   3.181  10.441   8.580  0.3549  1.2005 -0.3722
  770MOL0     C 3877   3.034  10.464   8.645 -0.7795  0.4317 -0.2880
  770MOL0     C 3878   3.045  10.440   8.797 -0.4437 -0.5389  0.0917
  770MOL0     C 3879   2.915  10.484   8.860 -0.6495  0.1951  0.7046
  770MOL0     C 3880   2.803  10.523   8.904 -0.8282  0.1927 -0.3245
  770MOL0     C 3881   3.216  10.824   8.355  0.4743 -0.0354 -1.4132
  770MOL0     C 3882   3.306  10.927   8.344  0.2422 -0.0252  0.6393
  770MOL0     H 3883   3.409  11.380   8.294 -0.4117  3.1694  2.8418
  770MOL0     H 3884   3.528  11.567   8.323  1.2985 -0.6347 -0.5542
  770MOL0     H 3885   3.957  11.541   8.304  2.4178  1.4695 -0.6185
  770MOL0     H 3886   3.830  11.600   8.207  2.0720  0.6546 -1.7604
  770MOL0     H 3887   3.855  11.825   8.266 -1.3990 -1.6009  0.5606
  770MOL0     H 3888   3.989  11.780   8.385 -0.0036 -1.0359  0.4170
  770MOL0     H 3889   4.008  11.703   8.086 -2.0601 -0.6373  0.9536
  770MOL0     H 3890   4.057  11.865   8.130 -3.8938  0.6259  0.4345
  770MOL0     H 3891   4.186  11.711   8.335 -3.5535  0.3473  1.3896
  770MOL0     H 3892   4.161  11.587   8.216  0.1254  0.1707  2.5921
  770MOL0     H 3893   4.256  11.708   8.031 -1.7465  1.5660  0.1265
  770MOL0     H 3894   4.291  11.855   8.135  2.6148  0.4209 -0.3060
  770MOL0     H 3895   4.435  11.677   8.274  2.6389 -0.1972 -0.7167
  770MOL0     H 3896   4.395  11.568   8.144  1.9415  0.1296 -0.6478
  770MOL0     H 3897   4.510  11.710   7.985  0.2730 -0.3412  0.6702
  770MOL0     H 3898   4.548  11.825   8.110 -3.7733  0.0985  2.0362
  770MOL0     H 3899   4.729  11.647   8.032  1.8919 -1.0416  0.5849
  770MOL0     H 3900   4.619  11.527   8.112 -0.6088  0.8523 -5.0170
  770MOL0     H 3901   4.615  11.580   8.410 -0.0204 -0.5763 -0.6362
  770MOL0     H 3902   4.773  11.851   8.619 -1.6408  0.2929  3.3390
  770MOL0     H 3903   4.618  11.757   8.609  0.0074 -2.1700  0.5380
  770MOL0     H 3904   4.900  11.629   8.626 -0.4052 -0.7505  1.5094
  770MOL0     H 3905   4.732  11.558   8.644 -3.1288  0.6016 -0.5846
  770MOL0     H 3906   4.887  11.751   8.825 -0.2567  0.0375 -2.6484
  770MOL0     H 3907   4.839  11.581   8.857 -0.2386  1.5332  4.0450
  770MOL0     H 3908   4.642  11.819   8.816  0.4878  0.1989  0.8673
  770MOL0     H 3909   4.696  11.761   8.972  2.0916  2.4738 -1.5365
  770MOL0     H 3910   4.463  11.833   8.930 -0.3050  0.4479  0.1919
  770MOL0     H 3911   4.337  11.973   9.057 -1.4975  1.7604  0.9833
  770MOL0     H 3912   4.166  11.924   9.080 -0.5686 -0.4957  0.2239
  770MOL0     H 3913   4.285  11.899   9.203  1.2191  1.4641 -0.7910
  770MOL0     H 3914   3.852  11.651   9.070 -1.8583  2.4483  1.8623
  770MOL0     H 3915   3.612  11.631   9.128 -0.6621 -1.1602  0.6842
  770MOL0     H 3916   3.413  11.584   9.240 -2.5270 -2.2716  2.8326
  770MOL0     H 3917   3.438  11.533   9.078  3.3173  2.4250  1.2604
  770MOL0     H 3918   3.199  11.516   9.140 -0.6185  0.6911  2.5540
  770MOL0     H 3919   3.250  11.362   9.090 -0.8282  0.2419 -1.1663
  770MOL0     H 3920   3.240  11.438   9.401  1.2284  0.7706 -0.1448
  770MOL0     H 3921   3.255  11.275   9.320  0.0287  1.5663 -0.1030
  770MOL0     H 3922   3.035  11.490   9.300 -1.3795 -0.4670 -2.2935
  770MOL0     H 3923   3.034  11.328   9.223  0.7965  0.6197 -0.5287
  770MOL0     H 3924   3.046  11.376   9.521  0.4688  3.7133 -3.2107
  770MOL0     H 3925   3.035  11.211   9.424 -0.0343  0.3477 -2.0482
  770MOL0     H 3926   2.814  11.278   9.359  0.0374 -0.8772  1.0251
  770MOL0     H 3927   2.820  11.257   9.528 -0.2750  1.1921  0.8989
  770MOL0     H 3928   2.787  11.489   9.386  0.9570 -3.5054 -1.0150
  770MOL0     H 3929   2.868  11.501   9.552  0.0250 -1.1439  1.8499
  770MOL0     H 3930   2.638  11.535   9.603 -1.6016 -1.0031 -0.0629
  770MOL0     H 3931   2.676  11.377   9.653 -0.3342 -1.8135 -0.2999
  770MOL0     H 3932   3.696  11.242   9.281  0.4911 -0.7437 -0.1267
  770MOL0     H 3933   3.941  11.271   9.232 -1.4498 -0.8718  0.2233
  770MOL0     H 3934   4.252  11.413   9.045  0.0610 -0.5620  0.7390
  770MOL0     H 3935   4.460  11.417   8.944  0.4489 -0.5180  1.0683
  770MOL0     H 3936   3.857  11.371   8.507  0.4055  2.6433 -0.5767
  770MOL0     H 3937   3.719  11.180   8.532  0.3015  1.9615  1.0197
  770MOL0     H 3938   3.601  10.760   8.404  0.5509  0.3221 -0.2120
  770MOL0     H 3939   3.432  10.577   8.438  0.5954 -0.3035 -2.3024
  770MOL0     H 3940   3.101  10.421   8.373 -0.9745  0.7900 -0.5748
  770MOL0     H 3941   3.277  10.457   8.390 -0.6853  2.0568 -1.8943
  770MOL0     H 3942   3.257  10.507   8.624  4.6884 -2.3735 -1.7398
  770MOL0     H 3943   3.217  10.339   8.595  1.4367  1.5499 -0.4555
  770MOL0     H 3944   2.976  10.382   8.602  1.1382  0.0275 -2.3414
  770MOL0     H 3945   2.995  10.563   8.621  1.9208  1.2509 -1.6947
  770MOL0     H 3946   3.124  10.500   8.842 -0.6794 -1.0964  1.2778
  770MOL0     H 3947   3.049  10.335   8.824 -1.8621 -0.3386  1.1940
  770MOL0     H 3948   2.708  10.557   8.938 -1.0491 -1.3752  0.7047
  770MOL0     H 3949   3.113  10.836   8.325  0.1715 -0.7716 -0.7004
  770MOL0     H 3950   3.270  11.028   8.324  0.1985  0.5354  3.2688
  771MOL0     O 3951  10.255   2.685   8.909  0.4761  0.9090 -0.2161
  771MOL0     C 3952  10.190   2.762   8.833  0.5555 -0.1995 -0.8073
  771MOL0     O 3953  10.242   2.848   8.749 -0.4628 -0.4273  1.2829
  771MOL0     C 3954  10.376   2.839   8.728 -0.1547 -0.4449  0.8203
  771MOL0     C 3955  10.426   2.773   8.610 -0.1422  0.2407 -0.7007
  771MOL0     C 3956  10.562   2.760   8.590  0.5889 -0.0397 -0.1835
  771MOL0     C 3957  10.654   2.813   8.682 -0.0070 -0.4501  0.4322
  771MOL0     O 3958  10.790   2.800   8.651 -0.0811 -0.6584  0.3880
  771MOL0     C 3959  10.883   2.902   8.681  0.2197 -0.1165  0.1547
  771MOL0     C 3960  11.027   2.877   8.639  1.1181  0.1660 -0.2697
  771MOL0     C 3961  11.037   2.851   8.488 -0.8153  0.6693  0.0886
  771MOL0     C 3962  11.177   2.792   8.456 -0.0650 -0.4027  0.2510
  771MOL0     C 3963  11.206   2.749   8.308  0.1088 -0.2885  0.1102
  771MOL0     C 3964  11.208   2.861   8.197 -0.1504 -0.6465 -0.4588
  771MOL0     C 3965  11.346   2.937   8.210  0.6632  0.1890 -0.5851
  771MOL0     C 3966  11.342   3.066   8.134 -0.7631 -0.2808 -0.5342
  771MOL0     N 3967  11.467   3.153   8.141  0.2991 -0.5853 -0.5899
  771MOL0     C 3968  11.586   3.125   8.208  0.1329 -0.2603 -0.3535
  771MOL0     C 3969  11.672   3.223   8.157 -0.0905  0.4202 -0.2708
  771MOL0     C 3970  11.826   3.233   8.164 -1.0576 -0.0788 -0.3600
  771MOL0     C 3971  11.892   3.225   8.306 -1.0764 -0.4073  0.7256
  771MOL0     C 3972  11.837   3.337   8.390 -0.5316  0.7898 -0.3921
  771MOL0     C 3973  11.894   3.311   8.535 -0.0597  0.0493 -0.0908
  771MOL0     O 3974  11.831   3.401   8.619 -0.0594 -0.4467 -0.3068
  771MOL0     C 3975  11.883   3.389   8.745 -0.2984 -0.2618  0.3394
  771MOL0     C 3976  11.990   3.474   8.775 -0.7679  0.5754  0.5880
  771MOL0     C 3977  12.063   3.456   8.888 -0.1135 -0.6696  0.4492
  771MOL0     C 3978  12.177   3.553   8.902  1.1720 -0.5177  0.1213
  771MOL0     C 3979  12.026   3.364   8.991 -0.4174  1.2994  0.5234
  771MOL0     C 3980  12.102   3.353   9.118 -0.2123  0.2577  0.3453
  771MOL0     O 3981  12.026   3.312   9.219  0.2298  0.1442 -0.0326
  771MOL0     C 3982  12.075   3.286   9.340 -0.0691 -0.0324 -0.6796
  771MOL0     C 3983  12.022   3.344   9.461 -0.5006 -0.5162  0.3105
  771MOL0     C 3984  12.089   3.329   9.580  0.0283 -0.3903  0.1457
  771MOL0     C 3985  12.195   3.245   9.586  0.6127  0.1216 -0.2826
  771MOL0     O 3986  12.249   3.234   9.715  0.0317  0.0140  0.0224
  771MOL0     C 3987  12.363   3.159   9.750  0.4219 -0.0635  0.0717
  771MOL0     C 3988  12.394   3.163   9.899 -0.1478 -0.2164  0.2326
  771MOL0     C 3989  12.377   3.301   9.970  0.0968  0.0968 -0.2508
  771MOL0     C 3990  12.382   3.275  10.127  0.0041  0.4002  0.2046
  771MOL0     C 3991  12.345   3.396  10.207  0.0990 -0.5348 -0.4326
  771MOL0     C 3992  12.438   3.516  10.169 -0.5945  0.0659  0.1625
  771MOL0     C 3993  12.496   3.600  10.281  0.0358  0.7209  0.1884
  771MOL0     C 3994  12.394   3.694  10.344 -0.6216 -0.4829 -0.3803
  771MOL0    Cl 3995  12.290   3.600  10.470  0.0238 -0.1992 -0.0131
  771MOL0     C 3996  12.234   3.164   9.483 -0.2562 -0.3372  0.2367
  771MOL0     C 3997  12.178   3.193   9.356  0.3258 -0.7054  0.7688
  771MOL0     O 3998  12.225   3.371   9.122  0.1695  0.2792  0.2058
  771MOL0     C 3999  11.911   3.288   8.966  0.2467 -0.3238 -0.9513
  771MOL0     C 4000  11.840   3.297   8.843 -0.1577 -0.2089 -0.6202
  771MOL0     N 4001  11.599   3.300   8.065  0.1293 -0.2112  0.3855
  771MOL0     N 4002  11.483   3.251   8.055 -0.3586  0.3792  0.5049
  771MOL0     C 4003  10.610   2.890   8.790 -0.0859 -0.5541  0.2133
  771MOL0     C 4004  10.474   2.903   8.813  1.0235  0.0865 -0.2641
  771MOL0     C 4005  10.041   2.763   8.856  0.1259  0.0857 -0.6790
  771MOL0     C 4006   9.957   2.825   8.760 -0.0115  0.6739  0.5299
  771MOL0     C 4007   9.814   2.817   8.784  0.3067 -0.0900 -0.5529
  771MOL0     C 4008   9.754   2.739   8.887  0.3737  0.0560  0.3802
  771MOL0     O 4009   9.618   2.721   8.911 -0.6408 -0.4754 -0.2309
  771MOL0     C 4010   9.521   2.783   8.826 -0.4913 -0.1683  0.4650
  771MOL0     C 4011   9.386   2.738   8.882 -0.0072  0.4660 -0.1245
  771MOL0     C 4012   9.374   2.795   9.029 -0.1139 -0.2296  0.3109
  771MOL0     C 4013   9.253   2.724   9.097 -0.9144 -0.8790 -0.0731
  771MOL0     C 4014   9.125   2.758   9.044 -0.6669 -0.4781 -0.5795
  771MOL0     C 4015   9.025   2.792   8.972  0.1671  0.7188 -0.1181
  771MOL0     C 4016   9.844   2.682   8.979  0.7570  0.6146 -1.0702
  771MOL0     C 4017   9.980   2.698   8.966  0.3747  0.5888 -0.1150
  771MOL0     H 4018  10.353   2.718   8.551 -0.9036 -0.4297  0.8366
  771MOL0     H 4019  10.592   2.722   8.493  2.6829 -0.6622  0.6605
  771MOL0     H 4020  10.850   2.983   8.615  1.0707 -1.5837 -2.2279
  771MOL0     H 4021  10.880   2.935   8.785  0.1439 -2.3334  0.9002
  771MOL0     H 4022  11.095   2.958   8.669  0.8056  0.2491  0.2436
  771MOL0     H 4023  11.050   2.790   8.702 -1.6026 -0.1908  0.3560
  771MOL0     H 4024  10.957   2.782   8.459 -0.6141 -0.6787  2.4627
  771MOL0     H 4025  11.020   2.943   8.431  0.0276 -0.0151 -1.3088
  771MOL0     H 4026  11.256   2.866   8.473 -0.6293  1.9292 -5.2942
  771MOL0     H 4027  11.191   2.697   8.508 -1.7834 -1.7294 -1.5546
  771MOL0     H 4028  11.304   2.701   8.299  0.7843  1.0624 -0.0791
  771MOL0     H 4029  11.132   2.671   8.290 -1.4555  0.7678  1.5849
  771MOL0     H 4030  11.195   2.823   8.095  0.9344 -0.1198 -0.8114
  771MOL0     H 4031  11.124   2.927   8.221  0.1049  0.1938 -1.7488
  771MOL0     H 4032  11.367   2.969   8.312 -1.3233 -0.5525  0.1176
  771MOL0     H 4033  11.431   2.872   8.188 -0.2337 -0.3796 -2.7026
  771MOL0     H 4034  11.261   3.129   8.171  0.1913  0.9336 -0.4338
  771MOL0     H 4035  11.318   3.048   8.029 -1.5193 -0.7924 -0.2739
  771MOL0     H 4036  11.612   3.043   8.275 -0.9463  0.5115  1.0583
  771MOL0     H 4037  11.866   3.148   8.109 -1.3239 -0.7512  0.4661
  771MOL0     H 4038  11.854   3.323   8.107 -2.2828  0.3491 -0.3135
  771MOL0     H 4039  11.999   3.237   8.289 -1.0253  0.7104  1.6938
  771MOL0     H 4040  11.870   3.126   8.348 -0.4787 -1.0225 -0.3745
  771MOL0     H 4041  11.728   3.323   8.392 -0.5341  0.6203 -1.4103
  771MOL0     H 4042  11.861   3.436   8.350  2.2420 -1.0745 -3.9853
  771MOL0     H 4043  12.003   3.323   8.537 -0.1557  1.6675 -2.0580
  771MOL0     H 4044  11.861   3.210   8.562  1.2859 -0.5514 -0.6095
  771MOL0     H 4045  12.024   3.545   8.701  2.0910 -0.6864  0.5555
  771MOL0     H 4046  12.150   3.621   8.984  2.2049 -0.2859  0.2727
  771MOL0     H 4047  12.272   3.510   8.934 -1.1146 -4.5388  2.5270
  771MOL0     H 4048  12.191   3.619   8.816  1.8361  1.2752  1.5551
  771MOL0     H 4049  11.943   3.418   9.462  1.7517  2.0577 -0.6332
  771MOL0     H 4050  12.044   3.369   9.670  1.4968 -0.9264  1.1721
  771MOL0     H 4051  12.347   3.055   9.720  0.8635 -1.3795  3.9153
  771MOL0     H 4052  12.443   3.203   9.690 -0.9238 -0.2035 -1.9208
  771MOL0     H 4053  12.329   3.090   9.947 -0.7541  0.9729  1.3011
  771MOL0     H 4054  12.499   3.139   9.915 -0.1467 -0.1486  0.3323
  771MOL0     H 4055  12.274   3.331   9.948 -0.3574  1.1809  2.8505
  771MOL0     H 4056  12.449   3.373   9.930 -0.9988  1.0088 -0.6261
  771MOL0     H 4057  12.315   3.198  10.166 -0.9415  0.0530 -1.9718
  771MOL0     H 4058  12.480   3.242  10.162  0.7432  2.7333  0.4873
  771MOL0     H 4059  12.358   3.371  10.313 -0.9301 -0.6715 -0.3200
  771MOL0     H 4060  12.241   3.422  10.184  0.6569  1.9978 -0.4481
  771MOL0     H 4061  12.521   3.470  10.113 -2.4056 -3.0276 -0.2144
  771MOL0     H 4062  12.389   3.580  10.096  1.3925  0.0553 -1.2761
  771MOL0     H 4063  12.567   3.675  10.243 -0.9482  2.5761  1.8230
  771MOL0     H 4064  12.542   3.544  10.363 -1.0270 -0.1975  0.1739
  771MOL0     H 4065  12.330   3.735  10.265 -0.0519 -0.6363 -0.9262
  771MOL0     H 4066  12.448   3.770  10.400  1.1859 -0.9257 -1.4436
  771MOL0     H 4067  12.320   3.098   9.483  2.9188  3.4243 -0.8686
  771MOL0     H 4068  12.227   3.145   9.272  1.1328 -1.1973  1.4992
  771MOL0     H 4069  11.869   3.222   9.041 -0.7899 -2.2266 -3.0763
  771MOL0     H 4070  11.746   3.246   8.823  0.0864 -0.7163 -0.4977
  771MOL0     H 4071  10.672   2.915   8.875  1.5935 -0.9289 -0.8402
  771MOL0     H 4072  10.442   2.953   8.904 -0.3579 -1.0927 -0.0498
  771MOL0     H 4073   9.987   2.882   8.672 -1.0335  1.0493  0.4069
  771MOL0     H 4074   9.747   2.865   8.714 -0.1981 -0.5549 -0.3982
  771MOL0     H 4075   9.531   2.892   8.828  1.4838 -0.2910 -0.6022
  771MOL0     H 4076   9.536   2.766   8.719  1.3522  3.4848  0.0037
  771MOL0     H 4077   9.381   2.629   8.880 -0.5957  0.4113  1.9901
  771MOL0     H 4078   9.308   2.774   8.813 -0.6057  2.1252  1.3514
  771MOL0     H 4079   9.359   2.903   9.036  0.8036  0.0919 -1.8614
  771MOL0     H 4080   9.469   2.779   9.081  0.9059  1.0527 -1.0697
  771MOL0     H 4081   9.256   2.748   9.204  0.4382  2.0132 -0.6568
  771MOL0     H 4082   9.265   2.615   9.088 -0.2837 -0.6608 -2.3744
  771MOL0     H 4083   8.938   2.785   8.911 -0.5377 -0.4082  0.9685
  771MOL0     H 4084   9.793   2.624   9.055  1.4567  1.0851 -0.2135
  771MOL0     H 4085  10.035   2.652   9.048 -1.6287 -2.4143 -0.2711
  772MOL0     O 4086   5.699   0.623   9.358 -0.4072  0.6694 -0.5196
  772MOL0     C 4087   5.670   0.694   9.449  1.6001 -0.3469  0.1973
  772MOL0     O 4088   5.555   0.693   9.527  0.3888 -0.2588 -0.3088
  772MOL0     C 4089   5.460   0.592   9.530 -0.2788 -0.2784  0.0197
  772MOL0     C 4090   5.498   0.458   9.510  0.3353  0.6239 -0.0912
  772MOL0     C 4091   5.392   0.368   9.516 -0.2620  0.9907 -0.3123
  772MOL0     C 4092   5.263   0.399   9.560 -0.4411  0.2877  0.1243
  772MOL0     O 4093   5.164   0.305   9.581  0.0321 -0.2449 -0.0689
  772MOL0     C 4094   5.188   0.181   9.527 -0.1321  0.0258 -0.0503
  772MOL0     C 4095   5.076   0.080   9.552 -1.0170 -0.4880  0.8138
  772MOL0     C 4096   4.927   0.120   9.522 -0.3459  0.6280 -0.3768
  772MOL0     C 4097   4.849   0.210   9.620  0.4254  0.1928 -0.3558
  772MOL0     C 4098   4.847   0.355   9.570  0.7141 -0.7717  0.6324
  772MOL0     C 4099   4.818   0.443   9.697 -0.6365 -0.3543  0.6338
  772MOL0     C 4100   4.780   0.579   9.657  0.1797 -0.1999 -0.1156
  772MOL0     C 4101   4.775   0.661   9.786 -0.1197 -0.2762 -0.3070
  772MOL0     N 4102   4.906   0.727   9.825 -0.0483  0.2201 -0.3615
  772MOL0     C 4103   4.948   0.856   9.806  0.3866  0.2545  0.2102
  772MOL0     C 4104   5.073   0.853   9.855  0.2854 -0.3794 -0.7694
  772MOL0     C 4105   5.159   0.974   9.873  0.2746  0.0910 -0.3248
  772MOL0     C 4106   5.101   1.063   9.975 -0.3695 -1.2547  0.0442
  772MOL0     C 4107   5.156   1.210   9.968 -0.0075 -0.6475 -0.5258
  772MOL0     C 4108   5.140   1.283   9.840 -0.1221  0.1629 -0.1513
  772MOL0     O 4109   5.009   1.340   9.802 -0.5308 -0.7838  0.5287
  772MOL0     C 4110   4.926   1.249   9.747 -0.4476 -0.0299  0.3552
  772MOL0     C 4111   4.971   1.175   9.625 -0.5810 -0.2063 -0.6024
  772MOL0     C 4112   4.890   1.084   9.555 -0.4123  0.3640  0.4643
  772MOL0     C 4113   4.956   0.988   9.454 -0.5450  0.7529 -0.2183
  772MOL0     C 4114   4.750   1.071   9.598  0.4802 -0.5273  0.0884
  772MOL0     C 4115   4.651   0.976   9.536 -0.2413  0.6741 -0.9258
  772MOL0     O 4116   4.517   0.992   9.573 -0.0853 -0.2173 -1.1583
  772MOL0     C 4117   4.430   0.889   9.582  0.4670 -0.9228  1.0235
  772MOL0     C 4118   4.352   0.851   9.475  0.3234  0.2731  1.2795
  772MOL0     C 4119   4.256   0.751   9.490 -0.5542 -1.2505  0.0472
  772MOL0     C 4120   4.253   0.676   9.607 -0.3800 -0.0024  0.0550
  772MOL0     O 4121   4.181   0.563   9.617 -0.3743  0.0752  0.4153
  772MOL0     C 4122   4.064   0.549   9.538 -1.1154  0.1128  0.4477
  772MOL0     C 4123   3.983   0.432   9.591  0.1527 -0.5245 -0.2791
  772MOL0     C 4124   3.844   0.441   9.534  0.5131  0.9436 -0.2047
  772MOL0     C 4125   3.738   0.402   9.641 -0.6050  0.0256 -0.1163
  772MOL0     C 4126   3.606   0.384   9.571  0.1588  0.0069  0.3605
  772MOL0     C 4127   3.481   0.361   9.665  0.6294  0.2717  0.5496
  772MOL0     C 4128   3.355   0.329   9.585 -0.3020 -0.7732 -0.2245
  772MOL0     C 4129   3.305   0.440   9.503  0.3046 -1.0374  0.1757
  772MOL0    Cl 4130   3.145   0.389   9.463  0.2702 -0.0588  0.2891
  772MOL0     C 4131   4.327   0.718   9.717  0.0700 -0.5264  0.1543
  772MOL0     C 4132   4.414   0.826   9.705 -0.3341 -0.8888 -0.7768
  772MOL0     O 4133   4.683   0.899   9.445  0.1619  0.9565 -1.3676
  772MOL0     C 4134   4.705   1.162   9.701  0.4032  0.1662 -0.1279
  772MOL0     C 4135   4.793   1.249   9.772  0.7980  0.5682 -0.3635
  772MOL0     N 4136   5.112   0.729   9.903 -0.5449 -0.3953  0.4335
  772MOL0     N 4137   5.004   0.656   9.892 -0.1462 -0.6187  0.0533
  772MOL0     C 4138   5.238   0.527   9.593 -0.4832  0.0935 -0.0418
  772MOL0     C 4139   5.335   0.632   9.573  0.6913  0.6174  0.1260
  772MOL0     C 4140   5.752   0.813   9.484 -0.1219 -0.1138 -0.3864
  772MOL0     C 4141   5.880   0.838   9.421  0.7145 -0.6381 -0.1115
  772MOL0     C 4142   5.947   0.949   9.461 -0.1017  1.0760  0.2590
  772MOL0     C 4143   5.909   1.034   9.567  0.0563 -0.6301 -0.7349
  772MOL0     O 4144   5.976   1.150   9.606 -0.0790 -0.0426  0.1631
  772MOL0     C 4145   6.115   1.159   9.577  0.2301  0.1831 -0.2776
  772MOL0     C 4146   6.188   1.252   9.671  0.0863  0.2252 -0.4519
  772MOL0     C 4147   6.126   1.398   9.665 -0.4387  1.2354 -0.4287
  772MOL0     C 4148   6.228   1.515   9.653  0.4750  0.5466 -0.5764
  772MOL0     C 4149   6.160   1.643   9.623  0.4643 -0.1380 -0.0193
  772MOL0     C 4150   6.103   1.736   9.581 -0.5040  0.4137 -0.7536
  772MOL0     C 4151   5.783   1.006   9.629 -0.4856  0.9244 -0.2586
  772MOL0     C 4152   5.704   0.894   9.586 -0.7434 -1.0526  0.3493
  772MOL0     H 4153   5.595   0.423   9.477  0.3254  0.1486  0.3698
  772MOL0     H 4154   5.428   0.267   9.502 -0.6285  0.5536  1.6175
  772MOL0     H 4155   5.199   0.189   9.418  0.4937 -0.3551 -0.0218
  772MOL0     H 4156   5.268   0.121   9.570 -0.1080 -0.4355 -0.7130
  772MOL0     H 4157   5.098  -0.009   9.494 -0.5479 -0.4248  0.8960
  772MOL0     H 4158   5.089   0.049   9.656  1.6548  1.2325  1.0895
  772MOL0     H 4159   4.914   0.166   9.424 -2.6594 -0.4658 -0.6541
  772MOL0     H 4160   4.870   0.028   9.510 -1.9422  1.6077 -0.5668
  772MOL0     H 4161   4.749   0.167   9.618  0.2631  0.5506 -0.1187
  772MOL0     H 4162   4.892   0.202   9.720  0.7469  3.3103 -0.1493
  772MOL0     H 4163   4.939   0.389   9.521 -0.1170  1.6988  0.6619
  772MOL0     H 4164   4.777   0.359   9.486  2.9676 -2.9947 -1.5245
  772MOL0     H 4165   4.733   0.406   9.755  0.7422 -0.5167  2.6535
  772MOL0     H 4166   4.906   0.429   9.760  0.4848 -0.1169 -0.8311
  772MOL0     H 4167   4.841   0.630   9.581 -1.1074  2.2508  0.3890
  772MOL0     H 4168   4.675   0.574   9.626  0.0830  2.3103 -0.3739
  772MOL0     H 4169   4.757   0.592   9.868 -0.2820  2.0251  1.7059
  772MOL0     H 4170   4.687   0.726   9.782 -0.1321 -0.3180 -0.7309
  772MOL0     H 4171   4.889   0.931   9.755 -0.2027 -0.8543 -0.7874
  772MOL0     H 4172   5.260   0.948   9.906  0.0239 -0.4312  0.0395
  772MOL0     H 4173   5.162   1.026   9.777 -0.2924  0.4770 -0.1352
  772MOL0     H 4174   5.130   1.029  10.075  1.6515  0.5615  0.1807
  772MOL0     H 4175   4.995   1.087   9.968 -0.3738  0.7565  4.1829
  772MOL0     H 4176   5.262   1.204   9.992  0.9768  3.6692 -2.8151
  772MOL0     H 4177   5.106   1.264  10.049  2.6407  1.6639 -0.2771
  772MOL0     H 4178   5.194   1.227   9.763  0.7781  0.1588  0.4711
  772MOL0     H 4179   5.211   1.366   9.853  1.6624 -1.2176 -0.6559
  772MOL0     H 4180   5.074   1.183   9.591 -0.6385  2.1012 -0.4107
  772MOL0     H 4181   4.893   0.979   9.365 -0.9235  0.5023  0.0739
  772MOL0     H 4182   5.056   1.020   9.423 -0.7860  0.2689 -1.5896
  772MOL0     H 4183   4.960   0.889   9.500  0.2977  1.2385  0.8007
  772MOL0     H 4184   4.366   0.895   9.377 -1.3537 -0.2826  0.7538
  772MOL0     H 4185   4.199   0.729   9.401  0.6315 -0.7535 -0.8579
  772MOL0     H 4186   4.000   0.638   9.535 -0.5652  0.5544  1.4962
  772MOL0     H 4187   4.082   0.522   9.433 -4.2630 -1.7499  0.2806
  772MOL0     H 4188   4.034   0.337   9.569  0.8903  0.5817 -4.2463
  772MOL0     H 4189   3.992   0.451   9.698 -0.1571  1.7272 -0.6117
  772MOL0     H 4190   3.830   0.370   9.452  1.0546  0.6659 -0.0587
  772MOL0     H 4191   3.822   0.544   9.506 -1.5880  0.3471 -0.9730
  772MOL0     H 4192   3.771   0.312   9.692  1.7341  1.3678  0.9222
  772MOL0     H 4193   3.733   0.483   9.714 -1.2208  0.5442 -0.7187
  772MOL0     H 4194   3.619   0.298   9.505  3.3249 -0.9920  2.1024
  772MOL0     H 4195   3.584   0.476   9.517  0.4910  0.0308  0.2695
  772MOL0     H 4196   3.495   0.273   9.730 -1.1399 -2.6779 -2.7152
  772MOL0     H 4197   3.471   0.455   9.720  1.1531 -0.8272  2.6364
  772MOL0     H 4198   3.279   0.299   9.657  0.0276 -0.4249  0.2703
  772MOL0     H 4199   3.369   0.240   9.522  1.0327 -0.6120 -0.1785
  772MOL0     H 4200   3.360   0.465   9.412  0.5255 -3.5465 -0.4346
  772MOL0     H 4201   3.295   0.528   9.568 -1.4537 -2.8024  2.4666
  772MOL0     H 4202   4.302   0.669   9.811  2.5873 -2.2695 -0.0046
  772MOL0     H 4203   4.471   0.853   9.793 -0.3282 -0.2889 -0.9586
  772MOL0     H 4204   4.601   1.165   9.732  0.5315  0.5916  0.2752
  772MOL0     H 4205   4.759   1.320   9.846  1.0276 -1.9704  2.3606
  772MOL0     H 4206   5.142   0.543   9.641 -0.5230 -2.8772  1.0999
  772MOL0     H 4207   5.329   0.739   9.590 -1.2253  0.9638 -2.2504
  772MOL0     H 4208   5.916   0.781   9.337 -3.5807 -3.1018 -0.5811
  772MOL0     H 4209   6.030   0.971   9.395 -2.2745  0.7504 -2.7865
  772MOL0     H 4210   6.158   1.058   9.575 -0.6656 -0.2929  1.8485
  772MOL0     H 4211   6.124   1.191   9.473  0.2678  1.3100  0.0608
  772MOL0     H 4212   6.295   1.253   9.651  0.2813 -0.0173  0.5392
  772MOL0     H 4213   6.165   1.219   9.773 -1.8485  0.3405 -0.8150
  772MOL0     H 4214   6.053   1.414   9.745 -0.0641 -0.3034  0.2633
  772MOL0     H 4215   6.075   1.401   9.569  0.9815 -2.9611 -1.5140
  772MOL0     H 4216   6.311   1.486   9.587 -0.6046 -0.7477 -1.4314
  772MOL0     H 4217   6.260   1.517   9.757  1.9120 -1.9984 -0.8780
  772MOL0     H 4218   6.056   1.823   9.541  0.0149  1.4646  0.8509
  772MOL0     H 4219   5.745   1.069   9.708  0.3684  1.8613 -0.5651
  772MOL0     H 4220   5.605   0.893   9.630 -1.6737  1.6102 -1.4070
  773MOL0     O 4221   0.505   1.797   5.728  0.5501  0.1629 -0.3237
  773MOL0     C 4222   0.531   1.841   5.841  1.2282 -0.0780 -0.2789
  773MOL0     O 4223   0.593   1.773   5.942  0.1082  0.2336  0.1258
  773MOL0     C 4224   0.619   1.641   5.923 -0.0523 -0.5761 -0.1517
  773MOL0     C 4225   0.716   1.604   5.832 -0.3862  0.0174  0.5912
  773MOL0     C 4226   0.760   1.474   5.817 -0.1598 -0.3123  0.6913
  773MOL0     C 4227   0.704   1.374   5.898 -0.7159 -0.1269  0.1017
  773MOL0     O 4228   0.753   1.253   5.897 -0.3694  0.3829 -0.3129
  773MOL0     C 4229   0.860   1.232   5.996  0.3231  0.1279  0.0358
  773MOL0     C 4230   0.964   1.152   5.926 -0.0920  0.3838  0.8664
  773MOL0     C 4231   1.065   1.108   6.028  0.6407  0.9937  0.0073
  773MOL0     C 4232   1.184   1.038   5.960  0.2357  0.2753 -0.7576
  773MOL0     C 4233   1.273   0.988   6.066 -0.8319 -0.0845  0.5024
  773MOL0     C 4234   1.420   0.960   6.006  0.5623  0.1607  1.0854
  773MOL0     C 4235   1.507   0.899   6.112 -0.3971 -0.0897 -0.0551
  773MOL0     C 4236   1.645   0.880   6.058  0.5025  0.8186 -0.1214
  773MOL0     N 4237   1.746   0.825   6.152 -0.0467 -0.3292 -0.8640
  773MOL0     C 4238   1.777   0.690   6.160 -0.3787  0.3476 -0.6594
  773MOL0     C 4239   1.889   0.691   6.239 -0.8774  1.0519 -0.0888
  773MOL0     C 4240   1.962   0.562   6.294  0.3238 -0.1717  1.3809
  773MOL0     C 4241   1.873   0.471   6.378  0.8486 -0.5201 -1.0578
  773MOL0     C 4242   1.852   0.535   6.522 -0.3613 -0.5894  0.2142
  773MOL0     C 4243   1.742   0.639   6.541  0.5577  0.0971  0.0878
  773MOL0     O 4244   1.618   0.592   6.478 -0.3181  0.2560 -0.7855
  773MOL0     C 4245   1.497   0.667   6.470  0.1684  1.1031  0.0591
  773MOL0     C 4246   1.499   0.806   6.478  0.4874 -0.5204 -0.5988
  773MOL0     C 4247   1.382   0.883   6.448  0.4472 -0.0060  0.2836
  773MOL0     C 4248   1.387   1.036   6.470  0.3898  0.0306 -0.2234
  773MOL0     C 4249   1.266   0.809   6.419  0.7166  0.0349 -1.3887
  773MOL0     C 4250   1.133   0.869   6.390  0.1156 -0.3419  0.2423
  773MOL0     O 4251   1.022   0.788   6.393 -0.1461 -0.3430  0.2193
  773MOL0     C 4252   0.915   0.838   6.329 -0.0338 -0.7175  0.1532
  773MOL0     C 4253   0.807   0.890   6.407 -0.0869  1.0124 -0.1720
  773MOL0     C 4254   0.686   0.936   6.348  0.3626 -0.5887  0.0646
  773MOL0     C 4255   0.670   0.925   6.207 -0.4424  0.7631  0.0544
  773MOL0     O 4256   0.552   0.974   6.158 -0.3700 -0.4633 -0.5146
  773MOL0     C 4257   0.523   0.974   6.020 -0.4219  0.6376 -0.0829
  773MOL0     C 4258   0.403   1.079   6.018  0.0421  0.7951 -0.2726
  773MOL0     C 4259   0.256   1.034   6.040 -0.2380  0.8107  0.7688
  773MOL0     C 4260   0.159   1.145   6.004 -1.0937 -0.6076  0.5141
  773MOL0     C 4261   0.015   1.129   6.054  1.1694  0.1129  0.6245
  773MOL0     C 4262  -0.091   1.235   6.015  0.6689 -1.0076 -0.6758
  773MOL0     C 4263  -0.043   1.385   6.041  0.1513  0.1294  0.6097
  773MOL0     C 4264  -0.156   1.490   6.000  0.3377  0.2338 -1.0238
  773MOL0    Cl 4265  -0.261   1.523   6.144 -0.4567  0.0350  0.4286
  773MOL0     C 4266   0.771   0.872   6.126  0.4433  0.2318 -0.7432
  773MOL0     C 4267   0.893   0.829   6.191 -0.6528  0.5171  0.2663
  773MOL0     O 4268   1.123   0.985   6.345 -0.0744 -0.6838  0.3831
  773MOL0     C 4269   1.271   0.672   6.399  0.4508  1.0403 -0.1748
  773MOL0     C 4270   1.384   0.601   6.420  0.0189  0.2003  0.4746
  773MOL0     N 4271   1.918   0.820   6.274 -0.4370 -0.3812  0.8302
  773MOL0     N 4272   1.837   0.902   6.215 -1.2071  0.2772  0.0962
  773MOL0     C 4273   0.624   1.415   5.996  0.4853 -1.0287 -0.3231
  773MOL0     C 4274   0.577   1.547   6.006 -0.0688 -0.7877 -0.4891
  773MOL0     C 4275   0.508   1.984   5.866 -0.1466  0.5948  0.7071
  773MOL0     C 4276   0.423   2.073   5.797 -0.2560  0.3566  0.1675
  773MOL0     C 4277   0.392   2.196   5.847 -0.0497  0.1972  0.5678
  773MOL0     C 4278   0.453   2.242   5.966 -0.1922  0.1844  0.5098
  773MOL0     O 4279   0.428   2.361   6.021 -0.2658  0.5111  0.3720
  773MOL0     C 4280   0.329   2.456   5.962 -0.4364  0.1693  0.0900
  773MOL0     C 4281   0.395   2.543   5.859  0.6072  0.6516 -0.4097
  773MOL0     C 4282   0.341   2.678   5.827  0.7200  0.2526  0.2831
  773MOL0     C 4283   0.185   2.666   5.794  0.3311  1.5112  0.4941
  773MOL0     C 4284   0.163   2.609   5.664 -1.0693 -0.4439  0.3821
  773MOL0     C 4285   0.155   2.572   5.549 -1.0158 -0.1988 -0.0251
  773MOL0     C 4286   0.542   2.162   6.026 -1.2502  0.4012 -0.3572
  773MOL0     C 4287   0.573   2.034   5.987  0.6258  0.6042  0.6498
  773MOL0     H 4288   0.757   1.681   5.767  0.2792  1.5656  2.7270
  773MOL0     H 4289   0.837   1.446   5.747 -0.2250  1.2054 -0.0359
  773MOL0     H 4290   0.894   1.320   6.053 -0.0145  0.5075 -0.3385
  773MOL0     H 4291   0.817   1.169   6.073 -0.9104 -0.2792 -0.9563
  773MOL0     H 4292   0.926   1.063   5.875 -0.6835  1.5760 -0.8994
  773MOL0     H 4293   1.004   1.215   5.845 -0.0817 -1.9945 -1.0944
  773MOL0     H 4294   1.107   1.190   6.086  0.0464 -1.9393  5.2498
  773MOL0     H 4295   1.014   1.039   6.097  1.2754 -0.3462 -0.8172
  773MOL0     H 4296   1.152   0.955   5.896  1.5751  0.7607 -2.1280
  773MOL0     H 4297   1.232   1.108   5.891  1.6132  0.2646  0.1485
  773MOL0     H 4298   1.295   1.067   6.139  2.2078  1.0673 -1.4460
  773MOL0     H 4299   1.232   0.899   6.114  0.7925 -0.7936  0.6427
  773MOL0     H 4300   1.416   0.896   5.917  3.4723 -2.0193  2.3646
  773MOL0     H 4301   1.465   1.052   5.969 -1.5001 -0.3527 -3.3849
  773MOL0     H 4302   1.518   0.966   6.198 -1.6809 -0.9691  0.8241
  773MOL0     H 4303   1.463   0.808   6.153 -1.4829 -1.0821 -3.1960
  773MOL0     H 4304   1.679   0.983   6.043  2.7813  0.2087  0.3909
  773MOL0     H 4305   1.645   0.825   5.964  2.9449  0.1693  0.1753
  773MOL0     H 4306   1.732   0.601   6.118  1.1516 -0.4770 -0.6142
  773MOL0     H 4307   1.981   0.509   6.201  0.7079  0.5622  1.0262
  773MOL0     H 4308   2.063   0.579   6.334  0.5073 -1.2007  1.3786
  773MOL0     H 4309   1.911   0.369   6.390  2.0875  0.1635  1.3373
  773MOL0     H 4310   1.779   0.460   6.323 -0.8618 -1.7140  1.8438
  773MOL0     H 4311   1.944   0.581   6.561 -1.8680  2.6240  0.3275
  773MOL0     H 4312   1.821   0.446   6.578 -1.9466 -0.1752  0.0364
  773MOL0     H 4313   1.779   0.730   6.492 -0.1978  2.1295  2.9765
  773MOL0     H 4314   1.738   0.657   6.649  2.8353 -1.0479  0.4193
  773MOL0     H 4315   1.584   0.868   6.502 -1.0366  1.6049 -0.4798
  773MOL0     H 4316   1.330   1.071   6.557  0.9399  2.5576 -0.8067
  773MOL0     H 4317   1.491   1.063   6.491 -0.0606  0.1823  2.0803
  773MOL0     H 4318   1.349   1.093   6.385  0.3789  0.6873  0.2173
  773MOL0     H 4319   0.825   0.900   6.514 -0.8366 -1.8035  0.2909
  773MOL0     H 4320   0.605   0.986   6.400 -0.5026  0.6153 -2.3111
  773MOL0     H 4321   0.615   0.997   5.966 -0.3944  1.5761  0.3384
  773MOL0     H 4322   0.491   0.879   5.976  0.4003  0.8114 -1.0816
  773MOL0     H 4323   0.421   1.147   6.102  0.3066 -1.9580  2.0714
  773MOL0     H 4324   0.410   1.135   5.925  1.0313 -0.3048 -0.8885
  773MOL0     H 4325   0.246   1.007   6.146  0.8535  0.1110  0.7059
  773MOL0     H 4326   0.217   0.954   5.977 -4.0607  0.9621  2.6595
  773MOL0     H 4327   0.197   1.241   6.041  0.1125 -1.3104  1.1489
  773MOL0     H 4328   0.145   1.155   5.896  0.5249 -0.5006  0.3018
  773MOL0     H 4329   0.020   1.122   6.163  2.4770 -2.0567  0.4878
  773MOL0     H 4330  -0.027   1.035   6.019  0.0921  1.4920 -2.0610
  773MOL0     H 4331  -0.114   1.239   5.908  0.0145  2.2766 -0.5121
  773MOL0     H 4332  -0.181   1.215   6.075  0.4818  2.1631  0.2797
  773MOL0     H 4333   0.045   1.406   5.979 -0.8621  2.6304 -0.0948
  773MOL0     H 4334  -0.022   1.394   6.148  0.5327  0.4585  0.5114
  773MOL0     H 4335  -0.212   1.448   5.915  4.0084 -1.7176 -2.6946
  773MOL0     H 4336  -0.110   1.588   5.982  4.0932 -0.1453  4.3167
  773MOL0     H 4337   0.767   0.851   6.020  0.5467 -1.2440 -0.4746
  773MOL0     H 4338   0.962   0.762   6.140 -1.8781 -0.3361 -0.3230
  773MOL0     H 4339   1.183   0.622   6.361  1.2484 -0.0566 -0.6300
  773MOL0     H 4340   1.390   0.494   6.407 -0.1497  0.2067  0.3340
  773MOL0     H 4341   0.581   1.337   6.059 -1.9291  1.2716  1.0676
  773MOL0     H 4342   0.518   1.561   6.096  3.9155  1.9701  2.0367
  773MOL0     H 4343   0.363   2.042   5.712 -1.1082 -0.7111  1.1202
  773MOL0     H 4344   0.331   2.256   5.780  3.5133  1.0665 -2.1948
  773MOL0     H 4345   0.235   2.409   5.933 -0.5816  0.5028  0.0151
  773MOL0     H 4346   0.305   2.516   6.050  1.5829 -0.3751  1.0863
  773MOL0     H 4347   0.404   2.486   5.766  0.8943  3.8330 -2.4795
  773MOL0     H 4348   0.499   2.556   5.891  0.4710  0.9405 -0.0837
  773MOL0     H 4349   0.406   2.721   5.751  2.5738  1.0366  2.2029
  773MOL0     H 4350   0.362   2.734   5.919 -3.4939  0.7488  1.1556
  773MOL0     H 4351   0.137   2.764   5.781 -3.2812 -0.1270  0.0132
  773MOL0     H 4352   0.125   2.613   5.868  0.7103  0.0078 -0.2378
  773MOL0     H 4353   0.165   2.549   5.445 -0.2053 -4.5969  0.8272
  773MOL0     H 4354   0.584   2.192   6.122 -3.2519 -0.7295  0.9492
  773MOL0     H 4355   0.653   1.991   6.046  0.2068 -1.5187 -0.2154
  774MOL0     O 4356   8.477   6.724   1.600 -0.3550  0.7185  0.2112
  774MOL0     C 4357   8.601   6.703   1.599 -0.4973  0.5942 -0.9657
  774MOL0     O 4358   8.663   6.582   1.588 -0.0087  1.0985 -1.1379
  774MOL0     C 4359   8.597   6.461   1.566 -0.2890 -0.5476 -0.2482
  774MOL0     C 4360   8.515   6.438   1.448  0.7687  0.2319 -0.2525
  774MOL0     C 4361   8.443   6.324   1.435  0.2677 -0.3363  0.1906
  774MOL0     C 4362   8.457   6.231   1.535  0.1289  0.3688  0.4951
  774MOL0     O 4363   8.400   6.108   1.516 -0.8250  0.0532 -0.4795
  774MOL0     C 4364   8.255   6.111   1.498  0.4142  0.2102  0.0404
  774MOL0     C 4365   8.215   5.971   1.537  0.7397  0.1358 -0.9328
  774MOL0     C 4366   8.068   5.928   1.539 -0.0415 -0.3397  0.2045
  774MOL0     C 4367   8.004   5.911   1.406  0.6329  0.2588  0.7199
  774MOL0     C 4368   7.844   5.903   1.408  0.2471 -1.1115  0.0091
  774MOL0     C 4369   7.777   6.046   1.413  0.2417  0.2899  0.7751
  774MOL0     C 4370   7.620   6.045   1.418  0.3862  0.0035 -0.2842
  774MOL0     C 4371   7.577   6.024   1.564  0.0691  0.1262  0.5842
  774MOL0     N 4372   7.426   6.027   1.571 -0.2212  0.3940 -0.6684
  774MOL0     C 4373   7.337   6.130   1.587 -0.4757 -0.2803 -0.2767
  774MOL0     C 4374   7.214   6.080   1.552  0.0398 -0.7334  0.4708
  774MOL0     C 4375   7.084   6.156   1.548 -0.3468 -0.2933 -0.4369
  774MOL0     C 4376   7.052   6.226   1.411 -0.5905  0.2157  0.4678
  774MOL0     C 4377   7.050   6.144   1.284 -0.4994  0.1242  0.3762
  774MOL0     C 4378   7.192   6.126   1.213  0.3243  0.4505  0.3304
  774MOL0     O 4379   7.247   6.257   1.181 -0.5252 -0.0026 -0.1749
  774MOL0     C 4380   7.389   6.257   1.163 -0.1198 -0.9640  1.2613
  774MOL0     C 4381   7.449   6.385   1.189  0.5693  0.5741  0.1467
  774MOL0     C 4382   7.587   6.406   1.168  1.3066 -0.0533  0.8925
  774MOL0     C 4383   7.630   6.548   1.208 -0.2570  0.3892  0.6307
  774MOL0     C 4384   7.671   6.308   1.122  0.6869  1.0363  0.0083
  774MOL0     C 4385   7.812   6.330   1.082 -0.2440  0.3005 -0.6322
  774MOL0     O 4386   7.907   6.234   1.113  0.4064 -0.1955  0.2151
  774MOL0     C 4387   8.037   6.263   1.080 -0.2545 -0.1594 -0.3256
  774MOL0     C 4388   8.098   6.377   1.140 -0.0791  0.1573 -0.4349
  774MOL0     C 4389   8.235   6.398   1.126  0.4453 -0.3036  0.4701
  774MOL0     C 4390   8.307   6.321   1.033  0.8884  0.3760  1.6014
  774MOL0     O 4391   8.444   6.334   1.023 -0.4321 -0.5095 -0.0416
  774MOL0     C 4392   8.518   6.453   1.053 -0.1010  0.6029  1.5282
  774MOL0     C 4393   8.523   6.544   0.930  0.1632  0.1738 -0.6003
  774MOL0     C 4394   8.539   6.695   0.974  0.0814  0.9639 -0.1764
  774MOL0     C 4395   8.409   6.744   1.026 -0.0319 -0.3853 -0.4880
  774MOL0     C 4396   8.424   6.892   1.074  0.0547 -0.2710  0.5346
  774MOL0     C 4397   8.280   6.953   1.118 -0.5039  0.0774 -0.3325
  774MOL0     C 4398   8.265   7.107   1.153  0.3070 -0.7270 -0.3022
  774MOL0     C 4399   8.171   7.137   1.265  0.3572 -0.6420  1.0898
  774MOL0    Cl 4400   8.233   7.099   1.434 -0.1842 -0.2844 -0.4092
  774MOL0     C 4401   8.240   6.212   0.965 -0.2545 -0.9950  0.8981
  774MOL0     C 4402   8.110   6.179   0.997 -0.0171  1.4499 -0.1181
  774MOL0     O 4403   7.835   6.430   1.007 -0.7065 -0.6213 -0.1798
  774MOL0     C 4404   7.606   6.187   1.089 -0.4784  1.2504 -0.3084
  774MOL0     C 4405   7.476   6.155   1.113  0.2991 -0.0981  0.9933
  774MOL0     N 4406   7.237   5.947   1.523  0.0967 -0.7902  0.3919
  774MOL0     N 4407   7.360   5.915   1.540 -0.5107  1.0728 -0.0026
  774MOL0     C 4408   8.546   6.245   1.642 -0.3896 -0.2890 -0.1492
  774MOL0     C 4409   8.616   6.359   1.662  0.6685 -0.3420 -0.1937
  774MOL0     C 4410   8.686   6.817   1.633 -0.0562 -0.1126  0.0126
  774MOL0     C 4411   8.802   6.801   1.709  0.2890 -0.1794 -0.0911
  774MOL0     C 4412   8.874   6.911   1.766 -0.3704  0.4707  0.4100
  774MOL0     C 4413   8.840   7.038   1.720  0.5964 -0.0317  0.6643
  774MOL0     O 4414   8.915   7.150   1.755 -0.1285 -0.2515 -0.0309
  774MOL0     C 4415   9.002   7.145   1.870  1.0349  0.4464  0.4604
  774MOL0     C 4416   9.038   7.290   1.894  0.2893  0.2099 -0.3487
  774MOL0     C 4417   9.103   7.359   1.773  0.1131 -0.6028 -0.3062
  774MOL0     C 4418   8.999   7.428   1.684 -0.5030 -0.3020 -0.5047
  774MOL0     C 4419   9.056   7.539   1.602  0.2630 -0.0846  0.3381
  774MOL0     C 4420   9.089   7.628   1.529  0.1230 -0.5622 -0.5281
  774MOL0     C 4421   8.730   7.057   1.641  0.2688  0.3281 -0.5955
  774MOL0     C 4422   8.652   6.945   1.590  0.3598  0.4656 -0.2595
  774MOL0     H 4423   8.500   6.519   1.377  1.3531 -1.3279 -2.2530
  774MOL0     H 4424   8.378   6.318   1.348  3.2971 -1.8201 -2.1843
  774MOL0     H 4425   8.203   6.179   1.567 -1.6549 -1.9256  0.7513
  774MOL0     H 4426   8.225   6.125   1.394  0.0822 -1.7423 -0.1551
  774MOL0     H 4427   8.275   5.897   1.483  1.1291 -1.1509  1.1882
  774MOL0     H 4428   8.241   5.972   1.643 -4.1684 -0.1109  0.5221
  774MOL0     H 4429   8.054   5.834   1.594 -1.5679 -0.8211 -0.9258
  774MOL0     H 4430   8.006   6.005   1.586 -0.0714  0.7485 -1.5297
  774MOL0     H 4431   8.030   5.994   1.340 -2.8693 -0.9203 -2.4251
  774MOL0     H 4432   8.052   5.824   1.362  2.2285  1.7410 -0.6331
  774MOL0     H 4433   7.801   5.846   1.325 -0.6642 -0.8969  0.3257
  774MOL0     H 4434   7.823   5.835   1.491 -1.2478 -3.6667 -2.3078
  774MOL0     H 4435   7.823   6.102   1.495  2.2886  0.3074 -0.3191
  774MOL0     H 4436   7.798   6.106   1.324  0.1929  2.7134  2.3100
  774MOL0     H 4437   7.580   6.134   1.369  0.2226 -1.2552 -2.6022
  774MOL0     H 4438   7.588   5.958   1.359 -3.1031 -0.6888  2.3029
  774MOL0     H 4439   7.627   6.085   1.639  0.7380 -1.7298  1.7204
  774MOL0     H 4440   7.621   5.927   1.587  1.8390  1.1276  1.6128
  774MOL0     H 4441   7.357   6.236   1.601 -0.3274 -0.2126 -0.9680
  774MOL0     H 4442   7.006   6.085   1.578 -1.2269  0.7782 -0.1186
  774MOL0     H 4443   7.080   6.244   1.612 -1.2747 -2.1867  2.2634
  774MOL0     H 4444   7.116   6.313   1.392  2.2840 -2.0609 -1.1610
  774MOL0     H 4445   6.946   6.247   1.428 -0.9275 -2.2031  1.6493
  774MOL0     H 4446   6.986   6.197   1.213  0.3424  1.6600  0.7431
  774MOL0     H 4447   7.017   6.042   1.306 -0.1653  0.1064  0.7947
  774MOL0     H 4448   7.185   6.066   1.122 -1.8165  1.7364 -0.4505
  774MOL0     H 4449   7.261   6.077   1.282 -0.9642 -0.7922  0.7668
  774MOL0     H 4450   7.378   6.458   1.226  0.4825 -0.4680  2.1088
  774MOL0     H 4451   7.730   6.558   1.251  1.2673  0.9080 -2.6845
  774MOL0     H 4452   7.635   6.612   1.119  0.0069 -1.3524 -0.6444
  774MOL0     H 4453   7.565   6.593   1.283 -0.7467  1.7004 -0.5252
  774MOL0     H 4454   8.038   6.438   1.208 -1.3337 -0.6580 -0.7708
  774MOL0     H 4455   8.288   6.474   1.183 -2.2752  0.4276  2.1857
  774MOL0     H 4456   8.494   6.513   1.141 -0.4212  3.0034 -0.0889
  774MOL0     H 4457   8.622   6.418   1.049 -1.1926 -2.9394  0.8105
  774MOL0     H 4458   8.619   6.515   0.885  0.7907  1.2757 -0.0265
  774MOL0     H 4459   8.446   6.529   0.854 -2.8256  0.5448  2.1633
  774MOL0     H 4460   8.569   6.746   0.882 -0.0415 -1.1355 -1.4653
  774MOL0     H 4461   8.625   6.690   1.041 -0.3805  0.8705  0.4147
  774MOL0     H 4462   8.330   6.740   0.950 -0.0979  0.1427 -0.4497
  774MOL0     H 4463   8.375   6.690   1.115  0.8790 -2.3659 -1.2902
  774MOL0     H 4464   8.466   6.948   0.989 -3.3085  2.6755  0.5608
  774MOL0     H 4465   8.494   6.905   1.156  2.3483 -0.8747 -1.2337
  774MOL0     H 4466   8.220   6.930   1.030 -2.4869  0.0798  0.9589
  774MOL0     H 4467   8.238   6.903   1.205  2.7752  1.4385  2.2420
  774MOL0     H 4468   8.224   7.152   1.061  3.2860  0.5609 -1.1091
  774MOL0     H 4469   8.353   7.167   1.176 -2.5348  4.2903 -1.0152
  774MOL0     H 4470   8.080   7.077   1.251  1.6686 -3.2367  2.8638
  774MOL0     H 4471   8.144   7.243   1.262  0.0958 -0.6820  1.7584
  774MOL0     H 4472   8.299   6.148   0.901 -0.2478 -0.2166  0.1022
  774MOL0     H 4473   8.075   6.085   0.955  1.1946  0.5873  0.7417
  774MOL0     H 4474   7.664   6.116   1.032  2.7458  2.7985  0.7750
  774MOL0     H 4475   7.450   6.052   1.089  1.0474 -0.5607  2.0667
  774MOL0     H 4476   8.551   6.158   1.707  2.0258  0.0762  0.2296
  774MOL0     H 4477   8.686   6.367   1.745 -1.0621  2.1153  1.1705
  774MOL0     H 4478   8.829   6.705   1.752 -1.3998 -1.0819 -0.9598
  774MOL0     H 4479   8.952   6.902   1.841  0.6162 -0.9778 -0.7449
  774MOL0     H 4480   8.960   7.104   1.963  1.2036 -0.3751  0.1891
  774MOL0     H 4481   9.083   7.078   1.837  1.3293  2.1450 -2.6540
  774MOL0     H 4482   9.112   7.290   1.974  2.5847 -1.0111 -2.3521
  774MOL0     H 4483   8.956   7.355   1.925  0.2909 -0.3690  0.9625
  774MOL0     H 4484   9.164   7.284   1.720  0.7157 -2.0138  2.2254
  774MOL0     H 4485   9.174   7.427   1.822 -0.4460 -0.5592  0.4629
  774MOL0     H 4486   8.912   7.463   1.740 -0.9181  0.5880 -1.6681
  774MOL0     H 4487   8.957   7.350   1.621  1.2671 -1.4293 -0.3457
  774MOL0     H 4488   9.107   7.711   1.465  2.9372 -0.3182  0.4509
  774MOL0     H 4489   8.700   7.161   1.629 -2.5856 -0.3658 -0.2083
  774MOL0     H 4490   8.560   6.961   1.536 -0.0806 -0.9142  0.0497
  775MOL0     O 4491   9.289   8.419   7.515 -0.3422 -0.2210 -0.2821
  775MOL0     C 4492   9.293   8.509   7.593 -0.6149 -0.5968  0.2302
  775MOL0     O 4493   9.208   8.618   7.598  0.6348  0.6191 -0.2325
  775MOL0     C 4494   9.089   8.607   7.524  0.0514  0.0511  0.2805
  775MOL0     C 4495   9.087   8.645   7.386 -0.4516 -0.0072  0.8946
  775MOL0     C 4496   8.973   8.623   7.319 -0.2198 -0.0946  0.4989
  775MOL0     C 4497   8.860   8.574   7.383 -0.0063 -0.3819 -0.2092
  775MOL0     O 4498   8.733   8.550   7.329  0.4808  0.6454  0.1631
  775MOL0     C 4499   8.714   8.565   7.185  0.0364 -0.3601  0.9090
  775MOL0     C 4500   8.573   8.545   7.131 -0.4142 -0.6593 -0.0689
  775MOL0     C 4501   8.530   8.402   7.146  1.0257 -0.2479  1.1025
  775MOL0     C 4502   8.395   8.394   7.075 -0.3658 -0.5522  0.0991
  775MOL0     C 4503   8.334   8.250   7.081 -0.0807 -0.7288  0.5197
  775MOL0     C 4504   8.232   8.234   6.972  0.2802  0.7136 -0.4417
  775MOL0     C 4505   8.169   8.094   6.951 -0.7251 -0.6508  0.0663
  775MOL0     C 4506   8.068   8.056   7.059 -0.9030 -0.7293  0.4715
  775MOL0     N 4507   8.001   7.926   7.034  0.5470 -0.1151 -1.1063
  775MOL0     C 4508   7.867   7.923   7.031  0.3579  0.7173  0.4489
  775MOL0     C 4509   7.834   7.787   7.038  0.7630 -0.7931 -0.0314
  775MOL0     C 4510   7.691   7.740   7.064 -0.1764 -0.1997  0.8469
  775MOL0     C 4511   7.619   7.676   6.944 -0.1838  0.5869  0.4862
  775MOL0     C 4512   7.666   7.526   6.923 -0.2779  0.0362  0.6964
  775MOL0     C 4513   7.622   7.451   6.799  0.3445 -0.4587 -0.9325
  775MOL0     O 4514   7.486   7.486   6.774  0.6518 -0.1372 -0.0256
  775MOL0     C 4515   7.420   7.387   6.705  0.0872  1.3314 -0.0965
  775MOL0     C 4516   7.466   7.330   6.583  0.2921  0.8796 -0.0506
  775MOL0     C 4517   7.401   7.217   6.535  0.5441  0.1252 -0.5282
  775MOL0     C 4518   7.463   7.155   6.410  0.2503  0.0082 -0.5856
  775MOL0     C 4519   7.265   7.192   6.580 -0.6160 -0.0345 -0.5929
  775MOL0     C 4520   7.171   7.109   6.505  0.1469 -0.0022  0.5843
  775MOL0     O 4521   7.038   7.147   6.517 -0.2863 -0.6812 -0.1586
  775MOL0     C 4522   6.941   7.055   6.476  0.3829 -0.2228 -0.3526
  775MOL0     C 4523   6.940   6.937   6.557  0.8335  0.8777  0.0393
  775MOL0     C 4524   6.837   6.845   6.527  0.0694  0.7965 -0.5653
  775MOL0     C 4525   6.731   6.867   6.435 -0.3937  0.4956 -0.5446
  775MOL0     O 4526   6.621   6.791   6.446  1.0549  0.4430 -0.2696
  775MOL0     C 4527   6.553   6.744   6.328 -0.1328  0.1169  0.5395
  775MOL0     C 4528   6.423   6.682   6.382 -0.0823 -0.0564  0.5178
  775MOL0     C 4529   6.442   6.546   6.459 -0.1116  0.9559 -0.5756
  775MOL0     C 4530   6.318   6.498   6.535  0.0206  0.4336 -0.2536
  775MOL0     C 4531   6.357   6.397   6.640  0.6226 -0.0819  0.2485
  775MOL0     C 4532   6.234   6.310   6.676 -0.0595  0.4594  0.0902
  775MOL0     C 4533   6.109   6.389   6.720 -0.6305 -0.3362 -0.1233
  775MOL0     C 4534   6.037   6.299   6.811  0.4988  0.0983 -0.0910
  775MOL0    Cl 4535   5.883   6.362   6.858 -0.0334  0.2616  0.4441
  775MOL0     C 4536   6.738   6.979   6.355  0.1747  0.5764  1.1098
  775MOL0     C 4537   6.831   7.080   6.386 -0.9351  0.5968  0.1372
  775MOL0     O 4538   7.218   7.012   6.448  0.0490 -0.3237  0.0340
  775MOL0     C 4539   7.227   7.246   6.705  1.3594 -0.2666  0.1714
  775MOL0     C 4540   7.310   7.334   6.771  0.1084 -0.3454  0.4171
  775MOL0     N 4541   7.947   7.715   7.035  0.3944 -0.6035 -0.0182
  775MOL0     N 4542   8.047   7.800   7.047 -0.1817  0.3528 -0.0104
  775MOL0     C 4543   8.865   8.540   7.515  0.0212  0.1197  0.4221
  775MOL0     C 4544   8.978   8.546   7.584 -0.0418 -0.4527  0.5648
  775MOL0     C 4545   9.424   8.521   7.658 -0.7644  0.1545  0.0574
  775MOL0     C 4546   9.524   8.421   7.652  1.0862 -0.7267 -0.5208
  775MOL0     C 4547   9.636   8.418   7.731  0.0113 -1.1178 -0.5045
  775MOL0     C 4548   9.655   8.533   7.809  0.5504 -0.9494 -0.8374
  775MOL0     O 4549   9.778   8.543   7.863  0.3743 -0.4489 -0.5706
  775MOL0     C 4550   9.803   8.643   7.965 -0.7606 -1.0123  0.1920
  775MOL0     C 4551   9.938   8.601   8.026 -0.6291 -0.1620  0.0374
  775MOL0     C 4552   9.912   8.480   8.110  0.0964 -0.3533  0.9549
  775MOL0     C 4553  10.024   8.442   8.203 -0.3992  0.0819 -0.2850
  775MOL0     C 4554  10.150   8.396   8.137 -0.6028  1.2921 -0.4979
  775MOL0     C 4555  10.259   8.380   8.083  0.3181 -0.2172  0.3338
  775MOL0     C 4556   9.554   8.635   7.825 -0.5316 -1.2703 -0.0095
  775MOL0     C 4557   9.442   8.628   7.746  0.4578  0.6222 -0.4568
  775MOL0     H 4558   9.179   8.691   7.350  0.1974 -1.6867  0.3366
  775MOL0     H 4559   8.980   8.631   7.211  1.9173  0.6623  0.6445
  775MOL0     H 4560   8.739   8.666   7.149 -0.3086 -1.0109 -1.3388
  775MOL0     H 4561   8.781   8.493   7.138  3.0602  1.6917  1.7677
  775MOL0     H 4562   8.496   8.607   7.177 -0.0753 -1.8143  2.2118
  775MOL0     H 4563   8.588   8.580   7.029 -0.3657  2.1863  0.8209
  775MOL0     H 4564   8.609   8.339   7.106 -1.2370 -1.7241 -1.4006
  775MOL0     H 4565   8.513   8.376   7.251 -0.0116 -1.1027  0.7481
  775MOL0     H 4566   8.326   8.462   7.126 -0.4966 -0.9266  0.4217
  775MOL0     H 4567   8.406   8.421   6.969  0.3170 -2.0585 -0.2395
  775MOL0     H 4568   8.405   8.168   7.066 -0.8558 -1.0240 -1.8646
  775MOL0     H 4569   8.289   8.247   7.180  1.1681 -0.6295  1.1101
  775MOL0     H 4570   8.144   8.297   6.980 -0.1450  0.3418 -1.7987
  775MOL0     H 4571   8.287   8.273   6.886  0.0954  0.7527 -0.5440
  775MOL0     H 4572   8.104   8.099   6.863  0.9268  1.5045 -1.1270
  775MOL0     H 4573   8.242   8.015   6.931  0.7601  1.0105 -1.3866
  775MOL0     H 4574   7.985   8.127   7.068 -0.0507  0.3003  0.4443
  775MOL0     H 4575   8.132   8.049   7.148 -0.3904 -1.0664  0.0787
  775MOL0     H 4576   7.799   8.008   7.040 -1.2801 -0.4163 -0.7259
  775MOL0     H 4577   7.694   7.661   7.140 -0.3207 -1.3979 -0.3363
  775MOL0     H 4578   7.624   7.815   7.108 -1.3723 -1.1012  0.6295
  775MOL0     H 4579   7.639   7.734   6.853 -1.1971 -1.1058 -0.8693
  775MOL0     H 4580   7.510   7.671   6.953 -0.2160  1.9872  1.2521
  775MOL0     H 4581   7.636   7.469   7.012 -1.5895 -1.2762 -0.5388
  775MOL0     H 4582   7.774   7.524   6.906 -0.6108  0.6391 -1.8730
  775MOL0     H 4583   7.643   7.348   6.827  1.5868  0.2757  1.1447
  775MOL0     H 4584   7.670   7.488   6.708 -0.0958  3.8990  0.3751
  775MOL0     H 4585   7.560   7.354   6.533  1.1669  2.2628  2.1005
  775MOL0     H 4586   7.561   7.195   6.382 -0.6954  1.0574 -2.5599
  775MOL0     H 4587   7.478   7.051   6.443 -1.7824  0.3335  1.6700
  775MOL0     H 4588   7.402   7.166   6.320  1.1437 -0.8084 -1.3092
  775MOL0     H 4589   7.024   6.918   6.623  0.6831 -2.3839 -0.5400
  775MOL0     H 4590   6.822   6.759   6.591 -4.9639 -0.1413 -2.4864
  775MOL0     H 4591   6.543   6.814   6.245  2.8355 -0.9545 -0.8670
  775MOL0     H 4592   6.619   6.668   6.284 -0.6055 -0.8738  1.4851
  775MOL0     H 4593   6.370   6.761   6.435 -0.3086 -0.1544  0.4402
  775MOL0     H 4594   6.361   6.665   6.293  0.8378  1.0851 -0.3783
  775MOL0     H 4595   6.520   6.556   6.535 -1.6818 -0.5295  1.3403
  775MOL0     H 4596   6.470   6.472   6.383 -2.8865 -0.9297  0.0827
  775MOL0     H 4597   6.263   6.579   6.583 -2.5958 -1.2759 -0.1748
  775MOL0     H 4598   6.246   6.458   6.462 -0.0376  2.0848 -1.1605
  775MOL0     H 4599   6.393   6.447   6.730 -0.8552  0.1060  0.7461
  775MOL0     H 4600   6.430   6.327   6.599  1.6167  2.8496 -3.6820
  775MOL0     H 4601   6.208   6.237   6.599  1.4192  0.9164 -0.8820
  775MOL0     H 4602   6.249   6.247   6.764 -1.2286 -1.2945 -0.8959
  775MOL0     H 4603   6.042   6.410   6.637 -0.1039  0.4444 -0.3640
  775MOL0     H 4604   6.141   6.484   6.763  2.1807 -0.4251 -1.7592
  775MOL0     H 4605   6.098   6.303   6.902 -1.2711  0.5054  1.1271
  775MOL0     H 4606   6.022   6.192   6.790 -0.2371  0.1574  0.0889
  775MOL0     H 4607   6.656   6.985   6.284 -1.0016 -2.1437  2.0642
  775MOL0     H 4608   6.819   7.170   6.327  3.6061  0.6110 -1.1461
  775MOL0     H 4609   7.133   7.210   6.747  0.3821  2.2688  0.3891
  775MOL0     H 4610   7.286   7.360   6.873  2.2681 -0.6215  1.0381
  775MOL0     H 4611   8.781   8.502   7.573 -1.7701  0.4866 -1.8184
  775MOL0     H 4612   8.993   8.503   7.683  3.4970 -3.3377 -0.9674
  775MOL0     H 4613   9.513   8.341   7.578  2.6013 -0.7156 -0.7922
  775MOL0     H 4614   9.711   8.342   7.713  0.9967 -0.3470  0.2807
  775MOL0     H 4615   9.815   8.743   7.924  2.2611 -0.2992  2.4931
  775MOL0     H 4616   9.727   8.644   8.044 -1.4651  2.9405 -0.3295
  775MOL0     H 4617   9.979   8.683   8.085 -1.9985 -0.3118  1.2550
  775MOL0     H 4618  10.010   8.576   7.947 -3.6041 -2.7441 -2.1237
  775MOL0     H 4619   9.883   8.395   8.048 -2.1646  0.7392  0.4197
  775MOL0     H 4620   9.825   8.505   8.172 -0.3108  0.5985  0.0327
  775MOL0     H 4621   9.991   8.356   8.261 -0.8174 -0.2623 -1.0135
  775MOL0     H 4622  10.052   8.525   8.268 -0.3104 -1.8606  2.3107
  775MOL0     H 4623  10.348   8.353   8.030  1.2635 -1.7342  2.5343
  775MOL0     H 4624   9.548   8.717   7.896 -1.9391 -1.3847  0.0245
  775MOL0     H 4625   9.365   8.704   7.754 -2.2362 -1.7295 -2.3164
  776MOL0     O 4626   8.267   6.313   5.900 -0.4038 -0.3886  0.0752
  776MOL0     C 4627   8.193   6.395   5.951  0.1476 -0.4593 -0.5678
  776MOL0     O 4628   8.066   6.431   5.908  0.1804  0.5311 -0.4232
  776MOL0     C 4629   8.025   6.367   5.790  0.1886 -0.2968  0.1958
  776MOL0     C 4630   7.961   6.247   5.793  0.3012  0.3147 -0.5651
  776MOL0     C 4631   7.891   6.197   5.677  0.0603  0.3261  0.2124
  776MOL0     C 4632   7.873   6.276   5.563 -0.8263  0.2867  0.1501
  776MOL0     O 4633   7.799   6.220   5.463  0.4898 -0.8652 -1.1955
  776MOL0     C 4634   7.844   6.238   5.328 -0.4570  0.3857 -0.3419
  776MOL0     C 4635   7.761   6.360   5.269  0.2948  0.4611 -0.2875
  776MOL0     C 4636   7.620   6.306   5.232 -0.2508 -0.1138 -0.6570
  776MOL0     C 4637   7.555   6.425   5.155  0.9719  0.5593  0.3508
  776MOL0     C 4638   7.428   6.399   5.098 -0.1633  0.1777 -0.8970
  776MOL0     C 4639   7.322   6.352   5.199 -0.7253  0.3300  0.1191
  776MOL0     C 4640   7.174   6.314   5.134  0.0163 -0.2770 -0.1928
  776MOL0     C 4641   7.080   6.258   5.235 -0.8510 -0.1123 -0.0744
  776MOL0     N 4642   6.965   6.190   5.172 -0.5163 -0.2832 -0.4461
  776MOL0     C 4643   6.968   6.071   5.100 -0.3305  0.7030  0.9488
  776MOL0     C 4644   6.840   6.051   5.062  0.1469  0.2939  0.1955
  776MOL0     C 4645   6.793   5.925   4.998  0.3523  0.0834  0.1307
  776MOL0     C 4646   6.739   5.942   4.856  0.4791  0.3518  0.4598
  776MOL0     C 4647   6.593   5.991   4.844  0.0839 -0.3279 -0.1988
  776MOL0     C 4648   6.505   5.881   4.896 -0.1923  0.1087  0.1680
  776MOL0     O 4649   6.373   5.922   4.866  0.2618  0.1735  0.3601
  776MOL0     C 4650   6.270   5.851   4.910 -0.1196  0.1955  0.9855
  776MOL0     C 4651   6.273   5.715   4.928  0.1729 -0.6009 -0.2753
  776MOL0     C 4652   6.158   5.634   4.961 -0.0651  0.8413 -0.7653
  776MOL0     C 4653   6.179   5.482   4.983 -0.9035 -0.0824  0.2475
  776MOL0     C 4654   6.035   5.705   4.971 -0.3901  0.1883 -0.3115
  776MOL0     C 4655   5.897   5.636   4.998  0.3823  1.0167  0.0798
  776MOL0     O 4656   5.784   5.713   5.003 -0.6511  0.8717  0.1051
  776MOL0     C 4657   5.675   5.659   5.060  1.3000  1.0434 -0.3847
  776MOL0     C 4658   5.548   5.685   5.006 -0.0349 -0.8587  0.6415
  776MOL0     C 4659   5.429   5.636   5.058 -0.1432  0.6741  0.8979
  776MOL0     C 4660   5.440   5.555   5.175  0.0621  0.0463  0.5558
  776MOL0     O 4661   5.336   5.503   5.237 -0.0268 -0.7178 -0.0998
  776MOL0     C 4662   5.218   5.455   5.167 -0.0558 -0.6269  0.2484
  776MOL0     C 4663   5.119   5.394   5.259  0.4869 -0.2824 -0.7067
  776MOL0     C 4664   4.984   5.393   5.177 -0.4887 -0.3105  0.3874
  776MOL0     C 4665   4.855   5.331   5.235 -0.1000 -0.6469 -0.5921
  776MOL0     C 4666   4.799   5.400   5.361 -0.4960 -0.1111 -0.3165
  776MOL0     C 4667   4.693   5.313   5.419  0.0814  0.3991 -0.5796
  776MOL0     C 4668   4.652   5.382   5.547 -0.0562  0.5953 -0.3653
  776MOL0     C 4669   4.514   5.337   5.588 -0.4744 -0.4735 -1.0209
  776MOL0    Cl 4670   4.473   5.398   5.744 -0.2867 -0.3983 -0.0864
  776MOL0     C 4671   5.569   5.535   5.238 -0.3238  0.4050  0.8669
  776MOL0     C 4672   5.682   5.581   5.177  0.4509 -1.5370 -0.4575
  776MOL0     O 4673   5.891   5.512   4.992 -1.2393  0.5826  0.2407
  776MOL0     C 4674   6.043   5.848   4.983  0.7000  0.5031 -0.3561
  776MOL0     C 4675   6.152   5.919   4.945 -0.4782 -0.0780 -0.1255
  776MOL0     N 4676   6.763   6.165   5.103 -0.7225  0.9536  0.1183
  776MOL0     N 4677   6.838   6.239   5.170 -0.1400  0.1080 -0.6485
  776MOL0     C 4678   7.946   6.398   5.565 -0.3277  0.6513  0.0102
  776MOL0     C 4679   8.010   6.450   5.676 -0.0570  0.7572  0.5042
  776MOL0     C 4680   8.226   6.447   6.088 -0.5012 -1.1258  0.1077
  776MOL0     C 4681   8.128   6.526   6.152  0.1839 -0.3976 -0.1543
  776MOL0     C 4682   8.159   6.582   6.275  0.0101  0.4586 -0.1915
  776MOL0     C 4683   8.282   6.562   6.335 -0.6783  0.0020  0.3279
  776MOL0     O 4684   8.287   6.613   6.465 -0.8510  0.6552  0.1856
  776MOL0     C 4685   8.410   6.656   6.505  0.6599 -0.0222 -0.2269
  776MOL0     C 4686   8.439   6.786   6.430 -0.0513 -0.3501 -0.5709
  776MOL0     C 4687   8.354   6.910   6.478 -0.2045  0.9548 -0.3366
  776MOL0     C 4688   8.414   7.044   6.451 -0.4801 -0.3182  1.1855
  776MOL0     C 4689   8.347   7.109   6.340  0.5748 -0.3740  0.0897
  776MOL0     C 4690   8.318   7.180   6.249 -0.8281 -0.1731  0.1470
  776MOL0     C 4691   8.380   6.474   6.283 -0.2502  0.8627 -0.0392
  776MOL0     C 4692   8.350   6.416   6.157 -0.3310  0.2609  0.1651
  776MOL0     H 4693   7.952   6.186   5.883 -3.5537  0.2021 -0.8694
  776MOL0     H 4694   7.835   6.105   5.666 -1.2613  1.2564 -1.1515
  776MOL0     H 4695   7.950   6.265   5.335 -0.6035  1.2459 -1.1602
  776MOL0     H 4696   7.823   6.147   5.271 -0.1483 -1.3225  2.1444
  776MOL0     H 4697   7.750   6.441   5.342  2.0824  1.2259 -0.8233
  776MOL0     H 4698   7.819   6.393   5.183  2.2542 -1.1849  0.3189
  776MOL0     H 4699   7.645   6.216   5.174  1.2227 -1.5816  2.0490
  776MOL0     H 4700   7.559   6.276   5.317 -0.2946 -0.2509 -0.7356
  776MOL0     H 4701   7.539   6.511   5.221  1.7989  0.8292  0.2109
  776MOL0     H 4702   7.614   6.468   5.074 -3.4838  1.4899 -2.8001
  776MOL0     H 4703   7.378   6.491   5.067 -2.1780 -1.3633 -2.5855
  776MOL0     H 4704   7.441   6.325   5.018 -0.5481  0.8749 -1.6182
  776MOL0     H 4705   7.365   6.265   5.250 -2.4344 -0.4348  0.3491
  776MOL0     H 4706   7.310   6.433   5.271  1.4140 -1.3535  2.5537
  776MOL0     H 4707   7.128   6.406   5.096 -0.5159  0.2910  1.7090
  776MOL0     H 4708   7.179   6.241   5.053  0.9615 -1.1165  0.6017
  776MOL0     H 4709   7.046   6.338   5.302 -3.0422 -1.0248  0.0006
  776MOL0     H 4710   7.123   6.185   5.304  0.3968 -0.4388 -1.1671
  776MOL0     H 4711   7.048   6.002   5.074 -0.0890  1.3207  0.0086
  776MOL0     H 4712   6.882   5.861   5.002  2.5633  2.9512 -0.1771
  776MOL0     H 4713   6.721   5.871   5.060  0.9741 -0.0106  0.7886
  776MOL0     H 4714   6.747   5.851   4.796  0.0930  0.4387  0.2702
  776MOL0     H 4715   6.796   6.017   4.800 -1.7565 -0.3647 -3.0951
  776MOL0     H 4716   6.571   6.008   4.739  0.6028  1.8531 -0.0073
  776MOL0     H 4717   6.573   6.081   4.903  0.9535 -0.0856 -0.2583
  776MOL0     H 4718   6.523   5.869   5.003  1.6896 -0.2692 -0.1516
  776MOL0     H 4719   6.529   5.789   4.842 -1.1754  0.1058 -0.2684
  776MOL0     H 4720   6.371   5.668   4.926  3.4201  5.2501 -2.0594
  776MOL0     H 4721   6.279   5.449   4.954 -0.8633 -0.1999  0.5140
  776MOL0     H 4722   6.142   5.455   5.082 -1.2411  0.3612  0.2438
  776MOL0     H 4723   6.109   5.422   4.924  2.8529 -0.6288 -4.2072
  776MOL0     H 4724   5.547   5.747   4.917 -2.8333 -1.1341  0.3961
  776MOL0     H 4725   5.346   5.634   4.988  0.8068 -0.7835 -0.2403
  776MOL0     H 4726   5.175   5.539   5.111 -0.7308  1.0486  3.1105
  776MOL0     H 4727   5.258   5.383   5.094  1.8518  1.2632 -0.6728
  776MOL0     H 4728   5.160   5.295   5.280  0.9036 -0.2124 -1.1630
  776MOL0     H 4729   5.106   5.456   5.348  1.1518 -0.5917 -0.3916
  776MOL0     H 4730   5.006   5.355   5.077  0.5206  3.1931 -0.8498
  776MOL0     H 4731   4.962   5.499   5.162 -0.4240 -0.2755  0.5389
  776MOL0     H 4732   4.771   5.330   5.165 -2.1029  0.3504  1.6411
  776MOL0     H 4733   4.877   5.226   5.255  1.2770 -0.2276  0.2753
  776MOL0     H 4734   4.753   5.492   5.326 -4.5155 -0.8289  2.3880
  776MOL0     H 4735   4.874   5.433   5.434 -1.4747  1.2771  0.1059
  776MOL0     H 4736   4.607   5.310   5.351 -0.4277 -1.1923  0.0801
  776MOL0     H 4737   4.735   5.214   5.438  2.7861  1.8596  1.8598
  776MOL0     H 4738   4.654   5.491   5.544 -2.0269  0.7497  1.4633
  776MOL0     H 4739   4.720   5.357   5.628  0.9367  1.3813 -0.9368
  776MOL0     H 4740   4.526   5.233   5.617  0.9800 -0.4877 -1.5966
  776MOL0     H 4741   4.429   5.356   5.522 -1.6534  0.8809  0.7685
  776MOL0     H 4742   5.587   5.477   5.328 -1.7583 -2.7975 -0.7662
  776MOL0     H 4743   5.774   5.563   5.231  2.0386 -1.7179 -3.0473
  776MOL0     H 4744   5.951   5.903   5.003  0.6041  0.4877 -0.7497
  776MOL0     H 4745   6.134   6.026   4.946  2.1688  0.4705  2.1927
  776MOL0     H 4746   7.948   6.451   5.470 -0.9273  0.0367 -0.3546
  776MOL0     H 4747   8.060   6.546   5.677 -0.4474  0.9645  1.6046
  776MOL0     H 4748   8.038   6.552   6.097  0.7713 -0.7612 -1.3194
  776MOL0     H 4749   8.084   6.639   6.329 -0.3705 -2.5004  2.7315
  776MOL0     H 4750   8.408   6.673   6.613  1.9870 -1.3669  0.0551
  776MOL0     H 4751   8.490   6.583   6.486  0.1739 -0.4811 -0.5513
  776MOL0     H 4752   8.424   6.768   6.323 -0.6059  0.2425 -0.5975
  776MOL0     H 4753   8.546   6.803   6.447 -0.5049 -0.4538  3.0482
  776MOL0     H 4754   8.349   6.887   6.585  1.6690  1.2029 -0.1727
  776MOL0     H 4755   8.259   6.902   6.424 -0.8891 -0.1066  0.9718
  776MOL0     H 4756   8.520   7.036   6.427 -0.6473 -0.8798  0.5961
  776MOL0     H 4757   8.393   7.109   6.536 -1.2018  2.3190 -0.8632
  776MOL0     H 4758   8.307   7.257   6.175  0.5007  0.8180  0.9290
  776MOL0     H 4759   8.467   6.438   6.337 -1.0918  0.4455  1.0728
  776MOL0     H 4760   8.416   6.338   6.121 -1.0144 -1.9550  3.3182
  777MOL0     O 4761   0.260   6.894   0.868  0.2631 -0.8998 -0.5260
  777MOL0     C 4762   0.258   6.781   0.920  0.3700  0.2691 -0.4299
  777MOL0     O 4763   0.150   6.693   0.903 -0.6073 -0.9909  0.0037
  777MOL0     C 4764   0.028   6.748   0.863  0.2831  0.9262  0.8036
  777MOL0     C 4765  -0.057   6.664   0.783  0.0374 -0.6715  0.2944
  777MOL0     C 4766  -0.171   6.723   0.718 -0.3258  0.1052 -0.6327
  777MOL0     C 4767  -0.212   6.858   0.737 -0.6402 -0.3415  0.1705
  777MOL0     O 4768  -0.309   6.921   0.652  0.8558  0.8251  0.5658
  777MOL0     C 4769  -0.395   7.028   0.700  0.3803  0.0690 -0.1261
  777MOL0     C 4770  -0.515   7.033   0.613 -0.9086  0.4950 -0.5145
  777MOL0     C 4771  -0.619   7.140   0.659 -0.2404  0.5683  0.7808
  777MOL0     C 4772  -0.754   7.134   0.585 -0.5678  0.8134 -0.2152
  777MOL0     C 4773  -0.824   7.270   0.591  0.3921  0.6451 -0.3476
  777MOL0     C 4774  -0.938   7.269   0.495 -0.6272 -0.2990  0.3518
  777MOL0     C 4775  -1.031   7.378   0.534 -0.2336 -0.1346 -0.3512
  777MOL0     C 4776  -1.177   7.354   0.494  0.1818  0.8646  0.9358
  777MOL0     N 4777  -1.246   7.480   0.494  0.1473  0.5503 -0.3101
  777MOL0     C 4778  -1.334   7.527   0.588  0.6214  0.4615  0.1870
  777MOL0     C 4779  -1.371   7.652   0.539 -0.3001  0.0008 -0.7193
  777MOL0     C 4780  -1.482   7.748   0.592 -0.1539  0.4767 -0.1143
  777MOL0     C 4781  -1.623   7.685   0.586 -0.1493  0.1442  0.3917
  777MOL0     C 4782  -1.739   7.782   0.558  0.5550 -1.1661  0.5923
  777MOL0     C 4783  -1.880   7.723   0.587 -0.4674 -0.0631  0.3683
  777MOL0     O 4784  -1.966   7.828   0.619  0.1330  0.4292 -0.0731
  777MOL0     C 4785  -2.100   7.814   0.645 -0.2941  0.0780 -0.2640
  777MOL0     C 4786  -2.178   7.920   0.599  0.5627  0.1687  0.4968
  777MOL0     C 4787  -2.314   7.920   0.599  0.4058 -0.7551  0.4805
  777MOL0     C 4788  -2.385   8.041   0.541 -0.6671 -0.9614 -0.1746
  777MOL0     C 4789  -2.385   7.810   0.664 -0.1848 -0.1396 -0.4483
  777MOL0     C 4790  -2.533   7.795   0.674 -0.2000  0.2005 -0.2390
  777MOL0     O 4791  -2.587   7.708   0.772  0.5013  0.0349  0.7346
  777MOL0     C 4792  -2.722   7.688   0.753  1.1584  0.8228  0.8424
  777MOL0     C 4793  -2.814   7.779   0.811 -0.1024  0.1981  0.3465
  777MOL0     C 4794  -2.954   7.744   0.802 -0.2248 -0.0980 -0.3765
  777MOL0     C 4795  -3.002   7.638   0.725 -0.4182  0.1063  0.1650
  777MOL0     O 4796  -3.132   7.606   0.741  0.0339  0.1373 -0.3690
  777MOL0     C 4797  -3.226   7.684   0.670  0.3934 -0.0915  0.6210
  777MOL0     C 4798  -3.362   7.628   0.688  0.7930 -0.1786 -0.0688
  777MOL0     C 4799  -3.377   7.478   0.651 -0.9218  0.0600  0.0696
  777MOL0     C 4800  -3.518   7.438   0.649  0.2247  0.1696 -0.0802
  777MOL0     C 4801  -3.552   7.289   0.632 -0.7343  0.5006  0.1493
  777MOL0     C 4802  -3.704   7.270   0.647 -0.0148  0.8442 -0.7716
  777MOL0     C 4803  -3.781   7.300   0.525  0.1761 -0.2337  0.5804
  777MOL0     C 4804  -3.926   7.250   0.542 -1.0192  0.2523  0.3094
  777MOL0    Cl 4805  -4.026   7.384   0.612 -0.0186  0.4708  0.0110
  777MOL0     C 4806  -2.914   7.552   0.671 -0.7292  0.4482 -0.0924
  777MOL0     C 4807  -2.775   7.573   0.686 -0.7180 -0.2999 -0.1051
  777MOL0     O 4808  -2.588   7.857   0.586  0.5236  0.1498 -0.1864
  777MOL0     C 4809  -2.299   7.703   0.720  0.0787 -1.2696  0.9720
  777MOL0     C 4810  -2.158   7.701   0.701  0.3519 -0.1552  0.1652
  777MOL0     N 4811  -1.299   7.669   0.427  0.2007 -0.2828 -0.6936
  777MOL0     N 4812  -1.213   7.575   0.408  0.5943 -0.3257 -1.1668
  777MOL0     C 4813  -0.140   6.931   0.822 -0.1470  0.3580 -0.0812
  777MOL0     C 4814  -0.021   6.878   0.881  0.3923  0.4628 -0.3712
  777MOL0     C 4815   0.382   6.736   0.976 -0.5087 -0.1618 -0.6274
  777MOL0     C 4816   0.418   6.601   0.998  0.2234 -1.2251  0.1424
  777MOL0     C 4817   0.554   6.568   1.036 -0.0415  0.1120  0.3059
  777MOL0     C 4818   0.650   6.669   1.053 -0.4351  1.1559  0.7434
  777MOL0     O 4819   0.780   6.645   1.086 -0.1394 -0.6281 -0.1801
  777MOL0     C 4820   0.803   6.538   1.177 -0.0918  0.3042  0.2129
  777MOL0     C 4821   0.942   6.554   1.243  0.3985 -0.3112 -0.1934
  777MOL0     C 4822   1.048   6.482   1.162  0.2594 -0.3586 -0.7958
  777MOL0     C 4823   1.187   6.517   1.232 -0.5634  0.0631 -0.0111
  777MOL0     C 4824   1.289   6.448   1.147  0.0643  0.2362 -0.4380
  777MOL0     C 4825   1.379   6.393   1.092 -0.3151  0.3944  0.0316
  777MOL0     C 4826   0.609   6.797   1.026  0.4359 -0.4457  0.4121
  777MOL0     C 4827   0.476   6.829   0.999  0.3520  0.1933 -0.1501
  777MOL0     H 4828  -0.031   6.560   0.766  0.4966 -0.8494  1.9839
  777MOL0     H 4829  -0.236   6.689   0.637 -1.0952  2.2825 -1.0077
  777MOL0     H 4830  -0.415   7.002   0.804  0.3198  0.0284 -0.1482
  777MOL0     H 4831  -0.337   7.120   0.700 -2.0447  1.6859 -0.8031
  777MOL0     H 4832  -0.504   7.049   0.505 -2.5284  1.6011 -0.5633
  777MOL0     H 4833  -0.563   6.936   0.629  4.3750 -2.0206  2.5500
  777MOL0     H 4834  -0.632   7.117   0.765 -0.4744 -0.5676  0.5184
  777MOL0     H 4835  -0.585   7.244   0.652 -0.7937  0.8818  2.1821
  777MOL0     H 4836  -0.737   7.104   0.481 -0.3411 -2.0481  0.5543
  777MOL0     H 4837  -0.816   7.056   0.631 -0.7298  0.1034 -1.5866
  777MOL0     H 4838  -0.853   7.291   0.695  1.1226 -0.2309  0.0437
  777MOL0     H 4839  -0.756   7.351   0.565  0.2544  2.0732  3.1892
  777MOL0     H 4840  -0.892   7.291   0.399 -2.5425 -1.7244 -0.9538
  777MOL0     H 4841  -0.983   7.170   0.485  0.3014 -0.4950 -2.9675
  777MOL0     H 4842  -1.028   7.390   0.643  0.4707  1.5403 -0.5183
  777MOL0     H 4843  -0.993   7.471   0.489  2.5487  0.0649  2.0831
  777MOL0     H 4844  -1.233   7.282   0.555  0.4024  2.1052  2.6730
  777MOL0     H 4845  -1.175   7.319   0.390 -0.2320 -0.3470  1.3135
  777MOL0     H 4846  -1.377   7.470   0.669  0.5100 -2.0380 -1.5363
  777MOL0     H 4847  -1.454   7.789   0.689 -2.8999  0.1718  0.9194
  777MOL0     H 4848  -1.485   7.840   0.532  0.3526  1.6642  1.6095
  777MOL0     H 4849  -1.644   7.626   0.675 -0.8636 -0.4899 -0.1757
  777MOL0     H 4850  -1.622   7.607   0.508 -1.3621 -2.2868  2.6452
  777MOL0     H 4851  -1.735   7.811   0.453 -1.7427 -1.7330  0.2883
  777MOL0     H 4852  -1.724   7.876   0.611  0.2355 -0.3166 -0.7839
  777MOL0     H 4853  -1.862   7.655   0.671  1.4441  1.2541  1.1094
  777MOL0     H 4854  -1.918   7.674   0.498  0.2767 -2.1351  1.1364
  777MOL0     H 4855  -2.121   7.998   0.548  0.2700  1.6084  2.2622
  777MOL0     H 4856  -2.448   8.095   0.612  2.1162  2.0842  0.1851
  777MOL0     H 4857  -2.301   8.107   0.518 -0.5720 -1.1567 -0.3887
  777MOL0     H 4858  -2.443   8.016   0.452  0.4917 -1.0456 -0.9187
  777MOL0     H 4859  -2.769   7.865   0.861 -0.0046  0.7737 -0.7101
  777MOL0     H 4860  -3.028   7.810   0.846  0.4194 -0.0069  0.5999
  777MOL0     H 4861  -3.220   7.789   0.701 -2.2453  0.3511 -0.0440
  777MOL0     H 4862  -3.204   7.677   0.563  0.1293  0.3965  0.5275
  777MOL0     H 4863  -3.391   7.644   0.793  2.4263  0.8492  0.2636
  777MOL0     H 4864  -3.431   7.688   0.628 -0.8010 -0.2045  1.6276
  777MOL0     H 4865  -3.315   7.419   0.719  1.0257  1.4079 -0.4434
  777MOL0     H 4866  -3.329   7.462   0.554 -1.2899 -1.3813  0.1164
  777MOL0     H 4867  -3.545   7.470   0.750  0.4990  0.9376 -0.2447
  777MOL0     H 4868  -3.565   7.490   0.565 -0.6714  0.7024  0.7374
  777MOL0     H 4869  -3.490   7.246   0.712 -0.9153 -1.1706 -0.5659
  777MOL0     H 4870  -3.516   7.252   0.535 -0.5446  1.5615 -0.1987
  777MOL0     H 4871  -3.713   7.164   0.672  3.2724  0.9649  1.6577
  777MOL0     H 4872  -3.731   7.330   0.735  0.8578 -1.4769  1.2056
  777MOL0     H 4873  -3.734   7.244   0.443 -1.1979  0.1857 -0.5319
  777MOL0     H 4874  -3.802   7.401   0.489 -1.2729 -1.1157 -1.2273
  777MOL0     H 4875  -3.945   7.167   0.610 -1.6048 -0.8493 -1.1664
  777MOL0     H 4876  -3.970   7.211   0.450  0.4869 -0.9296  0.0692
  777MOL0     H 4877  -2.953   7.474   0.605  0.4357  0.1251 -0.4096
  777MOL0     H 4878  -2.696   7.508   0.649  1.2541  1.1726  1.3022
  777MOL0     H 4879  -2.347   7.620   0.772  2.8723 -3.2784  0.5741
  777MOL0     H 4880  -2.084   7.624   0.720  2.6173  1.8664 -0.1452
  777MOL0     H 4881  -0.166   7.035   0.837  0.9647  0.7857 -0.9622
  777MOL0     H 4882   0.030   6.949   0.945 -3.8477  2.7720  0.8523
  777MOL0     H 4883   0.342   6.525   0.984 -0.7450  0.1628 -3.2868
  777MOL0     H 4884   0.569   6.460   1.038 -1.0449 -0.0248  1.1256
  777MOL0     H 4885   0.727   6.541   1.255  0.1698 -0.4652  0.5092
  777MOL0     H 4886   0.814   6.441   1.127  0.0971  0.7989 -0.7406
  777MOL0     H 4887   0.933   6.532   1.349 -3.4751  2.5195  0.2465
  777MOL0     H 4888   0.972   6.659   1.237 -0.5596 -0.0188 -0.0379
  777MOL0     H 4889   1.061   6.522   1.061 -0.8299  0.8447 -0.4866
  777MOL0     H 4890   1.034   6.374   1.146  0.9584 -0.3204 -1.7808
  777MOL0     H 4891   1.190   6.477   1.334  1.2348 -2.5680 -0.9826
  777MOL0     H 4892   1.203   6.626   1.236 -0.6741  0.1325 -1.0814
  777MOL0     H 4893   1.462   6.338   1.052  0.4963  2.2761 -1.0076
  777MOL0     H 4894   0.673   6.882   1.047 -2.7338  2.7880 -1.8126
  777MOL0     H 4895   0.459   6.936   0.999  2.8812  0.6423  0.1649
  778MOL0     O 4896   9.036   6.476   3.177 -0.6731 -0.0304 -0.2397
  778MOL0     C 4897   9.023   6.527   3.286 -0.0547 -0.1608 -0.2251
  778MOL0     O 4898   8.905   6.551   3.348 -0.2812 -0.2638  0.5523
  778MOL0     C 4899   8.796   6.483   3.298 -0.2470 -1.1195  1.2867
  778MOL0     C 4900   8.671   6.561   3.288 -0.6236  0.4199  0.1299
  778MOL0     C 4901   8.552   6.502   3.251 -0.0082 -0.9744  0.1802
  778MOL0     C 4902   8.552   6.370   3.209  0.3362  0.0602  0.3758
  778MOL0     O 4903   8.438   6.305   3.171 -0.7881 -0.5242  0.3561
  778MOL0     C 4904   8.398   6.211   3.276 -0.1226 -0.0002  0.0331
  778MOL0     C 4905   8.328   6.090   3.216  0.6556  0.8448  0.0451
  778MOL0     C 4906   8.168   6.113   3.205  1.0313  0.3344  0.8098
  778MOL0     C 4907   8.107   5.998   3.126  0.1703 -0.9426 -0.1158
  778MOL0     C 4908   7.955   5.988   3.138  0.5912  1.0464 -0.4425
  778MOL0     C 4909   7.877   6.118   3.090 -0.4139 -0.7112  0.6038
  778MOL0     C 4910   7.743   6.080   3.025  0.3585  0.0164 -0.2207
  778MOL0     C 4911   7.770   6.026   2.884  0.0278 -0.4693  0.3399
  778MOL0     N 4912   7.670   6.086   2.801 -0.0817 -0.1633  0.6805
  778MOL0     C 4913   7.541   6.048   2.793  0.0728  0.3688  0.1727
  778MOL0     C 4914   7.481   6.152   2.725  0.1312 -0.7830  0.5178
  778MOL0     C 4915   7.338   6.153   2.669  0.0675  0.2498  0.4255
  778MOL0     C 4916   7.231   6.175   2.778  1.1376 -0.2391  0.5976
  778MOL0     C 4917   7.084   6.176   2.719 -0.5869 -0.1935  0.1405
  778MOL0     C 4918   6.988   6.178   2.831  0.4904 -1.4627 -0.6997
  778MOL0     O 4919   6.988   6.307   2.893 -0.7535 -0.1969 -0.1540
  778MOL0     C 4920   6.936   6.411   2.818 -0.1605 -0.8524 -0.1709
  778MOL0     C 4921   7.011   6.529   2.807  0.3535 -0.7881 -0.0192
  778MOL0     C 4922   6.965   6.644   2.755  0.1177 -1.3586  1.1762
  778MOL0     C 4923   7.049   6.762   2.729 -0.2267 -0.0088 -0.1596
  778MOL0     C 4924   6.828   6.661   2.710  0.4811 -0.1654 -0.3903
  778MOL0     C 4925   6.779   6.772   2.632  0.1062  0.0116 -0.1889
  778MOL0     O 4926   6.861   6.836   2.547 -0.1689  0.5940  0.2290
  778MOL0     C 4927   6.823   6.938   2.462  0.4450 -0.5041  0.2875
  778MOL0     C 4928   6.704   7.014   2.473  0.3507  0.6857  0.4411
  778MOL0     C 4929   6.681   7.121   2.383  0.2997  0.6362  0.3367
  778MOL0     C 4930   6.780   7.165   2.288 -0.3337 -0.2800  0.0883
  778MOL0     O 4931   6.789   7.272   2.202  0.2139 -0.3212 -0.0201
  778MOL0     C 4932   6.673   7.319   2.145  0.1112 -0.0615  0.5771
  778MOL0     C 4933   6.639   7.243   2.017 -0.7196 -0.0249  0.0460
  778MOL0     C 4934   6.734   7.296   1.899  0.9829  0.3794 -0.4746
  778MOL0     C 4935   6.681   7.430   1.843  0.5118 -0.8755  0.2416
  778MOL0     C 4936   6.768   7.485   1.722 -0.6568  0.1311 -0.8670
  778MOL0     C 4937   6.676   7.589   1.647  0.9381  0.1954 -0.2928
  778MOL0     C 4938   6.748   7.670   1.529 -0.0901  0.1482  0.2937
  778MOL0     C 4939   6.733   7.608   1.384 -0.2946 -1.0147  0.2557
  778MOL0    Cl 4940   6.779   7.755   1.273 -0.2146  0.0990 -0.0186
  778MOL0     C 4941   6.889   7.076   2.276  0.0292  0.1364 -0.1815
  778MOL0     C 4942   6.907   6.957   2.358 -0.6088  0.2510  0.6017
  778MOL0     O 4943   6.663   6.799   2.658  0.0065 -0.3912 -0.5126
  778MOL0     C 4944   6.747   6.548   2.731 -1.2925  0.4218  0.0841
  778MOL0     C 4945   6.796   6.424   2.792 -0.6539 -0.1446  0.1073
  778MOL0     N 4946   7.576   6.245   2.693  0.3622  0.3643 -0.1872
  778MOL0     N 4947   7.691   6.208   2.738  0.3499  1.0192  0.1978
  778MOL0     C 4948   8.672   6.296   3.212 -0.7940 -1.0594 -0.0979
  778MOL0     C 4949   8.794   6.346   3.257  0.7425 -0.2363  0.3726
  778MOL0     C 4950   9.144   6.563   3.356  1.0026  0.0501 -0.3829
  778MOL0     C 4951   9.130   6.589   3.493 -0.4513 -0.3454 -0.5076
  778MOL0     C 4952   9.245   6.625   3.569 -0.1956 -0.1610  0.5905
  778MOL0     C 4953   9.367   6.636   3.514 -0.3031  0.6339 -0.6196
  778MOL0     O 4954   9.466   6.677   3.597  0.3493  0.3787 -0.0783
  778MOL0     C 4955   9.549   6.570   3.631 -0.2290  0.1231 -0.1765
  778MOL0     C 4956   9.668   6.643   3.697  0.4570 -0.0204 -0.7233
  778MOL0     C 4957   9.770   6.543   3.747 -0.0032  0.6543  0.3304
  778MOL0     C 4958   9.893   6.615   3.795 -0.1126  0.2501  0.2518
  778MOL0     C 4959   9.862   6.687   3.922  0.4699  0.0997  0.0624
  778MOL0     C 4960   9.848   6.734   4.034  0.0767  1.2317  0.4570
  778MOL0     C 4961   9.383   6.604   3.377  0.1508 -0.8275  0.4293
  778MOL0     C 4962   9.274   6.560   3.297  0.5407 -0.9209 -0.2796
  778MOL0     H 4963   8.647   6.661   3.321 -1.3869  0.0392  0.7712
  778MOL0     H 4964   8.460   6.559   3.248  1.4772  1.7683  2.2264
  778MOL0     H 4965   8.486   6.183   3.335 -1.3395  2.3797  3.2897
  778MOL0     H 4966   8.340   6.269   3.348  1.8622  1.2740  0.7000
  778MOL0     H 4967   8.369   6.075   3.116 -2.7090  0.8703 -1.4953
  778MOL0     H 4968   8.350   6.003   3.278  1.2422  2.7259  2.6291
  778MOL0     H 4969   8.116   6.120   3.300 -1.7455  0.6291 -0.6267
  778MOL0     H 4970   8.158   6.198   3.136 -2.7462 -1.3015 -0.9563
  778MOL0     H 4971   8.126   6.012   3.019 -3.3089  0.4514 -0.6859
  778MOL0     H 4972   8.140   5.902   3.166 -2.0910 -1.3512  0.9365
  778MOL0     H 4973   7.922   5.901   3.081  0.2062  1.6543 -1.1659
  778MOL0     H 4974   7.940   5.967   3.244  0.6091  0.0269 -0.6283
  778MOL0     H 4975   7.846   6.172   3.180  2.3364  0.7419  0.7782
  778MOL0     H 4976   7.940   6.185   3.031 -1.0707  0.1451  0.8451
  778MOL0     H 4977   7.689   6.003   3.080  2.4801 -1.0476  0.4529
  778MOL0     H 4978   7.678   6.168   3.023  0.2660 -0.0278 -3.3046
  778MOL0     H 4979   7.770   5.916   2.886  2.5135 -0.5165  1.5463
  778MOL0     H 4980   7.871   6.060   2.858  0.5635 -2.4699 -0.3739
  778MOL0     H 4981   7.485   5.961   2.826 -0.0609  0.7417  0.9511
  778MOL0     H 4982   7.317   6.227   2.591 -0.0638  0.8661  1.0281
  778MOL0     H 4983   7.299   6.061   2.625  1.2148  0.9271 -2.2120
  778MOL0     H 4984   7.254   6.270   2.828 -2.2457  1.7079 -1.1659
  778MOL0     H 4985   7.236   6.087   2.843 -1.4984 -0.6812  0.3152
  778MOL0     H 4986   7.068   6.087   2.657  2.4258 -0.8152  0.1094
  778MOL0     H 4987   7.067   6.267   2.660  1.4711 -0.2789 -0.6711
  778MOL0     H 4988   7.010   6.108   2.912  0.3674 -0.4196  0.2646
  778MOL0     H 4989   6.887   6.163   2.789  0.0452 -2.0314  0.5193
  778MOL0     H 4990   7.116   6.537   2.836  0.3433  1.2366 -0.3743
  778MOL0     H 4991   7.000   6.859   2.744 -2.0635  0.2398 -5.6565
  778MOL0     H 4992   7.136   6.766   2.796  0.2130 -0.2955 -0.7043
  778MOL0     H 4993   7.087   6.748   2.627  1.7599 -3.1920  0.8921
  778MOL0     H 4994   6.625   6.983   2.540  0.5241 -2.3526 -0.6231
  778MOL0     H 4995   6.587   7.175   2.385  1.3138  2.4819  1.0107
  778MOL0     H 4996   6.582   7.315   2.205  0.0598 -1.1146  0.4507
  778MOL0     H 4997   6.681   7.424   2.118 -1.5763  0.3039  1.3727
  778MOL0     H 4998   6.654   7.136   2.034 -0.8985 -0.0715 -0.0895
  778MOL0     H 4999   6.535   7.270   1.996 -0.4988  2.2756  1.5442
  778MOL0     H 5000   6.733   7.215   1.825 -2.9864  0.2861 -0.5611
  778MOL0     H 5001   6.835   7.309   1.938  0.5450 -0.8726  1.2182
  778MOL0     H 5002   6.582   7.418   1.799  1.6665  0.0679 -2.8404
  778MOL0     H 5003   6.672   7.509   1.918 -2.8601  0.2418 -1.1557
  778MOL0     H 5004   6.815   7.408   1.660 -0.3603 -0.4874  0.1074
  778MOL0     H 5005   6.847   7.536   1.778 -3.7622  1.9933  2.1467
  778MOL0     H 5006   6.581   7.542   1.620 -1.1198  1.8590  3.2866
  778MOL0     H 5007   6.652   7.668   1.719  2.3883 -0.1763  0.6652
  778MOL0     H 5008   6.853   7.680   1.557  0.4220  2.3395 -2.0398
  778MOL0     H 5009   6.711   7.772   1.516 -0.0787 -0.1455 -2.7595
  778MOL0     H 5010   6.629   7.581   1.361  0.1172 -0.7856 -2.2361
  778MOL0     H 5011   6.798   7.521   1.371  0.2314 -0.2339 -4.3357
  778MOL0     H 5012   6.968   7.094   2.204 -0.0916  1.4471 -0.0033
  778MOL0     H 5013   6.994   6.894   2.352 -1.2875 -0.5681 -1.0393
  778MOL0     H 5014   6.646   6.546   2.690 -1.1319 -0.0084 -0.3093
  778MOL0     H 5015   6.735   6.338   2.817  0.4631 -0.8642  0.4480
  778MOL0     H 5016   8.680   6.189   3.201  0.8988 -1.0268  0.5557
  778MOL0     H 5017   8.885   6.286   3.258  0.5303 -0.7484 -2.5989
  778MOL0     H 5018   9.040   6.577   3.552  0.8197  0.4138  1.7050
  778MOL0     H 5019   9.226   6.657   3.671 -2.0092  0.3002  0.1324
  778MOL0     H 5020   9.506   6.521   3.719  0.8778 -2.0014 -0.7543
  778MOL0     H 5021   9.582   6.505   3.550 -1.6580 -1.5636  0.4990
  778MOL0     H 5022   9.636   6.711   3.776 -0.7383 -1.2369 -0.1272
  778MOL0     H 5023   9.715   6.708   3.623  0.5281 -1.5597 -2.1029
  778MOL0     H 5024   9.793   6.487   3.656 -2.0452  2.3981 -1.3731
  778MOL0     H 5025   9.727   6.475   3.822  0.5453 -0.5664 -0.4358
  778MOL0     H 5026   9.945   6.680   3.724  0.4229 -1.1073 -0.6478
  778MOL0     H 5027   9.965   6.533   3.808  3.4395  2.2274 -4.2069
  778MOL0     H 5028   9.826   6.776   4.130 -2.2410 -0.9529  0.9955
  778MOL0     H 5029   9.473   6.606   3.317  0.3636 -0.2944  0.7609
  778MOL0     H 5030   9.280   6.527   3.194 -0.5718  0.4922 -0.8179
  779MOL0     O 5031   2.404   6.258   8.134  0.5243 -0.3661 -0.5534
  779MOL0     C 5032   2.367   6.160   8.191 -0.8391  0.8144 -0.1785
  779MOL0     O 5033   2.439   6.046   8.209 -0.0470 -0.3614  0.2536
  779MOL0     C 5034   2.544   6.032   8.122 -0.0587 -0.5989 -0.2424
  779MOL0     C 5035   2.672   6.090   8.147 -0.5217 -0.5735  0.1090
  779MOL0     C 5036   2.764   6.075   8.046 -0.2802  0.8251 -0.3546
  779MOL0     C 5037   2.746   5.982   7.940 -0.4784  0.2353 -0.0084
  779MOL0     O 5038   2.840   5.938   7.852  0.1180  0.1924 -0.5360
  779MOL0     C 5039   2.961   6.012   7.846 -0.1218 -0.1952 -0.4002
  779MOL0     C 5040   3.048   5.943   7.733 -0.0454  0.4511  0.0632
  779MOL0     C 5041   3.195   5.986   7.746  0.1446  0.0549  0.0413
  779MOL0     C 5042   3.218   6.111   7.661 -0.1037 -0.4507  1.0863
  779MOL0     C 5043   3.371   6.134   7.651  0.4370 -0.0388  0.5169
  779MOL0     C 5044   3.435   6.169   7.794  0.2507 -0.3379  0.2868
  779MOL0     C 5045   3.575   6.215   7.758  0.3973 -0.5833  0.3117
  779MOL0     C 5046   3.657   6.264   7.884  0.6972 -0.3305 -0.5277
  779MOL0     N 5047   3.611   6.397   7.943  0.8066 -0.2920 -0.3888
  779MOL0     C 5048   3.508   6.404   8.039 -0.0070 -0.1140  0.1255
  779MOL0     C 5049   3.496   6.540   8.052  0.4932  0.1602 -0.0735
  779MOL0     C 5050   3.394   6.620   8.136 -0.0703  0.6909 -0.0298
  779MOL0     C 5051   3.302   6.709   8.048 -0.5171 -0.3629 -0.4059
  779MOL0     C 5052   3.206   6.777   8.137 -0.0065 -0.4222 -0.7762
  779MOL0     C 5053   3.073   6.703   8.181 -0.5347  0.0990 -0.0020
  779MOL0     O 5054   2.988   6.794   8.270  0.5663 -0.5600  0.2777
  779MOL0     C 5055   2.874   6.740   8.328 -1.0472  0.2382 -0.6625
  779MOL0     C 5056   2.831   6.607   8.302  0.0977 -0.0117  0.2890
  779MOL0     C 5057   2.705   6.568   8.328  0.6836  0.4945  0.5610
  779MOL0     C 5058   2.660   6.429   8.294  0.5378 -0.0515  0.3649
  779MOL0     C 5059   2.630   6.664   8.412 -0.1704 -0.6939 -0.7483
  779MOL0     C 5060   2.503   6.624   8.490 -0.3554 -0.3969 -0.0764
  779MOL0     O 5061   2.499   6.495   8.528 -0.7297  1.0560  0.0693
  779MOL0     C 5062   2.399   6.440   8.600 -0.1860 -0.2231 -0.0495
  779MOL0     C 5063   2.264   6.445   8.561 -0.1584 -0.8154 -0.1254
  779MOL0     C 5064   2.165   6.390   8.640 -0.7066  0.8867 -0.0797
  779MOL0     C 5065   2.199   6.329   8.759 -0.3788  0.9194 -0.2458
  779MOL0     O 5066   2.098   6.275   8.837  0.3002 -0.4787 -0.1601
  779MOL0     C 5067   2.006   6.191   8.767  0.6082  0.0246  0.1782
  779MOL0     C 5068   1.938   6.089   8.864  0.4806 -0.3517 -0.4499
  779MOL0     C 5069   1.815   6.024   8.803  0.9115 -0.5121 -0.2649
  779MOL0     C 5070   1.849   5.905   8.716 -0.6154 -0.6999  0.5098
  779MOL0     C 5071   1.725   5.836   8.660 -0.4316  1.6865 -0.2645
  779MOL0     C 5072   1.681   5.889   8.527  0.8833 -0.5047 -0.1499
  779MOL0     C 5073   1.563   5.804   8.467 -0.1334  0.8134  0.6831
  779MOL0     C 5074   1.427   5.859   8.510 -0.4505 -0.7325 -0.1408
  779MOL0    Cl 5075   1.422   6.043   8.496  0.1997 -0.0100 -0.3498
  779MOL0     C 5076   2.333   6.326   8.797 -0.4919 -0.5257 -0.7892
  779MOL0     C 5077   2.435   6.375   8.716  0.6533  0.5458  0.1954
  779MOL0     O 5078   2.413   6.706   8.510 -0.5386 -0.4649 -0.4836
  779MOL0     C 5079   2.670   6.800   8.436  0.0928 -0.3683  0.2877
  779MOL0     C 5080   2.803   6.827   8.395 -0.1982 -0.4236 -0.1382
  779MOL0     N 5081   3.589   6.605   7.973 -0.3828 -0.2863  0.0357
  779MOL0     N 5082   3.654   6.522   7.907 -0.5117 -0.1145 -0.4427
  779MOL0     C 5083   2.624   5.924   7.928 -0.6792 -0.9413  0.1423
  779MOL0     C 5084   2.520   5.954   8.014  0.3075 -0.3738  0.4819
  779MOL0     C 5085   2.238   6.159   8.240  0.2173 -0.5159  0.2337
  779MOL0     C 5086   2.188   6.058   8.329 -0.4069 -0.6875 -0.0335
  779MOL0     C 5087   2.061   6.074   8.394 -0.6014  0.0199  1.1771
  779MOL0     C 5088   1.981   6.182   8.369  0.3486  0.3372 -0.4040
  779MOL0     O 5089   1.867   6.183   8.440  0.5802  0.5847 -0.3023
  779MOL0     C 5090   1.773   6.289   8.432 -0.3365 -0.2549  0.4083
  779MOL0     C 5091   1.703   6.273   8.292 -0.6346 -0.4834 -0.8973
  779MOL0     C 5092   1.630   6.411   8.267  0.2279  0.1181 -0.2993
  779MOL0     C 5093   1.527   6.417   8.154  0.1871 -0.9088 -0.1361
  779MOL0     C 5094   1.447   6.547   8.137 -0.1674  1.0237  0.1986
  779MOL0     C 5095   1.378   6.651   8.137 -0.8156  0.1087  0.2651
  779MOL0     C 5096   2.031   6.283   8.286 -0.6653 -0.2866 -0.4694
  779MOL0     C 5097   2.154   6.270   8.217 -0.4137 -0.0018 -0.1551
  779MOL0     H 5098   2.686   6.148   8.238  1.2683  0.5561 -0.8429
  779MOL0     H 5099   2.851   6.140   8.051  0.5435 -0.1309 -1.6816
  779MOL0     H 5100   2.945   6.118   7.827 -0.1159 -0.1235 -0.0161
  779MOL0     H 5101   3.005   6.000   7.946 -2.7011 -1.5258  0.6785
  779MOL0     H 5102   3.030   5.836   7.746 -4.4059  0.7248 -1.8703
  779MOL0     H 5103   3.010   5.963   7.633  1.3164  2.1459 -0.1523
  779MOL0     H 5104   3.223   6.008   7.849 -4.1865  0.0263  1.4588
  779MOL0     H 5105   3.259   5.905   7.711  2.1042  1.5566 -0.0222
  779MOL0     H 5106   3.179   6.094   7.560  0.5789 -1.0522  0.9142
  779MOL0     H 5107   3.174   6.203   7.700  0.4969 -0.1767  1.1216
  779MOL0     H 5108   3.414   6.038   7.620 -2.2265 -0.8675 -0.8649
  779MOL0     H 5109   3.385   6.212   7.576 -0.4182 -0.3500  0.0202
  779MOL0     H 5110   3.370   6.245   7.840 -0.3898 -1.4450  1.2606
  779MOL0     H 5111   3.434   6.083   7.861 -0.6737 -0.2240  0.4344
  779MOL0     H 5112   3.627   6.140   7.697 -0.7833 -1.6123  0.5350
  779MOL0     H 5113   3.569   6.301   7.690  2.1489  3.6404  4.8247
  779MOL0     H 5114   3.762   6.276   7.853  1.2009 -0.7808  0.9079
  779MOL0     H 5115   3.651   6.178   7.952 -2.6428 -0.3193 -0.6639
  779MOL0     H 5116   3.444   6.328   8.083 -0.7009 -0.0198 -0.6877
  779MOL0     H 5117   3.337   6.553   8.201 -0.8461 -0.2593 -1.6367
  779MOL0     H 5118   3.445   6.688   8.206  1.6799  1.3865 -1.8996
  779MOL0     H 5119   3.237   6.649   7.983 -1.7695 -0.6577  1.0709
  779MOL0     H 5120   3.367   6.777   7.993  1.5870 -0.8243  1.3734
  779MOL0     H 5121   3.183   6.879   8.105  1.1777  0.8614  2.1092
  779MOL0     H 5122   3.260   6.803   8.229 -1.0140  2.9458 -0.9735
  779MOL0     H 5123   3.094   6.608   8.232 -0.7583 -0.4704 -0.9603
  779MOL0     H 5124   3.026   6.685   8.084 -1.1224  3.0332 -0.3247
  779MOL0     H 5125   2.888   6.534   8.246 -0.9055 -1.1187  0.6634
  779MOL0     H 5126   2.552   6.438   8.286  0.6155  1.3235  0.7148
  779MOL0     H 5127   2.683   6.403   8.190 -3.9670 -0.6346 -0.7002
  779MOL0     H 5128   2.687   6.354   8.369  4.0209  0.2840 -0.3682
  779MOL0     H 5129   2.243   6.512   8.478  2.9614 -1.9373 -1.9956
  779MOL0     H 5130   2.066   6.405   8.598 -1.4275 -0.1604  1.1730
  779MOL0     H 5131   1.929   6.250   8.716 -0.1917  0.6570  2.0343
  779MOL0     H 5132   2.046   6.129   8.685 -2.2098  0.9741 -2.0804
  779MOL0     H 5133   2.011   6.018   8.904  1.7564  1.6384  0.9519
  779MOL0     H 5134   1.900   6.147   8.949 -0.2234 -2.0865  0.4693
  779MOL0     H 5135   1.772   6.103   8.741 -0.1030 -0.1981  0.8122
  779MOL0     H 5136   1.735   6.001   8.873 -0.1359  2.8592 -0.2217
  779MOL0     H 5137   1.926   5.933   8.643  0.0950 -1.8693  0.7857
  779MOL0     H 5138   1.905   5.834   8.777  1.3959  1.0239  0.7836
  779MOL0     H 5139   1.643   5.832   8.732 -1.2631 -0.4995 -1.2432
  779MOL0     H 5140   1.759   5.732   8.651 -1.7330  1.1587  0.6892
  779MOL0     H 5141   1.662   5.994   8.504 -1.4475 -1.2137 -1.9096
  779MOL0     H 5142   1.757   5.876   8.450 -0.0694  0.6797 -1.3404
  779MOL0     H 5143   1.581   5.698   8.487 -0.8068  0.0949 -2.0739
  779MOL0     H 5144   1.580   5.804   8.359  1.7885 -2.5759  0.8654
  779MOL0     H 5145   1.408   5.834   8.614  0.4967 -0.4957  0.1011
  779MOL0     H 5146   1.353   5.813   8.444  0.7972  0.5754 -2.6015
  779MOL0     H 5147   2.361   6.272   8.887  2.3475  1.3908 -0.3827
  779MOL0     H 5148   2.536   6.378   8.754  0.4690  1.1521  0.6654
  779MOL0     H 5149   2.594   6.864   8.479 -1.0125 -1.6723  0.3744
  779MOL0     H 5150   2.833   6.931   8.406 -0.3364 -0.3868 -0.1007
  779MOL0     H 5151   2.623   5.863   7.839  2.2354 -0.8687 -0.0493
  779MOL0     H 5152   2.421   5.915   7.994 -0.3405  1.1582  0.6112
  779MOL0     H 5153   2.239   5.967   8.359  1.6188  0.6844  0.8927
  779MOL0     H 5154   2.029   6.001   8.467 -0.6146 -0.7164  0.4559
  779MOL0     H 5155   1.698   6.289   8.511 -1.1897 -3.3092 -0.2667
  779MOL0     H 5156   1.835   6.380   8.436 -1.8198  0.8625 -0.8583
  779MOL0     H 5157   1.630   6.191   8.288 -1.2747  0.1035 -1.7857
  779MOL0     H 5158   1.775   6.251   8.213 -0.1526 -0.6397 -0.4176
  779MOL0     H 5159   1.710   6.480   8.235  0.4574 -0.2441 -0.5178
  779MOL0     H 5160   1.592   6.459   8.357  2.8444  2.4047 -0.2845
  779MOL0     H 5161   1.455   6.335   8.168 -0.6025 -0.1740  0.1491
  779MOL0     H 5162   1.578   6.384   8.062 -2.8262 -1.9091 -1.5850
  779MOL0     H 5163   1.320   6.741   8.143 -3.4037 -1.0491 -3.4883
  779MOL0     H 5164   1.967   6.365   8.255 -0.2571 -1.0790 -3.7975
  779MOL0     H 5165   2.185   6.349   8.149 -0.7999 -2.1073 -2.9629
  780MOL0     O 5166   1.960   4.964   1.978  0.1704 -0.2020 -0.2182
  780MOL0     C 5167   2.031   4.867   2.009 -0.3111  0.8203 -0.0336
  780MOL0     O 5168   1.984   4.756   2.079  0.7013  0.5644  0.4315
  780MOL0     C 5169   1.862   4.770   2.150 -0.9659  1.2657  0.5517
  780MOL0     C 5170   1.850   4.730   2.284  0.6366  0.2207 -0.2013
  780MOL0     C 5171   1.721   4.732   2.351 -0.4110  1.1259  0.3905
  780MOL0     C 5172   1.606   4.780   2.283 -0.4432 -0.2269  0.4647
  780MOL0     O 5173   1.492   4.767   2.355  0.7615  0.9292 -0.0272
  780MOL0     C 5174   1.383   4.855   2.324 -0.5260  0.6136  0.7922
  780MOL0     C 5175   1.328   4.915   2.459  0.5983 -0.2187  0.7210
  780MOL0     C 5176   1.418   5.010   2.524  0.5124  0.2938  0.9301
  780MOL0     C 5177   1.350   5.086   2.635 -0.0589 -0.1554  0.2946
  780MOL0     C 5178   1.416   5.224   2.666 -0.1689 -0.2436 -0.9388
  780MOL0     C 5179   1.555   5.190   2.726  0.3372 -0.0065 -0.0424
  780MOL0     C 5180   1.616   5.297   2.801  0.4846  0.2272  0.7338
  780MOL0     C 5181   1.741   5.241   2.883  0.1805 -0.4382 -0.8921
  780MOL0     N 5182   1.698   5.160   2.995  0.1918  0.4050  0.2743
  780MOL0     C 5183   1.618   5.199   3.100 -0.3017 -0.1717  0.7602
  780MOL0     C 5184   1.592   5.083   3.167  0.2266  0.1186 -0.0533
  780MOL0     C 5185   1.522   5.060   3.296  0.4035 -0.0290  0.1532
  780MOL0     C 5186   1.378   5.112   3.291  0.4886 -0.1004 -0.2908
  780MOL0     C 5187   1.290   5.063   3.411  0.2776 -0.2360 -0.1905
  780MOL0     C 5188   1.181   4.959   3.369 -0.5410  0.1627 -0.4463
  780MOL0     O 5189   1.221   4.828   3.334 -0.7635 -0.1816  0.1866
  780MOL0     C 5190   1.134   4.726   3.355  1.0509 -0.3891  0.1450
  780MOL0     C 5191   1.179   4.598   3.379 -0.8658 -0.2536 -1.2724
  780MOL0     C 5192   1.101   4.489   3.419  0.7852 -0.9846 -0.1929
  780MOL0     C 5193   1.165   4.359   3.459  0.5393  0.1874 -0.3216
  780MOL0     C 5194   0.958   4.500   3.413  0.2125  0.6362  0.1717
  780MOL0     C 5195   0.858   4.391   3.444 -0.1009 -0.4599  0.5789
  780MOL0     O 5196   0.729   4.418   3.390 -0.2342  0.8877  0.0823
  780MOL0     C 5197   0.622   4.336   3.395 -0.3695  0.5164 -1.2836
  780MOL0     C 5198   0.498   4.387   3.425  0.7028 -0.4080  0.0804
  780MOL0     C 5199   0.396   4.303   3.456 -0.9516 -0.0162 -0.1235
  780MOL0     C 5200   0.394   4.172   3.424 -0.2280  0.7248  0.0420
  780MOL0     O 5201   0.279   4.105   3.420  0.0210  0.4857  0.9749
  780MOL0     C 5202   0.232   4.062   3.541 -0.0387  0.7663 -0.1216
  780MOL0     C 5203   0.084   4.094   3.559  0.2054  0.0154 -0.6604
  780MOL0     C 5204   0.015   3.982   3.641 -0.4755  0.6433 -0.4118
  780MOL0     C 5205  -0.132   4.025   3.676 -0.0798 -0.6881 -0.5497
  780MOL0     C 5206  -0.206   3.925   3.759 -0.0617  0.1870 -0.2752
  780MOL0     C 5207  -0.350   3.903   3.710 -0.4725  0.4166 -1.0044
  780MOL0     C 5208  -0.444   4.028   3.718 -0.3938  0.4857 -0.3213
  780MOL0     C 5209  -0.560   3.999   3.618 -0.1747 -0.4252  0.0998
  780MOL0    Cl 5210  -0.479   4.004   3.452 -0.0206 -0.0561  0.0274
  780MOL0     C 5211   0.516   4.119   3.373 -0.1404  0.0411  0.0505
  780MOL0     C 5212   0.634   4.197   3.372 -0.3468 -0.4228 -0.1072
  780MOL0     O 5213   0.886   4.295   3.515 -0.0664 -0.0118 -0.2539
  780MOL0     C 5214   0.908   4.623   3.368 -0.2116  0.3596 -0.0421
  780MOL0     C 5215   0.988   4.731   3.356 -0.9820 -0.5218  0.2465
  780MOL0     N 5216   1.649   4.982   3.096  0.1675  0.8928 -0.3243
  780MOL0     N 5217   1.718   5.022   2.999 -0.2145 -0.3658  0.0458
  780MOL0     C 5218   1.616   4.803   2.147  0.2137 -0.2031  0.0815
  780MOL0     C 5219   1.741   4.796   2.076  0.5354 -0.7822 -0.3344
  780MOL0     C 5220   2.171   4.862   1.967  0.1186  0.4736  0.2845
  780MOL0     C 5221   2.211   4.935   1.858 -0.4566  0.1167 -0.7453
  780MOL0     C 5222   2.341   4.919   1.815 -0.7875  0.1429 -0.1864
  780MOL0     C 5223   2.431   4.838   1.886  0.0085  1.1938  0.3390
  780MOL0     O 5224   2.567   4.842   1.860  0.3537 -0.3658 -0.2157
  780MOL0     C 5225   2.640   4.736   1.820 -0.2239 -1.1454 -0.3492
  780MOL0     C 5226   2.603   4.666   1.690  0.6057 -0.7580  0.7329
  780MOL0     C 5227   2.610   4.765   1.568  0.3587 -0.0471 -0.5833
  780MOL0     C 5228   2.558   4.701   1.438 -0.4070 -1.1500  0.2387
  780MOL0     C 5229   2.597   4.567   1.414 -0.3490  0.0448 -0.4588
  780MOL0     C 5230   2.650   4.457   1.395 -0.2531 -0.1495  0.7627
  780MOL0     C 5231   2.391   4.766   1.999  0.0738  1.2431 -0.3042
  780MOL0     C 5232   2.260   4.776   2.039 -0.0371 -0.8124  0.2102
  780MOL0     H 5233   1.935   4.693   2.340 -0.0668 -2.7658 -0.9239
  780MOL0     H 5234   1.719   4.691   2.452  1.9094  0.1091  0.0959
  780MOL0     H 5235   1.414   4.929   2.249  1.3686 -1.2804 -0.3889
  780MOL0     H 5236   1.307   4.794   2.275  1.8920 -0.4070 -1.9561
  780MOL0     H 5237   1.240   4.969   2.423  2.2949  0.2263 -3.2786
  780MOL0     H 5238   1.297   4.834   2.525  0.5534 -0.6016  0.2350
  780MOL0     H 5239   1.506   4.952   2.554  0.0930 -0.2648  1.0752
  780MOL0     H 5240   1.441   5.086   2.449  0.2936 -0.2399  0.3244
  780MOL0     H 5241   1.247   5.110   2.605 -0.2180 -1.3085 -0.1502
  780MOL0     H 5242   1.351   5.027   2.727 -5.9744  1.2345  1.6589
  780MOL0     H 5243   1.422   5.278   2.572  1.1512  0.5569 -0.4192
  780MOL0     H 5244   1.348   5.279   2.732  0.2264  0.6530 -1.2707
  780MOL0     H 5245   1.535   5.110   2.799  0.9164  0.8019  1.0324
  780MOL0     H 5246   1.625   5.149   2.653  1.7232  2.2598 -0.0622
  780MOL0     H 5247   1.640   5.378   2.732 -4.1465  2.4079  1.2897
  780MOL0     H 5248   1.538   5.330   2.869 -0.8457 -1.1167 -0.0757
  780MOL0     H 5249   1.805   5.318   2.926  1.0920 -2.2057  1.1404
  780MOL0     H 5250   1.798   5.175   2.816  0.4134 -1.5264  0.3367
  780MOL0     H 5251   1.584   5.297   3.133 -3.4732 -1.2465  0.9462
  780MOL0     H 5252   1.521   4.953   3.318  0.4678 -0.3848 -1.4579
  780MOL0     H 5253   1.580   5.120   3.366  3.7463 -0.4497 -2.0127
  780MOL0     H 5254   1.334   5.076   3.197  0.9650 -0.9763 -0.1963
  780MOL0     H 5255   1.369   5.221   3.290 -3.8107 -0.2553  1.0870
  780MOL0     H 5256   1.218   5.139   3.443  1.0175 -0.1952  1.4513
  780MOL0     H 5257   1.353   5.022   3.491  2.2207  1.4138 -0.7980
  780MOL0     H 5258   1.122   4.997   3.286 -0.0396 -0.4048 -1.0725
  780MOL0     H 5259   1.119   4.945   3.458  1.2886  1.0106  1.0440
  780MOL0     H 5260   1.286   4.589   3.391 -1.0860  0.3482  1.8932
  780MOL0     H 5261   1.272   4.349   3.438  0.7249 -4.7190  1.5937
  780MOL0     H 5262   1.160   4.364   3.568 -2.0477  0.8038 -0.3951
  780MOL0     H 5263   1.107   4.276   3.417  1.5839 -0.2807 -0.8661
  780MOL0     H 5264   0.483   4.494   3.439 -0.4938 -0.4838 -0.5024
  780MOL0     H 5265   0.295   4.334   3.481 -0.1651  1.5950  1.2715
  780MOL0     H 5266   0.243   3.953   3.541 -2.6719  0.3600  2.6925
  780MOL0     H 5267   0.281   4.106   3.628 -4.8041  2.9659  1.8221
  780MOL0     H 5268   0.058   4.195   3.591 -4.8961 -0.3081 -2.9453
  780MOL0     H 5269   0.042   4.086   3.458 -0.2132  2.3004 -0.7181
  780MOL0     H 5270   0.079   3.960   3.727  1.1599  0.2031 -1.6907
  780MOL0     H 5271   0.023   3.894   3.577 -1.7111  0.7290 -0.7038
  780MOL0     H 5272  -0.123   4.118   3.733  4.1958 -1.2575  0.0990
  780MOL0     H 5273  -0.191   4.048   3.588 -2.3558  1.0952  1.3237
  780MOL0     H 5274  -0.210   3.961   3.862 -1.4534  1.5382 -0.7649
  780MOL0     H 5275  -0.152   3.830   3.766  1.6200  1.1883  0.9937
  780MOL0     H 5276  -0.335   3.855   3.613  1.3243 -0.7970 -0.1954
  780MOL0     H 5277  -0.395   3.827   3.775  1.0631  0.9109  0.7450
  780MOL0     H 5278  -0.389   4.117   3.683 -1.5884 -0.0919 -4.1448
  780MOL0     H 5279  -0.477   4.047   3.820 -0.1878  0.5899 -0.2731
  780MOL0     H 5280  -0.638   4.075   3.620  0.4091  0.2273 -0.9331
  780MOL0     H 5281  -0.609   3.905   3.645 -0.7164  0.5433  2.7492
  780MOL0     H 5282   0.525   4.017   3.336  1.9277  0.4496 -0.6888
  780MOL0     H 5283   0.731   4.152   3.349  1.7653  3.8235 -0.5931
  780MOL0     H 5284   0.806   4.654   3.349  0.2617  3.3871  1.8151
  780MOL0     H 5285   0.934   4.824   3.337 -4.5854 -2.3931  0.3616
  780MOL0     H 5286   1.534   4.833   2.083 -1.6992 -0.4362  2.3241
  780MOL0     H 5287   1.740   4.804   1.968 -1.5587  0.6607 -0.2703
  780MOL0     H 5288   2.156   5.020   1.819 -1.2368 -0.0536 -0.0465
  780MOL0     H 5289   2.379   4.979   1.733 -1.7660  0.9536 -0.0666
  780MOL0     H 5290   2.743   4.773   1.819 -0.4365 -0.2922  1.9601
  780MOL0     H 5291   2.639   4.664   1.902 -3.0978  1.0583  1.7572
  780MOL0     H 5292   2.498   4.636   1.698 -0.1316  1.6213  0.7773
  780MOL0     H 5293   2.665   4.578   1.672  3.2521  1.3627 -1.5440
  780MOL0     H 5294   2.704   4.820   1.555 -0.4737  1.9723  1.2103
  780MOL0     H 5295   2.539   4.848   1.582 -0.3351 -0.5895 -0.8293
  780MOL0     H 5296   2.571   4.763   1.350 -4.2863  1.5974  1.3406
  780MOL0     H 5297   2.449   4.695   1.445 -0.6801 -0.0020 -2.0656
  780MOL0     H 5298   2.708   4.368   1.380  0.6585  0.2321  1.8445
  780MOL0     H 5299   2.465   4.710   2.054 -0.9455  2.6969  2.7575
  780MOL0     H 5300   2.232   4.727   2.131 -1.9497 -1.6501 -0.7723
  781MOL0     O 5301  10.680   6.740   7.785 -0.0893  0.4957 -0.6220
  781MOL0     C 5302  10.717   6.718   7.899  0.4830 -0.0101  0.2506
  781MOL0     O 5303  10.641   6.733   8.008 -0.3630  1.0040  0.2767
  781MOL0     C 5304  10.524   6.801   8.017  0.8787  0.4030  0.3343
  781MOL0     C 5305  10.448   6.789   8.139 -0.1399  0.0008  0.3321
  781MOL0     C 5306  10.327   6.861   8.150  0.1289 -0.3441  0.7033
  781MOL0     C 5307  10.274   6.943   8.039  0.0823  0.0848 -0.2234
  781MOL0     O 5308  10.160   7.009   8.032  0.2134 -0.5333 -0.1762
  781MOL0     C 5309  10.048   6.951   8.094 -0.2243  0.3681 -0.3185
  781MOL0     C 5310   9.921   6.969   8.012 -0.2062  0.2488 -0.6955
  781MOL0     C 5311   9.866   7.114   8.008  0.9739 -0.8118  0.0677
  781MOL0     C 5312   9.743   7.116   7.912  0.1974  0.2539 -0.0600
  781MOL0     C 5313   9.675   7.259   7.910 -0.2937 -0.6789 -0.2146
  781MOL0     C 5314   9.586   7.290   7.785 -0.1455  1.0819 -0.5200
  781MOL0     C 5315   9.489   7.414   7.812 -0.5279 -0.5452  1.1088
  781MOL0     C 5316   9.571   7.531   7.868  0.8865  0.5690  0.6823
  781MOL0     N 5317   9.495   7.645   7.844 -0.0113  0.3195 -0.3893
  781MOL0     C 5318   9.494   7.737   7.739  0.1365 -0.7342  0.6058
  781MOL0     C 5319   9.418   7.846   7.777 -0.2578 -0.0172 -0.4513
  781MOL0     C 5320   9.420   7.979   7.703 -0.9494 -0.2778 -0.0624
  781MOL0     C 5321   9.293   8.019   7.643 -0.4269  0.5954 -0.3026
  781MOL0     C 5322   9.235   7.915   7.541 -0.2498 -0.4157  0.9142
  781MOL0     C 5323   9.108   7.969   7.474  0.2953 -0.6441  0.1403
  781MOL0     O 5324   8.975   7.921   7.522 -0.4820 -0.1727  0.0612
  781MOL0     C 5325   8.916   7.820   7.452 -0.3741  0.6938 -0.5135
  781MOL0     C 5326   8.982   7.717   7.391  0.4511  0.3088  0.2591
  781MOL0     C 5327   8.899   7.624   7.318 -0.0381  0.0270 -0.6799
  781MOL0     C 5328   8.972   7.516   7.233 -0.1230 -0.4239 -0.3866
  781MOL0     C 5329   8.761   7.617   7.334 -0.1422 -0.2928 -0.8890
  781MOL0     C 5330   8.677   7.514   7.272  0.0237 -1.0986 -0.2532
  781MOL0     O 5331   8.550   7.561   7.249  0.2326  0.2374  0.1920
  781MOL0     C 5332   8.445   7.476   7.235 -0.0048 -0.1857  0.2905
  781MOL0     C 5333   8.424   7.356   7.310 -0.0016  0.9899 -0.5405
  781MOL0     C 5334   8.315   7.276   7.303  0.1829  0.0631  0.0111
  781MOL0     C 5335   8.205   7.314   7.230 -0.0166 -0.6197  0.0708
  781MOL0     O 5336   8.089   7.237   7.244 -0.5233 -0.6351 -0.2731
  781MOL0     C 5337   8.006   7.226   7.134  0.8123  0.9620 -0.4851
  781MOL0     C 5338   7.899   7.130   7.176  0.2075  0.4003 -0.5074
  781MOL0     C 5339   7.940   6.980   7.171  0.3461 -0.4134 -0.2457
  781MOL0     C 5340   7.819   6.899   7.203 -0.2630  1.0372  0.1514
  781MOL0     C 5341   7.856   6.744   7.212  0.1095 -1.3831 -0.3459
  781MOL0     C 5342   7.732   6.670   7.268  0.5241 -0.7551 -0.7083
  781MOL0     C 5343   7.649   6.650   7.144  0.4569  0.9513  0.4269
  781MOL0     C 5344   7.701   6.532   7.064  0.5347 -1.1760 -0.0514
  781MOL0    Cl 5345   7.561   6.438   6.979  0.1239 -0.1778 -0.0337
  781MOL0     C 5346   8.215   7.436   7.155 -0.1193 -0.9246 -0.7387
  781MOL0     C 5347   8.335   7.508   7.149 -0.7115  0.1578 -0.6361
  781MOL0     O 5348   8.725   7.409   7.255 -0.4421 -0.0824  1.0195
  781MOL0     C 5349   8.704   7.717   7.418 -1.1363 -0.5859 -0.0228
  781MOL0     C 5350   8.777   7.817   7.478 -0.6216  0.9933  0.7527
  781MOL0     N 5351   9.362   7.811   7.902  0.1783 -0.1257  0.4715
  781MOL0     N 5352   9.399   7.687   7.937 -0.0555 -0.0297 -0.1139
  781MOL0     C 5353  10.356   6.950   7.925  0.3125 -0.2730  0.7674
  781MOL0     C 5354  10.480   6.892   7.920 -0.3902 -0.0595  1.1734
  781MOL0     C 5355  10.862   6.687   7.910  0.2960  0.0793 -0.1828
  781MOL0     C 5356  10.933   6.637   7.799 -0.0736  0.3109  0.3639
  781MOL0     C 5357  11.068   6.591   7.813  0.5503  0.5199  0.7480
  781MOL0     C 5358  11.132   6.590   7.934  0.2409 -0.2296 -0.3293
  781MOL0     O 5359  11.260   6.534   7.952 -0.0426 -0.2533  1.0167
  781MOL0     C 5360  11.345   6.563   8.066  0.4478  0.0020  0.6864
  781MOL0     C 5361  11.402   6.699   8.062 -1.2390 -0.1039  0.8764
  781MOL0     C 5362  11.474   6.737   7.932  1.1514  0.0752 -0.6221
  781MOL0     C 5363  11.544   6.869   7.956 -1.0697 -0.0637  0.0366
  781MOL0     C 5364  11.675   6.869   7.892  0.4841 -1.0832  0.4038
  781MOL0     C 5365  11.784   6.893   7.830 -0.9026  1.2277 -0.0276
  781MOL0     C 5366  11.049   6.622   8.042  0.3503 -0.3035 -0.5820
  781MOL0     C 5367  10.912   6.665   8.032 -0.5462 -0.0517 -1.2685
  781MOL0     H 5368  10.481   6.733   8.226  1.1522  1.5817  0.9259
  781MOL0     H 5369  10.257   6.862   8.232 -3.3272  1.3317 -1.9929
  781MOL0     H 5370  10.061   6.843   8.110 -1.0708  0.1714 -0.8670
  781MOL0     H 5371  10.039   6.993   8.194  1.6483  0.1518 -0.0371
  781MOL0     H 5372   9.939   6.924   7.914  3.7052  2.0315 -0.9891
  781MOL0     H 5373   9.840   6.919   8.066 -0.3094 -0.6815 -1.6745
  781MOL0     H 5374   9.829   7.143   8.107 -2.7664 -0.7646 -1.1693
  781MOL0     H 5375   9.931   7.199   7.983 -2.4678  2.1690  0.2858
  781MOL0     H 5376   9.787   7.088   7.816  2.0001  1.1027  0.4823
  781MOL0     H 5377   9.669   7.042   7.946  1.6199 -1.3569 -0.3005
  781MOL0     H 5378   9.614   7.276   8.000  1.9973 -0.2263  1.3425
  781MOL0     H 5379   9.753   7.333   7.926  0.2523 -1.2121 -0.3482
  781MOL0     H 5380   9.641   7.310   7.692  0.5229  0.6272 -0.2330
  781MOL0     H 5381   9.529   7.201   7.755  1.1535  0.6369 -1.8217
  781MOL0     H 5382   9.449   7.451   7.717 -0.8637 -1.0993  1.0302
  781MOL0     H 5383   9.413   7.393   7.888  0.2117 -1.2164  1.6804
  781MOL0     H 5384   9.667   7.541   7.816  0.1673  2.9150 -0.2841
  781MOL0     H 5385   9.586   7.504   7.973  3.8293 -2.8481 -0.4056
  781MOL0     H 5386   9.561   7.736   7.653 -0.6725 -3.2929 -0.0964
  781MOL0     H 5387   9.473   8.048   7.769 -1.4123  1.8237 -1.7612
  781MOL0     H 5388   9.497   7.969   7.626  1.5366  0.9860  2.0965
  781MOL0     H 5389   9.318   8.119   7.606 -1.1489  1.3115  1.0843
  781MOL0     H 5390   9.222   8.024   7.726  2.4986  0.0377  2.4251
  781MOL0     H 5391   9.219   7.816   7.583 -0.2970 -0.2920  1.1917
  781MOL0     H 5392   9.308   7.903   7.461 -1.0022  2.7677 -0.4097
  781MOL0     H 5393   9.111   7.939   7.369  0.6620 -0.0188 -0.0327
  781MOL0     H 5394   9.116   8.078   7.474  1.6516 -0.7241  0.4738
  781MOL0     H 5395   9.090   7.713   7.398  0.5606  2.7176  0.8548
  781MOL0     H 5396   9.080   7.534   7.231 -0.1040 -0.6024 -1.3309
  781MOL0     H 5397   8.956   7.413   7.266  1.6380 -1.2257 -1.8378
  781MOL0     H 5398   8.943   7.528   7.128 -2.1299  3.4525  0.4035
  781MOL0     H 5399   8.502   7.314   7.372 -1.2957 -1.6833 -0.6061
  781MOL0     H 5400   8.308   7.187   7.364 -1.3650  0.2269  0.1151
  781MOL0     H 5401   7.967   7.324   7.106  3.3027  1.7453 -1.4898
  781MOL0     H 5402   8.065   7.183   7.052  2.4446 -2.0775  2.0673
  781MOL0     H 5403   7.854   7.152   7.274  0.2925 -0.6897 -0.2146
  781MOL0     H 5404   7.813   7.132   7.109  0.7393 -1.4261 -1.2956
  781MOL0     H 5405   8.027   6.956   7.233 -0.2337  0.0823  0.7819
  781MOL0     H 5406   7.965   6.953   7.068  3.5188  0.0608  0.3004
  781MOL0     H 5407   7.792   6.940   7.300  3.3401  0.1958  1.6426
  781MOL0     H 5408   7.742   6.909   7.125  2.1622  0.3498 -2.5293
  781MOL0     H 5409   7.938   6.747   7.284  1.2149  2.1597 -1.5652
  781MOL0     H 5410   7.903   6.713   7.118 -1.3644 -1.8050 -0.9710
  781MOL0     H 5411   7.753   6.574   7.316  0.0120 -0.2938  0.4750
  781MOL0     H 5412   7.678   6.739   7.334  0.8772  2.4852 -3.5026
  781MOL0     H 5413   7.642   6.731   7.072  1.1494  0.4104 -0.2693
  781MOL0     H 5414   7.547   6.627   7.176  0.6534 -1.4878 -0.4734
  781MOL0     H 5415   7.756   6.465   7.131 -1.5584 -0.7626  2.2265
  781MOL0     H 5416   7.764   6.578   6.987  0.3453 -0.5155  0.1857
  781MOL0     H 5417   8.125   7.478   7.111 -0.0041 -0.1245 -0.2384
  781MOL0     H 5418   8.326   7.600   7.092  0.7414  2.2918  2.3089
  781MOL0     H 5419   8.596   7.718   7.431 -1.0445 -0.7341  0.7864
  781MOL0     H 5420   8.735   7.886   7.550 -1.7651  0.6815  0.3982
  781MOL0     H 5421  10.312   7.005   7.843  1.6858 -1.4582 -0.8182
  781MOL0     H 5422  10.532   6.913   7.827  0.5596 -1.6370  1.3175
  781MOL0     H 5423  10.881   6.625   7.704 -0.9115 -0.7796  0.9302
  781MOL0     H 5424  11.107   6.565   7.715 -2.0343 -1.1747  0.0792
  781MOL0     H 5425  11.288   6.560   8.159 -0.9031 -0.0546 -0.1005
  781MOL0     H 5426  11.422   6.486   8.068 -0.8700 -1.3427  1.4117
  781MOL0     H 5427  11.477   6.708   8.140  0.8366 -2.3419 -0.7147
  781MOL0     H 5428  11.339   6.787   8.077  3.3995  3.7965  0.1049
  781MOL0     H 5429  11.407   6.734   7.846  0.1664 -0.6188  0.1412
  781MOL0     H 5430  11.548   6.660   7.907  1.8053  0.8799 -1.1966
  781MOL0     H 5431  11.564   6.882   8.062 -3.3874 -1.2577  0.6937
  781MOL0     H 5432  11.499   6.960   7.916  0.3953 -0.1714 -2.0380
  781MOL0     H 5433  11.876   6.908   7.777  0.2818 -1.4019  1.0925
  781MOL0     H 5434  11.073   6.606   8.147 -0.5620  0.2909 -0.2793
  781MOL0     H 5435  10.850   6.664   8.121  0.9163  0.3090 -0.2122
  782MOL0     O 5436  10.155   2.511   4.987 -0.3563 -0.0408 -0.3135
  782MOL0     C 5437  10.174   2.402   4.933 -0.8016 -0.0421  0.4882
  782MOL0     O 5438  10.092   2.336   4.839 -0.4611 -0.5375  0.3380
  782MOL0     C 5439   9.974   2.408   4.815  0.5490  0.5592  1.4449
  782MOL0     C 5440   9.957   2.481   4.692 -0.7148  0.4695  0.7160
  782MOL0     C 5441   9.846   2.545   4.655  0.3579  1.0624 -0.3496
  782MOL0     C 5442   9.738   2.555   4.739 -0.4013  0.0660 -0.6327
  782MOL0     O 5443   9.624   2.613   4.694 -0.8230  0.4517 -0.1455
  782MOL0     C 5444   9.499   2.624   4.770  0.3485  0.2014  0.2610
  782MOL0     C 5445   9.423   2.493   4.805 -0.0818 -0.3950 -0.3521
  782MOL0     C 5446   9.278   2.529   4.817  0.7610  0.5097 -0.0465
  782MOL0     C 5447   9.204   2.395   4.817 -0.1273 -0.1034 -0.1392
  782MOL0     C 5448   9.053   2.419   4.836  0.6536  0.1129 -0.2255
  782MOL0     C 5449   8.954   2.303   4.807 -0.1685  0.2799 -0.3203
  782MOL0     C 5450   8.811   2.341   4.841 -0.0496  0.4158  0.4637
  782MOL0     C 5451   8.711   2.232   4.803  0.2830 -0.1210 -0.6720
  782MOL0     N 5452   8.587   2.294   4.757  0.2884 -0.9321 -0.2929
  782MOL0     C 5453   8.548   2.326   4.628  0.2123  0.5317  0.3901
  782MOL0     C 5454   8.413   2.356   4.648 -0.3147  0.4026 -0.0123
  782MOL0     C 5455   8.314   2.381   4.539 -0.9200 -1.1704 -0.5315
  782MOL0     C 5456   8.339   2.278   4.423  1.0572  0.0757 -0.9732
  782MOL0     C 5457   8.233   2.272   4.313  0.7601  0.0817  0.1524
  782MOL0     C 5458   8.245   2.409   4.234 -0.6483  0.5830 -0.2059
  782MOL0     O 5459   8.186   2.521   4.304 -0.2570 -0.0323  0.4752
  782MOL0     C 5460   8.067   2.570   4.259  0.6674 -0.2492  0.5363
  782MOL0     C 5461   8.053   2.678   4.167 -0.4448  1.1275  0.9473
  782MOL0     C 5462   7.924   2.736   4.143 -0.7240 -0.2276 -0.4335
  782MOL0     C 5463   7.929   2.855   4.046 -0.9301 -0.5471 -0.4982
  782MOL0     C 5464   7.809   2.684   4.198 -0.2292 -0.3181  0.3693
  782MOL0     C 5465   7.671   2.740   4.165  0.4867  0.4088 -0.0274
  782MOL0     O 5466   7.656   2.802   4.045 -0.7719  0.5482  0.0085
  782MOL0     C 5467   7.529   2.817   3.992 -0.2197  0.5845  0.1627
  782MOL0     C 5468   7.475   2.730   3.905  0.5719  0.4462  1.0448
  782MOL0     C 5469   7.342   2.734   3.867  0.5159  0.0135  0.8854
  782MOL0     C 5470   7.269   2.838   3.912  0.4651  0.3635  0.0982
  782MOL0     O 5471   7.133   2.842   3.895 -1.1102 -0.1146  0.4374
  782MOL0     C 5472   7.065   2.725   3.831 -0.6953  0.3542  0.0641
  782MOL0     C 5473   6.918   2.743   3.840  0.3402 -0.0132  0.2567
  782MOL0     C 5474   6.838   2.612   3.810 -0.4285  0.2291  0.4895
  782MOL0     C 5475   6.696   2.625   3.834 -1.3532  0.1509 -0.0323
  782MOL0     C 5476   6.619   2.504   3.784 -0.9041  0.0465  0.6101
  782MOL0     C 5477   6.464   2.533   3.754  0.4726 -0.4338  0.4422
  782MOL0     C 5478   6.463   2.606   3.619 -0.5293 -0.2469  0.2199
  782MOL0     C 5479   6.329   2.677   3.593  0.2054 -0.1799 -0.4524
  782MOL0    Cl 5480   6.313   2.813   3.711 -0.4559  0.1320 -0.0537
  782MOL0     C 5481   7.321   2.935   3.997 -0.1442  0.6038 -0.3048
  782MOL0     C 5482   7.453   2.921   4.041 -0.3390 -0.3049  0.0676
  782MOL0     O 5483   7.580   2.728   4.251 -0.2816  0.1589  0.4879
  782MOL0     C 5484   7.823   2.586   4.297  0.6836 -0.3951 -0.0574
  782MOL0     C 5485   7.950   2.530   4.325  0.6977 -0.8151 -0.3137
  782MOL0     N 5486   8.374   2.333   4.775 -0.2130  0.6802 -0.2936
  782MOL0     N 5487   8.477   2.287   4.830  0.4583 -0.0366 -0.3929
  782MOL0     C 5488   9.755   2.497   4.865 -0.5119  0.4052 -0.7275
  782MOL0     C 5489   9.868   2.419   4.904 -0.1783  0.1126  0.8423
  782MOL0     C 5490  10.303   2.332   4.964  0.6321  0.0844  0.2710
  782MOL0     C 5491  10.423   2.394   5.017  0.6094  0.2941 -0.2492
  782MOL0     C 5492  10.544   2.322   5.016  0.0927  0.3393  0.7448
  782MOL0     C 5493  10.553   2.182   4.991 -0.1823 -0.2760 -0.0064
  782MOL0     O 5494  10.666   2.102   4.985 -0.5144  0.1831  0.6601
  782MOL0     C 5495  10.764   2.123   5.083 -0.0836 -0.5497  0.3509
  782MOL0     C 5496  10.880   2.020   5.075 -0.3292 -0.1829  0.4634
  782MOL0     C 5497  10.953   2.016   4.945  0.0480 -0.0303 -0.0148
  782MOL0     C 5498  11.035   1.890   4.935  0.1114  0.6463 -1.1247
  782MOL0     C 5499  11.179   1.909   4.964 -0.3694 -0.4624  0.0590
  782MOL0     C 5500  11.285   1.928   5.030 -0.8090 -0.3672  0.6100
  782MOL0     C 5501  10.438   2.126   4.943  0.8458 -0.3379 -0.0948
  782MOL0     C 5502  10.320   2.200   4.923 -0.3054  0.4626 -0.0450
  782MOL0     H 5503  10.021   2.472   4.605  3.0055  0.9589  3.2085
  782MOL0     H 5504   9.836   2.588   4.556 -1.5316  1.8757  0.1418
  782MOL0     H 5505   9.524   2.680   4.860 -0.6734  1.0913  0.0196
  782MOL0     H 5506   9.444   2.695   4.708  0.9718  0.6838  0.2569
  782MOL0     H 5507   9.444   2.426   4.721  0.3550  0.4098 -0.8995
  782MOL0     H 5508   9.462   2.450   4.898 -0.5683  1.2146  0.6373
  782MOL0     H 5509   9.246   2.594   4.898 -1.7464 -1.9583  1.1250
  782MOL0     H 5510   9.256   2.575   4.720 -2.8022  1.0943  0.8662
  782MOL0     H 5511   9.208   2.333   4.727 -2.5583  0.1751 -0.5340
  782MOL0     H 5512   9.247   2.329   4.892 -0.7473  1.0435  1.2795
  782MOL0     H 5513   9.033   2.460   4.935  1.9124 -0.7328  0.4100
  782MOL0     H 5514   9.018   2.496   4.766 -0.9834  0.2098  0.6633
  782MOL0     H 5515   8.965   2.270   4.703 -2.3974 -0.0447 -0.5090
  782MOL0     H 5516   8.990   2.221   4.870  4.1308  0.0547 -2.6972
  782MOL0     H 5517   8.792   2.373   4.944 -0.6270  2.8858 -0.3313
  782MOL0     H 5518   8.780   2.426   4.780  0.6542 -0.0276 -0.5355
  782MOL0     H 5519   8.674   2.170   4.886  0.3020  0.9245  0.1361
  782MOL0     H 5520   8.750   2.158   4.732 -1.4248 -2.5217  0.7350
  782MOL0     H 5521   8.605   2.326   4.536  0.1031  0.1873  0.3178
  782MOL0     H 5522   8.214   2.372   4.583 -1.3341 -0.5104 -1.3178
  782MOL0     H 5523   8.329   2.480   4.496 -1.8471 -1.2687 -1.1085
  782MOL0     H 5524   8.338   2.182   4.476  2.3965  0.9412  0.7305
  782MOL0     H 5525   8.438   2.284   4.378  0.3959 -0.8506 -2.6254
  782MOL0     H 5526   8.132   2.266   4.357  0.3483 -1.4788 -0.9060
  782MOL0     H 5527   8.242   2.186   4.246  1.2034 -1.7689  2.4212
  782MOL0     H 5528   8.188   2.401   4.141  0.6168 -3.5183 -0.8294
  782MOL0     H 5529   8.346   2.438   4.204 -0.0937  1.8104  2.4987
  782MOL0     H 5530   8.147   2.723   4.137 -1.6801  1.6924 -2.4129
  782MOL0     H 5531   7.870   2.840   3.954  1.4176 -1.0928 -2.0089
  782MOL0     H 5532   7.888   2.939   4.102  0.0600 -0.3456 -0.0738
  782MOL0     H 5533   8.027   2.872   4.000 -0.4740 -2.5403 -0.3573
  782MOL0     H 5534   7.524   2.640   3.868 -0.0352  0.0794  1.1240
  782MOL0     H 5535   7.300   2.652   3.810 -0.2008 -0.5017  2.1316
  782MOL0     H 5536   7.100   2.719   3.727  1.7135 -1.2573  0.8682
  782MOL0     H 5537   7.093   2.633   3.884 -0.0607  0.5484  0.0747
  782MOL0     H 5538   6.898   2.777   3.942 -0.7481  0.3960 -0.0852
  782MOL0     H 5539   6.897   2.829   3.776  0.5512  1.4096  2.0071
  782MOL0     H 5540   6.880   2.534   3.874 -0.9694  1.6696  2.7117
  782MOL0     H 5541   6.849   2.590   3.703 -1.3190  0.4448  0.3470
  782MOL0     H 5542   6.680   2.636   3.941  0.5930 -1.4655  0.4867
  782MOL0     H 5543   6.668   2.714   3.777 -2.3816 -0.0228  0.1773
  782MOL0     H 5544   6.629   2.428   3.862  0.7287  0.3450  0.7330
  782MOL0     H 5545   6.661   2.457   3.694 -0.3926  0.8848  0.4095
  782MOL0     H 5546   6.404   2.442   3.752 -1.0828  0.5779 -1.5140
  782MOL0     H 5547   6.425   2.602   3.830 -0.2059  1.4996 -1.5732
  782MOL0     H 5548   6.483   2.539   3.534 -0.7544 -1.0670  0.7928
  782MOL0     H 5549   6.543   2.680   3.618 -2.9192  2.5359 -1.8598
  782MOL0     H 5550   6.252   2.601   3.608 -1.7313  1.4965 -1.3868
  782MOL0     H 5551   6.331   2.714   3.490  0.8210 -0.7411 -0.6513
  782MOL0     H 5552   7.260   3.021   4.022 -2.3573 -0.3607 -2.0107
  782MOL0     H 5553   7.500   2.989   4.111  1.0322 -0.1858 -0.9466
  782MOL0     H 5554   7.737   2.555   4.354 -1.9096  2.0550 -2.2998
  782MOL0     H 5555   7.968   2.454   4.400  0.5170 -0.7913 -0.2472
  782MOL0     H 5556   9.673   2.514   4.933 -0.9005  0.3374 -1.1761
  782MOL0     H 5557   9.863   2.388   5.008 -3.6742  3.5670  1.9985
  782MOL0     H 5558  10.410   2.499   5.038 -2.1995 -0.0411  0.0546
  782MOL0     H 5559  10.631   2.384   5.036  1.6932 -1.5524  0.0414
  782MOL0     H 5560  10.809   2.221   5.064 -1.4886 -0.0117 -0.3941
  782MOL0     H 5561  10.721   2.130   5.183 -0.0689  1.1817  0.2561
  782MOL0     H 5562  10.850   1.921   5.111 -2.8987  1.1698  2.3754
  782MOL0     H 5563  10.956   2.065   5.141 -1.4974  1.1151  0.9736
  782MOL0     H 5564  11.009   2.110   4.939 -0.4217  0.1970 -1.0029
  782MOL0     H 5565  10.882   2.008   4.862  1.3126 -1.6696 -1.0108
  782MOL0     H 5566  11.027   1.861   4.830 -1.9810 -0.8235 -0.6132
  782MOL0     H 5567  10.994   1.807   4.993  1.5285 -1.4881 -3.0540
  782MOL0     H 5568  11.378   1.928   5.082  1.3047  1.0074 -2.7881
  782MOL0     H 5569  10.443   2.031   4.890  1.2032  0.9648 -2.5272
  782MOL0     H 5570  10.239   2.157   4.865 -0.9631  3.8640 -1.8575
  783MOL0     O 5571   2.472   0.574   8.358 -0.2210 -0.5457  0.3993
  783MOL0     C 5572   2.457   0.670   8.435 -0.3803 -0.2418 -0.2681
  783MOL0     O 5573   2.348   0.750   8.447  0.2894  0.2930 -0.6989
  783MOL0     C 5574   2.242   0.742   8.362  0.0901 -0.5825 -0.4258
  783MOL0     C 5575   2.121   0.769   8.430  0.7255  0.0354 -0.1589
  783MOL0     C 5576   2.002   0.766   8.356 -0.2943 -0.9449 -0.4645
  783MOL0     C 5577   2.000   0.727   8.227 -0.7066 -0.8866 -0.6236
  783MOL0     O 5578   1.895   0.726   8.150  0.2808 -0.2960 -0.2172
  783MOL0     C 5579   1.865   0.857   8.103  0.1942  1.0954  1.0013
  783MOL0     C 5580   1.731   0.868   8.031 -0.8544  0.2024 -0.4641
  783MOL0     C 5581   1.613   0.792   8.098  0.8774 -0.2515  0.6847
  783MOL0     C 5582   1.543   0.681   8.015  0.1639 -0.1209  0.7870
  783MOL0     C 5583   1.526   0.547   8.088 -0.5313  0.2180  0.1576
  783MOL0     C 5584   1.470   0.423   8.002 -0.3416 -0.0927 -0.1879
  783MOL0     C 5585   1.554   0.357   7.898 -0.0756 -0.3537 -0.1236
  783MOL0     C 5586   1.518   0.221   7.835 -0.3442 -0.5742 -0.4861
  783MOL0     N 5587   1.618   0.177   7.745 -0.2815 -0.0036  0.6415
  783MOL0     C 5588   1.710   0.079   7.765 -0.1961  0.2824  0.1600
  783MOL0     C 5589   1.783   0.083   7.654  1.0821 -1.1357 -0.4005
  783MOL0     C 5590   1.899  -0.008   7.619 -0.3821  0.3781  0.0953
  783MOL0     C 5591   2.025   0.064   7.667 -0.1909 -0.1818  0.4341
  783MOL0     C 5592   2.083   0.171   7.569 -0.3931  1.4103 -0.1301
  783MOL0     C 5593   2.178   0.273   7.653 -0.5561 -0.1133  0.0756
  783MOL0     O 5594   2.263   0.352   7.564  0.1128  0.0376 -0.6049
  783MOL0     C 5595   2.390   0.386   7.621 -0.0980  0.2522  0.4328
  783MOL0     C 5596   2.410   0.447   7.744  0.0931  0.1486  0.2147
  783MOL0     C 5597   2.534   0.494   7.793 -0.5803  0.7789  0.1005
  783MOL0     C 5598   2.525   0.542   7.940  0.3688 -0.8183  0.3733
  783MOL0     C 5599   2.644   0.468   7.717 -0.7926 -0.0946  0.3517
  783MOL0     C 5600   2.779   0.509   7.763  0.7365  0.5708  0.3790
  783MOL0     O 5601   2.801   0.625   7.829 -0.2337  1.0970  0.5959
  783MOL0     C 5602   2.928   0.644   7.868 -0.2984  0.2003  0.2838
  783MOL0     C 5603   2.990   0.570   7.968 -0.2823  0.0896  0.4808
  783MOL0     C 5604   3.124   0.605   8.002  0.5577  0.2118 -0.0287
  783MOL0     C 5605   3.179   0.729   7.958 -0.3243  0.2444 -0.0092
  783MOL0     O 5606   3.291   0.798   7.994  0.2673  0.5702 -0.6219
  783MOL0     C 5607   3.369   0.737   8.098  0.4644  0.9894  0.5509
  783MOL0     C 5608   3.507   0.810   8.085 -0.1119 -0.4286  0.2612
  783MOL0     C 5609   3.617   0.737   8.172  0.6653 -0.3605  1.1085
  783MOL0     C 5610   3.742   0.827   8.199 -0.0333  0.0591 -0.2298
  783MOL0     C 5611   3.883   0.761   8.218 -0.1880  0.3712  0.5012
  783MOL0     C 5612   3.986   0.866   8.254  0.1621 -0.2841  0.0271
  783MOL0     C 5613   4.133   0.824   8.295  0.9925 -0.1975  0.6971
  783MOL0     C 5614   4.243   0.858   8.193  0.4010  0.1127 -0.5351
  783MOL0    Cl 5615   4.202   0.805   8.030  0.2064  0.1365  0.0896
  783MOL0     C 5616   3.110   0.798   7.868  0.1225  0.0536  0.0194
  783MOL0     C 5617   2.984   0.762   7.819 -0.1635  0.3341  0.7694
  783MOL0     O 5618   2.862   0.421   7.734 -0.1783 -0.2693 -0.0247
  783MOL0     C 5619   2.633   0.403   7.588 -0.5615 -0.5054 -0.1613
  783MOL0     C 5620   2.509   0.360   7.544  0.3880 -0.6495 -0.0761
  783MOL0     N 5621   1.735   0.183   7.573  0.1356  0.0002 -1.2455
  783MOL0     N 5622   1.633   0.237   7.625 -0.8578  0.0931  0.1225
  783MOL0     C 5623   2.125   0.707   8.160  0.5128 -0.1402 -0.8794
  783MOL0     C 5624   2.244   0.702   8.228  0.0040 -0.4453 -0.2783
  783MOL0     C 5625   2.568   0.706   8.527 -0.2309  0.2353  0.4443
  783MOL0     C 5626   2.695   0.642   8.516 -0.3193  1.1495  1.3751
  783MOL0     C 5627   2.802   0.680   8.598 -0.9914  0.1342 -0.3527
  783MOL0     C 5628   2.789   0.794   8.687 -0.3579 -0.4070  0.5537
  783MOL0     O 5629   2.879   0.850   8.772 -0.9469 -0.1743  0.2005
  783MOL0     C 5630   3.009   0.787   8.766  0.8269  0.7293  1.0002
  783MOL0     C 5631   3.106   0.831   8.871  0.2152  0.2661  0.5904
  783MOL0     C 5632   3.136   0.983   8.852  0.6526  0.7305  0.2760
  783MOL0     C 5633   3.248   1.046   8.929  0.3414  0.5057 -0.1055
  783MOL0     C 5634   3.378   1.000   8.883  0.2333 -0.4737  0.2976
  783MOL0     C 5635   3.492   0.984   8.837 -0.8976 -0.2632 -0.1128
  783MOL0     C 5636   2.668   0.861   8.676 -0.2380 -1.0220 -1.4931
  783MOL0     C 5637   2.559   0.822   8.608 -0.3514  0.4580  0.2489
  783MOL0     H 5638   2.119   0.802   8.533  2.1784 -0.0557 -0.0752
  783MOL0     H 5639   1.913   0.793   8.412  0.3189  1.7938 -0.6772
  783MOL0     H 5640   1.861   0.929   8.185 -2.5478  2.4029 -0.1279
  783MOL0     H 5641   1.946   0.893   8.039  1.1116 -0.3088  1.3459
  783MOL0     H 5642   1.715   0.976   8.037  0.9157  0.4113  1.5268
  783MOL0     H 5643   1.749   0.837   7.927  2.9702  0.1091  0.0695
  783MOL0     H 5644   1.633   0.754   8.199  1.7621 -1.3565  0.1190
  783MOL0     H 5645   1.533   0.865   8.111  1.0205 -0.0686  0.5319
  783MOL0     H 5646   1.442   0.705   7.982  0.6712  2.3379  0.8041
  783MOL0     H 5647   1.610   0.673   7.929  1.4812  1.2357  1.6369
  783MOL0     H 5648   1.625   0.521   8.128 -0.5571  1.9090  1.4169
  783MOL0     H 5649   1.464   0.562   8.176  1.0239  2.2232  1.0073
  783MOL0     H 5650   1.438   0.348   8.075 -0.3498 -1.5434 -1.6173
  783MOL0     H 5651   1.377   0.441   7.947  0.0283 -1.9911 -1.5515
  783MOL0     H 5652   1.576   0.425   7.816 -3.5527  3.3675  1.6753
  783MOL0     H 5653   1.651   0.341   7.946 -0.8334 -1.0690  1.2172
  783MOL0     H 5654   1.424   0.242   7.783 -1.4167 -0.3547  1.4489
  783MOL0     H 5655   1.499   0.150   7.915 -2.9002 -0.8536 -1.2490
  783MOL0     H 5656   1.727   0.014   7.850  1.9442 -0.5533 -0.8395
  783MOL0     H 5657   1.898  -0.097   7.683 -0.5996  0.1217 -0.2632
  783MOL0     H 5658   1.907  -0.033   7.513 -0.0086 -0.3948  0.2919
  783MOL0     H 5659   2.108  -0.006   7.681 -0.5880 -0.4885  1.3356
  783MOL0     H 5660   2.014   0.122   7.759  3.1388 -0.5954  1.2331
  783MOL0     H 5661   1.999   0.216   7.515 -1.0378  0.2999 -0.0737
  783MOL0     H 5662   2.137   0.113   7.494 -0.6664  0.4129  0.4373
  783MOL0     H 5663   2.241   0.217   7.723  1.6046 -1.0898 -2.4581
  783MOL0     H 5664   2.117   0.339   7.715  2.3069 -0.2212  3.2652
  783MOL0     H 5665   2.317   0.465   7.798  1.0089  2.0612  1.2453
  783MOL0     H 5666   2.592   0.627   7.953  0.4371 -1.2027  3.0655
  783MOL0     H 5667   2.426   0.575   7.972  0.3283  0.4405 -0.9258
  783MOL0     H 5668   2.566   0.463   8.004  2.0724 -0.4059 -0.1660
  783MOL0     H 5669   2.935   0.491   8.018 -0.9028  0.7882  0.9442
  783MOL0     H 5670   3.184   0.535   8.059  2.2698  1.5428 -0.1208
  783MOL0     H 5671   3.340   0.751   8.203  1.7114 -2.2708  1.4809
  783MOL0     H 5672   3.399   0.633   8.079  2.1529  1.8925 -2.3085
  783MOL0     H 5673   3.542   0.815   7.981 -0.5046 -0.1923  0.1384
  783MOL0     H 5674   3.483   0.912   8.117 -2.7908 -0.0301 -2.5543
  783MOL0     H 5675   3.659   0.654   8.115  0.7191 -0.2428  0.9769
  783MOL0     H 5676   3.568   0.704   8.264  0.4968  0.9929  1.5268
  783MOL0     H 5677   3.746   0.876   8.102 -1.8349 -2.8584 -1.9329
  783MOL0     H 5678   3.714   0.898   8.278 -1.1291 -1.5315  0.8707
  783MOL0     H 5679   3.934   0.725   8.128  0.0670 -0.7387  1.0719
  783MOL0     H 5680   3.888   0.686   8.297 -0.6247 -0.9627 -0.6912
  783MOL0     H 5681   3.995   0.944   8.178  3.3476  0.3819  0.9495
  783MOL0     H 5682   3.948   0.918   8.343  1.3901  0.9355 -0.1353
  783MOL0     H 5683   4.121   0.715   8.304 -1.7926  0.0917  1.4091
  783MOL0     H 5684   4.171   0.874   8.384 -0.6900  1.3882  0.5790
  783MOL0     H 5685   4.332   0.808   8.232 -0.9643 -0.8832  1.4687
  783MOL0     H 5686   4.260   0.966   8.187 -1.2688  0.3773 -1.1593
  783MOL0     H 5687   3.147   0.895   7.836 -0.4309 -0.5237 -2.6318
  783MOL0     H 5688   2.942   0.818   7.736 -2.6651 -1.6511  0.5606
  783MOL0     H 5689   2.723   0.390   7.529  0.9656 -2.1635  2.3578
  783MOL0     H 5690   2.496   0.327   7.441 -4.0202 -0.1214  0.0952
  783MOL0     H 5691   2.134   0.673   8.058  3.2221 -1.5981 -0.2474
  783MOL0     H 5692   2.337   0.678   8.177 -0.9909  0.5619 -2.7701
  783MOL0     H 5693   2.702   0.556   8.450  0.3559  0.7088  2.0089
  783MOL0     H 5694   2.887   0.613   8.595  0.4585  1.9089 -0.4835
  783MOL0     H 5695   2.986   0.684   8.793 -0.8498 -0.6096 -4.3632
  783MOL0     H 5696   3.064   0.786   8.672  1.2253  1.6111  1.2066
  783MOL0     H 5697   3.197   0.771   8.859 -0.0667 -0.5686  2.2682
  783MOL0     H 5698   3.063   0.805   8.968  3.8056 -0.1428  2.2587
  783MOL0     H 5699   3.040   1.027   8.880 -0.2148 -1.2994  0.7308
  783MOL0     H 5700   3.164   1.003   8.749  3.2351 -2.4508  0.1684
  783MOL0     H 5701   3.234   1.026   9.036  0.9468 -2.0485 -0.4369
  783MOL0     H 5702   3.255   1.155   8.921 -0.8225  0.7942  1.9085
  783MOL0     H 5703   3.582   0.977   8.779  0.8274 -3.3284  2.5598
  783MOL0     H 5704   2.661   0.947   8.742  0.8635 -0.9359 -1.4697
  783MOL0     H 5705   2.475   0.890   8.618  0.4755  1.8280 -1.5198
  784MOL0     O 5706  10.888   9.509   3.693 -0.2389  0.5917 -0.1297
  784MOL0     C 5707  10.863   9.596   3.616  0.4801 -0.5543  0.2355
  784MOL0     O 5708  10.955   9.673   3.550  0.6957 -0.0565 -0.4613
  784MOL0     C 5709  11.090   9.676   3.583 -0.2096 -0.5312  0.6226
  784MOL0     C 5710  11.156   9.625   3.685  0.5125 -0.3353  0.6051
  784MOL0     C 5711  11.297   9.637   3.696  0.0553  0.3155  0.5148
  784MOL0     C 5712  11.371   9.724   3.610 -0.4342  0.4443  0.0814
  784MOL0     O 5713  11.507   9.728   3.629  0.2768 -0.7345 -0.8025
  784MOL0     C 5714  11.591   9.801   3.540  0.4021  0.5630  0.4167
  784MOL0     C 5715  11.741   9.766   3.562 -0.5142 -0.3460  0.1784
  784MOL0     C 5716  11.833   9.864   3.485 -0.7533 -0.7885  1.1844
  784MOL0     C 5717  11.832  10.004   3.537  0.4778  0.7263 -0.4822
  784MOL0     C 5718  11.957  10.072   3.502 -0.7640 -1.0698 -0.0836
  784MOL0     C 5719  12.070  10.062   3.604  0.6658 -0.0103 -0.2332
  784MOL0     C 5720  12.199  10.124   3.546 -0.5899 -0.8730  0.6923
  784MOL0     C 5721  12.327  10.100   3.626 -0.1106  0.1939 -0.3929
  784MOL0     N 5722  12.453  10.123   3.544  0.1043 -0.2424 -0.7457
  784MOL0     C 5723  12.470  10.156   3.413 -1.0617  0.3621 -0.5581
  784MOL0     C 5724  12.601  10.131   3.382  0.4012  0.1475 -0.0010
  784MOL0     C 5725  12.691  10.139   3.262  1.0894  0.4047  1.0550
  784MOL0     C 5726  12.613  10.105   3.136  0.2806  1.1180  0.2915
  784MOL0     C 5727  12.702  10.115   3.016 -0.7896 -0.7175  0.7745
  784MOL0     C 5728  12.619  10.092   2.896 -0.2153  0.4035 -0.5195
  784MOL0     O 5729  12.532  10.201   2.875 -0.1042 -0.2964  0.1728
  784MOL0     C 5730  12.394  10.191   2.874 -0.2233 -0.0504 -0.3694
  784MOL0     C 5731  12.321  10.306   2.891 -0.9348 -0.4735 -0.0799
  784MOL0     C 5732  12.192  10.316   2.871 -0.1378 -0.0173 -0.0643
  784MOL0     C 5733  12.115  10.447   2.895 -0.4183 -0.5160  0.0863
  784MOL0     C 5734  12.118  10.205   2.825 -0.7377  0.2685  0.6760
  784MOL0     C 5735  11.967  10.199   2.792 -0.6486  0.1693  0.6864
  784MOL0     O 5736  11.925  10.088   2.727 -0.7810 -0.4029  0.0706
  784MOL0     C 5737  11.796  10.040   2.734 -1.1514  0.2647  0.4835
  784MOL0     C 5738  11.735  10.034   2.856 -0.0225  0.2574  1.0221
  784MOL0     C 5739  11.602   9.995   2.855  0.4000 -0.2162  0.4714
  784MOL0     C 5740  11.525   9.978   2.743  0.2681 -0.1853 -0.2319
  784MOL0     O 5741  11.394   9.929   2.728  0.0313  0.3320 -0.2812
  784MOL0     C 5742  11.333   9.866   2.844  0.4896 -0.3602  0.1017
  784MOL0     C 5743  11.173   9.873   2.829  0.3576 -0.3629  0.3084
  784MOL0     C 5744  11.120   9.807   2.701  0.2335 -0.3070  0.6555
  784MOL0     C 5745  10.977   9.840   2.700  0.8327  0.4374  0.4067
  784MOL0     C 5746  10.914   9.762   2.577  0.0870  0.4986 -0.3240
  784MOL0     C 5747  10.762   9.790   2.567 -0.1730 -0.8232 -0.8622
  784MOL0     C 5748  10.675   9.701   2.655 -0.1145 -0.4407  0.3305
  784MOL0     C 5749  10.529   9.723   2.628  0.1406  0.8597  0.0636
  784MOL0    Cl 5750  10.468   9.884   2.682 -0.4447  0.5283 -0.1784
  784MOL0     C 5751  11.599   9.985   2.626 -0.2998  0.7511  0.2239
  784MOL0     C 5752  11.733  10.013   2.619 -0.4258 -0.1782 -0.0774
  784MOL0     O 5753  11.897  10.291   2.827  0.1674  0.0507  0.4557
  784MOL0     C 5754  12.187  10.089   2.806  0.7024 -0.1137 -0.7850
  784MOL0     C 5755  12.322  10.078   2.827  0.1979  0.0696  0.2738
  784MOL0     N 5756  12.668  10.096   3.497  0.1897  0.0662  0.4134
  784MOL0     N 5757  12.580  10.096   3.588 -0.1245 -0.3552 -0.9873
  784MOL0     C 5758  11.297   9.779   3.506  0.6713 -0.0312  0.5319
  784MOL0     C 5759  11.157   9.751   3.496  0.4570 -0.4569  0.7564
  784MOL0     C 5760  10.721   9.610   3.574 -0.1757 -0.3123 -0.5316
  784MOL0     C 5761  10.693   9.650   3.443  0.0940 -1.1551 -0.2312
  784MOL0     C 5762  10.563   9.696   3.407  0.1698 -0.3718  0.7050
  784MOL0     C 5763  10.457   9.684   3.502  0.0364 -1.0949  0.4933
  784MOL0     O 5764  10.328   9.715   3.461 -0.0676  0.3234 -0.1398
  784MOL0     C 5765  10.230   9.616   3.464 -1.1292  0.1944  0.2780
  784MOL0     C 5766  10.086   9.653   3.414 -0.0425 -0.0777 -0.0599
  784MOL0     C 5767   9.986   9.544   3.454  0.0887 -0.0670  0.4322
  784MOL0     C 5768   9.976   9.525   3.598  0.9238  0.3334 -0.3893
  784MOL0     C 5769   9.852   9.451   3.630 -0.6064  0.3874 -0.2741
  784MOL0     C 5770   9.747   9.395   3.659 -0.3542 -0.0517  0.2380
  784MOL0     C 5771  10.482   9.631   3.632 -0.3988 -0.0454  0.3494
  784MOL0     C 5772  10.615   9.593   3.667 -0.3281 -1.1040 -0.8433
  784MOL0     H 5773  11.103   9.561   3.755  0.6878 -1.7422 -0.4868
  784MOL0     H 5774  11.351   9.595   3.781  4.7688  3.4373 -0.5399
  784MOL0     H 5775  11.567   9.780   3.435 -0.3349 -1.9778  1.0150
  784MOL0     H 5776  11.574   9.907   3.561  0.6304  0.5920  0.4557
  784MOL0     H 5777  11.763   9.769   3.669  0.9961  1.5896 -0.1313
  784MOL0     H 5778  11.759   9.667   3.520  1.2103 -0.3388  0.8210
  784MOL0     H 5779  11.929   9.812   3.494 -1.0130 -1.8249 -1.2858
  784MOL0     H 5780  11.807   9.862   3.379  0.4796 -1.9984  0.8756
  784MOL0     H 5781  11.749  10.063   3.495 -0.2822  0.1417  0.1820
  784MOL0     H 5782  11.826  10.001   3.646  1.8410 -1.8022 -0.4172
  784MOL0     H 5783  12.007  10.025   3.417  2.6511  2.2834 -0.2046
  784MOL0     H 5784  11.946  10.180   3.484 -3.9635 -1.0895  1.0977
  784MOL0     H 5785  12.043  10.127   3.688  0.4757 -2.4440  1.7047
  784MOL0     H 5786  12.089   9.964   3.648  2.2729  0.1948 -0.3929
  784MOL0     H 5787  12.207  10.096   3.441 -2.9933 -0.3246  0.3134
  784MOL0     H 5788  12.168  10.229   3.546 -1.1227 -1.0070  2.1044
  784MOL0     H 5789  12.312  10.005   3.678 -1.8388  1.4762  1.6258
  784MOL0     H 5790  12.333  10.171   3.708 -1.2791  1.1097 -1.0736
  784MOL0     H 5791  12.394  10.188   3.341 -2.3345 -1.5598 -0.1346
  784MOL0     H 5792  12.737  10.238   3.256  1.7497  0.1271  1.4146
  784MOL0     H 5793  12.770  10.065   3.274 -0.4481 -1.4879  0.1325
  784MOL0     H 5794  12.522  10.165   3.129  1.3479  2.7063 -0.4964
  784MOL0     H 5795  12.581  10.000   3.129  2.2959  0.3725  1.4927
  784MOL0     H 5796  12.781  10.039   3.018  1.4112  1.3493 -0.6825
  784MOL0     H 5797  12.757  10.210   3.009 -0.8676 -0.7831 -1.7761
  784MOL0     H 5798  12.566   9.999   2.916  0.2421  0.3337  0.3894
  784MOL0     H 5799  12.678  10.086   2.804  0.3586  2.2824 -0.3128
  784MOL0     H 5800  12.375  10.396   2.917 -1.6445 -0.8869  3.3715
  784MOL0     H 5801  12.063  10.455   2.992  0.3485  2.1994  0.3768
  784MOL0     H 5802  12.188  10.526   2.913 -1.0851  0.3068 -0.6984
  784MOL0     H 5803  12.056  10.467   2.806  1.3938 -1.5267 -1.4019
  784MOL0     H 5804  11.788  10.063   2.947  0.1563 -3.3734  2.2360
  784MOL0     H 5805  11.534  10.005   2.939 -1.1109 -0.2884 -0.7156
  784MOL0     H 5806  11.364   9.761   2.855  0.0858 -0.2609  3.2874
  784MOL0     H 5807  11.354   9.915   2.940 -2.8384  0.8267  0.3263
  784MOL0     H 5808  11.125   9.828   2.917  5.2008 -1.2483  2.8425
  784MOL0     H 5809  11.148   9.980   2.833  0.0370 -0.3788 -1.0103
  784MOL0     H 5810  11.137   9.700   2.715  2.0956 -0.0866  0.3769
  784MOL0     H 5811  11.161   9.842   2.606 -1.7795  1.5773  0.4189
  784MOL0     H 5812  10.929   9.809   2.793  2.0393  0.4951  1.0584
  784MOL0     H 5813  10.962   9.948   2.700  2.6540  0.7309  1.8064
  784MOL0     H 5814  10.940   9.656   2.578  0.4256  0.5745  1.1515
  784MOL0     H 5815  10.964   9.805   2.490  0.2211  3.1053  0.9394
  784MOL0     H 5816  10.734   9.892   2.595 -1.2255 -1.4096  0.3098
  784MOL0     H 5817  10.731   9.777   2.463  1.5004  0.7585 -1.6135
  784MOL0     H 5818  10.697   9.715   2.761  0.7701  2.9877 -0.2038
  784MOL0     H 5819  10.697   9.597   2.627 -1.1273 -0.6762  0.3475
  784MOL0     H 5820  10.474   9.650   2.687  0.3296 -1.3720 -2.3392
  784MOL0     H 5821  10.520   9.702   2.521  3.2201  1.8914 -0.5007
  784MOL0     H 5822  11.544   9.950   2.539  3.7953 -0.4411 -2.1354
  784MOL0     H 5823  11.781  10.006   2.523 -3.4620 -3.6776 -1.5972
  784MOL0     H 5824  12.140   9.999   2.769 -2.7766  1.7471 -1.3321
  784MOL0     H 5825  12.376   9.985   2.811  0.8128  0.4733  0.0048
  784MOL0     H 5826  11.342   9.838   3.427  1.5986 -1.2715  0.1022
  784MOL0     H 5827  11.105   9.799   3.414  1.2811 -0.2035  0.3690
  784MOL0     H 5828  10.764   9.681   3.368 -1.1460  6.3871  0.8944
  784MOL0     H 5829  10.550   9.744   3.310  2.6639  2.6447  1.7074
  784MOL0     H 5830  10.252   9.521   3.414 -0.7112 -0.8989  2.4091
  784MOL0     H 5831  10.228   9.595   3.572 -0.0715 -0.2376  0.2239
  784MOL0     H 5832  10.087   9.673   3.307 -0.1009  4.6718  0.5931
  784MOL0     H 5833  10.049   9.746   3.459 -2.7749 -0.3250 -1.5852
  784MOL0     H 5834  10.013   9.450   3.406 -0.5612  0.3298 -0.7620
  784MOL0     H 5835   9.891   9.572   3.406  1.8886  3.2806 -1.5095
  784MOL0     H 5836   9.982   9.619   3.653  0.5728 -0.6574  1.3954
  784MOL0     H 5837  10.061   9.465   3.631 -0.4372 -1.3388  0.2263
  784MOL0     H 5838   9.658   9.344   3.688  0.7637 -1.5787  1.1480
  784MOL0     H 5839  10.395   9.624   3.698 -0.7536 -1.2184 -0.2018
  784MOL0     H 5840  10.632   9.568   3.771 -1.8359 -0.1553 -0.3377
  785MOL0     O 5841   4.685  10.770   0.699 -0.0370  0.5746 -0.1961
  785MOL0     C 5842   4.695  10.692   0.792 -0.0298  0.1470  0.6247
  785MOL0     O 5843   4.794  10.695   0.893 -0.2429 -0.2507  1.1615
  785MOL0     C 5844   4.894  10.791   0.892  0.4084 -0.4259 -0.0917
  785MOL0     C 5845   4.845  10.907   0.945 -0.2999 -0.4536 -0.7206
  785MOL0     C 5846   4.937  11.014   0.954 -1.3394 -0.0352 -0.3492
  785MOL0     C 5847   5.079  10.995   0.917  0.6914  0.3607 -0.2209
  785MOL0     O 5848   5.159  11.102   0.933  0.2358 -0.3449  1.0734
  785MOL0     C 5849   5.298  11.097   0.886  0.9926  0.5195  0.0867
  785MOL0     C 5850   5.362  11.232   0.919  0.2263 -0.7166 -0.1723
  785MOL0     C 5851   5.458  11.273   0.807  0.2606 -0.6904 -0.2774
  785MOL0     C 5852   5.572  11.181   0.794 -0.0146 -0.0002 -0.1205
  785MOL0     C 5853   5.688  11.224   0.701 -0.4021  0.1884  0.1022
  785MOL0     C 5854   5.833  11.182   0.758 -0.1234  0.4254  0.9052
  785MOL0     C 5855   5.918  11.221   0.635 -0.0471 -0.4984  0.1482
  785MOL0     C 5856   6.064  11.212   0.675  1.0507 -0.1615 -0.4227
  785MOL0     N 5857   6.163  11.252   0.577 -0.6531  0.5276  0.3215
  785MOL0     C 5858   6.162  11.373   0.524  0.3601  0.2394 -0.2833
  785MOL0     C 5859   6.269  11.374   0.457 -0.6912 -0.1307  0.0224
  785MOL0     C 5860   6.305  11.491   0.366 -0.1791  0.6034  0.3922
  785MOL0     C 5861   6.222  11.503   0.243 -0.2866 -0.1468 -0.0883
  785MOL0     C 5862   6.165  11.642   0.209  0.2082 -0.1864 -0.6997
  785MOL0     C 5863   6.054  11.686   0.313  1.0998  0.0723  0.2049
  785MOL0     O 5864   5.945  11.586   0.310 -0.2861 -0.3375 -0.4130
  785MOL0     C 5865   5.837  11.610   0.386 -0.3199 -0.1821 -0.1762
  785MOL0     C 5866   5.746  11.503   0.366  0.4079 -0.6396 -0.4250
  785MOL0     C 5867   5.622  11.496   0.431  0.1436 -0.9303  0.0281
  785MOL0     C 5868   5.529  11.373   0.414  1.2792  0.8880  0.5164
  785MOL0     C 5869   5.580  11.617   0.502  0.5782  0.5175 -0.5927
  785MOL0     C 5870   5.457  11.626   0.582 -0.7119 -0.7899  0.9534
  785MOL0     O 5871   5.448  11.743   0.657  0.2911  0.2528  0.3229
  785MOL0     C 5872   5.328  11.769   0.729 -0.3687 -0.9430 -0.1735
  785MOL0     C 5873   5.338  11.831   0.856  0.1944 -0.0728  0.8369
  785MOL0     C 5874   5.224  11.874   0.927  0.0308  0.5863  0.2853
  785MOL0     C 5875   5.095  11.864   0.871 -0.2805 -0.6497  0.4842
  785MOL0     O 5876   4.976  11.896   0.937 -0.0317 -0.5092 -0.8607
  785MOL0     C 5877   4.983  11.944   1.072  0.1654  0.4436  0.3091
  785MOL0     C 5878   4.965  12.095   1.076 -0.1485  0.3276 -0.7007
  785MOL0     C 5879   4.946  12.152   1.219 -0.0093  0.3523  0.0456
  785MOL0     C 5880   4.795  12.163   1.249  0.6540 -0.4549  0.0967
  785MOL0     C 5881   4.769  12.198   1.388 -0.4120 -0.3227  0.1321
  785MOL0     C 5882   4.625  12.159   1.435  0.0004  0.0305  0.1768
  785MOL0     C 5883   4.595  12.209   1.583  0.0925  1.0172  0.1522
  785MOL0     C 5884   4.478  12.134   1.646 -0.7784  0.2622 -0.1113
  785MOL0    Cl 5885   4.327  12.180   1.571 -0.0478 -0.3732 -0.3322
  785MOL0     C 5886   5.092  11.813   0.739 -0.8348  0.2663  0.0215
  785MOL0     C 5887   5.201  11.760   0.674 -0.1472 -0.3558 -0.6226
  785MOL0     O 5888   5.375  11.539   0.575  0.1025 -0.2819 -0.4241
  785MOL0     C 5889   5.675  11.726   0.508  0.3860 -0.5622 -1.1366
  785MOL0     C 5890   5.802  11.726   0.452  0.1009 -0.1205 -0.1991
  785MOL0     N 5891   6.354  11.266   0.492 -0.1257  0.1172 -0.1142
  785MOL0     N 5892   6.289  11.195   0.574 -0.1001 -1.0836 -0.3754
  785MOL0     C 5893   5.121  10.875   0.867 -0.2611 -0.1045  0.6450
  785MOL0     C 5894   5.030  10.769   0.856  1.0195  0.4790 -0.2062
  785MOL0     C 5895   4.589  10.587   0.810  0.0583 -0.5340  0.7837
  785MOL0     C 5896   4.574  10.508   0.920 -0.4001  0.4188  0.3993
  785MOL0     C 5897   4.476  10.404   0.913 -0.7954 -0.1793 -0.0216
  785MOL0     C 5898   4.386  10.393   0.812  0.7103  0.1515  0.1243
  785MOL0     O 5899   4.287  10.294   0.820  0.3659  0.2176  0.1132
  785MOL0     C 5900   4.221  10.240   0.706 -0.6824  0.1522  0.9574
  785MOL0     C 5901   4.093  10.312   0.655 -0.5023  0.7102 -0.7692
  785MOL0     C 5902   3.986  10.331   0.760 -0.8425  0.4194 -0.3903
  785MOL0     C 5903   3.883  10.429   0.704 -0.4918 -0.3961 -0.7685
  785MOL0     C 5904   3.769  10.428   0.794  0.0692  0.5582  0.1143
  785MOL0     C 5905   3.667  10.433   0.859 -0.5583 -0.0301  0.2033
  785MOL0     C 5906   4.401  10.471   0.702 -0.3132 -0.4290  0.3726
  785MOL0     C 5907   4.506  10.564   0.698 -0.5340  0.1620 -0.3776
  785MOL0     H 5908   4.746  10.912   0.989  0.5527 -0.6322  1.3580
  785MOL0     H 5909   4.930  11.110   1.006  1.8637  1.5892 -2.5241
  785MOL0     H 5910   5.364  11.020   0.928  0.8441 -0.0956 -0.7737
  785MOL0     H 5911   5.290  11.068   0.781  0.4476 -2.5323  0.8702
  785MOL0     H 5912   5.289  11.313   0.907  1.8750  1.3745  2.7535
  785MOL0     H 5913   5.410  11.246   1.016 -0.7571 -2.1821  0.5612
  785MOL0     H 5914   5.398  11.272   0.715 -3.5463 -0.0627  1.9613
  785MOL0     H 5915   5.492  11.371   0.843 -1.2909 -0.5479  0.9534
  785MOL0     H 5916   5.611  11.175   0.896 -0.9683  0.6339  0.2956
  785MOL0     H 5917   5.547  11.078   0.768  1.5937 -1.5788  3.8158
  785MOL0     H 5918   5.674  11.192   0.598  2.4266 -2.2401  0.3339
  785MOL0     H 5919   5.707  11.332   0.700  0.3561  0.0694 -2.1138
  785MOL0     H 5920   5.877  11.231   0.845 -1.2950 -0.5961  2.1410
  785MOL0     H 5921   5.833  11.073   0.768  0.8935  0.4440  1.1894
  785MOL0     H 5922   5.907  11.152   0.551  1.3142 -1.0844  0.4289
  785MOL0     H 5923   5.899  11.324   0.602 -3.3185 -1.0468  0.0142
  785MOL0     H 5924   6.081  11.108   0.707 -2.3051 -0.1502  1.9294
  785MOL0     H 5925   6.069  11.276   0.764 -0.9257  0.9606 -1.0735
  785MOL0     H 5926   6.086  11.449   0.543  2.7648  2.4372  1.2635
  785MOL0     H 5927   6.292  11.580   0.429  1.0245  0.2787  1.1187
  785MOL0     H 5928   6.407  11.486   0.329  0.2597  0.1583  1.6171
  785MOL0     H 5929   6.137  11.435   0.246 -0.1850 -0.4340 -2.1738
  785MOL0     H 5930   6.294  11.462   0.171  1.5400 -3.4345  3.2703
  785MOL0     H 5931   6.113  11.645   0.113 -1.2765  0.7097  0.1051
  785MOL0     H 5932   6.242  11.717   0.229  0.7439 -1.5630  3.1506
  785MOL0     H 5933   6.015  11.785   0.286 -0.3119 -0.8271 -1.2668
  785MOL0     H 5934   6.093  11.694   0.415 -1.2727  3.3311  1.0261
  785MOL0     H 5935   5.769  11.411   0.313 -0.7058 -3.0028  2.8502
  785MOL0     H 5936   5.558  11.318   0.324 -0.8717 -1.6684  1.2348
  785MOL0     H 5937   5.536  11.304   0.499  0.5240 -1.4430 -1.2196
  785MOL0     H 5938   5.424  11.395   0.393  1.1669 -0.2762 -0.2110
  785MOL0     H 5939   5.438  11.838   0.897  0.4373 -1.3762  0.5244
  785MOL0     H 5940   5.242  11.912   1.027 -2.9616  1.0800  0.7351
  785MOL0     H 5941   4.904  11.898   1.132 -0.9654  2.8096  0.7385
  785MOL0     H 5942   5.080  11.924   1.119  1.7083  3.0496 -1.5026
  785MOL0     H 5943   5.048  12.144   1.023  2.3174  0.1566  2.7149
  785MOL0     H 5944   4.874  12.119   1.019 -0.7493 -0.2304 -0.0025
  785MOL0     H 5945   4.993  12.250   1.234  0.2246  0.1946  0.3706
  785MOL0     H 5946   4.992  12.077   1.284  1.0533  0.2656 -0.7880
  785MOL0     H 5947   4.745  12.229   1.178 -0.1974 -3.2871 -2.1649
  785MOL0     H 5948   4.755  12.061   1.237  0.1909 -0.4938  1.7981
  785MOL0     H 5949   4.779  12.306   1.400  2.0929 -0.3874 -0.7169
  785MOL0     H 5950   4.842  12.149   1.454 -1.6411 -2.5254 -0.0323
  785MOL0     H 5951   4.553  12.192   1.359  1.8605 -1.4087 -2.3610
  785MOL0     H 5952   4.626  12.050   1.435 -0.4017  0.0236  0.6178
  785MOL0     H 5953   4.564  12.313   1.569  0.7521  0.9653 -2.3082
  785MOL0     H 5954   4.681  12.199   1.649 -0.4327  1.1509  0.8638
  785MOL0     H 5955   4.467  12.154   1.753 -2.8257 -3.2718  0.4874
  785MOL0     H 5956   4.501  12.027   1.644 -0.0792  0.3925 -2.3497
  785MOL0     H 5957   4.990  11.804   0.702 -1.5025  0.9448  1.6006
  785MOL0     H 5958   5.181  11.707   0.581  0.2592 -1.9821  0.1843
  785MOL0     H 5959   5.649  11.816   0.561  0.9032 -0.9527 -0.1972
  785MOL0     H 5960   5.872  11.809   0.453  3.2237 -2.5602  1.8842
  785MOL0     H 5961   5.223  10.853   0.840 -1.0621 -1.3805 -1.6982
  785MOL0     H 5962   5.055  10.671   0.817 -0.0008  0.0325  0.2239
  785MOL0     H 5963   4.645  10.512   1.002 -1.1553 -3.4161  1.4436
  785MOL0     H 5964   4.462  10.332   0.993 -1.6351 -0.8907 -0.8037
  785MOL0     H 5965   4.296  10.228   0.628  1.9073  2.1788  2.9648
  785MOL0     H 5966   4.191  10.139   0.734  1.7618 -0.2148  2.5129
  785MOL0     H 5967   4.053  10.251   0.574 -2.9954  1.0577  0.1279
  785MOL0     H 5968   4.121  10.405   0.604  1.4210 -1.1619 -3.4145
  785MOL0     H 5969   4.037  10.379   0.844  0.5229  0.5854 -1.2770
  785MOL0     H 5970   3.939  10.241   0.802  1.6373 -0.1622  1.3784
  785MOL0     H 5971   3.844  10.398   0.606  1.3612  1.1607 -2.0720
  785MOL0     H 5972   3.915  10.533   0.706 -2.5178  0.3691 -3.0128
  785MOL0     H 5973   3.572  10.417   0.907 -0.5216  0.6233  0.4943
  785MOL0     H 5974   4.334  10.447   0.620 -1.4204 -0.5733  1.3149
  785MOL0     H 5975   4.511  10.634   0.615 -1.4088  1.1125  0.3537
  786MOL0     O 5976   1.920   4.340   1.162  0.0508  0.4343  0.4617
  786MOL0     C 5977   1.918   4.444   1.092  0.7988 -0.5391 -0.3413
  786MOL0     O 5978   1.836   4.464   0.989 -0.0189 -0.1471  0.3969
  786MOL0     C 5979   1.732   4.374   0.967 -1.3449 -0.3559 -1.1926
  786MOL0     C 5980   1.609   4.392   1.029 -0.1195 -0.3799  0.1690
  786MOL0     C 5981   1.514   4.293   1.014 -0.6971  0.5149 -0.2986
  786MOL0     C 5982   1.548   4.168   0.945  0.9472 -0.2327 -0.0405
  786MOL0     O 5983   1.456   4.067   0.931  0.4521 -0.0343 -0.1275
  786MOL0     C 5984   1.335   4.060   1.014 -0.5890  0.3888  0.2751
  786MOL0     C 5985   1.273   3.920   1.030  0.1221 -0.6094  0.3616
  786MOL0     C 5986   1.129   3.942   1.088 -0.4408 -0.2397  0.0486
  786MOL0     C 5987   1.113   3.848   1.206  0.1366  0.2383 -0.7315
  786MOL0     C 5988   0.981   3.869   1.290  0.4748  0.7298 -0.1113
  786MOL0     C 5989   0.860   3.826   1.198 -0.2470  0.7849  0.7337
  786MOL0     C 5990   0.720   3.851   1.267 -0.4708  0.2675  0.2939
  786MOL0     C 5991   0.612   3.788   1.190  0.4585  0.7209  0.1307
  786MOL0     N 5992   0.469   3.812   1.233 -0.5253 -0.5582  0.1989
  786MOL0     C 5993   0.375   3.720   1.236 -0.2332  0.4087 -1.0515
  786MOL0     C 5994   0.260   3.780   1.266  0.6865 -0.3334  0.3634
  786MOL0     C 5995   0.124   3.715   1.271 -0.8661 -0.2010  0.0603
  786MOL0     C 5996   0.040   3.771   1.383  0.1852  0.9255  0.0186
  786MOL0     C 5997  -0.096   3.709   1.383 -0.4522 -0.6596 -0.8547
  786MOL0     C 5998  -0.187   3.765   1.492 -0.2849  0.5075 -0.1339
  786MOL0     O 5999  -0.200   3.908   1.468 -0.0410 -0.1346 -0.2058
  786MOL0     C 6000  -0.318   3.980   1.434 -0.2912  0.1541  0.6239
  786MOL0     C 6001  -0.320   4.122   1.439  0.1143 -0.4699  0.2857
  786MOL0     C 6002  -0.424   4.210   1.399  0.7240  0.5998 -0.0886
  786MOL0     C 6003  -0.410   4.355   1.420 -0.0749 -0.2069  0.2091
  786MOL0     C 6004  -0.551   4.148   1.376 -0.3207 -0.4934 -0.5237
  786MOL0     C 6005  -0.679   4.212   1.337 -0.0282  0.7757 -0.0713
  786MOL0     O 6006  -0.797   4.146   1.356  0.3433 -0.1446  0.4454
  786MOL0     C 6007  -0.882   4.168   1.254  0.4471 -0.1795  0.0990
  786MOL0     C 6008  -0.868   4.135   1.115  0.0608 -0.9105 -0.5888
  786MOL0     C 6009  -0.978   4.165   1.031 -0.0016  0.4226 -0.0047
  786MOL0     C 6010  -1.101   4.207   1.080  0.6875 -0.8120 -0.5683
  786MOL0     O 6011  -1.210   4.209   0.999 -0.6644 -0.1138  0.6490
  786MOL0     C 6012  -1.290   4.326   1.000  0.4042  0.5659 -0.3678
  786MOL0     C 6013  -1.440   4.293   1.036  0.2255 -0.1284  0.2941
  786MOL0     C 6014  -1.534   4.414   1.047 -0.2042 -0.6966  1.2723
  786MOL0     C 6015  -1.672   4.370   1.060  0.2679 -0.1946  0.1365
  786MOL0     C 6016  -1.779   4.473   1.069 -0.5879 -0.3625 -0.6356
  786MOL0     C 6017  -1.916   4.409   1.115 -0.2856  0.0171  0.0228
  786MOL0     C 6018  -2.025   4.516   1.095  0.2122  0.1928 -0.4480
  786MOL0     C 6019  -2.161   4.457   1.127  0.1357  0.5789 -0.0332
  786MOL0    Cl 6020  -2.282   4.579   1.134  0.0746 -0.1361 -0.2208
  786MOL0     C 6021  -1.121   4.238   1.220  0.3511 -0.5618 -0.3163
  786MOL0     C 6022  -1.009   4.216   1.302  0.7647 -0.1335 -0.1375
  786MOL0     O 6023  -0.666   4.330   1.289  0.8253 -0.0652 -0.4741
  786MOL0     C 6024  -0.560   4.011   1.387  0.4197  0.4918 -0.1667
  786MOL0     C 6025  -0.442   3.923   1.401  0.7470 -0.5672 -0.7352
  786MOL0     N 6026   0.285   3.916   1.290 -0.8748 -0.4654 -0.2659
  786MOL0     N 6027   0.418   3.932   1.271  0.2376 -0.0578 -0.2687
  786MOL0     C 6028   1.674   4.153   0.893 -0.1516  0.9731  0.8011
  786MOL0     C 6029   1.764   4.259   0.895 -0.5145 -0.6560 -0.2520
  786MOL0     C 6030   2.025   4.538   1.113 -0.5458  0.1601  0.2766
  786MOL0     C 6031   2.034   4.666   1.047 -0.7001  0.0228 -0.8694
  786MOL0     C 6032   2.144   4.754   1.085 -0.7206 -1.1766  0.1209
  786MOL0     C 6033   2.231   4.713   1.178 -0.5570 -0.9621  0.3545
  786MOL0     O 6034   2.338   4.795   1.214 -0.1137 -0.1963 -0.2567
  786MOL0     C 6035   2.343   4.937   1.187 -0.2394  0.2051  1.0642
  786MOL0     C 6036   2.245   5.012   1.275  0.0149 -0.2151 -0.3154
  786MOL0     C 6037   2.316   5.040   1.407  0.3404 -0.0576  0.3516
  786MOL0     C 6038   2.228   5.140   1.475  0.4728  0.0357 -0.1262
  786MOL0     C 6039   2.095   5.088   1.527 -0.0909  0.5406 -0.5220
  786MOL0     C 6040   2.000   5.024   1.568  0.6363 -0.4479  0.3040
  786MOL0     C 6041   2.237   4.583   1.223 -0.0167  0.3357 -0.5329
  786MOL0     C 6042   2.135   4.496   1.186 -0.4168 -0.1178  0.8483
  786MOL0     H 6043   1.594   4.490   1.073  1.9896 -0.0490  0.2179
  786MOL0     H 6044   1.416   4.300   1.059 -1.4238 -1.0634 -1.5183
  786MOL0     H 6045   1.348   4.098   1.116  0.6650  1.5675 -0.2912
  786MOL0     H 6046   1.260   4.125   0.968 -2.7553 -1.7189  0.6621
  786MOL0     H 6047   1.260   3.872   0.932 -0.7927  0.3479 -0.0048
  786MOL0     H 6048   1.339   3.854   1.086  0.5820  0.4703  1.1316
  786MOL0     H 6049   1.119   4.044   1.127  2.6861 -0.1059  0.7580
  786MOL0     H 6050   1.062   3.930   1.002 -0.5332  0.5125  0.0055
  786MOL0     H 6051   1.126   3.742   1.183  2.4476  0.1332  0.7079
  786MOL0     H 6052   1.191   3.866   1.280 -0.7510 -0.6798  0.4805
  786MOL0     H 6053   0.986   3.796   1.371  1.9157  1.9427  0.9703
  786MOL0     H 6054   0.976   3.972   1.328  0.0683  2.4987 -4.3161
  786MOL0     H 6055   0.861   3.877   1.101 -1.5089  1.0203  0.8348
  786MOL0     H 6056   0.878   3.719   1.183  1.1692  0.8148  2.0087
  786MOL0     H 6057   0.714   3.803   1.365 -1.0788 -2.2970 -0.9141
  786MOL0     H 6058   0.703   3.959   1.272 -0.4366  0.3705 -1.3926
  786MOL0     H 6059   0.636   3.684   1.213 -0.1935  0.7536  1.0097
  786MOL0     H 6060   0.615   3.815   1.084  0.2074 -0.7377 -0.2720
  786MOL0     H 6061   0.389   3.616   1.211 -1.1188  0.3932 -1.5271
  786MOL0     H 6062   0.074   3.729   1.175 -0.2833  0.0838 -0.2022
  786MOL0     H 6063   0.134   3.607   1.286 -1.2473 -0.1182  0.9952
  786MOL0     H 6064   0.033   3.879   1.368  0.1584  0.5321 -3.4338
  786MOL0     H 6065   0.082   3.752   1.483  0.9395  3.5949  0.2798
  786MOL0     H 6066  -0.080   3.602   1.401  1.5377 -0.1402  0.8683
  786MOL0     H 6067  -0.153   3.723   1.290 -4.4915 -0.1997  1.4712
  786MOL0     H 6068  -0.139   3.743   1.588 -1.4013 -0.4103  0.2451
  786MOL0     H 6069  -0.279   3.705   1.491 -0.3658  0.5133  1.8218
  786MOL0     H 6070  -0.233   4.172   1.482 -0.1247  0.8461 -0.7029
  786MOL0     H 6071  -0.402   4.414   1.328 -5.3510 -1.1201 -1.1264
  786MOL0     H 6072  -0.504   4.398   1.455 -0.0809  2.4863 -2.6505
  786MOL0     H 6073  -0.324   4.377   1.485  1.9133 -0.1587 -2.2733
  786MOL0     H 6074  -0.770   4.103   1.079  0.2267  0.4047 -1.3703
  786MOL0     H 6075  -0.978   4.145   0.924  0.0472  0.3793  0.0036
  786MOL0     H 6076  -1.252   4.406   1.065  2.0007  0.8068 -1.5260
  786MOL0     H 6077  -1.279   4.368   0.900  3.1886  2.1301  0.4771
  786MOL0     H 6078  -1.475   4.227   0.955 -2.6417  1.2570  0.2931
  786MOL0     H 6079  -1.444   4.238   1.130 -2.2827 -1.3187 -0.4222
  786MOL0     H 6080  -1.524   4.473   0.955 -0.1759  0.3377  1.9303
  786MOL0     H 6081  -1.516   4.462   1.143 -0.9099  2.8594 -0.2107
  786MOL0     H 6082  -1.701   4.292   0.989  0.3174  0.0343 -0.1373
  786MOL0     H 6083  -1.675   4.309   1.151  1.1026 -0.1858  0.1713
  786MOL0     H 6084  -1.796   4.522   0.973 -3.8251  1.8107  0.8343
  786MOL0     H 6085  -1.748   4.560   1.129 -1.5310  2.1763 -3.5577
  786MOL0     H 6086  -1.945   4.323   1.054 -3.0627  0.6045  0.3944
  786MOL0     H 6087  -1.894   4.372   1.215 -0.8780 -0.8572 -0.1608
  786MOL0     H 6088  -2.036   4.555   0.993 -3.3159  1.3060  0.2201
  786MOL0     H 6089  -2.016   4.598   1.167 -1.6491 -0.2800  0.3915
  786MOL0     H 6090  -2.146   4.398   1.217 -2.2860 -2.0286 -1.1701
  786MOL0     H 6091  -2.195   4.394   1.044  0.3260 -2.7778  2.2629
  786MOL0     H 6092  -1.217   4.269   1.260  0.3378 -1.2619  0.2026
  786MOL0     H 6093  -1.019   4.228   1.409  0.9694  0.8555 -0.2195
  786MOL0     H 6094  -0.648   3.950   1.369  1.5654 -0.5350 -2.7289
  786MOL0     H 6095  -0.470   3.819   1.387 -1.0416 -0.0791 -1.0817
  786MOL0     H 6096   1.702   4.062   0.840 -3.6270 -1.4231  2.6393
  786MOL0     H 6097   1.866   4.246   0.861  0.6486  0.8525  2.3233
  786MOL0     H 6098   1.958   4.700   0.977 -1.4289  1.2044  0.4472
  786MOL0     H 6099   2.152   4.847   1.030 -0.4795 -1.9443 -1.1865
  786MOL0     H 6100   2.447   4.965   1.210  0.0947  1.1174 -1.2852
  786MOL0     H 6101   2.330   4.954   1.080 -2.2289 -3.1120  0.6437
  786MOL0     H 6102   2.150   4.961   1.297  0.3755  0.3013  2.9493
  786MOL0     H 6103   2.223   5.105   1.222  1.1385  0.6725  0.7228
  786MOL0     H 6104   2.408   5.097   1.390 -1.6988  3.5112  0.1822
  786MOL0     H 6105   2.337   4.945   1.456  0.7691 -1.5085 -2.4138
  786MOL0     H 6106   2.206   5.225   1.409 -1.7089 -0.1681  0.2607
  786MOL0     H 6107   2.279   5.165   1.568  1.8672 -0.4559 -0.7149
  786MOL0     H 6108   1.919   4.965   1.607  1.7871  0.5908  4.8373
  786MOL0     H 6109   2.313   4.547   1.291  0.7390  1.6164 -0.6636
  786MOL0     H 6110   2.135   4.392   1.217 -0.4886 -0.4127 -0.1298
  787MOL0     O 6111  11.263   8.448   7.990 -0.6132  0.8389 -0.1739
  787MOL0     C 6112  11.311   8.398   7.892  0.3017  0.3520  0.4577
  787MOL0     O 6113  11.250   8.375   7.775  0.0330  0.0221 -0.0122
  787MOL0     C 6114  11.136   8.442   7.726 -0.2106 -0.5223  0.1258
  787MOL0     C 6115  11.137   8.477   7.590  0.0112 -1.1495 -0.8598
  787MOL0     C 6116  11.026   8.541   7.535 -0.4791  0.0702 -1.1898
  787MOL0     C 6117  10.903   8.564   7.607 -0.6017 -0.2777 -0.6931
  787MOL0     O 6118  10.805   8.634   7.541 -0.3596  0.2329 -0.1565
  787MOL0     C 6119  10.665   8.614   7.582  0.4174 -0.2484  0.1373
  787MOL0     C 6120  10.593   8.538   7.473  0.0731  0.8185 -0.1669
  787MOL0     C 6121  10.519   8.639   7.381  0.6883  0.9688 -0.7814
  787MOL0     C 6122  10.446   8.570   7.261  1.0795 -0.2933 -0.3222
  787MOL0     C 6123  10.349   8.675   7.181 -0.3123 -0.5280 -0.1486
  787MOL0     C 6124  10.290   8.591   7.060  0.6239 -0.3984 -0.1301
  787MOL0     C 6125  10.174   8.663   7.008  0.6487 -0.7211  0.4338
  787MOL0     C 6126  10.102   8.589   6.896  0.2322  0.9617  0.1181
  787MOL0     N 6127  10.023   8.474   6.947 -0.5435  0.2627  0.3170
  787MOL0     C 6128   9.899   8.476   7.027 -0.2254  0.2793  0.4943
  787MOL0     C 6129   9.857   8.347   7.029 -0.4166  0.3457  0.7919
  787MOL0     C 6130   9.739   8.288   7.095 -0.8701 -0.5766  0.4192
  787MOL0     C 6131   9.783   8.211   7.222  0.5314 -0.4873 -0.0047
  787MOL0     C 6132   9.683   8.198   7.330  0.5889 -0.7081  0.5019
  787MOL0     C 6133   9.555   8.110   7.285 -0.2110  0.8415  0.0245
  787MOL0     O 6134   9.438   8.182   7.293  1.1325 -0.8716 -0.0595
  787MOL0     C 6135   9.324   8.144   7.218  0.0198 -0.0146 -0.2745
  787MOL0     C 6136   9.214   8.229   7.202  0.2494 -0.6743 -0.2903
  787MOL0     C 6137   9.095   8.191   7.140 -0.6241  0.4740  0.3051
  787MOL0     C 6138   8.984   8.294   7.142  1.1866  0.2995 -0.0485
  787MOL0     C 6139   9.091   8.069   7.074  0.5434  0.0696 -0.0618
  787MOL0     C 6140   8.962   8.013   7.019  0.6687  0.4259  0.5979
  787MOL0     O 6141   8.918   7.889   7.072 -0.7456 -0.0036 -0.0453
  787MOL0     C 6142   8.810   7.834   7.017  0.8263 -0.0435  0.7389
  787MOL0     C 6143   8.818   7.733   6.926  0.4894  0.0798  0.3816
  787MOL0     C 6144   8.704   7.679   6.864 -0.1391  0.1137  0.1866
  787MOL0     C 6145   8.571   7.736   6.892 -0.3579 -0.3395 -0.0713
  787MOL0     O 6146   8.447   7.698   6.842  0.5016  0.4340 -0.3333
  787MOL0     C 6147   8.456   7.575   6.776 -0.0736  0.1137  1.1284
  787MOL0     C 6148   8.323   7.544   6.690 -0.5425 -0.7324 -0.4846
  787MOL0     C 6149   8.217   7.514   6.788 -0.4183 -0.2287 -0.9647
  787MOL0     C 6150   8.082   7.532   6.716 -0.2579  0.5760 -0.0079
  787MOL0     C 6151   8.044   7.392   6.652 -0.7555  0.1667  0.6883
  787MOL0     C 6152   7.940   7.420   6.534 -0.2952  0.0114  0.6550
  787MOL0     C 6153   7.871   7.296   6.482  0.2346 -0.4558 -0.9007
  787MOL0     C 6154   7.958   7.187   6.418  0.1982  0.4287  0.4488
  787MOL0    Cl 6155   7.849   7.061   6.359 -0.2785 -0.2749  0.5275
  787MOL0     C 6156   8.564   7.844   6.982  0.0715 -0.7697 -0.2240
  787MOL0     C 6157   8.682   7.887   7.044 -0.9532  0.2729 -0.3674
  787MOL0     O 6158   8.900   8.079   6.928  0.1638  0.1518  0.3228
  787MOL0     C 6159   9.203   7.987   7.073 -0.5838  0.1425 -0.0122
  787MOL0     C 6160   9.312   8.022   7.143 -0.5252 -0.9576 -0.2669
  787MOL0     N 6161   9.952   8.266   6.961  0.8551 -0.2898 -0.0172
  787MOL0     N 6162  10.053   8.340   6.925 -0.3394  0.8243 -0.2157
  787MOL0     C 6163  10.906   8.533   7.740 -0.9170  0.9097 -0.6818
  787MOL0     C 6164  11.025   8.479   7.802  0.4218  0.1785 -0.0145
  787MOL0     C 6165  11.455   8.366   7.906  0.7535  1.0844 -0.2743
  787MOL0     C 6166  11.515   8.277   7.809  0.4571 -0.1484 -0.4173
  787MOL0     C 6167  11.649   8.239   7.829  0.3063 -0.9521  0.3766
  787MOL0     C 6168  11.726   8.266   7.946  0.2302  0.6466  0.5503
  787MOL0     O 6169  11.856   8.217   7.956 -0.6399 -0.1319 -0.1307
  787MOL0     C 6170  11.933   8.271   8.063  0.0895  0.6095  0.2007
  787MOL0     C 6171  12.085   8.230   8.038 -0.5221  0.3964  0.0291
  787MOL0     C 6172  12.173   8.252   8.162  0.2435  0.3933  0.1577
  787MOL0     C 6173  12.322   8.250   8.122 -0.5136  0.2919 -0.8460
  787MOL0     C 6174  12.399   8.214   8.239  0.4935  0.4662 -0.9406
  787MOL0     C 6175  12.468   8.186   8.337 -0.1627  0.4470  0.4978
  787MOL0     C 6176  11.665   8.366   8.028 -0.7210  0.1382  0.3094
  787MOL0     C 6177  11.532   8.399   8.018 -0.3953  0.5360  0.4524
  787MOL0     H 6178  11.219   8.438   7.531 -0.2190 -2.1539 -0.5361
  787MOL0     H 6179  11.037   8.552   7.428  1.3802 -0.0645 -1.0470
  787MOL0     H 6180  10.648   8.562   7.676  0.6728  0.5372  0.6344
  787MOL0     H 6181  10.616   8.710   7.600 -1.6178 -1.4951  1.6806
  787MOL0     H 6182  10.660   8.486   7.405  1.3460 -0.4844  1.9796
  787MOL0     H 6183  10.514   8.472   7.510  0.1193  0.3683 -0.8625
  787MOL0     H 6184  10.453   8.694   7.449  0.0740  0.9957 -1.3927
  787MOL0     H 6185  10.596   8.709   7.346  1.6157 -1.0898 -3.1201
  787MOL0     H 6186  10.518   8.525   7.191 -0.5563 -0.5833 -1.8935
  787MOL0     H 6187  10.382   8.496   7.308 -1.1658  1.8929  0.2811
  787MOL0     H 6188  10.271   8.698   7.255  0.5129 -2.6630  1.4940
  787MOL0     H 6189  10.408   8.764   7.156 -2.9527  2.1271  2.1698
  787MOL0     H 6190  10.368   8.591   6.983 -0.7691 -3.9706 -1.7785
  787MOL0     H 6191  10.261   8.488   7.082 -0.3515 -0.0491  0.2471
  787MOL0     H 6192  10.090   8.681   7.075  0.1868 -1.8773  0.1726
  787MOL0     H 6193  10.209   8.755   6.959 -0.0737 -1.1282 -0.8930
  787MOL0     H 6194  10.171   8.544   6.824 -0.0990 -0.1405  0.4580
  787MOL0     H 6195  10.044   8.651   6.827  0.2161 -0.6093 -1.3469
  787MOL0     H 6196   9.837   8.559   7.058 -0.3750  0.4537 -0.2707
  787MOL0     H 6197   9.663   8.361   7.124  0.9073  0.8679  1.6814
  787MOL0     H 6198   9.696   8.220   7.021  2.4832 -1.6642 -0.7338
  787MOL0     H 6199   9.865   8.267   7.268  1.3169 -0.0258 -1.8601
  787MOL0     H 6200   9.828   8.113   7.204  1.4805  0.1394 -1.2342
  787MOL0     H 6201   9.640   8.296   7.347 -1.7045 -1.4888 -0.3645
  787MOL0     H 6202   9.725   8.157   7.422 -1.1714  1.0089  2.1441
  787MOL0     H 6203   9.542   8.022   7.348 -1.6198 -3.5372 -5.5768
  787MOL0     H 6204   9.576   8.071   7.185 -0.0182 -1.3734  0.8747
  787MOL0     H 6205   9.208   8.322   7.257 -1.1908 -0.6770 -0.4197
  787MOL0     H 6206   8.987   8.345   7.239  0.7390 -0.2662  0.2718
  787MOL0     H 6207   9.009   8.372   7.069 -1.3008 -0.4595 -1.8640
  787MOL0     H 6208   8.882   8.259   7.124  1.8831 -3.0478  1.6650
  787MOL0     H 6209   8.922   7.702   6.920  1.1847  2.2228  0.7239
  787MOL0     H 6210   8.723   7.596   6.796  0.0488  1.2946 -1.2615
  787MOL0     H 6211   8.536   7.581   6.701 -1.7055 -1.6177 -0.8920
  787MOL0     H 6212   8.468   7.492   6.846 -5.3421 -1.5232  0.5184
  787MOL0     H 6213   8.292   7.630   6.630  0.7041  1.4899  1.8863
  787MOL0     H 6214   8.351   7.458   6.628 -0.0102 -0.7971 -0.1589
  787MOL0     H 6215   8.226   7.585   6.871 -0.4428 -1.4557  0.1188
  787MOL0     H 6216   8.226   7.418   6.839 -2.9823  0.6918  1.4881
  787MOL0     H 6217   8.004   7.561   6.787 -0.9414 -1.3295  0.0807
  787MOL0     H 6218   8.087   7.601   6.631  1.8291  2.4741  1.5530
  787MOL0     H 6219   8.008   7.327   6.732  0.3648 -1.0945  0.2012
  787MOL0     H 6220   8.135   7.340   6.621 -0.0182  0.7813  1.7737
  787MOL0     H 6221   7.868   7.486   6.583  0.3457  4.4247 -3.5495
  787MOL0     H 6222   7.982   7.474   6.449 -1.5540  1.1865  0.7369
  787MOL0     H 6223   7.794   7.321   6.408 -0.1449 -0.6959 -0.5939
  787MOL0     H 6224   7.820   7.252   6.568  0.9899  1.1888  0.4477
  787MOL0     H 6225   8.034   7.135   6.478 -2.4959 -1.1890  2.7383
  787MOL0     H 6226   8.008   7.232   6.332  1.1131 -2.9640 -0.9592
  787MOL0     H 6227   8.471   7.895   7.006 -0.9965 -1.6225 -2.2394
  787MOL0     H 6228   8.685   7.969   7.115 -1.1366 -0.6437  0.7297
  787MOL0     H 6229   9.198   7.892   7.020  1.0541  0.7365 -1.3047
  787MOL0     H 6230   9.400   7.963   7.122 -0.5917 -0.9438 -0.5857
  787MOL0     H 6231  10.814   8.543   7.798  0.6394  1.6870  1.8461
  787MOL0     H 6232  11.033   8.466   7.910 -1.5024  0.7122  0.2413
  787MOL0     H 6233  11.465   8.246   7.718  1.4116  0.6564 -1.2537
  787MOL0     H 6234  11.705   8.183   7.754 -0.6570 -1.4217  0.0029
  787MOL0     H 6235  11.931   8.380   8.069 -1.3906  0.5639  1.2228
  787MOL0     H 6236  11.893   8.237   8.159  1.8475 -0.5370  0.5776
  787MOL0     H 6237  12.119   8.284   7.949  1.0796 -1.5478 -0.6087
  787MOL0     H 6238  12.088   8.123   8.017  0.4457  0.5482 -0.6413
  787MOL0     H 6239  12.152   8.168   8.228  0.8903  1.4150  1.7214
  787MOL0     H 6240  12.145   8.341   8.218 -1.6949 -0.5588  0.7825
  787MOL0     H 6241  12.351   8.349   8.084  1.5483  0.0605  0.0298
  787MOL0     H 6242  12.348   8.186   8.037  2.9658 -0.1378  0.3930
  787MOL0     H 6243  12.539   8.173   8.416  1.1792 -0.9317 -0.8741
  787MOL0     H 6244  11.728   8.432   8.088 -0.7276 -0.9534  1.5866
  787MOL0     H 6245  11.487   8.468   8.089  2.1124 -0.1982  2.9151
  788MOL0     O 6246  10.234  10.282  11.280 -0.0495 -0.0613 -0.3991
  788MOL0     C 6247  10.255  10.189  11.208  0.1703 -0.0825  0.1300
  788MOL0     O 6248  10.185  10.166  11.096 -0.0265 -0.5280  0.2856
  788MOL0     C 6249  10.073  10.239  11.069  0.7165  0.2878 -0.3183
  788MOL0     C 6250   9.960  10.155  11.037  0.8181  1.1344 -0.4952
  788MOL0     C 6251   9.839  10.218  11.008 -0.0858 -0.3938  0.4266
  788MOL0     C 6252   9.825  10.353  11.016  0.5251 -0.8276  0.5562
  788MOL0     O 6253   9.709  10.423  10.997 -0.1310 -0.3877  0.3903
  788MOL0     C 6254   9.591  10.356  10.947  0.2001  0.1690  1.2140
  788MOL0     C 6255   9.466  10.454  10.949  0.0120 -0.3997 -0.0299
  788MOL0     C 6256   9.338  10.396  10.898 -0.2310  0.1011 -0.4335
  788MOL0     C 6257   9.222  10.508  10.894 -0.2388 -0.4840 -0.1803
  788MOL0     C 6258   9.096  10.447  10.841  0.3782  0.7186 -0.3620
  788MOL0     C 6259   8.976  10.509  10.902 -0.3408 -0.7842 -0.0449
  788MOL0     C 6260   8.845  10.460  10.856  0.4491 -0.8732  0.1796
  788MOL0     C 6261   8.729  10.527  10.923 -0.2401  0.1085 -0.0317
  788MOL0     N 6262   8.608  10.459  10.881 -0.3394 -1.0235 -0.7593
  788MOL0     C 6263   8.514  10.409  10.969  0.0208 -0.2558 -0.0043
  788MOL0     C 6264   8.400  10.397  10.899  0.1347  0.0853  0.9379
  788MOL0     C 6265   8.269  10.343  10.934 -0.8645  0.6709 -0.4291
  788MOL0     C 6266   8.146  10.431  10.920  0.6579  1.1128  0.2557
  788MOL0     C 6267   8.014  10.363  10.960 -0.3433  0.9683 -0.8297
  788MOL0     C 6268   7.906  10.472  10.938  0.1249 -0.1064  0.2997
  788MOL0     O 6269   7.897  10.563  11.052  0.6603 -0.1081  0.4761
  788MOL0     C 6270   7.779  10.645  11.073 -0.5861  0.5874 -0.6181
  788MOL0     C 6271   7.775  10.730  11.179  0.3113 -0.0633  0.0167
  788MOL0     C 6272   7.665  10.814  11.204  0.8632 -0.7892  0.0812
  788MOL0     C 6273   7.670  10.906  11.335  0.5008  1.1286  0.4667
  788MOL0     C 6274   7.562  10.829  11.107  0.8782 -0.1218 -0.1517
  788MOL0     C 6275   7.437  10.906  11.127  0.1556 -0.8499 -0.4729
  788MOL0     O 6276   7.359  10.929  11.012  0.3868  0.6641 -0.1471
  788MOL0     C 6277   7.230  10.970  11.032  0.5577 -0.0277  0.7964
  788MOL0     C 6278   7.188  11.084  11.094  0.2326 -0.1834  0.5687
  788MOL0     C 6279   7.052  11.111  11.102  0.0461  0.2832 -1.1628
  788MOL0     C 6280   6.957  11.037  11.030 -0.3291  0.6985 -0.0306
  788MOL0     O 6281   6.823  11.036  11.039  0.1458  0.6395 -0.4290
  788MOL0     C 6282   6.753  11.086  11.154 -0.2963  0.0405 -0.0995
  788MOL0     C 6283   6.610  11.067  11.108 -0.5074 -0.3556 -0.4702
  788MOL0     C 6284   6.509  11.128  11.209  0.0886  0.3284  0.5086
  788MOL0     C 6285   6.494  11.039  11.330  0.7759 -0.0411  0.0529
  788MOL0     C 6286   6.384  11.101  11.428 -0.6109 -0.5336  0.4818
  788MOL0     C 6287   6.239  11.067  11.391  0.7000 -0.4775 -0.3826
  788MOL0     C 6288   6.131  11.126  11.483 -0.2670  0.7318  0.2140
  788MOL0     C 6289   6.008  11.159  11.400  0.3550  0.4192 -0.4409
  788MOL0    Cl 6290   5.890  11.236  11.501  0.2944 -0.2555 -0.2235
  788MOL0     C 6291   7.003  10.927  10.966  0.4051  0.1103 -1.1829
  788MOL0     C 6292   7.138  10.891  10.960 -0.2783  0.4088 -0.6326
  788MOL0     O 6293   7.397  10.927  11.243 -0.0995 -0.1115  0.5977
  788MOL0     C 6294   7.579  10.751  10.988 -0.2493 -0.0033  0.0511
  788MOL0     C 6295   7.684  10.662  10.972  0.0926 -0.6123  0.1821
  788MOL0     N 6296   8.434  10.426  10.768  0.2330  0.0778 -0.2260
  788MOL0     N 6297   8.557  10.463  10.754  0.0171 -0.4961  0.0326
  788MOL0     C 6298   9.929  10.437  11.038  0.1615 -0.7544 -0.7045
  788MOL0     C 6299  10.055  10.377  11.066  0.2220 -0.6663  0.4213
  788MOL0     C 6300  10.355  10.079  11.251  0.3417 -0.3651  0.5146
  788MOL0     C 6301  10.448  10.117  11.358  0.6808 -0.1920  0.0664
  788MOL0     C 6302  10.543  10.018  11.391  0.3486  0.8431  0.1114
  788MOL0     C 6303  10.546   9.884  11.338 -0.0309 -0.5716 -0.5385
  788MOL0     O 6304  10.634   9.776  11.369  0.2617 -0.4017 -0.5395
  788MOL0     C 6305  10.713   9.783  11.492  0.7980  0.3393 -0.8715
  788MOL0     C 6306  10.737   9.647  11.546 -0.0668 -0.9858  0.1277
  788MOL0     C 6307  10.845   9.578  11.454  0.0301 -0.0441 -0.0903
  788MOL0     C 6308  10.824   9.430  11.458 -0.8795 -0.4992  0.6589
  788MOL0     C 6309  10.929   9.367  11.382 -0.2480  0.6766  0.1293
  788MOL0     C 6310  11.007   9.301  11.315  0.7189  0.5123  0.4137
  788MOL0     C 6311  10.449   9.858  11.235 -0.1209  0.7012 -0.4287
  788MOL0     C 6312  10.367   9.964  11.178 -0.1431  0.4686  0.6104
  788MOL0     H 6313   9.971  10.047  11.042 -1.6190  0.8838  1.2136
  788MOL0     H 6314   9.752  10.157  10.986  0.3791 -0.4884 -1.3058
  788MOL0     H 6315   9.612  10.311  10.849 -0.5989 -1.0622  1.5704
  788MOL0     H 6316   9.551  10.284  11.019 -1.0276 -0.8143 -0.3655
  788MOL0     H 6317   9.450  10.494  11.050 -1.4405  0.0388 -0.4068
  788MOL0     H 6318   9.478  10.542  10.886 -1.2616 -0.4620 -0.3813
  788MOL0     H 6319   9.365  10.373  10.795  0.4573  2.3728 -0.8174
  788MOL0     H 6320   9.313  10.306  10.955 -0.6805  1.0651  0.9552
  788MOL0     H 6321   9.201  10.544  10.995 -1.5351 -1.1021 -0.2140
  788MOL0     H 6322   9.246  10.598  10.836 -0.9950  0.3391  0.7458
  788MOL0     H 6323   9.098  10.456  10.732 -2.6981 -0.1816 -0.5846
  788MOL0     H 6324   9.103  10.340  10.859  1.1275  0.7853 -0.2348
  788MOL0     H 6325   8.975  10.491  11.010 -1.1039  0.2053  0.1301
  788MOL0     H 6326   8.983  10.617  10.886 -1.1432 -0.7120  0.0451
  788MOL0     H 6327   8.842  10.492  10.751 -0.4789  1.5171  0.8627
  788MOL0     H 6328   8.829  10.352  10.853 -2.9175 -0.5672  1.7733
  788MOL0     H 6329   8.724  10.633  10.898  0.0401 -0.5720 -3.4033
  788MOL0     H 6330   8.739  10.516  11.032 -1.3779 -1.8358 -0.0888
  788MOL0     H 6331   8.516  10.394  11.076  2.4445  2.4772  0.4644
  788MOL0     H 6332   8.248  10.246  10.888 -2.2189 -2.2517  5.4317
  788MOL0     H 6333   8.269  10.317  11.040 -1.8172  4.7977  0.7841
  788MOL0     H 6334   8.134  10.436  10.811 -2.8889 -2.1818  0.2804
  788MOL0     H 6335   8.158  10.533  10.960 -2.3748  2.2093 -1.2924
  788MOL0     H 6336   8.013  10.338  11.067 -2.5186  4.5007  0.1421
  788MOL0     H 6337   7.992  10.274  10.899  1.1956  0.3673 -0.5542
  788MOL0     H 6338   7.815  10.412  10.927  0.3800 -0.6631  1.0715
  788MOL0     H 6339   7.913  10.529  10.845  0.4012 -0.3261  0.1859
  788MOL0     H 6340   7.860  10.734  11.247 -0.8217 -0.6746  1.5434
  788MOL0     H 6341   7.769  10.950  11.329 -0.6318  3.9631  1.1494
  788MOL0     H 6342   7.610  10.997  11.341 -1.2926 -0.0560  1.7223
  788MOL0     H 6343   7.647  10.838  11.417 -0.5236  2.2542  1.1344
  788MOL0     H 6344   7.259  11.151  11.143 -1.0333 -0.2112  2.5649
  788MOL0     H 6345   7.027  11.192  11.170  3.1881 -0.3868  1.0402
  788MOL0     H 6346   6.779  11.030  11.244  0.7896 -1.3798 -1.2463
  788MOL0     H 6347   6.785  11.190  11.164 -0.9064  0.1994  0.2231
  788MOL0     H 6348   6.590  11.127  11.019 -2.0352 -0.6742 -0.3728
  788MOL0     H 6349   6.583  10.962  11.091 -0.3603 -0.2213 -1.6292
  788MOL0     H 6350   6.416  11.144  11.154 -0.8360  1.2145  2.2559
  788MOL0     H 6351   6.545  11.226  11.242 -0.1025  0.8844 -0.8964
  788MOL0     H 6352   6.457  10.938  11.307 -0.3106  0.3580 -0.0158
  788MOL0     H 6353   6.592  11.017  11.373 -0.0888 -3.5954  0.5343
  788MOL0     H 6354   6.398  11.206  11.454  1.0312  0.0769 -2.4173
  788MOL0     H 6355   6.405  11.047  11.521  0.5061 -0.9417  0.0099
  788MOL0     H 6356   6.223  11.116  11.294 -0.5899  0.0306  0.0599
  788MOL0     H 6357   6.232  10.958  11.389  0.5435 -0.4709 -0.2314
  788MOL0     H 6358   6.170  11.212  11.538  0.2491  1.1074 -0.7172
  788MOL0     H 6359   6.095  11.051  11.554 -0.3663  1.5194  1.0129
  788MOL0     H 6360   5.962  11.063  11.375  0.3418 -0.0270  1.1856
  788MOL0     H 6361   6.040  11.213  11.310 -0.8900  0.2999 -0.9667
  788MOL0     H 6362   6.931  10.856  10.926  0.3727  0.0048 -0.9374
  788MOL0     H 6363   7.176  10.809  10.900 -0.9223  1.1752 -2.1721
  788MOL0     H 6364   7.514  10.772  10.904 -0.2430 -0.8052 -0.1609
  788MOL0     H 6365   7.688  10.598  10.884 -0.7725 -2.4992  1.4259
  788MOL0     H 6366   9.914  10.544  11.029  0.4544 -0.7221 -0.8182
  788MOL0     H 6367  10.137  10.437  11.105  0.2882  0.1784 -0.9166
  788MOL0     H 6368  10.458  10.220  11.388  0.3325  0.6341 -2.4135
  788MOL0     H 6369  10.627  10.045  11.454 -0.3980 -0.1257  1.5798
  788MOL0     H 6370  10.808   9.831  11.465  1.8777 -0.1197  1.7895
  788MOL0     H 6371  10.658   9.844  11.565 -0.2687  0.1510 -1.4926
  788MOL0     H 6372  10.644   9.590  11.542 -1.4451  1.1726  0.3692
  788MOL0     H 6373  10.767   9.646  11.651  1.4359 -3.5344 -0.2143
  788MOL0     H 6374  10.946   9.601  11.488 -0.3112 -0.2158  1.0652
  788MOL0     H 6375  10.838   9.610  11.349  3.6313 -2.9716 -1.4484
  788MOL0     H 6376  10.725   9.394  11.430 -0.3345 -2.5079  1.1975
  788MOL0     H 6377  10.840   9.393  11.559 -1.0511  0.1629  0.9363
  788MOL0     H 6378  11.088   9.269  11.253  1.4770  0.6815  1.2955
  788MOL0     H 6379  10.433   9.753  11.211 -0.9075  0.4572  1.0407
  788MOL0     H 6380  10.310   9.935  11.090  0.0561 -2.2429  1.2951
  789MOL0     O 6381   2.406   3.547   6.034 -0.4837  0.7465  0.2438
  789MOL0     C 6382   2.531   3.527   6.060  0.9709 -0.2673 -0.1408
  789MOL0     O 6383   2.574   3.447   6.164 -0.0894  0.7880  0.5246
  789MOL0     C 6384   2.490   3.388   6.259 -0.8581 -0.7799 -0.0501
  789MOL0     C 6385   2.371   3.317   6.235 -0.8601  0.1756 -0.2885
  789MOL0     C 6386   2.285   3.283   6.338 -0.1020 -0.0733  1.2925
  789MOL0     C 6387   2.315   3.325   6.466 -0.0409  0.2757 -0.4687
  789MOL0     O 6388   2.215   3.303   6.557 -0.2838 -0.1616  0.2001
  789MOL0     C 6389   2.215   3.351   6.694 -0.1293  0.4373  0.6382
  789MOL0     C 6390   2.105   3.288   6.782 -0.7141  0.1525  0.4072
  789MOL0     C 6391   1.968   3.302   6.717  0.4247 -0.4274 -0.2972
  789MOL0     C 6392   1.856   3.233   6.789  0.2590 -0.1563  0.7300
  789MOL0     C 6393   1.717   3.281   6.736  0.1017 -0.1681  0.2557
  789MOL0     C 6394   1.602   3.199   6.795  0.1112 -0.4270 -0.1489
  789MOL0     C 6395   1.463   3.236   6.734 -1.8640 -0.6261 -0.0056
  789MOL0     C 6396   1.350   3.161   6.796 -0.1736  0.2281 -0.0451
  789MOL0     N 6397   1.371   3.014   6.761 -0.0206  0.1942 -0.0472
  789MOL0     C 6398   1.375   2.954   6.636 -0.0989 -0.3692  0.3463
  789MOL0     C 6399   1.393   2.821   6.662 -0.2869 -0.9513 -0.4509
  789MOL0     C 6400   1.431   2.721   6.565  0.8426 -0.1884  0.4555
  789MOL0     C 6401   1.328   2.728   6.449  0.0398 -0.1006  0.8685
  789MOL0     C 6402   1.329   2.603   6.365  0.1390 -0.0449  0.3286
  789MOL0     C 6403   1.234   2.625   6.239  0.2896  0.9051  0.1815
  789MOL0     O 6404   1.106   2.642   6.305 -0.1541 -0.5497 -0.0330
  789MOL0     C 6405   0.994   2.683   6.232 -0.3499  0.2799  1.1862
  789MOL0     C 6406   0.985   2.696   6.086 -0.4944  0.8684  0.1279
  789MOL0     C 6407   0.865   2.724   6.024 -0.7247  0.6885 -0.4842
  789MOL0     C 6408   0.870   2.718   5.875  0.1139  0.2814  0.5705
  789MOL0     C 6409   0.754   2.759   6.106  0.1300 -0.3005  0.0110
  789MOL0     C 6410   0.634   2.822   6.047 -0.6576  0.5128  0.0308
  789MOL0     O 6411   0.540   2.860   6.141  0.1772 -0.2109 -1.0121
  789MOL0     C 6412   0.432   2.942   6.111  0.4666 -0.2442  0.0527
  789MOL0     C 6413   0.309   2.886   6.138  0.2729 -1.2736  0.0884
  789MOL0     C 6414   0.192   2.956   6.115 -0.0234 -0.2945 -0.2361
  789MOL0     C 6415   0.197   3.076   6.044 -0.3579  0.4607  0.2955
  789MOL0     O 6416   0.083   3.140   6.013 -0.8348  0.2935  0.1288
  789MOL0     C 6417   0.072   3.225   5.902 -0.3387 -0.2992  0.9682
  789MOL0     C 6418  -0.068   3.227   5.837  0.3625  0.3835  0.2354
  789MOL0     C 6419  -0.177   3.235   5.943  0.2859 -0.6003 -0.5739
  789MOL0     C 6420  -0.320   3.261   5.901  0.0390 -0.4466 -0.3330
  789MOL0     C 6421  -0.412   3.221   6.012 -0.5566 -0.0151 -0.0734
  789MOL0     C 6422  -0.557   3.202   5.955  0.1009 -1.6432 -0.9833
  789MOL0     C 6423  -0.657   3.149   6.059 -1.2208 -0.3178  0.3769
  789MOL0     C 6424  -0.662   3.228   6.190 -0.7605 -0.7450 -0.4956
  789MOL0    Cl 6425  -0.766   3.142   6.309  0.5427  0.3752  0.0767
  789MOL0     C 6426   0.322   3.127   6.005  0.4575 -0.1117  0.7653
  789MOL0     C 6427   0.438   3.067   6.048 -0.3078  0.2915 -0.3885
  789MOL0     O 6428   0.625   2.845   5.931  0.2841 -0.0284  0.4528
  789MOL0     C 6429   0.764   2.751   6.243  0.1091 -0.0559 -0.2640
  789MOL0     C 6430   0.886   2.718   6.306  0.0269  0.0950  0.7032
  789MOL0     N 6431   1.412   2.807   6.800  0.5050 -0.7848 -0.6918
  789MOL0     N 6432   1.388   2.921   6.856 -0.2648  0.4264 -0.1005
  789MOL0     C 6433   2.441   3.372   6.491  0.2271  0.4789  0.0802
  789MOL0     C 6434   2.526   3.409   6.391  0.0694  0.5033  1.1326
  789MOL0     C 6435   2.641   3.606   5.997  0.2551 -0.0357 -0.9109
  789MOL0     C 6436   2.616   3.703   5.892 -0.3305  0.4418  0.0681
  789MOL0     C 6437   2.722   3.758   5.818 -0.5451 -0.3658  0.8110
  789MOL0     C 6438   2.853   3.734   5.856  0.8282  1.0852  0.7706
  789MOL0     O 6439   2.947   3.815   5.795 -0.4849  0.1031  0.0469
  789MOL0     C 6440   3.071   3.753   5.759 -0.7919 -1.4807  0.1968
  789MOL0     C 6441   3.152   3.845   5.665  0.5255 -0.0533  0.1423
  789MOL0     C 6442   3.298   3.811   5.648 -0.3244 -0.1178 -0.6842
  789MOL0     C 6443   3.320   3.667   5.598  0.6316 -0.8421 -0.2569
  789MOL0     C 6444   3.460   3.645   5.593  0.7737  0.3133 -0.3869
  789MOL0     C 6445   3.575   3.626   5.582 -0.7240 -0.6769 -0.3575
  789MOL0     C 6446   2.879   3.638   5.952 -0.1130  0.5371 -0.4653
  789MOL0     C 6447   2.779   3.573   6.017  0.1683 -0.2590  0.3533
  789MOL0     H 6448   2.337   3.289   6.136 -0.2446 -0.8868 -0.2119
  789MOL0     H 6449   2.192   3.233   6.315  2.1753 -3.7156 -0.9894
  789MOL0     H 6450   2.314   3.337   6.738  0.1174 -1.1042 -0.3578
  789MOL0     H 6451   2.196   3.459   6.700  1.3402  0.6427  3.5566
  789MOL0     H 6452   2.130   3.182   6.787 -1.0392 -0.0299 -1.4035
  789MOL0     H 6453   2.105   3.325   6.885 -1.5658 -1.8298  1.1786
  789MOL0     H 6454   1.950   3.409   6.701 -1.2279 -0.8097 -1.1971
  789MOL0     H 6455   1.964   3.261   6.616 -0.3575  1.9622 -1.2979
  789MOL0     H 6456   1.874   3.130   6.757  0.0037 -0.1650  0.6189
  789MOL0     H 6457   1.867   3.231   6.898  0.1771 -0.7720  0.7304
  789MOL0     H 6458   1.715   3.387   6.762  1.8578 -0.1239  0.3512
  789MOL0     H 6459   1.723   3.282   6.626  1.5041  0.9878  0.3098
  789MOL0     H 6460   1.627   3.095   6.768 -0.9695 -1.8870  3.7692
  789MOL0     H 6461   1.604   3.203   6.904  3.5889  4.8690 -0.0650
  789MOL0     H 6462   1.443   3.343   6.745  0.5172  0.0218 -1.1827
  789MOL0     H 6463   1.475   3.211   6.628 -0.5805 -1.7408  0.3814
  789MOL0     H 6464   1.253   3.184   6.752 -0.3639 -2.3511 -1.1865
  789MOL0     H 6465   1.338   3.175   6.904 -0.8365 -0.5742 -0.0045
  789MOL0     H 6466   1.352   3.006   6.543 -0.8944  0.7841  1.1535
  789MOL0     H 6467   1.535   2.734   6.534  0.5395 -3.9675 -2.9838
  789MOL0     H 6468   1.435   2.623   6.613  3.0472 -0.7593 -0.7431
  789MOL0     H 6469   1.357   2.811   6.384  1.3544 -1.4947 -0.4123
  789MOL0     H 6470   1.231   2.741   6.498  0.3689 -0.1152  1.5310
  789MOL0     H 6471   1.284   2.521   6.423 -0.2276  0.6815  1.0847
  789MOL0     H 6472   1.433   2.578   6.340 -1.1067 -4.1113 -1.7343
  789MOL0     H 6473   1.232   2.536   6.175  2.8647  0.8835  0.0162
  789MOL0     H 6474   1.256   2.715   6.181  0.1085 -0.3244 -1.9154
  789MOL0     H 6475   1.073   2.684   6.024 -0.0589  1.1949  0.6644
  789MOL0     H 6476   0.875   2.812   5.819 -0.5782 -2.4375 -4.5948
  789MOL0     H 6477   0.956   2.656   5.850  1.7146  1.5256  2.6622
  789MOL0     H 6478   0.775   2.684   5.834 -0.9203  1.5314  1.8104
  789MOL0     H 6479   0.313   2.790   6.187  0.0697 -2.1541 -1.5526
  789MOL0     H 6480   0.096   2.914   6.141 -1.2336  2.7001  0.6299
  789MOL0     H 6481   0.097   3.326   5.936  0.1867 -0.2078  0.3217
  789MOL0     H 6482   0.138   3.196   5.820 -0.3378  5.2309 -1.4428
  789MOL0     H 6483  -0.089   3.303   5.761  0.4019 -0.8445 -1.0441
  789MOL0     H 6484  -0.081   3.130   5.788  0.6943 -0.4339  1.7038
  789MOL0     H 6485  -0.149   3.316   6.011 -2.8819  2.3466 -2.4724
  789MOL0     H 6486  -0.164   3.138   5.992  0.0768 -0.0574  0.5868
  789MOL0     H 6487  -0.327   3.365   5.868 -0.5512 -0.0917  0.8805
  789MOL0     H 6488  -0.330   3.190   5.818  0.0661 -0.4823 -0.3059
  789MOL0     H 6489  -0.411   3.302   6.084  1.4199  0.0231 -0.1136
  789MOL0     H 6490  -0.387   3.127   6.063  0.2773  0.4266  0.3267
  789MOL0     H 6491  -0.592   3.302   5.924  0.5421 -0.1440  2.8341
  789MOL0     H 6492  -0.552   3.130   5.873  0.2240 -3.0074  0.1876
  789MOL0     H 6493  -0.621   3.048   6.080  0.1793 -0.6115 -2.7439
  789MOL0     H 6494  -0.757   3.144   6.015 -0.6974 -0.3644 -0.8768
  789MOL0     H 6495  -0.703   3.328   6.172  2.6138  0.6329 -1.2167
  789MOL0     H 6496  -0.559   3.248   6.223 -0.6839  0.5583 -1.4626
  789MOL0     H 6497   0.326   3.222   5.951  3.5656 -1.9752 -2.7288
  789MOL0     H 6498   0.537   3.107   6.030 -0.3890 -0.0646 -1.7766
  789MOL0     H 6499   0.685   2.784   6.309 -1.6128 -0.1104 -2.1737
  789MOL0     H 6500   0.896   2.710   6.414  0.8301  0.0087  0.6269
  789MOL0     H 6501   2.459   3.382   6.597 -0.8311 -3.0786  0.7318
  789MOL0     H 6502   2.621   3.461   6.402  0.7319  0.2719 -2.3553
  789MOL0     H 6503   2.518   3.743   5.865 -0.4098  2.0168  2.4410
  789MOL0     H 6504   2.710   3.835   5.743  0.9064 -1.4050 -0.5679
  789MOL0     H 6505   3.130   3.756   5.851 -1.5710  2.0197  0.7153
  789MOL0     H 6506   3.063   3.652   5.717  0.4023 -0.9232 -1.4585
  789MOL0     H 6507   3.140   3.949   5.695 -2.1711  0.4160 -2.0897
  789MOL0     H 6508   3.109   3.827   5.566 -0.7480 -0.4124  0.7352
  789MOL0     H 6509   3.345   3.819   5.745 -0.6743 -1.2108 -0.4008
  789MOL0     H 6510   3.353   3.870   5.575 -1.0092 -0.3429 -1.4073
  789MOL0     H 6511   3.270   3.642   5.505 -1.0064  2.0236 -0.2295
  789MOL0     H 6512   3.278   3.602   5.676 -0.8962 -3.0481 -2.7328
  789MOL0     H 6513   3.677   3.593   5.591 -1.0997 -1.4960  1.2893
  789MOL0     H 6514   2.977   3.614   5.993 -0.2685 -2.8204 -1.7035
  789MOL0     H 6515   2.807   3.491   6.083  1.9214  1.0768  1.3842
  790MOL0     O 6516   8.540   2.283   6.824  0.3707  0.0076 -0.4183
  790MOL0     C 6517   8.498   2.171   6.839 -0.2257  0.1082  0.3342
  790MOL0     O 6518   8.564   2.055   6.803  0.3488  0.4211 -0.8711
  790MOL0     C 6519   8.670   2.052   6.722 -0.0246 -0.4185 -0.6298
  790MOL0     C 6520   8.759   1.954   6.752 -0.1732 -0.1815  0.3628
  790MOL0     C 6521   8.883   1.952   6.686 -0.7111  0.1816  0.3886
  790MOL0     C 6522   8.907   2.043   6.585 -0.1318 -0.0546 -0.0917
  790MOL0     O 6523   9.022   2.018   6.516 -0.4813  0.4828  0.0712
  790MOL0     C 6524   9.040   2.083   6.392 -0.9555 -0.0434  0.6292
  790MOL0     C 6525   8.953   2.027   6.278 -1.1715 -0.1906  0.2506
  790MOL0     C 6526   9.011   2.055   6.136  0.1141 -0.6465 -0.5698
  790MOL0     C 6527   8.912   2.075   6.026  0.0607  0.2521 -0.1588
  790MOL0     C 6528   8.968   2.105   5.896 -0.5439  0.0869 -0.4479
  790MOL0     C 6529   8.858   2.134   5.799  0.1171 -0.6934 -0.4497
  790MOL0     C 6530   8.753   2.233   5.846 -0.9696 -0.2808 -0.9502
  790MOL0     C 6531   8.663   2.271   5.738 -0.1094 -0.0729 -0.3991
  790MOL0     N 6532   8.561   2.377   5.763 -0.3433 -0.5923 -0.2029
  790MOL0     C 6533   8.569   2.516   5.740 -0.1700  0.6503 -0.6102
  790MOL0     C 6534   8.451   2.569   5.791 -0.0117 -0.6136 -0.2689
  790MOL0     C 6535   8.410   2.718   5.796  0.0858 -0.1955  0.8141
  790MOL0     C 6536   8.428   2.777   5.933 -0.0166  0.4990  0.2138
  790MOL0     C 6537   8.371   2.916   5.937 -0.5762  0.0016 -0.3709
  790MOL0     C 6538   8.220   2.925   5.915 -0.0456  0.2992 -0.5508
  790MOL0     O 6539   8.165   3.049   5.937  0.4363  0.1133  0.1225
  790MOL0     C 6540   8.047   3.080   5.873  0.5863 -0.9153 -0.9339
  790MOL0     C 6541   7.974   2.994   5.793  0.3555 -0.6792 -0.3930
  790MOL0     C 6542   7.860   3.033   5.718  0.0169 -0.6172 -0.1865
  790MOL0     C 6543   7.796   2.931   5.632 -0.2279 -0.1080 -0.3995
  790MOL0     C 6544   7.810   3.165   5.737 -1.0489 -0.0394  0.4545
  790MOL0     C 6545   7.679   3.211   5.670 -0.3767 -0.1177 -0.4515
  790MOL0     O 6546   7.614   3.316   5.743  0.8811  0.6323  0.4060
  790MOL0     C 6547   7.508   3.378   5.692  0.1079 -1.0314 -0.1996
  790MOL0     C 6548   7.510   3.468   5.579 -0.3272  0.4812 -0.3872
  790MOL0     C 6549   7.393   3.526   5.538  0.4393  0.2635 -0.2941
  790MOL0     C 6550   7.269   3.502   5.595  0.0164 -0.2539  0.4121
  790MOL0     O 6551   7.175   3.577   5.529 -0.5849 -0.4317 -0.6557
  790MOL0     C 6552   7.034   3.573   5.567 -0.1301 -0.0250 -0.0660
  790MOL0     C 6553   6.958   3.658   5.479 -0.2011  0.2031 -0.3576
  790MOL0     C 6554   6.825   3.707   5.528 -0.6357 -0.6699 -0.1582
  790MOL0     C 6555   6.708   3.641   5.458  0.2694 -0.0233 -0.3410
  790MOL0     C 6556   6.579   3.718   5.503  0.1818  0.8043 -0.0575
  790MOL0     C 6557   6.447   3.641   5.462  0.0744 -0.3275 -0.7848
  790MOL0     C 6558   6.326   3.707   5.536 -0.5042 -0.2442 -0.2930
  790MOL0     C 6559   6.202   3.632   5.511  0.0469  0.8029 -0.4289
  790MOL0    Cl 6560   6.059   3.696   5.608  0.5900 -0.0876  0.6665
  790MOL0     C 6561   7.254   3.420   5.708 -0.0251 -0.2773 -0.2447
  790MOL0     C 6562   7.376   3.360   5.746 -0.7740  0.2715  0.2883
  790MOL0     O 6563   7.642   3.168   5.563 -0.3262 -0.6075 -0.0974
  790MOL0     C 6564   7.876   3.248   5.826 -0.2463 -0.3694  1.0501
  790MOL0     C 6565   7.996   3.206   5.896 -0.6172  0.1158  0.4667
  790MOL0     N 6566   8.368   2.468   5.826  0.2577  0.9398 -0.3696
  790MOL0     N 6567   8.426   2.350   5.810 -0.3060  0.8955  0.2677
  790MOL0     C 6568   8.823   2.145   6.557  0.1990  0.0998  0.6143
  790MOL0     C 6569   8.701   2.147   6.624 -0.6855 -0.3648  0.3299
  790MOL0     C 6570   8.363   2.165   6.874 -0.5265  0.1287  0.8268
  790MOL0     C 6571   8.295   2.252   6.969  0.1650  0.2292 -0.3088
  790MOL0     C 6572   8.159   2.231   6.992 -1.0798  0.2389 -0.4581
  790MOL0     C 6573   8.085   2.147   6.913  0.3487  0.8394  0.0254
  790MOL0     O 6574   7.944   2.135   6.913 -0.5811  0.4311 -0.4959
  790MOL0     C 6575   7.874   2.216   7.008 -0.1804 -0.6197 -0.7287
  790MOL0     C 6576   7.735   2.226   6.968  0.4664  0.5348  0.0983
  790MOL0     C 6577   7.659   2.317   7.066  0.0728 -0.4047  0.9565
  790MOL0     C 6578   7.512   2.337   7.014 -1.1763  0.5249  0.4449
  790MOL0     C 6579   7.516   2.430   6.904 -0.4566  0.1389 -0.1860
  790MOL0     C 6580   7.533   2.503   6.807 -0.5615  0.0810  0.3288
  790MOL0     C 6581   8.143   2.059   6.822  0.0289  0.0462  0.3180
  790MOL0     C 6582   8.284   2.060   6.811 -1.2150  0.2131 -0.2824
  790MOL0     H 6583   8.742   1.888   6.838 -0.7025 -1.2172 -0.5075
  790MOL0     H 6584   8.956   1.874   6.707 -0.3661  0.6226  0.8489
  790MOL0     H 6585   9.038   2.193   6.398 -1.4053  0.0681 -1.0864
  790MOL0     H 6586   9.140   2.056   6.356 -1.1880  1.6591 -1.5107
  790MOL0     H 6587   8.941   1.918   6.284 -0.1599 -0.5355 -2.6302
  790MOL0     H 6588   8.856   2.074   6.295 -0.2211  2.5069 -1.2231
  790MOL0     H 6589   9.069   2.148   6.139  1.2024 -1.2423 -2.1109
  790MOL0     H 6590   9.087   1.982   6.109  1.6486  0.8244 -0.3587
  790MOL0     H 6591   8.856   1.982   6.010  2.3530 -0.7949 -2.9541
  790MOL0     H 6592   8.846   2.152   6.067  2.2094  2.6516 -0.9380
  790MOL0     H 6593   9.029   2.191   5.928 -2.2988  0.7433  1.3867
  790MOL0     H 6594   9.029   2.024   5.856  0.8296 -1.5805  4.2848
  790MOL0     H 6595   8.885   2.161   5.697 -1.6379  1.0305 -0.5282
  790MOL0     H 6596   8.805   2.041   5.777 -0.2312 -0.0540 -2.5832
  790MOL0     H 6597   8.703   2.184   5.930  0.0936 -1.1326 -0.7783
  790MOL0     H 6598   8.805   2.322   5.881  0.8865 -1.7949  0.3861
  790MOL0     H 6599   8.601   2.184   5.715  0.6869  0.1642 -3.9818
  790MOL0     H 6600   8.715   2.306   5.648  4.1755  2.4647  2.6450
  790MOL0     H 6601   8.652   2.575   5.703  2.2091 -0.3682  2.6361
  790MOL0     H 6602   8.473   2.771   5.723  0.9786 -0.8848  1.0635
  790MOL0     H 6603   8.305   2.724   5.767 -0.1122 -0.9163  1.3470
  790MOL0     H 6604   8.536   2.781   5.953  0.2908  4.9146 -1.2174
  790MOL0     H 6605   8.387   2.723   6.018 -1.4953  5.1812  2.8090
  790MOL0     H 6606   8.410   2.978   5.856  0.7215 -0.8825 -0.4541
  790MOL0     H 6607   8.392   2.965   6.032  0.7320  1.2920 -1.2879
  790MOL0     H 6608   8.181   2.842   5.975  0.6533 -2.0777 -3.1836
  790MOL0     H 6609   8.201   2.896   5.811 -2.3567 -0.5713  0.0518
  790MOL0     H 6610   8.004   2.890   5.788  3.1254  0.0932 -2.9097
  790MOL0     H 6611   7.831   2.830   5.659 -2.5249 -1.7616 -3.0627
  790MOL0     H 6612   7.688   2.939   5.644 -0.2935  1.3867 -1.7706
  790MOL0     H 6613   7.824   2.955   5.529  2.3106 -0.2992  0.1791
  790MOL0     H 6614   7.590   3.466   5.506  1.1926 -0.6935  1.2222
  790MOL0     H 6615   7.382   3.586   5.449 -0.6075  0.2989 -0.1573
  790MOL0     H 6616   7.004   3.468   5.558  2.2074 -0.6133 -1.7000
  790MOL0     H 6617   7.027   3.604   5.672 -1.0599 -2.7563  0.7758
  790MOL0     H 6618   7.012   3.753   5.467  1.4647 -0.7825 -0.9383
  790MOL0     H 6619   6.946   3.612   5.380 -2.9102 -1.3050  0.5534
  790MOL0     H 6620   6.811   3.815   5.520 -2.9985 -1.0351 -2.3996
  790MOL0     H 6621   6.807   3.690   5.635 -3.3205 -1.0408 -0.6074
  790MOL0     H 6622   6.726   3.655   5.351  0.0259  2.0032 -0.1469
  790MOL0     H 6623   6.710   3.534   5.481 -0.1304 -0.0480 -0.4230
  790MOL0     H 6624   6.596   3.820   5.468 -0.7882  0.7558 -0.7127
  790MOL0     H 6625   6.572   3.721   5.612 -1.5303  0.5490 -0.1265
  790MOL0     H 6626   6.426   3.630   5.355 -2.0628 -3.1083 -0.2091
  790MOL0     H 6627   6.459   3.538   5.497  1.0795 -1.2813 -3.6405
  790MOL0     H 6628   6.312   3.808   5.496 -2.3216  0.8215  2.6797
  790MOL0     H 6629   6.348   3.723   5.642  1.7792  1.3640 -0.9195
  790MOL0     H 6630   6.217   3.527   5.537  0.3808  1.7210  3.7268
  790MOL0     H 6631   6.192   3.661   5.406  0.8925  5.7969  0.6188
  790MOL0     H 6632   7.164   3.403   5.766  0.8767 -3.3825  0.4503
  790MOL0     H 6633   7.360   3.293   5.830 -2.1480 -0.0710 -0.2153
  790MOL0     H 6634   7.842   3.350   5.840 -1.5808 -0.3926 -1.3863
  790MOL0     H 6635   8.050   3.270   5.965 -1.3423  0.7204  0.4881
  790MOL0     H 6636   8.837   2.212   6.472  1.8348 -0.0971  0.6978
  790MOL0     H 6637   8.645   2.226   6.576  1.3973 -0.0885 -1.8730
  790MOL0     H 6638   8.344   2.333   7.021  2.1105 -0.9425 -0.2421
  790MOL0     H 6639   8.115   2.304   7.059  0.8902 -1.4188  2.9176
  790MOL0     H 6640   7.875   2.173   7.109 -3.5346 -2.6796 -1.4101
  790MOL0     H 6641   7.913   2.318   7.016 -1.8759 -0.0507  4.6025
  790MOL0     H 6642   7.692   2.125   6.969 -1.0779  1.1574  1.3669
  790MOL0     H 6643   7.720   2.273   6.871 -1.1848  1.7225  0.8843
  790MOL0     H 6644   7.715   2.411   7.075 -0.1718 -0.2837  1.2474
  790MOL0     H 6645   7.658   2.263   7.161 -1.8864  0.4272  1.4521
  790MOL0     H 6646   7.451   2.364   7.100 -2.9233  4.8153 -1.8354
  790MOL0     H 6647   7.486   2.242   6.965 -0.0039  0.7820 -0.7156
  790MOL0     H 6648   7.529   2.558   6.715  1.0462  3.0057  1.8794
  790MOL0     H 6649   8.086   1.993   6.757  1.6864  0.0877 -1.2541
  790MOL0     H 6650   8.340   2.003   6.738 -1.2757  1.3369 -1.2388
  791MOL0     O 6651   8.358   2.024  10.579  0.7142  0.4986  1.0440
  791MOL0     C 6652   8.427   1.945  10.514 -0.0487 -0.7157 -0.8042
  791MOL0     O 6653   8.428   1.938  10.370 -0.2895 -0.8013 -0.5874
  791MOL0     C 6654   8.362   2.028  10.284 -0.0751 -0.3304  0.2773
  791MOL0     C 6655   8.426   2.058  10.166 -0.7558  0.2606 -1.3248
  791MOL0     C 6656   8.363   2.144  10.072  0.2054  0.1561 -0.1176
  791MOL0     C 6657   8.246   2.218  10.109 -0.3456  0.8676 -0.1679
  791MOL0     O 6658   8.212   2.316  10.026 -0.2277 -0.0162  0.0361
  791MOL0     C 6659   8.078   2.369  10.021 -0.2870 -0.1629 -0.2865
  791MOL0     C 6660   8.069   2.478   9.910  0.6894  0.2626 -0.5169
  791MOL0     C 6661   7.935   2.555   9.899 -0.1381 -0.0056 -0.4110
  791MOL0     C 6662   7.930   2.682   9.985  0.1167 -1.0946 -0.4186
  791MOL0     C 6663   7.998   2.793   9.920 -0.1276 -0.6318  0.1883
  791MOL0     C 6664   7.997   2.906  10.026 -0.4187 -0.0584 -0.2633
  791MOL0     C 6665   8.003   3.039   9.940  0.4996  0.3149 -1.4056
  791MOL0     C 6666   8.017   3.165  10.027 -0.0355 -0.8364 -0.6244
  791MOL0     N 6667   7.896   3.190  10.104 -0.0228 -0.1747 -0.2981
  791MOL0     C 6668   7.872   3.166  10.239 -0.7093 -0.6660  0.2870
  791MOL0     C 6669   7.745   3.213  10.262 -0.2202 -0.2445  0.7276
  791MOL0     C 6670   7.654   3.210  10.395  0.0348  0.1632 -1.2018
  791MOL0     C 6671   7.665   3.343  10.469 -0.7601  0.3776 -0.3665
  791MOL0     C 6672   7.663   3.332  10.622 -0.4151 -0.5979  0.3072
  791MOL0     C 6673   7.593   3.443  10.687  0.5501  0.5461 -0.3561
  791MOL0     O 6674   7.456   3.416  10.651  0.1335  0.3737  0.0413
  791MOL0     C 6675   7.363   3.514  10.661  0.0245 -0.1726  0.4669
  791MOL0     C 6676   7.369   3.640  10.718  0.8842  0.1947  0.3676
  791MOL0     C 6677   7.264   3.734  10.721 -0.1645 -1.0203 -0.3653
  791MOL0     C 6678   7.291   3.861  10.815 -0.8337 -0.3858  0.3352
  791MOL0     C 6679   7.146   3.700  10.643  0.5873 -0.8334 -0.1626
  791MOL0     C 6680   7.022   3.791  10.632 -0.3041  0.5751  0.1347
  791MOL0     O 6681   6.906   3.720  10.604 -0.4800  0.4652  0.9031
  791MOL0     C 6682   6.778   3.768  10.598 -0.2260 -0.6247 -0.4735
  791MOL0     C 6683   6.688   3.714  10.505 -0.7833  0.6545  0.2176
  791MOL0     C 6684   6.554   3.751  10.510 -0.4544 -0.1176  0.2910
  791MOL0     C 6685   6.503   3.845  10.599  0.5890 -0.5120  0.4483
  791MOL0     O 6686   6.367   3.858  10.588  0.2847  0.1251  0.2297
  791MOL0     C 6687   6.302   3.976  10.640 -0.3026 -0.2454 -0.2849
  791MOL0     C 6688   6.156   3.931  10.653 -1.0245  0.2925 -0.8178
  791MOL0     C 6689   6.058   4.037  10.668  1.3413 -0.8322  0.0348
  791MOL0     C 6690   5.917   3.984  10.700  0.0971  0.1394  0.9134
  791MOL0     C 6691   5.807   4.090  10.697  0.1021  0.1350  0.4121
  791MOL0     C 6692   5.672   4.019  10.724 -0.2136  0.5478  0.3809
  791MOL0     C 6693   5.570   4.126  10.758 -0.3408  0.1805  0.0569
  791MOL0     C 6694   5.427   4.069  10.761 -0.1281  0.7043 -0.5250
  791MOL0    Cl 6695   5.329   4.188  10.838 -0.3221  0.0441 -0.3893
  791MOL0     C 6696   6.593   3.908  10.693  0.1007 -0.4572 -0.1205
  791MOL0     C 6697   6.730   3.871  10.684 -0.3062 -0.4322 -0.3039
  791MOL0     O 6698   7.027   3.904  10.671 -0.3328 -0.4357  0.1033
  791MOL0     C 6699   7.137   3.569  10.586  0.2414  0.2871 -0.2785
  791MOL0     C 6700   7.243   3.479  10.594 -0.1138 -0.2196 -0.9231
  791MOL0     N 6701   7.695   3.253  10.135  0.4519  0.8304 -0.1900
  791MOL0     N 6702   7.788   3.243  10.043 -0.5275  0.8330  0.5715
  791MOL0     C 6703   8.178   2.176  10.225 -0.3281 -0.4488  0.1567
  791MOL0     C 6704   8.236   2.078  10.304  0.5021  0.5616  0.0008
  791MOL0     C 6705   8.538   1.874  10.583 -0.1343  0.1293 -0.2544
  791MOL0     C 6706   8.603   1.767  10.529  0.2345  0.3906 -0.2941
  791MOL0     C 6707   8.690   1.692  10.607 -0.5804  0.3704  0.0794
  791MOL0     C 6708   8.712   1.719  10.741  0.2835  0.6123 -0.1791
  791MOL0     O 6709   8.800   1.643  10.811 -0.2506 -0.3150  0.1769
  791MOL0     C 6710   8.883   1.700  10.912  0.5267  0.3317  0.0014
  791MOL0     C 6711   8.966   1.587  10.979 -0.0156  0.0755  0.2172
  791MOL0     C 6712   9.080   1.650  11.050 -0.6073  0.6626  0.4993
  791MOL0     C 6713   9.196   1.556  11.087 -0.4893  0.2730 -0.3413
  791MOL0     C 6714   9.274   1.517  10.964 -0.3303 -0.1190  0.1970
  791MOL0     C 6715   9.321   1.468  10.863  0.1139  0.1862 -0.5142
  791MOL0     C 6716   8.655   1.831  10.792  1.3193  0.0673  0.2440
  791MOL0     C 6717   8.574   1.919  10.712 -0.0348  0.3719  0.2086
  791MOL0     H 6718   8.523   2.011  10.150 -1.6151 -1.7054 -1.0855
  791MOL0     H 6719   8.425   2.171   9.987 -0.3246  2.4744  0.1486
  791MOL0     H 6720   8.002   2.295   9.997 -1.3324  1.4351 -2.0914
  791MOL0     H 6721   8.065   2.421  10.117  1.2590  0.5083 -0.3985
  791MOL0     H 6722   8.143   2.555   9.935  1.4326 -0.8948  1.0621
  791MOL0     H 6723   8.083   2.433   9.812  0.1946  0.0672 -0.5018
  791MOL0     H 6724   7.924   2.568   9.791 -0.2107 -0.4843 -0.4610
  791MOL0     H 6725   7.850   2.495   9.932  0.1345 -0.1069  0.1176
  791MOL0     H 6726   7.824   2.708   9.999  0.2949  1.3439 -2.8906
  791MOL0     H 6727   7.973   2.663  10.084 -1.2203  1.9293  0.9007
  791MOL0     H 6728   8.098   2.765   9.884 -0.5709 -0.4121 -1.2965
  791MOL0     H 6729   7.942   2.818   9.829 -1.4339 -3.1393  0.2140
  791MOL0     H 6730   7.905   2.910  10.085 -0.1198 -0.4103  0.2275
  791MOL0     H 6731   8.074   2.896  10.103 -1.1307 -1.4464  0.3025
  791MOL0     H 6732   8.090   3.036   9.873  0.0026 -0.6879 -2.0266
  791MOL0     H 6733   7.917   3.046   9.872 -0.0479  2.8783 -0.5459
  791MOL0     H 6734   8.028   3.250   9.959  0.7192 -1.0953 -0.8371
  791MOL0     H 6735   8.099   3.157  10.099 -2.0157  1.7317  2.1663
  791MOL0     H 6736   7.941   3.117  10.308  1.7588 -0.8559 -2.0956
  791MOL0     H 6737   7.550   3.178  10.381  0.1029 -0.8759  0.5000
  791MOL0     H 6738   7.692   3.139  10.468  0.6857 -0.3244 -1.9976
  791MOL0     H 6739   7.581   3.403  10.434 -0.6263  1.1956  0.6673
  791MOL0     H 6740   7.754   3.400  10.441 -1.7822  2.2975  0.1476
  791MOL0     H 6741   7.760   3.325  10.672 -0.4795  1.1811  0.7489
  791MOL0     H 6742   7.607   3.242  10.651 -0.1220 -1.3562 -1.3413
  791MOL0     H 6743   7.629   3.543  10.662  0.3359  1.1758  1.6906
  791MOL0     H 6744   7.603   3.435  10.796 -0.0211  2.7608 -0.0862
  791MOL0     H 6745   7.462   3.674  10.762  0.4695  1.9417 -0.0414
  791MOL0     H 6746   7.225   3.946  10.797 -0.3104  0.1579  0.9808
  791MOL0     H 6747   7.277   3.819  10.915  0.6006 -0.3204  0.5818
  791MOL0     H 6748   7.391   3.903  10.807 -0.0960 -2.2825 -1.5299
  791MOL0     H 6749   6.727   3.631  10.448  1.0900 -0.0737  2.4287
  791MOL0     H 6750   6.493   3.700  10.436  0.0867  1.7824 -1.5459
  791MOL0     H 6751   6.343   4.018  10.733  2.3237 -1.3444 -0.8609
  791MOL0     H 6752   6.293   4.056  10.567 -1.0233  0.1896  0.2601
  791MOL0     H 6753   6.133   3.874  10.563 -1.9109 -2.4990  1.0558
  791MOL0     H 6754   6.159   3.873  10.745  1.7918  2.0121  0.3253
  791MOL0     H 6755   6.053   4.113  10.589  1.1386  0.1109  0.9324
  791MOL0     H 6756   6.085   4.097  10.756  3.4993 -1.1834 -0.3273
  791MOL0     H 6757   5.885   3.907  10.629 -3.0229  1.1887  1.0350
  791MOL0     H 6758   5.913   3.937  10.799 -1.1852 -0.8952  0.4049
  791MOL0     H 6759   5.805   4.145  10.602  1.8428  0.7884  0.7305
  791MOL0     H 6760   5.821   4.164  10.776 -1.7624  1.7152 -0.6479
  791MOL0     H 6761   5.641   3.974  10.630  1.6437 -1.5991  0.7192
  791MOL0     H 6762   5.681   3.948  10.807 -0.4472  2.1960  1.8985
  791MOL0     H 6763   5.571   4.210  10.688 -3.5929  0.3353  0.0301
  791MOL0     H 6764   5.593   4.161  10.859  2.4978 -0.4462 -0.2916
  791MOL0     H 6765   5.419   3.973  10.813  2.8327  0.9703  0.6502
  791MOL0     H 6766   5.396   4.057  10.657  0.6166  0.1669 -0.6965
  791MOL0     H 6767   6.558   3.975  10.771  0.7558 -1.1593  0.8108
  791MOL0     H 6768   6.795   3.924  10.753 -2.3197  0.1071  1.3108
  791MOL0     H 6769   7.048   3.537  10.532 -1.0692 -0.6580  2.2506
  791MOL0     H 6770   7.248   3.383  10.544 -0.6215  0.2456 -1.8983
  791MOL0     H 6771   8.093   2.219  10.276  1.0614 -0.4260  2.5745
  791MOL0     H 6772   8.178   2.051  10.392 -0.8488  0.2641 -0.9419
  791MOL0     H 6773   8.585   1.725  10.431 -1.2287 -2.9033  1.2083
  791MOL0     H 6774   8.735   1.605  10.560 -0.7656  0.3381 -0.0368
  791MOL0     H 6775   8.945   1.777  10.866 -1.2271  1.2664 -0.9340
  791MOL0     H 6776   8.817   1.746  10.987  1.9317  1.7740  0.4054
  791MOL0     H 6777   9.004   1.516  10.904 -3.3254 -2.2167  0.4905
  791MOL0     H 6778   8.907   1.515  11.037 -1.7929 -0.0430 -1.6396
  791MOL0     H 6779   9.036   1.693  11.141 -0.9996 -1.4527  1.3742
  791MOL0     H 6780   9.124   1.728  10.987 -0.5575  1.7704  1.8513
  791MOL0     H 6781   9.163   1.469  11.144 -3.9368  0.9821 -1.0332
  791MOL0     H 6782   9.277   1.591  11.151  2.1492 -0.5154 -3.0014
  791MOL0     H 6783   9.364   1.416  10.780 -1.6328 -0.8528 -0.8067
  791MOL0     H 6784   8.668   1.872  10.892 -0.1022 -0.0183  0.4719
  791MOL0     H 6785   8.516   2.004  10.747  0.4209  1.2915 -1.1842
  792MOL0     O 6786   1.740  10.280   7.214 -0.2925  0.2393  0.0020
  792MOL0     C 6787   1.726  10.367   7.123  1.0102 -0.5185 -0.5465
  792MOL0     O 6788   1.611  10.440   7.104  0.1240  0.4286  0.3388
  792MOL0     C 6789   1.513  10.447   7.203  0.0528 -0.2213  0.4114
  792MOL0     C 6790   1.376  10.447   7.166  0.6376  0.1948  1.2787
  792MOL0     C 6791   1.276  10.457   7.261 -1.0132 -0.1082  0.6047
  792MOL0     C 6792   1.312  10.479   7.396  0.1916  0.2090 -0.0465
  792MOL0     O 6793   1.212  10.474   7.488 -0.4610  0.1498 -0.2373
  792MOL0     C 6794   1.246  10.423   7.626 -0.5369  0.0465 -0.3707
  792MOL0     C 6795   1.118  10.350   7.681 -0.1342 -0.0335  0.4311
  792MOL0     C 6796   1.143  10.304   7.822  0.3101 -0.4598  0.3826
  792MOL0     C 6797   1.019  10.227   7.871  0.0432 -1.1151  0.4299
  792MOL0     C 6798   1.038  10.168   8.015  0.0116  0.0166 -0.8372
  792MOL0     C 6799   0.926  10.081   8.073  0.8124  0.4010  0.1130
  792MOL0     C 6800   0.913   9.941   8.005 -0.2846  0.2378  0.0658
  792MOL0     C 6801   0.812   9.930   7.886 -0.2192  0.3410  0.3653
  792MOL0     N 6802   0.665   9.964   7.922  0.3329  0.3289 -0.7405
  792MOL0     C 6803   0.561   9.884   7.891 -0.1213  0.4088 -0.0456
  792MOL0     C 6804   0.448   9.955   7.912  0.1846  0.2985  0.1752
  792MOL0     C 6805   0.303   9.901   7.892  0.4700  0.1187 -0.0259
  792MOL0     C 6806   0.198   9.992   7.936  0.6202 -0.1137  0.1028
  792MOL0     C 6807   0.152   9.951   8.085 -1.2821  0.2017 -0.4745
  792MOL0     C 6808   0.074  10.057   8.166 -0.7526 -0.1564  0.1771
  792MOL0     O 6809  -0.026  10.117   8.083 -0.3403  0.0941  0.5395
  792MOL0     C 6810  -0.154  10.064   8.098 -0.4998 -0.7535 -0.4333
  792MOL0     C 6811  -0.216  10.058   8.217  0.7072  0.5649 -0.0884
  792MOL0     C 6812  -0.350  10.016   8.235 -0.1719 -0.2505 -0.0023
  792MOL0     C 6813  -0.405  10.035   8.380  0.3266 -0.2573  0.0207
  792MOL0     C 6814  -0.424   9.991   8.119 -0.1542 -0.6634  0.1698
  792MOL0     C 6815  -0.572   9.974   8.124  0.3849 -0.4796 -0.3049
  792MOL0     O 6816  -0.633   9.906   8.220  0.5387 -0.1964  0.2444
  792MOL0     C 6817  -0.760   9.910   8.194  0.8691 -0.5940 -0.5971
  792MOL0     C 6818  -0.851   9.997   8.250 -0.4282 -0.2624 -1.0104
  792MOL0     C 6819  -0.984  10.004   8.220 -0.1374  0.9687  0.6213
  792MOL0     C 6820  -1.040   9.904   8.151  0.3844 -0.2352  0.4693
  792MOL0     O 6821  -1.177   9.900   8.143 -0.1840 -0.8869 -0.1324
  792MOL0     C 6822  -1.240   9.888   8.025 -0.4695 -0.0076  0.4943
  792MOL0     C 6823  -1.387   9.921   8.049  0.2095  0.2042  0.8460
  792MOL0     C 6824  -1.461   9.910   7.904 -0.3956 -0.3282 -0.2583
  792MOL0     C 6825  -1.553   9.791   7.900  0.1016  0.0681 -0.1667
  792MOL0     C 6826  -1.692   9.828   7.956 -0.2280 -0.0372  0.3289
  792MOL0     C 6827  -1.808   9.729   7.916  0.0789 -0.4072 -0.0866
  792MOL0     C 6828  -1.943   9.793   7.966 -0.4971  0.7003  0.0676
  792MOL0     C 6829  -2.011   9.898   7.875 -0.8041  0.1215  0.6409
  792MOL0    Cl 6830  -2.032   9.822   7.706 -0.1614 -0.1137 -0.2659
  792MOL0     C 6831  -0.957   9.796   8.109  0.6364 -0.7392  0.1567
  792MOL0     C 6832  -0.818   9.802   8.129  0.6129 -1.1622  0.2785
  792MOL0     O 6833  -0.621  10.045   8.036  1.1913 -0.2416  0.7328
  792MOL0     C 6834  -0.358   9.996   7.991  0.9954 -0.7123 -0.2315
  792MOL0     C 6835  -0.224  10.028   7.985  1.1667 -0.7838 -0.0850
  792MOL0     N 6836   0.485  10.082   7.940 -0.4205  0.3844  0.0389
  792MOL0     N 6837   0.615  10.085   7.952  0.3359 -1.3286 -0.2045
  792MOL0     C 6838   1.447  10.486   7.434  0.4471  0.7985 -0.2180
  792MOL0     C 6839   1.544  10.467   7.336 -0.8740 -0.0875 -0.2378
  792MOL0     C 6840   1.837  10.371   7.023  0.2929 -0.7648 -1.2592
  792MOL0     C 6841   1.827  10.459   6.910  0.6537 -0.6543 -0.0226
  792MOL0     C 6842   1.942  10.469   6.830 -0.2788 -1.2858  0.4621
  792MOL0     C 6843   2.060  10.400   6.849 -0.1533 -0.0766  0.1559
  792MOL0     O 6844   2.171  10.418   6.774 -0.2213  0.7858  0.5160
  792MOL0     C 6845   2.187  10.543   6.712  0.2005 -0.4664 -0.5612
  792MOL0     C 6846   2.325  10.548   6.642  0.0372 -0.8262 -0.6777
  792MOL0     C 6847   2.356  10.683   6.583 -0.5687 -0.6453  1.0318
  792MOL0     C 6848   2.499  10.723   6.614 -0.0274 -0.0005 -0.0283
  792MOL0     C 6849   2.539  10.861   6.572  0.7001  0.4425  0.3702
  792MOL0     C 6850   2.557  10.972   6.528  0.7355 -0.3966 -0.5681
  792MOL0     C 6851   2.064  10.312   6.960 -0.0772  0.0668  0.3412
  792MOL0     C 6852   1.955  10.302   7.045 -0.5116 -0.5690 -0.1096
  792MOL0     H 6853   1.350  10.456   7.061  0.5532  1.8922  1.4065
  792MOL0     H 6854   1.172  10.462   7.230 -0.9224  1.3937  0.4682
  792MOL0     H 6855   1.327  10.350   7.632  0.5528  1.2040 -0.6497
  792MOL0     H 6856   1.263  10.513   7.687  1.5982  0.1447 -1.0371
  792MOL0     H 6857   1.031  10.416   7.687  0.3974  0.7770 -0.5277
  792MOL0     H 6858   1.091  10.261   7.623  0.0433 -0.8036  1.4905
  792MOL0     H 6859   1.222  10.228   7.830  0.8561  0.2415  2.0755
  792MOL0     H 6860   1.180  10.384   7.886 -1.3969 -0.2582  1.1612
  792MOL0     H 6861   0.928  10.288   7.875  0.0159 -1.1213 -0.0335
  792MOL0     H 6862   0.991  10.143   7.808 -3.1703  2.5185 -3.5713
  792MOL0     H 6863   1.133  10.116   8.031  0.7081  1.1054 -1.3220
  792MOL0     H 6864   1.046  10.252   8.085 -0.4419 -0.6630  0.0619
  792MOL0     H 6865   0.941  10.073   8.181 -0.7809 -1.1410  0.2618
  792MOL0     H 6866   0.824  10.121   8.079 -0.0594 -1.8588  1.6744
  792MOL0     H 6867   1.016   9.920   7.976  0.8311  0.6598  3.2971
  792MOL0     H 6868   0.900   9.874   8.090  1.6233  3.3665  3.0885
  792MOL0     H 6869   0.823   9.829   7.846  2.6732 -0.3213  2.4745
  792MOL0     H 6870   0.828  10.008   7.811  5.7973  0.0829  0.8650
  792MOL0     H 6871   0.573   9.782   7.856  0.4069  1.5878 -3.7447
  792MOL0     H 6872   0.274   9.870   7.791 -3.3454 -0.9081  1.2150
  792MOL0     H 6873   0.297   9.813   7.956  1.1011  0.6387  0.7722
  792MOL0     H 6874   0.114   9.981   7.867 -0.8324  0.2353  1.7667
  792MOL0     H 6875   0.235  10.095   7.933 -0.7937  0.5173  2.2393
  792MOL0     H 6876   0.237   9.924   8.149 -0.2744  0.1176 -1.8133
  792MOL0     H 6877   0.097   9.857   8.093  3.8831 -3.0827  3.3683
  792MOL0     H 6878   0.133  10.142   8.204 -1.8302  0.8198 -0.2839
  792MOL0     H 6879   0.034  10.013   8.257  1.6845  0.8809  1.8646
  792MOL0     H 6880  -0.156  10.094   8.301 -0.1283  2.5329 -0.2812
  792MOL0     H 6881  -0.344  10.093   8.449 -1.6116  2.3675 -0.3215
  792MOL0     H 6882  -0.504  10.082   8.375  0.5287  0.3321  1.2297
  792MOL0     H 6883  -0.433   9.943   8.431 -3.5944 -0.3226 -1.8530
  792MOL0     H 6884  -0.806  10.067   8.319 -0.7271  0.1264 -1.2027
  792MOL0     H 6885  -1.055  10.068   8.271 -2.6918 -1.1268 -0.0791
  792MOL0     H 6886  -1.207   9.957   7.946 -2.5451  0.0017 -0.4550
  792MOL0     H 6887  -1.240   9.782   8.000  0.1862  0.1803 -0.3623
  792MOL0     H 6888  -1.426   9.848   8.121  0.0861 -0.6494 -0.0652
  792MOL0     H 6889  -1.399  10.020   8.094 -0.5394 -0.7833  2.9472
  792MOL0     H 6890  -1.386   9.903   7.825  0.2687 -1.7264  0.4668
  792MOL0     H 6891  -1.514  10.005   7.890 -0.0993 -0.0342  0.5646
  792MOL0     H 6892  -1.557   9.770   7.792 -0.6888  4.6423 -1.2227
  792MOL0     H 6893  -1.512   9.705   7.955 -0.5750  0.6970  1.3715
  792MOL0     H 6894  -1.731   9.924   7.919  0.4860  0.1632  0.0801
  792MOL0     H 6895  -1.694   9.838   8.065 -2.4685 -0.2053  0.3662
  792MOL0     H 6896  -1.818   9.710   7.809 -0.3131  0.1323 -0.1501
  792MOL0     H 6897  -1.797   9.629   7.960  0.8876 -2.2182 -3.9246
  792MOL0     H 6898  -1.918   9.833   8.065  2.0648 -2.6245  0.9573
  792MOL0     H 6899  -2.026   9.723   7.981  2.4962 -3.3222 -0.3817
  792MOL0     H 6900  -1.961   9.995   7.874 -0.3337 -0.0656 -2.1553
  792MOL0     H 6901  -2.110   9.914   7.919 -0.8158 -1.9502  1.5158
  792MOL0     H 6902  -0.997   9.702   8.073 -1.2729  0.8750 -2.1834
  792MOL0     H 6903  -0.742   9.739   8.083  2.9922  1.5786  0.0944
  792MOL0     H 6904  -0.415   9.955   7.908 -1.1584 -0.9939  1.2892
  792MOL0     H 6905  -0.174  10.042   7.889  0.7156  0.6588 -0.1331
  792MOL0     H 6906   1.480  10.490   7.538 -0.5507  0.8003  0.1129
  792MOL0     H 6907   1.648  10.469   7.365 -0.0287  0.2173 -2.9710
  792MOL0     H 6908   1.736  10.517   6.894  1.4789  0.6751 -0.0559
  792MOL0     H 6909   1.941  10.542   6.749 -0.1135 -1.0372  0.6826
  792MOL0     H 6910   2.114  10.557   6.631 -1.2123 -0.0778  0.7441
  792MOL0     H 6911   2.174  10.625   6.783 -3.1237 -0.1262 -1.4049
  792MOL0     H 6912   2.331  10.468   6.568 -1.2946 -2.6122  1.0666
  792MOL0     H 6913   2.399  10.526   6.719  2.7774  0.6482 -2.6787
  792MOL0     H 6914   2.299  10.760   6.636  2.0983  2.5983 -0.4804
  792MOL0     H 6915   2.323  10.694   6.480 -0.2468 -0.9532  0.8946
  792MOL0     H 6916   2.561  10.649   6.563 -1.9108 -2.1863  0.6756
  792MOL0     H 6917   2.519  10.716   6.722 -1.2956 -2.2540  0.1205
  792MOL0     H 6918   2.577  11.067   6.482 -2.7681 -0.3458 -2.3191
  792MOL0     H 6919   2.157  10.262   6.981 -0.3176  0.2160  1.8961
  792MOL0     H 6920   1.976  10.235   7.128 -1.4506 -1.2866 -0.4314
  793MOL0     O 6921   1.617   3.332   1.702 -0.2022 -0.6951  0.5375
  793MOL0     C 6922   1.659   3.447   1.711 -0.0776 -0.7289  0.1999
  793MOL0     O 6923   1.611   3.547   1.801  0.4749 -0.5575 -0.4490
  793MOL0     C 6924   1.523   3.524   1.909  0.4533  0.7646  0.1756
  793MOL0     C 6925   1.521   3.618   2.016 -0.2905 -0.3433 -0.2058
  793MOL0     C 6926   1.444   3.591   2.133  0.1538  0.4689  0.6456
  793MOL0     C 6927   1.369   3.478   2.151 -0.6702  0.3634  0.3339
  793MOL0     O 6928   1.270   3.470   2.251  0.8505  0.0043  0.4515
  793MOL0     C 6929   1.128   3.462   2.196 -0.0551  0.1582 -0.7417
  793MOL0     C 6930   1.032   3.501   2.317 -1.0401  0.0179  0.1342
  793MOL0     C 6931   0.881   3.499   2.295  0.7739 -0.0718 -0.2888
  793MOL0     C 6932   0.846   3.610   2.192  0.2599 -0.2964  0.5830
  793MOL0     C 6933   0.694   3.640   2.205  0.1592 -0.4303  0.0482
  793MOL0     C 6934   0.648   3.726   2.086  0.1743 -0.1502  0.6183
  793MOL0     C 6935   0.498   3.754   2.097 -0.1052 -0.3800 -0.4130
  793MOL0     C 6936   0.411   3.635   2.108  0.3797  0.4906  0.5162
  793MOL0     N 6937   0.275   3.687   2.083  0.5102  0.5821  0.2071
  793MOL0     C 6938   0.220   3.716   1.960 -0.3939 -0.3316 -0.4583
  793MOL0     C 6939   0.098   3.773   1.997 -0.7622  0.1290  0.6638
  793MOL0     C 6940   0.030   3.867   1.896 -1.1720 -0.0625 -0.0873
  793MOL0     C 6941  -0.117   3.896   1.930 -0.7373  0.4661  0.3356
  793MOL0     C 6942  -0.165   4.009   1.847  0.5562  0.1368  0.2214
  793MOL0     C 6943  -0.292   4.058   1.915  0.1916 -0.8148  0.1044
  793MOL0     O 6944  -0.353   4.181   1.864 -0.6146 -0.4342 -0.0284
  793MOL0     C 6945  -0.483   4.186   1.824  0.5570  0.1056  0.0930
  793MOL0     C 6946  -0.536   4.304   1.791 -0.5534 -1.2185  0.3025
  793MOL0     C 6947  -0.659   4.329   1.741 -0.6361  0.3911  0.2933
  793MOL0     C 6948  -0.685   4.474   1.707 -0.2612 -0.8010  0.4174
  793MOL0     C 6949  -0.751   4.220   1.735 -0.4141  0.1176 -0.2987
  793MOL0     C 6950  -0.895   4.229   1.698  0.1918 -0.1772  0.1397
  793MOL0     O 6951  -0.943   4.352   1.691  0.8040  0.3729  0.3112
  793MOL0     C 6952  -1.077   4.377   1.664  0.2193  0.5035 -0.7484
  793MOL0     C 6953  -1.186   4.284   1.639 -0.1823  0.1401  0.3197
  793MOL0     C 6954  -1.314   4.335   1.613 -0.3031  0.4127 -0.5162
  793MOL0     C 6955  -1.339   4.472   1.620  0.4715 -0.1539 -0.2621
  793MOL0     O 6956  -1.463   4.530   1.592  0.3919 -0.7299  0.5797
  793MOL0     C 6957  -1.522   4.626   1.682  0.3403 -0.0935 -0.4438
  793MOL0     C 6958  -1.581   4.747   1.597  0.5182  0.9670  0.0922
  793MOL0     C 6959  -1.636   4.867   1.686  0.2056 -0.1135 -0.7757
  793MOL0     C 6960  -1.548   4.994   1.691  0.9385  0.1207  0.0039
  793MOL0     C 6961  -1.409   4.982   1.750  0.3778 -0.6567 -0.6090
  793MOL0     C 6962  -1.326   5.103   1.724 -0.4120  0.1556  0.1429
  793MOL0     C 6963  -1.184   5.081   1.763  0.1316 -0.7674  0.8808
  793MOL0     C 6964  -1.112   5.219   1.761 -0.1324 -0.4208  0.9205
  793MOL0    Cl 6965  -0.980   5.215   1.872  0.4807  0.1127 -0.0675
  793MOL0     C 6966  -1.240   4.557   1.649  0.1862  0.3514 -0.7940
  793MOL0     C 6967  -1.109   4.511   1.667  0.8721  0.9577 -0.3421
  793MOL0     O 6968  -0.958   4.124   1.679 -0.3964  0.6391  0.2438
  793MOL0     C 6969  -0.705   4.096   1.767 -0.5802  1.0461 -0.1777
  793MOL0     C 6970  -0.567   4.076   1.810  0.4530 -0.2739  0.2895
  793MOL0     N 6971   0.078   3.762   2.133  0.3577  0.9710  0.3203
  793MOL0     N 6972   0.187   3.717   2.183  0.5105 -0.1715 -0.9599
  793MOL0     C 6973   1.374   3.382   2.040  0.5408 -0.2008 -0.1097
  793MOL0     C 6974   1.448   3.408   1.927 -0.1811  0.1377  0.2719
  793MOL0     C 6975   1.771   3.494   1.623  0.4215  0.3159  0.4073
  793MOL0     C 6976   1.805   3.630   1.624  0.6099 -0.3907  0.2361
  793MOL0     C 6977   1.924   3.673   1.562  1.0891  0.2238 -0.0825
  793MOL0     C 6978   2.009   3.582   1.499  0.4677 -0.2065  0.4879
  793MOL0     O 6979   2.122   3.619   1.422 -0.3544  0.5918 -0.0841
  793MOL0     C 6980   2.174   3.743   1.412 -0.5979 -0.3827 -1.0744
  793MOL0     C 6981   2.085   3.837   1.330 -0.5622 -0.6609  0.5098
  793MOL0     C 6982   2.160   3.972   1.323 -0.3338 -0.5345 -0.8734
  793MOL0     C 6983   2.137   4.061   1.447  0.8211 -0.1638 -0.5764
  793MOL0     C 6984   2.216   4.181   1.423 -0.7166 -0.2440  0.2523
  793MOL0     C 6985   2.277   4.283   1.406 -0.1068 -1.1638  0.3799
  793MOL0     C 6986   1.975   3.441   1.497 -0.4950 -0.7164 -0.3064
  793MOL0     C 6987   1.855   3.406   1.564  0.3617  0.1830  0.3366
  793MOL0     H 6988   1.573   3.713   2.012 -1.1474  0.6027  4.8157
  793MOL0     H 6989   1.439   3.670   2.207 -0.4092 -0.8944  2.1306
  793MOL0     H 6990   1.110   3.533   2.115 -2.6726  1.1937  0.6099
  793MOL0     H 6991   1.104   3.362   2.159 -1.4749 -0.6968  2.1851
  793MOL0     H 6992   1.043   3.424   2.394  3.7054 -0.0755 -0.3478
  793MOL0     H 6993   1.062   3.589   2.373  1.6786 -3.5112  4.9647
  793MOL0     H 6994   0.849   3.404   2.250 -0.9328 -1.1862  2.9553
  793MOL0     H 6995   0.823   3.519   2.385  2.3581  2.8734  0.2180
  793MOL0     H 6996   0.896   3.706   2.200 -0.0234 -0.1294  0.3969
  793MOL0     H 6997   0.870   3.575   2.091  0.6926  0.0325  0.5703
  793MOL0     H 6998   0.640   3.546   2.209  1.5741 -1.3515 -1.3590
  793MOL0     H 6999   0.687   3.696   2.299  3.8248 -0.0728  0.2733
  793MOL0     H 7000   0.705   3.818   2.100  1.4551 -0.9890  1.0181
  793MOL0     H 7001   0.664   3.673   1.991 -1.1032  0.6821 -0.0964
  793MOL0     H 7002   0.477   3.823   2.179  0.6589 -1.9160  1.1282
  793MOL0     H 7003   0.483   3.814   2.007  0.5473  1.6310  0.7468
  793MOL0     H 7004   0.409   3.587   2.207 -1.3597 -0.4062  0.0819
  793MOL0     H 7005   0.436   3.557   2.036  2.5320  1.3186  0.2740
  793MOL0     H 7006   0.275   3.711   1.867 -0.5072  0.5817 -0.5752
  793MOL0     H 7007   0.085   3.961   1.905  1.0102 -1.2128 -0.7293
  793MOL0     H 7008   0.032   3.819   1.797  0.1938 -2.3209  0.9503
  793MOL0     H 7009  -0.129   3.924   2.035  2.5658 -1.2579  1.2788
  793MOL0     H 7010  -0.179   3.807   1.918  2.8783 -2.0880 -0.8636
  793MOL0     H 7011  -0.182   3.975   1.744 -1.3425  1.0088  0.1994
  793MOL0     H 7012  -0.101   4.097   1.841  0.8625 -0.1411 -1.0319
  793MOL0     H 7013  -0.259   4.082   2.016  0.7028 -3.6337  0.6933
  793MOL0     H 7014  -0.361   3.973   1.925  0.1117 -0.6676  0.8891
  793MOL0     H 7015  -0.462   4.382   1.803 -2.1300  0.0505  2.5961
  793MOL0     H 7016  -0.714   4.488   1.602 -0.0838 -2.0777  0.1765
  793MOL0     H 7017  -0.772   4.510   1.764 -0.2635  0.7151 -0.4921
  793MOL0     H 7018  -0.594   4.531   1.724 -0.8017  0.5864 -1.0269
  793MOL0     H 7019  -1.174   4.177   1.656  2.2745  0.3078 -0.0695
  793MOL0     H 7020  -1.397   4.268   1.592  1.3616 -0.6217 -4.8020
  793MOL0     H 7021  -1.607   4.581   1.735  1.6896 -0.7750  1.2283
  793MOL0     H 7022  -1.459   4.668   1.761 -1.8615  3.1674 -0.2073
  793MOL0     H 7023  -1.513   4.805   1.534 -0.2287  2.2985  0.4519
  793MOL0     H 7024  -1.667   4.707   1.543  0.7319  1.0656 -0.3217
  793MOL0     H 7025  -1.657   4.833   1.788 -1.9167  0.3748 -1.0027
  793MOL0     H 7026  -1.735   4.892   1.648 -0.7887 -1.7775  0.5532
  793MOL0     H 7027  -1.537   5.028   1.587  0.2599  0.4820  0.0502
  793MOL0     H 7028  -1.602   5.074   1.742  1.5107  0.3624  0.2427
  793MOL0     H 7029  -1.354   4.896   1.711 -0.4581 -0.5087 -2.1855
  793MOL0     H 7030  -1.414   4.972   1.859 -1.2278 -1.9802 -0.7794
  793MOL0     H 7031  -1.328   5.121   1.616 -1.1980 -0.0010  0.1286
  793MOL0     H 7032  -1.356   5.192   1.780  3.4817  0.5359  2.0297
  793MOL0     H 7033  -1.130   5.008   1.701  1.5998  0.8547  0.1812
  793MOL0     H 7034  -1.178   5.040   1.865  4.5247 -0.0919  1.1080
  793MOL0     H 7035  -1.184   5.292   1.800 -1.4076  0.9596 -3.4656
  793MOL0     H 7036  -1.083   5.253   1.661 -2.0050  0.2941  0.5738
  793MOL0     H 7037  -1.259   4.661   1.674 -2.0083 -0.5550  1.8701
  793MOL0     H 7038  -1.037   4.588   1.691  1.1590  0.3210  0.9277
  793MOL0     H 7039  -0.763   4.004   1.764 -1.5078  1.6230 -0.2984
  793MOL0     H 7040  -0.532   3.975   1.830  0.1315 -0.1952  1.2980
  793MOL0     H 7041   1.311   3.294   2.045  0.4384 -0.2028 -1.1444
  793MOL0     H 7042   1.451   3.323   1.860  0.1872 -0.5387  1.1238
  793MOL0     H 7043   1.753   3.718   1.661  0.1610 -0.8299  0.6747
  793MOL0     H 7044   1.934   3.779   1.585 -0.1732  0.0236  1.5942
  793MOL0     H 7045   2.186   3.779   1.515 -2.3362 -0.7909 -0.6974
  793MOL0     H 7046   2.279   3.728   1.387 -0.1787 -1.5725  1.1692
  793MOL0     H 7047   1.990   3.840   1.386 -1.6087 -0.8950 -1.1781
  793MOL0     H 7048   2.070   3.803   1.227 -1.1017  1.5848 -0.2142
  793MOL0     H 7049   2.137   4.017   1.226 -0.4220 -3.1382 -2.1175
  793MOL0     H 7050   2.264   3.941   1.324 -0.0115  0.3932  1.4600
  793MOL0     H 7051   2.163   4.013   1.542  0.7422 -0.8001 -0.8727
  793MOL0     H 7052   2.031   4.084   1.451  0.4416 -1.6417  4.0263
  793MOL0     H 7053   2.333   4.374   1.394  0.5627 -1.4817  0.9762
  793MOL0     H 7054   2.025   3.368   1.433 -1.5762 -0.7956 -1.0702
  793MOL0     H 7055   1.826   3.301   1.560 -2.0379  0.8029 -1.3761
  794MOL0     O 7056   2.955   7.839   4.259  0.5872  0.3054 -0.3401
  794MOL0     C 7057   2.935   7.904   4.157 -0.4090  0.4532  0.7479
  794MOL0     O 7058   2.994   8.026   4.132  0.1770 -0.3332  0.5528
  794MOL0     C 7059   3.043   8.101   4.241  0.1293 -0.1338 -0.6598
  794MOL0     C 7060   2.963   8.121   4.355  0.4496  0.0548 -0.3353
  794MOL0     C 7061   3.018   8.178   4.465 -0.0164  0.1796 -0.8831
  794MOL0     C 7062   3.143   8.238   4.462 -0.2589 -0.9943  0.6185
  794MOL0     O 7063   3.198   8.309   4.568  0.1069  0.9457  0.0638
  794MOL0     C 7064   3.228   8.439   4.537 -0.5196  0.1088  0.5913
  794MOL0     C 7065   3.269   8.493   4.673 -0.5335 -0.0163  1.0660
  794MOL0     C 7066   3.317   8.639   4.665  0.6102 -0.4280  0.1633
  794MOL0     C 7067   3.353   8.700   4.802  0.0288  0.7761 -0.2474
  794MOL0     C 7068   3.346   8.856   4.804 -1.4992 -0.4717  0.7987
  794MOL0     C 7069   3.389   8.906   4.945 -0.2853  1.0135 -0.6359
  794MOL0     C 7070   3.344   9.053   4.968 -0.3233 -0.4164  0.7013
  794MOL0     C 7071   3.401   9.149   4.859  0.2949  0.5332 -0.8326
  794MOL0     N 7072   3.397   9.287   4.904 -0.7533  0.2371  0.0989
  794MOL0     C 7073   3.299   9.389   4.904  0.4857  0.2550  0.2902
  794MOL0     C 7074   3.354   9.502   4.950  0.2577  1.1301 -0.1563
  794MOL0     C 7075   3.289   9.629   4.988 -0.0758  0.3764 -0.7767
  794MOL0     C 7076   3.158   9.654   4.923 -0.4246 -0.8770  0.0242
  794MOL0     C 7077   3.097   9.783   4.975  0.2097 -1.1778 -0.2550
  794MOL0     C 7078   2.994   9.839   4.869  0.2393  0.6402 -0.6095
  794MOL0     O 7079   2.891   9.742   4.848 -0.3422  0.0466  0.3215
  794MOL0     C 7080   2.776   9.789   4.795  0.1872  0.0500 -0.4468
  794MOL0     C 7081   2.764   9.908   4.715  0.0306  0.1232 -0.9800
  794MOL0     C 7082   2.637   9.954   4.670 -0.5043 -0.2325 -0.7976
  794MOL0     C 7083   2.640  10.072   4.567 -1.3141  0.3099 -0.3038
  794MOL0     C 7084   2.522   9.883   4.714  0.0087  0.1895 -0.1294
  794MOL0     C 7085   2.388   9.940   4.677  0.1813  0.4257  0.2498
  794MOL0     O 7086   2.292   9.849   4.709 -0.1695 -0.0808 -0.0152
  794MOL0     C 7087   2.171   9.878   4.769  0.7788  0.2875  0.8279
  794MOL0     C 7088   2.119  10.014   4.796 -0.0434  0.7419  0.3161
  794MOL0     C 7089   1.982  10.032   4.836 -1.1978  0.2353  0.3759
  794MOL0     C 7090   1.903   9.924   4.857  0.4241 -0.1596 -1.0181
  794MOL0     O 7091   1.777   9.950   4.906  0.1081 -0.2706  0.2708
  794MOL0     C 7092   1.722   9.849   4.993 -0.3174 -0.5590  0.3819
  794MOL0     C 7093   1.631   9.929   5.085  0.5165 -0.4648 -0.3948
  794MOL0     C 7094   1.507   9.991   5.009 -1.0821  0.3851  0.2224
  794MOL0     C 7095   1.422  10.080   5.103 -0.3579  0.2363 -0.3247
  794MOL0     C 7096   1.327  10.155   5.011 -0.7206 -0.1451  0.4010
  794MOL0     C 7097   1.178  10.115   5.033 -0.4671 -0.6081 -0.9865
  794MOL0     C 7098   1.094  10.152   4.907 -0.6677  0.9631 -0.3715
  794MOL0     C 7099   0.948  10.184   4.949  0.8874 -0.3476 -0.8956
  794MOL0    Cl 7100   0.920  10.359   4.969  0.0843  0.2877  0.2076
  794MOL0     C 7101   1.956   9.793   4.843  0.2156  0.0308 -0.4147
  794MOL0     C 7102   2.083   9.773   4.796 -0.3742 -0.4466  0.2248
  794MOL0     O 7103   2.363  10.046   4.630 -0.0335  0.0393 -0.2662
  794MOL0     C 7104   2.532   9.759   4.777  0.5827 -0.3879  0.4547
  794MOL0     C 7105   2.654   9.714   4.818 -1.0293 -0.4414  0.5676
  794MOL0     N 7106   3.487   9.476   4.976  0.3904 -0.5693 -1.1767
  794MOL0     N 7107   3.512   9.349   4.943 -0.2058 -0.1564  0.1264
  794MOL0     C 7108   3.217   8.233   4.340  0.1930  0.0996  0.2825
  794MOL0     C 7109   3.168   8.163   4.232 -0.3516 -0.3344  0.0463
  794MOL0     C 7110   2.837   7.857   4.054 -1.2450 -0.1165  0.7981
  794MOL0     C 7111   2.783   7.729   4.052  0.1093  0.9003  0.5206
  794MOL0     C 7112   2.693   7.684   3.955  0.4822  1.0531  0.5963
  794MOL0     C 7113   2.658   7.781   3.852  1.4296  0.1219  0.2457
  794MOL0     O 7114   2.555   7.755   3.759 -0.2017 -0.0216 -0.0839
  794MOL0     C 7115   2.514   7.621   3.738  0.4943  0.7235  0.4750
  794MOL0     C 7116   2.410   7.597   3.621 -0.2005 -0.5025  0.0399
  794MOL0     C 7117   2.340   7.461   3.626 -0.5031 -0.0872 -0.5574
  794MOL0     C 7118   2.241   7.442   3.737  0.4114 -0.4521 -0.8903
  794MOL0     C 7119   2.150   7.324   3.718  0.1768  0.3894 -0.1313
  794MOL0     C 7120   2.103   7.217   3.689 -0.0169 -0.3271 -0.5840
  794MOL0     C 7121   2.703   7.912   3.850 -0.4587 -0.6107 -0.3260
  794MOL0     C 7122   2.789   7.946   3.951 -0.6167 -0.5179  0.4322
  794MOL0     H 7123   2.861   8.084   4.352  0.7648 -0.7850 -2.2798
  794MOL0     H 7124   2.974   8.179   4.564  1.2750  2.3305 -0.2457
  794MOL0     H 7125   3.309   8.434   4.463 -3.5477 -0.6245 -3.0029
  794MOL0     H 7126   3.147   8.498   4.493  0.7602  3.3389  2.2685
  794MOL0     H 7127   3.189   8.487   4.746  0.0870  2.8243  2.1111
  794MOL0     H 7128   3.348   8.435   4.722  0.6872  0.0846 -0.6524
  794MOL0     H 7129   3.400   8.644   4.594  0.3608 -2.9302 -0.4044
  794MOL0     H 7130   3.229   8.686   4.619  0.4231 -1.0776 -0.1582
  794MOL0     H 7131   3.280   8.668   4.877 -0.2603 -3.3481 -1.9766
  794MOL0     H 7132   3.446   8.646   4.822 -1.4208 -1.6476  0.4417
  794MOL0     H 7133   3.411   8.901   4.729 -0.4274 -3.4116 -0.1853
  794MOL0     H 7134   3.241   8.884   4.792 -0.7313  4.4150  3.1389
  794MOL0     H 7135   3.355   8.846   5.030  3.4340  2.1435  1.9146
  794MOL0     H 7136   3.499   8.904   4.946 -0.2096  2.4211 -1.7782
  794MOL0     H 7137   3.238   9.071   4.950  0.3452  0.9554 -2.7628
  794MOL0     H 7138   3.365   9.070   5.074 -3.5627 -2.3065  1.7739
  794MOL0     H 7139   3.344   9.143   4.766 -2.1913  2.8527  0.3777
  794MOL0     H 7140   3.506   9.123   4.844  1.2342  1.4636  3.0842
  794MOL0     H 7141   3.195   9.390   4.873  1.3779  1.1339 -3.1169
  794MOL0     H 7142   3.275   9.624   5.096  2.1971  3.0463 -0.2209
  794MOL0     H 7143   3.360   9.710   4.965  3.0338 -0.4948  4.2486
  794MOL0     H 7144   3.097   9.564   4.913 -1.1870 -0.5993  1.7406
  794MOL0     H 7145   3.186   9.670   4.819  2.5973  0.3587  0.9147
  794MOL0     H 7146   3.177   9.855   4.992  0.8971 -2.5174  2.9225
  794MOL0     H 7147   3.051   9.768   5.072 -0.9853  0.6746 -0.4961
  794MOL0     H 7148   3.027   9.858   4.767  0.4087  0.9927 -0.4922
  794MOL0     H 7149   2.960   9.934   4.911 -1.1314  0.2453 -0.7862
  794MOL0     H 7150   2.850   9.961   4.675 -0.1263  3.6575  2.7116
  794MOL0     H 7151   2.580  10.045   4.480  0.4998 -0.7945 -1.2834
  794MOL0     H 7152   2.601  10.162   4.616 -0.0509  0.4521  0.4941
  794MOL0     H 7153   2.734  10.096   4.517 -1.5642  1.4384 -0.2604
  794MOL0     H 7154   2.185  10.090   4.756  1.6122 -0.8169 -0.0557
  794MOL0     H 7155   1.941  10.131   4.854 -3.4854 -0.7225  0.8236
  794MOL0     H 7156   1.657   9.782   4.935 -2.3355  1.1729  0.5463
  794MOL0     H 7157   1.804   9.801   5.048 -0.6105 -1.2888  0.1970
  794MOL0     H 7158   1.593   9.861   5.162 -2.8716  1.6794  0.0225
  794MOL0     H 7159   1.680  10.006   5.146  1.0007 -0.8075 -0.3520
  794MOL0     H 7160   1.452   9.909   4.961  1.8117 -1.3633 -0.4218
  794MOL0     H 7161   1.544  10.051   4.925 -1.2616  0.8158  0.4538
  794MOL0     H 7162   1.372  10.016   5.175  0.1520 -1.0061 -1.0489
  794MOL0     H 7163   1.486  10.155   5.151  1.2684 -0.9384 -0.5736
  794MOL0     H 7164   1.354  10.153   4.905  1.4368  1.3251  0.8532
  794MOL0     H 7165   1.327  10.264   5.021 -2.9414 -0.1868  1.5186
  794MOL0     H 7166   1.168  10.007   5.044 -0.3551 -0.4437  1.0804
  794MOL0     H 7167   1.129  10.154   5.123 -0.9808 -0.2253 -1.4309
  794MOL0     H 7168   1.077  10.065   4.843 -1.3018 -0.0752  1.1448
  794MOL0     H 7169   1.145  10.230   4.849  0.9717  1.9150  2.1746
  794MOL0     H 7170   0.918  10.136   5.043  1.5000  1.0184  0.0343
  794MOL0     H 7171   0.897  10.147   4.859  0.2621 -0.8898 -0.3292
  794MOL0     H 7172   1.888   9.709   4.849 -1.5538  1.1006 -3.3492
  794MOL0     H 7173   2.116   9.671   4.780  0.5421 -0.1834  0.4043
  794MOL0     H 7174   2.443   9.700   4.799 -2.0125  2.3060 -2.0107
  794MOL0     H 7175   2.662   9.623   4.876 -0.7107  0.2260  1.5937
  794MOL0     H 7176   3.311   8.287   4.345  0.5182 -0.5248  1.0620
  794MOL0     H 7177   3.226   8.157   4.140  1.6166  0.4750  1.1835
  794MOL0     H 7178   2.812   7.654   4.124 -0.1732 -0.1448 -0.4252
  794MOL0     H 7179   2.654   7.585   3.976 -0.8937  1.8033  1.7359
  794MOL0     H 7180   2.602   7.561   3.713  1.0889  0.6470  2.5432
  794MOL0     H 7181   2.467   7.591   3.832  1.8913 -1.0778  0.6513
  794MOL0     H 7182   2.447   7.612   3.519  0.1525  0.7631  0.3383
  794MOL0     H 7183   2.337   7.677   3.637  1.5031  0.8810  1.2449
  794MOL0     H 7184   2.424   7.391   3.621  1.0291  1.6249  0.2233
  794MOL0     H 7185   2.288   7.454   3.530 -0.4760  0.4976 -0.6137
  794MOL0     H 7186   2.180   7.532   3.740  0.9162 -0.1076  1.4605
  794MOL0     H 7187   2.300   7.435   3.829  1.5707 -2.5427 -1.7184
  794MOL0     H 7188   2.060   7.121   3.670  1.1412 -1.0221  0.1446
  794MOL0     H 7189   2.681   7.985   3.772  0.3943  0.7466  0.6632
  794MOL0     H 7190   2.823   8.048   3.939 -0.1378 -0.3959  2.5539
  795MOL0     O 7191   8.181   6.765   5.112 -0.7222  0.1503 -0.6064
  795MOL0     C 7192   8.157   6.745   5.228 -0.4991 -0.5153  0.4363
  795MOL0     O 7193   8.032   6.711   5.272  0.1418  0.0490 -0.3214
  795MOL0     C 7194   7.923   6.722   5.195 -0.1008  0.4747 -0.2287
  795MOL0     C 7195   7.798   6.775   5.248  0.2377 -0.0513  0.2790
  795MOL0     C 7196   7.682   6.779   5.165 -0.6183 -0.0809  0.1674
  795MOL0     C 7197   7.684   6.734   5.034 -0.3929  0.6971 -0.8054
  795MOL0     O 7198   7.571   6.758   4.960  0.7342 -0.2503 -0.2615
  795MOL0     C 7199   7.561   6.722   4.823 -0.4847  0.5572 -0.6904
  795MOL0     C 7200   7.425   6.750   4.764  0.6403  0.8313  0.1651
  795MOL0     C 7201   7.318   6.639   4.817  0.0373 -0.7174  0.6783
  795MOL0     C 7202   7.180   6.688   4.769  0.4537  0.1196  0.4997
  795MOL0     C 7203   7.076   6.603   4.846  0.0463  0.9716  0.3794
  795MOL0     C 7204   6.927   6.630   4.825 -0.4580 -0.3396  1.1031
  795MOL0     C 7205   6.836   6.520   4.875  0.7986 -1.1645  0.3874
  795MOL0     C 7206   6.696   6.564   4.852  0.1590 -0.1909 -0.4714
  795MOL0     N 7207   6.577   6.506   4.925  0.3977  0.6954 -0.1406
  795MOL0     C 7208   6.572   6.426   5.033 -0.0137 -0.6744 -0.2700
  795MOL0     C 7209   6.444   6.389   5.039  0.7580  0.2869  0.3104
  795MOL0     C 7210   6.383   6.319   5.166  0.7368 -0.6612  0.3912
  795MOL0     C 7211   6.406   6.168   5.176  0.1457 -0.2378  0.3965
  795MOL0     C 7212   6.475   6.127   5.304 -1.0946 -0.1082 -0.3120
  795MOL0     C 7213   6.484   5.971   5.312  1.6531 -0.7972  0.1146
  795MOL0     O 7214   6.546   5.934   5.436 -0.4060 -0.6900 -0.3940
  795MOL0     C 7215   6.684   5.912   5.421 -0.5525  0.4987  0.3246
  795MOL0     C 7216   6.734   5.795   5.367  0.4848  0.4551 -0.4716
  795MOL0     C 7217   6.869   5.773   5.370  0.1116  0.7243  0.4727
  795MOL0     C 7218   6.918   5.639   5.312  0.1428  0.2385 -0.5690
  795MOL0     C 7219   6.965   5.855   5.429  0.3166 -0.4006 -0.1585
  795MOL0     C 7220   7.107   5.827   5.459 -0.4545 -0.1098  0.0422
  795MOL0     O 7221   7.182   5.934   5.502  0.1765 -0.7266 -0.0711
  795MOL0     C 7222   7.304   5.908   5.562  0.6843  0.3271  0.2473
  795MOL0     C 7223   7.323   5.824   5.677  0.4340 -0.4227 -0.0345
  795MOL0     C 7224   7.457   5.806   5.724  0.4387 -0.6130 -0.0890
  795MOL0     C 7225   7.566   5.877   5.667  0.5658 -0.2023  0.4696
  795MOL0     O 7226   7.698   5.881   5.715 -0.0388  0.0000 -0.1592
  795MOL0     C 7227   7.715   5.850   5.847  0.8602 -0.7652 -0.7834
  795MOL0     C 7228   7.861   5.882   5.900  0.6560  0.3415 -0.7118
  795MOL0     C 7229   7.974   5.819   5.822 -0.1409  0.1593  0.9943
  795MOL0     C 7230   7.981   5.666   5.829  0.2918 -0.3464  0.4139
  795MOL0     C 7231   7.986   5.627   5.973 -0.0786 -0.0923 -0.5617
  795MOL0     C 7232   8.016   5.473   5.980 -0.7350  0.6582 -0.1325
  795MOL0     C 7233   7.989   5.413   6.117 -0.2834  0.8941  0.0449
  795MOL0     C 7234   7.971   5.261   6.117  0.2939 -0.3405  0.4087
  795MOL0    Cl 7235   7.968   5.200   6.280 -0.4755  0.2902 -0.7692
  795MOL0     C 7236   7.538   5.965   5.566  0.0121  0.0977 -0.1132
  795MOL0     C 7237   7.410   5.980   5.518 -0.0172 -1.0132  0.5542
  795MOL0     O 7238   7.149   5.712   5.449  0.7232  0.0890 -0.5637
  795MOL0     C 7239   6.911   5.981   5.475  0.8494  0.0856 -0.1418
  795MOL0     C 7240   6.770   6.004   5.467 -0.0148  0.7271 -0.1706
  795MOL0     N 7241   6.374   6.434   4.925 -0.1842 -0.8260 -0.3768
  795MOL0     N 7242   6.463   6.499   4.853  0.0779  0.0033  0.4645
  795MOL0     C 7243   7.799   6.674   4.985  0.0849  0.7193  0.3327
  795MOL0     C 7244   7.919   6.665   5.066 -0.3658  0.4170  0.0652
  795MOL0     C 7245   8.271   6.740   5.335  0.5203  0.3184  0.7523
  795MOL0     C 7246   8.249   6.727   5.473 -0.6270  0.3572 -0.2928
  795MOL0     C 7247   8.356   6.710   5.562  0.2623  0.2295  0.5996
  795MOL0     C 7248   8.487   6.700   5.522 -0.4453 -0.7323 -0.5277
  795MOL0     O 7249   8.585   6.666   5.616  0.8913 -0.0930  0.5697
  795MOL0     C 7250   8.722   6.672   5.577 -0.1520 -0.1642  0.4777
  795MOL0     C 7251   8.762   6.536   5.516 -0.4312 -0.0394  0.3426
  795MOL0     C 7252   8.912   6.512   5.507  0.3717 -0.0268 -0.6774
  795MOL0     C 7253   8.989   6.623   5.434 -0.6106 -0.2625 -0.2036
  795MOL0     C 7254   8.942   6.623   5.298  0.7548 -0.2208  0.3047
  795MOL0     C 7255   8.895   6.604   5.189 -0.4913  0.5468 -0.5485
  795MOL0     C 7256   8.507   6.731   5.387 -0.8822  0.4517 -1.2881
  795MOL0     C 7257   8.407   6.751   5.297 -0.0519  0.2216  0.7621
  795MOL0     H 7258   7.788   6.800   5.354 -0.6682  1.1129 -0.0554
  795MOL0     H 7259   7.590   6.813   5.210 -1.5305 -2.8367  0.5601
  795MOL0     H 7260   7.645   6.770   4.771 -0.2591  3.0396  1.7348
  795MOL0     H 7261   7.584   6.615   4.813  2.0479  1.0282 -0.7342
  795MOL0     H 7262   7.387   6.848   4.792 -0.0292  0.6133  0.0304
  795MOL0     H 7263   7.428   6.729   4.657  2.4627 -1.5335  0.5909
  795MOL0     H 7264   7.350   6.544   4.774  0.6353  0.3222 -1.3365
  795MOL0     H 7265   7.325   6.624   4.925 -2.3605 -1.2897  0.8111
  795MOL0     H 7266   7.164   6.796   4.777  3.2719  0.6268  0.1327
  795MOL0     H 7267   7.175   6.657   4.664 -1.1702 -0.5781  0.7396
  795MOL0     H 7268   7.099   6.499   4.819  4.6887  2.2088 -1.3685
  795MOL0     H 7269   7.103   6.615   4.952  2.9994  1.4392 -0.3434
  795MOL0     H 7270   6.902   6.729   4.866 -0.4098  0.2382 -0.2259
  795MOL0     H 7271   6.909   6.636   4.717  1.2808 -0.6580  0.7665
  795MOL0     H 7272   6.852   6.427   4.819 -2.7620 -0.1980 -2.5663
  795MOL0     H 7273   6.858   6.504   4.981 -0.9830  1.1417  1.1899
  795MOL0     H 7274   6.664   6.559   4.747  1.0767  0.6477 -0.8127
  795MOL0     H 7275   6.691   6.667   4.888 -2.6630 -0.2012 -0.6368
  795MOL0     H 7276   6.664   6.410   5.089  0.9420 -0.7204 -1.7776
  795MOL0     H 7277   6.403   6.368   5.262  2.7232  0.6850 -0.6270
  795MOL0     H 7278   6.278   6.346   5.154  1.1309  0.7039 -0.2096
  795MOL0     H 7279   6.470   6.139   5.093  0.2109  2.2258 -0.4906
  795MOL0     H 7280   6.311   6.113   5.171 -0.2149  0.4086  0.0039
  795MOL0     H 7281   6.439   6.172   5.396 -0.4474 -1.2620  0.5223
  795MOL0     H 7282   6.579   6.160   5.293 -0.3854 -1.0192  2.8831
  795MOL0     H 7283   6.523   5.920   5.224  1.7022 -1.7335  0.6681
  795MOL0     H 7284   6.379   5.940   5.319  1.6890 -0.8833  0.2842
  795MOL0     H 7285   6.660   5.729   5.325  1.7148 -1.7700  0.6733
  795MOL0     H 7286   7.004   5.668   5.252 -0.8578  2.0361 -1.2038
  795MOL0     H 7287   6.943   5.559   5.382  0.2047  0.2004 -0.6348
  795MOL0     H 7288   6.840   5.593   5.251 -2.0902  0.0546  2.2142
  795MOL0     H 7289   7.249   5.762   5.726  0.2037 -0.4798 -0.4519
  795MOL0     H 7290   7.456   5.740   5.810 -2.0863 -0.7181 -0.1151
  795MOL0     H 7291   7.644   5.914   5.900 -2.6817 -2.6836 -2.7919
  795MOL0     H 7292   7.693   5.746   5.873  1.1476 -0.0276  2.8867
  795MOL0     H 7293   7.872   5.990   5.912 -0.6792  0.2018  3.1305
  795MOL0     H 7294   7.878   5.859   6.006 -3.0309  0.1712 -0.0270
  795MOL0     H 7295   8.072   5.856   5.852  1.4541 -1.2538 -2.0368
  795MOL0     H 7296   7.968   5.856   5.719  1.0450 -1.1928  0.4070
  795MOL0     H 7297   7.899   5.614   5.779 -2.0542 -0.9595  4.4522
  795MOL0     H 7298   8.069   5.622   5.782  2.6667  1.1342  3.1324
  795MOL0     H 7299   7.884   5.634   6.012 -0.0458 -1.8545 -0.0374
  795MOL0     H 7300   8.068   5.677   6.026  1.8403 -3.4856 -0.0128
  795MOL0     H 7301   7.979   5.414   5.896  0.1922  1.3677 -1.0655
  795MOL0     H 7302   8.122   5.452   5.962 -0.5796 -0.1612  1.5754
  795MOL0     H 7303   7.899   5.456   6.162 -0.2099  0.9331  0.1556
  795MOL0     H 7304   8.071   5.435   6.186  2.1728 -2.7068 -1.4220
  795MOL0     H 7305   8.055   5.215   6.064  1.2575  0.2999  1.3270
  795MOL0     H 7306   7.880   5.234   6.063 -1.0938  2.8074  0.9693
  795MOL0     H 7307   7.619   6.027   5.530  1.0627 -1.3240 -0.2411
  795MOL0     H 7308   7.387   6.053   5.441 -0.0597  2.1767  3.3371
  795MOL0     H 7309   6.970   6.061   5.519  0.1009  0.8519 -0.4913
  795MOL0     H 7310   6.728   6.095   5.509  1.0774  1.9407 -1.5775
  795MOL0     H 7311   7.800   6.639   4.882 -0.8721 -1.6422  1.0373
  795MOL0     H 7312   8.012   6.624   5.029  0.9747  0.7511  2.8137
  795MOL0     H 7313   8.146   6.724   5.508 -0.7038  2.5354 -0.1797
  795MOL0     H 7314   8.334   6.701   5.667 -2.9503 -5.3648 -0.1648
  795MOL0     H 7315   8.734   6.753   5.505 -0.2701 -0.5642  0.0069
  795MOL0     H 7316   8.783   6.693   5.666 -2.2197 -1.8873  2.4374
  795MOL0     H 7317   8.715   6.525   5.418  2.5690 -0.8284 -1.1357
  795MOL0     H 7318   8.726   6.462   5.588  2.8228 -2.3254 -0.1786
  795MOL0     H 7319   8.931   6.420   5.451  1.7505  0.0787 -0.4111
  795MOL0     H 7320   8.954   6.488   5.606  3.4760 -2.3105 -2.3563
  795MOL0     H 7321   9.091   6.585   5.439  0.1015  0.4717 -4.8864
  795MOL0     H 7322   8.976   6.725   5.471  0.1937 -0.1485 -0.2331
  795MOL0     H 7323   8.860   6.587   5.090  0.6189 -3.1022 -0.4833
  795MOL0     H 7324   8.609   6.748   5.352 -0.3544 -1.8701 -1.0426
  795MOL0     H 7325   8.444   6.772   5.198  0.6115  1.3919  1.2327
  796MOL0     O 7326   8.815   3.397   8.782  0.2635  0.5030 -0.4927
  796MOL0     C 7327   8.756   3.476   8.708 -0.1962 -0.4164 -0.1379
  796MOL0     O 7328   8.813   3.581   8.649  0.6763 -0.3803 -0.3317
  796MOL0     C 7329   8.944   3.606   8.649 -0.2441 -0.9082  0.1130
  796MOL0     C 7330   9.039   3.567   8.741 -0.5057  0.5158 -1.2758
  796MOL0     C 7331   9.169   3.603   8.725  0.2469  0.4503  0.5427
  796MOL0     C 7332   9.212   3.663   8.603 -0.2677  0.2922 -0.2757
  796MOL0     O 7333   9.339   3.682   8.573  0.2297 -0.5587  0.1032
  796MOL0     C 7334   9.438   3.655   8.678 -0.2950  0.6052  0.1094
  796MOL0     C 7335   9.573   3.720   8.638 -0.8904  0.6755  0.0318
  796MOL0     C 7336   9.680   3.694   8.751  0.3577 -0.0163  0.4930
  796MOL0     C 7337   9.802   3.767   8.723 -0.2242 -0.1842 -0.0927
  796MOL0     C 7338   9.913   3.748   8.822 -0.1519  0.1502 -0.3480
  796MOL0     C 7339  10.040   3.825   8.788 -0.4837 -1.1619  0.3862
  796MOL0     C 7340  10.148   3.797   8.891 -0.4456 -0.5908 -0.4817
  796MOL0     C 7341  10.268   3.875   8.865  0.3570  1.0546 -0.1734
  796MOL0     N 7342  10.365   3.891   8.973 -0.1175 -0.0967  0.2706
  796MOL0     C 7343  10.349   3.961   9.093 -0.3620  0.2701 -0.4910
  796MOL0     C 7344  10.471   3.957   9.146 -1.1706  0.2637 -0.6097
  796MOL0     C 7345  10.521   4.000   9.287 -0.3315  0.0545 -0.4525
  796MOL0     C 7346  10.406   3.993   9.390  0.4458 -0.3138 -1.0277
  796MOL0     C 7347  10.443   4.061   9.522 -0.4648  1.1585 -0.6693
  796MOL0     C 7348  10.317   4.071   9.613 -0.3399 -0.3078  0.0101
  796MOL0     O 7349  10.263   4.198   9.590  0.0114  0.7159 -0.8294
  796MOL0     C 7350  10.133   4.234   9.632 -0.3048 -0.2031  1.4118
  796MOL0     C 7351  10.103   4.375   9.648  1.8055 -0.0158 -1.1202
  796MOL0     C 7352   9.973   4.401   9.697 -0.1639 -0.3206 -0.9248
  796MOL0     C 7353   9.934   4.550   9.715  0.7547  0.0778  0.1793
  796MOL0     C 7354   9.883   4.294   9.732 -0.1351  0.7009 -0.6434
  796MOL0     C 7355   9.757   4.318   9.816 -1.1169  0.2739  0.5303
  796MOL0     O 7356   9.672   4.210   9.836  1.3227 -0.3827  0.1117
  796MOL0     C 7357   9.546   4.260   9.858 -1.1049  0.0727 -0.4770
  796MOL0     C 7358   9.486   4.352   9.780 -0.1393  0.1947  0.5751
  796MOL0     C 7359   9.348   4.387   9.799  0.2326 -0.5224 -0.1736
  796MOL0     C 7360   9.274   4.333   9.898  0.1396 -1.4183  0.2331
  796MOL0     O 7361   9.134   4.366   9.911  0.2041 -0.2833 -0.1141
  796MOL0     C 7362   9.068   4.352  10.036  0.1581  1.1401 -0.0848
  796MOL0     C 7363   9.012   4.214  10.040 -0.4309 -0.2002  0.0850
  796MOL0     C 7364   8.924   4.182  10.168 -0.3000  0.4531  0.1575
  796MOL0     C 7365   8.895   4.031  10.167  0.4827  0.0550  0.3765
  796MOL0     C 7366   8.851   3.999  10.308  0.3893  0.3458  0.4770
  796MOL0     C 7367   8.810   3.849  10.311 -0.0805 -0.1692  0.3242
  796MOL0     C 7368   8.780   3.803  10.462  0.1669 -0.6795  0.1086
  796MOL0     C 7369   8.742   3.656  10.469  1.0199  0.0209  0.1505
  796MOL0    Cl 7370   8.876   3.558  10.421 -0.4624 -0.2771 -0.3359
  796MOL0     C 7371   9.337   4.240   9.987 -1.0994  0.1161  0.2890
  796MOL0     C 7372   9.476   4.194   9.960  0.2197 -0.0972 -0.1409
  796MOL0     O 7373   9.757   4.427   9.871 -0.3168  0.2570  0.0649
  796MOL0     C 7374   9.911   4.162   9.697 -0.8192  0.4319 -0.1088
  796MOL0     C 7375  10.041   4.131   9.650 -0.0300 -0.7235 -0.9726
  796MOL0     N 7376  10.562   3.891   9.066 -0.1275  0.0917 -1.0046
  796MOL0     N 7377  10.496   3.854   8.961 -0.1072 -0.6185 -0.2420
  796MOL0     C 7378   9.118   3.700   8.501 -0.1674  0.2003  0.0106
  796MOL0     C 7379   8.987   3.679   8.534 -0.4739 -0.0153  0.6357
  796MOL0     C 7380   8.613   3.460   8.675 -0.2634 -0.6484 -0.4105
  796MOL0     C 7381   8.545   3.335   8.702 -0.4289 -0.2554  0.5850
  796MOL0     C 7382   8.413   3.322   8.658 -0.7328 -0.0330  0.2811
  796MOL0     C 7383   8.329   3.429   8.604  0.1143  0.2339 -0.4486
  796MOL0     O 7384   8.192   3.423   8.575 -0.5574  0.0003 -0.2458
  796MOL0     C 7385   8.117   3.299   8.612 -1.0920 -0.6928  0.5033
  796MOL0     C 7386   7.972   3.324   8.567  0.2304 -0.8503 -0.5916
  796MOL0     C 7387   7.907   3.446   8.625  0.1299 -0.1404 -0.1560
  796MOL0     C 7388   7.939   3.470   8.776  0.1799  0.1073  0.1486
  796MOL0     C 7389   7.843   3.570   8.832  0.4367  0.7717  0.0327
  796MOL0     C 7390   7.765   3.648   8.881  0.0235 -0.0127 -0.2307
  796MOL0     C 7391   8.405   3.548   8.579  0.1405  0.3012 -0.3550
  796MOL0     C 7392   8.537   3.560   8.615 -0.1805 -0.7367  0.5417
  796MOL0     H 7393   9.018   3.510   8.832  2.5862  1.9859  0.5317
  796MOL0     H 7394   9.232   3.569   8.806  3.1634  0.6618 -1.5067
  796MOL0     H 7395   9.405   3.691   8.776 -2.2217  0.7330 -0.5479
  796MOL0     H 7396   9.459   3.547   8.686 -0.5321  0.3805 -1.8198
  796MOL0     H 7397   9.613   3.687   8.542  0.5267 -1.4797  1.2509
  796MOL0     H 7398   9.563   3.827   8.623 -0.9283  0.6241 -0.2994
  796MOL0     H 7399   9.639   3.722   8.848  2.7583 -1.5830  2.0546
  796MOL0     H 7400   9.704   3.588   8.759  0.0460 -0.5965 -3.7013
  796MOL0     H 7401   9.836   3.747   8.621 -0.3895 -1.9976  0.1884
  796MOL0     H 7402   9.775   3.873   8.721 -0.4400 -0.2541 -0.9074
  796MOL0     H 7403   9.876   3.765   8.923  0.7986 -1.2118  0.2545
  796MOL0     H 7404   9.945   3.644   8.816  0.8834  0.4064  0.4963
  796MOL0     H 7405  10.076   3.796   8.689  1.1733  2.4338 -0.2531
  796MOL0     H 7406  10.009   3.930   8.796  2.7834  0.3662 -3.4395
  796MOL0     H 7407  10.115   3.826   8.992 -0.9543 -1.1352 -0.4923
  796MOL0     H 7408  10.167   3.690   8.899 -1.0220 -0.7841 -1.6483
  796MOL0     H 7409  10.252   3.967   8.808  1.3005 -1.1697 -4.5145
  796MOL0     H 7410  10.330   3.822   8.791  3.9059  2.2045  1.7394
  796MOL0     H 7411  10.259   3.996   9.143  0.4707 -0.2740  1.5067
  796MOL0     H 7412  10.594   3.926   9.322 -1.7610 -0.3758  1.8675
  796MOL0     H 7413  10.578   4.093   9.273  3.0908 -2.0139 -1.6919
  796MOL0     H 7414  10.386   3.886   9.403  4.7810 -2.0483 -5.5680
  796MOL0     H 7415  10.321   4.049   9.351 -0.8215 -1.2461  0.2566
  796MOL0     H 7416  10.485   4.158   9.495  1.7050  0.5194  0.1356
  796MOL0     H 7417  10.518   4.000   9.573 -0.0730  3.6400  1.9933
  796MOL0     H 7418  10.330   4.063   9.722 -0.3788 -0.2222  0.0203
  796MOL0     H 7419  10.241   4.003   9.574 -2.4446  2.2927 -0.7161
  796MOL0     H 7420  10.184   4.443   9.625 -1.0060  2.5690 -4.3321
  796MOL0     H 7421  10.001   4.616   9.660 -0.1366  0.6322 -0.2590
  796MOL0     H 7422   9.829   4.575   9.699 -0.0182 -3.9976 -2.8521
  796MOL0     H 7423   9.944   4.583   9.819 -2.9322  2.9614 -0.1533
  796MOL0     H 7424   9.552   4.378   9.698 -0.0873 -1.2737  0.1102
  796MOL0     H 7425   9.293   4.457   9.736 -1.6523 -2.8123 -1.2509
  796MOL0     H 7426   9.142   4.366  10.116  0.5592  1.7561 -0.5473
  796MOL0     H 7427   8.989   4.427  10.050 -0.9230  0.8767 -3.8833
  796MOL0     H 7428   8.955   4.197   9.948  2.5050 -0.8103 -1.7541
  796MOL0     H 7429   9.096   4.144  10.040  2.2058  2.7195 -1.0178
  796MOL0     H 7430   8.825   4.228  10.174 -0.9341 -0.9834  1.7616
  796MOL0     H 7431   8.977   4.207  10.261  0.2864  2.1170 -0.5788
  796MOL0     H 7432   8.809   4.014  10.102 -1.2598  0.0812  2.5613
  796MOL0     H 7433   8.982   3.971  10.142  0.3529 -1.1764  2.6247
  796MOL0     H 7434   8.757   4.049  10.334 -0.3798 -1.4774  1.3892
  796MOL0     H 7435   8.924   4.031  10.383 -0.1968 -1.1945  1.7547
  796MOL0     H 7436   8.729   3.845  10.238 -1.9305 -0.7987  2.3194
  796MOL0     H 7437   8.885   3.778  10.274 -2.3401 -3.2199  1.1275
  796MOL0     H 7438   8.698   3.856  10.511 -1.2040 -2.4366 -0.1749
  796MOL0     H 7439   8.873   3.823  10.516  0.0587  2.0065 -0.5519
  796MOL0     H 7440   8.656   3.624  10.409 -2.0716 -0.6001  4.4748
  796MOL0     H 7441   8.702   3.627  10.566  0.9560  2.2527  0.8417
  796MOL0     H 7442   9.283   4.203  10.073 -2.9175 -0.2754 -0.9667
  796MOL0     H 7443   9.532   4.118  10.014  3.6122  0.5930 -2.3558
  796MOL0     H 7444   9.841   4.079   9.707  0.3794 -0.2783  4.1330
  796MOL0     H 7445  10.060   4.027   9.630  0.6653 -1.0882  1.3022
  796MOL0     H 7446   9.142   3.749   8.408 -1.2695  1.3456  0.2933
  796MOL0     H 7447   8.908   3.697   8.462  1.1819 -0.7671 -1.4777
  796MOL0     H 7448   8.595   3.244   8.732 -1.1652 -1.1889 -0.9197
  796MOL0     H 7449   8.368   3.224   8.663  0.5994 -0.7104 -0.5672
  796MOL0     H 7450   8.157   3.220   8.549 -2.2533  1.0578 -2.6613
  796MOL0     H 7451   8.131   3.265   8.715 -0.3645  3.7423  2.1139
  796MOL0     H 7452   7.907   3.245   8.606 -0.9267  0.5229  0.3432
  796MOL0     H 7453   7.970   3.330   8.457  4.3890  3.9756 -0.7709
  796MOL0     H 7454   7.800   3.424   8.618 -0.0383  0.4911  0.2739
  796MOL0     H 7455   7.917   3.533   8.559 -2.3466 -0.2081 -0.7105
  796MOL0     H 7456   8.038   3.512   8.794 -0.9893  1.8542  3.1726
  796MOL0     H 7457   7.930   3.376   8.831  0.2416 -0.6415 -1.0830
  796MOL0     H 7458   7.701   3.719   8.929 -0.4048 -0.8480  0.4527
  796MOL0     H 7459   8.349   3.628   8.533  1.0543  1.1193 -0.0887
  796MOL0     H 7460   8.592   3.653   8.607 -1.8053  0.4959  2.7042
  797MOL0     O 7461   2.970   9.189   8.777 -0.2748 -1.0323 -0.0786
  797MOL0     C 7462   3.077   9.249   8.769  0.8553 -1.2195 -0.4336
  797MOL0     O 7463   3.104   9.365   8.833 -0.1268  0.5278  0.4707
  797MOL0     C 7464   3.005   9.435   8.890  0.3509  0.2856 -0.6337
  797MOL0     C 7465   2.885   9.465   8.828  0.2838  0.7821  0.5431
  797MOL0     C 7466   2.782   9.526   8.889  0.0658  0.0588 -0.6855
  797MOL0     C 7467   2.800   9.576   9.020  0.2382  0.2427 -0.7578
  797MOL0     O 7468   2.699   9.632   9.094  0.1084  0.9069  0.8170
  797MOL0     C 7469   2.563   9.629   9.059  0.2649 -0.1100  0.9354
  797MOL0     C 7470   2.496   9.741   9.126  0.5878  0.2853 -0.7811
  797MOL0     C 7471   2.479   9.707   9.279 -0.1050 -0.6136 -0.1299
  797MOL0     C 7472   2.384   9.812   9.346  0.5993  0.0839  0.0107
  797MOL0     C 7473   2.437   9.955   9.339 -0.5523  0.2428 -0.4292
  797MOL0     C 7474   2.351  10.050   9.435  0.1150  0.2536  0.0075
  797MOL0     C 7475   2.410  10.189   9.438 -0.7974 -0.4260  0.1292
  797MOL0     C 7476   2.342  10.281   9.542 -0.4063 -0.7124  0.0751
  797MOL0     N 7477   2.209  10.322   9.485  0.2026  0.7846  0.2584
  797MOL0     C 7478   2.092  10.267   9.532  0.6074  0.5395 -0.0750
  797MOL0     C 7479   1.996  10.357   9.499  0.6004 -0.3170  0.2921
  797MOL0     C 7480   1.842  10.354   9.494  0.1477 -0.3323 -0.3789
  797MOL0     C 7481   1.790  10.400   9.635  0.5926 -0.1891  0.3528
  797MOL0     C 7482   1.642  10.423   9.633 -0.2210 -0.5919  0.4857
  797MOL0     C 7483   1.600  10.470   9.773 -0.3338 -0.6607 -0.1027
  797MOL0     O 7484   1.456  10.502   9.751 -0.1238  0.7142  0.3717
  797MOL0     C 7485   1.385  10.538   9.858 -0.1598  0.6317 -0.8294
  797MOL0     C 7486   1.435  10.558   9.984  0.3045  0.9797 -0.6231
  797MOL0     C 7487   1.343  10.587  10.084 -0.1539 -0.0659  0.3719
  797MOL0     C 7488   1.418  10.644  10.208 -0.0517  0.6191  0.6677
  797MOL0     C 7489   1.206  10.593  10.056  0.5263 -0.4036  0.5831
  797MOL0     C 7490   1.106  10.617  10.165 -0.3393 -0.2654 -0.2722
  797MOL0     O 7491   0.973  10.620  10.121 -0.6861  0.2439  0.2174
  797MOL0     C 7492   0.875  10.635  10.213  0.2520  0.7094  0.3966
  797MOL0     C 7493   0.812  10.517  10.251 -0.1710  0.8244  0.9018
  797MOL0     C 7494   0.721  10.505  10.358  0.0786 -0.5751 -0.2133
  797MOL0     C 7495   0.682  10.622  10.432 -0.5034 -0.8693 -0.5320
  797MOL0     O 7496   0.588  10.621  10.535 -0.0025 -0.6177 -0.5641
  797MOL0     C 7497   0.499  10.516  10.525  0.5674  0.1250  0.1124
  797MOL0     C 7498   0.365  10.542  10.611  0.3998  0.7687 -1.0414
  797MOL0     C 7499   0.276  10.649  10.549  0.0130 -0.4773 -0.0213
  797MOL0     C 7500   0.123  10.619  10.564 -0.5322  0.0102 -0.4110
  797MOL0     C 7501   0.045  10.738  10.501  0.4631 -0.4570 -0.0617
  797MOL0     C 7502  -0.104  10.718  10.535 -0.3678 -0.0282 -0.3326
  797MOL0     C 7503  -0.204  10.815  10.456 -0.1922  0.3936  0.1961
  797MOL0     C 7504  -0.217  10.955  10.516  0.3361  0.7962  0.5700
  797MOL0    Cl 7505  -0.189  10.971  10.686  0.5816 -0.7050 -0.2394
  797MOL0     C 7506   0.734  10.742  10.382 -0.9374  1.1264  0.5068
  797MOL0     C 7507   0.825  10.746  10.279 -0.4552 -0.1177  0.1769
  797MOL0     O 7508   1.141  10.625  10.283  0.1209 -0.3782 -1.0622
  797MOL0     C 7509   1.161  10.569   9.930 -0.0366 -0.7002  0.4898
  797MOL0     C 7510   1.248  10.547   9.830 -0.3121 -0.9302  0.4328
  797MOL0     N 7511   2.059  10.473   9.458  0.2198 -0.4639  0.5980
  797MOL0     N 7512   2.185  10.450   9.449  0.0250 -0.8695 -0.5607
  797MOL0     C 7513   2.920   9.562   9.080  0.3834 -0.1790 -0.2815
  797MOL0     C 7514   3.014   9.481   9.023 -0.1763 -0.3251  0.6625
  797MOL0     C 7515   3.183   9.192   8.690 -0.4088 -0.1931 -0.3102
  797MOL0     C 7516   3.298   9.260   8.669  0.3064  0.0977 -1.1591
  797MOL0     C 7517   3.391   9.208   8.581 -0.0367 -1.0944  0.6589
  797MOL0     C 7518   3.376   9.091   8.515 -0.2771  0.1789 -0.5014
  797MOL0     O 7519   3.478   9.061   8.426 -0.1965 -0.3379 -0.0912
  797MOL0     C 7520   3.486   8.927   8.369  0.2024 -0.1604 -0.9506
  797MOL0     C 7521   3.603   8.908   8.283 -0.4073  0.3721 -0.0713
  797MOL0     C 7522   3.736   8.872   8.363 -0.2410  0.2096 -0.6352
  797MOL0     C 7523   3.789   8.988   8.449  0.3116 -1.0553  0.2992
  797MOL0     C 7524   3.920   8.952   8.510  0.7810  0.7556 -0.2340
  797MOL0     C 7525   4.025   8.922   8.557 -1.0644 -0.1723 -1.0253
  797MOL0     C 7526   3.260   9.019   8.542  0.1057  1.3644 -0.2288
  797MOL0     C 7527   3.162   9.063   8.627  1.3356 -0.4458 -0.8230
  797MOL0     H 7528   2.875   9.434   8.725 -1.6705 -0.4739  1.0353
  797MOL0     H 7529   2.688   9.542   8.839  0.1863  1.6263 -0.4538
  797MOL0     H 7530   2.559   9.635   8.950  1.3018 -0.1070  0.8853
  797MOL0     H 7531   2.524   9.531   9.085  0.5544  0.2785  2.9623
  797MOL0     H 7532   2.552   9.835   9.119  1.5349  0.2311  3.3204
  797MOL0     H 7533   2.395   9.757   9.087 -1.0786 -0.7884  2.7033
  797MOL0     H 7534   2.431   9.609   9.290  1.0827 -1.1981  0.0223
  797MOL0     H 7535   2.574   9.704   9.334 -1.1260  1.7552  1.9684
  797MOL0     H 7536   2.285   9.815   9.300 -0.0846 -0.6926  1.3927
  797MOL0     H 7537   2.369   9.775   9.447 -3.0070 -0.8318 -0.7393
  797MOL0     H 7538   2.536   9.958   9.384 -0.9516  1.1737  0.4077
  797MOL0     H 7539   2.454  10.005   9.243 -0.1824  3.0445  1.0042
  797MOL0     H 7540   2.252  10.063   9.391  0.5891  1.5525 -0.7521
  797MOL0     H 7541   2.347  10.003   9.533  4.2781  0.8741  0.6660
  797MOL0     H 7542   2.517  10.174   9.457 -0.7651  0.0143  0.2899
  797MOL0     H 7543   2.409  10.244   9.343  4.6202 -0.5468 -0.3144
  797MOL0     H 7544   2.400  10.371   9.565 -0.8082 -0.2071 -0.8347
  797MOL0     H 7545   2.331  10.227   9.637  0.9280 -0.6914  0.2527
  797MOL0     H 7546   2.083  10.164   9.567 -2.9167  1.2582  1.4930
  797MOL0     H 7547   1.812  10.426   9.418  3.4669 -2.1782 -3.7971
  797MOL0     H 7548   1.799  10.259   9.460  0.1983 -1.4755  2.4518
  797MOL0     H 7549   1.845  10.487   9.671  0.0661  1.0187 -1.5919
  797MOL0     H 7550   1.819  10.329   9.713  2.4411 -0.3829 -0.4472
  797MOL0     H 7551   1.600  10.327   9.601  0.3105 -0.3197 -1.0755
  797MOL0     H 7552   1.626  10.510   9.570  1.0734  0.6167  1.7622
  797MOL0     H 7553   1.649  10.558   9.816 -1.5296 -0.7474  1.5423
  797MOL0     H 7554   1.613  10.391   9.847  1.1130  1.1630  1.7110
  797MOL0     H 7555   1.542  10.571   9.998  0.5616 -0.0546 -1.5298
  797MOL0     H 7556   1.414  10.586  10.300  2.4251  0.9770  1.0588
  797MOL0     H 7557   1.523  10.654  10.180 -0.7807 -0.7138 -3.2737
  797MOL0     H 7558   1.372  10.743  10.216 -0.9577  0.3253 -0.5679
  797MOL0     H 7559   0.845  10.424  10.206  0.9000  1.2042  0.8624
  797MOL0     H 7560   0.690  10.404  10.381  1.6011 -0.8203  0.8738
  797MOL0     H 7561   0.464  10.501  10.423 -0.9689  1.7271  0.3489
  797MOL0     H 7562   0.542  10.421  10.557  1.8349  0.6790  0.1013
  797MOL0     H 7563   0.320  10.444  10.630 -0.4469  1.6493  2.0272
  797MOL0     H 7564   0.388  10.585  10.708 -1.3562  1.3926 -0.8622
  797MOL0     H 7565   0.298  10.666  10.443  1.8822 -0.7843  0.2855
  797MOL0     H 7566   0.293  10.746  10.596  0.6430 -0.8839  0.6047
  797MOL0     H 7567   0.098  10.530  10.504 -0.2393  0.0582 -0.6084
  797MOL0     H 7568   0.103  10.603  10.670 -0.7206  3.3259  0.1464
  797MOL0     H 7569   0.050  10.737  10.392 -2.1127 -1.6575 -0.2457
  797MOL0     H 7570   0.086  10.831  10.543  0.0605 -0.6784  0.8581
  797MOL0     H 7571  -0.120  10.616  10.498  1.2839 -0.4953  0.1265
  797MOL0     H 7572  -0.124  10.716  10.643 -1.4196 -2.0169 -0.5077
  797MOL0     H 7573  -0.302  10.767  10.463  0.2565 -0.2787  4.0023
  797MOL0     H 7574  -0.199  10.806  10.348  3.5177 -0.3924  0.2947
  797MOL0     H 7575  -0.312  10.991  10.475  0.2917 -0.5679 -0.6144
  797MOL0     H 7576  -0.138  11.020  10.477  0.7298  0.9378  1.5720
  797MOL0     H 7577   0.700  10.833  10.430 -1.0526  0.6944  1.2550
  797MOL0     H 7578   0.876  10.838  10.253  0.6054 -0.8483 -0.4080
  797MOL0     H 7579   1.062  10.543   9.895  0.3086 -2.4616  0.7078
  797MOL0     H 7580   1.211  10.523   9.731 -0.0341 -2.5484  0.6938
  797MOL0     H 7581   2.943   9.600   9.179 -0.6179  2.0836 -0.8581
  797MOL0     H 7582   3.110   9.447   9.060  0.8052  1.3812 -0.2321
  797MOL0     H 7583   3.315   9.358   8.711 -0.9927  0.0050 -0.3599
  797MOL0     H 7584   3.481   9.266   8.561 -1.1617  0.3797 -0.4536
  797MOL0     H 7585   3.493   8.856   8.452 -4.5578 -2.0649 -1.8512
  797MOL0     H 7586   3.399   8.896   8.309 -0.4021  0.3813 -0.3705
  797MOL0     H 7587   3.614   8.988   8.209 -0.3680 -0.6414 -1.1856
  797MOL0     H 7588   3.586   8.822   8.219 -3.7016  0.2126  0.8616
  797MOL0     H 7589   3.816   8.840   8.295  0.0825 -0.5274  0.0768
  797MOL0     H 7590   3.712   8.793   8.434 -1.3271  0.9192 -0.1902
  797MOL0     H 7591   3.724   9.010   8.534  0.3691 -3.4139  1.0468
  797MOL0     H 7592   3.809   9.078   8.390 -4.1125  0.9628  1.4774
  797MOL0     H 7593   4.107   8.880   8.611  0.0818 -0.2947 -2.7685
  797MOL0     H 7594   3.225   8.932   8.487 -2.3340  0.8604  1.9561
  797MOL0     H 7595   3.072   9.004   8.633  1.5793 -0.7386  0.1365
  798MOL0     O 7596   5.291   1.177   3.241  0.8728  0.1149 -0.2068
  798MOL0     C 7597   5.394   1.127   3.286 -1.2281  0.5238 -0.2303
  798MOL0     O 7598   5.424   0.992   3.298  0.9422 -0.5629  0.4654
  798MOL0     C 7599   5.307   0.922   3.280 -0.2448  0.1236 -0.7475
  798MOL0     C 7600   5.277   0.870   3.155 -0.6187 -0.5183 -0.3137
  798MOL0     C 7601   5.156   0.808   3.138  0.1229  0.6260  0.8120
  798MOL0     C 7602   5.067   0.791   3.234  0.3347  0.7086  1.1337
  798MOL0     O 7603   4.949   0.743   3.195  0.4439 -0.2030  0.2695
  798MOL0     C 7604   4.881   0.666   3.296  0.8654  0.5690  0.9205
  798MOL0     C 7605   4.760   0.594   3.228  0.6131  0.6541 -0.7708
  798MOL0     C 7606   4.714   0.475   3.320  0.3986  0.4299  0.1043
  798MOL0     C 7607   4.580   0.413   3.261 -0.9028  0.0273 -0.2691
  798MOL0     C 7608   4.532   0.269   3.290 -0.0098  0.1904  0.2417
  798MOL0     C 7609   4.552   0.241   3.443 -0.6183 -1.3953  1.5405
  798MOL0     C 7610   4.488   0.107   3.478 -0.8501 -0.2065  0.0544
  798MOL0     C 7611   4.524   0.078   3.627 -0.3524  0.4777  1.3718
  798MOL0     N 7612   4.468   0.172   3.721  0.0489 -0.4700  0.2066
  798MOL0     C 7613   4.343   0.157   3.772 -0.4082 -0.2151  0.6628
  798MOL0     C 7614   4.328   0.246   3.869  0.4626 -0.6000 -0.2153
  798MOL0     C 7615   4.219   0.256   3.968  0.2246 -0.3992  0.2086
  798MOL0     C 7616   4.282   0.225   4.105  0.2809 -0.9372  0.3080
  798MOL0     C 7617   4.188   0.178   4.216  0.2221  0.1885 -0.6903
  798MOL0     C 7618   4.089   0.295   4.268 -0.6631  0.4605  0.3655
  798MOL0     O 7619   4.158   0.368   4.378 -0.0481 -0.1879  0.6067
  798MOL0     C 7620   4.104   0.339   4.498  0.7958 -0.0435  0.4715
  798MOL0     C 7621   3.961   0.355   4.528 -0.9959 -0.3151  0.5939
  798MOL0     C 7622   3.912   0.336   4.656  1.0293 -0.2670 -0.9367
  798MOL0     C 7623   3.757   0.355   4.666  0.4824 -0.5753 -0.1665
  798MOL0     C 7624   4.001   0.288   4.762  0.6947  0.2556 -0.5009
  798MOL0     C 7625   3.955   0.241   4.891  0.0491  0.7465  0.9382
  798MOL0     O 7626   4.043   0.241   4.989 -0.2335 -0.1174 -0.0941
  798MOL0     C 7627   4.011   0.266   5.122  0.3161 -0.8850  0.1604
  798MOL0     C 7628   3.882   0.249   5.185 -0.4984  0.0623 -0.6242
  798MOL0     C 7629   3.863   0.320   5.313  0.3771  0.9657  0.9792
  798MOL0     C 7630   3.971   0.377   5.377 -0.0653  0.2965 -1.0731
  798MOL0     O 7631   3.958   0.455   5.492  0.3301 -0.1407 -0.0951
  798MOL0     C 7632   3.842   0.478   5.551  0.0744 -0.0079  0.4376
  798MOL0     C 7633   3.797   0.359   5.637 -0.0647 -0.8002 -0.3694
  798MOL0     C 7634   3.882   0.347   5.764 -0.5055 -0.0312  0.0371
  798MOL0     C 7635   3.905   0.206   5.804  0.2223 -0.0876  0.6377
  798MOL0     C 7636   3.979   0.185   5.941 -0.3202  0.3059  0.0431
  798MOL0     C 7637   3.977   0.043   5.982  0.1832 -0.1750 -0.2969
  798MOL0     C 7638   3.940   0.037   6.127 -0.4720  0.9623 -0.7646
  798MOL0     C 7639   3.934  -0.109   6.181  0.4595 -0.8323 -0.4161
  798MOL0    Cl 7640   4.101  -0.169   6.164 -0.7768 -0.3618 -0.0149
  798MOL0     C 7641   4.105   0.376   5.320 -0.3169  0.1742 -0.8384
  798MOL0     C 7642   4.123   0.325   5.190  1.0026  0.1561  0.0640
  798MOL0     O 7643   3.836   0.211   4.901  0.0008  0.5185 -0.2543
  798MOL0     C 7644   4.138   0.288   4.740 -0.4804 -0.8796 -0.4251
  798MOL0     C 7645   4.184   0.296   4.603  1.2637 -0.6874 -0.7380
  798MOL0     N 7646   4.440   0.330   3.864 -0.2564  0.0230  0.0473
  798MOL0     N 7647   4.522   0.286   3.773  0.1130 -0.3467 -0.5409
  798MOL0     C 7648   5.088   0.853   3.358 -0.0751 -0.1551  0.6379
  798MOL0     C 7649   5.216   0.904   3.388  0.3006 -0.5600  1.7125
  798MOL0     C 7650   5.497   1.218   3.338 -0.7177 -0.1801 -0.3332
  798MOL0     C 7651   5.497   1.357   3.318 -1.4584 -0.3184  0.7182
  798MOL0     C 7652   5.609   1.437   3.362 -0.3586 -0.3106 -0.6135
  798MOL0     C 7653   5.720   1.381   3.423 -0.3296  0.5479 -0.8179
  798MOL0     O 7654   5.840   1.446   3.459 -0.0183 -0.0649 -0.0389
  798MOL0     C 7655   5.841   1.589   3.459  0.2055 -0.0169 -0.5821
  798MOL0     C 7656   5.979   1.643   3.503  0.5183  0.3889  0.1256
  798MOL0     C 7657   5.985   1.799   3.481 -0.2269  0.0285  0.4764
  798MOL0     C 7658   6.101   1.825   3.380 -0.4577 -0.2090 -0.9787
  798MOL0     C 7659   6.229   1.786   3.445 -0.9186  0.1612 -1.3888
  798MOL0     C 7660   6.337   1.759   3.486  0.4869  0.7966 -0.7976
  798MOL0     C 7661   5.721   1.245   3.439  0.1141  0.0672  0.1608
  798MOL0     C 7662   5.611   1.164   3.397 -0.3682 -0.1356  0.0878
  798MOL0     H 7663   5.348   0.893   3.076  0.6921 -1.9639  0.4054
  798MOL0     H 7664   5.133   0.758   3.045 -0.9358  1.5424  0.5496
  798MOL0     H 7665   4.952   0.586   3.317 -2.7730 -2.8133  1.7124
  798MOL0     H 7666   4.845   0.707   3.391 -2.7593 -0.5032  0.1733
  798MOL0     H 7667   4.687   0.675   3.228 -0.8317 -0.5518  1.4382
  798MOL0     H 7668   4.798   0.555   3.133  2.0316 -0.6303  0.2746
  798MOL0     H 7669   4.791   0.398   3.324 -0.6286 -0.7432 -1.6240
  798MOL0     H 7670   4.682   0.508   3.420  2.4890  0.2238  0.8785
  798MOL0     H 7671   4.496   0.477   3.289 -0.7476  0.8758 -1.6271
  798MOL0     H 7672   4.587   0.411   3.152 -3.5615  0.1832 -0.5039
  798MOL0     H 7673   4.428   0.258   3.260  0.0003  1.6817 -0.4669
  798MOL0     H 7674   4.586   0.192   3.235 -0.2970  0.4523 -0.4189
  798MOL0     H 7675   4.660   0.234   3.458 -0.0708 -1.5367 -1.7520
  798MOL0     H 7676   4.514   0.328   3.497 -1.4303 -2.4668  2.7583
  798MOL0     H 7677   4.380   0.119   3.485 -0.9355 -1.3744  5.4052
  798MOL0     H 7678   4.522   0.023   3.417  2.7336 -1.0941  2.9298
  798MOL0     H 7679   4.632   0.075   3.640  0.1285  0.3310 -1.7860
  798MOL0     H 7680   4.488  -0.020   3.660 -1.8247  0.0088 -1.2992
  798MOL0     H 7681   4.275   0.077   3.746 -1.2332 -0.2506  2.7455
  798MOL0     H 7682   4.172   0.354   3.959 -1.2519 -0.8784  1.8805
  798MOL0     H 7683   4.137   0.186   3.945  1.1151 -0.4793 -3.1306
  798MOL0     H 7684   4.335   0.316   4.133 -1.2575  0.0219  0.2597
  798MOL0     H 7685   4.354   0.148   4.079  0.2752 -0.6679 -0.5452
  798MOL0     H 7686   4.245   0.146   4.303 -1.0348 -0.7643 -0.1769
  798MOL0     H 7687   4.127   0.098   4.172  1.2894 -0.4882 -0.9824
  798MOL0     H 7688   3.994   0.245   4.291 -0.0551 -0.5482  0.7730
  798MOL0     H 7689   4.069   0.354   4.179 -2.7584 -1.2466 -0.3790
  798MOL0     H 7690   3.886   0.387   4.456  0.7330  1.6819 -0.4424
  798MOL0     H 7691   3.701   0.276   4.615 -1.2523  1.4330 -1.5353
  798MOL0     H 7692   3.713   0.358   4.767  0.7600  0.2933 -0.0703
  798MOL0     H 7693   3.728   0.455   4.634  1.2113 -0.4023 -0.2879
  798MOL0     H 7694   3.811   0.176   5.148 -0.6413 -0.1408  0.0325
  798MOL0     H 7695   3.764   0.318   5.357 -0.1042 -2.1174  0.0242
  798MOL0     H 7696   3.860   0.578   5.593  1.9993  0.1096 -0.5455
  798MOL0     H 7697   3.763   0.492   5.476 -0.1216 -2.2209  0.1834
  798MOL0     H 7698   3.694   0.382   5.665 -0.2552 -1.5245 -0.4570
  798MOL0     H 7699   3.786   0.269   5.576  0.1817  0.4257 -2.3016
  798MOL0     H 7700   3.843   0.402   5.851  1.0475  1.0887  0.0674
  798MOL0     H 7701   3.977   0.400   5.761 -1.2478  1.6289  2.6007
  798MOL0     H 7702   3.808   0.159   5.823 -0.0991  0.5670  0.6395
  798MOL0     H 7703   3.952   0.149   5.724  3.1205  1.8815  0.7761
  798MOL0     H 7704   3.927   0.249   6.012  1.1090  2.8548 -1.0821
  798MOL0     H 7705   4.081   0.222   5.932 -0.5812  0.7297 -1.5296
  798MOL0     H 7706   3.902  -0.019   5.931 -2.6572 -1.0623  4.3789
  798MOL0     H 7707   4.075   0.005   5.953  0.3145  0.8552 -1.2685
  798MOL0     H 7708   3.845   0.089   6.141 -1.1328 -0.2158 -0.7388
  798MOL0     H 7709   4.018   0.079   6.192 -0.2898  1.2017 -1.1361
  798MOL0     H 7710   3.863  -0.166   6.120 -3.5685  0.5798  2.4529
  798MOL0     H 7711   3.908  -0.108   6.287  1.7234 -0.2215 -0.0958
  798MOL0     H 7712   4.186   0.419   5.377 -1.0792  0.7099 -0.1387
  798MOL0     H 7713   4.224   0.305   5.155  1.6322 -2.6643  2.9925
  798MOL0     H 7714   4.221   0.269   4.808  2.7721  0.5684 -3.5935
  798MOL0     H 7715   4.291   0.293   4.588  1.9542  0.1454  2.9306
  798MOL0     H 7716   5.011   0.853   3.434  1.2891  1.4121  2.1034
  798MOL0     H 7717   5.243   0.952   3.481  1.0884 -1.9275  2.2230
  798MOL0     H 7718   5.416   1.391   3.255 -0.8027 -1.8507 -1.0535
  798MOL0     H 7719   5.613   1.542   3.337  2.3027 -0.4785 -1.1345
  798MOL0     H 7720   5.814   1.632   3.362  0.4215  0.5349 -0.4050
  798MOL0     H 7721   5.762   1.618   3.529  0.3784 -2.0585  0.5290
  798MOL0     H 7722   6.064   1.584   3.467 -0.0569  0.5195 -1.5413
  798MOL0     H 7723   5.992   1.622   3.609  0.3201  1.5020  0.3716
  798MOL0     H 7724   6.003   1.855   3.573 -0.2660  1.4329 -0.3357
  798MOL0     H 7725   5.889   1.834   3.442  0.6483  1.3095 -0.6185
  798MOL0     H 7726   6.110   1.931   3.353  0.5911 -0.6093 -2.2919
  798MOL0     H 7727   6.081   1.759   3.296  0.9241 -0.9334 -0.7759
  798MOL0     H 7728   6.435   1.748   3.528  1.8523  1.8781 -3.4344
  798MOL0     H 7729   5.812   1.197   3.473  0.1136 -0.4493 -0.5406
  798MOL0     H 7730   5.620   1.058   3.421 -0.3696  0.0227  0.7900
  799MOL0     O 7731   2.484   6.255   2.707 -0.0662  0.7228  0.3411
  799MOL0     C 7732   2.563   6.271   2.798  0.7107 -0.0091  0.3165
  799MOL0     O 7733   2.532   6.283   2.926 -0.2621 -0.6246 -1.0060
  799MOL0     C 7734   2.401   6.258   2.960  0.2278  0.1892 -0.4129
  799MOL0     C 7735   2.292   6.324   2.904 -0.1040 -1.8179  0.2621
  799MOL0     C 7736   2.165   6.292   2.956  0.0315 -0.4880 -0.1370
  799MOL0     C 7737   2.144   6.204   3.062 -0.9576  0.2191 -0.8190
  799MOL0     O 7738   2.029   6.187   3.124  0.0593  0.1134 -0.0101
  799MOL0     C 7739   1.933   6.125   3.043  0.2703  0.1872 -0.6184
  799MOL0     C 7740   1.792   6.149   3.085 -0.3760  0.2963  0.4662
  799MOL0     C 7741   1.696   6.072   2.984 -0.8383  0.1816 -0.3725
  799MOL0     C 7742   1.627   6.160   2.880  0.1589 -0.0782  0.6890
  799MOL0     C 7743   1.518   6.082   2.803  0.4788  0.3833  0.3184
  799MOL0     C 7744   1.436   6.193   2.737 -0.4174  0.6950 -0.2897
  799MOL0     C 7745   1.316   6.138   2.670  0.0818 -0.5520  0.1757
  799MOL0     C 7746   1.223   6.234   2.589 -0.7063 -0.6966  0.0247
  799MOL0     N 7747   1.147   6.338   2.664  0.2903 -0.0319 -0.8380
  799MOL0     C 7748   1.041   6.309   2.755 -0.1139  0.8368 -0.3511
  799MOL0     C 7749   0.997   6.433   2.793 -0.8272  0.1932  0.0508
  799MOL0     C 7750   0.875   6.457   2.865 -0.2630  0.0744 -0.3957
  799MOL0     C 7751   0.756   6.365   2.819  0.5775 -0.2936  0.7903
  799MOL0     C 7752   0.632   6.413   2.899  0.1076 -0.2145 -0.5627
  799MOL0     C 7753   0.491   6.363   2.861  0.8233  0.1836 -0.1593
  799MOL0     O 7754   0.490   6.217   2.867  0.2114 -0.2870 -0.4545
  799MOL0     C 7755   0.370   6.150   2.852 -0.7508  0.2625  0.5036
  799MOL0     C 7756   0.371   6.012   2.874 -1.5656  0.5753 -0.1905
  799MOL0     C 7757   0.259   5.935   2.843 -0.2120  0.1617  0.0749
  799MOL0     C 7758   0.275   5.782   2.853 -0.8161  1.7254  0.2566
  799MOL0     C 7759   0.145   6.006   2.796  0.1720  0.7382 -0.1331
  799MOL0     C 7760   0.018   5.929   2.772  0.2612  0.1599 -1.1047
  799MOL0     O 7761  -0.091   6.010   2.740 -0.1385 -0.3536  0.4686
  799MOL0     C 7762  -0.220   5.957   2.750 -0.9948 -0.8407 -0.7155
  799MOL0     C 7763  -0.260   5.830   2.699  0.0263 -0.0298 -0.3724
  799MOL0     C 7764  -0.393   5.793   2.699  0.5112  0.0488  0.4536
  799MOL0     C 7765  -0.489   5.884   2.759 -1.1772 -1.3120  0.5390
  799MOL0     O 7766  -0.619   5.845   2.752 -0.8084  0.2708  0.0201
  799MOL0     C 7767  -0.703   5.891   2.863 -0.2842  0.0252 -0.0887
  799MOL0     C 7768  -0.831   5.803   2.873 -0.7033 -0.1674  1.3511
  799MOL0     C 7769  -0.932   5.845   2.776  0.4300  0.2783  0.5032
  799MOL0     C 7770  -1.068   5.784   2.793  0.5146 -0.7988 -0.6130
  799MOL0     C 7771  -1.176   5.873   2.726  0.6805 -0.5359 -0.6806
  799MOL0     C 7772  -1.189   5.835   2.576 -0.2507 -0.0726 -0.0142
  799MOL0     C 7773  -1.294   5.912   2.495  0.6192 -0.5883 -0.6637
  799MOL0     C 7774  -1.343   5.833   2.381  0.4652  0.5900 -0.2378
  799MOL0    Cl 7775  -1.485   5.932   2.316  0.0602  0.1279 -0.0627
  799MOL0     C 7776  -0.445   6.012   2.814 -0.0976  0.8780 -0.2026
  799MOL0     C 7777  -0.311   6.051   2.808 -1.0529 -0.6500 -0.1777
  799MOL0     O 7778   0.007   5.809   2.800  0.1581 -0.1849  0.2760
  799MOL0     C 7779   0.146   6.145   2.776  0.2687  0.2495 -0.9620
  799MOL0     C 7780   0.251   6.215   2.811  0.3080 -0.3945 -0.6945
  799MOL0     N 7781   1.074   6.527   2.734  0.7142  0.0521 -0.0168
  799MOL0     N 7782   1.157   6.479   2.656  0.0781  0.2665  0.3769
  799MOL0     C 7783   2.263   6.152   3.122  0.3364  0.3125 -0.3196
  799MOL0     C 7784   2.384   6.172   3.070 -0.4296 -0.4703 -1.0368
  799MOL0     C 7785   2.708   6.286   2.760  0.5532  0.0810 -0.0429
  799MOL0     C 7786   2.742   6.268   2.629  0.3412  0.4178  0.5015
  799MOL0     C 7787   2.875   6.285   2.586  0.1913 -0.0424 -0.6518
  799MOL0     C 7788   2.971   6.320   2.683 -0.4826 -0.3408 -0.6908
  799MOL0     O 7789   3.104   6.353   2.658 -0.0033  1.1834  0.5624
  799MOL0     C 7790   3.137   6.394   2.525 -0.1043  0.7503 -0.2681
  799MOL0     C 7791   3.283   6.453   2.517  0.2722  0.3728  0.1237
  799MOL0     C 7792   3.397   6.349   2.536 -0.2773 -0.8267 -0.0828
  799MOL0     C 7793   3.540   6.405   2.522 -0.0564  0.6058 -0.9082
  799MOL0     C 7794   3.624   6.350   2.634  0.3942 -0.5126  0.1084
  799MOL0     C 7795   3.680   6.303   2.727  0.3614 -0.6357 -0.3859
  799MOL0     C 7796   2.933   6.326   2.815  1.1243 -0.0142 -0.9825
  799MOL0     C 7797   2.800   6.312   2.855 -0.2046 -0.4305  0.4171
  799MOL0     H 7798   2.306   6.386   2.816  0.2926 -0.8908  0.9638
  799MOL0     H 7799   2.078   6.339   2.912  0.0815  1.3901  1.6353
  799MOL0     H 7800   1.950   6.139   2.936 -1.2392 -0.0308 -0.9146
  799MOL0     H 7801   1.957   6.018   3.054 -1.5965 -0.1662  0.5842
  799MOL0     H 7802   1.774   6.127   3.190 -1.2028 -0.4349  0.1866
  799MOL0     H 7803   1.781   6.258   3.076  1.9744  0.4767 -1.0736
  799MOL0     H 7804   1.744   5.997   2.920 -1.9579  1.8902 -3.4458
  799MOL0     H 7805   1.622   6.013   3.040 -0.0495  0.5725  1.1433
  799MOL0     H 7806   1.597   6.258   2.920  1.2738  0.9912 -1.0085
  799MOL0     H 7807   1.700   6.191   2.805  1.9034 -1.7107  1.6226
  799MOL0     H 7808   1.568   6.012   2.736 -0.7614 -0.8067  0.5836
  799MOL0     H 7809   1.453   6.020   2.866 -0.7284 -1.9614 -2.9285
  799MOL0     H 7810   1.396   6.265   2.809 -0.4905 -0.6196  1.0278
  799MOL0     H 7811   1.502   6.245   2.668 -0.9748 -0.7242 -1.9672
  799MOL0     H 7812   1.357   6.066   2.599  2.1498  1.9898 -1.3797
  799MOL0     H 7813   1.245   6.083   2.732 -2.0387 -0.6086 -2.1451
  799MOL0     H 7814   1.172   6.174   2.514  2.0704 -2.2768 -0.7518
  799MOL0     H 7815   1.282   6.291   2.517 -1.2435 -0.5107 -0.2710
  799MOL0     H 7816   1.016   6.207   2.779  0.0139  0.8511 -0.1579
  799MOL0     H 7817   0.886   6.446   2.973 -2.6130 -3.9036 -0.3726
  799MOL0     H 7818   0.854   6.564   2.851 -0.2848  0.0156 -0.8270
  799MOL0     H 7819   0.771   6.259   2.839  0.9911 -0.0677  1.7293
  799MOL0     H 7820   0.724   6.376   2.715 -3.0820  0.0885  1.7994
  799MOL0     H 7821   0.642   6.522   2.893 -0.3496 -0.1304  0.0722
  799MOL0     H 7822   0.660   6.388   3.002  1.7316 -3.5291 -1.6667
  799MOL0     H 7823   0.478   6.394   2.757  0.3006 -0.2885 -0.2386
  799MOL0     H 7824   0.415   6.409   2.925 -0.1489  0.5113 -1.4944
  799MOL0     H 7825   0.459   5.964   2.915 -0.7520 -0.4810 -2.9684
  799MOL0     H 7826   0.304   5.739   2.756  1.1039 -2.2092  2.3191
  799MOL0     H 7827   0.364   5.761   2.914 -0.4145  1.5492 -0.3801
  799MOL0     H 7828   0.198   5.723   2.904  1.7871 -1.6928  0.5724
  799MOL0     H 7829  -0.187   5.764   2.654  0.0568  2.7161 -4.9739
  799MOL0     H 7830  -0.431   5.697   2.667 -1.0155 -0.3080  3.0464
  799MOL0     H 7831  -0.644   5.875   2.954 -1.1862 -0.2262  0.4778
  799MOL0     H 7832  -0.731   5.997   2.855 -5.9920 -0.9923  1.4979
  799MOL0     H 7833  -0.803   5.698   2.868  1.3237  0.3891 -1.1040
  799MOL0     H 7834  -0.863   5.821   2.976 -0.0995  0.6505  1.4095
  799MOL0     H 7835  -0.892   5.837   2.674  2.7972 -0.5071  1.4194
  799MOL0     H 7836  -0.943   5.952   2.791 -0.2993  0.1169  1.1610
  799MOL0     H 7837  -1.077   5.680   2.761  0.1051 -1.5603  1.7396
  799MOL0     H 7838  -1.096   5.787   2.899 -2.3891  1.4090 -1.3069
  799MOL0     H 7839  -1.151   5.979   2.737 -1.2627 -0.0797 -0.3415
  799MOL0     H 7840  -1.269   5.868   2.783 -0.5202  2.1709 -2.2436
  799MOL0     H 7841  -1.105   5.859   2.511  0.4158  0.2261  0.9392
  799MOL0     H 7842  -1.208   5.728   2.566 -0.1197 -0.1163  0.2032
  799MOL0     H 7843  -1.249   6.006   2.462 -1.0348  1.4584  2.4532
  799MOL0     H 7844  -1.377   5.945   2.558  0.2881 -0.3339 -1.2260
  799MOL0     H 7845  -1.381   5.734   2.407  0.9975 -0.0510 -1.7934
  799MOL0     H 7846  -1.275   5.802   2.301 -2.2252 -1.6622 -1.8119
  799MOL0     H 7847  -0.516   6.084   2.853 -0.4570  0.2401  0.3378
  799MOL0     H 7848  -0.284   6.138   2.866 -0.1833 -1.2290  0.2972
  799MOL0     H 7849   0.057   6.202   2.753 -0.1133 -0.0885 -0.3465
  799MOL0     H 7850   0.233   6.321   2.798 -5.0257 -1.2714 -2.9638
  799MOL0     H 7851   2.255   6.094   3.213 -1.3176  1.5402  0.3816
  799MOL0     H 7852   2.469   6.134   3.124  1.6054  1.7414 -2.4557
  799MOL0     H 7853   2.670   6.246   2.551  1.9685  0.6226 -1.1281
  799MOL0     H 7854   2.897   6.270   2.481  2.1638  0.1824 -0.3083
  799MOL0     H 7855   3.142   6.304   2.462 -2.2296  0.8390 -0.6145
  799MOL0     H 7856   3.064   6.454   2.471  0.7181  0.5466 -1.6767
  799MOL0     H 7857   3.291   6.539   2.584  0.8699  0.0367  0.4938
  799MOL0     H 7858   3.279   6.505   2.421 -2.1412 -0.8336 -0.5267
  799MOL0     H 7859   3.387   6.271   2.460  0.4848  2.4510 -3.9101
  799MOL0     H 7860   3.376   6.292   2.627 -1.2103  2.1564  1.6962
  799MOL0     H 7861   3.549   6.514   2.523 -0.2708  0.6221 -0.5239
  799MOL0     H 7862   3.576   6.369   2.426  0.1389  0.3570 -0.7425
  799MOL0     H 7863   3.731   6.264   2.813 -0.3605  2.0261  1.3827
  799MOL0     H 7864   3.001   6.349   2.897  1.2319 -3.0741 -0.1027
  799MOL0     H 7865   2.771   6.323   2.959  0.3332 -1.3576  0.6718
  800MOL0     O 7866   9.546   4.506   5.327 -0.4775  0.7666  0.3383
  800MOL0     C 7867   9.645   4.442   5.292  0.4870 -0.2871  0.4725
  800MOL0     O 7868   9.713   4.467   5.173 -0.1565  0.3164 -0.3300
  800MOL0     C 7869   9.667   4.571   5.095  0.3445  0.8843  0.8393
  800MOL0     C 7870   9.763   4.644   5.032 -0.7206  0.6581 -0.2374
  800MOL0     C 7871   9.756   4.755   4.954  1.2693 -0.4206  0.4515
  800MOL0     C 7872   9.630   4.799   4.926  0.0121  0.3542 -0.4532
  800MOL0     O 7873   9.626   4.918   4.861 -0.4090  0.0663  0.0388
  800MOL0     C 7874   9.492   4.930   4.793  0.7104  0.3895  0.7772
  800MOL0     C 7875   9.513   5.026   4.675  1.0585  0.6102  0.6684
  800MOL0     C 7876   9.519   5.172   4.715  0.8255  0.5535 -0.4265
  800MOL0     C 7877   9.397   5.233   4.794  0.0409  0.1824 -0.6524
  800MOL0     C 7878   9.310   5.306   4.688  0.2560 -0.3926  0.1324
  800MOL0     C 7879   9.178   5.368   4.743 -0.1324  0.2646  0.0002
  800MOL0     C 7880   9.200   5.494   4.826 -0.3169 -0.6160 -0.2465
  800MOL0     C 7881   9.155   5.480   4.969 -0.1865 -0.0093 -0.3071
  800MOL0     N 7882   9.240   5.385   5.035  0.6286  0.5646  0.0915
  800MOL0     C 7883   9.193   5.263   5.066  0.0293  0.2468 -0.1456
  800MOL0     C 7884   9.291   5.213   5.150  0.6281  0.0301  0.0758
  800MOL0     C 7885   9.301   5.070   5.216 -0.4960  0.2682  0.5948
  800MOL0     C 7886   9.445   5.030   5.217  0.3557  0.0832  0.6847
  800MOL0     C 7887   9.472   4.900   5.303  0.1951  0.4299 -0.5580
  800MOL0     C 7888   9.358   4.790   5.318  0.2389 -0.1712  1.0053
  800MOL0     O 7889   9.243   4.837   5.388  0.5409 -0.3494 -0.1760
  800MOL0     C 7890   9.131   4.741   5.371 -0.2093 -0.3052  0.5365
  800MOL0     C 7891   9.140   4.595   5.362 -0.4604 -0.2131  1.2783
  800MOL0     C 7892   9.021   4.520   5.348  0.0153 -0.1268 -0.3890
  800MOL0     C 7893   9.036   4.370   5.330 -0.5127 -0.1830 -0.4101
  800MOL0     C 7894   8.899   4.587   5.338  0.5632 -0.6481 -0.4065
  800MOL0     C 7895   8.768   4.525   5.312 -0.6315 -0.1739 -0.1679
  800MOL0     O 7896   8.656   4.603   5.335  0.3115 -0.4320 -0.7047
  800MOL0     C 7897   8.537   4.543   5.362 -0.6663  0.2392 -0.1532
  800MOL0     C 7898   8.526   4.420   5.432 -0.1393 -0.0197 -0.6121
  800MOL0     C 7899   8.404   4.360   5.456  0.3511 -0.0053 -0.4444
  800MOL0     C 7900   8.281   4.426   5.425 -0.7372 -0.9145 -0.9118
  800MOL0     O 7901   8.157   4.380   5.437  0.0123 -0.5821 -0.3238
  800MOL0     C 7902   8.150   4.246   5.490  0.7469 -0.5275 -0.1924
  800MOL0     C 7903   8.014   4.178   5.474  0.1618  0.1436 -0.5301
  800MOL0     C 7904   7.930   4.205   5.600 -0.0522 -0.0431  1.3357
  800MOL0     C 7905   7.867   4.338   5.596 -0.0478 -0.4741  0.0174
  800MOL0     C 7906   7.768   4.369   5.708 -0.5038 -0.2740 -0.1262
  800MOL0     C 7907   7.619   4.346   5.659 -0.5790  0.4853  0.2128
  800MOL0     C 7908   7.566   4.211   5.628 -1.4002  0.1132 -0.2034
  800MOL0     C 7909   7.413   4.220   5.597 -0.9031  0.1548  1.3148
  800MOL0    Cl 7910   7.370   4.066   5.519  0.3635  0.2968  0.2860
  800MOL0     C 7911   8.305   4.555   5.357  0.8062  0.3296  0.1088
  800MOL0     C 7912   8.425   4.604   5.319 -0.1845 -0.0185  0.3617
  800MOL0     O 7913   8.768   4.403   5.277  0.7488  0.9071  0.4139
  800MOL0     C 7914   8.886   4.728   5.358 -0.4593 -1.0841 -0.2615
  800MOL0     C 7915   9.003   4.806   5.373 -1.3483 -0.1220 -0.6791
  800MOL0     N 7916   9.384   5.309   5.168 -0.3816  0.5467 -0.2547
  800MOL0     N 7917   9.352   5.411   5.102 -0.4159 -0.6330 -0.9168
  800MOL0     C 7918   9.517   4.729   4.986 -0.2594  0.1226 -0.0127
  800MOL0     C 7919   9.540   4.613   5.065  0.0974 -0.0349 -0.7429
  800MOL0     C 7920   9.707   4.354   5.390 -0.3545 -0.1656 -0.7269
  800MOL0     C 7921   9.634   4.302   5.500 -0.3757  0.8194  0.8564
  800MOL0     C 7922   9.688   4.209   5.589 -0.3481 -0.0924 -0.2055
  800MOL0     C 7923   9.818   4.156   5.568 -0.0740 -0.8124 -0.5959
  800MOL0     O 7924   9.873   4.096   5.672  0.2366  0.3603 -0.6670
  800MOL0     C 7925   9.909   3.953   5.662  0.4060  0.6058  0.8663
  800MOL0     C 7926   9.898   3.896   5.799  0.6485 -0.5986  0.2093
  800MOL0     C 7927   9.745   3.874   5.837  0.2065  0.3335  0.9102
  800MOL0     C 7928   9.722   3.792   5.962  0.0725  0.5650 -1.1484
  800MOL0     C 7929   9.769   3.652   5.949 -0.4632 -0.2148 -0.3936
  800MOL0     C 7930   9.810   3.540   5.939 -0.0975  0.3213 -0.3408
  800MOL0     C 7931   9.895   4.202   5.462 -0.1296  0.4049  0.6968
  800MOL0     C 7932   9.846   4.309   5.377  1.3401  0.0864  0.4663
  800MOL0     H 7933   9.861   4.603   5.052 -0.5638  1.0538 -0.1899
  800MOL0     H 7934   9.839   4.807   4.908 -2.4130  2.1684 -4.2306
  800MOL0     H 7935   9.467   4.828   4.763  0.1253  1.2480 -1.8217
  800MOL0     H 7936   9.412   4.967   4.858  0.5549  0.8430  0.3287
  800MOL0     H 7937   9.603   4.997   4.620 -0.3709 -0.2045 -1.3798
  800MOL0     H 7938   9.427   5.006   4.611  1.4747 -1.7590  0.7640
  800MOL0     H 7939   9.604   5.176   4.783 -0.0570 -0.4242  0.7797
  800MOL0     H 7940   9.539   5.239   4.631 -0.2578  1.7042  0.2006
  800MOL0     H 7941   9.335   5.158   4.846  1.9886 -1.2453 -0.2734
  800MOL0     H 7942   9.426   5.309   4.867  0.3172 -0.0046 -0.5659
  800MOL0     H 7943   9.367   5.382   4.634 -1.3735  1.0241  0.3153
  800MOL0     H 7944   9.290   5.223   4.621 -0.0459  0.6468 -1.1141
  800MOL0     H 7945   9.119   5.388   4.653  1.7614  0.7871 -1.1803
  800MOL0     H 7946   9.120   5.297   4.802 -1.0856  1.3233  0.3610
  800MOL0     H 7947   9.300   5.533   4.803 -0.7449  0.9869  0.4116
  800MOL0     H 7948   9.131   5.572   4.792 -0.3829 -0.6453 -0.1780
  800MOL0     H 7949   9.048   5.460   4.972  0.0144 -1.0837  0.0267
  800MOL0     H 7950   9.173   5.571   5.029  1.5670  0.6527 -1.7362
  800MOL0     H 7951   9.098   5.217   5.038  0.1886 -0.3111  0.1937
  800MOL0     H 7952   9.268   5.087   5.319 -0.6630  0.6415  0.4791
  800MOL0     H 7953   9.246   4.997   5.155 -0.0164  2.4348 -2.6922
  800MOL0     H 7954   9.508   5.100   5.272 -2.3815  1.1933  2.6364
  800MOL0     H 7955   9.480   5.012   5.115 -3.2843 -1.2297 -0.4759
  800MOL0     H 7956   9.515   4.936   5.397 -1.0947  2.0252 -0.5384
  800MOL0     H 7957   9.561   4.850   5.263  0.9965  0.9978  0.4622
  800MOL0     H 7958   9.403   4.707   5.374 -0.6988 -0.5443  1.2218
  800MOL0     H 7959   9.329   4.760   5.217  1.0716  1.3326  0.2763
  800MOL0     H 7960   9.236   4.546   5.348  0.7494  2.5890 -2.1059
  800MOL0     H 7961   8.973   4.316   5.400 -0.7674  2.7958  1.8518
  800MOL0     H 7962   9.006   4.344   5.228 -2.4686  0.9516 -0.1666
  800MOL0     H 7963   9.137   4.332   5.346  0.6077  1.9369 -1.9569
  800MOL0     H 7964   8.612   4.380   5.484 -0.1274  0.1894 -0.4703
  800MOL0     H 7965   8.395   4.266   5.510  2.4803 -0.1170 -0.1983
  800MOL0     H 7966   8.211   4.194   5.416 -0.0166 -0.0734 -1.1606
  800MOL0     H 7967   8.187   4.227   5.591  0.9804  0.2509 -0.1238
  800MOL0     H 7968   7.967   4.206   5.380 -0.2987 -1.5417 -0.8443
  800MOL0     H 7969   8.023   4.069   5.465  2.5020  0.3005 -0.4674
  800MOL0     H 7970   7.984   4.179   5.692  1.9248  1.9024  0.7978
  800MOL0     H 7971   7.845   4.137   5.593  1.1815 -1.4222 -2.0457
  800MOL0     H 7972   7.951   4.408   5.603 -0.2026 -0.1407 -1.2393
  800MOL0     H 7973   7.829   4.358   5.495  1.5279 -0.0118 -0.5214
  800MOL0     H 7974   7.775   4.478   5.720 -3.9395  0.6848 -4.3037
  800MOL0     H 7975   7.799   4.313   5.797  1.5848  2.3487  0.9544
  800MOL0     H 7976   7.545   4.378   5.733  1.3947  1.4284  1.8875
  800MOL0     H 7977   7.605   4.412   5.572 -0.3130  2.4600  1.5899
  800MOL0     H 7978   7.576   4.150   5.718  0.0298 -1.9035 -1.6407
  800MOL0     H 7979   7.621   4.155   5.552 -1.0961 -0.6727  0.5765
  800MOL0     H 7980   7.391   4.300   5.526  1.9298 -0.2161 -0.1370
  800MOL0     H 7981   7.361   4.240   5.691 -0.7697 -1.3161  1.7367
  800MOL0     H 7982   8.211   4.596   5.322 -0.4329 -2.5796 -0.3197
  800MOL0     H 7983   8.430   4.693   5.257 -1.0893  0.4952  1.0126
  800MOL0     H 7984   8.793   4.783   5.343  1.2398  2.2107  0.3305
  800MOL0     H 7985   8.999   4.914   5.362  1.0269  0.6126  3.4592
  800MOL0     H 7986   9.414   4.761   4.971 -0.8321 -0.5071  2.1936
  800MOL0     H 7987   9.460   4.551   5.105 -2.2391  1.3133 -3.0103
  800MOL0     H 7988   9.531   4.334   5.508 -1.4455 -2.1237 -0.0195
  800MOL0     H 7989   9.637   4.175   5.679 -0.4628  1.5355  0.3829
  800MOL0     H 7990   9.857   3.893   5.587  1.0551  0.7685  0.2789
  800MOL0     H 7991  10.015   3.946   5.636  0.8447  0.3987  2.5975
  800MOL0     H 7992   9.935   3.965   5.874 -0.6572  1.3572 -0.8553
  800MOL0     H 7993   9.953   3.803   5.813 -0.4819 -1.4583 -0.7568
  800MOL0     H 7994   9.699   3.824   5.751  0.4845 -1.6213  1.8405
  800MOL0     H 7995   9.697   3.970   5.854 -1.7496 -0.3325 -0.6013
  800MOL0     H 7996   9.622   3.793   6.007  1.6186 -0.2546  2.7497
  800MOL0     H 7997   9.781   3.832   6.045 -1.2213  0.4131 -0.1070
  800MOL0     H 7998   9.835   3.437   5.929  1.7586  0.5855  1.0674
  800MOL0     H 7999   9.999   4.172   5.453 -0.6052 -0.7960 -1.2621
  800MOL0     H 8000   9.904   4.364   5.304 -0.8415  2.3555  0.3063
  801MOL0     O 8001   7.459   6.324   3.267 -1.1698  0.1134  0.6249
  801MOL0     C 8002   7.548   6.339   3.349  0.7439  0.0480  0.1864
  801MOL0     O 8003   7.526   6.329   3.487 -0.6349  0.3886  0.2566
  801MOL0     C 8004   7.401   6.311   3.525  0.2481  0.4538  0.3728
  801MOL0     C 8005   7.299   6.403   3.485 -0.4366  0.7341  0.3335
  801MOL0     C 8006   7.171   6.387   3.538 -0.8854 -0.7833  0.5478
  801MOL0     C 8007   7.132   6.279   3.613  0.4766  0.4833 -0.1618
  801MOL0     O 8008   7.004   6.244   3.649  0.6014 -0.5151  0.5401
  801MOL0     C 8009   6.897   6.338   3.637 -0.8628  1.0317 -0.5611
  801MOL0     C 8010   6.779   6.265   3.696 -0.5367 -0.9569 -0.9542
  801MOL0     C 8011   6.648   6.342   3.677  0.0117  0.2492  0.0106
  801MOL0     C 8012   6.623   6.382   3.530 -0.1898  0.2915 -0.1142
  801MOL0     C 8013   6.480   6.438   3.525  0.6080  0.2296 -0.0527
  801MOL0     C 8014   6.460   6.590   3.553 -0.1572  0.2469 -1.0235
  801MOL0     C 8015   6.508   6.675   3.442 -0.8164 -0.3742  0.1009
  801MOL0     C 8016   6.489   6.827   3.462  0.7973 -0.2621  0.2572
  801MOL0     N 8017   6.346   6.869   3.463 -1.0744  0.0057  0.0645
  801MOL0     C 8018   6.261   6.869   3.572  0.2316  0.3086  0.6802
  801MOL0     C 8019   6.150   6.920   3.519 -0.0456 -0.0501  0.5759
  801MOL0     C 8020   6.040   6.957   3.607 -0.5508 -0.9254  0.4742
  801MOL0     C 8021   5.909   6.878   3.587 -0.0491 -0.6156  0.7201
  801MOL0     C 8022   5.820   6.907   3.705  0.4662  0.4462  0.3809
  801MOL0     C 8023   5.674   6.895   3.660  1.5226 -0.6893  0.7181
  801MOL0     O 8024   5.573   6.910   3.774 -0.1050 -0.3668 -0.0752
  801MOL0     C 8025   5.442   6.900   3.743 -0.0700  1.4098  0.4615
  801MOL0     C 8026   5.345   6.920   3.846  0.2828 -0.4934 -0.0058
  801MOL0     C 8027   5.205   6.928   3.817 -0.8556 -0.6651  0.4753
  801MOL0     C 8028   5.113   6.952   3.936  0.1722  0.0080  0.6147
  801MOL0     C 8029   5.158   6.894   3.685 -0.4106 -0.2384  0.0489
  801MOL0     C 8030   5.015   6.891   3.639 -0.0013 -0.4658  0.5195
  801MOL0     O 8031   4.915   6.922   3.735  0.3994  0.4160  0.5480
  801MOL0     C 8032   4.786   6.915   3.684  0.4807  0.2042 -0.8242
  801MOL0     C 8033   4.723   7.024   3.629  0.0529  0.4901 -0.3300
  801MOL0     C 8034   4.594   7.013   3.577  0.4706  0.5081  0.6843
  801MOL0     C 8035   4.522   6.895   3.590 -0.9245  1.0636 -1.2638
  801MOL0     O 8036   4.389   6.886   3.552 -0.2029  0.7612 -0.4053
  801MOL0     C 8037   4.324   7.001   3.507 -0.1581 -0.1131 -0.0032
  801MOL0     C 8038   4.188   6.946   3.441 -0.2360 -0.2335  1.2305
  801MOL0     C 8039   4.094   7.062   3.398  0.9415 -0.5758 -0.0030
  801MOL0     C 8040   3.984   6.995   3.310  0.0355 -0.7906 -0.3997
  801MOL0     C 8041   3.896   7.101   3.250  0.2107 -0.2079  0.1994
  801MOL0     C 8042   3.800   7.029   3.153 -0.9728  1.2040  0.4792
  801MOL0     C 8043   3.669   7.102   3.115 -0.5742 -0.3909  0.5699
  801MOL0     C 8044   3.596   7.015   3.010  0.4190 -0.1277 -0.4962
  801MOL0    Cl 8045   3.498   6.897   3.086 -0.5211  0.3438  0.2060
  801MOL0     C 8046   4.587   6.780   3.641  0.5783 -0.3240 -0.7630
  801MOL0     C 8047   4.718   6.797   3.694  1.1846 -0.4903 -0.4002
  801MOL0     O 8048   4.998   6.882   3.513  0.1320  0.1889 -0.6025
  801MOL0     C 8049   5.257   6.857   3.586  0.1888  0.4073 -0.5062
  801MOL0     C 8050   5.390   6.874   3.614  0.3687 -0.3617  0.7779
  801MOL0     N 8051   6.168   6.962   3.384 -0.1074 -0.1523  0.2887
  801MOL0     N 8052   6.286   6.924   3.347  0.2928  0.2998  0.8819
  801MOL0     C 8053   7.230   6.189   3.661  0.3865 -0.8336  0.6975
  801MOL0     C 8054   7.365   6.210   3.617 -0.0415  0.1942 -0.1117
  801MOL0     C 8055   7.673   6.383   3.292 -0.3600  0.2642 -0.1428
  801MOL0     C 8056   7.689   6.428   3.164  0.4614  0.2197  0.2801
  801MOL0     C 8057   7.816   6.455   3.102  0.7763 -0.8263 -0.0891
  801MOL0     C 8058   7.930   6.441   3.182  0.5103 -0.2635  0.2377
  801MOL0     O 8059   8.042   6.479   3.130  0.0500 -0.0285 -0.9187
  801MOL0     C 8060   8.160   6.491   3.215 -0.8241  0.7457 -0.2026
  801MOL0     C 8061   8.149   6.595   3.326 -0.3088  0.1697  0.1681
  801MOL0     C 8062   8.205   6.558   3.461  0.9159 -0.3203 -0.3481
  801MOL0     C 8063   8.211   6.686   3.552 -0.0434  0.1141  0.5883
  801MOL0     C 8064   8.306   6.675   3.657 -0.2820  0.8224 -0.7778
  801MOL0     C 8065   8.385   6.668   3.750  0.7071 -0.2261  0.3492
  801MOL0     C 8066   7.912   6.392   3.315 -0.6867 -0.7168  1.1292
  801MOL0     C 8067   7.791   6.363   3.366  0.3144  0.4723  0.4461
  801MOL0     H 8068   7.331   6.481   3.417  2.4031 -2.3508 -2.2063
  801MOL0     H 8069   7.090   6.456   3.519 -0.2899  0.5212  2.4216
  801MOL0     H 8070   6.923   6.428   3.692  1.5658  0.4412 -0.6524
  801MOL0     H 8071   6.883   6.363   3.531  1.8245  1.1338 -0.9578
  801MOL0     H 8072   6.758   6.171   3.645  0.5022 -1.3557 -0.6743
  801MOL0     H 8073   6.808   6.245   3.799  2.1220  0.3059 -1.3587
  801MOL0     H 8074   6.573   6.273   3.716  2.1258 -0.5621  2.9938
  801MOL0     H 8075   6.648   6.429   3.743 -2.2365 -0.9798  1.7921
  801MOL0     H 8076   6.698   6.456   3.502 -0.0662  0.2422  0.0849
  801MOL0     H 8077   6.632   6.294   3.467  1.6153  0.6537 -0.4072
  801MOL0     H 8078   6.439   6.411   3.428 -0.5917 -0.1794  0.5448
  801MOL0     H 8079   6.426   6.388   3.606  0.3091 -1.3532 -1.1743
  801MOL0     H 8080   6.351   6.599   3.563 -0.1346 -1.5190  2.0036
  801MOL0     H 8081   6.514   6.602   3.647  0.2919 -2.4877 -0.8533
  801MOL0     H 8082   6.617   6.667   3.435 -0.3731  3.5524 -0.0029
  801MOL0     H 8083   6.464   6.637   3.349  1.6083  0.8419 -1.6851
  801MOL0     H 8084   6.531   6.876   3.373  0.3019  0.5613  0.4652
  801MOL0     H 8085   6.550   6.856   3.549  1.4422  0.6402 -0.4719
  801MOL0     H 8086   6.271   6.831   3.673 -2.4785  2.3785  1.8284
  801MOL0     H 8087   6.066   6.935   3.711 -0.9976  0.0446  0.8048
  801MOL0     H 8088   6.036   7.066   3.598  2.2895 -0.7652  0.3660
  801MOL0     H 8089   5.920   6.769   3.584  1.9068 -0.4864  1.7560
  801MOL0     H 8090   5.871   6.900   3.487  1.5993  2.3023  0.6424
  801MOL0     H 8091   5.829   7.012   3.735  1.3303  0.1172  1.3134
  801MOL0     H 8092   5.842   6.841   3.789 -2.5355  1.1477  1.8320
  801MOL0     H 8093   5.665   6.791   3.629  0.0483  0.0099 -1.4068
  801MOL0     H 8094   5.649   6.968   3.583 -1.2153 -1.4430  0.7840
  801MOL0     H 8095   5.385   6.940   3.945  1.7735  2.6019 -1.0822
  801MOL0     H 8096   5.061   6.857   3.952 -3.0456  1.2326 -1.6116
  801MOL0     H 8097   5.161   6.980   4.030 -0.1886  3.6341 -0.1351
  801MOL0     H 8098   5.035   7.025   3.912 -3.7831 -4.3275 -1.3955
  801MOL0     H 8099   4.777   7.118   3.626 -1.0083  1.2631  2.0746
  801MOL0     H 8100   4.564   7.096   3.514  0.8569 -0.9889 -1.5943
  801MOL0     H 8101   4.305   7.072   3.588 -0.1065  2.6508 -2.2356
  801MOL0     H 8102   4.381   7.060   3.434  0.2165  0.0164  0.3913
  801MOL0     H 8103   4.222   6.884   3.357 -0.5296  0.7229  0.3867
  801MOL0     H 8104   4.146   6.891   3.526  2.9579 -2.5198  1.5299
  801MOL0     H 8105   4.140   7.142   3.339  2.6678 -1.2688  0.3358
  801MOL0     H 8106   4.050   7.116   3.483 -0.5043  0.4536 -1.3556
  801MOL0     H 8107   4.035   6.948   3.225  0.0870  1.0205 -1.4239
  801MOL0     H 8108   3.924   6.925   3.368  0.5366  1.1621  2.7417
  801MOL0     H 8109   3.952   7.181   3.200 -0.5917 -1.6532 -3.3493
  801MOL0     H 8110   3.835   7.148   3.328  0.8387 -0.2464  0.7226
  801MOL0     H 8111   3.863   7.015   3.064  1.9607  0.4346  2.5271
  801MOL0     H 8112   3.773   6.928   3.185  0.5942  1.2272  2.0170
  801MOL0     H 8113   3.700   7.191   3.058  0.4904 -2.1291 -1.7083
  801MOL0     H 8114   3.606   7.136   3.198 -0.5194  1.4793 -0.0992
  801MOL0     H 8115   3.673   6.956   2.960  0.8024 -1.1490  1.2033
  801MOL0     H 8116   3.536   7.074   2.941 -1.1787  0.5682  1.3724
  801MOL0     H 8117   4.536   6.684   3.654 -0.1076  0.0606 -0.5163
  801MOL0     H 8118   4.773   6.708   3.723  4.0216  0.3696 -2.6519
  801MOL0     H 8119   5.231   6.831   3.484 -1.0296 -2.5776  0.4686
  801MOL0     H 8120   5.460   6.849   3.534  1.4247  0.5307  1.3964
  801MOL0     H 8121   7.212   6.108   3.731 -1.3377 -2.7641 -1.7559
  801MOL0     H 8122   7.447   6.149   3.653  1.9523  1.7565 -1.8115
  801MOL0     H 8123   7.602   6.431   3.099  2.2539 -0.0049 -2.2788
  801MOL0     H 8124   7.825   6.488   3.000 -2.1327 -3.3511 -1.3258
  801MOL0     H 8125   8.177   6.394   3.263 -0.9528  0.2003 -1.2252
  801MOL0     H 8126   8.250   6.510   3.157  0.9994  1.7284  2.7433
  801MOL0     H 8127   8.050   6.638   3.344  0.6428  3.3242 -1.2986
  801MOL0     H 8128   8.206   6.683   3.293 -2.6129  1.3389 -0.9550
  801MOL0     H 8129   8.300   6.505   3.451  1.3882 -0.1657  2.4855
  801MOL0     H 8130   8.139   6.480   3.500 -2.2215  1.1740 -2.2862
  801MOL0     H 8131   8.111   6.702   3.593 -1.2200 -1.1308 -1.6219
  801MOL0     H 8132   8.243   6.777   3.501 -1.3875  1.0790  1.4028
  801MOL0     H 8133   8.454   6.681   3.831 -0.4350  1.7635  1.0708
  801MOL0     H 8134   7.995   6.372   3.382 -1.7652  0.0815  2.7735
  801MOL0     H 8135   7.793   6.335   3.471  2.1345 -1.3358 -0.0146
  802MOL0     O 8136   4.784   8.914   0.970 -0.1451 -0.2497 -1.0581
  802MOL0     C 8137   4.844   8.953   1.075 -0.9945  0.7220  0.3271
  802MOL0     O 8138   4.796   8.979   1.195  0.4208 -0.3027  0.6293
  802MOL0     C 8139   4.661   8.950   1.203 -0.6822  0.1898 -0.3333
  802MOL0     C 8140   4.618   8.833   1.257 -0.3014  0.9999  0.4528
  802MOL0     C 8141   4.480   8.809   1.270 -0.1211  0.1074 -0.1758
  802MOL0     C 8142   4.381   8.905   1.228 -0.0423 -0.5023  0.3935
  802MOL0     O 8143   4.242   8.902   1.245  0.3884 -0.1252 -0.7380
  802MOL0     C 8144   4.190   8.791   1.320  0.2690 -0.2481 -0.0924
  802MOL0     C 8145   4.039   8.799   1.345 -0.6342  1.5047 -0.7035
  802MOL0     C 8146   3.951   8.816   1.216  0.6670 -0.4746 -0.0575
  802MOL0     C 8147   3.814   8.760   1.245  0.3637  0.0042 -0.2962
  802MOL0     C 8148   3.709   8.787   1.135 -0.2917 -0.0317  0.3234
  802MOL0     C 8149   3.569   8.725   1.160 -0.7178 -0.1977  0.2594
  802MOL0     C 8150   3.487   8.727   1.023 -0.0072  0.1302 -0.2486
  802MOL0     C 8151   3.478   8.881   0.975  0.4406  1.0575 -0.5846
  802MOL0     N 8152   3.359   8.899   0.891 -0.0331 -1.2367 -0.1923
  802MOL0     C 8153   3.311   8.818   0.792  0.4082  0.1732  0.3259
  802MOL0     C 8154   3.182   8.849   0.779 -1.0689 -0.9856 -0.0977
  802MOL0     C 8155   3.094   8.781   0.674 -0.2977 -0.4415  1.0309
  802MOL0     C 8156   2.982   8.876   0.633  0.3931  0.1249 -0.2091
  802MOL0     C 8157   2.908   8.830   0.511  1.1175 -0.9902 -0.9562
  802MOL0     C 8158   2.783   8.913   0.491  0.5992 -0.6241  0.1084
  802MOL0     O 8159   2.715   8.857   0.379 -0.3981 -0.0509 -0.9100
  802MOL0     C 8160   2.593   8.806   0.394  0.0876 -0.0613 -0.3035
  802MOL0     C 8161   2.504   8.826   0.282  0.1957  0.8431 -0.5640
  802MOL0     C 8162   2.378   8.774   0.273  0.3456  0.4467  0.3324
  802MOL0     C 8163   2.298   8.790   0.142 -0.0373  0.3514 -0.5699
  802MOL0     C 8164   2.319   8.716   0.387  0.9404 -0.7618  0.8067
  802MOL0     C 8165   2.181   8.657   0.403 -0.5620  0.1163  0.1387
  802MOL0     O 8166   2.128   8.601   0.290  0.3125  0.2391 -0.1208
  802MOL0     C 8167   2.024   8.515   0.301  0.4298 -0.0395  0.2540
  802MOL0     C 8168   1.946   8.512   0.182 -1.1677 -0.1136 -0.1120
  802MOL0     C 8169   1.837   8.421   0.164  0.9331 -0.0187 -0.8334
  802MOL0     C 8170   1.812   8.328   0.268 -0.1743  0.8079 -0.3402
  802MOL0     O 8171   1.721   8.224   0.256  0.2462 -0.3980  0.6832
  802MOL0     C 8172   1.620   8.225   0.154  0.3147 -0.2364 -0.3796
  802MOL0     C 8173   1.555   8.089   0.164  0.0339 -0.1124  0.3306
  802MOL0     C 8174   1.457   8.081   0.048 -0.4802 -0.4965 -0.2744
  802MOL0     C 8175   1.392   7.944   0.045 -0.6785 -0.1152 -0.4698
  802MOL0     C 8176   1.247   7.964  -0.017 -0.4036  0.7548 -0.2866
  802MOL0     C 8177   1.135   8.016   0.081 -0.3012 -0.4540  0.5153
  802MOL0     C 8178   1.002   7.996   0.025  0.3752 -0.8202  0.1910
  802MOL0     C 8179   0.895   8.079   0.094 -0.4983 -0.4800  0.6516
  802MOL0    Cl 8180   0.734   8.053   0.024  0.5103 -0.4240 -0.2454
  802MOL0     C 8181   1.886   8.336   0.386 -0.3797 -0.4190  0.5624
  802MOL0     C 8182   1.997   8.422   0.403 -0.1533 -0.7450  0.4355
  802MOL0     O 8183   2.118   8.672   0.510 -0.2474  0.1406 -0.7703
  802MOL0     C 8184   2.395   8.702   0.497 -0.5052  0.1860  0.3029
  802MOL0     C 8185   2.532   8.750   0.508  0.4733  0.3214 -0.0111
  802MOL0     N 8186   3.158   8.954   0.869  0.4559  0.4393 -0.0544
  802MOL0     N 8187   3.266   8.982   0.935  0.2991 -0.3022 -0.1164
  802MOL0     C 8188   4.434   9.020   1.157 -0.4193  0.4269  0.2843
  802MOL0     C 8189   4.573   9.038   1.144 -0.3214 -0.6848  0.6293
  802MOL0     C 8190   4.998   8.965   1.070  0.1559  0.6650 -0.2776
  802MOL0     C 8191   5.062   9.026   0.962  0.1975  0.2648  0.3593
  802MOL0     C 8192   5.198   9.030   0.931  0.7036 -0.3489 -0.0900
  802MOL0     C 8193   5.291   8.970   1.019 -0.0524 -0.0016 -0.2664
  802MOL0     O 8194   5.425   8.969   0.986  0.2390  0.0671 -0.2529
  802MOL0     C 8195   5.524   8.929   1.087  0.0734  0.1594  0.4862
  802MOL0     C 8196   5.653   8.959   1.023 -0.8133 -0.0029 -0.4611
  802MOL0     C 8197   5.773   8.945   1.127 -0.1127 -0.4653 -0.2446
  802MOL0     C 8198   5.909   9.004   1.092  0.0441 -0.2676  0.0774
  802MOL0     C 8199   6.010   8.985   1.206 -0.5619 -0.2771  0.0678
  802MOL0     C 8200   6.076   8.959   1.303  0.5783 -0.9947 -0.4726
  802MOL0     C 8201   5.233   8.911   1.140  0.2477 -0.2951 -0.3342
  802MOL0     C 8202   5.090   8.911   1.168 -0.2848 -0.4725 -0.2049
  802MOL0     H 8203   4.698   8.763   1.284 -2.0363 -0.9029  0.9261
  802MOL0     H 8204   4.449   8.714   1.315  0.8501 -1.5531 -2.7808
  802MOL0     H 8205   4.205   8.699   1.264 -0.9140 -0.9117  0.6300
  802MOL0     H 8206   4.247   8.789   1.413  0.7315 -0.4785 -0.3801
  802MOL0     H 8207   4.024   8.699   1.386 -2.8645  2.0000 -0.1674
  802MOL0     H 8208   3.997   8.873   1.414 -1.8396  0.5330 -0.3675
  802MOL0     H 8209   3.941   8.924   1.206 -0.5717 -0.4704  1.0117
  802MOL0     H 8210   4.000   8.768   1.131  1.1549 -1.0126  0.5219
  802MOL0     H 8211   3.813   8.652   1.257  0.1694 -0.0008 -0.3466
  802MOL0     H 8212   3.784   8.802   1.341 -0.9003 -0.0402 -0.6524
  802MOL0     H 8213   3.703   8.896   1.121  2.4781  0.0418 -1.0330
  802MOL0     H 8214   3.745   8.746   1.040 -1.4395 -1.5612  0.5098
  802MOL0     H 8215   3.573   8.621   1.195 -0.6968  0.0212  0.9170
  802MOL0     H 8216   3.512   8.789   1.227  0.5281  2.0261 -0.7036
  802MOL0     H 8217   3.537   8.679   0.938  3.2816  1.3157  0.8840
  802MOL0     H 8218   3.384   8.695   1.042  0.6685 -2.0462  0.0451
  802MOL0     H 8219   3.568   8.906   0.917  1.9272  0.9888  1.5743
  802MOL0     H 8220   3.470   8.944   1.064  1.3512 -0.3387  0.5280
  802MOL0     H 8221   3.366   8.741   0.740 -3.4892 -1.0713 -2.4487
  802MOL0     H 8222   3.156   8.754   0.587  0.4154  2.3377  0.5765
  802MOL0     H 8223   3.050   8.695   0.725  0.7308 -1.3484  0.4416
  802MOL0     H 8224   3.010   8.979   0.610  0.3946 -0.4780 -3.3563
  802MOL0     H 8225   2.926   8.877   0.727  0.1623 -2.0168 -0.2748
  802MOL0     H 8226   2.880   8.727   0.531 -2.9533 -0.0938 -1.2285
  802MOL0     H 8227   2.973   8.831   0.423  0.7593 -0.5973 -1.2205
  802MOL0     H 8228   2.807   9.018   0.472  1.4683 -0.6849  0.8173
  802MOL0     H 8229   2.722   8.907   0.581  1.4762 -0.9165  0.6974
  802MOL0     H 8230   2.547   8.871   0.193  2.7407 -4.6380 -2.5782
  802MOL0     H 8231   2.303   8.694   0.090 -0.7237  0.7969 -1.4996
  802MOL0     H 8232   2.196   8.828   0.148  0.9030  2.8491  1.5425
  802MOL0     H 8233   2.348   8.857   0.071 -3.7357  3.4513 -0.5398
  802MOL0     H 8234   1.963   8.591   0.109  1.2591 -1.3629 -0.9902
  802MOL0     H 8235   1.776   8.404   0.075 -0.4793 -1.5767  0.3663
  802MOL0     H 8236   1.540   8.300   0.160  2.6459  2.3797  0.4592
  802MOL0     H 8237   1.661   8.243   0.054 -0.2596  1.3831 -0.3652
  802MOL0     H 8238   1.633   8.012   0.156  1.9971  1.9302 -2.1936
  802MOL0     H 8239   1.503   8.080   0.260 -0.9926 -1.2333 -0.2987
  802MOL0     H 8240   1.513   8.092  -0.045 -0.5542 -3.8430 -0.8430
  802MOL0     H 8241   1.390   8.167   0.045 -0.1440 -0.2230 -0.1020
  802MOL0     H 8242   1.457   7.869  -0.000  2.9309  3.5728 -1.9931
  802MOL0     H 8243   1.371   7.912   0.147 -1.8983 -0.2171 -0.7325
  802MOL0     H 8244   1.217   7.868  -0.059  1.3777 -1.1617  2.5501
  802MOL0     H 8245   1.261   8.040  -0.094 -0.9651  1.3379  0.1722
  802MOL0     H 8246   1.139   7.953   0.170  1.4122 -0.3588  0.5529
  802MOL0     H 8247   1.146   8.120   0.115  0.6177  0.0219 -1.0911
  802MOL0     H 8248   0.970   7.892   0.037 -2.0702 -0.0197  1.2486
  802MOL0     H 8249   0.996   8.020  -0.082 -1.4952 -0.2843  0.3744
  802MOL0     H 8250   0.919   8.185   0.083  3.4389 -1.4263 -1.8270
  802MOL0     H 8251   0.890   8.070   0.203 -0.1959  0.8473  0.7881
  802MOL0     H 8252   1.864   8.260   0.461 -0.6321 -1.3284 -0.4176
  802MOL0     H 8253   2.055   8.421   0.494  0.2704  1.3217  0.2438
  802MOL0     H 8254   2.368   8.657   0.592  0.1753  0.7339  0.7715
  802MOL0     H 8255   2.592   8.745   0.598 -0.1986 -2.6799  0.3702
  802MOL0     H 8256   4.377   9.099   1.109 -1.4875 -0.0634  0.7133
  802MOL0     H 8257   4.598   9.119   1.076  1.3566 -1.0707  0.7508
  802MOL0     H 8258   4.992   9.070   0.891  2.7642  1.7660 -1.3850
  802MOL0     H 8259   5.218   9.069   0.832  0.4080 -0.6932 -0.2902
  802MOL0     H 8260   5.517   8.986   1.180  0.7045  0.8504  0.1212
  802MOL0     H 8261   5.501   8.824   1.103 -2.2769  0.6350  0.6669
  802MOL0     H 8262   5.639   9.065   0.998 -0.0827  0.6369  1.5898
  802MOL0     H 8263   5.681   8.895   0.939  1.5202 -0.7595  0.8033
  802MOL0     H 8264   5.782   8.840   1.156 -3.5292 -0.6620  0.5199
  802MOL0     H 8265   5.731   8.999   1.213 -0.8077 -2.3856  0.6678
  802MOL0     H 8266   5.903   9.109   1.065 -0.0137 -0.8858 -2.5586
  802MOL0     H 8267   5.941   8.944   1.006  1.4836  0.2791  0.2072
  802MOL0     H 8268   6.128   8.927   1.391 -0.7176 -2.0229 -0.0498
  802MOL0     H 8269   5.307   8.870   1.209  1.0171  0.9660 -0.3772
  802MOL0     H 8270   5.044   8.876   1.260  3.2294 -1.3998  1.3490
  803MOL0     O 8271   5.382   0.781   1.076 -0.0639  0.0740 -0.1721
  803MOL0     C 8272   5.435   0.854   0.997  0.6423  0.2485  0.4781
  803MOL0     O 8273   5.403   0.991   0.975 -0.1035  0.2107 -0.0300
  803MOL0     C 8274   5.320   1.067   1.055  0.4093  0.1381  0.9241
  803MOL0     C 8275   5.183   1.100   1.024 -0.1271  0.9147 -0.2319
  803MOL0     C 8276   5.102   1.188   1.096  0.0056 -0.4385 -0.5600
  803MOL0     C 8277   5.155   1.248   1.208 -0.2052 -0.3571  0.1366
  803MOL0     O 8278   5.088   1.332   1.294  0.6145  0.1844 -0.0608
  803MOL0     C 8279   4.939   1.339   1.309 -0.8246  0.2686 -0.2072
  803MOL0     C 8280   4.899   1.280   1.443  0.1844  0.0791  0.0982
  803MOL0     C 8281   4.956   1.353   1.562 -0.3043 -0.2355 -0.6984
  803MOL0     C 8282   4.994   1.504   1.539 -0.0075  0.1866  0.5126
  803MOL0     C 8283   5.043   1.573   1.668  0.3743  0.1787 -0.1932
  803MOL0     C 8284   4.934   1.671   1.712 -0.1409  0.7149  0.0070
  803MOL0     C 8285   4.796   1.602   1.741 -0.2848 -0.5229  0.0052
  803MOL0     C 8286   4.694   1.721   1.751 -0.1125  0.5619 -0.4531
  803MOL0     N 8287   4.639   1.749   1.620 -0.3441  0.8048  0.0294
  803MOL0     C 8288   4.514   1.723   1.577  0.4200 -0.0013 -0.1961
  803MOL0     C 8289   4.506   1.780   1.453  0.2878  0.0151 -0.3854
  803MOL0     C 8290   4.397   1.775   1.355 -0.3801  0.1490  0.1806
  803MOL0     C 8291   4.247   1.797   1.402  0.0250  0.7483 -0.0418
  803MOL0     C 8292   4.162   1.800   1.273  0.3623 -0.6239 -0.0046
  803MOL0     C 8293   4.153   1.658   1.206  0.4497 -0.4299 -0.1683
  803MOL0     O 8294   4.050   1.673   1.110 -0.8839 -0.2076  0.4690
  803MOL0     C 8295   3.917   1.651   1.138 -0.9401 -0.1348  0.2120
  803MOL0     C 8296   3.829   1.641   1.032  0.5633 -0.0613  0.2959
  803MOL0     C 8297   3.699   1.614   1.051 -0.5254  0.2440 -0.2115
  803MOL0     C 8298   3.616   1.610   0.923  0.0316 -0.0207  0.5191
  803MOL0     C 8299   3.646   1.594   1.181  0.7841  0.6263  0.3484
  803MOL0     C 8300   3.503   1.576   1.197  0.5883  0.3870 -0.1977
  803MOL0     O 8301   3.413   1.674   1.164  0.1248 -0.1144  1.0179
  803MOL0     C 8302   3.283   1.661   1.196 -0.1352  0.2779  0.1409
  803MOL0     C 8303   3.244   1.637   1.328  0.2683 -0.1480 -0.4506
  803MOL0     C 8304   3.111   1.620   1.365  0.8300 -0.5921 -0.1718
  803MOL0     C 8305   3.014   1.636   1.268  0.6206  0.7824  0.2208
  803MOL0     O 8306   2.884   1.623   1.312  0.1473 -0.5657  0.7234
  803MOL0     C 8307   2.778   1.687   1.231  1.0394 -0.1376 -0.0758
  803MOL0     C 8308   2.675   1.749   1.320 -0.2248  0.3082  0.5487
  803MOL0     C 8309   2.739   1.844   1.417 -0.4154  0.2716 -0.4187
  803MOL0     C 8310   2.624   1.905   1.497 -0.2931 -0.0034 -0.7536
  803MOL0     C 8311   2.674   1.966   1.631  0.7115  0.0957  1.4660
  803MOL0     C 8312   2.556   1.976   1.737  0.1226  0.2516  0.8253
  803MOL0     C 8313   2.534   1.857   1.823 -0.7282 -0.1985  0.0796
  803MOL0     C 8314   2.410   1.868   1.901  1.1811  0.1014 -0.1089
  803MOL0    Cl 8315   2.379   2.018   1.978 -0.5929  0.1725 -0.1228
  803MOL0     C 8316   3.046   1.653   1.135 -0.5250  0.6514  0.1528
  803MOL0     C 8317   3.188   1.669   1.103  0.3737  0.6684  1.0858
  803MOL0     O 8318   3.468   1.472   1.248 -0.3270  0.0253  0.2210
  803MOL0     C 8319   3.729   1.615   1.292  0.1795  0.8903 -1.0953
  803MOL0     C 8320   3.869   1.634   1.271  0.0769 -0.2163 -0.2860
  803MOL0     N 8321   4.624   1.839   1.419 -0.1206 -0.0857  0.4241
  803MOL0     N 8322   4.703   1.819   1.521 -0.4265 -0.0375 -0.2641
  803MOL0     C 8323   5.276   1.208   1.253 -0.3780 -0.4519  0.1057
  803MOL0     C 8324   5.368   1.125   1.172 -0.1783 -0.6945  0.4977
  803MOL0     C 8325   5.543   0.797   0.910 -0.6812  0.5160  0.1138
  803MOL0     C 8326   5.607   0.676   0.943 -0.1631  0.4900  0.0821
  803MOL0     C 8327   5.707   0.628   0.869 -1.0657  0.1714 -0.5833
  803MOL0     C 8328   5.753   0.696   0.755 -0.3361  0.0532  0.7908
  803MOL0     O 8329   5.859   0.649   0.688  0.4215  0.5315  0.2396
  803MOL0     C 8330   5.978   0.718   0.719 -0.0537  0.5671  0.3154
  803MOL0     C 8331   6.085   0.646   0.628  0.4720  0.7979 -0.1581
  803MOL0     C 8332   6.096   0.689   0.482  0.1060  0.1185 -0.3192
  803MOL0     C 8333   6.229   0.749   0.442  0.1124 -0.4716 -0.1393
  803MOL0     C 8334   6.326   0.642   0.402  0.6784  0.2453  0.3035
  803MOL0     C 8335   6.423   0.586   0.356  0.0509 -0.0547  0.2823
  803MOL0     C 8336   5.690   0.814   0.714  0.0562 -0.8672 -0.1204
  803MOL0     C 8337   5.585   0.858   0.792  0.3153  1.3629 -0.5573
  803MOL0     H 8338   5.137   1.056   0.936 -0.7545  0.0476  0.5099
  803MOL0     H 8339   4.996   1.202   1.074  0.1506  3.4611  0.4691
  803MOL0     H 8340   4.907   1.443   1.295 -0.7914  0.5748  1.7465
  803MOL0     H 8341   4.894   1.277   1.230 -1.2791  0.2379  0.0729
  803MOL0     H 8342   4.790   1.285   1.456  0.5029  0.0600  3.9391
  803MOL0     H 8343   4.923   1.173   1.450 -1.8632 -0.5837 -1.8235
  803MOL0     H 8344   4.887   1.339   1.646  0.6078  0.4738  0.1967
  803MOL0     H 8345   5.046   1.306   1.602  0.6482 -0.6399 -3.1828
  803MOL0     H 8346   5.080   1.494   1.472  1.0495 -0.7609  1.9467
  803MOL0     H 8347   4.916   1.563   1.490  2.0909  2.5609 -0.1833
  803MOL0     H 8348   5.050   1.499   1.747 -0.2420  0.1492 -0.1578
  803MOL0     H 8349   5.141   1.619   1.649  0.2776 -0.5315 -2.8825
  803MOL0     H 8350   4.974   1.719   1.802 -0.0774 -0.0712  0.4067
  803MOL0     H 8351   4.927   1.746   1.633  1.6418 -0.2879 -1.1797
  803MOL0     H 8352   4.766   1.532   1.662  0.4579  0.5289 -1.2560
  803MOL0     H 8353   4.804   1.555   1.839 -1.3068 -1.1841 -0.2160
  803MOL0     H 8354   4.746   1.809   1.791  1.5241 -0.7653  0.5098
  803MOL0     H 8355   4.609   1.691   1.813 -0.5868  2.4815 -0.1172
  803MOL0     H 8356   4.430   1.677   1.628  0.4929 -0.6037 -0.6103
  803MOL0     H 8357   4.428   1.852   1.284  2.6185  0.3161  1.5018
  803MOL0     H 8358   4.412   1.691   1.287  1.0031 -0.4917  1.2324
  803MOL0     H 8359   4.232   1.896   1.448  1.4315  2.4168 -2.9175
  803MOL0     H 8360   4.216   1.715   1.468  2.0778  1.0567  1.4236
  803MOL0     H 8361   4.185   1.879   1.202 -2.0892  1.4703  1.3564
  803MOL0     H 8362   4.061   1.820   1.309 -0.4353 -3.3421 -0.4812
  803MOL0     H 8363   4.126   1.570   1.264 -0.5247 -2.7847 -3.8664
  803MOL0     H 8364   4.251   1.634   1.163  1.0592 -0.9104  1.4067
  803MOL0     H 8365   3.867   1.652   0.930  0.2498 -1.5145  0.0083
  803MOL0     H 8366   3.513   1.646   0.921 -0.4177 -0.6688 -5.8168
  803MOL0     H 8367   3.668   1.668   0.847  1.5103  0.5793  1.9173
  803MOL0     H 8368   3.599   1.504   0.902 -3.9658  0.3210  1.1875
  803MOL0     H 8369   3.317   1.621   1.408  0.8608 -2.4471 -1.3639
  803MOL0     H 8370   3.086   1.618   1.470 -1.4353 -2.8942 -0.6713
  803MOL0     H 8371   2.805   1.766   1.161 -2.8827  1.6392  0.1600
  803MOL0     H 8372   2.737   1.612   1.162 -1.0351  0.9371 -0.0810
  803MOL0     H 8373   2.614   1.809   1.251 -1.2301 -1.1502  0.1085
  803MOL0     H 8374   2.612   1.674   1.369 -0.6626  0.4799  0.2561
  803MOL0     H 8375   2.797   1.915   1.357 -2.5253  1.3420 -1.3098
  803MOL0     H 8376   2.810   1.792   1.482  0.2351  0.5152 -0.9191
  803MOL0     H 8377   2.596   1.985   1.428  2.8121  1.6181 -0.2863
  803MOL0     H 8378   2.540   1.837   1.514  0.8867 -1.7528 -1.6047
  803MOL0     H 8379   2.704   2.067   1.603  1.9240 -1.0815 -1.9145
  803MOL0     H 8380   2.761   1.914   1.672  2.1552  0.8323 -0.4962
  803MOL0     H 8381   2.578   2.061   1.803 -0.6713  1.0118  0.1371
  803MOL0     H 8382   2.466   1.990   1.676  0.6526  2.1878  0.4121
  803MOL0     H 8383   2.617   1.836   1.891 -1.0988 -0.1870  0.5430
  803MOL0     H 8384   2.531   1.773   1.753  1.3319  2.5011 -3.6272
  803MOL0     H 8385   2.416   1.795   1.982  2.6495 -0.0685 -0.3414
  803MOL0     H 8386   2.320   1.845   1.843 -0.2180 -3.0719  2.8960
  803MOL0     H 8387   2.964   1.662   1.064 -0.5607 -0.8614 -0.0234
  803MOL0     H 8388   3.200   1.692   0.998  0.3917  1.2707  1.2167
  803MOL0     H 8389   3.696   1.616   1.395  5.7583  1.9205  1.0472
  803MOL0     H 8390   3.940   1.639   1.353 -1.9675 -2.4790  1.7645
  803MOL0     H 8391   5.304   1.248   1.350 -0.8660 -1.0191  0.4903
  803MOL0     H 8392   5.472   1.100   1.194  0.0078  0.4472  1.0303
  803MOL0     H 8393   5.578   0.622   1.033  4.2309  1.3495  2.2726
  803MOL0     H 8394   5.766   0.540   0.895 -1.6773 -0.0819 -0.0185
  803MOL0     H 8395   5.983   0.825   0.696  1.9063  0.3139 -0.6550
  803MOL0     H 8396   6.000   0.714   0.826  0.5132  0.1923  0.1915
  803MOL0     H 8397   6.063   0.539   0.619  0.5485  0.7981 -0.3553
  803MOL0     H 8398   6.180   0.633   0.681  0.7492  1.5765 -0.4600
  803MOL0     H 8399   6.031   0.774   0.459 -0.1411  0.0362  0.0613
  803MOL0     H 8400   6.055   0.613   0.415  1.0548  1.2968 -2.3361
  803MOL0     H 8401   6.273   0.801   0.528 -0.9768 -0.3251  0.3481
  803MOL0     H 8402   6.215   0.819   0.360 -0.4549 -0.1091  0.2545
  803MOL0     H 8403   6.509   0.542   0.310  0.7711 -1.5346  2.8825
  803MOL0     H 8404   5.729   0.875   0.634 -0.2223  2.0623  1.7885
  803MOL0     H 8405   5.535   0.953   0.774 -1.1839  0.6485 -0.3806
  804MOL0     O 8406   9.165   1.315   2.793 -0.1618  1.1260 -0.7860
  804MOL0     C 8407   9.196   1.329   2.910  0.0809  0.0437  0.2562
  804MOL0     O 8408   9.319   1.305   2.965 -0.6362 -0.0206 -0.1369
  804MOL0     C 8409   9.407   1.223   2.916 -0.1091  0.9225  0.7307
  804MOL0     C 8410   9.539   1.263   2.952 -0.4229  0.4307  0.2998
  804MOL0     C 8411   9.652   1.176   2.917  0.0062  0.6023 -0.5646
  804MOL0     C 8412   9.643   1.049   2.849 -0.3657 -0.3755 -0.2963
  804MOL0     O 8413   9.748   0.965   2.822 -0.5849 -0.4906 -0.0419
  804MOL0     C 8414   9.845   0.946   2.930  0.7312 -0.4019  0.0450
  804MOL0     C 8415   9.895   0.807   2.918  0.0600  0.2134 -0.5785
  804MOL0     C 8416   9.976   0.788   2.790 -0.6249  0.0332  0.6615
  804MOL0     C 8417  10.131   0.824   2.810  1.0456  0.6243  0.0209
  804MOL0     C 8418  10.218   0.799   2.684 -0.4210 -0.0928 -0.1010
  804MOL0     C 8419  10.367   0.783   2.718  0.4114 -0.3270  0.5329
  804MOL0     C 8420  10.459   0.888   2.654  0.3838 -0.0132 -0.5438
  804MOL0     C 8421  10.605   0.892   2.697  0.2521  0.0420 -0.0244
  804MOL0     N 8422  10.663   1.017   2.656  0.3347 -0.6891  0.2477
  804MOL0     C 8423  10.649   1.132   2.726 -0.4968  0.5412 -0.6305
  804MOL0     C 8424  10.748   1.216   2.691 -0.0131  0.6073 -0.3684
  804MOL0     C 8425  10.791   1.349   2.762  0.0457  0.2823 -0.3250
  804MOL0     C 8426  10.658   1.424   2.764 -0.3640 -0.6528 -0.5419
  804MOL0     C 8427  10.696   1.572   2.806  0.3290  0.6199 -0.5704
  804MOL0     C 8428  10.568   1.659   2.783 -0.3874  0.1800  0.5626
  804MOL0     O 8429  10.480   1.639   2.895  0.1126  0.6105 -0.4880
  804MOL0     C 8430  10.358   1.703   2.900 -0.1592  0.0985  0.9999
  804MOL0     C 8431  10.263   1.699   2.800  0.3351  0.2550  0.3405
  804MOL0     C 8432  10.141   1.766   2.803 -0.3927  0.1334  0.3759
  804MOL0     C 8433  10.064   1.773   2.673 -0.3844 -0.0407 -0.8494
  804MOL0     C 8434  10.106   1.836   2.920 -0.0688  0.6983  1.1693
  804MOL0     C 8435   9.975   1.901   2.931  0.0695 -0.5448  0.4051
  804MOL0     O 8436   9.867   1.827   2.880  0.4787  0.2297 -0.2492
  804MOL0     C 8437   9.735   1.852   2.906  0.1698 -0.9969 -0.5192
  804MOL0     C 8438   9.683   1.932   3.009  0.1275  0.4909 -0.9062
  804MOL0     C 8439   9.549   1.923   3.041  0.3710  0.1318  0.2230
  804MOL0     C 8440   9.458   1.854   2.958  0.1901 -0.9136 -0.8431
  804MOL0     O 8441   9.318   1.851   2.969 -0.0888 -0.7711 -0.3202
  804MOL0     C 8442   9.268   1.950   3.060 -0.5990  0.0187  0.4396
  804MOL0     C 8443   9.114   1.954   3.060 -0.3607 -0.1794  0.1025
  804MOL0     C 8444   9.041   1.914   2.929 -0.7696  0.4189 -0.1201
  804MOL0     C 8445   8.888   1.909   2.951 -0.1240 -1.0453  0.2608
  804MOL0     C 8446   8.838   1.839   2.826 -0.1995 -0.2348 -0.0231
  804MOL0     C 8447   8.693   1.806   2.843 -0.1337  0.2556 -0.3103
  804MOL0     C 8448   8.597   1.923   2.822  0.0190  0.1343 -0.0526
  804MOL0     C 8449   8.469   1.884   2.889 -0.3863  0.0207 -0.2901
  804MOL0    Cl 8450   8.390   1.728   2.834 -0.5693 -0.2768 -0.2391
  804MOL0     C 8451   9.516   1.768   2.863  0.3176 -0.1322 -0.9386
  804MOL0     C 8452   9.647   1.769   2.837 -0.1302 -0.2993  0.2249
  804MOL0     O 8453   9.967   2.013   2.993  0.1372  0.1825 -0.0279
  804MOL0     C 8454  10.196   1.840   3.025  0.1179 -0.3102 -0.5208
  804MOL0     C 8455  10.324   1.780   3.010 -0.3038  0.5775 -0.7723
  804MOL0     N 8456  10.821   1.147   2.589 -0.2584 -0.1860 -0.2078
  804MOL0     N 8457  10.774   1.031   2.574 -0.3894  0.1300 -0.3862
  804MOL0     C 8458   9.512   1.021   2.811 -0.0607 -0.9825  0.1803
  804MOL0     C 8459   9.398   1.100   2.841  0.2657 -0.0273 -0.3707
  804MOL0     C 8460   9.108   1.399   3.003  0.8113 -0.2639  0.2916
  804MOL0     C 8461   9.133   1.407   3.137 -0.6860 -0.0321 -0.4421
  804MOL0     C 8462   9.038   1.480   3.228  0.0228 -0.4255  0.4613
  804MOL0     C 8463   8.914   1.521   3.177 -0.0210 -0.1630 -0.4332
  804MOL0     O 8464   8.809   1.566   3.260 -0.1775  0.5529 -0.9592
  804MOL0     C 8465   8.845   1.593   3.396  0.8626  0.1831  0.7795
  804MOL0     C 8466   8.721   1.638   3.471 -0.9558  0.3178 -0.4718
  804MOL0     C 8467   8.652   1.777   3.432 -0.0582  1.1906  0.7267
  804MOL0     C 8468   8.516   1.786   3.503 -0.1102  0.3652  0.4653
  804MOL0     C 8469   8.442   1.912   3.476 -1.0948 -0.0353 -0.3010
  804MOL0     C 8470   8.383   2.014   3.458 -0.5184  0.4450  0.2513
  804MOL0     C 8471   8.882   1.500   3.043 -0.1324  0.8972  0.2112
  804MOL0     C 8472   8.980   1.442   2.954  0.1565  0.3779  1.1666
  804MOL0     H 8473   9.565   1.354   3.007  1.9895  0.2947 -0.4876
  804MOL0     H 8474   9.748   1.208   2.956  1.2534 -1.1291 -2.0399
  804MOL0     H 8475   9.915   1.030   2.938 -1.6873  1.6770  0.9437
  804MOL0     H 8476   9.775   0.957   3.014 -2.2381  1.0738 -2.4070
  804MOL0     H 8477   9.962   0.787   3.002  3.7858  0.0817 -3.3266
  804MOL0     H 8478   9.815   0.733   2.929 -1.2306  1.7944  1.3797
  804MOL0     H 8479   9.973   0.696   2.732  2.1109  0.6497 -0.6383
  804MOL0     H 8480   9.943   0.855   2.709 -1.3691 -1.8228 -0.6309
  804MOL0     H 8481  10.123   0.932   2.829 -2.1717  0.3329  0.9358
  804MOL0     H 8482  10.171   0.778   2.900  0.6816 -0.5199 -0.3817
  804MOL0     H 8483  10.193   0.709   2.627  1.8410  0.4746 -2.2068
  804MOL0     H 8484  10.204   0.882   2.614  2.6854  0.1424 -0.5759
  804MOL0     H 8485  10.363   0.787   2.827 -0.8640  1.8345  0.4557
  804MOL0     H 8486  10.403   0.686   2.681 -1.3379 -0.8946  0.1965
  804MOL0     H 8487  10.457   0.870   2.546 -0.0130 -2.0793 -0.2290
  804MOL0     H 8488  10.429   0.993   2.669  0.4994 -0.0445 -0.0701
  804MOL0     H 8489  10.655   0.813   2.640  1.2776 -0.0178  0.9368
  804MOL0     H 8490  10.608   0.888   2.806 -2.5176  2.7753  0.3180
  804MOL0     H 8491  10.585   1.141   2.814 -0.5886  0.7825 -0.7212
  804MOL0     H 8492  10.830   1.336   2.863  0.3530 -0.6571 -0.5611
  804MOL0     H 8493  10.873   1.392   2.705  0.5792 -0.1925  0.0715
  804MOL0     H 8494  10.584   1.383   2.833  2.2188 -0.9852  2.2363
  804MOL0     H 8495  10.636   1.429   2.657  2.6702 -0.5516 -1.2640
  804MOL0     H 8496  10.779   1.607   2.745  1.5288 -1.1979 -0.0720
  804MOL0     H 8497  10.748   1.584   2.902  1.8257  0.7952 -1.3744
  804MOL0     H 8498  10.521   1.659   2.684 -3.6368  1.0014  1.9901
  804MOL0     H 8499  10.594   1.766   2.782  1.8367 -0.2027 -3.3782
  804MOL0     H 8500  10.283   1.635   2.715  0.7159 -1.7390  1.8692
  804MOL0     H 8501  10.053   1.880   2.650  1.4628  0.7287  1.3629
  804MOL0     H 8502  10.120   1.728   2.591 -0.7052  0.1395 -1.1694
  804MOL0     H 8503   9.969   1.719   2.673 -0.3933 -0.0215 -1.0870
  804MOL0     H 8504   9.747   1.989   3.075  0.4732 -0.0245 -0.7889
  804MOL0     H 8505   9.519   1.973   3.133 -0.9996  0.1556 -0.2135
  804MOL0     H 8506   9.303   1.918   3.159  3.2659  0.5894 -0.5625
  804MOL0     H 8507   9.318   2.046   3.048  2.3301 -1.3189  0.9608
  804MOL0     H 8508   9.083   1.889   3.143  1.0803  2.4913  2.9865
  804MOL0     H 8509   9.064   2.045   3.096 -1.8851 -1.6239  1.8655
  804MOL0     H 8510   9.082   1.817   2.899 -0.7681  0.7825 -1.3399
  804MOL0     H 8511   9.072   1.976   2.845 -2.5941 -0.2141 -1.3208
  804MOL0     H 8512   8.857   1.851   3.038  2.8992 -0.1372  2.0665
  804MOL0     H 8513   8.845   2.006   2.975 -3.0438 -1.9991 -0.7153
  804MOL0     H 8514   8.900   1.749   2.817 -0.9684 -0.7228 -0.5305
  804MOL0     H 8515   8.871   1.898   2.739  3.5373  0.3034  1.5327
  804MOL0     H 8516   8.665   1.720   2.781  1.1717 -1.5324  1.4519
  804MOL0     H 8517   8.677   1.759   2.941  2.2911  1.0374  0.5344
  804MOL0     H 8518   8.591   1.926   2.712 -0.2753  1.3322 -0.0100
  804MOL0     H 8519   8.633   2.017   2.863  1.2353 -0.2061 -0.3039
  804MOL0     H 8520   8.403   1.969   2.870  1.5009  1.9586  1.2698
  804MOL0     H 8521   8.484   1.875   2.997 -1.0933 -1.5141 -0.3048
  804MOL0     H 8522   9.453   1.695   2.813  3.4492 -1.2828 -3.5408
  804MOL0     H 8523   9.690   1.692   2.773  2.9859  2.3829 -1.1987
  804MOL0     H 8524  10.171   1.883   3.121 -1.8919 -2.2460 -0.0688
  804MOL0     H 8525  10.395   1.782   3.093 -1.6713  0.0047  0.4654
  804MOL0     H 8526   9.509   0.939   2.740 -1.2219  0.1910 -1.1950
  804MOL0     H 8527   9.314   1.035   2.822  2.6757 -3.2153 -1.0188
  804MOL0     H 8528   9.228   1.362   3.167  0.1473 -0.5570 -3.5697
  804MOL0     H 8529   9.068   1.500   3.330 -0.8945  0.3098  0.6034
  804MOL0     H 8530   8.874   1.498   3.441  1.7760  0.3756  0.6090
  804MOL0     H 8531   8.922   1.670   3.407  1.5700 -0.4446  0.2473
  804MOL0     H 8532   8.743   1.657   3.577  0.9447 -0.0533 -0.7711
  804MOL0     H 8533   8.653   1.553   3.471 -0.9996  0.2603  2.2480
  804MOL0     H 8534   8.628   1.773   3.325  0.5387  0.7079  0.6040
  804MOL0     H 8535   8.715   1.863   3.453  1.7198  0.6889 -2.0489
  804MOL0     H 8536   8.531   1.781   3.611  1.5092  0.0302  0.2475
  804MOL0     H 8537   8.453   1.703   3.468 -2.4446  1.5518  1.5974
  804MOL0     H 8538   8.329   2.102   3.428 -1.0428 -0.6141 -2.1359
  804MOL0     H 8539   8.785   1.520   3.000  0.3068  1.4010 -0.5784
  804MOL0     H 8540   8.961   1.441   2.847  2.2816  0.0616  0.7480
  805MOL0     O 8541   7.277   6.802   2.042 -0.2203  0.2604 -0.2271
  805MOL0     C 8542   7.313   6.906   1.988  0.5624  0.0719  0.3998
  805MOL0     O 8543   7.232   6.981   1.905  0.8339 -0.0024 -0.0749
  805MOL0     C 8544   7.100   6.942   1.861 -0.4523 -0.6114 -0.4513
  805MOL0     C 8545   7.034   7.035   1.780  0.3599  0.8727 -0.0969
  805MOL0     C 8546   6.907   7.013   1.742  0.5786  0.4041 -0.6972
  805MOL0     C 8547   6.839   6.892   1.777 -0.2453  0.6936 -0.1138
  805MOL0     O 8548   6.709   6.875   1.759  0.4746  0.2033  0.3656
  805MOL0     C 8549   6.658   6.899   1.621  0.5141  0.6580 -0.3016
  805MOL0     C 8550   6.508   6.930   1.633  0.3199  0.6291  0.1623
  805MOL0     C 8551   6.488   7.070   1.692  0.3761 -0.4772  1.2181
  805MOL0     C 8552   6.340   7.101   1.699  0.7928 -0.4067  0.0589
  805MOL0     C 8553   6.318   7.242   1.753 -0.5091  0.8205  0.5246
  805MOL0     C 8554   6.176   7.308   1.732  0.2891  0.8076  0.1822
  805MOL0     C 8555   6.077   7.244   1.824 -0.0361  0.5526 -0.6743
  805MOL0     C 8556   6.102   7.293   1.972  0.2483  0.3177  0.0306
  805MOL0     N 8557   6.059   7.196   2.080 -0.5386 -0.0896  0.1847
  805MOL0     C 8558   5.931   7.194   2.119  0.3962  0.6369 -0.6278
  805MOL0     C 8559   5.937   7.113   2.229 -0.1860  0.1498  0.3206
  805MOL0     C 8560   5.821   7.069   2.302  0.1608 -0.2377 -0.9055
  805MOL0     C 8561   5.825   7.114   2.451 -0.4083 -0.9295  0.2249
  805MOL0     C 8562   5.715   7.037   2.535  0.5110  0.6455 -0.3192
  805MOL0     C 8563   5.754   7.027   2.690  0.9330  0.0529  0.2766
  805MOL0     O 8564   5.736   7.159   2.745 -0.9532  0.3554  0.1868
  805MOL0     C 8565   5.615   7.208   2.765 -0.1938  0.3643  0.3790
  805MOL0     C 8566   5.598   7.340   2.804 -0.0208 -0.4056 -0.5763
  805MOL0     C 8567   5.486   7.409   2.836 -0.4383  0.5736 -0.2178
  805MOL0     C 8568   5.490   7.558   2.859 -0.7762 -0.1652 -0.2454
  805MOL0     C 8569   5.364   7.330   2.829  0.7628 -0.3216 -0.7757
  805MOL0     C 8570   5.237   7.383   2.865  1.3195  0.0453 -0.5541
  805MOL0     O 8571   5.153   7.313   2.954 -0.4702 -0.7297  0.0421
  805MOL0     C 8572   5.036   7.372   2.985 -0.0107  0.0396 -0.7097
  805MOL0     C 8573   5.022   7.481   3.076 -0.1393 -0.6604 -0.6616
  805MOL0     C 8574   4.905   7.554   3.091  0.2884 -0.4006 -0.4461
  805MOL0     C 8575   4.795   7.514   3.011  0.4245  0.3540  0.0092
  805MOL0     O 8576   4.680   7.588   3.033 -1.1394  0.5759 -0.3126
  805MOL0     C 8577   4.596   7.612   2.924  0.1890  0.6597 -0.0088
  805MOL0     C 8578   4.470   7.517   2.933 -0.4254  0.0613 -1.0702
  805MOL0     C 8579   4.360   7.568   2.842 -0.4138 -0.5804  0.3533
  805MOL0     C 8580   4.242   7.459   2.845 -0.0084  0.4366  0.6420
  805MOL0     C 8581   4.113   7.516   2.788  0.1787  0.5178 -0.5498
  805MOL0     C 8582   4.102   7.556   2.642 -0.4055  0.2597  0.6443
  805MOL0     C 8583   3.948   7.570   2.605 -0.5388 -1.2113 -0.4848
  805MOL0     C 8584   3.938   7.614   2.464 -0.1142 -0.1584  0.0229
  805MOL0    Cl 8585   3.776   7.696   2.441  0.1110  0.3251  0.0456
  805MOL0     C 8586   4.808   7.404   2.917 -0.5420  0.8787 -0.2716
  805MOL0     C 8587   4.922   7.333   2.919  0.0959  0.0624 -0.7300
  805MOL0     O 8588   5.213   7.494   2.811  0.4106 -0.4452 -0.4010
  805MOL0     C 8589   5.375   7.193   2.818  0.7566 -0.3447 -0.5627
  805MOL0     C 8590   5.500   7.131   2.793  0.1864 -0.0941 -0.1718
  805MOL0     N 8591   6.067   7.076   2.253  0.1610  0.7849  0.6882
  805MOL0     N 8592   6.141   7.127   2.159  0.4634 -0.0720 -0.5062
  805MOL0     C 8593   6.907   6.796   1.853  0.4130  0.8194 -0.4747
  805MOL0     C 8594   7.033   6.823   1.904  0.3919 -0.1038 -0.2570
  805MOL0     C 8595   7.443   6.959   2.021  0.5694  0.5227  0.3926
  805MOL0     C 8596   7.487   7.074   1.964 -0.6211  0.3082 -0.8235
  805MOL0     C 8597   7.607   7.125   2.013 -0.0801 -0.1882 -1.5356
  805MOL0     C 8598   7.698   7.061   2.097  0.5183  0.3541  0.0162
  805MOL0     O 8599   7.818   7.128   2.121 -0.1748  0.8581  0.0684
  805MOL0     C 8600   7.850   7.123   2.263 -0.2257 -0.1660  0.0941
  805MOL0     C 8601   7.934   7.249   2.298  0.3593  0.2981 -0.0899
  805MOL0     C 8602   7.866   7.387   2.249 -0.0163  0.2306  0.0074
  805MOL0     C 8603   7.717   7.392   2.294 -0.5103  0.1387 -0.5332
  805MOL0     C 8604   7.670   7.528   2.265 -0.5438 -0.7261 -0.2907
  805MOL0     C 8605   7.657   7.648   2.249  0.2569  0.1389  0.2291
  805MOL0     C 8606   7.650   6.943   2.146 -0.0323  0.0737 -0.1153
  805MOL0     C 8607   7.525   6.888   2.114 -0.0405 -0.8768  0.0621
  805MOL0     H 8608   7.076   7.127   1.742 -0.9310  2.7682  2.7151
  805MOL0     H 8609   6.857   7.082   1.675  1.6588  1.3089 -0.5905
  805MOL0     H 8610   6.696   6.995   1.584 -3.9273  3.1748  0.9371
  805MOL0     H 8611   6.692   6.826   1.547  0.8584 -0.0712  0.5496
  805MOL0     H 8612   6.451   6.929   1.540  3.4120  1.6603 -1.9061
  805MOL0     H 8613   6.462   6.862   1.705 -0.3011  0.4130 -0.4317
  805MOL0     H 8614   6.542   7.068   1.787  1.3368  0.0292  0.7036
  805MOL0     H 8615   6.521   7.150   1.625 -3.6787 -0.9213 -1.7017
  805MOL0     H 8616   6.285   7.083   1.607 -0.0257  0.1778  0.4233
  805MOL0     H 8617   6.304   7.035   1.779  1.8088  0.6225  1.4363
  805MOL0     H 8618   6.351   7.246   1.857 -0.8136  1.2458  0.6067
  805MOL0     H 8619   6.384   7.309   1.697 -1.5064  1.2341 -0.1896
  805MOL0     H 8620   6.178   7.413   1.762 -1.5162  0.9713 -0.1590
  805MOL0     H 8621   6.141   7.296   1.629 -4.0869 -1.2933  1.6666
  805MOL0     H 8622   5.978   7.274   1.788 -0.2140  1.6329  0.6265
  805MOL0     H 8623   6.089   7.136   1.824 -1.3387  0.2662  3.1974
  805MOL0     H 8624   6.056   7.389   1.996 -1.5139 -0.5835  0.4381
  805MOL0     H 8625   6.209   7.311   1.991  0.8440  3.2920 -4.6261
  805MOL0     H 8626   5.841   7.234   2.073 -1.2124  0.5588  2.1978
  805MOL0     H 8627   5.729   7.104   2.253 -0.0621  1.6704  0.7549
  805MOL0     H 8628   5.816   6.961   2.287 -0.6606 -0.3076 -0.1943
  805MOL0     H 8629   5.821   7.222   2.467  3.5897 -0.5843 -0.2879
  805MOL0     H 8630   5.924   7.080   2.482  0.1254  0.9993  0.7495
  805MOL0     H 8631   5.696   6.931   2.515 -0.0423  0.2006  2.3013
  805MOL0     H 8632   5.615   7.082   2.527 -0.2426 -1.2353 -3.2758
  805MOL0     H 8633   5.858   6.993   2.697  0.5797 -0.8554  1.2314
  805MOL0     H 8634   5.687   6.958   2.741  1.8743 -0.4182  0.9037
  805MOL0     H 8635   5.691   7.394   2.790  1.4847 -3.2368 -2.5281
  805MOL0     H 8636   5.593   7.589   2.841  0.4567 -1.2108  3.9157
  805MOL0     H 8637   5.416   7.598   2.789 -2.6981 -1.5469  0.8886
  805MOL0     H 8638   5.459   7.585   2.960 -1.8186  0.4599 -0.7102
  805MOL0     H 8639   5.118   7.510   3.118 -0.3000  0.1009 -0.8031
  805MOL0     H 8640   4.890   7.645   3.149  1.2667 -0.7676  0.4017
  805MOL0     H 8641   4.571   7.718   2.917 -2.9222 -0.0723 -3.2054
  805MOL0     H 8642   4.634   7.574   2.829 -0.3541 -1.1902  0.4747
  805MOL0     H 8643   4.513   7.418   2.913 -0.6332 -0.7259  1.8484
  805MOL0     H 8644   4.434   7.514   3.037 -2.6044 -1.2149 -1.8042
  805MOL0     H 8645   4.403   7.561   2.742  0.2185 -1.5354  0.6838
  805MOL0     H 8646   4.332   7.666   2.881  1.4237 -0.3514  1.1801
  805MOL0     H 8647   4.284   7.362   2.815  2.6027  0.1662  4.5140
  805MOL0     H 8648   4.225   7.443   2.952 -1.4997  1.5757  0.6144
  805MOL0     H 8649   4.088   7.607   2.844  0.2804 -0.1882  0.6581
  805MOL0     H 8650   4.030   7.447   2.806  0.7772 -0.0965 -0.1491
  805MOL0     H 8651   4.154   7.650   2.621 -1.2899  0.3873 -1.2085
  805MOL0     H 8652   4.152   7.480   2.580 -0.1320 -1.0201  2.3568
  805MOL0     H 8653   3.910   7.655   2.663  0.2386 -0.7141 -0.6740
  805MOL0     H 8654   3.889   7.482   2.630 -2.2974  0.5908  2.3045
  805MOL0     H 8655   3.940   7.527   2.398 -2.1677  0.3551 -0.8007
  805MOL0     H 8656   4.013   7.690   2.441  0.3183 -0.4403  0.4849
  805MOL0     H 8657   4.725   7.370   2.857  0.4449 -0.0714 -1.1478
  805MOL0     H 8658   4.935   7.249   2.851  1.7359 -1.3898  1.2474
  805MOL0     H 8659   5.282   7.138   2.830 -0.1891  1.5339  1.1852
  805MOL0     H 8660   5.502   7.023   2.807  0.3185  0.2131  2.8094
  805MOL0     H 8661   6.849   6.713   1.892  0.1535 -0.6626 -3.6979
  805MOL0     H 8662   7.072   6.756   1.980 -1.3980 -0.2895  0.5299
  805MOL0     H 8663   7.435   7.125   1.883 -3.2139  0.1434  0.6293
  805MOL0     H 8664   7.646   7.221   1.979  1.2771  0.7954  2.3208
  805MOL0     H 8665   7.756   7.111   2.317 -0.1918 -1.3956 -0.0931
  805MOL0     H 8666   7.909   7.036   2.295 -2.9126 -1.0097  3.3115
  805MOL0     H 8667   8.030   7.244   2.247  0.4391  0.3909  0.0536
  805MOL0     H 8668   7.947   7.244   2.406 -1.2480  1.6301  0.2214
  805MOL0     H 8669   7.882   7.391   2.141  0.5204 -0.8286  0.0387
  805MOL0     H 8670   7.925   7.472   2.284 -2.0627  2.6638 -2.0701
  805MOL0     H 8671   7.710   7.368   2.400  2.7443  1.7303  0.1519
  805MOL0     H 8672   7.652   7.330   2.231 -0.1116  1.0110 -1.8474
  805MOL0     H 8673   7.633   7.752   2.235  2.7414  1.5362  4.5544
  805MOL0     H 8674   7.707   6.897   2.226 -1.5053  2.2846  2.3480
  805MOL0     H 8675   7.506   6.792   2.162 -2.4042  1.2699  3.8308
  806MOL0     O 8676   6.015   3.386   4.695 -0.4139 -0.2153  0.3113
  806MOL0     C 8677   6.100   3.418   4.615  0.2660  0.3859  0.4011
  806MOL0     O 8678   6.075   3.473   4.495 -0.0588 -0.3282  0.5092
  806MOL0     C 8679   5.947   3.505   4.446  0.4374  0.4274 -0.8659
  806MOL0     C 8680   5.825   3.443   4.490 -0.9931  0.5884  0.9313
  806MOL0     C 8681   5.694   3.488   4.436  0.2357 -0.3539 -0.9652
  806MOL0     C 8682   5.693   3.601   4.357  0.5175  0.5492  0.4270
  806MOL0     O 8683   5.575   3.643   4.299 -0.6023 -0.2561  0.2624
  806MOL0     C 8684   5.582   3.725   4.182  0.6713  0.8778 -0.5376
  806MOL0     C 8685   5.455   3.719   4.097 -0.9651 -0.4160 -0.4446
  806MOL0     C 8686   5.326   3.715   4.173 -0.7115  0.3044 -0.1101
  806MOL0     C 8687   5.305   3.832   4.272 -0.5393 -0.1107  0.6663
  806MOL0     C 8688   5.153   3.841   4.300  0.1808  0.2305  0.7233
  806MOL0     C 8689   5.134   3.959   4.391  0.8950 -0.2824  0.2722
  806MOL0     C 8690   4.979   3.975   4.425  0.8059 -0.9364  0.1340
  806MOL0     C 8691   4.957   4.062   4.550 -0.6266  0.5347  0.2366
  806MOL0     N 8692   4.816   4.094   4.581  0.2382  1.0022 -0.1181
  806MOL0     C 8693   4.743   4.028   4.678  0.1052  0.0442  1.2951
  806MOL0     C 8694   4.641   4.112   4.707 -0.6342  0.5404 -0.1593
  806MOL0     C 8695   4.548   4.088   4.810 -0.2730  0.8187 -0.6469
  806MOL0     C 8696   4.594   4.112   4.951 -0.0458 -0.0276  0.0133
  806MOL0     C 8697   4.488   4.101   5.053 -0.3559 -0.1828 -0.2725
  806MOL0     C 8698   4.373   4.201   5.041 -0.5162  0.2715 -0.4638
  806MOL0     O 8699   4.317   4.211   5.169  0.5807 -0.0967 -0.3327
  806MOL0     C 8700   4.178   4.219   5.194  0.7375  0.4327 -0.5713
  806MOL0     C 8701   4.130   4.188   5.328 -0.6841 -0.1067  0.3180
  806MOL0     C 8702   3.991   4.205   5.360  0.3661  0.1115  0.0444
  806MOL0     C 8703   3.945   4.175   5.498 -0.3811 -0.3566 -0.6226
  806MOL0     C 8704   3.897   4.243   5.256  0.0977  0.6685 -0.0800
  806MOL0     C 8705   3.748   4.264   5.269 -1.2461  0.2231  0.4044
  806MOL0     O 8706   3.694   4.255   5.396  0.0738  0.1189 -0.5145
  806MOL0     C 8707   3.557   4.282   5.410  0.7160  0.7116  0.5245
  806MOL0     C 8708   3.463   4.183   5.393  0.7448  0.3553  0.4437
  806MOL0     C 8709   3.328   4.212   5.405 -0.6539 -0.2555  0.0210
  806MOL0     C 8710   3.290   4.343   5.446  0.0570  0.7611 -0.5867
  806MOL0     O 8711   3.160   4.364   5.487  0.6455  0.1575 -0.3476
  806MOL0     C 8712   3.063   4.382   5.378 -0.0480  0.7659 -0.0764
  806MOL0     C 8713   2.925   4.426   5.431  0.1387 -0.3241 -0.1264
  806MOL0     C 8714   2.834   4.449   5.308 -0.0231 -0.0878 -0.3957
  806MOL0     C 8715   2.692   4.457   5.373 -0.9012 -0.6948 -0.1648
  806MOL0     C 8716   2.595   4.476   5.252 -0.5968 -0.4664 -0.1506
  806MOL0     C 8717   2.448   4.467   5.299  0.4494  0.0487 -0.3146
  806MOL0     C 8718   2.355   4.470   5.182 -0.2247 -0.2739  0.5830
  806MOL0     C 8719   2.203   4.472   5.224 -0.3390 -0.1892 -0.2465
  806MOL0    Cl 8720   2.169   4.594   5.347 -0.2452 -0.1547 -0.2025
  806MOL0     C 8721   3.383   4.449   5.456 -0.5331 -0.3437  0.0174
  806MOL0     C 8722   3.517   4.412   5.432  1.0479 -0.8909 -0.3830
  806MOL0     O 8723   3.689   4.301   5.169  1.3553  0.2782  0.1435
  806MOL0     C 8724   3.949   4.261   5.126 -0.1808 -0.2768  0.0845
  806MOL0     C 8725   4.089   4.266   5.102 -0.0240  0.3013 -0.4287
  806MOL0     N 8726   4.650   4.220   4.620  0.3040  0.2222  1.1189
  806MOL0     N 8727   4.747   4.205   4.545 -0.4306  0.2364  0.0064
  806MOL0     C 8728   5.813   3.668   4.332  0.3442  0.5811 -0.5554
  806MOL0     C 8729   5.938   3.621   4.373 -0.4238 -0.5379  0.1765
  806MOL0     C 8730   6.240   3.394   4.654  0.2625  0.3478 -0.8263
  806MOL0     C 8731   6.342   3.398   4.559 -0.4506 -0.4142 -0.4022
  806MOL0     C 8732   6.475   3.354   4.596 -0.1151 -0.0674  0.4811
  806MOL0     C 8733   6.505   3.323   4.725  0.6702  0.1097 -0.1379
  806MOL0     O 8734   6.625   3.268   4.751  0.1423 -0.0172  0.4009
  806MOL0     C 8735   6.716   3.364   4.812  0.3190  0.6595  0.3538
  806MOL0     C 8736   6.846   3.299   4.847  0.2267  0.1136 -0.1672
  806MOL0     C 8737   6.940   3.403   4.899  0.3994 -0.0262  0.5470
  806MOL0     C 8738   7.085   3.343   4.916  0.1138 -1.0533  0.2414
  806MOL0     C 8739   7.171   3.436   4.980 -0.4852  0.7091 -0.0924
  806MOL0     C 8740   7.255   3.499   5.044 -0.4977  0.0455  0.3772
  806MOL0     C 8741   6.409   3.339   4.822  0.4093  0.6542 -0.0286
  806MOL0     C 8742   6.276   3.374   4.792 -0.7729 -0.1360 -0.2441
  806MOL0     H 8743   5.827   3.347   4.540 -0.6439 -0.3352 -0.7881
  806MOL0     H 8744   5.598   3.442   4.457 -0.1029  1.4717  1.8786
  806MOL0     H 8745   5.593   3.829   4.213  1.7572  0.8250 -0.7100
  806MOL0     H 8746   5.664   3.697   4.115  0.2998 -1.0611 -0.2271
  806MOL0     H 8747   5.461   3.798   4.022  0.6164 -0.8421 -0.8054
  806MOL0     H 8748   5.459   3.624   4.042  2.7433  0.4946 -2.0256
  806MOL0     H 8749   5.244   3.709   4.101 -0.8150 -3.8048  0.1379
  806MOL0     H 8750   5.322   3.620   4.227  0.5486  0.5984  0.5511
  806MOL0     H 8751   5.361   3.809   4.362  0.4055 -0.6997 -0.0526
  806MOL0     H 8752   5.338   3.929   4.232  0.5110 -0.8151 -0.2270
  806MOL0     H 8753   5.101   3.851   4.204  0.4815 -0.4912  0.4737
  806MOL0     H 8754   5.116   3.750   4.346 -2.1699  0.9150  0.3096
  806MOL0     H 8755   5.175   3.935   4.490 -0.2011 -0.9864  0.5859
  806MOL0     H 8756   5.170   4.060   4.371 -1.6353  0.8856  1.1397
  806MOL0     H 8757   4.911   4.003   4.344  1.1444 -0.0723  0.1329
  806MOL0     H 8758   4.938   3.878   4.452  0.0287 -0.2187  1.6392
  806MOL0     H 8759   5.016   4.153   4.535 -2.7155  1.8659 -0.2237
  806MOL0     H 8760   4.999   4.012   4.637 -0.4059 -1.7535 -1.0890
  806MOL0     H 8761   4.766   3.931   4.722 -0.9712 -0.2633  1.2091
  806MOL0     H 8762   4.460   4.152   4.797  0.2892  1.6525 -0.4431
  806MOL0     H 8763   4.509   3.986   4.806  4.2293 -1.3925  2.6611
  806MOL0     H 8764   4.640   4.211   4.961  1.1126 -0.6273  0.8668
  806MOL0     H 8765   4.670   4.045   4.992  1.4129  2.0517  0.9082
  806MOL0     H 8766   4.531   4.123   5.151  1.5477 -2.8537 -0.4104
  806MOL0     H 8767   4.450   3.999   5.047 -0.0092 -0.2849 -0.6771
  806MOL0     H 8768   4.299   4.166   4.969 -1.6738  0.0827  0.7816
  806MOL0     H 8769   4.412   4.296   5.004 -3.6409  1.5862 -0.6431
  806MOL0     H 8770   4.191   4.146   5.408 -2.4241 -1.2481  1.1118
  806MOL0     H 8771   3.871   4.096   5.516  0.4405 -0.6982  1.5526
  806MOL0     H 8772   4.025   4.146   5.566 -0.9761  0.3448  0.4038
  806MOL0     H 8773   3.905   4.269   5.538  1.4127  0.1695  0.0046
  806MOL0     H 8774   3.486   4.078   5.375 -0.5870  0.3863 -1.9182
  806MOL0     H 8775   3.260   4.128   5.396 -2.0705  0.9672 -1.3570
  806MOL0     H 8776   3.096   4.450   5.299  1.8961 -3.0051 -2.8608
  806MOL0     H 8777   3.054   4.283   5.332  0.0271  0.0302  1.4332
  806MOL0     H 8778   2.884   4.351   5.498  3.6189 -0.5605  1.9974
  806MOL0     H 8779   2.927   4.529   5.468 -3.0755 -0.0526 -0.4265
  806MOL0     H 8780   2.832   4.366   5.237  2.1151  0.5931 -1.3376
  806MOL0     H 8781   2.852   4.543   5.254  0.7222  0.5648  0.9156
  806MOL0     H 8782   2.666   4.367   5.430  3.4129 -0.8977  1.8544
  806MOL0     H 8783   2.685   4.548   5.432 -1.2570 -0.9810  0.2344
  806MOL0     H 8784   2.600   4.390   5.184 -1.8178 -0.6172 -0.0720
  806MOL0     H 8785   2.612   4.572   5.202 -0.5566  0.1518  1.0149
  806MOL0     H 8786   2.431   4.372   5.352  0.4227  0.4352  0.3779
  806MOL0     H 8787   2.422   4.557   5.355  0.4362  1.8919 -3.0749
  806MOL0     H 8788   2.371   4.391   5.108 -2.8191 -0.4986  0.1477
  806MOL0     H 8789   2.367   4.563   5.125 -0.6864  0.4299  1.5980
  806MOL0     H 8790   2.185   4.373   5.267  0.5011  0.9789  3.1431
  806MOL0     H 8791   2.145   4.495   5.134  0.3640 -0.0568 -0.6719
  806MOL0     H 8792   3.350   4.540   5.504 -0.9901 -1.9874  3.1212
  806MOL0     H 8793   3.604   4.472   5.454  0.2412 -0.6558  2.4944
  806MOL0     H 8794   3.878   4.308   5.059 -1.0240  1.0173  1.7888
  806MOL0     H 8795   4.123   4.292   5.003  0.6935 -0.3835 -0.3725
  806MOL0     H 8796   5.823   3.760   4.274  3.0595 -0.0160 -1.2036
  806MOL0     H 8797   6.016   3.691   4.345 -1.7372  1.0676  0.4125
  806MOL0     H 8798   6.319   3.416   4.454  0.6244 -0.1575 -0.6018
  806MOL0     H 8799   6.557   3.341   4.526 -1.0344  2.1593 -1.1378
  806MOL0     H 8800   6.720   3.445   4.739 -1.3233 -1.1221 -1.8459
  806MOL0     H 8801   6.664   3.389   4.906 -2.7667 -0.4427 -0.9353
  806MOL0     H 8802   6.893   3.254   4.760  0.4827  0.5557 -0.2597
  806MOL0     H 8803   6.834   3.221   4.923  1.5395 -1.6050 -1.6398
  806MOL0     H 8804   6.898   3.431   4.996  1.2565 -1.4121  1.3482
  806MOL0     H 8805   6.925   3.486   4.829 -1.7383  0.7414  1.8186
  806MOL0     H 8806   7.128   3.306   4.822 -1.9831 -2.2317 -0.3149
  806MOL0     H 8807   7.081   3.251   4.974  0.4129  0.8016  3.4175
  806MOL0     H 8808   7.339   3.549   5.086  0.8539  0.1250 -2.1912
  806MOL0     H 8809   6.434   3.307   4.923 -2.0681 -4.2474 -0.6078
  806MOL0     H 8810   6.198   3.383   4.866 -0.4609 -0.6528  0.1552
  807MOL0     O 8811   5.742   8.185   6.879  0.1496  0.2921 -0.4638
  807MOL0     C 8812   5.793   8.083   6.932 -0.6506 -0.0741 -0.1229
  807MOL0     O 8813   5.733   7.973   6.984  0.1585  0.2636 -0.3812
  807MOL0     C 8814   5.603   7.991   7.027  0.6029 -0.2458 -0.3101
  807MOL0     C 8815   5.567   8.086   7.125  0.1118 -0.7106 -1.2455
  807MOL0     C 8816   5.438   8.081   7.181 -0.3625  0.7692  0.3686
  807MOL0     C 8817   5.343   7.993   7.124 -0.4961 -0.3973 -0.4275
  807MOL0     O 8818   5.216   8.002   7.177  0.1867 -0.2766 -0.5991
  807MOL0     C 8819   5.177   8.074   7.301  0.3043  0.6128 -0.1409
  807MOL0     C 8820   5.059   7.989   7.353 -0.0339 -0.5198 -0.4595
  807MOL0     C 8821   4.943   7.962   7.255  0.8630  0.0676 -0.1441
  807MOL0     C 8822   4.841   7.883   7.339  1.0834 -0.4515 -0.7025
  807MOL0     C 8823   4.739   7.822   7.239 -0.0460 -0.1079  0.1740
  807MOL0     C 8824   4.628   7.735   7.309 -0.4017 -0.5709 -0.5302
  807MOL0     C 8825   4.540   7.651   7.212  0.0255 -0.0169  0.6267
  807MOL0     C 8826   4.600   7.516   7.195  0.0794 -0.1580  0.9775
  807MOL0     N 8827   4.514   7.412   7.251 -0.6640 -0.4978  0.1435
  807MOL0     C 8828   4.514   7.384   7.384  0.9341  0.2936  0.6426
  807MOL0     C 8829   4.416   7.295   7.399  0.6976 -0.1820 -0.0566
  807MOL0     C 8830   4.367   7.219   7.524  0.1234  0.1055  0.2209
  807MOL0     C 8831   4.214   7.235   7.551 -0.3486 -1.1766 -0.3043
  807MOL0     C 8832   4.184   7.385   7.576  0.1969 -0.0410 -0.1378
  807MOL0     C 8833   4.048   7.400   7.646  0.3253 -0.8093 -0.6419
  807MOL0     O 8834   3.944   7.336   7.557 -0.7243 -1.0455 -0.2808
  807MOL0     C 8835   3.813   7.350   7.600 -0.7505  0.6954  0.1604
  807MOL0     C 8836   3.718   7.309   7.507 -0.0927 -0.5613 -0.1463
  807MOL0     C 8837   3.592   7.294   7.546  0.9385 -0.3791 -0.1395
  807MOL0     C 8838   3.505   7.252   7.439  0.3140  1.3386  0.9948
  807MOL0     C 8839   3.551   7.318   7.680  0.6094  0.7127 -0.1863
  807MOL0     C 8840   3.419   7.297   7.740  0.7616 -0.6875 -0.7998
  807MOL0     O 8841   3.320   7.266   7.653  0.4985  0.5466 -0.4081
  807MOL0     C 8842   3.183   7.255   7.694 -0.5829  0.6770  0.3401
  807MOL0     C 8843   3.147   7.143   7.769  0.4457 -0.1772  0.5841
  807MOL0     C 8844   3.012   7.129   7.816 -1.1596  0.1929 -0.0646
  807MOL0     C 8845   2.924   7.229   7.790 -0.2537 -0.0321 -0.8421
  807MOL0     O 8846   2.800   7.204   7.842  0.0595  0.0323 -1.1511
  807MOL0     C 8847   2.704   7.313   7.840  0.7445  0.4830 -0.0688
  807MOL0     C 8848   2.562   7.254   7.847  0.5981  1.4151 -1.4026
  807MOL0     C 8849   2.538   7.174   7.980  0.9291 -0.2170 -0.2109
  807MOL0     C 8850   2.398   7.093   7.985 -0.2592  0.4120 -0.1624
  807MOL0     C 8851   2.290   7.197   7.965  0.1691  0.0178 -0.5688
  807MOL0     C 8852   2.155   7.123   7.959  0.0633  0.4368 -0.5108
  807MOL0     C 8853   2.041   7.217   7.946  0.0943  0.0871  0.1899
  807MOL0     C 8854   1.910   7.148   7.997 -0.5347 -0.1231  0.4203
  807MOL0    Cl 8855   1.921   7.127   8.171 -0.0778  0.3522  0.2786
  807MOL0     C 8856   2.961   7.341   7.710  0.8109 -0.1905 -0.2585
  807MOL0     C 8857   3.090   7.349   7.661 -0.2568 -0.6171 -0.5234
  807MOL0     O 8858   3.410   7.318   7.862 -0.3213  0.0574 -0.1198
  807MOL0     C 8859   3.644   7.372   7.769 -0.3031  0.8793  0.0049
  807MOL0     C 8860   3.775   7.390   7.728  0.1606  0.3972 -0.4425
  807MOL0     N 8861   4.344   7.282   7.276 -0.6664  0.5220 -1.2926
  807MOL0     N 8862   4.394   7.360   7.195 -0.1367 -1.4270  0.2267
  807MOL0     C 8863   5.381   7.909   7.024 -0.5933 -0.2619  0.1412
  807MOL0     C 8864   5.507   7.905   6.967  0.5932 -0.6672  0.2764
  807MOL0     C 8865   5.944   8.085   6.954  0.5378 -0.3358 -0.2234
  807MOL0     C 8866   6.016   8.203   6.965 -0.1532  0.0641  0.1592
  807MOL0     C 8867   6.152   8.197   6.990 -0.4543  0.1783  0.1798
  807MOL0     C 8868   6.221   8.079   7.019  0.9469  0.2865  0.0776
  807MOL0     O 8869   6.354   8.084   7.051 -0.1431 -0.2265  0.2416
  807MOL0     C 8870   6.435   8.154   6.952 -1.3394 -0.7273 -0.3648
  807MOL0     C 8871   6.576   8.136   6.995 -0.7635 -0.1611 -0.7349
  807MOL0     C 8872   6.601   8.165   7.150 -0.1625 -0.6676  0.8606
  807MOL0     C 8873   6.739   8.228   7.167  0.4676  0.1836  0.2364
  807MOL0     C 8874   6.761   8.364   7.109  0.1238 -1.1847  0.5188
  807MOL0     C 8875   6.796   8.465   7.041  0.8000  0.2105 -0.0412
  807MOL0     C 8876   6.141   7.960   7.023  0.0773 -1.3465 -0.1385
  807MOL0     C 8877   6.006   7.962   6.980 -0.1011  0.6068  0.2086
  807MOL0     H 8878   5.646   8.142   7.174  1.3913 -1.1991 -2.6645
  807MOL0     H 8879   5.416   8.147   7.264  2.7596  0.8988  1.2131
  807MOL0     H 8880   5.248   8.068   7.384 -0.6092  0.1369  0.6382
  807MOL0     H 8881   5.144   8.178   7.294  2.5160  1.2860 -1.1734
  807MOL0     H 8882   5.101   7.892   7.381  0.3082 -0.4471 -0.7060
  807MOL0     H 8883   5.015   8.022   7.448  4.2848 -0.5169  1.7672
  807MOL0     H 8884   4.893   8.055   7.226 -1.0795 -1.1385 -0.8840
  807MOL0     H 8885   4.975   7.900   7.171  0.4746 -0.9004  0.4012
  807MOL0     H 8886   4.899   7.803   7.385  0.1765 -0.2122  0.9359
  807MOL0     H 8887   4.793   7.938   7.421  2.5375 -3.1917  2.1940
  807MOL0     H 8888   4.701   7.904   7.178  2.4277 -0.2624 -1.7379
  807MOL0     H 8889   4.811   7.770   7.175  1.0786  0.2474  1.1042
  807MOL0     H 8890   4.676   7.668   7.381  0.9116 -1.5241 -2.2186
  807MOL0     H 8891   4.568   7.806   7.366 -0.0998 -1.8940  1.5213
  807MOL0     H 8892   4.443   7.633   7.260  1.4714 -2.6474  2.8892
  807MOL0     H 8893   4.535   7.699   7.114 -0.1655  0.6298  0.9527
  807MOL0     H 8894   4.701   7.516   7.239  1.9478 -0.0931 -2.8822
  807MOL0     H 8895   4.611   7.503   7.087  1.2956 -0.6189  1.1421
  807MOL0     H 8896   4.592   7.401   7.457 -0.6409 -0.6181  2.6222
  807MOL0     H 8897   4.392   7.115   7.503  0.7837 -0.4408  3.2477
  807MOL0     H 8898   4.427   7.252   7.609 -0.9672 -0.5831  1.2883
  807MOL0     H 8899   4.199   7.170   7.637 -0.9897  2.3666  2.5168
  807MOL0     H 8900   4.158   7.201   7.463 -1.2258  2.0282 -1.1157
  807MOL0     H 8901   4.190   7.442   7.483 -0.7487  0.1826 -0.0656
  807MOL0     H 8902   4.255   7.417   7.653  0.0850 -1.5363  0.6286
  807MOL0     H 8903   4.033   7.508   7.654  1.6833 -0.4686 -2.1164
  807MOL0     H 8904   4.048   7.355   7.745 -0.9758  0.1454 -0.1808
  807MOL0     H 8905   3.762   7.289   7.410  1.0318  1.9566 -0.2214
  807MOL0     H 8906   3.459   7.156   7.463 -3.5498  3.3978  2.6515
  807MOL0     H 8907   3.416   7.316   7.431 -0.1722  0.6626  0.9342
  807MOL0     H 8908   3.561   7.252   7.345 -1.8635 -0.7125 -0.4258
  807MOL0     H 8909   3.220   7.064   7.777 -0.6253 -1.1717  0.8371
  807MOL0     H 8910   2.975   7.048   7.879  0.0502  1.6995  2.7681
  807MOL0     H 8911   2.706   7.381   7.926 -2.0801  0.9748 -0.3038
  807MOL0     H 8912   2.705   7.366   7.745  2.0956 -0.9629 -0.9157
  807MOL0     H 8913   2.502   7.345   7.846 -0.9429  0.4503 -2.0464
  807MOL0     H 8914   2.542   7.189   7.761  0.1398 -0.8247  0.3051
  807MOL0     H 8915   2.528   7.253   8.055 -0.3911 -1.0938  0.5763
  807MOL0     H 8916   2.619   7.102   7.995  1.3471  0.0102 -1.2614
  807MOL0     H 8917   2.398   7.025   7.900  2.9396  1.0914 -0.8186
  807MOL0     H 8918   2.379   7.042   8.080  0.8485 -0.0052 -0.1528
  807MOL0     H 8919   2.297   7.264   7.878 -1.4615  0.5674 -0.3152
  807MOL0     H 8920   2.300   7.260   8.054  0.8962 -1.1103  0.1645
  807MOL0     H 8921   2.156   7.057   7.872 -0.9414 -0.6066  0.2205
  807MOL0     H 8922   2.142   7.062   8.049  0.1918 -0.1707 -0.8981
  807MOL0     H 8923   2.030   7.246   7.842  1.8702 -3.5642 -1.1852
  807MOL0     H 8924   2.053   7.306   8.010  1.0369  0.0660  0.0602
  807MOL0     H 8925   1.884   7.057   7.942  0.2014  0.2680 -0.6163
  807MOL0     H 8926   1.828   7.209   7.958  0.9568 -0.0854 -3.0138
  807MOL0     H 8927   2.907   7.430   7.680  1.3982  0.0287 -0.6911
  807MOL0     H 8928   3.128   7.427   7.596  0.0472  0.2822  0.6964
  807MOL0     H 8929   3.620   7.402   7.870 -4.4764 -2.3371  0.2368
  807MOL0     H 8930   3.844   7.428   7.803  0.3316 -1.5193  0.4382
  807MOL0     H 8931   5.298   7.857   6.978  0.2514 -0.0905 -1.6561
  807MOL0     H 8932   5.535   7.833   6.891  0.2134 -1.8104  1.1972
  807MOL0     H 8933   5.974   8.303   6.971  2.0240  1.1873 -1.6595
  807MOL0     H 8934   6.205   8.292   6.995  0.3259 -0.2818  0.8839
  807MOL0     H 8935   6.421   8.130   6.846  0.1107  1.0621 -1.0152
  807MOL0     H 8936   6.411   8.261   6.953 -0.3106 -0.4147 -2.6216
  807MOL0     H 8937   6.635   8.209   6.939  0.6793  0.2810  1.2842
  807MOL0     H 8938   6.597   8.033   6.965  0.0460  0.0084 -0.7766
  807MOL0     H 8939   6.602   8.065   7.192  0.9316 -1.0450 -0.0147
  807MOL0     H 8940   6.530   8.230   7.203  1.8355  2.1678  0.3004
  807MOL0     H 8941   6.812   8.153   7.137 -1.1881 -3.3319  4.0006
  807MOL0     H 8942   6.754   8.252   7.273 -0.1829 -4.4134  1.5652
  807MOL0     H 8943   6.831   8.546   6.980  1.0353 -2.0081 -3.0709
  807MOL0     H 8944   6.188   7.866   7.052  2.0033 -0.4041 -0.0737
  807MOL0     H 8945   5.950   7.870   6.962 -1.6322  1.2855  1.2673
  808MOL0     O 8946   1.315   0.392   3.254 -0.3664  0.2355  0.0111
  808MOL0     C 8947   1.379   0.418   3.354 -0.7783 -1.3595 -0.2912
  808MOL0     O 8948   1.337   0.492   3.454  0.7360 -0.9000 -0.4266
  808MOL0     C 8949   1.204   0.502   3.489 -0.2697  0.3971  1.0991
  808MOL0     C 8950   1.111   0.400   3.473  0.1464  0.8970 -0.9000
  808MOL0     C 8951   0.979   0.405   3.519  0.0759 -0.6172 -0.5602
  808MOL0     C 8952   0.922   0.523   3.569  0.1658  0.8137 -0.3170
  808MOL0     O 8953   0.784   0.534   3.601 -0.2344  0.7832  1.2922
  808MOL0     C 8954   0.748   0.634   3.687  1.1490 -0.5960  0.0305
  808MOL0     C 8955   0.595   0.636   3.712 -0.2446  0.2580  0.1188
  808MOL0     C 8956   0.552   0.764   3.779  0.7441 -1.2284  0.8518
  808MOL0     C 8957   0.397   0.793   3.771 -0.6081 -0.3538 -0.6394
  808MOL0     C 8958   0.366   0.908   3.870  0.0366  0.2766  0.1374
  808MOL0     C 8959   0.221   0.962   3.850  0.4346 -0.4753 -0.4218
  808MOL0     C 8960   0.193   1.082   3.943 -0.7186 -0.3955  0.0857
  808MOL0     C 8961   0.055   1.145   3.931 -1.0315  0.5639 -0.3409
  808MOL0     N 8962  -0.051   1.043   3.955  0.0287  0.2103 -0.0012
  808MOL0     C 8963  -0.078   0.961   4.070 -1.1888  0.2007  0.3531
  808MOL0     C 8964  -0.196   0.901   4.046 -0.4182  0.6389 -0.7353
  808MOL0     C 8965  -0.261   0.815   4.146  0.4410  0.3445 -0.6516
  808MOL0     C 8966  -0.317   0.685   4.092 -1.1559  0.2252 -0.6948
  808MOL0     C 8967  -0.411   0.688   3.974  0.2429 -0.0878  0.2934
  808MOL0     C 8968  -0.560   0.666   4.004  0.9101 -0.2337  0.4170
  808MOL0     O 8969  -0.640   0.777   4.045  0.3784 -0.4936 -0.0393
  808MOL0     C 8970  -0.762   0.745   4.098 -0.2683 -0.2384  0.3423
  808MOL0     C 8971  -0.771   0.693   4.224 -0.1656  0.3600  0.4924
  808MOL0     C 8972  -0.897   0.648   4.266 -0.0096 -0.4399 -0.2491
  808MOL0     C 8973  -0.889   0.571   4.389  0.2754 -1.3084  0.2572
  808MOL0     C 8974  -1.010   0.680   4.192 -0.8798 -1.1533  0.9491
  808MOL0     C 8975  -1.146   0.670   4.251 -0.6803 -0.0058 -0.0964
  808MOL0     O 8976  -1.244   0.658   4.167 -0.2624 -0.2915 -0.3965
  808MOL0     C 8977  -1.381   0.646   4.187 -0.1192 -0.4076 -0.1197
  808MOL0     C 8978  -1.432   0.535   4.254  0.5716 -0.2797 -0.0211
  808MOL0     C 8979  -1.568   0.531   4.293 -0.3144 -0.1672  0.8424
  808MOL0     C 8980  -1.652   0.644   4.274 -0.4505  0.1692 -0.1713
  808MOL0     O 8981  -1.781   0.653   4.320 -0.2746 -0.4904 -0.2674
  808MOL0     C 8982  -1.882   0.567   4.270 -0.6122 -0.4778  0.5599
  808MOL0     C 8983  -1.978   0.663   4.200  0.6367 -0.5928 -0.5449
  808MOL0     C 8984  -2.065   0.746   4.303  0.0408 -0.4892 -0.4454
  808MOL0     C 8985  -2.170   0.665   4.376 -0.9898  0.0005  0.4000
  808MOL0     C 8986  -2.278   0.602   4.285 -0.1724 -0.0232 -0.6490
  808MOL0     C 8987  -2.380   0.696   4.227  0.2270  0.1608 -0.0311
  808MOL0     C 8988  -2.502   0.605   4.197  1.2069  0.6918  0.1990
  808MOL0     C 8989  -2.601   0.678   4.118  0.4347  0.3268  0.3813
  808MOL0    Cl 8990  -2.658   0.829   4.208 -0.2720 -0.2702  0.2499
  808MOL0     C 8991  -1.602   0.756   4.219  1.3505 -0.3612  0.1149
  808MOL0     C 8992  -1.473   0.754   4.168  0.5279 -0.3918  0.7710
  808MOL0     O 8993  -1.154   0.680   4.372 -0.5080  0.6089 -0.1188
  808MOL0     C 8994  -1.005   0.740   4.065  0.2925 -0.1669  0.8295
  808MOL0     C 8995  -0.879   0.771   4.022 -0.3206 -0.4740  0.3011
  808MOL0     N 8996  -0.234   0.937   3.921  0.1617 -0.7635  0.2221
  808MOL0     N 8997  -0.150   1.017   3.872 -0.1260  0.3885  0.7069
  808MOL0     C 8998   1.019   0.621   3.594 -0.5306 -0.3602  0.8281
  808MOL0     C 8999   1.147   0.616   3.547 -0.1262 -0.8540  0.2698
  808MOL0     C 9000   1.502   0.335   3.371  0.2594  0.7477  0.2998
  808MOL0     C 9001   1.565   0.327   3.493  0.0151  0.4653  0.1054
  808MOL0     C 9002   1.673   0.238   3.510 -0.3191  0.3283  0.5087
  808MOL0     C 9003   1.720   0.147   3.416 -0.3336  0.3576 -0.8732
  808MOL0     O 9004   1.827   0.058   3.453 -0.4937 -0.5490  0.1705
  808MOL0     C 9005   1.904   0.011   3.336  1.4811 -0.4829  0.2961
  808MOL0     C 9006   2.031  -0.052   3.387  1.0537  0.0249  0.0584
  808MOL0     C 9007   2.000  -0.206   3.415  0.6250 -0.7499 -0.1133
  808MOL0     C 9008   2.125  -0.285   3.439  0.3567  1.1416  0.0565
  808MOL0     C 9009   2.105  -0.426   3.473 -1.1655 -0.6825  0.4814
  808MOL0     C 9010   2.087  -0.545   3.506 -0.1206 -0.9052  0.5280
  808MOL0     C 9011   1.657   0.153   3.295 -0.9834 -0.1183 -0.7414
  808MOL0     C 9012   1.550   0.240   3.278  0.2463 -0.9815  0.9576
  808MOL0     H 9013   1.143   0.304   3.435  0.1310  0.4832  0.0855
  808MOL0     H 9014   0.917   0.317   3.508 -0.6653 -0.3403  1.1703
  808MOL0     H 9015   0.795   0.617   3.784 -0.7917  1.6554  1.4700
  808MOL0     H 9016   0.765   0.730   3.638  0.0038 -0.9032 -1.0289
  808MOL0     H 9017   0.536   0.622   3.621  0.7823  0.3837 -0.5886
  808MOL0     H 9018   0.563   0.550   3.771  3.7816  0.0620  2.4178
  808MOL0     H 9019   0.584   0.753   3.883  0.2412 -1.9701  0.9306
  808MOL0     H 9020   0.594   0.851   3.727 -3.0923 -0.9266 -2.2462
  808MOL0     H 9021   0.386   0.820   3.665 -1.5402  0.5967 -0.3194
  808MOL0     H 9022   0.331   0.708   3.792 -0.4995 -0.4018 -0.4912
  808MOL0     H 9023   0.377   0.879   3.974 -0.5376  3.0408  1.0615
  808MOL0     H 9024   0.433   0.992   3.852 -1.3398  0.9281 -2.5511
  808MOL0     H 9025   0.201   1.010   3.753  0.0479  4.2774  1.7412
  808MOL0     H 9026   0.146   0.885   3.870  1.4073 -0.9462  1.5757
  808MOL0     H 9027   0.202   1.044   4.045  1.3431  0.6038  0.3167
  808MOL0     H 9028   0.269   1.160   3.931  1.7038 -2.7938 -1.2273
  808MOL0     H 9029   0.036   1.182   3.830 -1.2177 -1.6154 -1.1428
  808MOL0     H 9030   0.051   1.227   4.004 -0.1675  2.2618 -2.1006
  808MOL0     H 9031  -0.015   0.952   4.158 -1.1300  0.2484  0.3152
  808MOL0     H 9032  -0.193   0.790   4.228 -0.7286  2.8678  1.2204
  808MOL0     H 9033  -0.345   0.871   4.188  0.1325 -0.3713 -0.2993
  808MOL0     H 9034  -0.363   0.629   4.173  1.3888  1.8364  2.0513
  808MOL0     H 9035  -0.228   0.624   4.073  0.2392  1.4358  1.5330
  808MOL0     H 9036  -0.384   0.609   3.903  1.5290 -3.2985  4.0067
  808MOL0     H 9037  -0.414   0.789   3.931 -1.1552 -0.6885 -1.1223
  808MOL0     H 9038  -0.589   0.576   4.060 -1.6696 -0.7861 -1.5620
  808MOL0     H 9039  -0.620   0.648   3.914  0.1807  2.0826  0.3847
  808MOL0     H 9040  -0.676   0.679   4.274  0.4593  0.3434 -0.6728
  808MOL0     H 9041  -0.790   0.526   4.403  1.1850  0.2684 -0.7719
  808MOL0     H 9042  -0.913   0.635   4.474  1.9184  0.8459 -0.8111
  808MOL0     H 9043  -0.964   0.492   4.382  0.0379 -0.9623 -1.8747
  808MOL0     H 9044  -1.374   0.443   4.260  1.8096  0.5792  3.8317
  808MOL0     H 9045  -1.600   0.434   4.328  1.1139  0.3238  3.8139
  808MOL0     H 9046  -1.840   0.498   4.196 -2.3186  1.1030 -2.0343
  808MOL0     H 9047  -1.945   0.508   4.337  0.1464  0.0264  1.7682
  808MOL0     H 9048  -1.918   0.736   4.145  0.8804  0.6580  1.3127
  808MOL0     H 9049  -2.043   0.622   4.122 -1.4716 -0.2843  0.9827
  808MOL0     H 9050  -2.121   0.833   4.267 -2.0823 -1.9419 -0.8586
  808MOL0     H 9051  -1.990   0.783   4.373  1.7891 -1.2151 -1.8871
  808MOL0     H 9052  -2.116   0.581   4.420 -1.1968 -0.3463 -0.0055
  808MOL0     H 9053  -2.213   0.723   4.459  0.8975  1.5563  0.3399
  808MOL0     H 9054  -2.326   0.529   4.352  0.2130  1.3039  1.1506
  808MOL0     H 9055  -2.225   0.539   4.214 -1.2669 -0.2669 -1.2733
  808MOL0     H 9056  -2.402   0.780   4.294 -1.7674  1.4503 -2.1535
  808MOL0     H 9057  -2.338   0.746   4.140  0.4191  0.1373  0.0468
  808MOL0     H 9058  -2.548   0.573   4.291 -2.6978 -1.0416 -2.0620
  808MOL0     H 9059  -2.476   0.514   4.143 -1.2416  0.5326 -0.8352
  808MOL0     H 9060  -2.687   0.617   4.089  0.2776  1.6732 -2.2523
  808MOL0     H 9061  -2.556   0.707   4.023 -1.1123  0.0599 -0.4642
  808MOL0     H 9062  -1.663   0.846   4.218  1.3129 -0.2184 -4.3358
  808MOL0     H 9063  -1.427   0.842   4.123 -2.0905  1.1222  0.8338
  808MOL0     H 9064  -1.089   0.779   4.008 -0.3228  1.1922  2.5821
  808MOL0     H 9065  -0.859   0.807   3.922 -1.7674 -0.4487  0.0028
  808MOL0     H 9066   0.993   0.718   3.635  1.8527  0.1726  1.1930
  808MOL0     H 9067   1.199   0.711   3.554 -2.5653  0.5331  0.8721
  808MOL0     H 9068   1.527   0.377   3.581 -2.2066 -1.7823  0.5238
  808MOL0     H 9069   1.716   0.226   3.609 -1.9263  1.7705  1.4422
  808MOL0     H 9070   1.842  -0.062   3.283 -0.9645  1.2808  0.5937
  808MOL0     H 9071   1.935   0.087   3.263 -1.4647  0.5163 -0.0347
  808MOL0     H 9072   2.068   0.005   3.473 -2.0782 -1.0123  2.3033
  808MOL0     H 9073   2.107  -0.047   3.309  0.1535  2.8628 -0.7712
  808MOL0     H 9074   1.948  -0.252   3.331  0.2122  1.2075 -0.9881
  808MOL0     H 9075   1.930  -0.210   3.499 -2.7245 -1.8349 -2.7225
  808MOL0     H 9076   2.167  -0.237   3.528 -2.0291  0.6157  1.5512
  808MOL0     H 9077   2.200  -0.279   3.359 -0.1989 -2.3345 -0.8749
  808MOL0     H 9078   2.085  -0.647   3.537 -0.1263 -0.3433  2.4758
  808MOL0     H 9079   1.673   0.073   3.224  0.3124  1.2732 -2.0927
  808MOL0     H 9080   1.501   0.236   3.182  1.3652  1.5196  0.2235
  809MOL0     O 9081  10.173   3.124   5.420 -0.8808 -1.0290 -0.4143
  809MOL0     C 9082  10.240   3.183   5.508 -0.5957  0.3153  0.1341
  809MOL0     O 9083  10.199   3.298   5.563  1.3486 -1.2722 -0.6083
  809MOL0     C 9084  10.064   3.313   5.575  0.1171  0.7835 -1.0255
  809MOL0     C 9085  10.024   3.451   5.600 -0.4033  0.4369 -0.7810
  809MOL0     C 9086   9.894   3.485   5.623  0.2443 -0.0491 -0.0572
  809MOL0     C 9087   9.791   3.392   5.624 -0.0486 -0.1241  0.3718
  809MOL0     O 9088   9.663   3.428   5.653  0.4446  0.0306 -0.5502
  809MOL0     C 9089   9.589   3.492   5.540 -0.0720 -0.6024 -0.1143
  809MOL0     C 9090   9.439   3.491   5.586 -0.3977 -0.1641  0.5110
  809MOL0     C 9091   9.342   3.567   5.494 -0.7368 -0.9540 -0.8105
  809MOL0     C 9092   9.340   3.513   5.348  1.1690  0.1776  0.0208
  809MOL0     C 9093   9.218   3.573   5.274 -0.1673 -0.4534  0.3451
  809MOL0     C 9094   9.223   3.565   5.109  0.7055 -0.7163  0.3967
  809MOL0     C 9095   9.321   3.675   5.058 -0.6377 -0.4728 -0.0001
  809MOL0     C 9096   9.307   3.680   4.905 -0.0907  0.2419 -0.0897
  809MOL0     N 9097   9.170   3.732   4.875  0.0159 -0.2189  0.2195
  809MOL0     C 9098   9.062   3.681   4.806 -0.4784 -0.2980 -0.2726
  809MOL0     C 9099   8.982   3.792   4.787 -1.0951  0.2280  0.4523
  809MOL0     C 9100   8.847   3.804   4.730 -0.2421  0.2556 -0.0645
  809MOL0     C 9101   8.742   3.846   4.832  0.2792  0.5822 -0.3320
  809MOL0     C 9102   8.595   3.823   4.792  0.4660  1.3970 -0.2599
  809MOL0     C 9103   8.502   3.886   4.889 -0.7469 -0.2353  0.0785
  809MOL0     O 9104   8.360   3.858   4.867  0.0072 -0.0577 -0.2617
  809MOL0     C 9105   8.291   3.946   4.787 -0.2615 -0.2854 -1.1860
  809MOL0     C 9106   8.327   4.073   4.765  0.2547 -0.1807 -0.6064
  809MOL0     C 9107   8.260   4.161   4.680 -0.3524  0.4257  0.4688
  809MOL0     C 9108   8.312   4.307   4.669  0.9943  0.3020 -0.6569
  809MOL0     C 9109   8.147   4.118   4.604 -0.7104  1.2495  0.0818
  809MOL0     C 9110   8.076   4.207   4.505  0.9157  0.4523  0.5605
  809MOL0     O 9111   7.944   4.209   4.524  0.0020  1.0800 -0.5153
  809MOL0     C 9112   7.849   4.257   4.439 -0.7663  0.2338  0.0160
  809MOL0     C 9113   7.733   4.321   4.487 -0.5161 -0.1118  0.0506
  809MOL0     C 9114   7.646   4.379   4.394  0.5280 -0.5300 -0.4611
  809MOL0     C 9115   7.673   4.387   4.252  0.1029  0.0142 -0.0089
  809MOL0     O 9116   7.579   4.437   4.165 -0.0570  0.1963  0.6509
  809MOL0     C 9117   7.548   4.576   4.191 -0.1606  0.1104 -0.3093
  809MOL0     C 9118   7.457   4.632   4.077 -0.2017 -0.4271  0.8721
  809MOL0     C 9119   7.542   4.639   3.949  0.0572 -0.2898 -0.2315
  809MOL0     C 9120   7.655   4.740   3.945  0.6678  0.3464  0.7282
  809MOL0     C 9121   7.719   4.725   3.805 -0.7060 -0.3729  0.3436
  809MOL0     C 9122   7.781   4.860   3.771  0.3448 -0.6694 -0.6673
  809MOL0     C 9123   7.879   4.868   3.656  0.1400  0.6161 -0.6191
  809MOL0     C 9124   7.817   4.814   3.527  0.4731 -0.1414  0.1540
  809MOL0    Cl 9125   7.858   4.639   3.514  0.1972  0.2768  0.2109
  809MOL0     C 9126   7.792   4.329   4.215 -0.0196 -0.2006  0.2010
  809MOL0     C 9127   7.877   4.270   4.307  0.1539  0.7514  0.6098
  809MOL0     O 9128   8.141   4.264   4.418 -0.3515 -0.1556  0.1076
  809MOL0     C 9129   8.113   3.982   4.624  0.0221  0.0138 -0.0405
  809MOL0     C 9130   8.184   3.899   4.717  0.2418 -0.5645  0.7237
  809MOL0     N 9131   9.044   3.900   4.833  0.0004  0.2205  0.8896
  809MOL0     N 9132   9.160   3.867   4.884 -0.0184  0.1730  1.5441
  809MOL0     C 9133   9.816   3.257   5.602  0.0614  0.1311 -0.6361
  809MOL0     C 9134   9.956   3.216   5.578  1.0809 -0.3195  0.3419
  809MOL0     C 9135  10.375   3.131   5.536 -0.2383 -0.4721 -1.2306
  809MOL0     C 9136  10.430   3.019   5.464  0.4319 -0.3594 -0.1820
  809MOL0     C 9137  10.558   2.982   5.492 -0.4451 -0.5463  0.4439
  809MOL0     C 9138  10.640   3.048   5.585 -0.1433 -0.0597  0.3660
  809MOL0     O 9139  10.771   3.022   5.623 -0.3989 -0.6632  0.4446
  809MOL0     C 9140  10.837   2.923   5.546 -0.3492 -0.6045 -0.5091
  809MOL0     C 9141  10.983   2.935   5.586 -0.3296 -0.0938  0.4875
  809MOL0     C 9142  11.002   2.873   5.730 -0.2286 -0.9513  0.0514
  809MOL0     C 9143  11.151   2.826   5.749  0.5945 -0.2953  0.6051
  809MOL0     C 9144  11.175   2.790   5.886  0.2671 -1.1135  0.5275
  809MOL0     C 9145  11.193   2.755   5.995 -0.5708  0.0089 -0.5196
  809MOL0     C 9146  10.590   3.154   5.665  0.2445 -0.3021  0.1666
  809MOL0     C 9147  10.460   3.198   5.641  0.4890 -0.8191  0.0236
  809MOL0     H 9148  10.097   3.531   5.607  0.9323 -0.7884 -0.1238
  809MOL0     H 9149   9.874   3.588   5.651  0.0712 -0.1065  0.0305
  809MOL0     H 9150   9.626   3.594   5.526  0.2862 -0.4211  1.8803
  809MOL0     H 9151   9.586   3.444   5.442  0.8136  1.5300 -1.2693
  809MOL0     H 9152   9.406   3.388   5.601 -4.4095  0.3310 -2.8203
  809MOL0     H 9153   9.429   3.540   5.684 -2.1725 -0.6472  0.6202
  809MOL0     H 9154   9.240   3.563   5.534 -0.0046 -1.7509  1.0835
  809MOL0     H 9155   9.387   3.667   5.499  0.5890 -1.5616 -0.3278
  809MOL0     H 9156   9.427   3.541   5.289  1.8151  1.4457  1.5298
  809MOL0     H 9157   9.329   3.404   5.353 -0.2427  0.3619  2.2423
  809MOL0     H 9158   9.123   3.528   5.304 -0.4760 -0.6336 -0.8552
  809MOL0     H 9159   9.228   3.681   5.290 -1.8379 -0.0302 -1.1710
  809MOL0     H 9160   9.240   3.469   5.059  0.0143 -1.1005  0.8665
  809MOL0     H 9161   9.121   3.585   5.074  1.7255  0.7668 -1.9688
  809MOL0     H 9162   9.302   3.774   5.102  0.0166 -0.3966  0.1167
  809MOL0     H 9163   9.426   3.650   5.075  0.4848  3.2802 -0.2966
  809MOL0     H 9164   9.307   3.579   4.862  1.0774  0.0056  0.4172
  809MOL0     H 9165   9.389   3.739   4.863 -1.8641  2.2291 -0.9296
  809MOL0     H 9166   9.031   3.580   4.780 -4.5750  0.6875  0.1034
  809MOL0     H 9167   8.868   3.879   4.653 -0.1009 -0.4919 -0.7656
  809MOL0     H 9168   8.814   3.707   4.693  1.2158 -0.5387  0.6284
  809MOL0     H 9169   8.749   3.955   4.838  1.8709  0.4070  2.2440
  809MOL0     H 9170   8.773   3.792   4.922 -0.0885 -0.8935 -1.0616
  809MOL0     H 9171   8.572   3.718   4.773  0.3030  1.3810  0.0155
  809MOL0     H 9172   8.572   3.874   4.698  0.4330  1.1625 -0.3796
  809MOL0     H 9173   8.528   3.993   4.885  0.1060 -0.4630 -0.6200
  809MOL0     H 9174   8.534   3.845   4.985  0.9190  2.7210  0.9117
  809MOL0     H 9175   8.403   4.123   4.825 -0.9440 -2.0958  2.7537
  809MOL0     H 9176   8.311   4.343   4.773 -1.6236 -3.0027  0.7012
  809MOL0     H 9177   8.416   4.304   4.638  1.5709  2.1904  0.8831
  809MOL0     H 9178   8.255   4.377   4.608  0.2473 -0.6733 -1.1130
  809MOL0     H 9179   7.729   4.336   4.594  1.5227  1.5146 -0.0248
  809MOL0     H 9180   7.564   4.434   4.439  1.6109 -0.2560  1.2613
  809MOL0     H 9181   7.493   4.578   4.285  1.5590  1.0588  0.7204
  809MOL0     H 9182   7.632   4.644   4.206 -0.9942  0.8291  1.2706
  809MOL0     H 9183   7.370   4.565   4.072  0.7291 -1.6683  0.8441
  809MOL0     H 9184   7.425   4.736   4.086  2.6016  1.2038 -4.1454
  809MOL0     H 9185   7.476   4.663   3.865  1.3958  1.6564 -0.7777
  809MOL0     H 9186   7.582   4.538   3.933 -0.7550 -1.7027  4.7416
  809MOL0     H 9187   7.615   4.840   3.964 -0.1203 -0.1074  1.5371
  809MOL0     H 9188   7.728   4.725   4.024  0.1848 -0.2686  1.0687
  809MOL0     H 9189   7.646   4.701   3.727 -0.4040  0.4763 -0.2098
  809MOL0     H 9190   7.789   4.641   3.799  2.8027  2.4310 -2.7531
  809MOL0     H 9191   7.703   4.934   3.749  3.0601  3.3347  1.7295
  809MOL0     H 9192   7.838   4.897   3.857 -0.9808 -0.8557  0.3260
  809MOL0     H 9193   7.967   4.804   3.669 -0.7606 -1.1735 -2.7854
  809MOL0     H 9194   7.907   4.973   3.640 -4.3980  1.9239 -1.4079
  809MOL0     H 9195   7.844   4.880   3.444 -3.4128  3.7460  1.5977
  809MOL0     H 9196   7.709   4.822   3.538  0.5730 -0.5403  1.6326
  809MOL0     H 9197   7.826   4.343   4.113 -1.0094  1.2991  0.0429
  809MOL0     H 9198   7.969   4.233   4.263 -0.8722 -2.2968  0.7586
  809MOL0     H 9199   8.028   3.932   4.578 -0.4826  0.7213  0.1211
  809MOL0     H 9200   8.155   3.795   4.728  0.8926 -0.8454 -0.0712
  809MOL0     H 9201   9.745   3.175   5.602  1.1787 -0.9952 -3.6817
  809MOL0     H 9202   9.972   3.112   5.555 -0.5274  0.1469 -3.5844
  809MOL0     H 9203  10.374   2.954   5.398  0.8196 -0.6261 -0.2540
  809MOL0     H 9204  10.597   2.889   5.452  3.5411  1.3539 -0.5522
  809MOL0     H 9205  10.798   2.823   5.563  1.2273 -0.9442  1.5216
  809MOL0     H 9206  10.838   2.942   5.439 -2.5896 -0.4297 -0.5607
  809MOL0     H 9207  11.010   3.041   5.586  2.7951 -0.7660 -1.6710
  809MOL0     H 9208  11.049   2.881   5.518  0.1283  1.4207 -0.3171
  809MOL0     H 9209  10.927   2.795   5.747 -0.6260 -0.5139  0.3069
  809MOL0     H 9210  10.974   2.953   5.798  3.0404  0.4929 -0.1053
  809MOL0     H 9211  11.214   2.913   5.729 -2.4253  1.9111  0.0751
  809MOL0     H 9212  11.185   2.749   5.680 -1.7988 -0.6713 -0.2318
  809MOL0     H 9213  11.205   2.718   6.095 -1.7697  1.3619  0.1631
  809MOL0     H 9214  10.649   3.204   5.741  1.9062  1.9979 -2.4409
  809MOL0     H 9215  10.412   3.288   5.680  0.2331 -2.1060  2.9313
  810MOL0     O 9216   1.715   1.898   8.455 -0.4422  0.1175 -0.4707
  810MOL0     C 9217   1.734   1.936   8.575  0.0068  0.3891  0.8058
  810MOL0     O 9218   1.632   1.930   8.675 -0.6080 -0.2015  0.1539
  810MOL0     C 9219   1.508   1.912   8.629 -0.1810  0.0246 -0.0131
  810MOL0     C 9220   1.447   1.785   8.629  1.0836  0.2190  0.0220
  810MOL0     C 9221   1.315   1.775   8.578  0.7989  0.6950 -0.1831
  810MOL0     C 9222   1.246   1.889   8.529 -1.1717  0.3180  0.3847
  810MOL0     O 9223   1.121   1.869   8.493  0.2724 -0.5385  0.2276
  810MOL0     C 9224   1.025   1.855   8.609  0.1897  0.1468  0.2473
  810MOL0     C 9225   0.890   1.818   8.561  0.1964  0.8626 -0.2003
  810MOL0     C 9226   0.772   1.858   8.646  0.5508 -0.0732  0.1218
  810MOL0     C 9227   0.626   1.845   8.589 -0.6148 -0.3559  1.5155
  810MOL0     C 9228   0.538   1.969   8.614 -0.2609 -1.0025  0.2107
  810MOL0     C 9229   0.392   1.925   8.574  0.5217 -0.3342 -0.9487
  810MOL0     C 9230   0.287   2.039   8.606 -0.3317 -0.3288  0.4639
  810MOL0     C 9231   0.145   1.997   8.562  0.4842 -0.0301 -0.2902
  810MOL0     N 9232   0.064   2.097   8.479  0.7987  0.1599 -0.6743
  810MOL0     C 9233  -0.048   2.155   8.531  0.2561  1.0430 -0.7683
  810MOL0     C 9234  -0.076   2.242   8.423 -0.2219 -0.3336  0.4365
  810MOL0     C 9235  -0.187   2.338   8.422  0.4112 -0.6841 -0.0585
  810MOL0     C 9236  -0.311   2.282   8.349  0.5357  0.7862 -1.1141
  810MOL0     C 9237  -0.417   2.391   8.324 -0.0252 -0.6514  0.7451
  810MOL0     C 9238  -0.453   2.481   8.442 -0.3683  0.8400 -0.8526
  810MOL0     O 9239  -0.528   2.390   8.533  0.0434  0.4825 -1.4077
  810MOL0     C 9240  -0.558   2.438   8.659 -0.1213 -0.1570 -0.1581
  810MOL0     C 9241  -0.456   2.494   8.737 -0.2473  0.1971  0.1235
  810MOL0     C 9242  -0.487   2.542   8.868 -0.1781 -1.1973 -0.2722
  810MOL0     C 9243  -0.374   2.609   8.954  0.1989  0.6506 -1.2271
  810MOL0     C 9244  -0.623   2.541   8.915  0.1054 -0.4431  0.1628
  810MOL0     C 9245  -0.670   2.586   9.046  0.2762  0.3136 -0.3932
  810MOL0     O 9246  -0.787   2.519   9.100  0.2771 -0.9287 -0.0958
  810MOL0     C 9247  -0.825   2.563   9.221  0.6700 -0.7559  0.9586
  810MOL0     C 9248  -0.765   2.526   9.345 -0.0808  0.0465  1.0585
  810MOL0     C 9249  -0.815   2.567   9.470  0.2167  0.0596 -0.0836
  810MOL0     C 9250  -0.917   2.664   9.470  0.1459  0.4528  0.8746
  810MOL0     O 9251  -0.949   2.709   9.594 -0.0831  0.0846 -0.2047
  810MOL0     C 9252  -0.994   2.852   9.612  0.1212  0.4008 -0.4861
  810MOL0     C 9253  -1.066   2.857   9.755  0.3683  0.6685  0.0558
  810MOL0     C 9254  -1.184   2.751   9.769 -0.8175  0.2923 -0.1281
  810MOL0     C 9255  -1.311   2.802   9.696  0.0154 -0.5203  0.6603
  810MOL0     C 9256  -1.434   2.694   9.711 -0.8601 -0.3606  0.7700
  810MOL0     C 9257  -1.491   2.681   9.852 -0.2303 -0.1629  0.6438
  810MOL0     C 9258  -1.605   2.578   9.858  0.8776 -0.4518 -0.0278
  810MOL0     C 9259  -1.655   2.536   9.997 -0.3791  0.4659  0.7757
  810MOL0    Cl 9260  -1.797   2.428   9.975  0.0469 -0.0211 -0.4491
  810MOL0     C 9261  -0.979   2.717   9.351 -0.4787  0.2719  0.1849
  810MOL0     C 9262  -0.933   2.653   9.230 -0.5572  0.0936  0.2954
  810MOL0     O 9263  -0.628   2.692   9.089  0.0511  0.4028  0.1210
  810MOL0     C 9264  -0.723   2.477   8.840  0.9474 -0.6370 -0.2322
  810MOL0     C 9265  -0.688   2.436   8.709 -0.0516 -0.0957  1.0864
  810MOL0     N 9266   0.017   2.231   8.314 -1.0161 -0.0077  0.2858
  810MOL0     N 9267   0.107   2.141   8.353 -0.9167  0.4616 -0.5452
  810MOL0     C 9268   1.307   2.014   8.530 -0.5937 -0.4380 -0.8307
  810MOL0     C 9269   1.439   2.022   8.577  0.3393  0.2802  0.0978
  810MOL0     C 9270   1.873   1.961   8.631  0.5212  0.1714  0.4241
  810MOL0     C 9271   1.879   2.005   8.758 -0.1501  0.5519  0.1886
  810MOL0     C 9272   1.999   2.035   8.820 -1.0252  0.2399 -0.6385
  810MOL0     C 9273   2.122   2.019   8.751  0.8507 -0.3040  0.2379
  810MOL0     O 9274   2.239   2.042   8.820  0.0473 -0.0612  0.4827
  810MOL0     C 9275   2.357   2.037   8.739 -0.5537 -0.2667 -0.7824
  810MOL0     C 9276   2.478   2.067   8.832 -0.4214 -0.4935 -0.0026
  810MOL0     C 9277   2.605   2.103   8.754 -0.2070 -0.6323 -0.4668
  810MOL0     C 9278   2.723   2.152   8.855 -0.8528  0.0765  0.5236
  810MOL0     C 9279   2.694   2.274   8.929  0.4702  0.2981 -0.7175
  810MOL0     C 9280   2.668   2.370   8.993 -0.2004  0.6458 -0.2650
  810MOL0     C 9281   2.123   1.972   8.618  0.4480 -0.8111 -0.4228
  810MOL0     C 9282   1.993   1.943   8.557  0.3353  0.0039  1.0949
  810MOL0     H 9283   1.507   1.709   8.679  0.2217  1.0232  2.4196
  810MOL0     H 9284   1.262   1.681   8.575  0.7134  0.6406  1.8419
  810MOL0     H 9285   1.055   1.772   8.674 -1.8160 -1.3638 -0.6286
  810MOL0     H 9286   1.022   1.946   8.669 -3.4367 -0.9018  1.9126
  810MOL0     H 9287   0.877   1.872   8.467  3.1023  0.3692 -0.9745
  810MOL0     H 9288   0.883   1.709   8.552  0.5543  0.6913  1.2210
  810MOL0     H 9289   0.776   1.798   8.738  1.6161 -2.8761 -1.6159
  810MOL0     H 9290   0.788   1.965   8.662 -1.3281  0.6946 -2.3494
  810MOL0     H 9291   0.635   1.834   8.480 -0.4383 -1.3022  1.6182
  810MOL0     H 9292   0.591   1.753   8.635 -0.3630 -0.2915  1.8381
  810MOL0     H 9293   0.542   1.999   8.719  0.2111  2.3002 -0.6580
  810MOL0     H 9294   0.557   2.059   8.556  0.3588 -1.6620 -0.6387
  810MOL0     H 9295   0.382   1.893   8.470  1.5330 -2.0629 -0.5539
  810MOL0     H 9296   0.355   1.848   8.643 -0.4110 -1.0734 -2.2258
  810MOL0     H 9297   0.283   2.070   8.710 -0.9536  0.5143  0.1969
  810MOL0     H 9298   0.325   2.125   8.550  1.3403 -1.1593  0.2598
  810MOL0     H 9299   0.077   1.975   8.645  2.8156  0.8705  1.9892
  810MOL0     H 9300   0.159   1.914   8.492  0.8512  0.7447 -1.1663
  810MOL0     H 9301  -0.098   2.161   8.627 -0.8090  0.7596 -1.2918
  810MOL0     H 9302  -0.217   2.356   8.526  1.8828 -0.7806  0.4016
  810MOL0     H 9303  -0.156   2.428   8.368 -3.4407  1.0327  0.2867
  810MOL0     H 9304  -0.353   2.200   8.408  1.8097 -0.8272 -2.3585
  810MOL0     H 9305  -0.268   2.236   8.260  2.8328 -0.6369  0.6133
  810MOL0     H 9306  -0.509   2.354   8.277  1.2162 -2.8359 -0.1159
  810MOL0     H 9307  -0.370   2.455   8.249 -1.7452  1.5826  1.4466
  810MOL0     H 9308  -0.524   2.556   8.405 -3.7929 -1.7563 -0.0559
  810MOL0     H 9309  -0.367   2.527   8.492 -0.6692 -0.6127  1.1350
  810MOL0     H 9310  -0.355   2.483   8.700 -1.0624 -3.0458 -1.4693
  810MOL0     H 9311  -0.284   2.548   8.936  1.5416  1.4828  2.0119
  810MOL0     H 9312  -0.356   2.712   8.922 -3.1402  1.7017 -0.0831
  810MOL0     H 9313  -0.395   2.605   9.061 -0.4042 -2.7533 -1.3492
  810MOL0     H 9314  -0.677   2.464   9.337  0.1945  0.4074  1.2628
  810MOL0     H 9315  -0.773   2.527   9.562  0.5499  0.6041  0.0008
  810MOL0     H 9316  -0.918   2.929   9.591 -1.2035  1.5763 -1.1416
  810MOL0     H 9317  -1.058   2.885   9.530  0.4085 -0.2817 -0.9944
  810MOL0     H 9318  -0.989   2.845   9.832 -0.8546 -0.9510  1.1037
  810MOL0     H 9319  -1.109   2.957   9.761 -2.2266 -0.3896  0.8257
  810MOL0     H 9320  -1.217   2.741   9.873 -0.3774 -2.3298 -0.1748
  810MOL0     H 9321  -1.151   2.648   9.753  2.5189  1.4650 -1.7107
  810MOL0     H 9322  -1.344   2.903   9.721 -0.8871 -0.3268 -1.1395
  810MOL0     H 9323  -1.282   2.810   9.590 -1.2185  2.1612  0.4410
  810MOL0     H 9324  -1.390   2.598   9.680  2.6963  0.8226  1.7363
  810MOL0     H 9325  -1.507   2.714   9.632 -0.7393 -0.0538  0.7343
  810MOL0     H 9326  -1.415   2.657   9.928 -0.2501  1.8486  1.3630
  810MOL0     H 9327  -1.536   2.773   9.888 -0.2568 -1.2104  3.5765
  810MOL0     H 9328  -1.567   2.493   9.800 -0.0317 -2.1694  1.7579
  810MOL0     H 9329  -1.693   2.615   9.804 -0.4982 -1.7950  1.2073
  810MOL0     H 9330  -1.691   2.607  10.073  0.7921  0.4632  1.3559
  810MOL0     H 9331  -1.577   2.478  10.047  0.7360  1.4563  0.2188
  810MOL0     H 9332  -1.059   2.790   9.348  1.7963  3.0476  1.7575
  810MOL0     H 9333  -0.977   2.677   9.133  0.3276 -0.1230 -0.1749
  810MOL0     H 9334  -0.826   2.463   8.871  0.1800  1.6164 -1.4823
  810MOL0     H 9335  -0.766   2.395   8.644  2.9195 -0.4773 -2.5497
  810MOL0     H 9336   1.257   2.106   8.503 -2.2014 -1.7900 -2.8513
  810MOL0     H 9337   1.477   2.124   8.580 -0.2538  0.5092  0.0207
  810MOL0     H 9338   1.791   2.012   8.820 -0.8276  0.7664 -0.7736
  810MOL0     H 9339   1.998   2.037   8.928 -0.0616 -2.8728 -0.4727
  810MOL0     H 9340   2.360   1.944   8.681 -0.6132 -0.3172 -0.7060
  810MOL0     H 9341   2.350   2.110   8.659 -0.4358  1.6312  0.8608
  810MOL0     H 9342   2.496   1.979   8.893 -2.9984 -0.0734  1.5081
  810MOL0     H 9343   2.452   2.144   8.906  3.2885  1.5947 -0.6648
  810MOL0     H 9344   2.574   2.176   8.679  0.1344 -1.4707 -1.4455
  810MOL0     H 9345   2.638   2.015   8.698  1.4804 -0.3717  0.0607
  810MOL0     H 9346   2.808   2.176   8.792 -0.6514 -1.9918 -0.0748
  810MOL0     H 9347   2.748   2.069   8.922 -3.7639  1.1081  3.1691
  810MOL0     H 9348   2.652   2.455   9.057 -0.9926 -0.1150  0.5840
  810MOL0     H 9349   2.203   1.966   8.546 -0.4582  2.1217 -1.8425
  810MOL0     H 9350   1.991   1.908   8.454  0.5996  0.4934  0.9173
  811MOL0     O 9351   8.640   5.068   0.235 -0.2670  0.1136  0.0887
  811MOL0     C 9352   8.596   5.077   0.348  0.1664 -0.6156 -0.0618
  811MOL0     O 9353   8.667   5.074   0.465  0.3811 -0.3388  0.6603
  811MOL0     C 9354   8.807   5.070   0.462  0.4297  0.1047  0.0856
  811MOL0     C 9355   8.873   5.172   0.531  0.6035 -0.2242 -0.5552
  811MOL0     C 9356   9.011   5.178   0.528  0.2356  0.2016  0.5076
  811MOL0     C 9357   9.087   5.087   0.447  0.5517 -0.5228  0.5008
  811MOL0     O 9358   9.223   5.109   0.448 -1.0496  0.1231  0.1160
  811MOL0     C 9359   9.307   5.014   0.383  0.2061 -0.0915  1.0468
  811MOL0     C 9360   9.456   5.049   0.394 -0.6089  0.2404  0.8078
  811MOL0     C 9361   9.520   5.007   0.522 -0.3256  0.0422  0.0815
  811MOL0     C 9362   9.661   5.049   0.522  0.2121 -0.1588 -0.2408
  811MOL0     C 9363   9.727   5.030   0.657 -0.4934  0.1270 -0.3272
  811MOL0     C 9364   9.866   4.963   0.650  0.1519 -0.7083 -0.4265
  811MOL0     C 9365   9.930   4.961   0.789  0.1009 -0.8042  0.2883
  811MOL0     C 9366  10.029   5.083   0.804 -0.5497  0.3649 -0.1895
  811MOL0     N 9367  10.130   5.041   0.901 -0.3060  0.1483 -0.3279
  811MOL0     C 9368  10.234   4.963   0.865 -0.2233 -0.1755  0.3329
  811MOL0     C 9369  10.300   4.945   0.980 -0.1603  0.3415 -0.2517
  811MOL0     C 9370  10.438   4.893   0.999 -0.4496 -0.0273 -0.0349
  811MOL0     C 9371  10.552   4.988   1.043  0.6472 -0.6745  0.4961
  811MOL0     C 9372  10.543   5.131   0.979  0.0173 -0.3207 -0.4676
  811MOL0     C 9373  10.541   5.127   0.825 -0.3581  0.5501  0.0871
  811MOL0     O 9374  10.544   5.263   0.779  0.1090 -0.5215  0.8661
  811MOL0     C 9375  10.424   5.301   0.736 -0.3829 -0.1429  0.5298
  811MOL0     C 9376  10.400   5.309   0.603  0.0252  0.4094  0.7407
  811MOL0     C 9377  10.280   5.354   0.552  0.6255 -0.1976  0.1546
  811MOL0     C 9378  10.254   5.340   0.408  0.0326  0.1067  0.2616
  811MOL0     C 9379  10.174   5.392   0.642 -0.1144  0.4954  0.4832
  811MOL0     C 9380  10.033   5.443   0.599  0.0958 -0.0499  0.1259
  811MOL0     O 9381   9.952   5.485   0.703  0.0025 -0.1289  0.3785
  811MOL0     C 9382   9.820   5.507   0.693  0.1138  0.7005 -0.0414
  811MOL0     C 9383   9.739   5.430   0.606  0.0758 -0.3310  0.1984
  811MOL0     C 9384   9.600   5.445   0.614 -0.4396 -0.0058 -0.5414
  811MOL0     C 9385   9.537   5.537   0.693  1.0416  0.3425  0.2919
  811MOL0     O 9386   9.401   5.566   0.692 -0.0135  0.2613 -1.3282
  811MOL0     C 9387   9.319   5.528   0.584  0.1413  0.4361  0.8414
  811MOL0     C 9388   9.187   5.604   0.577  0.3767  0.1923 -0.3614
  811MOL0     C 9389   9.098   5.543   0.469 -0.1833 -0.6576  0.1268
  811MOL0     C 9390   8.949   5.569   0.501 -0.2465  0.6694 -0.9747
  811MOL0     C 9391   8.855   5.530   0.393  0.1121  0.2791  0.5223
  811MOL0     C 9392   8.707   5.551   0.440  0.0067  0.6872  0.2888
  811MOL0     C 9393   8.594   5.479   0.368 -0.3197  0.0405 -0.3570
  811MOL0     C 9394   8.505   5.417   0.470 -0.6699  1.2502  0.7074
  811MOL0    Cl 9395   8.419   5.546   0.564  0.2381 -0.1246 -0.5638
  811MOL0     C 9396   9.614   5.620   0.776 -0.1271  0.3482 -0.4345
  811MOL0     C 9397   9.754   5.612   0.775  0.4823  0.6527  0.5432
  811MOL0     O 9398  10.000   5.451   0.482  0.0493  0.0725 -1.1296
  811MOL0     C 9399  10.215   5.402   0.780 -1.3333  0.3809  0.3326
  811MOL0     C 9400  10.338   5.360   0.828 -0.3532  0.0145 -0.8984
  811MOL0     N 9401  10.231   5.013   1.084 -0.2925  0.1619  0.1174
  811MOL0     N 9402  10.129   5.067   1.034 -0.2989 -0.4597 -0.2666
  811MOL0     C 9403   9.019   4.992   0.373  0.1784 -0.7732 -0.2796
  811MOL0     C 9404   8.882   4.987   0.373 -0.1779 -0.3199  0.6947
  811MOL0     C 9405   8.445   5.080   0.356  1.0082 -0.5444 -0.0442
  811MOL0     C 9406   8.389   5.082   0.490 -0.0377 -0.3252  0.6000
  811MOL0     C 9407   8.247   5.087   0.501  0.6322 -0.1186 -0.1631
  811MOL0     C 9408   8.162   5.100   0.386  0.3662  0.6108 -1.0853
  811MOL0     O 9409   8.023   5.076   0.391 -0.1628 -0.1062 -0.1443
  811MOL0     C 9410   7.933   5.103   0.505 -1.0854 -0.1547  0.0602
  811MOL0     C 9411   7.893   5.240   0.546  0.0023  0.3472 -0.2360
  811MOL0     C 9412   7.832   5.310   0.418  0.9885  0.3368 -0.1133
  811MOL0     C 9413   7.851   5.455   0.416  0.4145  0.2328  0.4250
  811MOL0     C 9414   7.990   5.498   0.408 -0.7110 -0.1603 -0.9675
  811MOL0     C 9415   8.106   5.525   0.406  0.2611  0.0661 -0.2171
  811MOL0     C 9416   8.220   5.099   0.262  0.6540 -0.0342 -0.0047
  811MOL0     C 9417   8.360   5.099   0.243  0.9923  0.3958 -0.4159
  811MOL0     H 9418   8.815   5.235   0.598  0.8693  1.2501 -1.6703
  811MOL0     H 9419   9.059   5.252   0.591  0.0521 -0.1314  1.0406
  811MOL0     H 9420   9.295   4.911   0.416  2.7771 -1.1312 -0.9534
  811MOL0     H 9421   9.282   5.012   0.277  1.1101 -1.9470  0.8369
  811MOL0     H 9422   9.507   5.015   0.303 -0.4032 -1.2420  1.4396
  811MOL0     H 9423   9.443   5.157   0.388 -2.1305  0.0300 -0.0560
  811MOL0     H 9424   9.463   5.037   0.610 -0.7335  0.8304 -0.4363
  811MOL0     H 9425   9.528   4.898   0.527  1.1023  0.0608 -1.1956
  811MOL0     H 9426   9.709   4.995   0.440  1.0981  0.9323 -0.4595
  811MOL0     H 9427   9.668   5.156   0.502  1.8631 -0.3362 -0.8047
  811MOL0     H 9428   9.747   5.129   0.698  0.7790 -1.0536  2.1150
  811MOL0     H 9429   9.655   4.982   0.724 -1.7215  0.7105 -1.1867
  811MOL0     H 9430   9.859   4.857   0.623  3.0648 -1.1613  0.2522
  811MOL0     H 9431   9.935   5.004   0.575  1.4171 -4.3072 -1.4127
  811MOL0     H 9432   9.857   4.955   0.870 -0.0298 -2.0010  0.0994
  811MOL0     H 9433   9.995   4.873   0.792  1.6514  0.3042  0.8925
  811MOL0     H 9434   9.968   5.167   0.839 -0.7182 -0.9205  2.9392
  811MOL0     H 9435  10.087   5.101   0.713  0.7946 -3.1275 -0.1809
  811MOL0     H 9436  10.259   4.919   0.769  1.0222 -1.9769  1.4007
  811MOL0     H 9437  10.438   4.823   1.084  3.6610  0.4230  0.5331
  811MOL0     H 9438  10.457   4.846   0.902 -0.9444  0.6842 -0.4851
  811MOL0     H 9439  10.650   4.943   1.030  0.4146 -0.7280 -1.2241
  811MOL0     H 9440  10.538   5.003   1.151  1.4600  0.6600  0.4335
  811MOL0     H 9441  10.616   5.201   1.020 -0.5178 -1.0661  1.8892
  811MOL0     H 9442  10.452   5.173   1.022 -1.2229 -0.9942 -2.3107
  811MOL0     H 9443  10.448   5.080   0.792  0.4771  0.6574 -2.7167
  811MOL0     H 9444  10.629   5.067   0.802  0.9111  1.7884  1.4761
  811MOL0     H 9445  10.478   5.281   0.534 -0.4533 -0.3631  0.5031
  811MOL0     H 9446  10.264   5.440   0.365 -1.1901  0.2704  0.3145
  811MOL0     H 9447  10.332   5.280   0.360  2.8983  1.8194  2.4693
  811MOL0     H 9448  10.150   5.310   0.389 -0.7442  1.7075  1.7145
  811MOL0     H 9449   9.773   5.361   0.530 -1.7037 -0.1763 -0.7679
  811MOL0     H 9450   9.538   5.397   0.539 -0.5422  2.6642 -2.3086
  811MOL0     H 9451   9.373   5.539   0.490 -2.6846 -0.7440 -1.0760
  811MOL0     H 9452   9.297   5.424   0.610  2.3636 -0.6322 -1.2001
  811MOL0     H 9453   9.147   5.579   0.675  1.8339 -3.1303 -0.4781
  811MOL0     H 9454   9.196   5.711   0.552 -2.1023  0.2847 -1.1330
  811MOL0     H 9455   9.117   5.435   0.460  2.7188 -0.1751 -0.7351
  811MOL0     H 9456   9.122   5.580   0.369  1.1724 -2.6454 -0.3445
  811MOL0     H 9457   8.925   5.498   0.581  1.7868 -1.2086 -1.9434
  811MOL0     H 9458   8.931   5.672   0.533  0.7087  0.5713 -0.0568
  811MOL0     H 9459   8.873   5.427   0.363  0.0725  0.7505 -1.2460
  811MOL0     H 9460   8.878   5.577   0.297  2.8036 -3.7675 -1.0836
  811MOL0     H 9461   8.703   5.523   0.546 -1.3240 -1.5515 -0.2930
  811MOL0     H 9462   8.675   5.655   0.429  0.0395  0.6987  0.2973
  811MOL0     H 9463   8.639   5.407   0.300 -1.7610 -1.1666 -0.0903
  811MOL0     H 9464   8.536   5.541   0.299  1.2922  1.0716 -0.8365
  811MOL0     H 9465   8.571   5.352   0.527 -0.2484 -2.6203 -3.6221
  811MOL0     H 9466   8.432   5.370   0.403  1.1691  0.2848 -0.7442
  811MOL0     H 9467   9.554   5.690   0.834  1.5446 -0.4789  2.5224
  811MOL0     H 9468   9.813   5.672   0.844 -0.7020 -0.4538  2.5958
  811MOL0     H 9469  10.137   5.425   0.852 -2.0254 -4.5823  1.5451
  811MOL0     H 9470  10.388   5.369   0.924  0.2940 -1.1829 -1.1107
  811MOL0     H 9471   9.089   4.928   0.318  2.1355  2.7466 -2.2705
  811MOL0     H 9472   8.830   4.911   0.315 -0.4027 -1.2759  2.0886
  811MOL0     H 9473   8.445   5.077   0.582  0.5665 -2.0558  0.1773
  811MOL0     H 9474   8.217   5.104   0.603  0.2707 -0.6909 -0.1756
  811MOL0     H 9475   7.847   5.037   0.485  1.4249 -3.4724 -0.7180
  811MOL0     H 9476   7.983   5.058   0.591 -0.0104 -0.0512 -0.4896
  811MOL0     H 9477   7.974   5.296   0.592  1.8191 -3.6401  1.9037
  811MOL0     H 9478   7.821   5.231   0.628  2.3302 -0.9737  1.7942
  811MOL0     H 9479   7.725   5.290   0.420  1.5002 -3.1570 -1.2383
  811MOL0     H 9480   7.868   5.268   0.324  1.1297 -1.1836  0.5906
  811MOL0     H 9481   7.797   5.511   0.494  0.7526 -0.6750  1.3198
  811MOL0     H 9482   7.812   5.490   0.319  0.6735  2.5930  1.1120
  811MOL0     H 9483   8.210   5.551   0.399  0.1748  0.4031 -0.2766
  811MOL0     H 9484   8.157   5.102   0.174 -1.1221 -0.5662  1.2057
  811MOL0     H 9485   8.406   5.104   0.145  0.2984  1.0407 -0.7189
  812MOL0     O 9486   0.602  11.013   3.159 -0.9602  0.4786  0.5947
  812MOL0     C 9487   0.668  10.913   3.114  0.6039  0.2667 -0.3657
  812MOL0     O 9488   0.612  10.799   3.054  0.0261  0.0639  1.5523
  812MOL0     C 9489   0.478  10.802   3.009 -0.5542  0.9351  0.3569
  812MOL0     C 9490   0.433  10.669   2.955  0.7586 -0.0718  0.3228
  812MOL0     C 9491   0.309  10.648   2.900  0.4035  0.5518  0.3888
  812MOL0     C 9492   0.213  10.752   2.911 -0.1495 -0.2718 -0.0047
  812MOL0     O 9493   0.085  10.744   2.867 -0.2000  0.1553 -0.5302
  812MOL0     C 9494   0.014  10.626   2.848 -0.0703  0.0364 -0.3107
  812MOL0     C 9495   0.003  10.548   2.979 -0.1578 -0.1800  0.1449
  812MOL0     C 9496  -0.073  10.615   3.098 -0.3976 -0.2922 -0.0711
  812MOL0     C 9497  -0.083  10.521   3.216 -0.5587 -0.3282  0.1225
  812MOL0     C 9498  -0.190  10.574   3.308 -0.1072 -0.1613  0.7045
  812MOL0     C 9499  -0.164  10.711   3.364 -0.1145 -0.0154 -0.8045
  812MOL0     C 9500  -0.267  10.736   3.481 -0.4270  0.0109  0.0655
  812MOL0     C 9501  -0.260  10.877   3.555 -0.2537  0.9543  0.5437
  812MOL0     N 9502  -0.398  10.928   3.580  0.1065 -0.9845 -0.6337
  812MOL0     C 9503  -0.459  11.023   3.509 -0.5143  0.0956  0.7921
  812MOL0     C 9504  -0.585  11.032   3.558  1.0415  0.5550  0.1254
  812MOL0     C 9505  -0.698  11.122   3.510  0.4426  0.3016  0.5655
  812MOL0     C 9506  -0.757  11.082   3.368 -0.5851 -0.3674  0.2251
  812MOL0     C 9507  -0.881  10.998   3.371  0.8475  0.7715 -0.2533
  812MOL0     C 9508  -0.974  11.023   3.489 -0.1865  0.1438 -0.7707
  812MOL0     O 9509  -1.012  11.165   3.511  0.1358 -0.3416 -0.1453
  812MOL0     C 9510  -1.115  11.206   3.432 -0.2740  1.3558  0.6922
  812MOL0     C 9511  -1.085  11.278   3.316  0.3228 -1.1627  0.2290
  812MOL0     C 9512  -1.179  11.333   3.229 -0.1496  0.1103 -0.3398
  812MOL0     C 9513  -1.134  11.423   3.116 -0.1113  0.1433  0.6408
  812MOL0     C 9514  -1.313  11.286   3.256 -0.0993 -0.6945  0.1672
  812MOL0     C 9515  -1.426  11.330   3.167  0.6686 -0.1387 -0.5210
  812MOL0     O 9516  -1.530  11.244   3.172 -0.0153 -0.5565 -0.1801
  812MOL0     C 9517  -1.664  11.280   3.146 -0.4002  0.5295  0.0898
  812MOL0     C 9518  -1.713  11.331   3.028 -0.4914 -0.2703 -0.3033
  812MOL0     C 9519  -1.850  11.373   3.024 -0.2140 -0.4958  0.0896
  812MOL0     C 9520  -1.932  11.363   3.134 -0.2847  0.6014  0.7054
  812MOL0     O 9521  -2.060  11.411   3.140 -0.0232 -0.2167  0.0474
  812MOL0     C 9522  -2.123  11.458   3.016  0.4058 -0.6464  0.5147
  812MOL0     C 9523  -2.271  11.475   3.045  0.0016  1.1567  0.0687
  812MOL0     C 9524  -2.362  11.448   2.926 -0.2328  0.1754  0.9337
  812MOL0     C 9525  -2.499  11.521   2.942  1.1235  0.3562  0.7630
  812MOL0     C 9526  -2.581  11.463   3.061  0.0220 -0.0345 -0.8780
  812MOL0     C 9527  -2.704  11.545   3.095  0.3162 -0.3795 -0.2217
  812MOL0     C 9528  -2.795  11.553   2.967  1.0451 -0.8298  0.3768
  812MOL0     C 9529  -2.928  11.615   3.008 -0.3776  0.0756  0.7807
  812MOL0    Cl 9530  -3.015  11.641   2.856 -0.5395  0.1000  0.0233
  812MOL0     C 9531  -1.881  11.313   3.256  0.6030  0.8150 -1.2704
  812MOL0     C 9532  -1.744  11.273   3.260  0.1377 -0.7820 -0.4841
  812MOL0     O 9533  -1.422  11.437   3.103 -0.2771 -0.4427 -0.3447
  812MOL0     C 9534  -1.343  11.200   3.364 -1.1055 -0.1430 -1.3102
  812MOL0     C 9535  -1.243  11.173   3.461  0.0717  0.1493 -0.5008
  812MOL0     N 9536  -0.597  10.934   3.655  0.7860 -0.0457 -0.1232
  812MOL0     N 9537  -0.485  10.879   3.672  0.3114  0.5946  1.1592
  812MOL0     C 9538   0.246  10.872   2.970  0.2531 -0.3512 -0.2648
  812MOL0     C 9539   0.378  10.903   3.014  0.9029 -0.3697 -1.4394
  812MOL0     C 9540   0.814  10.903   3.132  0.0396  0.3257 -0.7231
  812MOL0     C 9541   0.883  11.012   3.186 -0.5567 -0.5482 -0.9740
  812MOL0     C 9542   1.023  11.001   3.209 -1.0624  0.1203 -0.0609
  812MOL0     C 9543   1.096  10.893   3.168 -0.5356  0.6187 -0.9918
  812MOL0     O 9544   1.234  10.873   3.183  0.5314 -0.6240  0.4263
  812MOL0     C 9545   1.319  10.969   3.258 -0.1732  0.3928 -0.8900
  812MOL0     C 9546   1.360  11.080   3.163 -0.4459  0.4965 -0.2645
  812MOL0     C 9547   1.450  11.191   3.218 -0.1681  0.4349  0.4709
  812MOL0     C 9548   1.571  11.151   3.309  0.1308  0.1756  0.3954
  812MOL0     C 9549   1.659  11.060   3.228 -0.3315 -0.4631 -0.0773
  812MOL0     C 9550   1.723  10.980   3.164 -0.6830 -0.1743  0.2198
  812MOL0     C 9551   1.029  10.785   3.107 -0.9379  0.3579 -0.5149
  812MOL0     C 9552   0.891  10.790   3.095 -0.4358  0.1750 -0.5330
  812MOL0     H 9553   0.500  10.584   2.953  2.0490  0.9108  0.3844
  812MOL0     H 9554   0.279  10.551   2.862 -2.3012  1.4768 -0.1030
  812MOL0     H 9555  -0.082  10.658   2.806  0.4524  1.4104 -0.4831
  812MOL0     H 9556   0.051  10.564   2.766 -0.2961 -0.5115 -0.0078
  812MOL0     H 9557  -0.051  10.455   2.956 -0.4517  0.3775 -1.5623
  812MOL0     H 9558   0.100  10.529   3.026  0.6828  1.8062 -0.7011
  812MOL0     H 9559  -0.019  10.706   3.125  0.2987 -0.6441 -0.2653
  812MOL0     H 9560  -0.176  10.640   3.072 -0.3860  0.5295  0.6262
  812MOL0     H 9561  -0.115  10.425   3.175 -0.5632  0.6505 -2.2749
  812MOL0     H 9562   0.013  10.523   3.267 -1.4972 -0.6720  2.0169
  812MOL0     H 9563  -0.294  10.562   3.276  0.9847 -1.9543 -2.5973
  812MOL0     H 9564  -0.176  10.512   3.397 -0.2060 -0.4524  0.5165
  812MOL0     H 9565  -0.059  10.717   3.396 -0.7742  1.6703  1.3135
  812MOL0     H 9566  -0.188  10.785   3.289 -2.5279  1.6479  1.4352
  812MOL0     H 9567  -0.363  10.747   3.430 -0.5483  3.4528  0.7777
  812MOL0     H 9568  -0.265  10.653   3.552 -3.0988 -1.3593 -1.3115
  812MOL0     H 9569  -0.213  10.946   3.485 -0.1291  1.1615  0.8294
  812MOL0     H 9570  -0.197  10.850   3.641 -1.1572 -8.4639 -0.6174
  812MOL0     H 9571  -0.422  11.084   3.427 -2.6913  0.1784 -0.1951
  812MOL0     H 9572  -0.782  11.139   3.577 -1.7506  0.6287 -2.0953
  812MOL0     H 9573  -0.647  11.217   3.494  2.0880 -0.4961  0.8829
  812MOL0     H 9574  -0.672  11.044   3.311  0.5393 -0.9317  2.1835
  812MOL0     H 9575  -0.778  11.167   3.303 -3.0538 -1.8499 -1.0520
  812MOL0     H 9576  -0.858  10.891   3.379  0.3454  0.7129  0.4812
  812MOL0     H 9577  -0.928  11.006   3.272  3.6307  0.5453 -1.6919
  812MOL0     H 9578  -0.933  10.988   3.585 -1.1029  1.8269  0.2971
  812MOL0     H 9579  -1.064  10.963   3.473 -0.3247  0.5740 -1.6058
  812MOL0     H 9580  -0.980  11.306   3.314 -1.0602  6.0026 -0.6609
  812MOL0     H 9581  -1.028  11.408   3.096 -0.6310 -3.3711 -0.2286
  812MOL0     H 9582  -1.193  11.406   3.026  2.4682  0.6925 -1.2516
  812MOL0     H 9583  -1.163  11.523   3.149  1.5043  1.0805 -0.6326
  812MOL0     H 9584  -1.645  11.360   2.949  0.9864 -1.1983  0.5732
  812MOL0     H 9585  -1.888  11.402   2.926  1.7168  0.9640 -0.3089
  812MOL0     H 9586  -2.087  11.555   2.982 -1.2105 -0.4808 -0.8423
  812MOL0     H 9587  -2.091  11.384   2.942  1.8203  0.9508 -0.5621
  812MOL0     H 9588  -2.297  11.397   3.118  0.4671 -0.3776 -1.3496
  812MOL0     H 9589  -2.293  11.573   3.088 -1.2371  0.5830  0.8042
  812MOL0     H 9590  -2.379  11.340   2.920  1.1635 -0.0676  0.9013
  812MOL0     H 9591  -2.311  11.487   2.838 -5.0087 -1.5592 -3.0620
  812MOL0     H 9592  -2.484  11.629   2.951 -1.2992  1.3201 -3.6715
  812MOL0     H 9593  -2.547  11.496   2.847  3.5645 -4.6242  0.5442
  812MOL0     H 9594  -2.514  11.462   3.148 -0.8416  2.4118 -0.1032
  812MOL0     H 9595  -2.605  11.359   3.035  1.0576 -0.1324 -1.4962
  812MOL0     H 9596  -2.754  11.489   3.174  1.1268  3.0709  3.0478
  812MOL0     H 9597  -2.687  11.648   3.128  0.0819  0.3550 -2.2100
  812MOL0     H 9598  -2.818  11.453   2.928 -0.4087 -0.5729  0.5025
  812MOL0     H 9599  -2.758  11.611   2.882 -0.1528 -0.6844 -0.0640
  812MOL0     H 9600  -2.920  11.715   3.051 -2.3764  1.4579 -1.7329
  812MOL0     H 9601  -2.990  11.548   3.069 -1.5029  1.1623  0.8720
  812MOL0     H 9602  -1.944  11.322   3.344  1.1540 -0.7439 -0.6655
  812MOL0     H 9603  -1.705  11.249   3.358 -2.3500  0.2488  0.8315
  812MOL0     H 9604  -1.443  11.160   3.383 -1.6551  1.9302  0.6327
  812MOL0     H 9605  -1.257  11.111   3.549  1.4853  1.2652  0.5488
  812MOL0     H 9606   0.164  10.941   2.991 -0.7586 -1.4040 -0.6555
  812MOL0     H 9607   0.379  11.001   3.061 -2.7627 -1.3554  1.1270
  812MOL0     H 9608   0.833  11.107   3.205  0.3409  0.5158 -3.4474
  812MOL0     H 9609   1.067  11.085   3.262  1.3195 -0.1188 -1.5187
  812MOL0     H 9610   1.271  11.014   3.346  0.0597  1.9517 -1.5274
  812MOL0     H 9611   1.404  10.907   3.286  1.1274  3.1719  1.9992
  812MOL0     H 9612   1.273  11.130   3.121 -0.2228  0.2073 -1.0831
  812MOL0     H 9613   1.411  11.029   3.081 -0.6728 -1.1727  0.5773
  812MOL0     H 9614   1.385  11.264   3.266 -0.3375  0.2209  0.5663
  812MOL0     H 9615   1.499  11.246   3.137 -1.4055 -1.0918 -1.3884
  812MOL0     H 9616   1.531  11.091   3.391 -2.4291 -0.9025 -1.5062
  812MOL0     H 9617   1.632  11.234   3.345 -0.6524  0.8282  0.2220
  812MOL0     H 9618   1.789  10.910   3.116  3.0993  2.3366  1.3127
  812MOL0     H 9619   1.076  10.694   3.072 -2.9025 -0.6683 -0.5953
  812MOL0     H 9620   0.836  10.710   3.046 -0.3912 -1.7340  2.2978
  813MOL0     O 9621   5.085   6.173   4.123 -0.1501  0.2308 -0.3759
  813MOL0     C 9622   5.085   6.121   4.017 -0.6462  1.0754  0.2212
  813MOL0     O 9623   4.982   6.045   3.968 -0.9785  0.4450 -0.3920
  813MOL0     C 9624   4.878   5.994   4.050 -0.3566 -0.3801 -0.0818
  813MOL0     C 9625   4.821   6.085   4.135  0.2602 -0.2389  0.1035
  813MOL0     C 9626   4.741   6.043   4.249  0.4584 -0.5209  0.5709
  813MOL0     C 9627   4.704   5.905   4.266  0.5538  0.4254  0.4072
  813MOL0     O 9628   4.637   5.868   4.380 -0.2458  0.2304  0.3382
  813MOL0     C 9629   4.597   5.728   4.399  0.6283 -0.3682 -0.0366
  813MOL0     C 9630   4.498   5.719   4.511  0.0452 -0.5379 -0.7300
  813MOL0     C 9631   4.366   5.803   4.484  0.7224 -0.2352  0.4847
  813MOL0     C 9632   4.264   5.782   4.595 -0.1098  0.4901 -0.2229
  813MOL0     C 9633   4.123   5.822   4.545  0.4998 -0.0248 -0.2208
  813MOL0     C 9634   4.020   5.771   4.657 -0.0896 -0.7235  0.5052
  813MOL0     C 9635   4.011   5.861   4.782 -1.1028 -0.1020 -0.0815
  813MOL0     C 9636   3.885   5.842   4.873  0.1278  0.1308  0.1883
  813MOL0     N 9637   3.766   5.912   4.814 -0.2700  0.1209 -0.0913
  813MOL0     C 9638   3.713   5.894   4.685  0.3536  0.7754  0.3721
  813MOL0     C 9639   3.617   5.991   4.684 -0.0407  0.7565  0.0856
  813MOL0     C 9640   3.509   5.995   4.581  0.3822  0.5426 -0.3214
  813MOL0     C 9641   3.427   6.118   4.571 -0.2497 -0.0407  0.1499
  813MOL0     C 9642   3.292   6.105   4.642  0.3430 -0.1399 -0.2468
  813MOL0     C 9643   3.194   6.216   4.635 -0.1840  0.6015 -0.2070
  813MOL0     O 9644   3.093   6.223   4.737 -0.5137 -0.1979  0.4554
  813MOL0     C 9645   2.970   6.287   4.729 -0.8593 -0.5135  0.4932
  813MOL0     C 9646   2.873   6.248   4.821  0.8466 -1.1704  0.5373
  813MOL0     C 9647   2.734   6.288   4.826  0.3496 -0.7400  0.0642
  813MOL0     C 9648   2.658   6.231   4.934  0.3555 -0.2713 -0.2460
  813MOL0     C 9649   2.691   6.376   4.719 -0.0582 -0.2421 -0.4984
  813MOL0     C 9650   2.547   6.412   4.705 -0.1594 -0.5639  1.3641
  813MOL0     O 9651   2.484   6.345   4.602 -0.0866 -0.1044 -0.0261
  813MOL0     C 9652   2.359   6.388   4.591 -0.3379 -0.3429  0.8109
  813MOL0     C 9653   2.255   6.316   4.634  0.4369 -0.6802  0.5370
  813MOL0     C 9654   2.120   6.360   4.605 -0.2066  0.4314 -0.9830
  813MOL0     C 9655   2.098   6.486   4.555  0.2841  0.4529 -0.6410
  813MOL0     O 9656   1.969   6.528   4.527  0.0157 -0.3196  0.2611
  813MOL0     C 9657   1.880   6.439   4.453  0.5847 -0.0590  0.2565
  813MOL0     C 9658   1.775   6.524   4.368 -0.3783  0.4509  0.3796
  813MOL0     C 9659   1.835   6.608   4.258  0.6428 -0.2296 -0.0341
  813MOL0     C 9660   1.712   6.663   4.178 -0.5201  0.0477 -0.5130
  813MOL0     C 9661   1.680   6.806   4.219 -0.9353  0.2815  1.3797
  813MOL0     C 9662   1.584   6.858   4.108 -0.6206  0.2957  0.0308
  813MOL0     C 9663   1.531   7.003   4.130  0.1757  0.6771 -0.1428
  813MOL0     C 9664   1.428   7.039   4.028 -0.0065 -0.1639 -0.8615
  813MOL0    Cl 9665   1.292   6.930   4.045 -0.1698 -0.3719  0.1096
  813MOL0     C 9666   2.207   6.565   4.520  0.0192  0.1351 -0.6821
  813MOL0     C 9667   2.335   6.511   4.528 -0.4728 -0.0683 -1.4451
  813MOL0     O 9668   2.496   6.480   4.791 -1.3341 -0.2356 -0.3873
  813MOL0     C 9669   2.786   6.418   4.620  0.0848  0.4043 -0.4343
  813MOL0     C 9670   2.916   6.366   4.623 -0.7522 -0.0223 -0.4829
  813MOL0     N 9671   3.612   6.061   4.805 -0.5062  0.5610  0.5953
  813MOL0     N 9672   3.701   6.007   4.882  0.2297 -0.2933  0.8114
  813MOL0     C 9673   4.757   5.820   4.165 -0.1985  0.1001  0.6340
  813MOL0     C 9674   4.850   5.858   4.070  0.2507 -0.4352 -1.2248
  813MOL0     C 9675   5.208   6.117   3.938 -0.4122  0.7274 -0.7201
  813MOL0     C 9676   5.223   6.074   3.813 -0.0889 -1.2232 -0.0879
  813MOL0     C 9677   5.347   6.086   3.751  0.6924 -1.0328 -0.2469
  813MOL0     C 9678   5.460   6.136   3.816  0.1174 -0.4049  0.8397
  813MOL0     O 9679   5.583   6.162   3.759 -0.4916 -0.0041  0.1933
  813MOL0     C 9680   5.633   6.068   3.662 -0.1888 -0.7939 -0.5746
  813MOL0     C 9681   5.670   5.921   3.723  0.1686 -0.3664 -0.8236
  813MOL0     C 9682   5.788   5.921   3.828 -0.4721 -0.2864  1.2053
  813MOL0     C 9683   5.827   5.777   3.864  0.0223  0.7523  0.1658
  813MOL0     C 9684   5.912   5.715   3.770  0.5536 -0.3835  1.1048
  813MOL0     C 9685   5.990   5.644   3.707  0.1724 -0.6035 -1.0193
  813MOL0     C 9686   5.448   6.182   3.948  0.3000 -0.0080  0.1852
  813MOL0     C 9687   5.325   6.165   4.011 -0.1521  0.2973 -0.0354
  813MOL0     H 9688   4.846   6.190   4.123 -4.0026  1.1795  1.6337
  813MOL0     H 9689   4.704   6.113   4.323  2.0528 -0.0438  0.9691
  813MOL0     H 9690   4.543   5.706   4.307  0.3619 -1.8663  0.4500
  813MOL0     H 9691   4.684   5.662   4.408  1.4283  0.5393 -0.8845
  813MOL0     H 9692   4.479   5.613   4.530 -1.8114 -0.0978  0.0667
  813MOL0     H 9693   4.547   5.751   4.603  1.1768 -2.8731 -0.4517
  813MOL0     H 9694   4.391   5.906   4.457 -1.3862 -0.2296 -1.8403
  813MOL0     H 9695   4.319   5.765   4.392 -1.2997  3.4442 -0.1776
  813MOL0     H 9696   4.272   5.680   4.634 -0.7410  0.2089 -0.8139
  813MOL0     H 9697   4.280   5.850   4.679 -6.0008  0.9495  0.9657
  813MOL0     H 9698   4.126   5.931   4.546  1.6614  0.0022 -2.1562
  813MOL0     H 9699   4.095   5.790   4.445 -3.6602 -0.0707  0.7959
  813MOL0     H 9700   3.920   5.769   4.615 -0.7150  2.7315  1.4636
  813MOL0     H 9701   4.043   5.669   4.689 -1.3797 -0.6036  1.8553
  813MOL0     H 9702   4.100   5.842   4.842 -0.9560 -1.7173 -0.7549
  813MOL0     H 9703   4.014   5.962   4.739  1.9967 -0.6304 -1.3674
  813MOL0     H 9704   3.901   5.876   4.975  0.3406  0.5134  0.0300
  813MOL0     H 9705   3.879   5.734   4.890  2.4554 -0.1185 -0.2957
  813MOL0     H 9706   3.723   5.809   4.618  0.2570 -1.4916  3.0004
  813MOL0     H 9707   3.555   5.973   4.484  0.9704  2.1232 -0.4304
  813MOL0     H 9708   3.453   5.902   4.593  2.3404 -0.5246  1.3394
  813MOL0     H 9709   3.415   6.141   4.465  1.0164  3.7219  0.6793
  813MOL0     H 9710   3.481   6.203   4.612 -0.9479  0.8671 -0.7762
  813MOL0     H 9711   3.318   6.083   4.746  2.6942 -1.6830 -1.0703
  813MOL0     H 9712   3.255   6.009   4.606  2.0026 -2.0467  2.6844
  813MOL0     H 9713   3.155   6.214   4.533 -0.6030  1.4753 -0.0780
  813MOL0     H 9714   3.249   6.311   4.633 -1.0355  1.1164 -2.4977
  813MOL0     H 9715   2.908   6.186   4.903  1.4709 -0.7639  0.5859
  813MOL0     H 9716   2.691   6.280   5.025 -0.3555  3.0303 -1.6319
  813MOL0     H 9717   2.550   6.243   4.921  0.5576  0.5012 -1.3228
  813MOL0     H 9718   2.681   6.124   4.933  0.2488 -0.2973  0.0085
  813MOL0     H 9719   2.282   6.223   4.683 -1.1515 -1.1051  0.6689
  813MOL0     H 9720   2.045   6.284   4.625  0.7946  0.1403  2.2927
  813MOL0     H 9721   1.936   6.372   4.387  0.5642 -0.1433  0.3236
  813MOL0     H 9722   1.834   6.370   4.525  0.8318 -2.3397 -1.6595
  813MOL0     H 9723   1.699   6.455   4.331  1.3744 -1.1145 -0.4557
  813MOL0     H 9724   1.732   6.594   4.441  2.6894  1.5164  1.3451
  813MOL0     H 9725   1.910   6.551   4.203  1.8656  0.5282  0.7974
  813MOL0     H 9726   1.892   6.688   4.306  1.0110 -0.0043 -0.8196
  813MOL0     H 9727   1.738   6.654   4.072  3.4645 -2.0418  0.4102
  813MOL0     H 9728   1.624   6.600   4.194  0.5511 -0.9484  2.0073
  813MOL0     H 9729   1.775   6.861   4.220 -0.4472 -0.5140  2.5988
  813MOL0     H 9730   1.630   6.809   4.317 -2.2480  1.2476  0.7147
  813MOL0     H 9731   1.627   6.846   4.008  0.4603 -0.2777  0.5468
  813MOL0     H 9732   1.493   6.797   4.115 -1.9532  1.7058 -2.8975
  813MOL0     H 9733   1.617   7.071   4.132  0.1885  0.7288 -1.6131
  813MOL0     H 9734   1.483   7.017   4.227  3.2856 -0.6739  1.7564
  813MOL0     H 9735   1.471   7.023   3.929  2.1964 -2.8334  0.3927
  813MOL0     H 9736   1.386   7.140   4.036 -1.2594 -0.6075 -1.5604
  813MOL0     H 9737   2.195   6.661   4.472  1.0034  0.5658 -0.1077
  813MOL0     H 9738   2.421   6.564   4.489  1.7001 -1.4690  1.1551
  813MOL0     H 9739   2.767   6.478   4.532  0.6050 -1.5537 -1.9742
  813MOL0     H 9740   2.967   6.402   4.534  0.0156 -3.0031 -1.3814
  813MOL0     H 9741   4.736   5.713   4.165  0.6057 -0.0653 -0.2782
  813MOL0     H 9742   4.894   5.789   3.998 -0.2418  0.4627 -2.4274
  813MOL0     H 9743   5.139   6.048   3.749 -0.2895  0.6967 -0.6774
  813MOL0     H 9744   5.358   6.045   3.651  0.8283  0.2344 -0.7789
  813MOL0     H 9745   5.555   6.039   3.591  0.7014 -2.4464 -0.9259
  813MOL0     H 9746   5.720   6.106   3.609 -0.1736 -0.1986 -0.1378
  813MOL0     H 9747   5.715   5.871   3.637  1.2720 -2.2602  0.7671
  813MOL0     H 9748   5.589   5.866   3.772  2.0204 -0.3713  2.4687
  813MOL0     H 9749   5.765   5.960   3.927  3.0683  1.8013  1.4076
  813MOL0     H 9750   5.868   5.979   3.780 -1.6010 -0.7344 -1.3930
  813MOL0     H 9751   5.735   5.721   3.881 -0.9524  2.3043  0.2647
  813MOL0     H 9752   5.883   5.782   3.958  1.5995 -1.0330 -0.6214
  813MOL0     H 9753   6.067   5.591   3.655  2.9846  1.8762  0.2853
  813MOL0     H 9754   5.530   6.239   3.989 -1.0431  1.2819  1.1841
  813MOL0     H 9755   5.313   6.201   4.112 -3.4281  0.9702 -0.5709
  814MOL0     O 9756   5.478   4.678   4.694 -0.4770  0.0709  0.4818
  814MOL0     C 9757   5.577   4.711   4.626 -0.5795 -0.2801  0.0948
  814MOL0     O 9758   5.576   4.785   4.523 -0.1595  0.4867 -0.0287
  814MOL0     C 9759   5.457   4.831   4.468 -0.1421  0.7053  0.2391
  814MOL0     C 9760   5.428   4.964   4.469  0.4345 -0.0472  0.1907
  814MOL0     C 9761   5.319   5.015   4.399  0.3598 -0.3983 -0.2543
  814MOL0     C 9762   5.217   4.931   4.335  0.0419  0.1555 -0.3676
  814MOL0     O 9763   5.113   4.992   4.275 -0.8040 -0.2412 -1.0147
  814MOL0     C 9764   5.021   4.908   4.205 -0.1201  0.0568 -0.5163
  814MOL0     C 9765   4.907   5.011   4.154 -0.4376  0.6048 -0.0646
  814MOL0     C 9766   4.810   4.922   4.080  0.8322 -0.5425 -0.0455
  814MOL0     C 9767   4.690   5.010   4.051 -0.2429 -0.0961 -0.7822
  814MOL0     C 9768   4.575   4.939   3.993 -0.7942  0.0152  0.2122
  814MOL0     C 9769   4.451   5.025   4.005  0.0286  0.5249  0.3019
  814MOL0     C 9770   4.353   4.994   3.900 -0.2090  0.3393  0.8227
  814MOL0     C 9771   4.394   5.039   3.764  0.4987 -0.1250  0.3497
  814MOL0     N 9772   4.276   5.030   3.679  0.0849  0.5476  0.6260
  814MOL0     C 9773   4.194   4.920   3.674  1.3190 -0.7465 -0.5400
  814MOL0     C 9774   4.079   4.959   3.600 -0.1470 -0.7412 -0.9829
  814MOL0     C 9775   3.962   4.871   3.552  0.3613  0.2287  0.5542
  814MOL0     C 9776   3.832   4.913   3.622 -0.0105  0.3885 -0.2719
  814MOL0     C 9777   3.705   4.842   3.563  0.3014 -0.2610 -0.5134
  814MOL0     C 9778   3.661   4.724   3.652 -0.0331 -0.3878  0.1737
  814MOL0     O 9779   3.557   4.656   3.581  0.8235 -0.1471 -0.2340
  814MOL0     C 9780   3.465   4.589   3.662  0.0818 -0.0907  0.5666
  814MOL0     C 9781   3.493   4.490   3.759  0.1312  0.3827  0.9433
  814MOL0     C 9782   3.386   4.419   3.818 -0.1497 -0.3701 -0.3492
  814MOL0     C 9783   3.429   4.319   3.920  1.2543 -0.3305 -0.9107
  814MOL0     C 9784   3.251   4.450   3.794 -0.4356 -0.1201  0.4004
  814MOL0     C 9785   3.144   4.373   3.867  1.6181 -0.1395 -0.8546
  814MOL0     O 9786   3.034   4.451   3.897 -0.4492  0.5127  0.3221
  814MOL0     C 9787   2.924   4.385   3.925  0.5263  0.5920 -0.0752
  814MOL0     C 9788   2.900   4.346   4.063 -0.1000  0.4766 -0.5285
  814MOL0     C 9789   2.774   4.295   4.096 -0.2963 -0.6449 -0.0431
  814MOL0     C 9790   2.671   4.277   3.998 -0.7131 -0.0908  0.0873
  814MOL0     O 9791   2.559   4.207   4.040  0.1381 -0.4362  0.0431
  814MOL0     C 9792   2.452   4.202   3.946  0.0408  0.0753  0.7342
  814MOL0     C 9793   2.352   4.094   3.986 -0.6629 -0.3430  0.3347
  814MOL0     C 9794   2.286   4.142   4.125 -0.6695  0.1890  0.0802
  814MOL0     C 9795   2.157   4.053   4.142 -0.1417 -0.9060 -0.1994
  814MOL0     C 9796   2.066   4.105   4.257 -1.0958 -0.3562 -0.3892
  814MOL0     C 9797   2.134   4.085   4.394  0.3843 -0.0787 -0.7484
  814MOL0     C 9798   2.036   4.130   4.507 -0.8792  0.2847  0.5912
  814MOL0     C 9799   2.107   4.130   4.647  0.3989 -0.1151 -0.1689
  814MOL0    Cl 9800   2.088   3.954   4.700 -0.5767 -0.2662 -0.1969
  814MOL0     C 9801   2.691   4.323   3.866 -0.4668 -0.1899 -0.3589
  814MOL0     C 9802   2.818   4.376   3.838  0.4298  0.7440 -1.1105
  814MOL0     O 9803   3.150   4.253   3.869  0.3311 -0.4421  0.4294
  814MOL0     C 9804   3.223   4.547   3.698 -0.3118 -0.7568  0.0280
  814MOL0     C 9805   3.331   4.615   3.634 -0.9590 -0.4838  0.4400
  814MOL0     N 9806   4.114   5.079   3.539 -0.0646 -0.1193  0.2426
  814MOL0     N 9807   4.228   5.121   3.591  0.2767  0.4843 -0.4432
  814MOL0     C 9808   5.244   4.792   4.338 -0.5791 -0.3973  0.0423
  814MOL0     C 9809   5.370   4.749   4.395 -0.1986 -0.2915 -0.2986
  814MOL0     C 9810   5.706   4.651   4.655  1.1219  1.0362  0.9845
  814MOL0     C 9811   5.816   4.679   4.578 -0.3734 -0.5595  0.5562
  814MOL0     C 9812   5.936   4.615   4.600 -0.7430 -0.7047  0.5644
  814MOL0     C 9813   5.953   4.519   4.699  0.0754 -0.2959  0.0484
  814MOL0     O 9814   6.074   4.462   4.703 -0.3456  0.6356 -0.1769
  814MOL0     C 9815   6.103   4.364   4.800 -0.5890 -0.9620 -1.0965
  814MOL0     C 9816   6.076   4.226   4.758  0.5034 -0.0141  0.4076
  814MOL0     C 9817   6.157   4.196   4.626 -0.4461 -0.3859  0.0583
  814MOL0     C 9818   6.201   4.055   4.623  0.5863 -0.0570  0.5574
  814MOL0     C 9819   6.078   3.970   4.637 -0.6153  0.6998 -0.0117
  814MOL0     C 9820   5.997   3.886   4.635  0.3741  0.1968  0.6112
  814MOL0     C 9821   5.833   4.487   4.780  0.6840  0.0814 -0.7211
  814MOL0     C 9822   5.720   4.556   4.758  0.6317  0.0643 -0.4752
  814MOL0     H 9823   5.493   5.023   4.532 -1.1529  1.3490  0.6116
  814MOL0     H 9824   5.310   5.123   4.402  0.6930 -0.4003  1.3593
  814MOL0     H 9825   5.067   4.857   4.121  1.0530 -0.3272  0.3364
  814MOL0     H 9826   4.983   4.830   4.272 -0.5025 -3.7215 -4.6722
  814MOL0     H 9827   4.856   5.037   4.247 -1.3412  0.7190 -0.5775
  814MOL0     H 9828   4.949   5.097   4.101  0.0125 -0.1913 -1.0133
  814MOL0     H 9829   4.849   4.886   3.984 -2.7361 -0.7155 -1.5679
  814MOL0     H 9830   4.777   4.836   4.139 -1.6512  0.4946  0.1757
  814MOL0     H 9831   4.665   5.049   4.150  2.7934 -2.5587  1.1476
  814MOL0     H 9832   4.722   5.088   3.981 -0.8538  0.4405 -0.4784
  814MOL0     H 9833   4.582   4.923   3.885 -7.0757  1.0766 -0.7779
  814MOL0     H 9834   4.549   4.852   4.054  1.4101 -1.0157 -0.2550
  814MOL0     H 9835   4.387   5.012   4.093 -1.1569  3.8516  0.0459
  814MOL0     H 9836   4.484   5.128   3.992 -2.8920  1.4128 -0.8919
  814MOL0     H 9837   4.330   4.887   3.906 -1.2955  0.4387 -0.8560
  814MOL0     H 9838   4.257   5.034   3.935 -0.2693  0.4685  0.5175
  814MOL0     H 9839   4.476   4.977   3.728  0.8813 -0.1591  1.2636
  814MOL0     H 9840   4.428   5.143   3.767  2.1457 -0.6576  2.1216
  814MOL0     H 9841   4.212   4.826   3.725 -1.4810 -2.2786 -2.1026
  814MOL0     H 9842   3.953   4.894   3.446 -0.4172 -0.1270  0.5384
  814MOL0     H 9843   3.972   4.763   3.555  0.0390  0.2122  1.2636
  814MOL0     H 9844   3.826   5.022   3.613  4.9537  1.2737  3.1698
  814MOL0     H 9845   3.840   4.892   3.729 -0.2535 -0.3752 -0.3973
  814MOL0     H 9846   3.719   4.809   3.460 -0.1719 -0.1742 -0.6049
  814MOL0     H 9847   3.620   4.911   3.568  2.0067  1.9673 -0.2268
  814MOL0     H 9848   3.626   4.764   3.747  0.5246 -1.0599  0.6682
  814MOL0     H 9849   3.737   4.647   3.667 -1.0822 -1.4295  0.2512
  814MOL0     H 9850   3.595   4.463   3.785  0.5942  0.8439 -0.2866
  814MOL0     H 9851   3.534   4.287   3.918  1.0680 -1.4759  2.1338
  814MOL0     H 9852   3.407   4.350   4.023  4.5382  0.0991 -0.2492
  814MOL0     H 9853   3.376   4.226   3.899 -2.6973  1.6767 -0.7852
  814MOL0     H 9854   2.983   4.346   4.133 -0.8364 -1.2078  0.3967
  814MOL0     H 9855   2.752   4.281   4.202  5.0725  2.7593  1.9079
  814MOL0     H 9856   2.397   4.296   3.942 -0.5733 -0.2295  1.6105
  814MOL0     H 9857   2.491   4.174   3.847 -0.8162 -0.1841  0.4654
  814MOL0     H 9858   2.280   4.078   3.905  1.1095  3.9859 -2.4700
  814MOL0     H 9859   2.402   3.997   3.995 -2.0281 -1.1019 -0.0890
  814MOL0     H 9860   2.255   4.247   4.128  1.2366  0.7598  1.0068
  814MOL0     H 9861   2.365   4.136   4.201  2.0277  0.6800 -2.5255
  814MOL0     H 9862   2.108   4.069   4.046  4.8552  3.0327 -2.5996
  814MOL0     H 9863   2.184   3.948   4.158  1.4488 -0.1982  2.4217
  814MOL0     H 9864   1.972   4.050   4.248 -0.5058 -1.7092  1.2339
  814MOL0     H 9865   2.041   4.208   4.229  1.0018  0.3965  0.2973
  814MOL0     H 9866   2.147   3.978   4.415 -2.6378 -0.5151 -0.6490
  814MOL0     H 9867   2.233   4.132   4.405  4.0560 -6.4141 -1.5515
  814MOL0     H 9868   1.944   4.072   4.518  0.2164 -1.5544  0.6203
  814MOL0     H 9869   2.017   4.237   4.501 -0.1074  0.5026  1.6835
  814MOL0     H 9870   2.058   4.207   4.706 -0.5148  0.5740 -1.7780
  814MOL0     H 9871   2.213   4.158   4.641  0.4847 -0.6826 -1.7050
  814MOL0     H 9872   2.626   4.287   3.786 -0.6264 -0.9463  0.0996
  814MOL0     H 9873   2.843   4.409   3.738  0.8223  2.5013 -0.4662
  814MOL0     H 9874   3.121   4.580   3.681 -1.0935 -3.0803 -0.0970
  814MOL0     H 9875   3.297   4.695   3.569 -0.4522 -0.9618 -0.4425
  814MOL0     H 9876   5.191   4.718   4.279  0.4146 -2.3764  1.5297
  814MOL0     H 9877   5.405   4.649   4.373 -0.4467 -0.9095  1.9082
  814MOL0     H 9878   5.820   4.739   4.487  0.9298 -0.0032  0.9629
  814MOL0     H 9879   6.023   4.636   4.538  0.2221 -1.6613  1.5584
  814MOL0     H 9880   6.209   4.378   4.822 -0.9698  1.5415 -0.5622
  814MOL0     H 9881   6.066   4.388   4.901  0.6006 -1.0229 -0.6284
  814MOL0     H 9882   5.969   4.211   4.738  0.4314 -1.1611  1.5223
  814MOL0     H 9883   6.094   4.147   4.831 -1.2422  1.7228  2.8537
  814MOL0     H 9884   6.247   4.257   4.625 -0.5199 -0.2834 -0.6052
  814MOL0     H 9885   6.098   4.218   4.536  0.2799 -0.9493 -0.5703
  814MOL0     H 9886   6.273   4.033   4.702  2.2134  1.1206 -0.5537
  814MOL0     H 9887   6.245   4.031   4.525 -0.3065  0.5305 -0.0054
  814MOL0     H 9888   5.924   3.809   4.623 -0.5444  1.2388 -0.8263
  814MOL0     H 9889   5.842   4.409   4.855 -0.8600 -0.4756 -1.0883
  814MOL0     H 9890   5.629   4.538   4.813  0.3072 -0.6259 -1.2267
  815MOL0     O 9891   8.891   4.285   3.185  0.1636 -0.8493  0.7577
  815MOL0     C 9892   8.954   4.191   3.235 -0.1682  0.9903  0.4208
  815MOL0     O 9893   8.899   4.076   3.287  0.4881  0.5320  0.0253
  815MOL0     C 9894   8.760   4.078   3.307 -0.0283 -0.2052  0.2221
  815MOL0     C 9895   8.677   4.187   3.346  0.0281  0.0666  0.5628
  815MOL0     C 9896   8.542   4.167   3.377 -0.7586 -0.0338  0.1902
  815MOL0     C 9897   8.479   4.043   3.368  0.1819 -0.2046  0.2855
  815MOL0     O 9898   8.357   4.017   3.413 -0.0746  0.5477 -0.2591
  815MOL0     C 9899   8.358   3.927   3.529  0.5755  0.1046  0.1204
  815MOL0     C 9900   8.285   3.987   3.640  0.3102 -0.4127  0.0514
  815MOL0     C 9901   8.368   4.105   3.698 -0.5282  0.1135 -0.1650
  815MOL0     C 9902   8.301   4.144   3.829 -0.2786 -0.5288 -0.5946
  815MOL0     C 9903   8.387   4.253   3.895 -0.6155 -0.1535  0.3623
  815MOL0     C 9904   8.342   4.271   4.042 -0.6680 -0.1498  0.2983
  815MOL0     C 9905   8.441   4.365   4.114  0.2420  0.3946  0.5455
  815MOL0     C 9906   8.378   4.392   4.253  0.0809  0.3691  0.2414
  815MOL0     N 9907   8.447   4.508   4.319 -0.5167  0.2732 -0.3930
  815MOL0     C 9908   8.559   4.494   4.391 -0.2830 -0.1976  0.5687
  815MOL0     C 9909   8.599   4.619   4.428  0.4796 -0.2381  0.2581
  815MOL0     C 9910   8.713   4.668   4.514 -0.8197 -0.5181  0.3270
  815MOL0     C 9911   8.673   4.773   4.621  0.2555 -1.0638 -0.0243
  815MOL0     C 9912   8.572   4.714   4.726  0.3559 -0.0663 -0.7444
  815MOL0     C 9913   8.612   4.579   4.796 -0.1126  0.5357 -0.3312
  815MOL0     O 9914   8.515   4.545   4.897 -0.3835  0.2809  0.0113
  815MOL0     C 9915   8.533   4.426   4.959 -1.1267  1.0399  0.6615
  815MOL0     C 9916   8.649   4.347   4.950 -0.1268 -0.1991 -0.4517
  815MOL0     C 9917   8.663   4.229   5.025  0.0463  0.0249  0.4004
  815MOL0     C 9918   8.796   4.164   5.023 -0.4068  0.7402 -0.3333
  815MOL0     C 9919   8.564   4.184   5.113 -0.2463 -0.1145 -0.4898
  815MOL0     C 9920   8.581   4.077   5.216 -0.3514 -0.5784 -0.7783
  815MOL0     O 9921   8.495   4.076   5.320 -0.5019  0.2211  0.2816
  815MOL0     C 9922   8.541   4.031   5.437  0.3194  0.1653 -0.8025
  815MOL0     C 9923   8.459   3.958   5.513 -0.5300 -0.4980 -0.8904
  815MOL0     C 9924   8.499   3.908   5.638  0.0802  0.5916  0.2764
  815MOL0     C 9925   8.625   3.937   5.684 -1.1116 -0.3784 -1.0553
  815MOL0     O 9926   8.671   3.913   5.815 -0.0070  0.2174 -0.6108
  815MOL0     C 9927   8.582   3.848   5.908 -1.3645  0.2777  0.2879
  815MOL0     C 9928   8.644   3.853   6.047  0.8501 -0.2645 -0.2356
  815MOL0     C 9929   8.779   3.793   6.077 -0.8453  0.7393 -0.7325
  815MOL0     C 9930   8.906   3.869   6.023  0.2085 -0.5902  0.4581
  815MOL0     C 9931   9.035   3.776   6.039 -1.0283  0.6811  0.1440
  815MOL0     C 9932   9.149   3.822   5.955 -0.7177  0.5051 -0.0799
  815MOL0     C 9933   9.268   3.723   5.950  0.1833  0.5628  0.1095
  815MOL0     C 9934   9.358   3.765   5.833 -0.2188 -0.7173 -0.7020
  815MOL0    Cl 9935   9.413   3.939   5.819  0.1817  0.1260 -0.3906
  815MOL0     C 9936   8.712   4.020   5.615  0.8043 -0.2916 -0.4136
  815MOL0     C 9937   8.673   4.064   5.491  0.1874  0.5482  0.7150
  815MOL0     O 9938   8.663   3.983   5.195  0.1523 -0.0340 -0.2214
  815MOL0     C 9939   8.449   4.266   5.115 -0.0421 -0.5446 -0.7382
  815MOL0     C 9940   8.433   4.379   5.044  0.1146 -0.0912  0.5247
  815MOL0     N 9941   8.508   4.707   4.378  0.2623  0.0234  0.0163
  815MOL0     N 9942   8.409   4.640   4.317 -0.8988  0.1454 -0.5685
  815MOL0     C 9943   8.561   3.940   3.331  0.0536 -0.0020 -0.4886
  815MOL0     C 9944   8.694   3.959   3.290 -0.2236  0.0367  0.1748
  815MOL0     C 9945   9.098   4.190   3.243  0.5209  0.3306 -0.9699
  815MOL0     C 9946   9.169   4.085   3.309 -0.1997  0.2078  0.3370
  815MOL0     C 9947   9.309   4.093   3.304 -0.4599 -0.9095  0.1366
  815MOL0     C 9948   9.378   4.200   3.253 -0.6317  0.3951 -0.7033
  815MOL0     O 9949   9.513   4.197   3.274 -0.2615  0.2421  0.3713
  815MOL0     C 9950   9.585   4.312   3.234 -0.1336  0.7176  1.2578
  815MOL0     C 9951   9.727   4.304   3.274  0.2456 -0.0201 -0.4959
  815MOL0     C 9952   9.795   4.187   3.191 -0.3098  0.2570  0.1860
  815MOL0     C 9953   9.944   4.162   3.241  0.1246 -0.3037  0.2410
  815MOL0     C 9954   9.950   4.131   3.385 -0.6021  0.8548  0.4114
  815MOL0     C 9955   9.960   4.132   3.506  0.3762  0.3048  0.4372
  815MOL0     C 9956   9.299   4.313   3.219  0.4242  0.5372 -0.3043
  815MOL0     C 9957   9.162   4.308   3.204  0.3600 -0.2108  0.6269
  815MOL0     H 9958   8.723   4.284   3.361  0.7166 -0.1908  0.2057
  815MOL0     H 9959   8.482   4.253   3.406  0.9758  0.9525  1.0070
  815MOL0     H 9960   8.310   3.830   3.512 -1.4035  0.8921  0.8590
  815MOL0     H 9961   8.459   3.903   3.564  1.8238  1.5550 -2.2359
  815MOL0     H 9962   8.186   4.012   3.603 -0.0382 -3.8253 -1.6793
  815MOL0     H 9963   8.270   3.917   3.723 -3.2575 -0.4867 -0.5030
  815MOL0     H 9964   8.470   4.074   3.723 -0.2581  1.7597  0.9519
  815MOL0     H 9965   8.378   4.190   3.629  2.5385 -1.3541 -1.7061
  815MOL0     H 9966   8.200   4.185   3.824  0.6548  2.1751  0.9422
  815MOL0     H 9967   8.292   4.059   3.897 -0.4487 -0.1873 -0.1851
  815MOL0     H 9968   8.492   4.220   3.895 -1.0952 -1.7748 -0.3376
  815MOL0     H 9969   8.371   4.348   3.844 -1.2220 -0.4376  0.0190
  815MOL0     H 9970   8.242   4.314   4.055 -0.2279  1.0184 -0.0548
  815MOL0     H 9971   8.340   4.170   4.083  2.1687 -0.6271 -0.4630
  815MOL0     H 9972   8.534   4.309   4.127  1.6843  1.9027 -2.1957
  815MOL0     H 9973   8.452   4.455   4.052 -3.9106  0.2523 -0.7014
  815MOL0     H 9974   8.393   4.306   4.319 -0.9240  0.3968  0.5104
  815MOL0     H 9975   8.272   4.415   4.240 -0.5100 -2.3669 -0.4162
  815MOL0     H 9976   8.610   4.405   4.428  4.1854  2.7788  2.5221
  815MOL0     H 9977   8.750   4.579   4.566  1.5470  0.8633  1.1345
  815MOL0     H 9978   8.799   4.700   4.454 -1.2512  1.1096  0.5293
  815MOL0     H 9979   8.640   4.864   4.570  3.2655  0.9650  1.3280
  815MOL0     H 9980   8.767   4.799   4.671  0.3769 -1.1569 -0.2026
  815MOL0     H 9981   8.477   4.701   4.673 -0.7136 -0.9639  1.2737
  815MOL0     H 9982   8.549   4.780   4.810 -1.1767 -0.9126 -0.4678
  815MOL0     H 9983   8.714   4.592   4.834  0.5600  1.1777 -2.2323
  815MOL0     H 9984   8.626   4.502   4.720  0.7020 -3.4179  3.4575
  815MOL0     H 9985   8.732   4.371   4.884  0.9143 -1.8824  0.1936
  815MOL0     H 9986   8.853   4.178   5.115 -0.8282 -2.3101  0.5022
  815MOL0     H 9987   8.805   4.055   5.014 -0.6718  0.6485  0.4375
  815MOL0     H 9988   8.854   4.198   4.937 -1.6502  1.2404 -0.9956
  815MOL0     H 9989   8.360   3.929   5.479 -0.4049 -0.3459 -1.3902
  815MOL0     H 9990   8.424   3.860   5.700 -0.7285 -0.0232 -1.1372
  815MOL0     H 9991   8.478   3.880   5.914 -1.6829 -0.8016  0.8652
  815MOL0     H 9992   8.576   3.743   5.879 -0.2151  0.3414 -0.2385
  815MOL0     H 9993   8.649   3.959   6.074  2.2784 -0.3867  0.0722
  815MOL0     H 9994   8.566   3.816   6.113  0.0518 -2.6130 -2.3256
  815MOL0     H 9995   8.769   3.692   6.035  3.1363  0.4201 -1.2838
  815MOL0     H 9996   8.798   3.787   6.185  2.2746 -2.5045 -1.2897
  815MOL0     H 9997   8.900   3.900   5.918 -0.3859 -1.4404  0.2313
  815MOL0     H 9998   8.908   3.950   6.096 -1.3960 -3.0631  3.5077
  815MOL0     H 9999   9.003   3.680   5.999  2.5781 -0.5956  0.0388
  815MOL0     H10000   9.082   3.770   6.137  4.4634  1.3252 -2.0796
  815MOL0     H10001   9.113   3.825   5.851  1.5243 -1.8124 -1.0253
  815MOL0     H10002   9.199   3.915   5.985  2.8710 -1.5071  0.7031
  815MOL0     H10003   9.233   3.621   5.933 -1.7099  0.9197  1.5151
  815MOL0     H10004   9.315   3.728   6.048  0.8341  0.6863 -0.2042
  815MOL0     H10005   9.306   3.743   5.739 -1.5788  2.8412 -0.9432
  815MOL0     H10006   9.449   3.706   5.839 -1.6710 -3.1346 -1.1520
  815MOL0     H10007   8.808   4.037   5.662 -0.0223  2.4326  0.4551
  815MOL0     H10008   8.740   4.125   5.432  0.1532  0.2276  0.3371
  815MOL0     H10009   8.376   4.236   5.190  0.6130 -2.0014 -0.6594
  815MOL0     H10010   8.337   4.430   5.054  0.0893  0.0100 -0.1797
  815MOL0     H10011   8.509   3.845   3.321  0.0008  0.0806 -1.0644
  815MOL0     H10012   8.742   3.877   3.238 -0.4223 -1.0885  1.7014
  815MOL0     H10013   9.134   3.999   3.366 -0.9898  0.6080  0.4558
  815MOL0     H10014   9.362   4.011   3.352  0.8022  0.5283  1.3136
  815MOL0     H10015   9.577   4.324   3.126 -0.1866  0.2059  1.2038
  815MOL0     H10016   9.538   4.396   3.286 -0.0134  1.0370  0.8608
  815MOL0     H10017   9.738   4.282   3.381 -2.4687 -0.6577 -0.2670
  815MOL0     H10018   9.774   4.400   3.251  2.6643 -0.8483  0.7199
  815MOL0     H10019   9.790   4.207   3.083  0.8224 -0.3699 -0.0029
  815MOL0     H10020   9.742   4.092   3.201 -0.5085  0.2813 -0.5254
  815MOL0     H10021  10.004   4.246   3.205 -0.1586  0.8187  2.2388
  815MOL0     H10022   9.973   4.072   3.185 -1.7805 -1.3456  0.8444
  815MOL0     H10023   9.993   4.120   3.608 -2.3974  0.9491  1.5144
  815MOL0     H10024   9.337   4.409   3.184 -2.5212  2.9765  2.5498
  815MOL0     H10025   9.112   4.398   3.166 -0.9700 -0.6590  1.2491
  816MOL0     O10026   0.703   7.565   3.628 -0.0558  0.2196  0.2278
  816MOL0     C10027   0.665   7.680   3.619  1.2907  0.4463  0.6912
  816MOL0     O10028   0.726   7.788   3.659  0.3075 -0.4998 -0.0098
  816MOL0     C10029   0.839   7.773   3.745  0.5609  0.2534  0.5722
  816MOL0     C10030   0.961   7.728   3.690  0.2932 -0.6787 -0.0974
  816MOL0     C10031   1.081   7.723   3.772  0.3280 -0.2323 -0.0504
  816MOL0     C10032   1.074   7.751   3.912  0.0521  0.1642 -0.7560
  816MOL0     O10033   1.194   7.737   3.985  0.4404 -0.3894 -0.1135
  816MOL0     C10034   1.201   7.724   4.124 -0.6806  0.2439  0.1944
  816MOL0     C10035   1.190   7.586   4.170  0.1900 -0.2164 -0.4903
  816MOL0     C10036   1.312   7.504   4.126 -0.4850  0.1116  0.5131
  816MOL0     C10037   1.382   7.435   4.245  0.2251  0.4215  0.5539
  816MOL0     C10038   1.470   7.528   4.324 -0.0995 -0.5548  0.2916
  816MOL0     C10039   1.513   7.467   4.451  0.3589 -0.1811  0.0008
  816MOL0     C10040   1.612   7.355   4.437 -0.5074  0.1381  0.3263
  816MOL0     C10041   1.748   7.410   4.411 -0.2203 -0.0708 -0.0068
  816MOL0     N10042   1.838   7.303   4.364  0.9326  0.2006  0.0103
  816MOL0     C10043   1.929   7.253   4.442  0.0475  0.0180 -0.4361
  816MOL0     C10044   1.994   7.156   4.370  0.0247  0.4975  0.3680
  816MOL0     C10045   2.093   7.054   4.431 -0.7924 -0.3602 -0.6600
  816MOL0     C10046   2.228   7.095   4.369  0.1752  0.0632  0.1875
  816MOL0     C10047   2.330   6.996   4.424 -1.6059 -0.1540 -0.1915
  816MOL0     C10048   2.463   7.001   4.348  0.0081  0.2341 -0.3008
  816MOL0     O10049   2.543   6.893   4.399 -0.1425 -0.2297  0.0774
  816MOL0     C10050   2.673   6.887   4.353  0.0602  0.0935  0.4648
  816MOL0     C10051   2.762   6.805   4.412 -0.8490  0.2724  0.5565
  816MOL0     C10052   2.900   6.815   4.385  0.2303  0.0020  0.0202
  816MOL0     C10053   3.001   6.735   4.460  0.0541  0.0799 -0.2060
  816MOL0     C10054   2.949   6.898   4.282 -0.3358  0.5382  0.8874
  816MOL0     C10055   3.097   6.931   4.244  0.2690 -0.1196 -0.1595
  816MOL0     O10056   3.116   6.989   4.117  0.2067  1.2006  0.0963
  816MOL0     C10057   3.223   7.075   4.112 -0.6467  0.1468 -0.4386
  816MOL0     C10058   3.240   7.191   4.186 -0.1250 -0.3494 -0.3375
  816MOL0     C10059   3.355   7.269   4.167 -0.3298 -0.6253  0.8391
  816MOL0     C10060   3.454   7.236   4.080 -0.1256  0.0579 -0.2158
  816MOL0     O10061   3.563   7.313   4.077 -0.5813  0.4608 -0.4072
  816MOL0     C10062   3.590   7.378   3.956  0.2151  0.5272  0.1837
  816MOL0     C10063   3.734   7.386   3.912  0.2392  0.3480  0.6292
  816MOL0     C10064   3.818   7.464   4.003 -0.4042  0.0386  0.5114
  816MOL0     C10065   3.968   7.447   3.985 -0.6232  0.1037 -0.6364
  816MOL0     C10066   4.047   7.539   4.076  0.3513 -0.1088  0.9072
  816MOL0     C10067   4.186   7.533   4.028  0.1405 -0.4412 -0.2778
  816MOL0     C10068   4.294   7.630   4.087 -0.2545 -0.2166 -0.1196
  816MOL0     C10069   4.432   7.627   4.032 -0.8246 -0.1641  0.8201
  816MOL0    Cl10070   4.549   7.732   4.114 -0.3633 -0.2057  0.3060
  816MOL0     C10071   3.437   7.120   4.005  0.2329  0.3783  0.4861
  816MOL0     C10072   3.317   7.042   4.014  0.4058 -0.1264 -1.0203
  816MOL0     O10073   3.188   6.903   4.316 -0.2118  0.0273  0.2610
  816MOL0     C10074   2.852   6.971   4.210 -0.0123  0.4639  0.5596
  816MOL0     C10075   2.715   6.972   4.244 -0.5111  0.0283 -0.4963
  816MOL0     N10076   1.932   7.160   4.242 -0.3573  0.6115 -0.4007
  816MOL0     N10077   1.840   7.248   4.242 -0.8801 -1.3766 -0.4232
  816MOL0     C10078   0.951   7.795   3.959 -0.3183 -0.3160  0.0956
  816MOL0     C10079   0.834   7.800   3.881 -0.3113 -0.2865  0.3961
  816MOL0     C10080   0.534   7.701   3.546 -0.1027 -0.1364  0.0948
  816MOL0     C10081   0.449   7.809   3.569  0.6238 -0.2549 -0.0826
  816MOL0     C10082   0.322   7.822   3.501  0.2298  0.3248 -0.3454
  816MOL0     C10083   0.281   7.733   3.403  0.0775 -0.3249 -0.8782
  816MOL0     O10084   0.166   7.725   3.340  0.7587  0.5096  0.1366
  816MOL0     C10085   0.060   7.816   3.382 -0.3259  0.4128 -0.8758
  816MOL0     C10086   0.072   7.964   3.344  0.8883 -1.0790  0.2920
  816MOL0     C10087  -0.068   8.028   3.362 -0.0841  0.0423  0.7083
  816MOL0     C10088  -0.169   7.997   3.255  0.3980 -0.1692 -0.3224
  816MOL0     C10089  -0.296   8.064   3.303  0.7409 -0.0363  0.4188
  816MOL0     C10090  -0.402   8.129   3.319 -1.1393  0.8199  0.2381
  816MOL0     C10091   0.370   7.630   3.373  0.3405 -0.3199  0.0807
  816MOL0     C10092   0.493   7.617   3.438  0.1251  0.0489 -0.4997
  816MOL0     H10093   0.963   7.711   3.583  1.4281  1.7981 -0.5420
  816MOL0     H10094   1.180   7.695   3.738  1.2210  1.7710  0.7718
  816MOL0     H10095   1.295   7.767   4.160 -1.6744 -1.0046  5.0005
  816MOL0     H10096   1.122   7.778   4.177 -1.9302 -2.0547  0.7717
  816MOL0     H10097   1.174   7.584   4.278 -0.0308  0.7614 -0.4888
  816MOL0     H10098   1.095   7.550   4.130 -0.8864  1.4136  0.4643
  816MOL0     H10099   1.290   7.424   4.055 -0.6280  0.4459  0.1791
  816MOL0     H10100   1.380   7.572   4.074 -2.2827  0.9169 -0.8840
  816MOL0     H10101   1.301   7.398   4.309 -0.2991 -1.0883 -0.9258
  816MOL0     H10102   1.433   7.346   4.208  0.6966  1.2500 -0.8408
  816MOL0     H10103   1.552   7.577   4.271  1.2848 -0.5413  2.3134
  816MOL0     H10104   1.408   7.612   4.359  0.2668 -0.6277  1.1386
  816MOL0     H10105   1.558   7.548   4.508 -0.7718  1.3359 -1.1661
  816MOL0     H10106   1.417   7.441   4.497 -0.5790  1.0273 -1.1908
  816MOL0     H10107   1.625   7.296   4.528  0.7790  1.2244  0.8741
  816MOL0     H10108   1.568   7.284   4.367  0.2731 -3.8009  3.4889
  816MOL0     H10109   1.788   7.459   4.501  3.7814  1.5068 -2.3657
  816MOL0     H10110   1.745   7.489   4.335 -0.9175 -1.9049 -1.9634
  816MOL0     H10111   1.941   7.284   4.545 -2.7506 -0.5147  0.1453
  816MOL0     H10112   2.106   7.062   4.539  1.7490 -0.2876 -0.9095
  816MOL0     H10113   2.067   6.953   4.400  0.8217 -0.6281 -1.2493
  816MOL0     H10114   2.264   7.194   4.397 -1.6020  0.1011  2.6595
  816MOL0     H10115   2.228   7.085   4.260  0.0356  0.7312  0.1257
  816MOL0     H10116   2.286   6.896   4.428 -2.6097  0.2032 -1.6770
  816MOL0     H10117   2.355   7.025   4.527  0.1908  2.4357 -1.2374
  816MOL0     H10118   2.516   7.096   4.359  0.9654 -0.1699 -1.3236
  816MOL0     H10119   2.432   6.977   4.246  0.0942 -2.7512  0.2911
  816MOL0     H10120   2.724   6.735   4.486  2.3229 -1.9876  0.2550
  816MOL0     H10121   2.954   6.652   4.513 -1.8359  1.7244  0.8558
  816MOL0     H10122   3.058   6.690   4.378 -0.9915 -0.1764 -0.8093
  816MOL0     H10123   3.063   6.799   4.524  0.9775 -1.0220  0.0298
  816MOL0     H10124   3.173   7.220   4.267  2.4904 -1.0737  2.2759
  816MOL0     H10125   3.373   7.359   4.226 -0.6095 -0.0060 -0.0031
  816MOL0     H10126   3.529   7.340   3.873 -1.1457  0.5502  1.1406
  816MOL0     H10127   3.549   7.480   3.962 -0.8294  0.3338 -2.2612
  816MOL0     H10128   3.778   7.287   3.905  0.3190  0.4149  0.1282
  816MOL0     H10129   3.742   7.430   3.812 -2.4510 -1.0374 -0.3119
  816MOL0     H10130   3.792   7.429   4.104  1.2469 -0.2271  0.8776
  816MOL0     H10131   3.793   7.568   3.981 -4.4230 -1.4304 -3.2908
  816MOL0     H10132   3.996   7.342   3.990 -3.8072 -0.8256  1.8859
  816MOL0     H10133   3.988   7.491   3.887  2.3342 -0.7109 -0.4902
  816MOL0     H10134   4.056   7.504   4.179  0.8265  2.4926  1.8383
  816MOL0     H10135   4.003   7.639   4.072  0.1319 -0.2108  0.7465
  816MOL0     H10136   4.217   7.434   4.064 -1.1217 -0.2482  1.4738
  816MOL0     H10137   4.197   7.545   3.920  2.6399 -0.8682 -0.1281
  816MOL0     H10138   4.289   7.611   4.195 -0.8448 -0.2402 -0.1431
  816MOL0     H10139   4.268   7.736   4.078 -0.8528  0.0467  3.3335
  816MOL0     H10140   4.433   7.645   3.924  2.6954  2.6527  1.1269
  816MOL0     H10141   4.480   7.529   4.039 -1.8149 -0.7262 -0.0745
  816MOL0     H10142   3.505   7.100   3.923 -2.1208  0.6991 -1.6493
  816MOL0     H10143   3.298   6.955   3.952 -3.1089 -0.8087  0.7327
  816MOL0     H10144   2.880   7.031   4.125  0.1760 -0.7427 -0.2454
  816MOL0     H10145   2.641   7.022   4.182 -2.6674 -0.5428  1.4592
  816MOL0     H10146   0.948   7.824   4.064  2.6014 -0.6504  0.3590
  816MOL0     H10147   0.732   7.827   3.904 -0.2396  1.2790 -0.9031
  816MOL0     H10148   0.491   7.875   3.644  1.5977 -3.1913  2.1664
  816MOL0     H10149   0.271   7.916   3.524  1.5086  0.7609  0.8562
  816MOL0     H10150  -0.038   7.773   3.363 -0.0874 -0.4306 -0.2458
  816MOL0     H10151   0.065   7.814   3.491  2.9693  2.4139 -0.8360
  816MOL0     H10152   0.107   7.963   3.240  0.9642 -3.9361  0.2485
  816MOL0     H10153   0.146   8.018   3.403  2.3384 -0.1596 -2.2207
  816MOL0     H10154  -0.050   8.136   3.358 -0.2672  0.0536  0.1764
  816MOL0     H10155  -0.098   8.010   3.466 -1.5766 -0.3928  0.2372
  816MOL0     H10156  -0.189   7.889   3.246  0.9273 -0.2683 -0.3719
  816MOL0     H10157  -0.133   8.037   3.160  0.4025  1.9685  0.5386
  816MOL0     H10158  -0.494   8.180   3.340 -0.8556  0.2387  3.4428
  816MOL0     H10159   0.336   7.550   3.308 -1.0691  0.7371 -0.5426
  816MOL0     H10160   0.556   7.533   3.409 -1.3848 -1.1935 -0.3271
  817MOL0     O10161   3.887   9.136  10.338 -0.4955  0.1443 -0.0964
  817MOL0     C10162   3.899   9.059  10.430 -1.1659  0.2705 -0.3035
  817MOL0     O10163   3.848   8.933  10.427 -0.4498  0.4805 -0.1894
  817MOL0     C10164   3.766   8.885  10.330  0.4445  0.0534 -0.2490
  817MOL0     C10165   3.774   8.896  10.182 -0.3237  0.4855 -0.8591
  817MOL0     C10166   3.699   8.821  10.099  0.4560 -0.7616  0.9063
  817MOL0     C10167   3.582   8.762  10.135 -0.2362  0.0183  0.5628
  817MOL0     O10168   3.509   8.678  10.049  0.3215  0.3497 -0.1148
  817MOL0     C10169   3.381   8.629  10.087  0.0823  0.2717 -0.4835
  817MOL0     C10170   3.309   8.549   9.977  0.4438  0.8046  0.2639
  817MOL0     C10171   3.184   8.456  10.023  0.1741  0.6205 -0.3601
  817MOL0     C10172   3.087   8.543  10.101 -0.6422 -0.8599  0.0722
  817MOL0     C10173   2.949   8.494  10.144  0.1658 -0.0591 -0.1907
  817MOL0     C10174   2.869   8.467  10.020  0.3307  0.1015 -0.0130
  817MOL0     C10175   2.738   8.406  10.062  0.2709 -0.6840  0.1430
  817MOL0     C10176   2.743   8.254  10.052  0.3849 -0.3937  0.2048
  817MOL0     N10177   2.613   8.199  10.092 -0.7447 -0.3142 -0.3481
  817MOL0     C10178   2.588   8.144  10.215  0.1027 -0.7641  0.3154
  817MOL0     C10179   2.466   8.097  10.196 -0.3409 -0.2505 -0.3243
  817MOL0     C10180   2.397   8.019  10.310  0.7560 -0.4953  0.1429
  817MOL0     C10181   2.296   7.917  10.259  0.1322  0.2731 -0.7758
  817MOL0     C10182   2.271   7.804  10.359  0.4348 -0.2800  0.2611
  817MOL0     C10183   2.196   7.689  10.282  0.0742 -0.4946 -0.4215
  817MOL0     O10184   2.065   7.677  10.329 -0.5884 -0.4636 -0.2465
  817MOL0     C10185   1.968   7.707  10.234 -0.3325  0.4274 -0.1264
  817MOL0     C10186   1.967   7.654  10.104 -0.0126  0.5887 -0.0288
  817MOL0     C10187   1.862   7.689  10.014 -0.0868  0.1981  1.0959
  817MOL0     C10188   1.877   7.630   9.875  0.7731  0.2139  0.4395
  817MOL0     C10189   1.750   7.772  10.059  1.2513  1.6745  1.1234
  817MOL0     C10190   1.620   7.799   9.985  0.0270 -0.2050 -0.4983
  817MOL0     O10191   1.506   7.837  10.050  0.0772  0.0121 -0.3021
  817MOL0     C10192   1.404   7.914   9.999  0.9166 -1.3118  0.0058
  817MOL0     C10193   1.445   8.025   9.912 -0.2261  0.2546 -0.5438
  817MOL0     C10194   1.340   8.112   9.864  0.5117 -0.0063 -0.0373
  817MOL0     C10195   1.201   8.082   9.894  0.1170  0.8571  0.4380
  817MOL0     O10196   1.096   8.151   9.847  0.0378 -0.6314  0.7079
  817MOL0     C10197   1.108   8.249   9.741  0.3737  0.3029 -0.8480
  817MOL0     C10198   0.961   8.265   9.695 -0.5921  0.7415 -0.4197
  817MOL0     C10199   0.944   8.348   9.573  0.2782  0.0986  0.4288
  817MOL0     C10200   0.797   8.329   9.527 -0.3319  0.3023 -0.3787
  817MOL0     C10201   0.750   8.433   9.421  0.4555  0.1756  0.4412
  817MOL0     C10202   0.597   8.450   9.439 -0.4589 -0.3757 -0.1581
  817MOL0     C10203   0.536   8.505   9.308  0.8609 -0.0755  0.2293
  817MOL0     C10204   0.393   8.516   9.328  0.5129 -0.1777 -0.0416
  817MOL0    Cl10205   0.317   8.356   9.363 -0.0103 -0.4193  0.2829
  817MOL0     C10206   1.171   7.975   9.982  0.0137 -0.3821  0.1819
  817MOL0     C10207   1.269   7.892  10.031  0.0512  0.0829 -0.7996
  817MOL0     O10208   1.622   7.783   9.864  0.1003  0.0248  0.3477
  817MOL0     C10209   1.748   7.813  10.192  0.2179 -0.0008 -1.1575
  817MOL0     C10210   1.856   7.782  10.277  0.0578 -0.4102 -0.4869
  817MOL0     N10211   2.418   8.124  10.074  0.0519  0.7122  0.4379
  817MOL0     N10212   2.507   8.184  10.006 -0.3559  0.1689 -0.3334
  817MOL0     C10213   3.557   8.754  10.275  0.3464  0.5018  0.7187
  817MOL0     C10214   3.648   8.813  10.364 -0.0459 -0.9157  0.8245
  817MOL0     C10215   3.972   9.103  10.548 -0.3875  1.0417  0.2015
  817MOL0     C10216   3.962   9.235  10.592 -0.6520  1.3164 -0.2529
  817MOL0     C10217   4.032   9.287  10.696 -0.7224  0.2903  0.1920
  817MOL0     C10218   4.102   9.204  10.782 -0.6890  0.2751  0.6929
  817MOL0     O10219   4.164   9.272  10.889 -0.3060 -0.0427  0.3067
  817MOL0     C10220   4.223   9.192  10.987  0.1519  0.2955  0.2369
  817MOL0     C10221   4.240   9.273  11.111 -0.0390  0.6266  0.1631
  817MOL0     C10222   4.266   9.179  11.231  0.0809  0.8131  0.5761
  817MOL0     C10223   4.143   9.139  11.311  0.1797 -0.4505 -1.4226
  817MOL0     C10224   4.178   9.021  11.394  0.5054  0.4566  0.4335
  817MOL0     C10225   4.215   8.923  11.453 -0.5788  0.2179 -0.1020
  817MOL0     C10226   4.115   9.064  10.751 -0.2722 -0.7545  0.7013
  817MOL0     C10227   4.053   9.015  10.635 -0.1013  0.0790 -0.0831
  817MOL0     H10228   3.855   8.955  10.141  1.9689 -2.3305 -0.7209
  817MOL0     H10229   3.720   8.828   9.992  1.7264 -0.9165  1.1286
  817MOL0     H10230   3.387   8.567  10.177 -1.9737  0.7955  0.0816
  817MOL0     H10231   3.325   8.720  10.111  2.4130  2.3157 -2.2981
  817MOL0     H10232   3.280   8.619   9.898 -2.7819 -1.3262 -0.6514
  817MOL0     H10233   3.384   8.481   9.934  0.3137 -0.9238  2.5743
  817MOL0     H10234   3.137   8.419   9.931 -1.2687  2.4958 -0.4323
  817MOL0     H10235   3.215   8.365  10.076  0.6686 -1.0649 -3.3431
  817MOL0     H10236   3.146   8.577  10.187  1.9022 -0.8640 -1.5652
  817MOL0     H10237   3.073   8.630  10.036  0.0171  0.4966  1.6768
  817MOL0     H10238   2.946   8.415  10.219  0.2879 -0.0736 -0.1994
  817MOL0     H10239   2.903   8.575  10.201 -3.4774 -2.9618  1.4190
  817MOL0     H10240   2.841   8.562   9.973 -1.8019 -0.1934  0.5247
  817MOL0     H10241   2.930   8.405   9.955  4.4217  2.8557  0.8175
  817MOL0     H10242   2.719   8.441  10.164  1.5081 -1.6640  0.7411
  817MOL0     H10243   2.663   8.440   9.990  0.3551 -0.3031  0.2341
  817MOL0     H10244   2.826   8.217  10.113  1.2469  1.6629  0.3734
  817MOL0     H10245   2.762   8.215   9.951 -0.0873 -2.9657  1.0412
  817MOL0     H10246   2.662   8.138  10.294 -1.7977  0.2329  2.2381
  817MOL0     H10247   2.475   7.969  10.369  0.0845 -2.8255 -0.8291
  817MOL0     H10248   2.343   8.092  10.371  0.5299 -0.8232  0.3416
  817MOL0     H10249   2.336   7.883  10.163  1.6764 -0.0356 -0.0565
  817MOL0     H10250   2.202   7.971  10.240 -0.7234  0.2466  2.6663
  817MOL0     H10251   2.206   7.858  10.428 -1.7989 -1.4689 -0.8324
  817MOL0     H10252   2.357   7.770  10.418  0.1439  0.9976  1.4921
  817MOL0     H10253   2.248   7.594  10.294  0.8016 -0.0765 -0.1751
  817MOL0     H10254   2.206   7.714  10.176  2.3217  1.3507  0.1409
  817MOL0     H10255   2.045   7.588  10.068  0.8933  0.3655  2.1535
  817MOL0     H10256   1.932   7.535   9.867  1.2392  0.3442  1.9160
  817MOL0     H10257   1.777   7.609   9.835  1.6930 -0.4752 -1.6517
  817MOL0     H10258   1.927   7.697   9.805 -0.5670  0.2696 -0.5247
  817MOL0     H10259   1.551   8.044   9.898 -0.6102  3.9281  0.6567
  817MOL0     H10260   1.366   8.200   9.806 -1.5929  1.3686  0.9658
  817MOL0     H10261   1.151   8.340   9.785 -2.4040  2.2736 -1.8982
  817MOL0     H10262   1.163   8.194   9.664 -0.6476 -3.2542  0.7538
  817MOL0     H10263   0.912   8.168   9.682 -2.0397  1.7323 -2.8261
  817MOL0     H10264   0.899   8.296   9.779 -3.3903  0.1234 -2.1428
  817MOL0     H10265   1.014   8.321   9.494 -1.9702  1.2528 -2.1379
  817MOL0     H10266   0.957   8.454   9.597 -0.6616 -0.4468  3.8363
  817MOL0     H10267   0.791   8.230   9.481 -0.8565  0.8038 -1.4099
  817MOL0     H10268   0.732   8.341   9.614  1.3190  1.9075  0.7179
  817MOL0     H10269   0.768   8.390   9.322  2.6633 -1.1838  1.3404
  817MOL0     H10270   0.793   8.533   9.421 -0.6418  0.8725 -4.4123
  817MOL0     H10271   0.545   8.353   9.444 -0.3024 -0.4186  0.8094
  817MOL0     H10272   0.573   8.501   9.533  1.1446  0.9289 -0.4252
  817MOL0     H10273   0.555   8.430   9.231  1.2790  2.9358 -2.8479
  817MOL0     H10274   0.579   8.603   9.282 -1.9873  1.2873  0.2738
  817MOL0     H10275   0.343   8.574   9.250  0.9117  1.9317  1.1782
  817MOL0     H10276   0.383   8.574   9.421  0.7992 -0.4252  0.1431
  817MOL0     H10277   1.065   7.969  10.003 -1.0038  1.4958 -3.4949
  817MOL0     H10278   1.233   7.804  10.082 -0.5233  0.4186 -0.6211
  817MOL0     H10279   1.664   7.864  10.239 -1.7775 -2.7633 -1.4565
  817MOL0     H10280   1.859   7.810  10.382 -1.0459 -1.5413 -0.1391
  817MOL0     H10281   3.477   8.697  10.321 -0.0484  1.4222  1.1994
  817MOL0     H10282   3.634   8.803  10.471  0.0151 -0.0356  0.9187
  817MOL0     H10283   3.912   9.306  10.528  0.6722  1.2808 -1.3730
  817MOL0     H10284   4.032   9.391  10.725 -2.1606  0.3187  0.1859
  817MOL0     H10285   4.158   9.108  11.010  1.2469 -0.9122 -0.9112
  817MOL0     H10286   4.320   9.153  10.955  0.1838  0.1660  0.4879
  817MOL0     H10287   4.146   9.322  11.137 -1.2794 -0.9298 -1.1626
  817MOL0     H10288   4.323   9.342  11.094 -0.4222  0.8566 -0.8983
  817MOL0     H10289   4.338   9.235  11.291  0.0795  2.0759 -0.5496
  817MOL0     H10290   4.316   9.085  11.205  0.4313 -0.0626  3.9371
  817MOL0     H10291   4.056   9.120  11.248 -1.3636 -0.2533  0.5651
  817MOL0     H10292   4.106   9.217  11.379  0.6738 -2.8130  1.8268
  817MOL0     H10293   4.253   8.832  11.493  0.8871  0.6186 -0.5481
  817MOL0     H10294   4.182   8.995  10.802 -0.7790 -0.2624  2.0592
  817MOL0     H10295   4.071   8.911  10.613 -1.7708  0.4279 -3.9222
  818MOL0     O10296   4.759   0.086   2.186  0.5142 -0.1882 -0.0012
  818MOL0     C10297   4.846   0.112   2.272 -0.2765  0.2709 -0.1706
  818MOL0     O10298   4.820   0.170   2.396  0.6591  0.3693  0.5494
  818MOL0     C10299   4.693   0.226   2.419 -0.6197  0.6990  0.1962
  818MOL0     C10300   4.640   0.320   2.326 -0.2993  0.5994  0.1566
  818MOL0     C10301   4.515   0.378   2.343 -0.0994 -0.4746 -0.2557
  818MOL0     C10302   4.432   0.348   2.449 -0.4623  0.1038  0.2400
  818MOL0     O10303   4.308   0.394   2.471  0.6161  0.1778 -0.2737
  818MOL0     C10304   4.254   0.479   2.376 -0.5577 -0.5003 -0.4549
  818MOL0     C10305   4.214   0.412   2.240 -0.9493 -0.3392  0.7651
  818MOL0     C10306   4.234   0.495   2.117 -0.4917  0.2538 -0.6469
  818MOL0     C10307   4.216   0.418   1.989 -0.3532 -0.4642 -1.5068
  818MOL0     C10308   4.202   0.511   1.861  0.5803 -0.0150  0.8568
  818MOL0     C10309   4.178   0.434   1.738 -0.2186  0.2429  0.2990
  818MOL0     C10310   4.169   0.513   1.600 -0.4012 -0.3104  0.6237
  818MOL0     C10311   4.062   0.616   1.617 -0.3212 -0.4180  0.2414
  818MOL0     N10312   4.016   0.665   1.483 -0.5042  0.4495  0.0106
  818MOL0     C10313   4.009   0.795   1.444 -0.3931  0.8593  0.8083
  818MOL0     C10314   3.966   0.789   1.317  0.6436  0.5969  0.2025
  818MOL0     C10315   3.972   0.901   1.224  0.2120 -0.2648  0.5542
  818MOL0     C10316   4.100   0.925   1.148 -0.7571 -0.2344  0.0036
  818MOL0     C10317   4.218   0.920   1.242 -0.0451 -0.7802 -0.2107
  818MOL0     C10318   4.337   0.982   1.172 -0.5209 -0.9343  0.8537
  818MOL0     O10319   4.365   0.903   1.058 -0.0655 -0.0996 -0.2746
  818MOL0     C10320   4.481   0.928   1.000 -0.1195 -0.6917  0.2780
  818MOL0     C10321   4.550   1.049   1.001  0.6614 -0.2418 -0.0790
  818MOL0     C10322   4.662   1.081   0.924  0.6122  0.1303 -0.4162
  818MOL0     C10323   4.714   1.217   0.938 -0.4625  0.2733 -0.6280
  818MOL0     C10324   4.711   0.976   0.849 -0.0994  1.4390 -0.4999
  818MOL0     C10325   4.835   0.984   0.770  0.4704 -0.5345 -0.7943
  818MOL0     O10326   4.905   0.871   0.751  0.3539 -0.1384 -0.4479
  818MOL0     C10327   4.996   0.867   0.653 -0.6747  0.2909 -0.3743
  818MOL0     C10328   4.986   0.911   0.520  0.8918 -0.0822 -0.0456
  818MOL0     C10329   5.102   0.908   0.436 -0.2728  0.5825 -0.2970
  818MOL0     C10330   5.229   0.872   0.487 -0.5768  1.1083 -0.0884
  818MOL0     O10331   5.333   0.867   0.391 -0.1745 -0.5497 -0.5774
  818MOL0     C10332   5.464   0.863   0.456  0.1276  0.3119  0.7605
  818MOL0     C10333   5.579   0.905   0.357  0.1087  0.0947 -0.5301
  818MOL0     C10334   5.628   0.782   0.277  0.5223 -0.1491  0.7593
  818MOL0     C10335   5.731   0.815   0.175  0.1045  0.0673  0.0156
  818MOL0     C10336   5.799   0.690   0.098 -0.1126  0.0698 -0.0209
  818MOL0     C10337   5.948   0.702   0.066 -0.9567  0.2651 -0.4283
  818MOL0     C10338   5.977   0.828  -0.005  0.0847  0.5150 -0.1595
  818MOL0     C10339   6.122   0.820  -0.065  0.0927  0.5766  1.0656
  818MOL0    Cl10340   6.249   0.817   0.066 -0.0908  0.8906 -0.0520
  818MOL0     C10341   5.242   0.833   0.620  0.7656 -0.2232  0.2877
  818MOL0     C10342   5.127   0.836   0.703 -0.1073 -0.0427 -0.7549
  818MOL0     O10343   4.861   1.091   0.717  0.0311  0.4302 -0.1942
  818MOL0     C10344   4.651   0.848   0.851 -0.4273 -0.0557 -0.4948
  818MOL0     C10345   4.538   0.827   0.917  1.0871  0.6175 -0.1983
  818MOL0     N10346   3.939   0.663   1.275  0.5634  0.0144  0.1444
  818MOL0     N10347   3.979   0.588   1.374  0.3611  0.1433  0.2117
  818MOL0     C10348   4.486   0.257   2.539  0.4934  0.4369 -0.5302
  818MOL0     C10349   4.612   0.204   2.529  0.3853  0.3216  0.7149
  818MOL0     C10350   4.988   0.050   2.253  0.5961 -0.0118  0.7313
  818MOL0     C10351   5.088   0.069   2.354 -0.0087 -0.5545  0.1420
  818MOL0     C10352   5.209   0.006   2.338  0.0114 -0.0072  1.4532
  818MOL0     C10353   5.248  -0.070   2.227 -0.2503 -0.1665  0.5865
  818MOL0     O10354   5.375  -0.110   2.215  0.4037 -0.6047  0.1579
  818MOL0     C10355   5.410  -0.235   2.274 -0.0444  0.2566  0.4790
  818MOL0     C10356   5.423  -0.341   2.164 -0.0444  0.6670 -0.3240
  818MOL0     C10357   5.547  -0.316   2.076 -0.8164 -0.0339  0.2870
  818MOL0     C10358   5.563  -0.398   1.953 -0.9745  0.6939  0.8486
  818MOL0     C10359   5.473  -0.376   1.843 -0.9576  0.6261  0.4051
  818MOL0     C10360   5.399  -0.362   1.750  0.0229 -1.0406  0.5627
  818MOL0     C10361   5.152  -0.084   2.127 -0.3950 -0.6261  0.0356
  818MOL0     C10362   5.016  -0.036   2.142 -1.5887  0.3716 -0.9874
  818MOL0     H10363   4.691   0.337   2.231 -2.0392  3.2527 -0.4047
  818MOL0     H10364   4.479   0.448   2.268  0.1597  0.0679  0.1237
  818MOL0     H10365   4.161   0.515   2.421 -0.5549  2.0784 -2.2552
  818MOL0     H10366   4.314   0.568   2.354  0.6169 -0.8947  1.0013
  818MOL0     H10367   4.261   0.313   2.238 -1.2207 -0.4967 -2.1731
  818MOL0     H10368   4.107   0.400   2.258 -1.2262  1.7507  0.6953
  818MOL0     H10369   4.156   0.572   2.115  1.2450  2.1005 -0.5971
  818MOL0     H10370   4.329   0.547   2.107 -0.5457  0.2905 -0.9869
  818MOL0     H10371   4.293   0.342   1.986 -2.2292 -2.4655 -1.2493
  818MOL0     H10372   4.123   0.362   2.002  0.2533 -0.9007  2.0464
  818MOL0     H10373   4.114   0.573   1.878  0.0333 -1.6140  5.4442
  818MOL0     H10374   4.280   0.587   1.852  1.0392 -0.3160  2.0173
  818MOL0     H10375   4.257   0.358   1.733 -2.5390 -2.3744  1.2361
  818MOL0     H10376   4.083   0.386   1.760  0.6485 -1.7837 -0.1947
  818MOL0     H10377   4.266   0.559   1.582  0.1181 -0.8056  2.0256
  818MOL0     H10378   4.154   0.444   1.517  1.8407  0.1649 -0.2365
  818MOL0     H10379   4.106   0.699   1.672 -1.4977 -0.0005  0.5867
  818MOL0     H10380   3.978   0.572   1.672 -1.6661  0.9511 -0.6105
  818MOL0     H10381   4.049   0.881   1.498 -0.5362 -0.1062  2.5066
  818MOL0     H10382   3.886   0.901   1.158 -0.8013  0.1895  1.8304
  818MOL0     H10383   3.951   0.985   1.291  0.1232  0.7105 -0.6610
  818MOL0     H10384   4.102   1.021   1.096  1.6725  0.6657  1.5849
  818MOL0     H10385   4.114   0.846   1.073 -3.0308 -1.1529  0.4576
  818MOL0     H10386   4.247   0.817   1.269  2.1908 -0.3726 -0.7935
  818MOL0     H10387   4.202   0.984   1.329  0.1300 -0.9234 -0.0707
  818MOL0     H10388   4.424   0.992   1.239 -0.6609 -2.5252  1.3149
  818MOL0     H10389   4.307   1.083   1.145  1.5133  0.2484  2.6361
  818MOL0     H10390   4.506   1.133   1.054  0.6750 -0.2929  0.0123
  818MOL0     H10391   4.822   1.212   0.921 -0.6969  0.1317 -2.2750
  818MOL0     H10392   4.675   1.298   0.876  0.2781  2.2147  1.3259
  818MOL0     H10393   4.699   1.246   1.042  0.6675 -3.3057  0.7032
  818MOL0     H10394   4.892   0.944   0.477  0.2992 -1.7422 -0.0854
  818MOL0     H10395   5.087   0.936   0.332  1.4469  5.0852  0.4496
  818MOL0     H10396   5.458   0.935   0.539  0.0311 -1.2997  2.2092
  818MOL0     H10397   5.490   0.764   0.494  0.7803  0.0184 -0.4014
  818MOL0     H10398   5.539   0.988   0.298 -1.8865 -0.3340  0.1490
  818MOL0     H10399   5.663   0.934   0.421 -0.1330 -0.6639  0.1444
  818MOL0     H10400   5.548   0.728   0.225  0.9132  0.9342 -1.0400
  818MOL0     H10401   5.669   0.707   0.346  0.3326  0.5266  1.6215
  818MOL0     H10402   5.700   0.883   0.094  1.1216 -2.1922 -2.4183
  818MOL0     H10403   5.801   0.866   0.241 -0.8550  0.3302  0.8637
  818MOL0     H10404   5.735   0.656   0.016 -3.7188 -0.6039  2.7813
  818MOL0     H10405   5.801   0.606   0.168  2.7809  0.3443  0.3316
  818MOL0     H10406   6.005   0.694   0.159 -0.7206  1.4780 -0.4583
  818MOL0     H10407   5.981   0.621   0.000  2.8534  0.5116  0.9246
  818MOL0     H10408   5.981   0.909   0.068  0.5985 -0.0340  0.4362
  818MOL0     H10409   5.897   0.842  -0.078  1.5188 -2.5062 -2.5319
  818MOL0     H10410   6.136   0.907  -0.129  3.5121 -1.5081 -1.3543
  818MOL0     H10411   6.123   0.728  -0.125 -0.2340  1.6569 -0.6546
  818MOL0     H10412   5.337   0.802   0.660  1.0172  2.0057  1.5836
  818MOL0     H10413   5.122   0.794   0.804  0.8701  0.5788 -0.4385
  818MOL0     H10414   4.688   0.757   0.804  3.1244 -1.0631  3.5924
  818MOL0     H10415   4.479   0.736   0.917  0.7669  0.7587 -2.7523
  818MOL0     H10416   4.424   0.232   2.624 -0.7505  2.1232 -0.8749
  818MOL0     H10417   4.649   0.134   2.603  0.7629 -2.2434 -1.7369
  818MOL0     H10418   5.054   0.117   2.445 -3.6698 -1.4746 -0.5718
  818MOL0     H10419   5.284   0.018   2.415  3.3171 -1.1139 -1.3543
  818MOL0     H10420   5.507  -0.230   2.325 -0.7305 -1.5303  2.0853
  818MOL0     H10421   5.333  -0.282   2.337  0.6282 -3.7031 -1.3558
  818MOL0     H10422   5.329  -0.345   2.109 -0.4788 -1.9922  0.4595
  818MOL0     H10423   5.444  -0.445   2.192 -1.3282 -0.2759 -2.6013
  818MOL0     H10424   5.629  -0.352   2.138  1.4978 -1.6785 -3.4027
  818MOL0     H10425   5.563  -0.210   2.052  0.3549 -0.7054 -2.2778
  818MOL0     H10426   5.554  -0.504   1.977 -1.0220  0.0556 -1.7156
  818MOL0     H10427   5.665  -0.381   1.917 -1.4343  0.1908 -0.7913
  818MOL0     H10428   5.330  -0.337   1.672 -0.6097  0.3990  1.5325
  818MOL0     H10429   5.186  -0.133   2.036 -1.3173  1.2156 -1.3799
  818MOL0     H10430   4.942  -0.058   2.065 -2.4443 -0.7323  0.1173
  819MOL0     O10431   6.893   5.301   9.507 -0.0102 -0.3561 -0.0002
  819MOL0     C10432   6.900   5.227   9.411 -0.0531 -0.5000  0.2804
  819MOL0     O10433   6.792   5.150   9.357  0.2130  0.4038  0.2218
  819MOL0     C10434   6.666   5.141   9.421 -0.2309 -0.4276  0.3297
  819MOL0     C10435   6.621   5.169   9.552 -0.2958  0.7142 -0.3055
  819MOL0     C10436   6.493   5.187   9.588  0.4000 -0.1792  0.0573
  819MOL0     C10437   6.389   5.166   9.496 -0.4623 -0.6579  0.5590
  819MOL0     O10438   6.255   5.167   9.521 -0.0359 -0.7497 -0.0803
  819MOL0     C10439   6.218   5.247   9.643 -0.5636  0.7468 -0.1501
  819MOL0     C10440   6.069   5.296   9.656  0.0852  0.3506 -0.5531
  819MOL0     C10441   5.967   5.186   9.658 -0.1589  0.0380  0.5000
  819MOL0     C10442   5.831   5.237   9.690 -0.1812  0.2316 -0.0772
  819MOL0     C10443   5.725   5.120   9.688 -0.4762 -0.0355 -0.4690
  819MOL0     C10444   5.585   5.160   9.722 -0.3972  0.2211  0.2825
  819MOL0     C10445   5.574   5.262   9.839 -0.9939 -0.1615 -0.3305
  819MOL0     C10446   5.434   5.274   9.903 -0.2747  1.1212  0.0466
  819MOL0     N10447   5.338   5.312   9.798  0.3158  0.2009  0.1231
  819MOL0     C10448   5.217   5.252   9.779  0.4345  0.1130 -0.2110
  819MOL0     C10449   5.135   5.350   9.734  0.2918 -0.6638  0.6744
  819MOL0     C10450   4.996   5.332   9.692  0.0542  0.1040  0.1822
  819MOL0     C10451   4.969   5.333   9.540  0.3524  0.2547 -0.2923
  819MOL0     C10452   5.007   5.466   9.472 -0.1403 -0.0746 -0.1644
  819MOL0     C10453   4.949   5.476   9.325 -0.7155  0.2865  1.0973
  819MOL0     O10454   4.806   5.489   9.339  0.2029 -0.4563  1.1226
  819MOL0     C10455   4.720   5.459   9.236 -0.0995  0.0987  0.0605
  819MOL0     C10456   4.590   5.468   9.277 -0.2564  0.2589 -0.7968
  819MOL0     C10457   4.476   5.455   9.195 -0.0237 -0.0173 -0.4165
  819MOL0     C10458   4.342   5.489   9.253  0.3030 -0.1041  0.2239
  819MOL0     C10459   4.493   5.416   9.061  0.0864 -0.1184  0.5596
  819MOL0     C10460   4.385   5.397   8.959  0.1805  1.0856  0.4965
  819MOL0     O10461   4.413   5.398   8.832  0.2169  0.5484  0.0720
  819MOL0     C10462   4.316   5.360   8.746  0.7580 -0.1767 -0.0946
  819MOL0     C10463   4.192   5.423   8.737 -1.0986 -0.9809  0.2713
  819MOL0     C10464   4.098   5.369   8.642 -0.6996 -0.0307 -0.3532
  819MOL0     C10465   4.113   5.255   8.581 -0.3992 -0.3958 -0.1608
  819MOL0     O10466   4.018   5.200   8.500 -0.2850 -0.0831  0.6191
  819MOL0     C10467   3.886   5.253   8.494 -0.2706 -0.4508 -0.3538
  819MOL0     C10468   3.786   5.170   8.416 -0.9168 -0.0570 -0.5237
  819MOL0     C10469   3.810   5.193   8.263 -0.5298  0.3227 -1.2485
  819MOL0     C10470   3.731   5.098   8.173 -0.1436  0.0885 -0.3007
  819MOL0     C10471   3.681   5.160   8.041  0.8299 -0.0818 -1.0845
  819MOL0     C10472   3.614   5.042   7.955  0.5077 -0.2863  0.7008
  819MOL0     C10473   3.553   5.114   7.830  0.2221 -0.8734  0.9450
  819MOL0     C10474   3.466   5.020   7.745 -0.2437 -0.5052 -0.6636
  819MOL0    Cl10475   3.344   5.117   7.662 -0.0316  0.1675  0.3137
  819MOL0     C10476   4.232   5.192   8.602 -0.1697  0.8874 -0.3199
  819MOL0     C10477   4.335   5.241   8.679  0.5696  0.2314  0.4869
  819MOL0     O10478   4.281   5.361   9.006  0.0010  0.1362 -0.5622
  819MOL0     C10479   4.631   5.404   9.018  0.5925  0.1722 -0.5007
  819MOL0     C10480   4.743   5.430   9.102 -0.0235 -0.0982 -0.5937
  819MOL0     N10481   5.216   5.451   9.707 -0.8688 -0.4313  0.8868
  819MOL0     N10482   5.329   5.437   9.762  0.3613  0.1590 -0.0696
  819MOL0     C10483   6.425   5.134   9.358  0.1885  0.8054 -0.6779
  819MOL0     C10484   6.561   5.125   9.327 -0.5026 -0.2071 -0.4029
  819MOL0     C10485   7.030   5.210   9.352  0.6669  0.1150  1.0201
  819MOL0     C10486   7.040   5.160   9.219  0.7002 -0.7446  0.2865
  819MOL0     C10487   7.164   5.150   9.161  0.7653  1.2360  0.0073
  819MOL0     C10488   7.280   5.175   9.232 -0.0402  0.4200  0.4512
  819MOL0     O10489   7.400   5.139   9.178 -0.0465 -0.2829 -0.0241
  819MOL0     C10490   7.504   5.089   9.274  0.0575 -0.2996 -0.9626
  819MOL0     C10491   7.593   5.005   9.201 -0.0004  0.9900 -0.0943
  819MOL0     C10492   7.702   5.074   9.121  0.4033 -0.6343 -0.2092
  819MOL0     C10493   7.806   4.967   9.073 -0.0119 -0.1888  0.5257
  819MOL0     C10494   7.767   4.876   8.964  0.1204 -1.0353  0.5319
  819MOL0     C10495   7.728   4.780   8.892  0.7000  0.1919 -0.2885
  819MOL0     C10496   7.270   5.215   9.369 -0.1330 -0.0033 -0.4032
  819MOL0     C10497   7.143   5.238   9.426  0.4045  0.5362  0.1958
  819MOL0     H10498   6.697   5.195   9.626  0.4705  0.8548 -1.1338
  819MOL0     H10499   6.483   5.232   9.686  3.4614  0.7693  0.0415
  819MOL0     H10500   6.243   5.188   9.732 -2.0844 -0.7495 -0.6625
  819MOL0     H10501   6.270   5.343   9.645 -1.9039  1.5433 -1.8780
  819MOL0     H10502   6.064   5.341   9.755  1.0655 -0.3388 -0.1750
  819MOL0     H10503   6.044   5.365   9.575 -1.9448 -1.5244 -1.6561
  819MOL0     H10504   5.962   5.144   9.557  0.8294  2.4335 -0.6213
  819MOL0     H10505   6.002   5.112   9.731 -1.5528 -1.3504 -0.1858
  819MOL0     H10506   5.829   5.282   9.790 -0.2290 -0.9629  0.4684
  819MOL0     H10507   5.817   5.313   9.612  2.4180  0.0722 -0.7997
  819MOL0     H10508   5.729   5.074   9.588  0.2296  1.3150 -1.0803
  819MOL0     H10509   5.755   5.046   9.763 -0.8304 -0.7133 -0.9750
  819MOL0     H10510   5.547   5.212   9.634 -2.5201 -0.6830  0.6007
  819MOL0     H10511   5.518   5.075   9.739  0.9336 -0.5438  1.9288
  819MOL0     H10512   5.639   5.227   9.919 -2.0282  1.6744  1.3975
  819MOL0     H10513   5.615   5.359   9.809  1.5992 -1.4689 -1.2537
  819MOL0     H10514   5.419   5.331   9.995  0.3507 -1.5784  1.9413
  819MOL0     H10515   5.408   5.172   9.934  1.0082  1.5872  3.0706
  819MOL0     H10516   5.172   5.156   9.804  0.0939 -0.5349 -2.9508
  819MOL0     H10517   4.951   5.242   9.735 -1.5244  0.4609 -0.6378
  819MOL0     H10518   4.949   5.418   9.741 -1.7492 -1.9284  2.2438
  819MOL0     H10519   4.862   5.319   9.520  0.2197 -1.1379  1.2229
  819MOL0     H10520   5.014   5.245   9.494  0.1808 -0.1117  0.2336
  819MOL0     H10521   5.114   5.483   9.459 -0.7544  3.5185 -1.9178
  819MOL0     H10522   4.969   5.549   9.533 -1.5793 -0.6294 -0.2765
  819MOL0     H10523   4.972   5.374   9.291 -2.8736  0.0583  0.1723
  819MOL0     H10524   4.985   5.558   9.261 -1.1992 -0.5065 -0.2400
  819MOL0     H10525   4.564   5.473   9.382 -3.0590 -0.2415 -1.3836
  819MOL0     H10526   4.298   5.390   9.269  2.2742 -1.6454 -2.8976
  819MOL0     H10527   4.344   5.556   9.339 -0.1473 -0.6243  0.6457
  819MOL0     H10528   4.284   5.539   9.175 -0.1529 -0.7051  0.1703
  819MOL0     H10529   4.172   5.520   8.781 -4.4084 -1.2001 -0.5211
  819MOL0     H10530   4.009   5.419   8.606 -0.9873 -1.8532 -2.3377
  819MOL0     H10531   3.840   5.263   8.593  0.3178 -1.7263  0.0662
  819MOL0     H10532   3.877   5.354   8.452  2.0205  1.3466  3.0732
  819MOL0     H10533   3.801   5.064   8.439 -0.3367  0.3082  0.8488
  819MOL0     H10534   3.686   5.203   8.443 -0.8934  1.6170 -2.3102
  819MOL0     H10535   3.914   5.191   8.230 -1.5123 -1.3476 -4.7144
  819MOL0     H10536   3.779   5.297   8.247  0.1231  1.3800  3.0192
  819MOL0     H10537   3.791   5.009   8.152  1.5431  1.3764 -1.1308
  819MOL0     H10538   3.640   5.076   8.230 -0.5011  0.3110 -0.7807
  819MOL0     H10539   3.762   5.211   7.989  0.4553  2.0726  0.3029
  819MOL0     H10540   3.599   5.229   8.064  0.0717  0.2117 -4.1622
  819MOL0     H10541   3.680   4.957   7.934  1.5367  0.9640 -1.6571
  819MOL0     H10542   3.532   5.000   8.013 -1.9289  1.8672 -0.9587
  819MOL0     H10543   3.628   5.152   7.760 -1.6803 -1.6999 -1.6427
  819MOL0     H10544   3.487   5.191   7.871  0.8462  1.7470 -2.5380
  819MOL0     H10545   3.410   4.956   7.815 -2.1073  2.2069  0.4907
  819MOL0     H10546   3.528   4.958   7.680 -2.3583 -0.5993 -2.6884
  819MOL0     H10547   4.250   5.090   8.567 -0.0029  0.7887  0.0530
  819MOL0     H10548   4.434   5.198   8.691  0.6533  0.5581  1.0049
  819MOL0     H10549   4.644   5.375   8.914 -0.6048 -0.7242 -0.4238
  819MOL0     H10550   4.846   5.416   9.071  0.8309 -1.1987  2.3940
  819MOL0     H10551   6.345   5.107   9.291 -1.2349 -0.3625  1.3696
  819MOL0     H10552   6.584   5.101   9.224  0.2718 -0.3831 -0.1964
  819MOL0     H10553   6.957   5.112   9.169 -0.0934  0.4607  0.4209
  819MOL0     H10554   7.180   5.092   9.071  3.7669  1.1968  0.4757
  819MOL0     H10555   7.554   5.173   9.323 -1.3556  0.9156 -1.5142
  819MOL0     H10556   7.463   5.019   9.347 -0.0464  1.2428  0.5428
  819MOL0     H10557   7.537   4.940   9.133 -0.2212  0.8260  0.2439
  819MOL0     H10558   7.644   4.938   9.271 -0.0136 -0.3626 -1.3234
  819MOL0     H10559   7.761   5.140   9.185  0.9666 -1.6723  0.3840
  819MOL0     H10560   7.657   5.136   9.044  1.6238  0.6213  0.0342
  819MOL0     H10561   7.827   4.894   9.152  0.5029  0.2263  0.7791
  819MOL0     H10562   7.894   5.024   9.043 -1.4639  0.5492 -2.8528
  819MOL0     H10563   7.713   4.699   8.823 -1.5403 -0.1191  0.4745
  819MOL0     H10564   7.363   5.228   9.423  0.1504  0.6344 -1.0283
  819MOL0     H10565   7.133   5.288   9.522 -0.6015  0.4008  0.1731
  820MOL0     O10566  10.703  10.871   7.634  0.3053 -0.4907  0.6048
  820MOL0     C10567  10.750  10.959   7.561 -1.1040 -0.1260 -0.0120
  820MOL0     O10568  10.676  11.037   7.478 -0.2223  0.2798  1.1304
  820MOL0     C10569  10.548  11.012   7.450 -0.0544 -0.3349 -0.2727
  820MOL0     C10570  10.506  11.008   7.314 -0.4042  0.2814  0.5033
  820MOL0     C10571  10.378  10.964   7.289 -0.6718  0.2911 -0.0429
  820MOL0     C10572  10.285  10.941   7.390 -0.4273  0.3779 -0.0056
  820MOL0     O10573  10.159  10.905   7.354 -0.2767 -0.1592 -0.3582
  820MOL0     C10574  10.045  10.948   7.433  0.1548  0.3154 -0.2350
  820MOL0     C10575  10.027  11.097   7.433  0.4529 -0.2502  0.3685
  820MOL0     C10576   9.960  11.142   7.306 -0.0449 -0.6321  0.2710
  820MOL0     C10577   9.812  11.111   7.293  0.0415  0.2960  0.1479
  820MOL0     C10578   9.760  11.137   7.145 -0.5144 -1.0689 -0.6717
  820MOL0     C10579   9.630  11.225   7.148 -0.9302  0.4235 -0.4355
  820MOL0     C10580   9.579  11.262   7.012 -0.1300 -0.0394  0.1891
  820MOL0     C10581   9.557  11.138   6.922  0.3872 -0.7854 -0.4532
  820MOL0     N10582   9.449  11.042   6.968  0.0889 -0.1735 -0.1401
  820MOL0     C10583   9.327  11.082   7.019  0.5577 -0.9955  0.2051
  820MOL0     C10584   9.246  10.974   7.030 -0.2228 -0.1689  0.7342
  820MOL0     C10585   9.096  10.960   7.081 -0.2366 -0.5087  0.0433
  820MOL0     C10586   9.047  11.091   7.134  0.0058 -0.0416  0.1365
  820MOL0     C10587   8.897  11.103   7.161 -0.2006  0.5992 -0.2400
  820MOL0     C10588   8.848  11.031   7.281  0.6747  0.2296 -0.4620
  820MOL0     O10589   8.711  11.062   7.322 -0.5614 -0.0916  0.1393
  820MOL0     C10590   8.606  11.030   7.237 -1.2390  1.2144  0.6880
  820MOL0     C10591   8.490  11.102   7.249 -0.4139 -0.0624 -0.0912
  820MOL0     C10592   8.368  11.072   7.184 -0.6360  0.1120 -0.0058
  820MOL0     C10593   8.249  11.149   7.215  0.4980 -0.1516 -0.8814
  820MOL0     C10594   8.366  10.959   7.094 -0.3450  0.9168 -1.0774
  820MOL0     C10595   8.239  10.930   7.023  0.7861 -0.1652  0.4561
  820MOL0     O10596   8.255  10.905   6.891  0.0654 -0.2882 -0.6506
  820MOL0     C10597   8.168  10.820   6.827 -0.3531 -0.4007 -0.0193
  820MOL0     C10598   8.203  10.689   6.796  0.5807  0.6254  0.8748
  820MOL0     C10599   8.116  10.615   6.718 -1.0816  1.2594  0.9462
  820MOL0     C10600   7.986  10.655   6.677 -0.9777  0.0187  0.4974
  820MOL0     O10601   7.906  10.581   6.596 -0.7664  0.2163  0.4386
  820MOL0     C10602   7.768  10.623   6.580 -0.2173 -0.0419 -0.2996
  820MOL0     C10603   7.679  10.589   6.699  0.6070  0.8453 -0.3442
  820MOL0     C10604   7.534  10.569   6.650  0.0204  0.6456 -0.1543
  820MOL0     C10605   7.438  10.517   6.758  0.3686 -0.4510 -0.2000
  820MOL0     C10606   7.295  10.550   6.718 -0.2870  0.0305 -1.0917
  820MOL0     C10607   7.186  10.497   6.818  0.2360  0.2470 -0.2050
  820MOL0     C10608   7.173  10.348   6.791  0.2220  0.1594 -0.1460
  820MOL0     C10609   7.128  10.272   6.917 -0.2451 -0.5127 -0.1251
  820MOL0    Cl10610   6.964  10.332   6.948  0.0744  0.1891  0.0622
  820MOL0     C10611   7.954  10.784   6.721  0.0089 -0.3408  0.2642
  820MOL0     C10612   8.041  10.867   6.792 -0.4396 -0.2008  0.6911
  820MOL0     O10613   8.140  10.895   7.093  0.1611  0.2561 -0.1428
  820MOL0     C10614   8.488  10.884   7.066  0.3802 -0.4507 -0.7890
  820MOL0     C10615   8.605  10.931   7.135 -0.5628 -0.1262  0.9741
  820MOL0     N10616   9.316  10.866   6.964  0.1276 -1.0686  0.1011
  820MOL0     N10617   9.435  10.911   6.931  1.0651 -0.5209  0.8361
  820MOL0     C10618  10.322  10.948   7.524  0.0375 -0.9812  0.0310
  820MOL0     C10619  10.452  10.982   7.546 -0.4861  0.2365 -0.1714
  820MOL0     C10620  10.896  10.986   7.565  0.5427 -0.7354 -0.1116
  820MOL0     C10621  10.977  10.909   7.650  0.6144 -0.5069  0.0097
  820MOL0     C10622  11.115  10.930   7.659 -0.2342  0.3565 -1.0133
  820MOL0     C10623  11.177  11.026   7.575  0.4681 -0.1771 -0.1796
  820MOL0     O10624  11.314  11.043   7.578  0.1224  0.3618 -0.1293
  820MOL0     C10625  11.384  10.978   7.474 -1.1828 -0.2310 -0.2159
  820MOL0     C10626  11.397  10.825   7.482 -1.0140  0.0837 -0.2927
  820MOL0     C10627  11.510  10.771   7.400  0.1047  0.6693  0.2366
  820MOL0     C10628  11.509  10.617   7.394  0.1896 -1.1797 -0.0473
  820MOL0     C10629  11.632  10.563   7.332  0.3837 -0.0007 -0.6306
  820MOL0     C10630  11.737  10.524   7.289  0.8398 -1.0900  0.4111
  820MOL0     C10631  11.093  11.104   7.489 -0.4029 -0.2726 -0.0883
  820MOL0     C10632  10.958  11.077   7.475  0.8570  0.3900 -0.6665
  820MOL0     H10633  10.571  11.018   7.228 -1.0622 -0.6220 -0.1253
  820MOL0     H10634  10.362  10.962   7.181  0.0446 -1.0328 -0.1442
  820MOL0     H10635   9.953  10.897   7.402 -1.1142  1.1345  1.9635
  820MOL0     H10636  10.060  10.920   7.537  0.5933 -2.7635 -1.0175
  820MOL0     H10637   9.967  11.120   7.521 -2.4361  2.4201 -2.0657
  820MOL0     H10638  10.119  11.153   7.454 -0.9116  2.9959 -1.5675
  820MOL0     H10639   9.979  11.249   7.293  3.9084 -1.4934 -3.0997
  820MOL0     H10640  10.010  11.101   7.218  0.2640  0.7735 -0.2306
  820MOL0     H10641   9.791  11.005   7.314 -0.0240  0.2008 -0.3794
  820MOL0     H10642   9.744  11.163   7.360 -0.0756 -0.1106  0.3508
  820MOL0     H10643   9.833  11.198   7.092  1.5235 -1.6720  1.2808
  820MOL0     H10644   9.745  11.039   7.099 -1.5139 -1.3928  0.2966
  820MOL0     H10645   9.556  11.165   7.202 -0.5983 -0.2590 -0.7272
  820MOL0     H10646   9.650  11.317   7.203  0.4265  1.4393 -2.5171
  820MOL0     H10647   9.489  11.325   7.017 -1.1444 -1.1744 -2.0333
  820MOL0     H10648   9.649  11.333   6.968 -0.1509  0.6452  1.2265
  820MOL0     H10649   9.649  11.082   6.905  2.0787  0.7459  2.6250
  820MOL0     H10650   9.522  11.180   6.828  0.3995  2.3388  0.8074
  820MOL0     H10651   9.291  11.172   7.067 -0.7308 -2.4894  2.2177
  820MOL0     H10652   9.036  10.940   6.991 -1.5882  1.7801  0.3442
  820MOL0     H10653   9.092  10.874   7.148  1.4040 -1.7898 -1.4119
  820MOL0     H10654   9.071  11.169   7.061 -2.2793  2.0044  1.4257
  820MOL0     H10655   9.109  11.104   7.223 -1.0742  1.9460  0.6467
  820MOL0     H10656   8.859  11.065   7.066 -0.2065 -0.8033  0.3039
  820MOL0     H10657   8.868  11.208   7.178 -1.6085  0.1675  0.1710
  820MOL0     H10658   8.910  11.036   7.372 -0.3902 -2.0059  0.4655
  820MOL0     H10659   8.847  10.924   7.256 -3.9298 -0.3944  1.3448
  820MOL0     H10660   8.499  11.178   7.326  1.4706 -0.6504  0.3089
  820MOL0     H10661   8.272  11.240   7.270 -3.0008 -0.8518  2.1808
  820MOL0     H10662   8.194  11.166   7.122  3.1354 -1.1443 -2.7574
  820MOL0     H10663   8.193  11.085   7.284  0.2392 -1.1170 -1.9646
  820MOL0     H10664   8.291  10.647   6.844 -0.9725 -0.8007  2.6099
  820MOL0     H10665   8.145  10.514   6.691 -4.3792  0.3693  0.2286
  820MOL0     H10666   7.754  10.728   6.551 -0.5946  0.4971  1.6835
  820MOL0     H10667   7.743  10.565   6.491 -0.9428  1.9866 -1.5005
  820MOL0     H10668   7.705  10.492   6.742 -1.6764  0.2145 -0.2169
  820MOL0     H10669   7.677  10.674   6.767 -1.8861  0.5391  0.0914
  820MOL0     H10670   7.528  10.504   6.562  0.8082  1.2599 -0.6747
  820MOL0     H10671   7.487  10.663   6.618  2.5135  1.9451 -0.2350
  820MOL0     H10672   7.452  10.410   6.776 -0.9350 -0.5854  0.0888
  820MOL0     H10673   7.466  10.570   6.849  1.5382 -1.1616 -0.1303
  820MOL0     H10674   7.262  10.519   6.619 -2.7870  2.4196 -1.1304
  820MOL0     H10675   7.301  10.659   6.706 -0.5978  0.0734 -0.8553
  820MOL0     H10676   7.221  10.520   6.919  0.5632  1.8977 -0.6741
  820MOL0     H10677   7.092  10.546   6.793  0.0422 -0.8394 -1.8344
  820MOL0     H10678   7.264  10.295   6.761 -0.1877 -1.5665  1.4530
  820MOL0     H10679   7.101  10.343   6.708  0.6973 -0.5799 -0.5248
  820MOL0     H10680   7.183  10.315   7.001 -0.5900  2.0752 -1.1412
  820MOL0     H10681   7.135  10.163   6.904 -0.3885 -0.5498  0.0994
  820MOL0     H10682   7.860  10.838   6.712  0.4082  0.8239  2.2783
  820MOL0     H10683   8.006  10.969   6.810 -3.2465 -0.9737  0.0936
  820MOL0     H10684   8.484  10.807   6.990 -1.9884  0.1564 -1.3876
  820MOL0     H10685   8.699  10.901   7.090 -1.0875  2.0808 -1.9028
  820MOL0     H10686  10.253  10.919   7.603  0.3534 -1.6347  0.0725
  820MOL0     H10687  10.491  10.971   7.647  0.0810  1.6208 -0.2101
  820MOL0     H10688  10.943  10.818   7.698  2.4738 -0.8952  0.6836
  820MOL0     H10689  11.176  10.862   7.717 -1.2110  0.0811 -0.2787
  820MOL0     H10690  11.346  11.000   7.374  0.9571 -2.9951 -1.7682
  820MOL0     H10691  11.486  11.019   7.482 -0.5003 -1.7243 -0.8498
  820MOL0     H10692  11.297  10.785   7.464 -1.5814  0.8818  0.9557
  820MOL0     H10693  11.415  10.792   7.585 -2.2394  3.4373  1.1629
  820MOL0     H10694  11.604  10.814   7.435  1.0825 -0.5167 -0.8403
  820MOL0     H10695  11.501  10.804   7.296  2.0536 -1.1118 -0.5563
  820MOL0     H10696  11.421  10.598   7.332  0.7220 -1.3132 -0.7822
  820MOL0     H10697  11.481  10.572   7.489 -2.9388  0.3393 -0.1337
  820MOL0     H10698  11.827  10.480   7.251  1.2020 -1.2994  1.4708
  820MOL0     H10699  11.136  11.176   7.420  2.2449 -0.7881  0.8773
  820MOL0     H10700  10.895  11.134   7.407 -0.2029  2.6541  2.0066
  821MOL0     O10701   9.777   8.404  10.541  0.1441  1.1473  0.1282
  821MOL0     C10702   9.730   8.303  10.597  0.2003 -0.3078 -0.7454
  821MOL0     O10703   9.806   8.213  10.676  0.6261 -0.3258  0.4937
  821MOL0     C10704   9.936   8.232  10.718  0.0324  0.3796  0.2086
  821MOL0     C10705  10.022   8.339  10.688 -0.8809  0.8514  0.2854
  821MOL0     C10706  10.148   8.337  10.736 -0.0914  0.1503  0.4089
  821MOL0     C10707  10.198   8.255  10.837  0.0860  0.3106 -0.7420
  821MOL0     O10708  10.334   8.258  10.880  0.1832 -0.0822  0.6412
  821MOL0     C10709  10.336   8.238  11.022  0.2903  0.7672  0.2316
  821MOL0     C10710  10.471   8.269  11.076  0.1880  0.5314 -0.3543
  821MOL0     C10711  10.580   8.157  11.027  0.4149 -0.2586  0.3878
  821MOL0     C10712  10.719   8.178  11.093 -0.4779 -1.1756  0.3488
  821MOL0     C10713  10.827   8.077  11.038 -0.0300  0.5490 -0.2761
  821MOL0     C10714  10.942   8.075  11.143  0.2148 -0.1697 -0.0729
  821MOL0     C10715  11.016   7.942  11.134 -0.6707 -0.0245  0.2717
  821MOL0     C10716  11.146   7.951  11.217 -0.1834 -0.1456 -0.2933
  821MOL0     N10717  11.231   7.830  11.220  0.8049 -0.3494 -0.0091
  821MOL0     C10718  11.210   7.724  11.304  1.1715  0.0194  0.9497
  821MOL0     C10719  11.280   7.623  11.248  0.8197 -0.0114  0.9089
  821MOL0     C10720  11.289   7.481  11.292  0.9746 -0.0600  0.5719
  821MOL0     C10721  11.432   7.436  11.297 -1.2903 -0.4711 -0.7179
  821MOL0     C10722  11.514   7.492  11.412  0.0189  0.8477 -0.0896
  821MOL0     C10723  11.644   7.411  11.425  0.4376  0.2936 -0.2459
  821MOL0     O10724  11.704   7.443  11.549 -0.0058 -0.1336 -0.0321
  821MOL0     C10725  11.827   7.394  11.584 -0.4429 -0.8009  0.2979
  821MOL0     C10726  11.894   7.302  11.507  0.4506  0.2461 -0.1195
  821MOL0     C10727  12.023   7.249  11.539  0.2292  0.1100  0.6356
  821MOL0     C10728  12.089   7.156  11.447  0.3298  0.2715 -0.1663
  821MOL0     C10729  12.087   7.310  11.651  0.3289 -0.3951  1.5181
  821MOL0     C10730  12.228   7.281  11.695 -0.0089  0.3853  0.4798
  821MOL0     O10731  12.248   7.147  11.738 -0.3937 -0.3018 -1.4061
  821MOL0     C10732  12.373   7.107  11.788  0.1754  0.0687 -0.2566
  821MOL0     C10733  12.419   6.974  11.770  0.8511  0.3184  0.4045
  821MOL0     C10734  12.537   6.924  11.824  0.0874  0.0739 -0.0222
  821MOL0     C10735  12.613   7.011  11.902 -0.4068 -0.4030  0.8125
  821MOL0     O10736  12.727   6.966  11.956  0.0786  0.0841  0.2259
  821MOL0     C10737  12.829   6.930  11.864 -0.3543  1.1654  0.3590
  821MOL0     C10738  12.959   6.936  11.929  0.3112 -0.9017 -0.5724
  821MOL0     C10739  13.094   6.898  11.862  0.8729  0.2691  0.4582
  821MOL0     C10740  13.205   6.969  11.936  1.1433 -0.2346 -1.1000
  821MOL0     C10741  13.330   6.881  11.925  0.3160 -1.1061 -0.1777
  821MOL0     C10742  13.448   6.939  11.999 -0.5584 -0.0639 -0.2453
  821MOL0     C10743  13.557   6.835  11.991 -0.3533  0.9074  0.8673
  821MOL0     C10744  13.685   6.890  12.050  0.0784 -0.4628  0.7570
  821MOL0    Cl10745  13.690   6.886  12.221 -0.1404  0.1284  0.1546
  821MOL0     C10746  12.585   7.147  11.913 -0.7511  1.1331  0.5182
  821MOL0     C10747  12.468   7.193  11.853 -0.8763  0.5987 -0.0608
  821MOL0     O10748  12.310   7.374  11.697  0.3258 -0.5361 -0.1175
  821MOL0     C10749  12.028   7.409  11.718  0.2512 -0.6121 -0.0993
  821MOL0     C10750  11.898   7.443  11.690 -0.1240 -0.6959 -0.7980
  821MOL0     N10751  11.343   7.669  11.139  0.4737  0.8325  0.1031
  821MOL0     N10752  11.317   7.788  11.124  0.4433 -0.4866  0.4926
  821MOL0     C10753  10.120   8.143  10.865  0.1378  0.5755  1.5497
  821MOL0     C10754   9.987   8.136  10.805  0.0044 -0.0380 -0.3563
  821MOL0     C10755   9.594   8.273  10.570  0.4202  0.9732  0.3489
  821MOL0     C10756   9.537   8.155  10.633 -0.0164 -0.6796 -0.0543
  821MOL0     C10757   9.406   8.121  10.612  0.7148  0.3813 -0.2276
  821MOL0     C10758   9.331   8.182  10.502 -0.4560  0.6542  0.0351
  821MOL0     O10759   9.203   8.147  10.475  0.6028  0.5241 -0.7965
  821MOL0     C10760   9.200   8.013  10.427 -0.1216 -0.5126 -0.6234
  821MOL0     C10761   9.061   7.966  10.423  0.6878  0.0585  0.4290
  821MOL0     C10762   9.058   7.828  10.352  0.3895 -0.2293  0.8312
  821MOL0     C10763   8.927   7.768  10.376  0.1555  0.0766  0.1078
  821MOL0     C10764   8.818   7.820  10.299  0.0212  0.2997  0.2393
  821MOL0     C10765   8.722   7.870  10.243 -0.1213 -0.4305 -0.1176
  821MOL0     C10766   9.385   8.293  10.447 -1.1267  0.4731  0.2965
  821MOL0     C10767   9.515   8.344  10.483 -0.3653 -0.1717 -0.6009
  821MOL0     H10768   9.998   8.424  10.625  1.1648 -0.2612 -2.1595
  821MOL0     H10769  10.209   8.418  10.697 -0.6959 -0.2161 -1.3985
  821MOL0     H10770  10.262   8.299  11.073 -0.3542 -0.3654  0.6976
  821MOL0     H10771  10.315   8.132  11.037  0.6948  0.7578  0.7543
  821MOL0     H10772  10.505   8.370  11.050  0.1520  0.6621  0.0941
  821MOL0     H10773  10.453   8.262  11.184 -2.4514  0.9862 -0.6983
  821MOL0     H10774  10.550   8.058  11.062  2.1141 -1.4886 -1.4637
  821MOL0     H10775  10.593   8.163  10.919 -2.3525 -0.6522 -0.0204
  821MOL0     H10776  10.743   8.282  11.069 -2.7251 -0.7834 -0.4454
  821MOL0     H10777  10.721   8.178  11.202  0.3438 -2.6989  0.3577
  821MOL0     H10778  10.774   7.982  11.037  1.0780 -0.0806 -0.1364
  821MOL0     H10779  10.852   8.109  10.936  0.4991  0.9194 -0.0349
  821MOL0     H10780  11.012   8.156  11.123  0.1762 -0.7398 -2.9058
  821MOL0     H10781  10.899   8.101  11.240  0.5437 -0.3053  0.1151
  821MOL0     H10782  10.941   7.877  11.180 -1.1030  1.6941  2.1471
  821MOL0     H10783  11.032   7.926  11.027  0.6744  3.2209 -0.1255
  821MOL0     H10784  11.123   7.976  11.321  0.4841 -0.2295 -0.1216
  821MOL0     H10785  11.212   8.030  11.178  0.9831  0.2160  2.1987
  821MOL0     H10786  11.136   7.716  11.383 -0.8051 -3.7155 -1.0071
  821MOL0     H10787  11.243   7.469  11.390  2.9600 -0.8832  1.4701
  821MOL0     H10788  11.246   7.406  11.226  1.3904  0.0225  0.2000
  821MOL0     H10789  11.479   7.454  11.200 -0.2363  1.5547  0.1099
  821MOL0     H10790  11.437   7.328  11.318  4.1001 -0.4283 -0.4688
  821MOL0     H10791  11.439   7.490  11.491 -1.5582 -0.5432 -1.5245
  821MOL0     H10792  11.550   7.589  11.375 -0.3026  0.7714 -0.6238
  821MOL0     H10793  11.721   7.436  11.351  0.8389  0.3216  0.1769
  821MOL0     H10794  11.625   7.303  11.422  0.9889  0.0919  1.8273
  821MOL0     H10795  11.842   7.271  11.416 -0.7521 -0.4678  0.7782
  821MOL0     H10796  12.013   7.098  11.394  2.9363 -3.2940 -0.3655
  821MOL0     H10797  12.139   7.214  11.369 -1.5038  0.6702 -1.0867
  821MOL0     H10798  12.156   7.081  11.491 -0.1847  0.5029  1.0588
  821MOL0     H10799  12.341   6.913  11.725 -1.2682  2.8306  0.4006
  821MOL0     H10800  12.568   6.823  11.798 -1.6354 -0.4925 -0.0173
  821MOL0     H10801  12.820   6.824  11.835  2.6042  1.3764 -1.7902
  821MOL0     H10802  12.836   7.000  11.780 -1.4258  2.5712  1.3982
  821MOL0     H10803  12.968   7.036  11.973  0.0254 -0.3392 -1.7401
  821MOL0     H10804  12.957   6.879  12.022 -0.1616  3.1474  2.1900
  821MOL0     H10805  13.105   6.909  11.754  2.0712  3.0154  0.7780
  821MOL0     H10806  13.107   6.790  11.876  1.7016 -0.0477 -2.2664
  821MOL0     H10807  13.208   7.070  11.893 -4.5907  0.6497 -0.1952
  821MOL0     H10808  13.188   6.984  12.043 -1.5079  1.6358 -1.6910
  821MOL0     H10809  13.361   6.868  11.821  2.4534  0.4908  0.2039
  821MOL0     H10810  13.311   6.777  11.952  1.5127 -1.6172 -1.1916
  821MOL0     H10811  13.479   7.022  11.935 -0.3222 -0.1772 -0.2765
  821MOL0     H10812  13.432   6.983  12.098  3.5899 -0.7318  0.9029
  821MOL0     H10813  13.571   6.808  11.886 -0.5464 -0.7236  1.2244
  821MOL0     H10814  13.525   6.746  12.046  2.4209 -1.2194 -0.6757
  821MOL0     H10815  13.685   6.994  12.019 -0.8340 -0.7903 -0.4093
  821MOL0     H10816  13.763   6.840  11.992 -1.4842 -2.8438  0.5516
  821MOL0     H10817  12.654   7.207  11.971 -0.2399 -1.0772  2.3413
  821MOL0     H10818  12.454   7.301  11.854 -3.4193  0.4113 -2.7138
  821MOL0     H10819  12.078   7.463  11.798 -1.1524  0.2560  0.2269
  821MOL0     H10820  11.851   7.514  11.757 -0.3673  0.1601 -1.8492
  821MOL0     H10821  10.160   8.053  10.910  3.2185  1.3587  0.6433
  821MOL0     H10822   9.918   8.060  10.838 -1.2617  1.5235  0.7498
  821MOL0     H10823   9.589   8.098  10.709 -0.8210 -0.5684  0.6017
  821MOL0     H10824   9.354   8.049  10.675  0.9966 -0.0601 -0.4929
  821MOL0     H10825   9.238   8.010  10.324 -0.0564 -0.5827 -0.5974
  821MOL0     H10826   9.259   7.941  10.484  1.1171  0.9228 -0.0055
  821MOL0     H10827   9.007   8.039  10.362 -0.8890 -1.0364  0.4694
  821MOL0     H10828   9.024   7.966  10.526  0.3243  4.4427  0.5064
  821MOL0     H10829   9.133   7.766  10.403  0.9725 -0.5188 -0.3199
  821MOL0     H10830   9.083   7.835  10.245 -3.3380  1.8093 -0.0721
  821MOL0     H10831   8.898   7.772  10.481  0.3572 -0.8454  0.2089
  821MOL0     H10832   8.936   7.663  10.345  1.6895  0.0748  0.4969
  821MOL0     H10833   8.636   7.917  10.200  0.3530  0.4035 -0.1827
  821MOL0     H10834   9.332   8.358  10.379 -1.8157 -0.0334  0.3437
  821MOL0     H10835   9.556   8.429  10.428 -0.1116  1.6112  2.1368
  822MOL0     O10836   4.462   5.907   8.482 -0.0321 -0.9118 -0.2589
  822MOL0     C10837   4.497   5.812   8.545  0.2652  0.2914  1.2288
  822MOL0     O10838   4.427   5.695   8.553  0.6699  0.0519  0.0088
  822MOL0     C10839   4.301   5.683   8.493 -0.7311 -0.2888 -0.5517
  822MOL0     C10840   4.211   5.777   8.543  0.5796  0.3743  0.2036
  822MOL0     C10841   4.077   5.762   8.511 -0.7724 -1.1840  0.5412
  822MOL0     C10842   4.023   5.672   8.416 -0.8022 -0.0622 -0.7271
  822MOL0     O10843   3.888   5.673   8.395 -0.1838  0.3915 -0.6084
  822MOL0     C10844   3.795   5.675   8.501  0.1937 -0.1344  0.0869
  822MOL0     C10845   3.650   5.665   8.458 -0.0439  0.2381  0.0987
  822MOL0     C10846   3.601   5.527   8.405  0.3136  0.2552 -0.3754
  822MOL0     C10847   3.464   5.544   8.340 -0.3329  0.6286  0.7198
  822MOL0     C10848   3.424   5.410   8.288  0.4984  0.2166  0.8094
  822MOL0     C10849   3.280   5.422   8.227 -1.1429  0.2331  0.4672
  822MOL0     C10850   3.211   5.300   8.189 -0.1658  0.4567 -0.8922
  822MOL0     C10851   3.311   5.223   8.104 -0.9356 -0.2861  0.2681
  822MOL0     N10852   3.240   5.120   8.024  0.5479  0.7152 -0.3791
  822MOL0     C10853   3.160   5.135   7.914 -0.2302 -0.0099  0.0421
  822MOL0     C10854   3.121   5.008   7.881 -0.1104 -0.1197 -0.0502
  822MOL0     C10855   3.020   4.975   7.776 -0.7311  0.1561  0.1421
  822MOL0     C10856   2.881   4.996   7.832 -0.1635 -0.7421  0.4057
  822MOL0     C10857   2.769   4.972   7.720 -0.6315  0.6494 -0.3059
  822MOL0     C10858   2.629   4.971   7.768 -0.0456  0.3931 -0.0998
  822MOL0     O10859   2.614   4.847   7.835  0.3008 -0.1843  0.1793
  822MOL0     C10860   2.522   4.753   7.782  0.6020  0.5857  1.0847
  822MOL0     C10861   2.460   4.745   7.656  0.2220  0.8801 -0.2782
  822MOL0     C10862   2.371   4.637   7.622  0.6433  0.3023  0.1563
  822MOL0     C10863   2.292   4.637   7.488 -0.4485  0.1314  0.1988
  822MOL0     C10864   2.356   4.527   7.710  0.0429 -0.7797 -0.0928
  822MOL0     C10865   2.257   4.415   7.704 -0.5153 -0.1418  0.0997
  822MOL0     O10866   2.128   4.440   7.677 -0.6484 -0.9134 -0.1288
  822MOL0     C10867   2.060   4.332   7.632 -0.0457  0.3025  0.2861
  822MOL0     C10868   2.029   4.219   7.704  1.3617  0.1638 -0.1018
  822MOL0     C10869   1.941   4.120   7.653  0.7340  0.5468  0.1209
  822MOL0     C10870   1.883   4.127   7.522  0.4078 -0.8953 -0.3015
  822MOL0     O10871   1.795   4.030   7.472 -0.0851  0.1719 -0.4304
  822MOL0     C10872   1.849   3.961   7.358 -1.3608  0.5933  0.3411
  822MOL0     C10873   1.840   3.808   7.368  0.3457 -0.2721  0.3566
  822MOL0     C10874   1.918   3.742   7.478 -0.2649 -0.0140  0.3258
  822MOL0     C10875   2.062   3.786   7.476  0.1736 -0.7884 -0.1457
  822MOL0     C10876   2.141   3.709   7.585  0.0156 -0.2217 -0.8089
  822MOL0     C10877   2.274   3.782   7.619  0.6062  0.1369  0.1175
  822MOL0     C10878   2.345   3.694   7.734 -0.1530 -0.1953  0.9215
  822MOL0     C10879   2.490   3.728   7.724  0.4939 -0.4996  0.1587
  822MOL0    Cl10880   2.564   3.655   7.577  0.2041  0.6382 -0.2944
  822MOL0     C10881   1.923   4.241   7.455  0.6021  0.5513 -0.0494
  822MOL0     C10882   2.001   4.345   7.507 -0.6406  0.1454  0.0505
  822MOL0     O10883   2.304   4.305   7.719 -0.1851  0.6014 -0.7937
  822MOL0     C10884   2.428   4.535   7.830  0.4114 -0.8981  0.0381
  822MOL0     C10885   2.499   4.644   7.869 -0.4319 -0.5692  0.3920
  822MOL0     N10886   3.170   4.917   7.963 -1.2335 -0.1768 -0.5570
  822MOL0     N10887   3.231   4.988   8.052 -0.1676  0.6209 -0.3898
  822MOL0     C10888   4.119   5.578   8.367 -0.2886  0.3472  0.1211
  822MOL0     C10889   4.256   5.578   8.408  0.1044 -0.6709 -0.1617
  822MOL0     C10890   4.631   5.830   8.617  0.2795  1.0453 -0.8029
  822MOL0     C10891   4.737   5.911   8.572 -0.2045  0.4893  0.1847
  822MOL0     C10892   4.853   5.935   8.648  0.1492 -0.2361 -0.5897
  822MOL0     C10893   4.859   5.866   8.773 -0.2216 -0.5301 -0.2770
  822MOL0     O10894   4.962   5.907   8.854 -0.1368  0.1588  0.5259
  822MOL0     C10895   4.953   5.873   8.993  0.1388  0.0179  0.2061
  822MOL0     C10896   5.012   5.963   9.090  0.3540  0.3361  0.2260
  822MOL0     C10897   5.019   5.909   9.226 -0.5700  0.8342 -0.5568
  822MOL0     C10898   5.152   5.846   9.274 -0.5787  0.5617 -0.0645
  822MOL0     C10899   5.162   5.827   9.421 -0.6967 -0.7403  0.1101
  822MOL0     C10900   5.153   5.797   9.541  0.3540  0.1430 -0.3083
  822MOL0     C10901   4.758   5.772   8.800 -0.3677 -0.0078 -0.5149
  822MOL0     C10902   4.643   5.751   8.734 -0.1490 -0.5775  0.0817
  822MOL0     H10903   4.230   5.847   8.623  2.6223 -0.1543  0.2264
  822MOL0     H10904   4.000   5.825   8.553 -2.9106 -1.5067 -2.5540
  822MOL0     H10905   3.826   5.603   8.577  2.0037  0.2956 -0.1951
  822MOL0     H10906   3.797   5.776   8.544  1.0145  0.3934 -1.1345
  822MOL0     H10907   3.586   5.695   8.542 -0.2343 -1.0509  0.4454
  822MOL0     H10908   3.633   5.723   8.366 -1.7835  0.3442  0.4446
  822MOL0     H10909   3.682   5.487   8.344  1.3216  2.2007 -0.3792
  822MOL0     H10910   3.600   5.463   8.494 -1.1794  1.4057  0.4843
  822MOL0     H10911   3.399   5.590   8.416  0.2595  0.9273  1.0544
  822MOL0     H10912   3.472   5.609   8.253 -1.2147  0.1695  0.2783
  822MOL0     H10913   3.494   5.369   8.213 -3.4358 -4.0820 -0.9725
  822MOL0     H10914   3.432   5.333   8.365  4.0822 -1.6501 -1.1370
  822MOL0     H10915   3.216   5.454   8.310 -2.5380 -2.6680  0.6302
  822MOL0     H10916   3.281   5.497   8.147  0.1843  1.0685  1.2379
  822MOL0     H10917   3.186   5.236   8.275 -1.4502 -2.1797 -3.0746
  822MOL0     H10918   3.115   5.316   8.139 -1.2589  0.1426  1.0112
  822MOL0     H10919   3.384   5.172   8.168  1.0511  1.7045 -0.3067
  822MOL0     H10920   3.351   5.290   8.028 -2.4343  1.9467  1.3204
  822MOL0     H10921   3.152   5.229   7.859  0.9404  1.3470  2.0597
  822MOL0     H10922   3.043   5.044   7.694  0.1915  0.6259  0.7727
  822MOL0     H10923   3.031   4.875   7.733  0.5518  0.9666 -1.5132
  822MOL0     H10924   2.879   5.093   7.881  0.9845  0.2788 -1.4509
  822MOL0     H10925   2.865   4.920   7.909 -0.9126  1.2299  2.2903
  822MOL0     H10926   2.798   4.874   7.682  2.4860  0.2886  2.5126
  822MOL0     H10927   2.777   5.049   7.642 -1.6526  0.6820 -0.3938
  822MOL0     H10928   2.552   4.999   7.695 -2.4787 -0.1833  2.0842
  822MOL0     H10929   2.626   5.047   7.847  2.1109  0.4097  0.0095
  822MOL0     H10930   2.466   4.827   7.584 -1.7814  1.8756  0.6104
  822MOL0     H10931   2.308   4.735   7.442  0.6393  0.2427  0.7624
  822MOL0     H10932   2.325   4.567   7.411 -2.9584 -0.1474 -0.7166
  822MOL0     H10933   2.186   4.630   7.514  0.0842 -0.8000  2.2904
  822MOL0     H10934   2.072   4.216   7.803  2.4593  1.8887 -0.4844
  822MOL0     H10935   1.919   4.032   7.713 -0.3604  0.7959  0.0894
  822MOL0     H10936   1.792   3.997   7.271  1.1839  0.9751 -1.2815
  822MOL0     H10937   1.954   3.986   7.339 -1.2300 -0.1571  0.0352
  822MOL0     H10938   1.736   3.783   7.393  1.4394 -2.5739  3.3166
  822MOL0     H10939   1.860   3.751   7.277 -0.4944 -1.0508  0.6319
  822MOL0     H10940   1.914   3.635   7.452  0.4849  0.4798 -2.0816
  822MOL0     H10941   1.870   3.764   7.574  0.2633 -0.6988  0.7609
  822MOL0     H10942   2.114   3.779   7.380  3.8811 -2.4825  1.7733
  822MOL0     H10943   2.071   3.893   7.500  1.8687 -1.2329  1.4964
  822MOL0     H10944   2.179   3.617   7.539  0.7280  1.1412 -3.1097
  822MOL0     H10945   2.077   3.687   7.671  1.7170  0.2271  0.6281
  822MOL0     H10946   2.343   3.791   7.535 -0.6350  2.1607 -0.7562
  822MOL0     H10947   2.259   3.882   7.661 -1.1772 -0.1906  0.3643
  822MOL0     H10948   2.322   3.592   7.702 -0.7883  0.4431 -0.7845
  822MOL0     H10949   2.304   3.722   7.831  0.2354 -1.3214  1.4249
  822MOL0     H10950   2.542   3.689   7.812  2.0713 -0.5212 -0.7495
  822MOL0     H10951   2.507   3.836   7.715 -1.4695 -0.2041 -0.4204
  822MOL0     H10952   1.904   4.262   7.350  1.1852  0.3695 -0.1999
  822MOL0     H10953   2.013   4.433   7.444 -1.8767  0.7162  0.5910
  822MOL0     H10954   2.418   4.460   7.908  0.2111 -1.2818 -0.3487
  822MOL0     H10955   2.543   4.645   7.968 -0.1498  2.2980  0.3012
  822MOL0     H10956   4.069   5.498   8.314 -2.2643  2.7050 -1.8039
  822MOL0     H10957   4.315   5.491   8.378 -1.6070 -2.0201  0.2099
  822MOL0     H10958   4.727   5.959   8.475 -0.9998 -1.1031 -0.5485
  822MOL0     H10959   4.928   6.010   8.625  0.4778 -0.8466 -1.5569
  822MOL0     H10960   4.846   5.870   9.017  0.4256  1.5119  1.8636
  822MOL0     H10961   5.007   5.778   8.995 -0.5011 -0.3737  2.8535
  822MOL0     H10962   4.953   6.054   9.103 -0.5707 -0.3164  0.6733
  822MOL0     H10963   5.109   5.999   9.055 -0.2454  1.1079 -0.6958
  822MOL0     H10964   4.946   5.831   9.246  1.0922 -1.9576 -4.2461
  822MOL0     H10965   4.990   5.995   9.287  0.4811  0.3862  0.6077
  822MOL0     H10966   5.235   5.908   9.237 -0.4928  1.0156  0.8575
  822MOL0     H10967   5.160   5.753   9.218 -0.0633  1.3705 -1.4013
  822MOL0     H10968   5.138   5.773   9.645  1.6814  1.6392  0.2671
  822MOL0     H10969   4.777   5.710   8.888 -1.9937 -2.5842 -1.8398
  822MOL0     H10970   4.581   5.675   8.781  0.0119 -0.3712  0.6393
  823MOL0     O10971   1.647  10.816   8.199  0.0764  0.7386 -0.0787
  823MOL0     C10972   1.685  10.797   8.082  0.6011  0.5106 -0.0125
  823MOL0     O10973   1.600  10.794   7.969  0.9142  0.0594  0.4447
  823MOL0     C10974   1.464  10.766   7.984  1.0114 -0.1909 -0.0722
  823MOL0     C10975   1.408  10.689   8.082  0.9672  0.5114  0.4383
  823MOL0     C10976   1.275  10.655   8.087  0.6058  0.3904  0.1791
  823MOL0     C10977   1.186  10.709   7.991  0.4445 -0.5177 -0.6238
  823MOL0     O10978   1.048  10.690   7.973  0.5666 -0.4598 -0.5320
  823MOL0     C10979   0.979  10.596   8.063  0.3975 -0.6867  0.7991
  823MOL0     C10980   0.845  10.563   7.995  0.2475 -0.3136  0.2357
  823MOL0     C10981   0.752  10.465   8.071 -0.3348 -0.7229 -0.8523
  823MOL0     C10982   0.764  10.462   8.224 -0.1523  0.1521 -0.2334
  823MOL0     C10983   0.681  10.360   8.303 -0.2365 -0.2448  0.3743
  823MOL0     C10984   0.707  10.368   8.459 -0.0883 -1.2231  0.3385
  823MOL0     C10985   0.671  10.514   8.521  0.6529 -0.3512 -0.5512
  823MOL0     C10986   0.676  10.519   8.672  0.0328 -0.2843  0.8477
  823MOL0     N10987   0.565  10.466   8.735 -0.3681 -0.5260 -1.0363
  823MOL0     C10988   0.504  10.523   8.846 -0.0828 -0.5018  0.0914
  823MOL0     C10989   0.395  10.447   8.866 -0.2207  0.7803 -0.1201
  823MOL0     C10990   0.284  10.454   8.963 -0.4758  0.1122 -0.2551
  823MOL0     C10991   0.341  10.473   9.103 -0.3975  0.5240 -0.9889
  823MOL0     C10992   0.384  10.347   9.173  0.0137 -0.4368  0.3027
  823MOL0     C10993   0.507  10.271   9.129 -0.1885  0.4660 -0.5982
  823MOL0     O10994   0.627  10.345   9.145  0.1281  0.2426  0.1718
  823MOL0     C10995   0.737  10.297   9.078  0.2246  0.3779 -0.4917
  823MOL0     C10996   0.772  10.158   9.086 -0.3179  0.6176  0.7668
  823MOL0     C10997   0.896  10.120   9.023 -0.2024  0.0946  0.0339
  823MOL0     C10998   0.930   9.968   9.027  0.0707 -0.1167 -0.2849
  823MOL0     C10999   0.976  10.214   8.958  0.7422  0.0300  0.5542
  823MOL0     C11000   1.091  10.165   8.869 -0.3046 -0.1225  0.4630
  823MOL0     O11001   1.186  10.263   8.856  0.4088  0.5992 -0.2866
  823MOL0     C11002   1.308  10.238   8.818  0.8578 -0.0729 -0.8128
  823MOL0     C11003   1.374  10.340   8.750 -0.6981  0.6242 -0.2823
  823MOL0     C11004   1.505  10.316   8.706 -0.3653  0.5735 -0.6543
  823MOL0     C11005   1.573  10.197   8.737  0.0251  0.3819 -0.6034
  823MOL0     O11006   1.710  10.193   8.699  0.2366  0.0524 -0.5776
  823MOL0     C11007   1.804  10.106   8.777  0.4689 -0.7219  0.0583
  823MOL0     C11008   1.935  10.093   8.710  0.8535  1.9744  0.3329
  823MOL0     C11009   2.008  10.228   8.714  0.3801  0.4128 -0.8071
  823MOL0     C11010   2.141  10.217   8.645 -0.1340 -1.7182  0.1858
  823MOL0     C11011   2.216  10.342   8.671  0.6057 -0.3345  0.1882
  823MOL0     C11012   2.347  10.366   8.585  1.5162  0.6006  0.4305
  823MOL0     C11013   2.441  10.477   8.623 -0.2761  1.2692 -0.1977
  823MOL0     C11014   2.549  10.512   8.530 -0.2835  0.0257 -0.8473
  823MOL0    Cl11015   2.475  10.564   8.375  0.0612  0.5883  0.0036
  823MOL0     C11016   1.516  10.102   8.825 -0.1053 -0.9740  0.2820
  823MOL0     C11017   1.379  10.125   8.852  0.5484  0.7768  0.4875
  823MOL0     O11018   1.095  10.055   8.813  0.3458  0.1989  0.9726
  823MOL0     C11019   0.931  10.347   8.953  0.2948 -0.0039  0.3474
  823MOL0     C11020   0.816  10.388   9.012  0.8705 -0.0022 -0.2726
  823MOL0     N11021   0.405  10.336   8.789  0.6152 -0.0026 -0.4720
  823MOL0     N11022   0.512  10.348   8.716 -0.0978  0.2422  0.1492
  823MOL0     C11023   1.239  10.797   7.898  0.0414 -0.7299  0.6108
  823MOL0     C11024   1.376  10.824   7.897 -0.4262 -0.4324 -0.2458
  823MOL0     C11025   1.832  10.821   8.066 -0.1878  0.1555 -1.0023
  823MOL0     C11026   1.882  10.881   7.949 -0.8079  0.6162  0.2447
  823MOL0     C11027   2.017  10.924   7.951 -0.2326  0.1506 -0.1506
  823MOL0     C11028   2.109  10.887   8.054  0.0744  0.1556 -0.7359
  823MOL0     O11029   2.241  10.919   8.036 -0.1451 -0.2588  0.0877
  823MOL0     C11030   2.331  10.878   8.135 -0.2886  0.1941 -0.1862
  823MOL0     C11031   2.479  10.899   8.097  0.3686  0.4802  0.0538
  823MOL0     C11032   2.518  10.812   7.975  0.0828  0.0395 -0.4930
  823MOL0     C11033   2.471  10.880   7.848  0.2460  0.2901  0.5659
  823MOL0     C11034   2.512  10.799   7.731 -0.0840  0.0959  0.3447
  823MOL0     C11035   2.548  10.723   7.643 -0.9618 -0.2934  0.7213
  823MOL0     C11036   2.047  10.837   8.170  0.7611 -0.0662 -0.2001
  823MOL0     C11037   1.916  10.804   8.179  0.1525  0.3364 -1.2730
  823MOL0     H11038   1.472  10.633   8.150  0.0315 -1.5047 -0.2711
  823MOL0     H11039   1.245  10.579   8.159  3.8228 -1.6193 -0.4032
  823MOL0     H11040   1.039  10.505   8.072  1.5968 -0.3847 -2.6587
  823MOL0     H11041   0.965  10.649   8.157  2.3510  1.6197 -0.1016
  823MOL0     H11042   0.795  10.659   7.980  0.7987  0.5449  3.1292
  823MOL0     H11043   0.864  10.514   7.900 -6.4644  0.0427 -1.8077
  823MOL0     H11044   0.647  10.483   8.046 -0.7706 -2.5879 -0.5194
  823MOL0     H11045   0.780  10.372   8.020 -0.7891 -0.6561 -1.2255
  823MOL0     H11046   0.869  10.463   8.252 -0.0214  1.5028 -0.7108
  823MOL0     H11047   0.721  10.558   8.255 -2.7396 -0.4401 -1.6711
  823MOL0     H11048   0.572  10.368   8.299 -0.6110  1.0243  5.4239
  823MOL0     H11049   0.694  10.256   8.271 -2.1077 -0.4319  0.0727
  823MOL0     H11050   0.643  10.288   8.498  0.1464 -2.5596 -1.7892
  823MOL0     H11051   0.811  10.341   8.479  1.1203  1.9553 -1.0758
  823MOL0     H11052   0.740  10.589   8.481  2.1241  0.1469  2.5996
  823MOL0     H11053   0.572  10.551   8.494  0.3886  0.8341  1.7879
  823MOL0     H11054   0.694  10.624   8.698 -0.6250 -0.6128  2.8159
  823MOL0     H11055   0.767  10.467   8.705  0.4689 -0.6957 -0.8959
  823MOL0     H11056   0.531  10.598   8.920  0.7020 -1.3772  0.7244
  823MOL0     H11057   0.205  10.525   8.939 -1.7504 -1.2115 -0.1369
  823MOL0     H11058   0.230  10.359   8.961  0.7461 -0.6040 -1.5494
  823MOL0     H11059   0.261  10.527   9.154 -1.2549 -0.0589 -1.6802
  823MOL0     H11060   0.424  10.545   9.104  1.9516 -1.9492  1.3006
  823MOL0     H11061   0.297  10.283   9.158  0.0777 -0.9126  1.8326
  823MOL0     H11062   0.399  10.369   9.279  1.9794  1.7388 -0.3494
  823MOL0     H11063   0.496  10.249   9.022 -3.3793  2.7347 -0.8809
  823MOL0     H11064   0.505  10.170   9.172 -1.6713  0.4550 -0.6347
  823MOL0     H11065   0.703  10.083   9.123  0.0318 -0.4410 -0.6496
  823MOL0     H11066   0.945   9.920   8.930  0.0658 -0.9255  0.1071
  823MOL0     H11067   1.025   9.965   9.081 -1.2195  3.0472  2.4798
  823MOL0     H11068   0.852   9.903   9.066  0.8268 -0.1878  1.1571
  823MOL0     H11069   1.328  10.435   8.727 -0.8041  1.8156  4.0056
  823MOL0     H11070   1.557  10.402   8.665  0.1400  0.3515 -0.4873
  823MOL0     H11071   1.813  10.154   8.874 -4.0448  0.6119  0.0358
  823MOL0     H11072   1.769  10.003   8.789  4.5208 -2.3705 -0.6689
  823MOL0     H11073   1.990  10.017   8.766  1.3565  2.2268  0.1895
  823MOL0     H11074   1.936  10.064   8.604  0.8631  0.0104  0.8447
  823MOL0     H11075   2.025  10.263   8.816  1.7554 -1.9929 -0.1156
  823MOL0     H11076   1.952  10.299   8.653 -0.5112 -0.1648 -0.6838
  823MOL0     H11077   2.184  10.124   8.685 -1.4950 -1.4969  2.3188
  823MOL0     H11078   2.139  10.218   8.535  0.6072  1.8226  0.1006
  823MOL0     H11079   2.253  10.355   8.773  1.3741  1.2043 -0.2633
  823MOL0     H11080   2.159  10.430   8.642  1.9623 -0.6664 -4.2809
  823MOL0     H11081   2.397  10.269   8.595 -1.2295 -0.8877  0.7414
  823MOL0     H11082   2.316  10.392   8.483  0.7876  0.5414  0.6286
  823MOL0     H11083   2.484  10.452   8.720  1.7628  1.8633 -0.8744
  823MOL0     H11084   2.382  10.567   8.641 -0.1208  1.5958 -1.2173
  823MOL0     H11085   2.622  10.432   8.512  1.0111  1.0867 -0.5575
  823MOL0     H11086   2.603  10.602   8.563  1.4810 -0.6073 -1.8802
  823MOL0     H11087   1.565  10.010   8.856  0.4433 -0.6918  0.2606
  823MOL0     H11088   1.341  10.043   8.911  0.9509  0.3401  0.1445
  823MOL0     H11089   0.979  10.432   8.906  0.0787  1.5571  2.7775
  823MOL0     H11090   0.780  10.488   9.032  1.2140 -0.1358  1.1544
  823MOL0     H11091   1.177  10.838   7.818 -1.7004 -4.0386  0.1121
  823MOL0     H11092   1.411  10.894   7.822 -2.5554 -1.2982 -2.1874
  823MOL0     H11093   1.823  10.891   7.858 -2.5849  1.4816  1.4129
  823MOL0     H11094   2.061  10.959   7.858 -0.5323 -1.4135 -0.9021
  823MOL0     H11095   2.311  10.929   8.230  2.8576 -1.9332  1.8011
  823MOL0     H11096   2.318  10.771   8.154 -0.6120  0.2290 -0.2129
  823MOL0     H11097   2.550  10.872   8.176  1.5391 -3.3365 -2.0640
  823MOL0     H11098   2.496  11.003   8.068 -1.1179  0.8199  0.3232
  823MOL0     H11099   2.468  10.717   7.996 -1.2799  1.0530  1.1113
  823MOL0     H11100   2.626  10.806   7.983  0.0536  0.8981  1.0218
  823MOL0     H11101   2.506  10.983   7.841  1.5887 -0.2509 -2.0425
  823MOL0     H11102   2.362  10.893   7.846  0.2347  0.3371  1.1824
  823MOL0     H11103   2.597  10.673   7.561 -1.2666  0.4559  0.0681
  823MOL0     H11104   2.102  10.818   8.262 -1.0269 -0.3142  0.8741
  823MOL0     H11105   1.871  10.773   8.273  2.2414  2.3348  0.4927
  824MOL0     O11106   3.150   4.885   3.353 -0.1714  0.8225 -0.6053
  824MOL0     C11107   3.221   4.955   3.421  1.0075 -0.7497 -0.5272
  824MOL0     O11108   3.179   5.031   3.525  1.1979 -0.7037 -0.1755
  824MOL0     C11109   3.069   4.984   3.598 -1.2162 -0.0020  0.0949
  824MOL0     C11110   2.940   5.018   3.563  0.1880 -0.4223 -0.5432
  824MOL0     C11111   2.842   4.978   3.655 -0.9998 -0.5730  0.4780
  824MOL0     C11112   2.872   4.909   3.771  0.8077  0.3346  0.2379
  824MOL0     O11113   2.768   4.868   3.852  0.6681 -0.4317  0.5170
  824MOL0     C11114   2.776   4.730   3.882 -0.1117  0.0830  0.2427
  824MOL0     C11115   2.698   4.707   4.014  0.1865  0.7087 -0.2877
  824MOL0     C11116   2.543   4.735   4.009 -0.1252 -0.0295 -0.1393
  824MOL0     C11117   2.468   4.690   4.126  0.0896 -0.0555 -0.1989
  824MOL0     C11118   2.324   4.730   4.127  0.5896 -0.0568 -0.9989
  824MOL0     C11119   2.257   4.688   4.255  0.0686 -0.3364  0.3161
  824MOL0     C11120   2.263   4.533   4.277  0.4045 -0.2684 -0.4791
  824MOL0     C11121   2.186   4.510   4.409  0.3799  0.3629 -0.1074
  824MOL0     N11122   2.041   4.546   4.392  0.4108 -0.0461  0.4106
  824MOL0     C11123   1.973   4.613   4.495  0.0397 -0.2925  0.1720
  824MOL0     C11124   1.843   4.576   4.483  0.0650 -0.4369 -0.1073
  824MOL0     C11125   1.721   4.627   4.563  0.3975 -0.2609 -0.1871
  824MOL0     C11126   1.590   4.607   4.484 -0.2762 -0.3653 -0.2507
  824MOL0     C11127   1.470   4.666   4.558  0.1088  0.1306  0.3582
  824MOL0     C11128   1.348   4.670   4.468 -0.6967 -0.7361  0.0571
  824MOL0     O11129   1.251   4.732   4.550  0.6364 -0.6138  0.7603
  824MOL0     C11130   1.121   4.767   4.506 -0.4428 -0.4158  0.2451
  824MOL0     C11131   1.104   4.798   4.368 -0.1670 -1.3616  0.2915
  824MOL0     C11132   0.973   4.828   4.327  0.1511 -0.7561  0.1877
  824MOL0     C11133   0.956   4.861   4.174 -0.5812  0.0448  1.2593
  824MOL0     C11134   0.859   4.841   4.423  0.1740  0.4513  0.0719
  824MOL0     C11135   0.718   4.853   4.379 -0.5869  0.1515  0.2795
  824MOL0     O11136   0.622   4.840   4.476  0.8796  0.4316  0.0301
  824MOL0     C11137   0.482   4.855   4.450  0.0326  1.2137 -0.2026
  824MOL0     C11138   0.428   4.950   4.364 -0.4868 -1.1471  0.3950
  824MOL0     C11139   0.291   4.969   4.355 -0.3490  0.5817  0.4127
  824MOL0     C11140   0.200   4.878   4.402 -0.1202 -0.7774  0.4741
  824MOL0     O11141   0.064   4.909   4.381 -0.5571 -0.3716 -0.2664
  824MOL0     C11142  -0.023   4.825   4.459  0.5294  0.0696 -0.7623
  824MOL0     C11143  -0.173   4.859   4.438 -0.1311  0.5062 -0.1430
  824MOL0     C11144  -0.216   4.996   4.486 -0.8907  0.0365 -0.6847
  824MOL0     C11145  -0.366   4.997   4.459  0.1110  0.0398  0.0922
  824MOL0     C11146  -0.429   5.133   4.500  0.3551 -0.4418 -0.7633
  824MOL0     C11147  -0.395   5.248   4.401 -0.0654  0.8627 -0.1588
  824MOL0     C11148  -0.468   5.374   4.451  0.1291 -0.6912  0.2369
  824MOL0     C11149  -0.441   5.496   4.362 -0.6368 -0.1912  0.1021
  824MOL0    Cl11150  -0.596   5.584   4.365 -0.3984  0.0979 -0.1290
  824MOL0     C11151   0.257   4.784   4.494  0.5865 -0.3105 -0.1192
  824MOL0     C11152   0.391   4.775   4.515 -0.2854  0.1044  0.0621
  824MOL0     O11153   0.690   4.857   4.259  0.4545  0.1681 -0.0837
  824MOL0     C11154   0.885   4.807   4.555  0.5652 -0.3795  0.0040
  824MOL0     C11155   1.019   4.772   4.599 -0.5280 -1.2940  0.6563
  824MOL0     N11156   1.836   4.484   4.379 -0.0162  0.3946  0.3028
  824MOL0     N11157   1.948   4.459   4.332  0.3844 -0.0802  0.4233
  824MOL0     C11158   2.998   4.886   3.803  0.2544  0.5820  0.3008
  824MOL0     C11159   3.105   4.919   3.716 -0.8161  0.0410 -0.1173
  824MOL0     C11160   3.354   4.993   3.367 -0.4089  0.2096 -0.6774
  824MOL0     C11161   3.416   4.898   3.282 -0.2222 -0.0593 -0.5647
  824MOL0     C11162   3.536   4.941   3.224 -0.4889  0.1812  0.9853
  824MOL0     C11163   3.594   5.063   3.248 -0.0936  0.4435 -1.9473
  824MOL0     O11164   3.696   5.119   3.167  0.1208  0.0018 -0.3783
  824MOL0     C11165   3.785   5.035   3.092  0.3845 -0.3215  0.2664
  824MOL0     C11166   3.926   5.104   3.079 -0.6305  0.3602  0.2035
  824MOL0     C11167   4.027   4.992   3.091  0.6017 -0.1433 -0.2885
  824MOL0     C11168   4.171   5.020   3.059  0.1687 -0.1325  0.4541
  824MOL0     C11169   4.254   5.067   3.175 -0.5351  0.0921  0.4931
  824MOL0     C11170   4.343   5.095   3.255 -0.0835  0.2856 -0.5281
  824MOL0     C11171   3.529   5.146   3.340 -0.2212  0.7540 -0.7513
  824MOL0     C11172   3.413   5.116   3.399 -0.3070  0.8295 -0.1239
  824MOL0     H11173   2.912   5.082   3.480 -3.2056 -0.8050  0.1924
  824MOL0     H11174   2.736   5.000   3.642 -0.3591  2.6155 -0.2682
  824MOL0     H11175   2.733   4.669   3.802  2.0226  0.0338 -0.9630
  824MOL0     H11176   2.875   4.697   3.914 -0.6103  1.1569  3.2318
  824MOL0     H11177   2.726   4.605   4.040 -0.3815 -0.0929 -2.5330
  824MOL0     H11178   2.737   4.775   4.090 -2.2471  1.4445  0.4223
  824MOL0     H11179   2.522   4.842   4.000 -0.2241  0.2497  2.4562
  824MOL0     H11180   2.499   4.688   3.921  0.1836 -2.6759  0.9982
  824MOL0     H11181   2.476   4.581   4.117  3.8250  0.2673 -3.2665
  824MOL0     H11182   2.516   4.724   4.218 -1.1347 -0.1498  0.5049
  824MOL0     H11183   2.315   4.837   4.106 -1.5747 -0.3690 -1.9694
  824MOL0     H11184   2.267   4.684   4.045 -0.6338 -0.4124  0.0160
  824MOL0     H11185   2.303   4.732   4.343 -0.3221 -1.9093  1.3546
  824MOL0     H11186   2.151   4.716   4.251  0.5448  1.6870  1.1027
  824MOL0     H11187   2.209   4.477   4.201 -0.8097  0.0554  0.1196
  824MOL0     H11188   2.365   4.495   4.289  1.5419  2.5647 -0.2330
  824MOL0     H11189   2.230   4.563   4.493 -1.1430  0.8553  0.4194
  824MOL0     H11190   2.203   4.405   4.434  1.1100 -0.6168 -3.9565
  824MOL0     H11191   2.018   4.689   4.558 -0.8678 -0.0386  0.5247
  824MOL0     H11192   1.711   4.580   4.661 -0.5822  2.0524  0.8866
  824MOL0     H11193   1.738   4.734   4.576 -1.6382 -0.0020  0.7136
  824MOL0     H11194   1.571   4.502   4.457  2.7994 -1.3920  1.0632
  824MOL0     H11195   1.604   4.665   4.392 -1.0308 -0.4170 -0.4042
  824MOL0     H11196   1.505   4.764   4.593  1.1055  1.0452 -2.8450
  824MOL0     H11197   1.439   4.601   4.640 -0.3834 -1.0431 -0.7229
  824MOL0     H11198   1.310   4.568   4.455  1.6441 -1.7136  0.3243
  824MOL0     H11199   1.376   4.707   4.369  2.4990 -1.7576  0.4571
  824MOL0     H11200   1.183   4.780   4.296 -1.0536  0.6462 -1.2897
  824MOL0     H11201   1.050   4.869   4.119 -1.3935  0.6690 -0.0931
  824MOL0     H11202   0.899   4.782   4.125  1.0242  0.4267 -1.4078
  824MOL0     H11203   0.911   4.959   4.155  2.2377  0.8705 -2.3613
  824MOL0     H11204   0.503   5.013   4.317  0.1709 -1.0761  1.4991
  824MOL0     H11205   0.255   5.052   4.294 -1.6497  0.1551  0.5659
  824MOL0     H11206  -0.009   4.719   4.435  2.0795 -0.5228  2.2615
  824MOL0     H11207  -0.001   4.825   4.566  0.2997 -1.0199 -0.7035
  824MOL0     H11208  -0.189   4.858   4.329  2.6921  0.9525 -0.6250
  824MOL0     H11209  -0.233   4.785   4.492  3.6576 -1.8988  1.1233
  824MOL0     H11210  -0.168   5.076   4.429 -1.4348  1.6890  1.0412
  824MOL0     H11211  -0.200   5.014   4.593  1.1807  1.7880 -1.2267
  824MOL0     H11212  -0.383   4.974   4.353  2.9135  2.0522 -0.9235
  824MOL0     H11213  -0.416   4.919   4.517 -0.5143  1.1164  1.0312
  824MOL0     H11214  -0.415   5.156   4.606 -1.3907 -4.1161  0.4314
  824MOL0     H11215  -0.538   5.121   4.497 -0.5191  3.9094  2.5580
  824MOL0     H11216  -0.286   5.258   4.401  0.2982 -2.1272  0.4399
  824MOL0     H11217  -0.430   5.222   4.301  1.3733 -1.7940 -0.0799
  824MOL0     H11218  -0.464   5.407   4.555 -3.6691  0.6371  0.0930
  824MOL0     H11219  -0.570   5.337   4.441  0.9944 -3.7650  1.4461
  824MOL0     H11220  -0.424   5.467   4.258  1.9961 -1.3043  0.7690
  824MOL0     H11221  -0.352   5.548   4.397 -1.1761  1.3317 -0.6715
  824MOL0     H11222   0.193   4.723   4.557 -1.6029  1.8003 -0.1881
  824MOL0     H11223   0.426   4.700   4.585 -2.1686 -0.9150 -0.0318
  824MOL0     H11224   0.804   4.805   4.627  1.4466  0.4155  1.0599
  824MOL0     H11225   1.031   4.743   4.703 -5.7827  3.0248  3.0291
  824MOL0     H11226   3.017   4.845   3.902 -0.8500  0.2058  0.3769
  824MOL0     H11227   3.206   4.892   3.745 -0.4794  1.7639  0.4452
  824MOL0     H11228   3.377   4.802   3.250 -0.9807  0.7421 -2.1331
  824MOL0     H11229   3.575   4.867   3.154  3.1343  1.1367  1.7905
  824MOL0     H11230   3.803   4.939   3.140  2.0940 -0.7093 -1.0248
  824MOL0     H11231   3.740   5.016   2.994 -1.2912  2.0621  0.4858
  824MOL0     H11232   3.929   5.174   3.163  0.1231 -2.3623  2.6394
  824MOL0     H11233   3.932   5.151   2.981 -1.0914 -0.4759 -0.2391
  824MOL0     H11234   3.993   4.910   3.027  2.6238  0.9691 -3.0138
  824MOL0     H11235   4.035   4.951   3.192  0.5311 -1.6267 -0.8544
  824MOL0     H11236   4.179   5.100   2.984 -1.1255  0.7706  1.2377
  824MOL0     H11237   4.215   4.932   3.012  0.7819  0.3677  0.0738
  824MOL0     H11238   4.416   5.130   3.325 -4.2471  3.5161  2.7519
  824MOL0     H11239   3.581   5.241   3.351  1.4440 -0.0550 -1.3901
  824MOL0     H11240   3.363   5.183   3.469 -1.7371  0.9805 -1.2402
  825MOL0     O11241  10.452  11.110   5.537 -0.2859 -0.3372 -0.7691
  825MOL0     C11242  10.404  11.012   5.593  0.9364 -0.2946  0.7796
  825MOL0     O11243  10.270  11.004   5.625 -0.4672 -0.7937 -0.5681
  825MOL0     C11244  10.177  11.105   5.616  0.2937 -0.4297 -1.4518
  825MOL0     C11245  10.046  11.067   5.570  0.7083 -0.1422 -1.1826
  825MOL0     C11246   9.943  11.162   5.548  0.3861  0.3886  0.4288
  825MOL0     C11247   9.969  11.297   5.557 -0.3855  0.3249 -0.1468
  825MOL0     O11248   9.882  11.394   5.530  0.6553  0.5585 -0.3408
  825MOL0     C11249   9.735  11.366   5.505 -0.5237  0.1208 -0.3017
  825MOL0     C11250   9.677  11.504   5.508  0.0429 -0.2469  0.8280
  825MOL0     C11251   9.527  11.478   5.508  0.5980 -0.3134  0.7844
  825MOL0     C11252   9.433  11.597   5.545 -0.7669  0.6866  0.6649
  825MOL0     C11253   9.285  11.574   5.563 -0.3041 -0.8345  0.2886
  825MOL0     C11254   9.189  11.688   5.520 -0.4953 -0.1900  0.1910
  825MOL0     C11255   9.035  11.672   5.556 -0.1050 -0.6074  0.1926
  825MOL0     C11256   8.931  11.752   5.473 -0.6606 -0.6897  0.9499
  825MOL0     N11257   8.807  11.754   5.545 -0.1137  0.3985  0.4198
  825MOL0     C11258   8.754  11.844   5.635  0.2300 -1.2673 -1.1091
  825MOL0     C11259   8.649  11.797   5.698  0.6108 -0.0446 -0.5364
  825MOL0     C11260   8.566  11.864   5.796 -0.7595  0.2032  0.1179
  825MOL0     C11261   8.448  11.942   5.743  0.1174  0.1674 -0.7110
  825MOL0     C11262   8.351  11.974   5.861  0.6374  0.6716 -0.4691
  825MOL0     C11263   8.215  12.041   5.832 -0.0658  0.2659  0.2646
  825MOL0     O11264   8.142  11.966   5.731 -0.0928 -1.0648 -0.5866
  825MOL0     C11265   8.029  12.025   5.691  0.7067 -0.6597  0.0313
  825MOL0     C11266   7.976  12.148   5.726  0.3896 -0.0933  0.4625
  825MOL0     C11267   7.857  12.195   5.671  0.2954  0.1125  0.1749
  825MOL0     C11268   7.815  12.332   5.722 -0.0089 -0.0227  0.1050
  825MOL0     C11269   7.785  12.115   5.579  1.2847 -0.3020  0.0125
  825MOL0     C11270   7.652  12.150   5.508  0.0078  0.8250 -1.0463
  825MOL0     O11271   7.627  12.061   5.395  0.4784  0.2567 -0.1952
  825MOL0     C11272   7.517  12.072   5.317 -0.1775 -0.2729 -0.3422
  825MOL0     C11273   7.514  11.986   5.211 -0.6333 -0.0476 -1.0599
  825MOL0     C11274   7.409  11.982   5.119 -0.5481 -0.3906  0.3735
  825MOL0     C11275   7.298  12.066   5.129  0.4977 -0.1638 -0.0281
  825MOL0     O11276   7.183  12.050   5.057 -0.0557 -0.5324 -0.3911
  825MOL0     C11277   7.188  12.150   4.951 -0.1980 -0.4804 -0.2320
  825MOL0     C11278   7.100  12.108   4.841 -1.1688 -0.2337 -0.2750
  825MOL0     C11279   6.949  12.155   4.845 -0.3217  0.3497 -0.1691
  825MOL0     C11280   6.867  12.099   4.959  0.1083 -0.3209 -0.3265
  825MOL0     C11281   6.726  12.160   4.946  1.0086  0.1942  0.4046
  825MOL0     C11282   6.622  12.111   5.054 -0.5523  0.6111  0.8422
  825MOL0     C11283   6.653  12.168   5.193  0.5961  0.0407 -0.1030
  825MOL0     C11284   6.648  12.329   5.201  0.1326 -0.4520  0.2737
  825MOL0    Cl11285   6.495  12.407   5.148  0.1027  0.4227 -0.5671
  825MOL0     C11286   7.297  12.145   5.240 -0.2653 -0.7280  0.1828
  825MOL0     C11287   7.408  12.151   5.335  1.0623  0.1053  0.2902
  825MOL0     O11288   7.584  12.242   5.541  0.7821 -0.1997  0.1346
  825MOL0     C11289   7.845  12.001   5.531  0.1834 -0.0015 -0.4355
  825MOL0     C11290   7.955  11.956   5.596  0.4839  0.0009 -0.7798
  825MOL0     N11291   8.643  11.659   5.663  0.2051  0.0891 -0.2395
  825MOL0     N11292   8.721  11.650   5.554  0.9831  0.3952 -0.6419
  825MOL0     C11293  10.098  11.329   5.603  0.6651 -0.9408  0.3428
  825MOL0     C11294  10.197  11.241   5.635  0.3456 -0.2505 -0.5380
  825MOL0     C11295  10.489  10.899   5.633  0.9789 -0.6201 -0.4693
  825MOL0     C11296  10.429  10.797   5.713  0.3063 -0.8729 -1.1336
  825MOL0     C11297  10.514  10.682   5.752  0.6762 -0.4235 -0.7911
  825MOL0     C11298  10.647  10.671   5.712  0.5483 -0.7652  0.0611
  825MOL0     O11299  10.707  10.562   5.760  0.6092 -0.4831  0.1879
  825MOL0     C11300  10.841  10.559   5.755  0.3568 -0.0046 -0.9968
  825MOL0     C11301  10.874  10.450   5.847  0.1060  0.2398  0.1601
  825MOL0     C11302  11.026  10.424   5.857 -0.7140 -0.4713  0.3113
  825MOL0     C11303  11.113  10.542   5.900 -0.4943 -0.8400  0.1885
  825MOL0     C11304  11.082  10.573   6.039 -0.1699  0.5992  0.8415
  825MOL0     C11305  11.039  10.608   6.142 -0.9438  0.1911  0.6908
  825MOL0     C11306  10.691  10.760   5.619  0.3544 -0.5115 -0.1204
  825MOL0     C11307  10.614  10.875   5.580 -0.4968 -0.3595 -1.7324
  825MOL0     H11308  10.026  10.960   5.569 -1.8518  0.2464  0.4825
  825MOL0     H11309   9.853  11.125   5.501 -0.9673  1.2417  2.2483
  825MOL0     H11310   9.725  11.334   5.401 -0.3999 -0.5350 -0.1153
  825MOL0     H11311   9.689  11.303   5.581 -0.1260  0.5991  0.3535
  825MOL0     H11312   9.690  11.538   5.611 -0.4848  0.3685  0.6925
  825MOL0     H11313   9.730  11.566   5.435 -0.0975 -1.3275 -0.2284
  825MOL0     H11314   9.504  11.452   5.404  1.6953 -1.3790  0.7936
  825MOL0     H11315   9.484  11.396   5.565 -0.4275 -0.2486  0.1270
  825MOL0     H11316   9.471  11.646   5.635 -3.9087 -1.7451  3.5544
  825MOL0     H11317   9.444  11.662   5.458 -0.3721  0.7802  0.7846
  825MOL0     H11318   9.258  11.486   5.503  0.4905 -2.1253  1.7709
  825MOL0     H11319   9.259  11.546   5.665 -0.9817  0.0485  0.3764
  825MOL0     H11320   9.224  11.783   5.561 -0.9670  1.4422 -2.8866
  825MOL0     H11321   9.196  11.693   5.411 -1.2940 -2.6039 -0.0253
  825MOL0     H11322   8.996  11.570   5.557 -2.8091  0.3483  1.1949
  825MOL0     H11323   9.024  11.715   5.656 -0.2804  1.2592 -0.5957
  825MOL0     H11324   8.920  11.722   5.369  0.6083  1.1597  0.2268
  825MOL0     H11325   8.959  11.858   5.469 -1.6958 -0.4082  0.8747
  825MOL0     H11326   8.788  11.946   5.651 -2.0052 -0.4351 -1.3365
  825MOL0     H11327   8.528  11.778   5.853 -1.2080  1.2076  1.3763
  825MOL0     H11328   8.632  11.923   5.860  0.5403 -1.3202  0.2719
  825MOL0     H11329   8.384  11.892   5.670 -1.3917  2.5367 -1.1097
  825MOL0     H11330   8.488  12.029   5.690  0.1888  0.3761 -0.3186
  825MOL0     H11331   8.398  12.032   5.941 -1.9224  0.6402  1.1489
  825MOL0     H11332   8.315  11.878   5.899 -0.1478  0.2146 -2.2698
  825MOL0     H11333   8.239  12.143   5.799  3.3710  0.0853  1.7747
  825MOL0     H11334   8.154  12.046   5.923  0.8988 -1.9241  1.1060
  825MOL0     H11335   8.024  12.218   5.795  3.5089 -0.3349 -1.2720
  825MOL0     H11336   7.864  12.368   5.813  1.3078  1.6344 -1.1799
  825MOL0     H11337   7.826  12.407   5.643 -1.9450  0.5662  0.3481
  825MOL0     H11338   7.708  12.324   5.741  0.3146  0.7736  2.5540
  825MOL0     H11339   7.598  11.918   5.201 -0.3455  0.1774 -0.2509
  825MOL0     H11340   7.431  11.917   5.036 -1.4971 -2.0132  1.3549
  825MOL0     H11341   7.173  12.252   4.987  0.1360 -1.1082  1.8383
  825MOL0     H11342   7.280  12.140   4.893 -0.5118 -1.1984 -0.6208
  825MOL0     H11343   7.139  12.150   4.747 -1.6831  2.7412  0.7439
  825MOL0     H11344   7.109  11.999   4.835  0.4808 -0.0555 -1.9642
  825MOL0     H11345   6.912  12.105   4.755  1.8181 -0.0503 -0.8702
  825MOL0     H11346   6.941  12.263   4.837 -1.6228  0.1825 -1.6567
  825MOL0     H11347   6.862  11.990   4.956  0.2896 -0.3278 -0.3570
  825MOL0     H11348   6.918  12.122   5.053 -0.5185 -1.1859  0.2443
  825MOL0     H11349   6.684  12.116   4.855  0.5616 -0.3173  0.8517
  825MOL0     H11350   6.728  12.270   4.945  2.3796  0.2000 -1.5541
  825MOL0     H11351   6.522  12.138   5.019 -1.7141 -0.1500  3.2937
  825MOL0     H11352   6.632  12.003   5.040  0.0125  0.7638 -0.0285
  825MOL0     H11353   6.749  12.134   5.232  1.6780 -0.2601 -2.7729
  825MOL0     H11354   6.571  12.134   5.256 -1.0953  1.2043 -1.5682
  825MOL0     H11355   6.730  12.367   5.138  0.5327 -0.1355  0.9743
  825MOL0     H11356   6.688  12.371   5.294 -1.2519 -1.4083  1.3374
  825MOL0     H11357   7.207  12.204   5.259  0.8820  0.2380  3.1445
  825MOL0     H11358   7.396  12.216   5.420  0.6279  0.9028 -0.3696
  825MOL0     H11359   7.816  11.944   5.443  0.6541  4.3544 -3.7109
  825MOL0     H11360   8.009  11.871   5.555  1.8431  0.2310  0.4199
  825MOL0     H11361  10.126  11.434   5.610 -0.7080 -0.5638  0.4912
  825MOL0     H11362  10.292  11.275   5.676 -0.6811  1.3193  0.6559
  825MOL0     H11363  10.324  10.793   5.740  0.2201 -0.1429 -1.3427
  825MOL0     H11364  10.477  10.611   5.826  0.3165  1.2219  0.6846
  825MOL0     H11365  10.874  10.539   5.653 -0.4682 -0.0342 -1.2579
  825MOL0     H11366  10.882  10.657   5.781 -1.8940  0.9073 -0.6743
  825MOL0     H11367  10.816  10.360   5.824  0.5179  0.3919 -1.5655
  825MOL0     H11368  10.835  10.473   5.947 -1.4110 -1.8851  0.1208
  825MOL0     H11369  11.062  10.382   5.763  0.5133 -0.1697  0.6271
  825MOL0     H11370  11.040  10.344   5.931 -4.1560 -1.4830  0.0374
  825MOL0     H11371  11.100  10.633   5.841 -1.6033 -0.4780  0.9591
  825MOL0     H11372  11.219  10.515   5.898 -0.4374 -0.7332  1.1575
  825MOL0     H11373  11.012  10.621   6.245 -2.8428 -0.9157  0.3924
  825MOL0     H11374  10.788  10.743   5.573 -0.2560  0.0406 -1.6726
  825MOL0     H11375  10.649  10.939   5.500  0.4941 -0.9603 -1.7989
  826MOL0     O11376   2.303  10.357   9.022  0.2383  0.4791 -0.4721
  826MOL0     C11377   2.314  10.241   9.042 -0.3581  0.1701  0.5337
  826MOL0     O11378   2.229  10.151   9.089  0.6637 -0.4631  0.0250
  826MOL0     C11379   2.101  10.189   9.132 -0.7304  0.0767  0.1708
  826MOL0     C11380   2.028  10.079   9.180  0.2033  0.4969  0.2706
  826MOL0     C11381   1.891  10.089   9.192  1.0265  0.5281 -1.0975
  826MOL0     C11382   1.832  10.210   9.162 -0.1874 -0.0900 -0.2007
  826MOL0     O11383   1.697  10.210   9.194 -0.7584 -0.3433 -0.2822
  826MOL0     C11384   1.622  10.326   9.147 -0.8804  0.2047 -0.8370
  826MOL0     C11385   1.478  10.300   9.159  0.6266  0.2027  0.6261
  826MOL0     C11386   1.430  10.276   9.294 -0.2111  0.7452  0.2893
  826MOL0     C11387   1.307  10.183   9.287 -0.3733 -0.8396 -0.2978
  826MOL0     C11388   1.230  10.191   9.425  0.2092  0.4829 -0.1208
  826MOL0     C11389   1.122  10.078   9.432 -0.2228  0.5541 -1.1280
  826MOL0     C11390   1.049  10.072   9.566  0.2520 -0.0418 -0.6363
  826MOL0     C11391   1.007  10.215   9.618 -0.3400 -0.0483 -0.3617
  826MOL0     N11392   0.927  10.220   9.738 -0.2148 -0.6630 -0.3153
  826MOL0     C11393   0.883  10.112   9.803 -0.1572  0.7409  0.8158
  826MOL0     C11394   0.850  10.164   9.923  0.1534 -0.2059 -0.5022
  826MOL0     C11395   0.789  10.068  10.011  0.0543  0.2339  0.0354
  826MOL0     C11396   0.642  10.058   9.997  0.0057  0.7659 -0.0003
  826MOL0     C11397   0.573  10.185  10.049  0.2113  0.0077  0.5404
  826MOL0     C11398   0.430  10.143  10.089 -0.0075  0.2649 -0.9199
  826MOL0     O11399   0.336  10.111   9.978 -0.5989  0.6159  0.4467
  826MOL0     C11400   0.202  10.118   9.998 -0.4608  0.3072 -0.0695
  826MOL0     C11401   0.143  10.124  10.123 -0.3324  0.5557 -0.9011
  826MOL0     C11402   0.003  10.116  10.139  0.3945 -0.3543  0.8915
  826MOL0     C11403  -0.043  10.122  10.287 -0.6721  0.1234  0.1682
  826MOL0     C11404  -0.089  10.115  10.031  0.0598  0.6853  0.3074
  826MOL0     C11405  -0.239  10.101  10.034 -0.3454  0.1157 -0.5244
  826MOL0     O11406  -0.314  10.139   9.931 -0.3487  0.1750 -0.3742
  826MOL0     C11407  -0.454  10.144   9.948  0.1066  0.0137 -0.0413
  826MOL0     C11408  -0.499  10.248  10.030  1.1323 -0.0802  0.1489
  826MOL0     C11409  -0.639  10.268  10.036  0.2821 -0.0363 -0.1836
  826MOL0     C11410  -0.728  10.190   9.965  0.7109 -0.6288 -0.3403
  826MOL0     O11411  -0.860  10.230   9.989  0.6917 -0.4187  0.7966
  826MOL0     C11412  -0.965  10.160   9.923  0.6726  0.4122 -0.4990
  826MOL0     C11413  -0.984  10.196   9.774 -0.9713 -0.4319 -0.1540
  826MOL0     C11414  -1.089  10.089   9.715 -0.1395 -0.2421 -0.5068
  826MOL0     C11415  -1.134  10.134   9.584 -0.0278 -0.1836 -0.4837
  826MOL0     C11416  -1.231  10.035   9.513 -0.0119  0.2513 -0.0889
  826MOL0     C11417  -1.369  10.038   9.579  0.7700  0.8325 -0.8195
  826MOL0     C11418  -1.470   9.959   9.509 -0.0265  0.0736 -0.3050
  826MOL0     C11419  -1.595   9.922   9.585 -0.0832 -0.0462 -0.2955
  826MOL0    Cl11420  -1.562   9.801   9.712  0.4473 -0.3091  0.2025
  826MOL0     C11421  -0.685  10.074   9.899  0.7693 -1.0485 -0.6144
  826MOL0     C11422  -0.546  10.055   9.890 -0.7767  0.2265 -0.5918
  826MOL0     O11423  -0.289  10.039  10.129  0.5590 -0.2837 -0.0269
  826MOL0     C11424  -0.027  10.121   9.902 -0.0915  0.7122 -1.1070
  826MOL0     C11425   0.114  10.120   9.891 -0.5990 -0.5460  0.1869
  826MOL0     N11426   0.876  10.304   9.931  0.6348  0.7786 -0.6222
  826MOL0     N11427   0.921  10.334   9.812 -0.3984 -0.0061  0.7825
  826MOL0     C11428   1.905  10.322   9.128 -0.4257 -0.4452 -0.8308
  826MOL0     C11429   2.041  10.315   9.122 -0.0493 -0.1460  0.1234
  826MOL0     C11430   2.439  10.188   8.975  0.6328  0.4794  0.3449
  826MOL0     C11431   2.563  10.247   8.991 -0.1642 -0.1667  0.3168
  826MOL0     C11432   2.680  10.196   8.945  0.8166 -0.4096  0.2564
  826MOL0     C11433   2.676  10.066   8.889 -0.2676 -0.4509 -0.0519
  826MOL0     O11434   2.780  10.008   8.822  0.4103 -0.3538 -0.6364
  826MOL0     C11435   2.834   9.901   8.897 -0.2006 -0.2981 -0.1379
  826MOL0     C11436   2.980   9.904   8.880 -0.0855  0.2927  0.6347
  826MOL0     C11437   3.005   9.846   8.735 -0.8259 -0.2030  0.7059
  826MOL0     C11438   3.148   9.815   8.697 -0.5671  0.4235 -0.5247
  826MOL0     C11439   3.206   9.938   8.646 -0.0621 -0.3418  0.1397
  826MOL0     C11440   3.262  10.033   8.607  0.7977  0.0292  0.4150
  826MOL0     C11441   2.552   9.998   8.876 -0.3040  0.1374  0.1680
  826MOL0     C11442   2.434  10.062   8.918 -0.8288 -0.3204  0.5549
  826MOL0     H11443   2.081   9.985   9.183  1.7948  1.2953 -1.1766
  826MOL0     H11444   1.836  10.000   9.220  0.2606  1.0544 -0.9093
  826MOL0     H11445   1.643  10.415   9.207 -1.4034  0.2713 -0.7543
  826MOL0     H11446   1.650  10.347   9.044  1.6039  1.2945 -0.0144
  826MOL0     H11447   1.427  10.390   9.125 -3.3689 -2.2283 -0.5795
  826MOL0     H11448   1.448  10.226   9.084  0.3963 -1.5483  2.3667
  826MOL0     H11449   1.505  10.240   9.365 -1.1635  1.4400  1.6877
  826MOL0     H11450   1.395  10.371   9.335 -1.2214  0.7445 -0.5204
  826MOL0     H11451   1.240  10.219   9.209 -3.5992 -0.7584  2.2824
  826MOL0     H11452   1.350  10.084   9.277  2.3305  0.1662  0.5307
  826MOL0     H11453   1.297  10.182   9.511 -0.7298  1.4900  0.7431
  826MOL0     H11454   1.185  10.290   9.429 -1.7278 -0.2554 -1.9036
  826MOL0     H11455   1.046  10.099   9.356 -1.5630 -0.5219 -0.1494
  826MOL0     H11456   1.171   9.982   9.412  2.1414  1.7137 -1.1946
  826MOL0     H11457   0.957  10.013   9.559 -0.3777  0.5738  1.7053
  826MOL0     H11458   1.117  10.020   9.635  0.9636  0.3903 -0.9930
  826MOL0     H11459   0.944  10.276   9.552  0.7308  1.5220  0.0241
  826MOL0     H11460   1.102  10.263   9.644 -1.5039  1.8472  0.6502
  826MOL0     H11461   0.867  10.007   9.777 -1.8120  0.3127  3.2129
  826MOL0     H11462   0.837   9.969  10.010 -1.7069 -0.7164  2.0899
  826MOL0     H11463   0.816  10.117  10.105 -0.2660 -2.5101  1.6585
  826MOL0     H11464   0.613   9.968  10.052  1.6069 -1.2858 -2.3330
  826MOL0     H11465   0.609  10.053   9.893  0.3556  0.6541 -0.1044
  826MOL0     H11466   0.568  10.269   9.979 -0.0348  1.7015  2.5027
  826MOL0     H11467   0.619  10.228  10.139 -2.4711  2.5831  0.8430
  826MOL0     H11468   0.384  10.216  10.155 -3.7191 -0.8096 -2.0936
  826MOL0     H11469   0.442  10.051  10.148  2.4682  0.6529 -0.7100
  826MOL0     H11470   0.203  10.136  10.213 -3.9702  1.9658  1.5646
  826MOL0     H11471   0.047  10.151  10.342 -0.4576  1.0228 -0.6233
  826MOL0     H11472  -0.126  10.190  10.312 -0.4422  0.7545 -0.7478
  826MOL0     H11473  -0.064  10.019  10.315  2.5977 -0.8138 -0.4900
  826MOL0     H11474  -0.434  10.316  10.085 -0.6691 -0.3298  2.7575
  826MOL0     H11475  -0.673  10.335  10.114 -0.6298 -3.2090  2.4045
  826MOL0     H11476  -0.957  10.052   9.938 -2.7511  0.2699  1.2458
  826MOL0     H11477  -1.062  10.174   9.973 -0.4327 -1.8298 -1.8862
  826MOL0     H11478  -1.016  10.301   9.767 -2.4156 -0.8941 -0.9916
  826MOL0     H11479  -0.888  10.187   9.722 -0.9852  3.7165 -1.2533
  826MOL0     H11480  -1.178  10.082   9.779 -1.4816 -1.7835 -2.4164
  826MOL0     H11481  -1.040   9.993   9.697 -0.7043 -0.1354 -2.9532
  826MOL0     H11482  -1.199  10.221   9.596  1.0905  0.3548  2.0383
  826MOL0     H11483  -1.050  10.164   9.520 -1.7903  3.2436 -1.4322
  826MOL0     H11484  -1.206   9.930   9.528 -1.6346 -0.3067 -1.0639
  826MOL0     H11485  -1.241  10.054   9.405 -2.6626 -2.8213 -0.5306
  826MOL0     H11486  -1.372  10.002   9.682 -1.2449  0.3903 -0.9995
  826MOL0     H11487  -1.402  10.142   9.584  2.6709  1.4159  2.9243
  826MOL0     H11488  -1.428   9.869   9.464  1.9906  0.4000  0.8046
  826MOL0     H11489  -1.488  10.027   9.425  1.5153  1.0059  0.0792
  826MOL0     H11490  -1.674   9.884   9.521  1.2171  1.4471 -2.9423
  826MOL0     H11491  -1.625  10.020   9.624 -0.9949  1.2527 -3.8707
  826MOL0     H11492  -0.758  10.010   9.849 -2.8575  2.6895 -0.7277
  826MOL0     H11493  -0.502   9.970   9.840 -1.9130 -0.4205 -0.5249
  826MOL0     H11494  -0.090  10.117   9.814 -0.3708  2.8867 -1.0689
  826MOL0     H11495   0.143  10.125   9.787 -1.5555 -1.2283 -0.1271
  826MOL0     H11496   1.851  10.413   9.100 -1.2728 -0.7763 -0.3132
  826MOL0     H11497   2.090  10.407   9.092 -2.2776 -0.0036 -3.8613
  826MOL0     H11498   2.568  10.345   9.038  1.2383  2.7314 -5.0345
  826MOL0     H11499   2.776  10.245   8.956  1.1615 -1.4772  2.7514
  826MOL0     H11500   2.809   9.923   9.001 -1.0909  1.7812 -0.7530
  826MOL0     H11501   2.792   9.807   8.859  0.3968 -0.3989 -0.5772
  826MOL0     H11502   3.023   9.846   8.962 -2.2952  2.2812  3.3922
  826MOL0     H11503   3.018  10.006   8.885  0.6819  0.0349  0.1622
  826MOL0     H11504   2.951   9.904   8.659 -2.7094 -2.0780  0.5005
  826MOL0     H11505   2.959   9.747   8.728 -0.6608 -0.2371 -0.0207
  826MOL0     H11506   3.150   9.731   8.627 -0.4685 -0.5577  0.6201
  826MOL0     H11507   3.199   9.767   8.781 -2.0094 -1.5542 -0.7124
  826MOL0     H11508   3.320  10.120   8.583  0.1945  0.0108 -1.2119
  826MOL0     H11509   2.538   9.896   8.842 -3.6146  0.6218 -0.2772
  826MOL0     H11510   2.343  10.002   8.921 -0.2905 -1.1601  0.5836
  827MOL0     O11511   2.319   0.755   9.261 -0.1727  0.2058 -0.1525
  827MOL0     C11512   2.387   0.769   9.158  0.3681 -0.2801 -0.3565
  827MOL0     O11513   2.351   0.733   9.035 -0.3329 -0.4449  0.0776
  827MOL0     C11514   2.232   0.669   9.002  0.5186  0.6708  0.7204
  827MOL0     C11515   2.200   0.558   9.073 -0.0016  0.9982 -0.9716
  827MOL0     C11516   2.085   0.492   9.039  0.4740  0.4989 -0.3295
  827MOL0     C11517   2.002   0.533   8.930 -0.1741 -0.0289 -0.0113
  827MOL0     O11518   1.893   0.445   8.908 -0.2383 -0.2581  0.1568
  827MOL0     C11519   1.810   0.478   8.796 -0.6718 -0.0789  0.8749
  827MOL0     C11520   1.684   0.396   8.806  0.4155  0.3119  0.5510
  827MOL0     C11521   1.595   0.449   8.921 -0.3271  0.1154 -0.0150
  827MOL0     C11522   1.477   0.349   8.934  0.2115  0.6092 -0.0978
  827MOL0     C11523   1.362   0.405   9.009  0.0279 -0.6107 -0.2322
  827MOL0     C11524   1.233   0.325   8.987  0.6032 -0.9926  0.1369
  827MOL0     C11525   1.113   0.350   9.079 -0.0793  0.2705  0.8770
  827MOL0     C11526   1.098   0.495   9.103  0.8254 -0.6041 -0.5399
  827MOL0     N11527   1.035   0.558   8.993 -0.2316 -0.4529 -0.1858
  827MOL0     C11528   0.901   0.591   8.981  0.5964 -0.6390  0.0784
  827MOL0     C11529   0.888   0.644   8.851 -0.3106  0.5106 -0.0441
  827MOL0     C11530   0.773   0.704   8.782  0.2760 -0.6355 -0.4161
  827MOL0     C11531   0.712   0.821   8.861 -0.8033  0.1039  0.2276
  827MOL0     C11532   0.643   0.923   8.773 -0.2581  0.5753  0.9928
  827MOL0     C11533   0.559   1.021   8.862  0.1626 -0.2214  0.0812
  827MOL0     O11534   0.467   1.069   8.759  0.3240  0.4310 -0.3425
  827MOL0     C11535   0.388   1.178   8.787  0.0717  0.2423 -0.3986
  827MOL0     C11536   0.365   1.242   8.910 -0.4957  0.5840  0.4039
  827MOL0     C11537   0.268   1.327   8.934  0.6958  0.3690 -0.8999
  827MOL0     C11538   0.273   1.372   9.076  0.5596  1.1205 -0.6800
  827MOL0     C11539   0.177   1.356   8.832  1.2912 -0.1793 -0.7071
  827MOL0     C11540   0.053   1.447   8.849  0.2348 -0.1258 -0.5147
  827MOL0     O11541   0.011   1.504   8.731  0.3990  0.5260 -0.1819
  827MOL0     C11542  -0.097   1.593   8.733 -0.1172  0.3263 -0.7442
  827MOL0     C11543  -0.100   1.679   8.627  0.1200  0.6586 -0.0142
  827MOL0     C11544  -0.210   1.755   8.591 -0.0003  0.5019 -0.0538
  827MOL0     C11545  -0.327   1.751   8.674 -0.5311  0.1240  0.1463
  827MOL0     O11546  -0.443   1.824   8.645  0.4482 -0.3162 -0.6750
  827MOL0     C11547  -0.507   1.797   8.517 -0.0535 -0.2197 -0.1851
  827MOL0     C11548  -0.658   1.813   8.535 -0.2405 -0.3930 -0.1572
  827MOL0     C11549  -0.710   1.949   8.499 -0.2872 -0.1551 -1.5165
  827MOL0     C11550  -0.788   1.940   8.367 -0.6130 -0.4586  0.2594
  827MOL0     C11551  -0.812   2.082   8.323  0.3090 -0.8493 -0.0613
  827MOL0     C11552  -0.916   2.173   8.411  0.4810  0.4381  0.2858
  827MOL0     C11553  -1.057   2.106   8.416 -0.4150  0.7616 -1.3648
  827MOL0     C11554  -1.127   2.105   8.279  0.1000  0.3084  0.6000
  827MOL0    Cl11555  -1.155   2.271   8.227 -0.2187 -0.2444 -0.6383
  827MOL0     C11556  -0.324   1.663   8.787  0.3323  0.1423  0.0095
  827MOL0     C11557  -0.205   1.584   8.819  0.9615 -0.1206 -0.6894
  827MOL0     O11558   0.015   1.458   8.963  0.7594 -0.4096  0.1464
  827MOL0     C11559   0.188   1.297   8.707  0.4502  0.1724  0.0891
  827MOL0     C11560   0.295   1.210   8.686 -0.0766 -0.0823 -0.3782
  827MOL0     N11561   1.017   0.636   8.804  0.4066  0.5647 -0.7982
  827MOL0     N11562   1.105   0.596   8.888  0.0105  0.1907  0.0701
  827MOL0     C11563   2.033   0.648   8.861  0.6622 -0.2818 -0.1366
  827MOL0     C11564   2.157   0.718   8.896  0.2896  0.7892  0.3590
  827MOL0     C11565   2.516   0.831   9.168  0.1843 -0.8894  1.0522
  827MOL0     C11566   2.611   0.810   9.067 -0.0810 -0.4596  0.0576
  827MOL0     C11567   2.738   0.868   9.080  0.2034  0.5906 -0.4530
  827MOL0     C11568   2.781   0.923   9.203 -0.0604 -0.2613 -0.9148
  827MOL0     O11569   2.909   0.964   9.206 -0.5273  0.2466  0.3888
  827MOL0     C11570   2.960   1.001   9.335 -0.4140  0.4101 -0.3946
  827MOL0     C11571   3.119   1.011   9.323  1.1915 -0.2658 -0.6276
  827MOL0     C11572   3.174   1.100   9.434  0.8418 -0.5138  0.1525
  827MOL0     C11573   3.329   1.106   9.417 -1.1714 -0.6095 -1.2145
  827MOL0     C11574   3.384   1.175   9.531 -0.7111 -0.7845 -0.3730
  827MOL0     C11575   3.447   1.233   9.621  1.0181  0.7360 -0.0457
  827MOL0     C11576   2.682   0.948   9.303  0.7571 -0.7719  0.6210
  827MOL0     C11577   2.558   0.903   9.284  0.0298  0.2137  0.0678
  827MOL0     H11578   2.263   0.526   9.155 -0.9767  0.3057 -0.4667
  827MOL0     H11579   2.070   0.408   9.106  2.6247  0.5369  0.2763
  827MOL0     H11580   1.785   0.585   8.795 -1.0098 -0.1102  2.6355
  827MOL0     H11581   1.868   0.454   8.706 -0.9204 -1.0309  0.9570
  827MOL0     H11582   1.628   0.398   8.712 -0.3725 -1.7515  0.9212
  827MOL0     H11583   1.714   0.293   8.825  0.3066  0.4806  1.7599
  827MOL0     H11584   1.651   0.450   9.015  0.1269  0.1145 -0.2845
  827MOL0     H11585   1.556   0.549   8.900  4.4101  2.5520  1.3336
  827MOL0     H11586   1.459   0.314   8.832 -0.8662 -2.3476  1.0081
  827MOL0     H11587   1.510   0.262   8.990  0.9785  1.6433  1.1158
  827MOL0     H11588   1.388   0.407   9.115 -0.5808 -0.1241 -0.0898
  827MOL0     H11589   1.344   0.508   8.977  0.2466  0.0355  1.5941
  827MOL0     H11590   1.209   0.348   8.883  1.0006 -1.9387 -0.1757
  827MOL0     H11591   1.253   0.217   8.986 -0.6518 -1.2511 -1.8583
  827MOL0     H11592   1.030   0.295   9.034 -0.2295  0.7780  0.5235
  827MOL0     H11593   1.133   0.298   9.174  0.1308 -1.2649  0.0361
  827MOL0     H11594   1.191   0.550   9.121 -0.2345  1.3844 -0.8776
  827MOL0     H11595   1.041   0.516   9.194  1.0520 -1.2063 -0.2528
  827MOL0     H11596   0.823   0.572   9.055  1.1936  0.6747  1.0879
  827MOL0     H11597   0.807   0.740   8.685  2.3104 -0.4489  0.3165
  827MOL0     H11598   0.699   0.626   8.761  0.1326  0.3597 -4.2363
  827MOL0     H11599   0.792   0.872   8.916 -0.3715 -1.1518  0.7849
  827MOL0     H11600   0.636   0.789   8.932 -0.7951 -3.2371 -1.1061
  827MOL0     H11601   0.571   0.871   8.711 -1.2506 -1.4406  3.6308
  827MOL0     H11602   0.721   0.974   8.715 -0.1566  1.0900  1.5713
  827MOL0     H11603   0.613   1.099   8.917 -3.2514  1.0196  1.9673
  827MOL0     H11604   0.495   0.977   8.938  2.2477  0.5814  2.4309
  827MOL0     H11605   0.435   1.218   8.990 -1.6319 -2.1407  0.7120
  827MOL0     H11606   0.377   1.385   9.108  0.7179  0.2946 -0.8556
  827MOL0     H11607   0.223   1.464   9.107 -0.0130  0.7113 -0.3731
  827MOL0     H11608   0.233   1.287   9.131  0.5243  1.5865  0.0294
  827MOL0     H11609  -0.025   1.673   8.549 -1.0853 -3.2084 -1.1219
  827MOL0     H11610  -0.213   1.808   8.497 -1.6786 -0.8993 -0.8450
  827MOL0     H11611  -0.467   1.859   8.435 -0.1976  1.5952  1.0599
  827MOL0     H11612  -0.497   1.689   8.502  3.4309 -0.6755  3.6712
  827MOL0     H11613  -0.722   1.735   8.494  0.6186 -0.9522 -0.4596
  827MOL0     H11614  -0.672   1.802   8.642  1.5741  2.4533  0.4954
  827MOL0     H11615  -0.618   2.006   8.485  2.0834 -3.6770 -1.5483
  827MOL0     H11616  -0.774   1.984   8.580 -3.2843  1.2629 -4.2681
  827MOL0     H11617  -0.730   1.884   8.292 -0.6057  0.6314 -0.5828
  827MOL0     H11618  -0.885   1.892   8.381 -2.3036  1.2516 -3.8325
  827MOL0     H11619  -0.847   2.071   8.220 -2.2314  2.7757  0.2449
  827MOL0     H11620  -0.714   2.130   8.321 -1.0955  2.2694  0.3582
  827MOL0     H11621  -0.870   2.194   8.508 -2.2557  3.3797  1.1356
  827MOL0     H11622  -0.930   2.269   8.361  1.1847  0.8516  0.8666
  827MOL0     H11623  -1.121   2.153   8.491  0.6021 -2.6332  1.9287
  827MOL0     H11624  -1.039   2.009   8.463  0.4344  2.2922  1.7113
  827MOL0     H11625  -1.226   2.058   8.276 -0.0609  0.6282  0.8260
  827MOL0     H11626  -1.074   2.047   8.203 -3.1135  1.4738 -2.8405
  827MOL0     H11627  -0.404   1.664   8.860  1.3988 -4.0730  1.5486
  827MOL0     H11628  -0.202   1.514   8.902 -1.0283 -0.1263 -0.5661
  827MOL0     H11629   0.105   1.301   8.637 -1.4154 -2.1939  1.9543
  827MOL0     H11630   0.298   1.155   8.593  1.2072 -0.8048  0.0577
  827MOL0     H11631   1.975   0.683   8.777 -0.2859 -2.5296 -0.4966
  827MOL0     H11632   2.199   0.797   8.835  4.7936 -0.3330  1.6410
  827MOL0     H11633   2.582   0.755   8.978  0.8702 -0.3988 -0.3011
  827MOL0     H11634   2.801   0.849   8.994  1.4530 -1.9770  0.9244
  827MOL0     H11635   2.923   1.101   9.360  3.7895  1.4352  2.6768
  827MOL0     H11636   2.926   0.934   9.415  0.3882  0.5153  0.0383
  827MOL0     H11637   3.124   1.068   9.230 -0.6517  1.3222  0.1490
  827MOL0     H11638   3.178   0.921   9.306  0.9149 -0.3404 -1.2348
  827MOL0     H11639   3.133   1.063   9.529 -2.3402 -3.1727 -2.0101
  827MOL0     H11640   3.137   1.203   9.441  0.1482 -0.8347  2.1342
  827MOL0     H11641   3.354   1.177   9.337 -0.0349  0.6832  0.2202
  827MOL0     H11642   3.371   1.007   9.400 -1.0480 -0.8584  0.3924
  827MOL0     H11643   3.498   1.274   9.705  1.0532  0.7470 -0.0723
  827MOL0     H11644   2.704   0.995   9.398  0.5939 -1.6746  1.1165
  827MOL0     H11645   2.483   0.909   9.362  0.8336 -2.0893  1.1084
  828MOL0     O11646   5.020   4.851   9.174 -0.3010 -0.7251  0.1014
  828MOL0     C11647   5.045   4.913   9.275  0.6699 -0.0433  0.2682
  828MOL0     O11648   4.959   4.971   9.360  0.4632  0.4784 -0.1294
  828MOL0     C11649   4.824   4.966   9.333 -1.0499  0.2047 -0.1778
  828MOL0     C11650   4.765   5.092   9.307 -0.8836 -0.1196 -0.3356
  828MOL0     C11651   4.627   5.094   9.271 -0.0559  0.0597 -0.8728
  828MOL0     C11652   4.550   4.978   9.282  0.2775  0.2328 -0.3361
  828MOL0     O11653   4.415   4.970   9.253 -0.3497  0.0132 -0.4204
  828MOL0     C11654   4.356   5.063   9.155 -0.1879  0.9882 -0.6605
  828MOL0     C11655   4.201   5.055   9.163 -0.6562 -0.1113 -0.1782
  828MOL0     C11656   4.126   4.936   9.096 -0.0493 -0.1728 -0.6937
  828MOL0     C11657   3.983   4.921   9.165  0.3921  1.0254  0.4453
  828MOL0     C11658   3.917   4.786   9.109 -0.5750 -0.9432  0.4348
  828MOL0     C11659   3.783   4.763   9.159  0.8390 -0.2662  0.0634
  828MOL0     C11660   3.768   4.617   9.180 -0.4219  0.3791 -0.4015
  828MOL0     C11661   3.638   4.583   9.245 -0.1366  0.8533  0.5021
  828MOL0     N11662   3.522   4.622   9.166 -0.6359 -0.4150  0.1611
  828MOL0     C11663   3.453   4.532   9.088  0.2610  0.4562  0.0032
  828MOL0     C11664   3.345   4.603   9.039  0.0115  0.9754  0.0110
  828MOL0     C11665   3.228   4.547   8.953 -0.1594 -0.0799 -0.9082
  828MOL0     C11666   3.139   4.455   9.045  0.1560  0.0742 -0.1064
  828MOL0     C11667   3.006   4.426   8.970  0.2445 -0.1057  0.6385
  828MOL0     C11668   2.905   4.341   9.057  0.5439 -0.2181  0.1984
  828MOL0     O11669   2.957   4.211   9.058  0.4078  0.3276 -0.0209
  828MOL0     C11670   2.894   4.127   9.142  0.6213  0.0298  0.8212
  828MOL0     C11671   2.797   4.040   9.105 -0.1695 -0.8560 -0.4156
  828MOL0     C11672   2.746   3.951   9.191 -0.8545  0.0256 -0.7880
  828MOL0     C11673   2.649   3.846   9.135  0.9969 -0.0878 -0.4003
  828MOL0     C11674   2.775   3.952   9.329 -1.0029  0.0878 -0.1360
  828MOL0     C11675   2.696   3.874   9.434 -0.6848  0.3245  0.6545
  828MOL0     O11676   2.771   3.823   9.539 -0.1438  0.5058 -0.5134
  828MOL0     C11677   2.704   3.790   9.652 -0.2679 -0.3127 -0.0846
  828MOL0     C11678   2.608   3.866   9.713  0.3327  0.5765  0.0079
  828MOL0     C11679   2.539   3.826   9.823 -0.7948  0.1277 -0.0280
  828MOL0     C11680   2.569   3.710   9.881  0.1633  0.4722  0.6561
  828MOL0     O11681   2.518   3.663  10.001  0.0330 -0.8010  0.3571
  828MOL0     C11682   2.388   3.714  10.040  0.4224  0.6280 -0.3721
  828MOL0     C11683   2.268   3.627   9.989  0.6053  0.1676 -0.2926
  828MOL0     C11684   2.125   3.675  10.023  0.0611 -0.3390 -0.0531
  828MOL0     C11685   2.026   3.574   9.967 -0.4795  0.3665 -0.3807
  828MOL0     C11686   1.885   3.603   9.994  0.1879  0.0367 -0.1754
  828MOL0     C11687   1.781   3.517   9.922  0.2425  0.6300  1.3360
  828MOL0     C11688   1.778   3.368   9.968 -1.0796 -0.7543  0.3464
  828MOL0     C11689   1.737   3.338  10.114  0.7518 -0.1522  0.2981
  828MOL0    Cl11690   1.606   3.461  10.157  0.2164 -0.0263  0.2635
  828MOL0     C11691   2.666   3.629   9.821 -0.8062 -0.5042  0.3654
  828MOL0     C11692   2.736   3.670   9.706 -0.3716  0.0108 -0.6354
  828MOL0     O11693   2.579   3.856   9.411  0.2469 -0.3472 -0.7012
  828MOL0     C11694   2.880   4.043   9.365 -0.1022 -0.2391 -0.2470
  828MOL0     C11695   2.941   4.128   9.273 -0.0744  0.1089  0.4069
  828MOL0     N11696   3.340   4.723   9.102 -0.9025 -0.1632  0.2958
  828MOL0     N11697   3.449   4.735   9.174  1.1128 -0.0565 -1.1588
  828MOL0     C11698   4.609   4.856   9.307 -1.1363 -0.8451 -0.2190
  828MOL0     C11699   4.744   4.849   9.330 -0.4979 -0.6093 -0.2943
  828MOL0     C11700   5.187   4.932   9.299 -0.7506 -0.1515 -0.5686
  828MOL0     C11701   5.228   5.014   9.407 -0.0207  0.5129  0.8383
  828MOL0     C11702   5.358   5.034   9.424 -0.4785 -0.2361  0.7893
  828MOL0     C11703   5.456   4.979   9.343  0.3975 -0.1267  0.8432
  828MOL0     O11704   5.592   4.997   9.366  0.1649  0.8735  1.2597
  828MOL0     C11705   5.673   5.049   9.259 -0.3073  0.1880 -0.1327
  828MOL0     C11706   5.812   5.066   9.323 -1.1146 -0.1265  0.2573
  828MOL0     C11707   5.916   5.078   9.212  0.5292 -0.6485 -0.9717
  828MOL0     C11708   6.061   5.098   9.264  0.6822  0.0414  0.1240
  828MOL0     C11709   6.153   5.110   9.148  0.5325 -0.2857  0.4678
  828MOL0     C11710   6.231   5.120   9.054 -0.7070  0.2730  0.2157
  828MOL0     C11711   5.417   4.902   9.233 -0.2631 -0.2906  0.2335
  828MOL0     C11712   5.285   4.872   9.209  0.3092 -0.1778 -0.0407
  828MOL0     H11713   4.813   5.188   9.322 -2.8127  0.6672  1.3266
  828MOL0     H11714   4.580   5.189   9.247 -1.2608 -0.0954  0.6646
  828MOL0     H11715   4.386   5.167   9.173 -1.3648  1.0761  1.0197
  828MOL0     H11716   4.379   5.035   9.052 -2.7510 -0.4134 -0.9316
  828MOL0     H11717   4.179   5.047   9.270  0.2804 -1.2863 -0.0536
  828MOL0     H11718   4.171   5.153   9.125  2.3598  1.6364  1.5292
  828MOL0     H11719   4.126   4.976   8.994  0.9715 -0.0649 -0.6551
  828MOL0     H11720   4.172   4.838   9.102  0.4997  0.1771  1.6260
  828MOL0     H11721   3.988   4.915   9.274 -1.4064 -1.2225  0.4580
  828MOL0     H11722   3.925   5.003   9.121 -1.3814 -0.6456 -0.4288
  828MOL0     H11723   3.909   4.792   9.000 -3.0667 -0.9660  0.5530
  828MOL0     H11724   3.987   4.708   9.141 -1.2676 -2.1708 -0.9677
  828MOL0     H11725   3.762   4.812   9.255 -2.6989 -2.8704  0.8201
  828MOL0     H11726   3.709   4.796   9.086 -2.8801 -3.4026  2.0632
  828MOL0     H11727   3.789   4.564   9.087  1.4978  0.9544 -0.3265
  828MOL0     H11728   3.846   4.582   9.248  1.4791  0.5146 -2.3853
  828MOL0     H11729   3.637   4.628   9.345  1.0009  1.1690  0.3883
  828MOL0     H11730   3.642   4.478   9.274 -0.0745  0.8489  0.4786
  828MOL0     H11731   3.478   4.430   9.059 -1.6896  0.6563 -2.8030
  828MOL0     H11732   3.175   4.635   8.916  2.2924  0.8794 -2.3879
  828MOL0     H11733   3.267   4.495   8.865  3.1126  1.5616 -0.5562
  828MOL0     H11734   3.107   4.515   9.131  0.0955  1.0801 -0.8108
  828MOL0     H11735   3.189   4.365   9.082  2.3699 -0.2126 -3.4220
  828MOL0     H11736   3.020   4.384   8.870  1.2056  0.4499  0.5318
  828MOL0     H11737   2.960   4.525   8.962  0.1607 -0.1667  0.3483
  828MOL0     H11738   2.802   4.362   9.026  0.9452  0.9719 -0.3991
  828MOL0     H11739   2.893   4.376   9.160 -1.1062 -1.5347  0.4898
  828MOL0     H11740   2.778   4.042   8.998 -1.7735  1.2142 -0.1531
  828MOL0     H11741   2.695   3.748   9.147 -0.4882 -0.5422  2.6774
  828MOL0     H11742   2.548   3.855   9.176  1.0970 -1.5764  0.2274
  828MOL0     H11743   2.639   3.856   9.027  0.3090  0.5336 -0.2827
  828MOL0     H11744   2.569   3.958   9.670 -0.8699 -0.0127 -0.1967
  828MOL0     H11745   2.465   3.892   9.867  1.0423  0.8517  2.2231
  828MOL0     H11746   2.400   3.680  10.143  1.6226  1.0617 -0.3562
  828MOL0     H11747   2.369   3.821  10.049  0.4560  0.5147  1.1969
  828MOL0     H11748   2.271   3.620   9.880 -0.8513  1.4652 -0.4495
  828MOL0     H11749   2.285   3.523  10.021  0.7331  0.2101 -0.2222
  828MOL0     H11750   2.112   3.774   9.978 -3.2405 -0.9212 -0.6139
  828MOL0     H11751   2.106   3.680  10.131  0.4900  1.6987 -0.0361
  828MOL0     H11752   2.033   3.571   9.857  2.8286  0.4714 -0.2833
  828MOL0     H11753   2.044   3.473  10.006  0.0329  0.9696  0.9761
  828MOL0     H11754   1.880   3.707   9.960 -0.7864  0.1751  0.3483
  828MOL0     H11755   1.874   3.588  10.102  2.1887 -1.0065 -0.0690
  828MOL0     H11756   1.683   3.564   9.937 -1.2947 -3.0103  4.2646
  828MOL0     H11757   1.801   3.509   9.815 -1.9799 -0.9616  0.9812
  828MOL0     H11758   1.882   3.332   9.959 -1.4289 -1.6390 -0.3018
  828MOL0     H11759   1.716   3.313   9.897 -0.2007 -1.0744 -0.2032
  828MOL0     H11760   1.823   3.351  10.181  0.9892 -1.6996  0.3326
  828MOL0     H11761   1.702   3.235  10.115  1.7158 -0.5295 -1.2700
  828MOL0     H11762   2.703   3.536   9.863  2.1623  0.5558  0.3016
  828MOL0     H11763   2.817   3.602   9.680 -0.1583 -1.4569  3.1829
  828MOL0     H11764   2.922   4.035   9.465 -0.8315  0.9861  0.1863
  828MOL0     H11765   3.028   4.191   9.286  0.9246 -0.0035 -4.1421
  828MOL0     H11766   4.564   4.757   9.309  2.3006 -2.6022  2.4244
  828MOL0     H11767   4.801   4.758   9.346  1.6187  0.5642 -0.8036
  828MOL0     H11768   5.165   5.072   9.474 -3.6141 -2.6716  0.5266
  828MOL0     H11769   5.399   5.091   9.506 -1.0831 -1.5399  2.0426
  828MOL0     H11770   5.674   4.970   9.183 -2.0381  0.3896 -0.4033
  828MOL0     H11771   5.633   5.143   9.221 -1.0899  0.0951  0.4177
  828MOL0     H11772   5.845   4.983   9.387  0.2110 -1.2503 -1.7588
  828MOL0     H11773   5.819   5.156   9.384  1.4105  0.0841 -0.2211
  828MOL0     H11774   5.884   5.161   9.149 -0.8115  0.1765  0.7192
  828MOL0     H11775   5.918   4.987   9.151  2.5697  0.4614 -2.6934
  828MOL0     H11776   6.093   5.004   9.310  0.6359  0.5805  1.3119
  828MOL0     H11777   6.082   5.184   9.330 -1.0623  1.5447 -1.1773
  828MOL0     H11778   6.309   5.113   8.980  0.6052 -2.3838  1.6799
  828MOL0     H11779   5.489   4.871   9.157  0.4334  0.5788  0.5306
  828MOL0     H11780   5.262   4.811   9.122  1.5858  0.8238 -1.1190
  829MOL0     O11781   9.176   0.952  11.083 -0.2412 -0.5630 -0.4339
  829MOL0     C11782   9.229   1.057  11.117  0.0456 -0.3737  0.2984
  829MOL0     O11783   9.177   1.185  11.080 -0.2112 -0.1391 -0.0430
  829MOL0     C11784   9.095   1.198  10.974 -0.3319  0.5951  0.0137
  829MOL0     C11785   9.132   1.175  10.840  0.3778  0.2658 -0.0509
  829MOL0     C11786   9.034   1.185  10.745  0.1570 -0.0353 -0.9349
  829MOL0     C11787   8.899   1.206  10.775 -0.5464  0.0366  0.0683
  829MOL0     O11788   8.808   1.192  10.675 -0.1150  0.7182 -0.0516
  829MOL0     C11789   8.671   1.234  10.692  0.2733  0.0019 -0.1157
  829MOL0     C11790   8.604   1.212  10.561 -0.0406 -0.4292  0.5199
  829MOL0     C11791   8.455   1.267  10.561 -0.3982  0.5111 -1.2974
  829MOL0     C11792   8.433   1.409  10.499 -1.2237 -0.2418  0.7330
  829MOL0     C11793   8.278   1.441  10.485 -0.7392  0.3338 -0.8105
  829MOL0     C11794   8.271   1.580  10.423 -0.5631 -0.5380  0.4367
  829MOL0     C11795   8.140   1.608  10.348 -0.3026  0.2810 -0.3296
  829MOL0     C11796   8.127   1.747  10.300 -0.2670  0.0321  0.0970
  829MOL0     N11797   7.998   1.765  10.228  0.5816  0.6826  0.8927
  829MOL0     C11798   7.948   1.672  10.145  0.0341  0.0035  1.3280
  829MOL0     C11799   7.831   1.729  10.099  0.1560  0.0604  0.2066
  829MOL0     C11800   7.750   1.661   9.992  0.4226  0.1242 -0.2825
  829MOL0     C11801   7.646   1.757   9.939 -0.7572 -0.9759  0.7976
  829MOL0     C11802   7.553   1.677   9.846  0.7804 -0.1808  0.1080
  829MOL0     C11803   7.418   1.745   9.834 -0.2584  0.2975 -0.2472
  829MOL0     O11804   7.321   1.669   9.754  0.7474  0.2118  0.3557
  829MOL0     C11805   7.237   1.741   9.674  0.1948  0.2816 -0.7193
  829MOL0     C11806   7.146   1.825   9.735  0.1682 -0.3223 -0.5820
  829MOL0     C11807   7.060   1.905   9.659 -0.7100 -0.0722 -0.3169
  829MOL0     C11808   6.970   1.998   9.748  0.0823 -0.1555 -0.0284
  829MOL0     C11809   7.071   1.897   9.520  0.7861  0.3868  0.1543
  829MOL0     C11810   6.966   1.967   9.438  0.1623 -0.0283 -0.2976
  829MOL0     O11811   6.856   2.024   9.494 -0.0712 -0.2034 -0.3578
  829MOL0     C11812   6.753   2.075   9.408 -0.7613 -0.0253  0.0070
  829MOL0     C11813   6.623   2.053   9.462  0.7266 -0.7623  0.1097
  829MOL0     C11814   6.511   2.113   9.407 -0.2680 -0.3746 -1.2790
  829MOL0     C11815   6.515   2.173   9.286 -1.0213 -0.0991  0.2206
  829MOL0     O11816   6.402   2.224   9.232  0.1596  0.2302 -0.7499
  829MOL0     C11817   6.401   2.252   9.090  0.6396 -0.4364 -0.9879
  829MOL0     C11818   6.253   2.279   9.041  0.4204  0.3636 -0.2560
  829MOL0     C11819   6.226   2.224   8.902 -0.1282 -0.0309 -0.0685
  829MOL0     C11820   6.112   2.301   8.835  0.5459 -0.5501 -0.4172
  829MOL0     C11821   5.975   2.262   8.895  0.0184  0.6226 -0.2921
  829MOL0     C11822   5.858   2.316   8.809  1.3891 -0.0086  0.0257
  829MOL0     C11823   5.733   2.233   8.845  0.1242  0.0811  0.3274
  829MOL0     C11824   5.599   2.289   8.789  0.3004 -0.0945  0.2133
  829MOL0    Cl11825   5.452   2.184   8.809  0.1219  0.2007  0.2093
  829MOL0     C11826   6.641   2.190   9.230  0.1119 -0.0391  0.5617
  829MOL0     C11827   6.753   2.147   9.293 -0.0126  0.2933  0.0239
  829MOL0     O11828   6.984   1.965   9.317  0.3741 -0.0921  0.0948
  829MOL0     C11829   7.170   1.818   9.456 -0.0615  0.0144 -0.6844
  829MOL0     C11830   7.257   1.743   9.537  0.6709  0.1858 -0.5076
  829MOL0     N11831   7.825   1.854  10.145  0.1781  0.7354  0.3793
  829MOL0     N11832   7.926   1.879  10.217 -0.8317 -0.5981 -0.3145
  829MOL0     C11833   8.869   1.239  10.907 -1.2003 -0.3661 -0.5713
  829MOL0     C11834   8.963   1.230  11.007 -0.0066  0.4077  0.2407
  829MOL0     C11835   9.348   1.053  11.194 -0.6254 -0.2615 -0.1976
  829MOL0     C11836   9.412   1.173  11.221  0.2408 -0.8016  0.0570
  829MOL0     C11837   9.539   1.179  11.283 -0.2616  0.9283  0.2022
  829MOL0     C11838   9.588   1.057  11.332 -0.3126 -0.2824 -0.8299
  829MOL0     O11839   9.704   1.054  11.412  0.0338  0.5950 -0.1375
  829MOL0     C11840   9.741   0.933  11.483  0.3076 -0.4838 -0.4825
  829MOL0     C11841   9.642   0.902  11.594  0.4765 -0.2218  0.9635
  829MOL0     C11842   9.616   1.021  11.691 -0.3427  0.4593  1.7368
  829MOL0     C11843   9.501   0.999  11.794  0.5465  0.5365  0.8840
  829MOL0     C11844   9.366   1.013  11.739  0.0560  1.0188  0.0710
  829MOL0     C11845   9.255   0.998  11.701 -0.4620  1.2206 -0.3347
  829MOL0     C11846   9.532   0.938  11.297  0.4762 -0.0191  0.4763
  829MOL0     C11847   9.410   0.938  11.234 -1.2756  0.7269  0.0904
  829MOL0     H11848   9.232   1.141  10.816  0.4585 -0.0803  0.7123
  829MOL0     H11849   9.068   1.150  10.648  1.3074 -3.5595  0.6040
  829MOL0     H11850   8.623   1.180  10.774 -0.4381  1.4004  0.4198
  829MOL0     H11851   8.664   1.342  10.711  0.2345 -0.1341  0.7000
  829MOL0     H11852   8.649   1.278  10.486 -1.5412  2.3798  1.9360
  829MOL0     H11853   8.608   1.106  10.535  3.6519  0.3601 -3.1363
  829MOL0     H11854   8.397   1.194  10.504  2.2970 -3.5897  0.7363
  829MOL0     H11855   8.421   1.276  10.665  1.3215  1.4450 -0.7772
  829MOL0     H11856   8.481   1.487  10.560 -0.6785  1.0341 -1.2161
  829MOL0     H11857   8.487   1.415  10.404  1.7918 -2.4692  2.1367
  829MOL0     H11858   8.235   1.363  10.422  0.4940  1.2380 -2.8827
  829MOL0     H11859   8.239   1.435  10.587  0.7569  1.5823 -0.1140
  829MOL0     H11860   8.286   1.661  10.495  0.7365  0.4362 -0.8664
  829MOL0     H11861   8.345   1.590  10.343  1.1531 -4.2577  1.3603
  829MOL0     H11862   8.136   1.536  10.265 -0.1849 -0.1482  0.0331
  829MOL0     H11863   8.048   1.603  10.408  0.0062  3.8774  0.7022
  829MOL0     H11864   8.213   1.782  10.242 -2.0038  1.8609 -1.5686
  829MOL0     H11865   8.120   1.805  10.392  0.6705 -0.9311  0.7921
  829MOL0     H11866   7.970   1.571  10.112 -0.3006  0.2324  0.3614
  829MOL0     H11867   7.803   1.623   9.904 -1.0353  3.6695 -2.8985
  829MOL0     H11868   7.700   1.581  10.048 -0.1615  0.7074  0.0349
  829MOL0     H11869   7.700   1.837   9.888  0.6449 -3.1222 -1.3135
  829MOL0     H11870   7.584   1.800  10.019  1.9779  1.0801  1.9796
  829MOL0     H11871   7.542   1.571   9.871  1.2983 -0.1025  0.6701
  829MOL0     H11872   7.597   1.671   9.746 -1.5236  1.1107 -1.0905
  829MOL0     H11873   7.441   1.846   9.800 -1.9916  0.5674 -0.6647
  829MOL0     H11874   7.376   1.752   9.934 -1.0697  2.8622 -0.6923
  829MOL0     H11875   7.165   1.837   9.841  3.6604  0.9118 -1.1840
  829MOL0     H11876   7.007   2.020   9.849 -2.7840  2.0982  0.6696
  829MOL0     H11877   6.966   2.096   9.701 -0.0473  0.4683  1.2365
  829MOL0     H11878   6.864   1.970   9.754  0.5113 -1.9220 -0.1435
  829MOL0     H11879   6.599   2.003   9.555  1.2242  0.8453  1.1565
  829MOL0     H11880   6.419   2.089   9.459 -0.3570 -0.4330 -1.4618
  829MOL0     H11881   6.462   2.342   9.073 -2.5662  2.5934  1.8619
  829MOL0     H11882   6.444   2.166   9.038  1.0628 -0.4057 -0.6914
  829MOL0     H11883   6.191   2.226   9.113  2.7895  1.6706  2.9605
  829MOL0     H11884   6.234   2.387   9.039  0.2735  0.3354 -1.9863
  829MOL0     H11885   6.205   2.117   8.894  0.0128  0.0087 -1.3040
  829MOL0     H11886   6.315   2.246   8.842 -1.8016  1.4203 -2.1621
  829MOL0     H11887   6.117   2.409   8.847 -0.1427 -0.6522  1.0717
  829MOL0     H11888   6.112   2.279   8.728 -1.7509 -1.5779 -0.2575
  829MOL0     H11889   5.966   2.314   8.991 -0.7838 -1.4468  0.8403
  829MOL0     H11890   5.956   2.155   8.908 -0.2833  0.7775  0.5980
  829MOL0     H11891   5.845   2.420   8.840  4.4393  0.3146  0.5384
  829MOL0     H11892   5.871   2.313   8.700  1.4638 -1.0330  0.0569
  829MOL0     H11893   5.724   2.238   8.954  1.2240 -1.2033  0.5113
  829MOL0     H11894   5.754   2.130   8.815 -2.2052 -0.0893 -0.9159
  829MOL0     H11895   5.604   2.292   8.680  0.8033  1.5093  0.2520
  829MOL0     H11896   5.571   2.384   8.835 -2.4990  0.8327 -3.0079
  829MOL0     H11897   6.654   2.236   9.133  0.0800 -1.7122 -0.2770
  829MOL0     H11898   6.846   2.168   9.240  0.8410 -2.4587  0.2964
  829MOL0     H11899   7.189   1.821   9.349 -0.5915  0.8802 -0.7618
  829MOL0     H11900   7.337   1.681   9.497 -0.1135 -1.7307  0.7597
  829MOL0     H11901   8.763   1.257  10.924 -1.2890 -0.4024 -1.0692
  829MOL0     H11902   8.927   1.245  11.108 -2.0313  0.0605 -0.3721
  829MOL0     H11903   9.374   1.266  11.179  1.5847 -0.3188 -0.1391
  829MOL0     H11904   9.590   1.272  11.305  1.9200 -0.1125 -0.2380
  829MOL0     H11905   9.759   0.849  11.415 -1.5352 -1.2755 -0.0693
  829MOL0     H11906   9.836   0.957  11.531 -0.7571  0.4404  1.2728
  829MOL0     H11907   9.678   0.819  11.656 -1.4256  0.9252  3.7879
  829MOL0     H11908   9.545   0.873  11.553 -0.4760 -1.7632  4.0188
  829MOL0     H11909   9.599   1.107  11.625  0.6428 -1.0883 -0.6862
  829MOL0     H11910   9.708   1.038  11.748  1.3810  1.2840 -1.0566
  829MOL0     H11911   9.500   1.063  11.883 -0.1511  0.1501  1.1647
  829MOL0     H11912   9.512   0.894  11.824  1.1899  0.6486  1.0452
  829MOL0     H11913   9.162   0.974  11.654  0.0343 -1.6039 -0.0524
  829MOL0     H11914   9.584   0.849  11.332  4.5981  1.1826 -1.9431
  829MOL0     H11915   9.361   0.843  11.218  0.5501 -0.9011  3.2312
  830MOL0     O11916   0.957  11.326   9.393 -0.7589 -0.4595  0.2157
  830MOL0     C11917   1.033  11.326   9.297  0.6233  0.8918 -0.1845
  830MOL0     O11918   1.000  11.348   9.164 -0.3670  0.2873 -0.4557
  830MOL0     C11919   0.870  11.360   9.135  0.2927  1.1165  0.1338
  830MOL0     C11920   0.805  11.478   9.146 -0.4121 -0.5837  0.2890
  830MOL0     C11921   0.673  11.489   9.121 -0.7102  0.0146 -0.4556
  830MOL0     C11922   0.597  11.368   9.087 -0.3095  0.2775  0.5893
  830MOL0     O11923   0.460  11.382   9.076  0.5433 -0.0844  0.2317
  830MOL0     C11924   0.384  11.264   9.086 -1.2405 -0.0705 -0.1126
  830MOL0     C11925   0.244  11.309   9.128 -0.3860  0.1114  1.2198
  830MOL0     C11926   0.173  11.393   9.017 -0.7399  0.0192  0.1484
  830MOL0     C11927   0.022  11.390   9.041 -0.3540  0.1378  0.1714
  830MOL0     C11928  -0.056  11.479   8.944 -0.1384 -0.3459 -0.8580
  830MOL0     C11929  -0.050  11.445   8.794  0.8866  0.6375  1.3539
  830MOL0     C11930  -0.159  11.521   8.720 -0.2097 -0.1256  0.5481
  830MOL0     C11931  -0.180  11.472   8.575 -0.2442 -0.4898 -0.9521
  830MOL0     N11932  -0.273  11.555   8.488  0.2395  0.1446 -0.3619
  830MOL0     C11933  -0.404  11.517   8.472  0.6176  0.0356 -0.5953
  830MOL0     C11934  -0.454  11.617   8.395  0.0597  0.1360 -0.2070
  830MOL0     C11935  -0.597  11.627   8.334 -0.0667 -0.1121  0.2451
  830MOL0     C11936  -0.667  11.742   8.387  0.3241 -0.1014  0.8699
  830MOL0     C11937  -0.614  11.878   8.345  0.0069 -0.6803  0.7079
  830MOL0     C11938  -0.730  11.979   8.316 -0.3376 -0.0334  0.7632
  830MOL0     O11939  -0.686  12.116   8.299 -0.0195  0.5205  0.0812
  830MOL0     C11940  -0.782  12.209   8.275  0.5308  0.5197 -0.5266
  830MOL0     C11941  -0.852  12.265   8.381  0.2832  0.8035 -0.0828
  830MOL0     C11942  -0.946  12.363   8.372 -0.3071 -0.4346 -0.1273
  830MOL0     C11943  -1.022  12.418   8.489 -0.6253 -0.5555  0.0427
  830MOL0     C11944  -0.964  12.416   8.243 -0.3250 -0.0208 -0.1686
  830MOL0     C11945  -1.072  12.516   8.217 -0.1893 -0.5541  0.8267
  830MOL0     O11946  -1.066  12.633   8.275  0.0961 -0.7131  0.8187
  830MOL0     C11947  -1.147  12.734   8.233 -0.2926 -0.2220  0.4131
  830MOL0     C11948  -1.254  12.784   8.314 -0.2246 -0.8585  0.2779
  830MOL0     C11949  -1.338  12.892   8.263  0.8363  0.5997  0.2633
  830MOL0     C11950  -1.318  12.952   8.133  0.1975 -1.2497 -0.1745
  830MOL0     O11951  -1.389  13.065   8.102  0.1477 -0.2934  0.1041
  830MOL0     C11952  -1.330  13.156   8.009  0.5648 -0.8877 -0.2029
  830MOL0     C11953  -1.421  13.275   7.987 -1.4308 -0.0972 -0.2879
  830MOL0     C11954  -1.337  13.362   7.888 -0.1475 -0.0903  0.1475
  830MOL0     C11955  -1.418  13.495   7.859 -0.0301 -0.0602  0.2132
  830MOL0     C11956  -1.366  13.575   7.747 -0.3472 -0.2144  0.1851
  830MOL0     C11957  -1.456  13.700   7.729  0.2296 -0.0231  0.7505
  830MOL0     C11958  -1.473  13.722   7.573  0.0412 -0.4490 -0.4570
  830MOL0     C11959  -1.560  13.848   7.542  0.1135  0.3425 -0.4160
  830MOL0    Cl11960  -1.736  13.785   7.546  0.1617  0.0800 -0.1659
  830MOL0     C11961  -1.210  12.893   8.068 -0.1185  0.4188 -0.9649
  830MOL0     C11962  -1.130  12.783   8.106  0.2113 -0.3542  0.7825
  830MOL0     O11963  -1.156  12.487   8.137  0.2305  0.3792 -0.0585
  830MOL0     C11964  -0.901  12.359   8.131  0.8814  0.4165  0.2920
  830MOL0     C11965  -0.810  12.255   8.149  0.0467  1.0584  0.4588
  830MOL0     N11966  -0.357  11.708   8.384 -0.6315  0.0838  0.1386
  830MOL0     N11967  -0.245  11.676   8.435  0.1846 -0.1354 -1.0926
  830MOL0     C11968   0.671  11.244   9.067  0.1581 -0.1225 -0.5398
  830MOL0     C11969   0.808  11.244   9.092 -0.2154 -1.1344  0.6538
  830MOL0     C11970   1.167  11.289   9.341  0.2172  0.3934  0.3943
  830MOL0     C11971   1.272  11.300   9.252  0.4340 -0.1849  0.3138
  830MOL0     C11972   1.397  11.263   9.280 -0.4531  0.2942 -0.3070
  830MOL0     C11973   1.433  11.212   9.405 -0.0215  0.4431  0.5950
  830MOL0     O11974   1.563  11.177   9.423 -0.3517 -0.0646 -0.3969
  830MOL0     C11975   1.618  11.101   9.537 -0.9535 -0.3326  0.0491
  830MOL0     C11976   1.730  11.013   9.476  0.4231  1.1891 -0.4106
  830MOL0     C11977   1.867  11.091   9.476  1.0067  1.0211 -0.1781
  830MOL0     C11978   1.979  11.003   9.409  0.1906  0.8282 -0.4445
  830MOL0     C11979   2.107  11.084   9.405 -0.1964  0.2831 -0.1360
  830MOL0     C11980   2.210  11.144   9.394 -0.5892  0.1068  0.4913
  830MOL0     C11981   1.328  11.201   9.499 -0.4416  0.2828 -0.4409
  830MOL0     C11982   1.198  11.232   9.468 -0.5004  0.2836 -0.4613
  830MOL0     H11983   0.859  11.565   9.184 -2.9684  0.6936  1.2513
  830MOL0     H11984   0.618  11.582   9.132 -1.9156 -0.9249  2.4278
  830MOL0     H11985   0.387  11.201   8.997 -1.1781 -1.4843  0.8548
  830MOL0     H11986   0.413  11.198   9.169  1.6997  1.7219  0.4459
  830MOL0     H11987   0.179  11.222   9.139 -2.9356  1.8301  0.5171
  830MOL0     H11988   0.243  11.373   9.217 -0.8164  2.5669 -0.4575
  830MOL0     H11989   0.213  11.495   9.019  1.8804 -0.9412  1.1845
  830MOL0     H11990   0.194  11.353   8.918 -0.3350 -1.0298  0.6436
  830MOL0     H11991  -0.008  11.285   9.039  1.6798 -0.7548  4.5063
  830MOL0     H11992  -0.000  11.415   9.145  0.4799 -0.4923  0.5127
  830MOL0     H11993  -0.155  11.496   8.988 -0.4358  2.0179 -2.2674
  830MOL0     H11994   0.002  11.571   8.957 -1.1553  0.0755  1.1734
  830MOL0     H11995   0.047  11.474   8.751  1.6174 -1.8573  1.1526
  830MOL0     H11996  -0.070  11.339   8.776  0.2183  1.1959 -2.0153
  830MOL0     H11997  -0.253  11.512   8.774 -1.4054  0.7496 -1.2915
  830MOL0     H11998  -0.127  11.625   8.708  0.8889 -0.7231 -2.5185
  830MOL0     H11999  -0.220  11.372   8.593  0.1779 -0.5912 -0.5836
  830MOL0     H12000  -0.083  11.459   8.525 -0.8405  0.0001 -2.2937
  830MOL0     H12001  -0.455  11.427   8.508  0.5447  0.4543  0.3770
  830MOL0     H12002  -0.596  11.630   8.224  0.5921 -2.0727  0.1562
  830MOL0     H12003  -0.658  11.545   8.371 -1.0879  2.1376  4.0699
  830MOL0     H12004  -0.666  11.740   8.496 -0.0842  2.1015  0.9699
  830MOL0     H12005  -0.771  11.737   8.354  0.7456  0.5900 -0.6746
  830MOL0     H12006  -0.559  11.864   8.251 -1.3503 -1.3316 -0.0272
  830MOL0     H12007  -0.547  11.918   8.422  1.1664 -1.3212  0.0639
  830MOL0     H12008  -0.809  11.974   8.391 -0.1011 -2.0892  0.9356
  830MOL0     H12009  -0.767  11.950   8.217 -2.4698  1.3231  1.1121
  830MOL0     H12010  -0.835  12.223   8.480  0.2843  1.4224  0.1795
  830MOL0     H12011  -0.954  12.480   8.547 -2.0087 -0.8105  2.0041
  830MOL0     H12012  -1.109  12.481   8.471  0.6183  1.3295  0.3399
  830MOL0     H12013  -1.047  12.329   8.547  1.7800 -0.2872  1.6529
  830MOL0     H12014  -1.267  12.739   8.412 -1.8588  1.7539  1.3693
  830MOL0     H12015  -1.413  12.930   8.331  2.8544  2.5991  1.5115
  830MOL0     H12016  -1.228  13.177   8.041  0.0397 -0.0211  0.9808
  830MOL0     H12017  -1.328  13.109   7.910 -1.8906  0.3266 -0.9353
  830MOL0     H12018  -1.520  13.250   7.947 -0.6629 -0.5093 -2.0075
  830MOL0     H12019  -1.432  13.328   8.082  1.8716 -1.0149  0.7061
  830MOL0     H12020  -1.337  13.312   7.791 -1.9513  0.9511 -0.4344
  830MOL0     H12021  -1.238  13.397   7.919 -0.2721 -0.5289  1.0997
  830MOL0     H12022  -1.522  13.463   7.848  0.6082 -1.8971 -0.8427
  830MOL0     H12023  -1.415  13.567   7.941 -0.1407 -0.8156  0.8881
  830MOL0     H12024  -1.362  13.515   7.656 -0.0781  2.5909 -1.7940
  830MOL0     H12025  -1.260  13.595   7.769  0.3418 -0.7022 -2.3948
  830MOL0     H12026  -1.557  13.684   7.765 -0.6238  4.2947  0.8394
  830MOL0     H12027  -1.404  13.785   7.775 -0.7984  1.6373 -0.9822
  830MOL0     H12028  -1.523  13.635   7.531  2.1255 -0.9568 -2.0466
  830MOL0     H12029  -1.377  13.723   7.519  0.3896  0.1096  0.1624
  830MOL0     H12030  -1.542  13.873   7.437  0.4521 -2.7945 -1.1864
  830MOL0     H12031  -1.539  13.929   7.612  2.1203 -1.5197  1.2794
  830MOL0     H12032  -1.199  12.931   7.967  0.2443 -1.9214 -1.8681
  830MOL0     H12033  -1.062  12.736   8.036 -1.3253 -2.6851  0.7601
  830MOL0     H12034  -0.933  12.390   8.032 -2.4226  1.0897  1.4391
  830MOL0     H12035  -0.768  12.207   8.061  0.8354  1.0965  0.8051
  830MOL0     H12036   0.616  11.162   9.021  1.6262  0.3175 -3.3152
  830MOL0     H12037   0.863  11.153   9.071 -2.2836 -2.3013  0.0150
  830MOL0     H12038   1.252  11.355   9.161 -4.5376  0.8486  1.7330
  830MOL0     H12039   1.466  11.272   9.197 -0.2674 -1.9840 -0.4779
  830MOL0     H12040   1.654  11.172   9.612  0.7291 -0.2985 -0.7460
  830MOL0     H12041   1.541  11.045   9.591  0.2258 -1.1277  0.9684
  830MOL0     H12042   1.700  10.994   9.373 -1.4804  1.5110  0.0487
  830MOL0     H12043   1.729  10.916   9.525 -4.5709  0.6294 -1.1152
  830MOL0     H12044   1.903  11.107   9.578 -0.6263  0.9488  0.4437
  830MOL0     H12045   1.856  11.189   9.427 -1.6867  0.6714 -0.4119
  830MOL0     H12046   1.940  10.971   9.312 -0.4860 -1.6080  0.5693
  830MOL0     H12047   1.986  10.908   9.463  1.0107 -1.3627 -4.1090
  830MOL0     H12048   2.306  11.184   9.366 -0.8130 -1.5888 -3.3558
  830MOL0     H12049   1.346  11.171   9.602 -0.8767 -0.5406 -0.5949
  830MOL0     H12050   1.125  11.222   9.548 -0.8659  1.1557 -0.6729
  831MOL0     O12051   7.093   7.599  11.269 -0.4816 -0.4643 -0.8526
  831MOL0     C12052   7.113   7.690  11.187 -0.1704  0.0522  0.4941
  831MOL0     O12053   7.055   7.694  11.055  0.3465  0.2002 -0.6021
  831MOL0     C12054   6.935   7.623  11.017 -0.8947  0.1159 -0.1624
  831MOL0     C12055   6.937   7.479  11.021  0.1882 -0.4393 -0.7715
  831MOL0     C12056   6.829   7.402  10.983 -0.8703 -0.6639 -0.3700
  831MOL0     C12057   6.722   7.466  10.926 -0.5994 -0.2765 -0.1912
  831MOL0     O12058   6.610   7.397  10.914 -0.0532  0.5877  0.6382
  831MOL0     C12059   6.602   7.275  10.837 -0.2274 -0.0270  0.0344
  831MOL0     C12060   6.553   7.310  10.695  0.5862  0.4449 -0.1415
  831MOL0     C12061   6.572   7.181  10.612 -0.3013 -0.2915 -0.0746
  831MOL0     C12062   6.580   7.228  10.460  0.7223  0.8138  0.2584
  831MOL0     C12063   6.611   7.101  10.366  0.1929 -0.1671  0.2710
  831MOL0     C12064   6.595   7.148  10.215 -0.5974 -0.0657  0.1135
  831MOL0     C12065   6.441   7.161  10.165  0.0811 -0.2300  0.5117
  831MOL0     C12066   6.433   7.200  10.020 -0.8457  0.5235  0.7943
  831MOL0     N12067   6.495   7.096   9.934 -0.1910  0.5892  0.2649
  831MOL0     C12068   6.463   6.962   9.910  0.1258 -0.7396 -0.0364
  831MOL0     C12069   6.550   6.924   9.813 -0.8373  0.3270 -1.2819
  831MOL0     C12070   6.551   6.789   9.741 -0.6280 -0.7673 -0.2721
  831MOL0     C12071   6.441   6.782   9.635  1.4524 -0.2200 -0.2293
  831MOL0     C12072   6.444   6.903   9.538  0.1638  1.4116 -0.2157
  831MOL0     C12073   6.325   6.902   9.439  0.9880 -0.3900 -0.0143
  831MOL0     O12074   6.339   6.843   9.315 -0.4196 -0.2479  0.4109
  831MOL0     C12075   6.234   6.783   9.260 -1.0703  0.5972 -0.1301
  831MOL0     C12076   6.097   6.827   9.266 -0.6319 -0.5933  0.2073
  831MOL0     C12077   5.996   6.755   9.202 -0.1364  0.2509 -0.7571
  831MOL0     C12078   5.857   6.807   9.228 -0.2060  0.1932  0.7316
  831MOL0     C12079   6.022   6.631   9.136  0.2188  0.3128  0.3669
  831MOL0     C12080   5.922   6.538   9.068 -0.3095  0.1490  1.0298
  831MOL0     O12081   5.964   6.416   9.027  0.7019 -0.4283 -0.8427
  831MOL0     C12082   5.909   6.374   8.913  1.0144 -0.3879 -0.4622
  831MOL0     C12083   5.880   6.458   8.804  0.2001 -0.5462 -0.1675
  831MOL0     C12084   5.832   6.415   8.682 -0.1745 -0.1951 -0.4712
  831MOL0     C12085   5.796   6.281   8.666 -0.1580 -0.1411  0.0944
  831MOL0     O12086   5.753   6.220   8.547  0.5350  0.1252 -0.1466
  831MOL0     C12087   5.719   6.309   8.439 -0.5051 -0.2596  0.4322
  831MOL0     C12088   5.665   6.229   8.322  0.2329 -0.2660 -0.1602
  831MOL0     C12089   5.756   6.098   8.285 -0.8154  0.1166 -0.1862
  831MOL0     C12090   5.717   6.046   8.146  0.0061 -0.3863 -0.4697
  831MOL0     C12091   5.838   5.974   8.075  0.6826 -0.6206  0.1658
  831MOL0     C12092   5.931   6.066   7.989 -0.2526  0.1241  0.0173
  831MOL0     C12093   6.044   6.001   7.916  0.0308 -0.5067  0.3045
  831MOL0     C12094   6.046   6.041   7.762 -0.0022 -0.4977 -0.0893
  831MOL0    Cl12095   5.904   5.971   7.680 -0.5386 -0.3573  0.6897
  831MOL0     C12096   5.816   6.197   8.780  0.3766  0.9800  0.8217
  831MOL0     C12097   5.885   6.239   8.894  1.0584 -1.0867  0.5923
  831MOL0     O12098   5.810   6.581   9.051  0.6305  0.3778  0.7219
  831MOL0     C12099   6.156   6.583   9.144 -0.8375 -1.3317  0.0345
  831MOL0     C12100   6.254   6.665   9.193 -0.6513 -0.3651  0.6728
  831MOL0     N12101   6.641   7.027   9.789  0.3755  0.1399 -1.2576
  831MOL0     N12102   6.598   7.128   9.858 -0.7430  1.1168 -0.0815
  831MOL0     C12103   6.736   7.605  10.902  0.6322  0.0413  0.0537
  831MOL0     C12104   6.839   7.688  10.950  1.5746  0.1484  0.7905
  831MOL0     C12105   7.202   7.804  11.219 -0.9125 -0.0298 -0.0142
  831MOL0     C12106   7.174   7.934  11.158 -0.0151 -0.3821  0.2733
  831MOL0     C12107   7.260   8.044  11.177 -0.6249 -0.4637 -0.7773
  831MOL0     C12108   7.381   8.020  11.247  0.2168 -0.2811  1.2539
  831MOL0     O12109   7.486   8.107  11.261  0.5640  0.2440  0.2768
  831MOL0     C12110   7.445   8.239  11.234  0.5416  0.1450  1.0760
  831MOL0     C12111   7.557   8.335  11.275 -0.5522 -0.2020  0.3644
  831MOL0     C12112   7.689   8.313  11.193 -0.5164 -0.0018 -0.1344
  831MOL0     C12113   7.796   8.422  11.226  0.2136 -0.2695 -0.1566
  831MOL0     C12114   7.920   8.413  11.146 -0.2886  0.6441 -0.1266
  831MOL0     C12115   8.032   8.424  11.102 -0.3750 -1.3634 -0.3683
  831MOL0     C12116   7.401   7.895  11.302  0.1945 -0.1346  0.2302
  831MOL0     C12117   7.316   7.782  11.289 -0.5711 -0.6503 -0.2908
  831MOL0     H12118   7.021   7.422  11.060 -0.1378 -1.4704 -1.5441
  831MOL0     H12119   6.822   7.297  11.007 -0.7634 -0.4482  0.6213
  831MOL0     H12120   6.695   7.219  10.831 -0.4029 -0.2254 -0.9659
  831MOL0     H12121   6.528   7.203  10.872  0.1285 -3.8268 -5.6315
  831MOL0     H12122   6.448   7.339  10.704  1.0273  1.6314  1.5440
  831MOL0     H12123   6.598   7.395  10.642  1.5312  1.0733  1.5846
  831MOL0     H12124   6.669   7.137  10.639 -0.0737  0.2050 -0.0783
  831MOL0     H12125   6.489   7.114  10.637  0.6104 -1.0308  1.0768
  831MOL0     H12126   6.480   7.267  10.442 -0.1746  0.2451  3.3315
  831MOL0     H12127   6.652   7.311  10.453  0.6146  0.7645 -1.8381
  831MOL0     H12128   6.707   7.056  10.391  0.3809 -0.1169 -0.3477
  831MOL0     H12129   6.532   7.026  10.378 -0.5761  0.4923 -0.4795
  831MOL0     H12130   6.646   7.241  10.189  2.9623 -2.0561 -0.5753
  831MOL0     H12131   6.643   7.072  10.153  0.3408 -1.0099  1.9086
  831MOL0     H12132   6.388   7.066  10.167 -3.6203  1.5717 -1.8672
  831MOL0     H12133   6.391   7.223  10.239  0.5418 -0.7471  1.2750
  831MOL0     H12134   6.494   7.290  10.010  0.7712 -0.7387 -1.4956
  831MOL0     H12135   6.328   7.218   9.996 -1.1907 -1.4765  0.6684
  831MOL0     H12136   6.377   6.911   9.953 -0.5531  2.1743  2.4578
  831MOL0     H12137   6.654   6.768   9.709 -1.0454 -0.0271 -2.1978
  831MOL0     H12138   6.531   6.708   9.812  1.4974  0.8098  2.3204
  831MOL0     H12139   6.341   6.785   9.680  2.2328  2.9583  1.5683
  831MOL0     H12140   6.458   6.696   9.569  0.7104 -0.1934 -0.4664
  831MOL0     H12141   6.532   6.897   9.473  1.2186  0.2637  1.2727
  831MOL0     H12142   6.423   7.000   9.585  0.9160  2.6222 -2.2270
  831MOL0     H12143   6.301   7.008   9.429 -2.8340 -1.0667  0.4675
  831MOL0     H12144   6.238   6.862   9.491 -0.1589  0.9483 -0.8312
  831MOL0     H12145   6.071   6.925   9.306  0.3831  0.0680 -0.6934
  831MOL0     H12146   5.858   6.895   9.294  3.0162  2.5287 -2.0211
  831MOL0     H12147   5.804   6.834   9.136 -1.9312 -0.3964  1.5192
  831MOL0     H12148   5.797   6.726   9.270  0.4911 -0.1667  1.0398
  831MOL0     H12149   5.914   6.561   8.804 -1.3992  0.0014 -0.2355
  831MOL0     H12150   5.820   6.494   8.609  1.1256  0.0756 -0.4091
  831MOL0     H12151   5.637   6.378   8.459 -0.8724 -0.4490 -0.3612
  831MOL0     H12152   5.811   6.365   8.420  0.7489 -1.8080  1.6439
  831MOL0     H12153   5.561   6.204   8.344 -1.3873  4.1838 -1.7244
  831MOL0     H12154   5.644   6.290   8.234 -4.4965 -2.1584 -0.6272
  831MOL0     H12155   5.732   6.014   8.352  1.4378 -3.0002 -2.9373
  831MOL0     H12156   5.863   6.117   8.284 -0.4021 -1.8305 -2.1779
  831MOL0     H12157   5.630   5.980   8.158 -0.7469  1.0514  3.2093
  831MOL0     H12158   5.703   6.134   8.083  0.4309 -0.2384 -0.3596
  831MOL0     H12159   5.793   5.902   8.007 -1.1751 -0.9572  1.6829
  831MOL0     H12160   5.886   5.913   8.152  1.9945 -0.0096 -0.1427
  831MOL0     H12161   5.872   6.126   7.919  1.2704  0.3928 -1.1038
  831MOL0     H12162   5.970   6.132   8.067 -0.1613 -1.3002  1.2298
  831MOL0     H12163   6.039   5.892   7.926  0.9021 -0.5798  0.0625
  831MOL0     H12164   6.139   6.039   7.957  1.6691  1.1079 -4.3003
  831MOL0     H12165   6.143   6.021   7.715  0.9354  0.8703  1.1818
  831MOL0     H12166   6.027   6.147   7.741 -3.5542 -1.3215 -1.8526
  831MOL0     H12167   5.783   6.095   8.766  1.6365  0.5564  0.7483
  831MOL0     H12168   5.900   6.177   8.982  0.8852 -0.0431  1.3740
  831MOL0     H12169   6.195   6.495   9.094  0.6439 -1.1228  0.7726
  831MOL0     H12170   6.358   6.632   9.194 -0.6022 -0.2310  0.0391
  831MOL0     H12171   6.648   7.648  10.855  1.7011  1.8998 -0.3158
  831MOL0     H12172   6.848   7.796  10.944  0.3949  0.1991 -0.3863
  831MOL0     H12173   7.087   7.944  11.095 -1.3128  1.7958  2.2244
  831MOL0     H12174   7.239   8.138  11.126 -0.9438 -0.2683 -0.2941
  831MOL0     H12175   7.426   8.248  11.126 -1.4635 -2.9410  1.0206
  831MOL0     H12176   7.350   8.270  11.278  0.1372  1.6959 -0.7256
  831MOL0     H12177   7.583   8.314  11.379  0.2548  0.1481  0.2417
  831MOL0     H12178   7.523   8.438  11.263 -1.5726 -0.7562 -2.3849
  831MOL0     H12179   7.666   8.311  11.086 -1.7755  1.2594  0.0860
  831MOL0     H12180   7.721   8.216  11.233 -0.4167  0.1516  0.1552
  831MOL0     H12181   7.805   8.422  11.335 -0.7850 -0.1100 -0.0598
  831MOL0     H12182   7.749   8.517  11.199 -0.8471 -0.9433 -0.7602
  831MOL0     H12183   8.129   8.409  11.061  0.0460  0.4500 -0.1292
  831MOL0     H12184   7.490   7.894  11.363  1.5889  4.1614 -1.3556
  831MOL0     H12185   7.336   7.684  11.331 -2.4281 -0.9763 -0.0713
  832MOL0     O12186   3.935   7.022   5.012  0.0191  0.9026 -0.0250
  832MOL0     C12187   3.976   7.051   5.127  0.0924 -0.1040  0.7872
  832MOL0     O12188   3.893   7.100   5.226 -0.7082  0.1573  0.1217
  832MOL0     C12189   3.771   7.148   5.182 -0.4067 -1.2486 -0.0483
  832MOL0     C12190   3.755   7.250   5.079  0.8541 -0.2444 -0.1965
  832MOL0     C12191   3.631   7.292   5.040 -0.4810 -0.4499  0.3728
  832MOL0     C12192   3.526   7.234   5.102  0.5824 -0.2611  0.0251
  832MOL0     O12193   3.399   7.275   5.056 -0.5292  0.2313 -0.1742
  832MOL0     C12194   3.283   7.196   5.098  0.8444  0.1437 -0.4322
  832MOL0     C12195   3.161   7.196   5.007 -0.3525 -0.5465  0.1433
  832MOL0     C12196   3.070   7.320   5.017  0.1608 -0.4089  0.1477
  832MOL0     C12197   2.987   7.328   5.141 -0.7469 -0.1562  0.2260
  832MOL0     C12198   2.937   7.473   5.161 -0.4459  0.7124 -0.3525
  832MOL0     C12199   2.878   7.492   5.305 -0.1149  0.6942 -0.8341
  832MOL0     C12200   2.786   7.615   5.308 -0.1404 -0.7514 -0.4339
  832MOL0     C12201   2.710   7.625   5.451  0.4779 -0.1349 -0.1339
  832MOL0     N12202   2.627   7.747   5.475 -0.4136  0.3152  0.0944
  832MOL0     C12203   2.690   7.873   5.486 -0.1686 -0.8019  0.1909
  832MOL0     C12204   2.583   7.949   5.541  0.1408  1.1392 -0.6483
  832MOL0     C12205   2.581   8.091   5.570  0.7670  0.6058 -0.0163
  832MOL0     C12206   2.531   8.118   5.711  0.1269  0.7876 -0.0552
  832MOL0     C12207   2.551   8.266   5.746 -0.1264  0.2848  0.2161
  832MOL0     C12208   2.434   8.358   5.698 -0.2066  1.6005  0.0089
  832MOL0     O12209   2.309   8.300   5.738 -0.0224 -0.6964 -0.1010
  832MOL0     C12210   2.202   8.379   5.756  0.1555  0.4799  0.1041
  832MOL0     C12211   2.173   8.511   5.700  0.5895 -0.3907  0.1970
  832MOL0     C12212   2.043   8.570   5.711 -0.6198 -0.2041  0.6239
  832MOL0     C12213   2.028   8.706   5.646 -0.8328  0.0207  0.1578
  832MOL0     C12214   1.940   8.488   5.762  0.1208  0.7176  0.0530
  832MOL0     C12215   1.792   8.505   5.759  0.2545  0.0511  0.4762
  832MOL0     O12216   1.717   8.439   5.850  0.2124 -0.1263  0.4046
  832MOL0     C12217   1.579   8.455   5.865 -0.2943  0.7835  0.1803
  832MOL0     C12218   1.487   8.380   5.798  1.4731 -0.3227  0.8597
  832MOL0     C12219   1.346   8.388   5.826  0.7652  0.1426  0.3955
  832MOL0     C12220   1.298   8.493   5.898  0.8751  0.3626 -0.5242
  832MOL0     O12221   1.165   8.523   5.926  0.1835  0.4172 -0.2446
  832MOL0     C12222   1.077   8.497   5.817 -0.3189  0.1157  0.3033
  832MOL0     C12223   0.932   8.523   5.864  0.5698 -0.3229  0.1613
  832MOL0     C12224   0.824   8.519   5.758  0.0979 -0.3612  0.0819
  832MOL0     C12225   0.691   8.565   5.823  0.1293 -0.3910  0.6684
  832MOL0     C12226   0.578   8.521   5.733  0.2793 -0.1258 -0.4554
  832MOL0     C12227   0.447   8.594   5.748  0.5214 -0.2773 -0.5457
  832MOL0     C12228   0.375   8.577   5.885 -0.3867 -0.3831  0.5363
  832MOL0     C12229   0.248   8.656   5.898 -0.0876  0.7912 -0.8484
  832MOL0    Cl12230   0.185   8.668   6.075  0.0838  0.7337  0.1173
  832MOL0     C12231   1.392   8.573   5.969  0.1378  0.0327  0.1874
  832MOL0     C12232   1.528   8.554   5.952 -0.3812  0.2841 -0.6311
  832MOL0     O12233   1.749   8.577   5.666 -0.0573 -0.0806 -0.2253
  832MOL0     C12234   1.978   8.358   5.807  0.3077 -0.1285 -0.5607
  832MOL0     C12235   2.105   8.309   5.815  0.7297  0.3271  0.4225
  832MOL0     N12236   2.472   7.861   5.557 -0.3266 -0.4156 -0.3590
  832MOL0     N12237   2.502   7.741   5.521  0.1719 -0.3358  0.4424
  832MOL0     C12238   3.538   7.142   5.209  0.3810  0.7299  0.0078
  832MOL0     C12239   3.663   7.093   5.240 -0.2311  0.6512  0.1442
  832MOL0     C12240   4.109   7.020   5.171 -0.6183 -0.1384  0.3467
  832MOL0     C12241   4.150   7.076   5.296  0.1265 -0.3686 -0.4991
  832MOL0     C12242   4.288   7.082   5.328  0.1075  0.4076 -0.5641
  832MOL0     C12243   4.385   7.017   5.246 -0.9930  0.0621 -0.1801
  832MOL0     O12244   4.512   7.028   5.296 -0.5278  0.3302 -0.5532
  832MOL0     C12245   4.622   6.977   5.221 -0.0401  0.4032  0.2985
  832MOL0     C12246   4.753   6.948   5.311 -1.2082  0.5044  0.8367
  832MOL0     C12247   4.810   7.076   5.363  0.0422  0.0314 -0.8166
  832MOL0     C12248   4.946   7.128   5.305  0.3653 -0.9161  0.5359
  832MOL0     C12249   5.063   7.042   5.338 -0.3021  0.7948  0.7884
  832MOL0     C12250   5.150   6.968   5.359 -0.7586  0.3627 -0.0169
  832MOL0     C12251   4.343   6.965   5.121  0.3505 -0.2155 -0.9656
  832MOL0     C12252   4.210   6.961   5.082  0.4638  0.5945 -1.1767
  832MOL0     H12253   3.849   7.296   5.051  1.3652 -0.8327  0.4990
  832MOL0     H12254   3.609   7.378   4.978 -1.1734 -0.5235  0.5035
  832MOL0     H12255   3.311   7.090   5.104  0.1893  0.0446  1.9344
  832MOL0     H12256   3.260   7.230   5.199 -1.3583  4.1671 -2.0828
  832MOL0     H12257   3.223   7.188   4.917  0.7788  2.9815  0.4504
  832MOL0     H12258   3.094   7.110   5.006 -1.2881  0.1792 -0.8511
  832MOL0     H12259   3.125   7.413   5.002  0.5942 -0.6776  0.0384
  832MOL0     H12260   3.002   7.314   4.932  0.9750 -1.8071 -0.4417
  832MOL0     H12261   2.907   7.254   5.145 -0.5867 -0.3277  0.2424
  832MOL0     H12262   3.053   7.297   5.223 -0.8004 -0.9490 -0.0214
  832MOL0     H12263   3.019   7.544   5.146  0.8340 -0.9737 -1.8269
  832MOL0     H12264   2.866   7.487   5.079 -1.1566  0.6082  0.2386
  832MOL0     H12265   2.817   7.403   5.325  1.8914 -0.9388 -1.6755
  832MOL0     H12266   2.967   7.504   5.367  0.9000  0.0401 -2.1155
  832MOL0     H12267   2.840   7.709   5.295 -1.4336 -0.1164 -1.4132
  832MOL0     H12268   2.714   7.607   5.227  0.8998 -0.3136 -1.4219
  832MOL0     H12269   2.783   7.632   5.532  0.5941  1.7768 -0.3456
  832MOL0     H12270   2.649   7.538   5.474 -1.3087  0.8136 -1.1111
  832MOL0     H12271   2.786   7.911   5.453 -0.3428 -0.8432 -0.3932
  832MOL0     H12272   2.681   8.137   5.567  1.0414 -0.0357 -1.5656
  832MOL0     H12273   2.520   8.129   5.487  0.6616 -1.5061 -0.9643
  832MOL0     H12274   2.577   8.051   5.785 -2.5202  0.9164  1.8162
  832MOL0     H12275   2.423   8.102   5.715 -0.1416  2.5122  0.5056
  832MOL0     H12276   2.640   8.302   5.694 -0.8638 -2.0882 -3.0502
  832MOL0     H12277   2.550   8.266   5.855 -2.5713  0.5692  0.2526
  832MOL0     H12278   2.439   8.363   5.589 -0.3007 -0.0383 -0.0943
  832MOL0     H12279   2.453   8.455   5.743  3.3679  1.5585 -1.0323
  832MOL0     H12280   2.246   8.568   5.643 -1.3533 -0.5302 -2.6515
  832MOL0     H12281   1.972   8.754   5.727  0.5506 -0.7196  1.5977
  832MOL0     H12282   2.126   8.752   5.632 -0.3284 -1.0559  0.0947
  832MOL0     H12283   1.972   8.707   5.552  0.7225  0.6620 -0.7888
  832MOL0     H12284   1.521   8.321   5.714  1.2821 -1.0705  1.2969
  832MOL0     H12285   1.280   8.313   5.783  2.6296 -1.9289  0.9242
  832MOL0     H12286   1.102   8.564   5.734 -0.5837 -0.6972 -0.4491
  832MOL0     H12287   1.086   8.395   5.777 -3.5891 -0.2480  0.2486
  832MOL0     H12288   0.908   8.462   5.951 -1.7236  2.4575  1.6366
  832MOL0     H12289   0.924   8.623   5.907 -1.4347 -0.6202  0.5407
  832MOL0     H12290   0.813   8.413   5.735  0.7789 -0.2499 -0.8136
  832MOL0     H12291   0.845   8.580   5.669  2.5818 -0.3295  0.6204
  832MOL0     H12292   0.664   8.518   5.918 -2.5594  1.3388  0.8747
  832MOL0     H12293   0.680   8.672   5.843 -1.6872 -1.0250  3.7793
  832MOL0     H12294   0.562   8.413   5.730 -1.9302  0.1052  0.9105
  832MOL0     H12295   0.594   8.552   5.630 -1.5245 -3.1074 -1.7440
  832MOL0     H12296   0.484   8.697   5.744  0.7618 -0.3751 -0.8607
  832MOL0     H12297   0.378   8.584   5.663  0.6121  0.3450 -0.7022
  832MOL0     H12298   0.444   8.607   5.964  0.0050 -0.5095  0.2447
  832MOL0     H12299   0.357   8.472   5.911 -2.2834  0.4429  2.9231
  832MOL0     H12300   0.180   8.595   5.838 -1.0933 -0.1216  1.1175
  832MOL0     H12301   0.258   8.755   5.854  0.0950  1.0363 -0.2729
  832MOL0     H12302   1.362   8.653   6.035 -1.6079  0.2010 -0.7484
  832MOL0     H12303   1.596   8.611   6.014 -1.1366  0.9924 -0.4482
  832MOL0     H12304   1.905   8.287   5.847 -0.4981  1.3165  0.6220
  832MOL0     H12305   2.117   8.209   5.854  0.4834  0.5153  0.9939
  832MOL0     H12306   3.455   7.094   5.260  1.3437 -1.3284 -0.2379
  832MOL0     H12307   3.684   7.013   5.310  2.7238 -2.4016 -3.7628
  832MOL0     H12308   4.081   7.118   5.368  0.5275 -0.4151 -0.0873
  832MOL0     H12309   4.321   7.134   5.418  1.1418  2.7923 -2.2109
  832MOL0     H12310   4.595   6.874   5.195  1.8005  0.5810 -2.7774
  832MOL0     H12311   4.643   7.038   5.132  3.9866 -0.1168  0.6824
  832MOL0     H12312   4.828   6.898   5.250 -3.0314 -1.0158 -0.2578
  832MOL0     H12313   4.729   6.878   5.392  0.0208  0.4407  1.1579
  832MOL0     H12314   4.820   7.077   5.472  0.6637  0.1656 -0.8698
  832MOL0     H12315   4.734   7.151   5.341 -2.3525 -1.4735  1.7571
  832MOL0     H12316   4.962   7.225   5.354 -1.0470 -0.1457 -0.4490
  832MOL0     H12317   4.933   7.139   5.197 -1.1442 -1.8283  0.5912
  832MOL0     H12318   5.235   6.904   5.371 -0.4487  0.9086  0.7384
  832MOL0     H12319   4.417   6.918   5.058  1.6269  0.5374 -0.0659
  832MOL0     H12320   4.183   6.909   4.990  2.6377 -0.9655 -1.0140
  833MOL0     O12321   6.412   5.992   0.125 -0.1623  0.1877 -0.7076
  833MOL0     C12322   6.375   5.995   0.008 -0.3219  0.3560 -1.0275
  833MOL0     O12323   6.258   6.040  -0.045 -0.4332 -0.6442 -0.8312
  833MOL0     C12324   6.135   6.060   0.024 -0.2344 -0.3472 -0.7757
  833MOL0     C12325   6.011   6.053  -0.040 -0.8800 -0.0634 -0.1410
  833MOL0     C12326   5.888   6.053   0.010  0.7163 -0.5595 -0.7729
  833MOL0     C12327   5.876   6.091   0.141 -0.0615 -0.3040 -0.0418
  833MOL0     O12328   5.748   6.106   0.184  0.6116  0.8221 -0.3581
  833MOL0     C12329   5.713   6.010   0.290 -0.0164 -0.3918 -0.4253
  833MOL0     C12330   5.576   5.937   0.257  1.2279 -0.6234  0.1905
  833MOL0     C12331   5.456   5.926   0.364  0.0280 -0.6019 -0.1882
  833MOL0     C12332   5.370   5.801   0.350  0.6124 -0.4634 -0.6327
  833MOL0     C12333   5.260   5.795   0.461  1.2274  0.1870 -0.6205
  833MOL0     C12334   5.143   5.699   0.425 -0.1797 -0.4816 -0.0162
  833MOL0     C12335   5.185   5.557   0.433 -0.0282  0.1165  0.0159
  833MOL0     C12336   5.086   5.462   0.375 -0.2173  0.5619  0.1071
  833MOL0     N12337   4.946   5.500   0.387 -0.4029  1.0603 -0.1382
  833MOL0     C12338   4.872   5.599   0.316  1.2508  0.9682  0.3618
  833MOL0     C12339   4.744   5.580   0.369 -1.3512 -0.7203  0.7424
  833MOL0     C12340   4.620   5.652   0.325  0.2548  0.0399  1.1461
  833MOL0     C12341   4.500   5.571   0.299 -0.0812  0.0292  0.1060
  833MOL0     C12342   4.434   5.490   0.415  0.6026 -0.4933 -0.3026
  833MOL0     C12343   4.279   5.464   0.406  0.1751  0.5422  0.3800
  833MOL0     O12344   4.248   5.386   0.290  0.2873 -0.0701  0.4376
  833MOL0     C12345   4.132   5.418   0.225  0.1384 -0.6360  0.2103
  833MOL0     C12346   4.133   5.440   0.092 -0.1999 -0.0989  0.2821
  833MOL0     C12347   4.009   5.482   0.027 -0.8069  0.2028  0.6617
  833MOL0     C12348   4.017   5.500  -0.133 -0.0380 -0.0156 -0.1139
  833MOL0     C12349   3.888   5.489   0.102  0.5099 -0.1855 -0.2790
  833MOL0     C12350   3.747   5.507   0.057  0.0074  0.2669  0.3973
  833MOL0     O12351   3.648   5.522   0.143  0.1447  0.2961 -0.4124
  833MOL0     C12352   3.518   5.518   0.095  0.1534 -0.3685  0.5391
  833MOL0     C12353   3.467   5.432  -0.008  0.0279 -0.0119 -0.4530
  833MOL0     C12354   3.332   5.418  -0.027  0.5625  0.7257  0.8052
  833MOL0     C12355   3.237   5.478   0.054 -0.2683  0.1563 -0.2386
  833MOL0     O12356   3.102   5.445   0.025 -0.8739 -0.0318 -0.2727
  833MOL0     C12357   2.992   5.529   0.075 -0.2673  0.8028  0.5972
  833MOL0     C12358   2.861   5.463   0.022 -0.0388 -0.5491 -0.1717
  833MOL0     C12359   2.849   5.509  -0.127 -0.3030 -0.6503 -0.9790
  833MOL0     C12360   2.733   5.447  -0.203 -0.2014  0.0199 -0.2512
  833MOL0     C12361   2.734   5.475  -0.356 -0.1968 -1.1813  0.2813
  833MOL0     C12362   2.605   5.439  -0.435 -0.1794 -0.4969 -0.1904
  833MOL0     C12363   2.625   5.464  -0.587 -0.4216  0.6808 -0.0360
  833MOL0     C12364   2.505   5.390  -0.660  0.4725 -0.3701  0.6219
  833MOL0    Cl12365   2.346   5.445  -0.594 -0.1598 -0.0180  0.0407
  833MOL0     C12366   3.287   5.572   0.146  0.9542  0.5052  0.5167
  833MOL0     C12367   3.423   5.581   0.168 -0.3423 -0.1818  0.2744
  833MOL0     O12368   3.729   5.513  -0.062  0.5547 -0.0166  0.6606
  833MOL0     C12369   3.893   5.470   0.241 -0.3518 -0.1417  0.1348
  833MOL0     C12370   4.013   5.433   0.301  0.4229  1.4934  0.1658
  833MOL0     N12371   4.745   5.491   0.466 -0.9308  0.6782 -0.6515
  833MOL0     N12372   4.866   5.447   0.485 -0.1043  0.0678  0.3426
  833MOL0     C12373   5.992   6.112   0.220  0.0533 -0.0233  0.7444
  833MOL0     C12374   6.116   6.089   0.159 -0.6275 -0.4236  0.3170
  833MOL0     C12375   6.488   5.965  -0.079  0.1235 -0.2884 -1.1574
  833MOL0     C12376   6.622   5.970  -0.032  0.1122 -0.2542 -0.2220
  833MOL0     C12377   6.728   5.967  -0.120 -0.0469  0.0650 -0.2210
  833MOL0     C12378   6.698   5.941  -0.255  0.7214  0.6193  0.8176
  833MOL0     O12379   6.788   5.929  -0.358  0.8425  0.1434 -0.4203
  833MOL0     C12380   6.929   5.949  -0.334  0.1706 -0.4510  0.8330
  833MOL0     C12381   6.996   5.822  -0.287 -0.0806 -0.3173 -0.4401
  833MOL0     C12382   7.146   5.850  -0.269  0.6295  0.3381 -0.2043
  833MOL0     C12383   7.228   5.731  -0.225  0.2305 -1.2313 -0.0230
  833MOL0     C12384   7.197   5.685  -0.088 -1.0594  0.1973 -1.0455
  833MOL0     C12385   7.173   5.630   0.021 -0.3628  0.4808 -0.4460
  833MOL0     C12386   6.566   5.924  -0.305 -0.0862 -0.6935  0.4182
  833MOL0     C12387   6.466   5.932  -0.219 -0.4925  0.3471 -1.1840
  833MOL0     H12388   6.011   6.042  -0.148  0.9677  1.6095 -0.3770
  833MOL0     H12389   5.796   6.041  -0.046 -0.8025  2.4942  0.7966
  833MOL0     H12390   5.788   5.932   0.301  0.3653  0.1246  0.9062
  833MOL0     H12391   5.697   6.058   0.387 -0.5542  1.8220 -1.5469
  833MOL0     H12392   5.534   5.976   0.164 -0.9526 -1.9132  0.5579
  833MOL0     H12393   5.596   5.832   0.233 -0.9658 -1.3702  1.3046
  833MOL0     H12394   5.497   5.920   0.465  0.3554  1.5871 -0.1563
  833MOL0     H12395   5.397   6.016   0.344  1.2918 -0.0978 -1.8021
  833MOL0     H12396   5.311   5.803   0.258  1.3226 -1.2962 -1.1189
  833MOL0     H12397   5.421   5.705   0.340  1.1377 -0.2079 -0.4473
  833MOL0     H12398   5.301   5.767   0.558 -0.6256 -1.0398 -0.1242
  833MOL0     H12399   5.214   5.892   0.479  0.3207  0.1975 -2.7157
  833MOL0     H12400   5.060   5.737   0.485  0.0017  0.0616 -0.1026
  833MOL0     H12401   5.116   5.720   0.321  1.5228  1.9367 -0.0549
  833MOL0     H12402   5.278   5.546   0.376  0.1659 -0.3869  0.4315
  833MOL0     H12403   5.191   5.542   0.541  1.8940  2.0653  0.2590
  833MOL0     H12404   5.104   5.363   0.417  2.2843  0.6887 -0.4528
  833MOL0     H12405   5.101   5.447   0.267  1.2720  0.0421  0.3532
  833MOL0     H12406   4.887   5.656   0.225 -0.2000  0.6049 -0.1438
  833MOL0     H12407   4.590   5.723   0.402  1.9608  0.7737  1.1631
  833MOL0     H12408   4.648   5.721   0.245 -0.5521  0.4266  1.1907
  833MOL0     H12409   4.519   5.500   0.218 -2.4677  0.8297 -1.2630
  833MOL0     H12410   4.428   5.641   0.256  0.3844  0.3763 -0.1163
  833MOL0     H12411   4.446   5.544   0.510 -0.3737  2.6602 -1.8289
  833MOL0     H12412   4.479   5.393   0.439 -1.8433 -1.0112  3.0565
  833MOL0     H12413   4.224   5.559   0.405 -0.9756 -0.0422  2.7112
  833MOL0     H12414   4.246   5.407   0.493 -0.9604 -0.5578 -0.7255
  833MOL0     H12415   4.227   5.422   0.040  0.7850 -2.5724  2.7147
  833MOL0     H12416   4.121   5.490  -0.166  0.1037  2.0185 -0.4638
  833MOL0     H12417   3.962   5.421  -0.184 -0.4786  1.1566 -1.5507
  833MOL0     H12418   3.975   5.590  -0.181  0.7491 -0.1312 -1.0561
  833MOL0     H12419   3.530   5.370  -0.071  0.5513 -0.3008  0.3330
  833MOL0     H12420   3.298   5.357  -0.111 -0.5429 -0.1404  1.8369
  833MOL0     H12421   2.984   5.513   0.183 -2.1759 -0.2419  0.3356
  833MOL0     H12422   3.009   5.633   0.045  0.1630  1.2511  2.2755
  833MOL0     H12423   2.866   5.354   0.026  1.0907 -0.5282 -0.5413
  833MOL0     H12424   2.777   5.500   0.081  2.4517 -0.4431  3.6705
  833MOL0     H12425   2.946   5.483  -0.170  1.5878 -0.0340  2.5143
  833MOL0     H12426   2.836   5.618  -0.133 -0.9364 -0.7885 -5.0702
  833MOL0     H12427   2.743   5.340  -0.185 -2.4929 -0.4513 -1.4499
  833MOL0     H12428   2.635   5.465  -0.158 -0.8784 -0.7064 -1.4198
  833MOL0     H12429   2.827   5.435  -0.398  1.4229  2.5804 -0.1484
  833MOL0     H12430   2.751   5.582  -0.365 -1.3060 -1.1270 -1.7682
  833MOL0     H12431   2.581   5.334  -0.416 -3.0514 -0.0408 -0.8768
  833MOL0     H12432   2.519   5.489  -0.390 -1.7837 -2.0886 -1.3629
  833MOL0     H12433   2.721   5.415  -0.611 -0.9675 -1.8513  2.3942
  833MOL0     H12434   2.626   5.570  -0.613 -0.4713  0.1628 -2.4019
  833MOL0     H12435   2.519   5.285  -0.632 -2.9929 -0.8327  1.0183
  833MOL0     H12436   2.529   5.413  -0.764 -0.4192 -2.2072 -0.0160
  833MOL0     H12437   3.227   5.621   0.223 -2.9639 -1.7813 -0.7790
  833MOL0     H12438   3.456   5.638   0.255 -1.4693  0.3338  0.3869
  833MOL0     H12439   3.807   5.494   0.302 -0.5094 -0.5051  0.0555
  833MOL0     H12440   4.020   5.416   0.408 -2.4911 -2.3768 -0.0191
  833MOL0     H12441   5.988   6.124   0.327  1.1881  1.6780  0.6250
  833MOL0     H12442   6.206   6.095   0.219 -0.9352  0.5327  0.6941
  833MOL0     H12443   6.639   5.978   0.075 -1.0071 -1.3912  0.0663
  833MOL0     H12444   6.830   5.971  -0.082 -0.2201 -0.5129  0.3209
  833MOL0     H12445   6.967   5.991  -0.427 -1.9871  1.9585  0.9038
  833MOL0     H12446   6.937   6.025  -0.256 -2.2689  0.0961  0.6528
  833MOL0     H12447   6.982   5.741  -0.359 -0.1426 -1.1046  0.4347
  833MOL0     H12448   6.957   5.785  -0.191  1.7800 -2.5884 -0.4948
  833MOL0     H12449   7.156   5.927  -0.192 -2.0304  0.8959 -0.3221
  833MOL0     H12450   7.185   5.879  -0.367  1.8962 -0.7967 -0.0622
  833MOL0     H12451   7.332   5.767  -0.224 -0.2564  0.4424 -1.8024
  833MOL0     H12452   7.213   5.649  -0.295 -1.5279 -2.5979  1.8491
  833MOL0     H12453   7.142   5.579   0.110 -1.1798 -0.5954 -1.3042
  833MOL0     H12454   6.545   5.912  -0.411  1.6648  0.3328 -0.0832
  833MOL0     H12455   6.366   5.914  -0.257 -0.8220  0.2674 -0.3102
  834MOL0     O12456   6.685   3.294   6.305  1.3970  0.2584 -0.8858
  834MOL0     C12457   6.718   3.270   6.424 -0.7424 -0.0703  0.6941
  834MOL0     O12458   6.653   3.307   6.532 -0.1022  0.5641 -0.2123
  834MOL0     C12459   6.531   3.373   6.515 -0.4033 -0.1078  0.6266
  834MOL0     C12460   6.522   3.503   6.556  0.5016 -1.0779 -1.1391
  834MOL0     C12461   6.399   3.569   6.545  0.4160  0.0355  0.2318
  834MOL0     C12462   6.286   3.503   6.488  0.3422 -0.2792  0.4599
  834MOL0     O12463   6.169   3.570   6.465 -0.0007 -0.4875 -0.5443
  834MOL0     C12464   6.163   3.717   6.474 -0.0959 -0.8568 -0.7520
  834MOL0     C12465   6.029   3.766   6.423 -0.2004 -0.6742  0.2136
  834MOL0     C12466   5.905   3.692   6.484  0.1747 -0.1552  0.5860
  834MOL0     C12467   5.771   3.718   6.405 -0.3713  0.3932 -0.6548
  834MOL0     C12468   5.640   3.667   6.469  0.3147 -0.7363 -0.5197
  834MOL0     C12469   5.519   3.694   6.382  0.1145  0.2353  0.3677
  834MOL0     C12470   5.393   3.643   6.428  0.3502 -1.1461  0.9256
  834MOL0     C12471   5.272   3.713   6.363 -1.2006 -0.7723  0.0116
  834MOL0     N12472   5.159   3.628   6.366 -0.0829  0.0732 -0.3072
  834MOL0     C12473   5.125   3.530   6.275 -0.1058  0.2625 -0.2691
  834MOL0     C12474   4.993   3.516   6.289 -0.4301  0.1532  0.6102
  834MOL0     C12475   4.913   3.435   6.194  0.2234 -0.8661 -0.4051
  834MOL0     C12476   4.766   3.488   6.184  0.3243 -0.2953 -0.5324
  834MOL0     C12477   4.690   3.397   6.087 -0.0135  0.0512 -0.1377
  834MOL0     C12478   4.552   3.444   6.061  0.4409  0.8726  0.3093
  834MOL0     O12479   4.461   3.401   6.163 -0.6721  0.5823 -0.6504
  834MOL0     C12480   4.371   3.309   6.130 -0.4074 -0.0247 -0.7741
  834MOL0     C12481   4.400   3.192   6.064 -0.1997  0.4453 -0.0363
  834MOL0     C12482   4.298   3.096   6.036  0.1925 -1.5726  0.1236
  834MOL0     C12483   4.332   2.965   5.981  0.1240  0.2695 -0.5827
  834MOL0     C12484   4.158   3.131   6.059 -0.2761 -0.7363 -0.6153
  834MOL0     C12485   4.043   3.038   6.021 -0.6202  0.7416  0.3546
  834MOL0     O12486   4.058   2.953   5.912 -0.7002  0.6380  0.7719
  834MOL0     C12487   4.008   2.826   5.922 -0.7078 -0.2214 -0.6362
  834MOL0     C12488   4.012   2.748   6.047  0.8603 -0.4561  0.1593
  834MOL0     C12489   3.968   2.617   6.054 -0.8489 -0.3264 -0.2163
  834MOL0     C12490   3.928   2.559   5.938  0.6940  0.3766  0.1015
  834MOL0     O12491   3.882   2.435   5.959  0.3226  0.3365 -0.3943
  834MOL0     C12492   3.963   2.336   5.885 -0.6798 -0.0778  0.8614
  834MOL0     C12493   3.927   2.200   5.941  0.4843 -0.0302  0.1179
  834MOL0     C12494   3.790   2.152   5.892  0.1379 -0.1279 -0.0153
  834MOL0     C12495   3.796   2.058   5.772  0.5528 -0.1187 -0.2400
  834MOL0     C12496   3.647   2.034   5.717 -0.2572  0.1452  0.4576
  834MOL0     C12497   3.630   1.889   5.672  0.8958 -0.0393 -0.6750
  834MOL0     C12498   3.637   1.796   5.794  0.2023 -0.1266  0.0078
  834MOL0     C12499   3.526   1.791   5.895  0.8452  0.8675 -0.0185
  834MOL0    Cl12500   3.366   1.776   5.809 -0.5200 -0.1885 -0.2951
  834MOL0     C12501   3.923   2.624   5.820 -0.0604  0.5892  0.5189
  834MOL0     C12502   3.969   2.760   5.805  0.5361 -0.7821 -0.5845
  834MOL0     O12503   3.945   3.034   6.098  0.2907  0.2142 -0.5809
  834MOL0     C12504   4.134   3.254   6.117  0.3972  0.9083 -1.5460
  834MOL0     C12505   4.235   3.336   6.157 -0.7398 -1.0079 -0.3530
  834MOL0     N12506   4.949   3.614   6.383 -0.4393 -0.3063 -0.2848
  834MOL0     N12507   5.049   3.672   6.427 -0.2726 -0.7306 -0.0413
  834MOL0     C12508   6.289   3.368   6.451  0.4058  0.6156 -0.6738
  834MOL0     C12509   6.417   3.302   6.465  0.0235  0.3663  0.3842
  834MOL0     C12510   6.851   3.205   6.448 -0.0102  0.1206 -0.5454
  834MOL0     C12511   6.871   3.147   6.577 -0.4705 -0.0273  0.1364
  834MOL0     C12512   6.989   3.079   6.598  0.1214  0.6303  0.7116
  834MOL0     C12513   7.094   3.073   6.508  0.6218 -0.1210  0.6207
  834MOL0     O12514   7.206   3.002   6.542 -0.1661  0.0067 -0.5377
  834MOL0     C12515   7.272   2.915   6.445 -0.0384 -0.4749 -0.0117
  834MOL0     C12516   7.413   2.888   6.482  0.3859 -0.1239 -0.1452
  834MOL0     C12517   7.445   2.847   6.626 -0.8012  0.1601  0.1150
  834MOL0     C12518   7.591   2.847   6.667 -0.3350  1.2335  0.2479
  834MOL0     C12519   7.682   2.742   6.607 -0.7019  0.1885 -0.8155
  834MOL0     C12520   7.760   2.661   6.572 -0.6061  0.0634  0.6761
  834MOL0     C12521   7.075   3.140   6.381  0.3582 -0.2368  0.4498
  834MOL0     C12522   6.952   3.207   6.350  0.4619 -0.1672 -0.9917
  834MOL0     H12523   6.605   3.551   6.607  1.0735 -2.8322 -0.3534
  834MOL0     H12524   6.392   3.675   6.570 -0.1780  0.9599 -3.3047
  834MOL0     H12525   6.165   3.744   6.580  1.1546 -0.8095 -0.7737
  834MOL0     H12526   6.246   3.765   6.423 -0.4413  0.4292 -0.1480
  834MOL0     H12527   6.028   3.872   6.452 -1.2855 -1.1191  1.9973
  834MOL0     H12528   6.019   3.748   6.316 -1.3230  3.4798 -0.5887
  834MOL0     H12529   5.926   3.585   6.478  0.2872 -0.0703 -0.9262
  834MOL0     H12530   5.904   3.734   6.585  2.8275 -2.8262  1.8565
  834MOL0     H12531   5.760   3.823   6.377  0.9361  0.7509  0.1129
  834MOL0     H12532   5.772   3.655   6.315 -0.7011  1.1969 -1.2372
  834MOL0     H12533   5.645   3.560   6.490 -0.4278 -0.9444 -1.4031
  834MOL0     H12534   5.626   3.715   6.567  3.1312  2.3483 -1.4351
  834MOL0     H12535   5.524   3.799   6.352  2.1723 -0.3293 -1.5956
  834MOL0     H12536   5.550   3.650   6.286  1.4045 -1.6244  1.5753
  834MOL0     H12537   5.392   3.537   6.402  0.2723 -1.3028  1.5611
  834MOL0     H12538   5.379   3.655   6.536 -0.3760 -0.4331  0.7647
  834MOL0     H12539   5.306   3.726   6.260  2.2625  1.7278  1.3027
  834MOL0     H12540   5.252   3.809   6.411 -0.8602 -0.0706 -1.2228
  834MOL0     H12541   5.188   3.477   6.205 -1.1495 -0.0634 -0.9779
  834MOL0     H12542   4.952   3.429   6.091 -1.0861  1.7441 -1.1381
  834MOL0     H12543   4.902   3.334   6.234  0.9167 -1.6695 -2.1122
  834MOL0     H12544   4.766   3.591   6.147 -1.4248 -0.4670 -1.1482
  834MOL0     H12545   4.723   3.502   6.283 -3.7945 -2.3603 -1.7865
  834MOL0     H12546   4.691   3.294   6.124 -3.3417 -0.2862 -0.7102
  834MOL0     H12547   4.746   3.400   5.993  0.9297 -0.3957  0.3933
  834MOL0     H12548   4.519   3.428   5.958  0.8280  1.3849  0.0963
  834MOL0     H12549   4.555   3.552   6.079 -0.8430  1.3842 -2.1801
  834MOL0     H12550   4.501   3.156   6.048 -0.7480 -3.6511  3.9275
  834MOL0     H12551   4.281   2.882   6.031 -1.6831  1.3812 -0.5140
  834MOL0     H12552   4.322   2.961   5.872  1.5012  0.5860 -0.7419
  834MOL0     H12553   4.440   2.954   5.995 -0.0287  0.2212  0.7262
  834MOL0     H12554   4.053   2.795   6.136 -0.6416  1.0103  0.1277
  834MOL0     H12555   3.987   2.562   6.146  2.4676  1.6702  0.5080
  834MOL0     H12556   3.951   2.337   5.776  2.0705  1.3704  0.4912
  834MOL0     H12557   4.068   2.358   5.905  0.0293 -0.8540 -1.6250
  834MOL0     H12558   3.995   2.125   5.900 -0.1087 -0.9358  0.7456
  834MOL0     H12559   3.927   2.198   6.051  0.0244 -0.6138  0.1108
  834MOL0     H12560   3.721   2.231   5.860  0.2209  0.4623  1.2180
  834MOL0     H12561   3.736   2.098   5.970  0.4067  2.0748  1.7923
  834MOL0     H12562   3.840   2.128   5.701  0.9781  2.1123  2.0928
  834MOL0     H12563   3.861   1.973   5.796  2.3812  1.1844 -0.4069
  834MOL0     H12564   3.637   2.098   5.628 -0.3043 -0.5524 -0.0512
  834MOL0     H12565   3.575   2.062   5.795 -3.2123  1.9396 -2.6229
  834MOL0     H12566   3.533   1.886   5.621  0.1763  2.9637  0.2987
  834MOL0     H12567   3.711   1.865   5.603  1.0730 -0.6355 -0.2652
  834MOL0     H12568   3.733   1.821   5.841 -0.5817  1.5183  0.8162
  834MOL0     H12569   3.654   1.695   5.755 -1.1819  0.3005 -1.8631
  834MOL0     H12570   3.536   1.882   5.956  2.7817  1.5016 -1.1852
  834MOL0     H12571   3.549   1.695   5.942  0.4792  0.2342 -1.0924
  834MOL0     H12572   3.893   2.564   5.735  1.5085 -1.8378  1.5585
  834MOL0     H12573   3.981   2.808   5.709 -2.4315 -2.4852 -1.9578
  834MOL0     H12574   4.029   3.278   6.130  0.7298  3.6095 -3.2105
  834MOL0     H12575   4.210   3.430   6.205 -1.5795 -1.8514  0.8960
  834MOL0     H12576   6.204   3.314   6.411 -1.9091  0.7796  3.4393
  834MOL0     H12577   6.441   3.200   6.438  3.2281  0.2499  2.9741
  834MOL0     H12578   6.800   3.155   6.659  0.6924  0.8108  1.1042
  834MOL0     H12579   7.003   3.040   6.699 -2.3169 -0.2143  0.8067
  834MOL0     H12580   7.215   2.822   6.454  1.0114 -0.9648  2.0222
  834MOL0     H12581   7.267   2.959   6.344 -1.0376  0.3058  0.3580
  834MOL0     H12582   7.461   2.984   6.461  3.5980 -1.8321 -1.2584
  834MOL0     H12583   7.452   2.814   6.412 -1.2843 -0.0227 -1.2368
  834MOL0     H12584   7.393   2.757   6.658  1.1743 -1.1847 -0.3259
  834MOL0     H12585   7.399   2.923   6.691 -0.3193  2.1296 -1.7292
  834MOL0     H12586   7.589   2.827   6.774  0.5608  1.4466  0.3101
  834MOL0     H12587   7.630   2.948   6.659 -0.3701  1.2388  0.1334
  834MOL0     H12588   7.825   2.582   6.540 -0.5112  0.5981 -0.5085
  834MOL0     H12589   7.156   3.141   6.309  0.8944 -0.2947  1.0449
  834MOL0     H12590   6.937   3.259   6.255  0.7804  2.8794  0.5041
  835MOL0     O12591   1.596   2.200   8.407  0.1976 -0.2192  0.6101
  835MOL0     C12592   1.679   2.154   8.326  0.3244 -0.2035  0.0397
  835MOL0     O12593   1.644   2.097   8.208  0.1618  0.1540  0.5997
  835MOL0     C12594   1.515   2.055   8.180 -1.1631 -0.7425 -0.6236
  835MOL0     C12595   1.464   2.105   8.065  0.6523  0.0941  0.1016
  835MOL0     C12596   1.331   2.076   8.025  0.0538 -1.1135 -0.3219
  835MOL0     C12597   1.258   1.985   8.099 -0.3198  0.5316  0.1564
  835MOL0     O12598   1.126   1.971   8.058  0.0059  0.4918 -0.7849
  835MOL0     C12599   1.065   1.836   8.078  0.1589 -0.4422  0.7428
  835MOL0     C12600   0.948   1.855   8.179  0.0297 -0.1312 -1.0222
  835MOL0     C12601   0.835   1.929   8.116 -0.0944  0.1578  0.8146
  835MOL0     C12602   0.715   1.929   8.202 -0.4140  0.8595 -0.3272
  835MOL0     C12603   0.604   2.033   8.150  0.7647  1.0172  0.2555
  835MOL0     C12604   0.566   2.132   8.260  0.1139  0.5130 -0.4223
  835MOL0     C12605   0.474   2.241   8.194 -0.2850  0.0508 -0.6166
  835MOL0     C12606   0.437   2.336   8.306 -0.3522  0.1665  0.0543
  835MOL0     N12607   0.365   2.451   8.251  1.1893 -0.3018 -1.0228
  835MOL0     C12608   0.241   2.449   8.190 -0.1880  0.5876 -0.0329
  835MOL0     C12609   0.234   2.566   8.125  0.3169 -0.6294 -0.3651
  835MOL0     C12610   0.128   2.616   8.031 -0.3738 -0.4672  0.3383
  835MOL0     C12611   0.163   2.578   7.884  0.0472 -0.8293 -0.6013
  835MOL0     C12612   0.114   2.689   7.788 -0.0061  0.0358 -0.3620
  835MOL0     C12613  -0.043   2.706   7.800  0.1255 -0.0223 -0.1766
  835MOL0     O12614  -0.077   2.851   7.785 -0.6281  0.8043 -0.5822
  835MOL0     C12615  -0.176   2.861   7.692  0.1050 -0.2911  0.1573
  835MOL0     C12616  -0.313   2.886   7.731 -0.3945 -0.4640  0.0524
  835MOL0     C12617  -0.417   2.905   7.635 -0.2967 -0.1742  0.5943
  835MOL0     C12618  -0.546   2.944   7.702  0.6342  0.0197 -0.6759
  835MOL0     C12619  -0.391   2.897   7.487 -0.2619  0.1318 -1.0394
  835MOL0     C12620  -0.496   2.902   7.378 -0.0511  1.2078  0.2062
  835MOL0     O12621  -0.612   2.962   7.408 -0.4399 -0.3595  0.4787
  835MOL0     C12622  -0.731   2.936   7.340  1.2535  0.4535 -0.5961
  835MOL0     C12623  -0.736   2.948   7.201 -0.5592  0.5300  0.6410
  835MOL0     C12624  -0.849   2.909   7.133  0.8225  0.1462  0.1876
  835MOL0     C12625  -0.971   2.895   7.202  0.5563 -0.0798  0.4910
  835MOL0     O12626  -1.074   2.857   7.125  0.1896  0.4619  0.3832
  835MOL0     C12627  -1.197   2.810   7.187 -0.1046  1.2031  0.1873
  835MOL0     C12628  -1.314   2.766   7.099 -0.3079  0.0931 -0.0145
  835MOL0     C12629  -1.425   2.702   7.184  0.2242 -0.7344  0.1938
  835MOL0     C12630  -1.524   2.652   7.082  0.7233  0.1550  0.0434
  835MOL0     C12631  -1.664   2.625   7.153  0.2021  0.5718  0.1873
  835MOL0     C12632  -1.766   2.589   7.033 -0.0285  0.3673  0.6651
  835MOL0     C12633  -1.844   2.703   6.954 -0.3021 -0.5454 -0.1948
  835MOL0     C12634  -1.933   2.787   7.037  0.4720  0.3674  0.3853
  835MOL0    Cl12635  -2.078   2.709   7.097  0.1491  0.1376  0.0085
  835MOL0     C12636  -0.973   2.904   7.343  0.2317  0.7519  0.9995
  835MOL0     C12637  -0.852   2.914   7.404 -0.2148  0.8995 -0.8982
  835MOL0     O12638  -0.463   2.844   7.269  1.0117  0.2466 -0.8209
  835MOL0     C12639  -0.251   2.872   7.458 -0.7053 -0.1935  0.0969
  835MOL0     C12640  -0.148   2.858   7.557 -0.3235  0.5107 -1.1110
  835MOL0     N12641   0.345   2.642   8.167  0.0110 -0.0522  0.1935
  835MOL0     N12642   0.420   2.573   8.243 -0.4011  0.1900 -0.1266
  835MOL0     C12643   1.316   1.932   8.220 -0.1204 -0.7257 -0.0881
  835MOL0     C12644   1.443   1.970   8.262 -0.6738 -0.2716 -0.1886
  835MOL0     C12645   1.822   2.183   8.344 -0.0745 -0.3822 -0.1689
  835MOL0     C12646   1.872   2.270   8.441  0.8734  0.0509 -1.5574
  835MOL0     C12647   2.004   2.281   8.469 -0.5878 -0.3218  0.4323
  835MOL0     C12648   2.098   2.208   8.390  0.7550  0.5456 -0.1638
  835MOL0     O12649   2.233   2.208   8.411 -0.1575  0.0723  0.4867
  835MOL0     C12650   2.304   2.324   8.456 -0.4855  0.5451 -0.2005
  835MOL0     C12651   2.379   2.413   8.361 -0.0329 -0.7544 -0.4510
  835MOL0     C12652   2.499   2.336   8.319 -0.1338 -0.0942 -0.3368
  835MOL0     C12653   2.568   2.411   8.198  1.0336 -0.7603 -0.3620
  835MOL0     C12654   2.653   2.517   8.235 -0.2137  0.2184  0.0773
  835MOL0     C12655   2.733   2.597   8.279  1.2133  0.2854  0.1394
  835MOL0     C12656   2.045   2.125   8.297  0.9661  0.0933  0.0860
  835MOL0     C12657   1.912   2.129   8.263  0.1151 -0.3995  1.4575
  835MOL0     H12658   1.532   2.169   8.009  1.4108 -1.8787 -1.3442
  835MOL0     H12659   1.293   2.126   7.937  0.7818  1.8840  0.9349
  835MOL0     H12660   1.026   1.799   7.984 -2.0279  0.6897  1.1434
  835MOL0     H12661   1.133   1.762   8.121 -1.1131 -2.6039 -0.7870
  835MOL0     H12662   0.917   1.761   8.226  0.0679  0.1098 -0.5077
  835MOL0     H12663   0.991   1.923   8.253 -0.5075 -0.9031  0.0394
  835MOL0     H12664   0.870   2.031   8.097  2.2009 -0.9605 -1.5533
  835MOL0     H12665   0.812   1.880   8.021 -1.8794  0.3289  1.1194
  835MOL0     H12666   0.677   1.827   8.210 -0.2529  0.8736  0.7068
  835MOL0     H12667   0.737   1.948   8.307  1.1455 -0.8409 -0.2934
  835MOL0     H12668   0.638   2.073   8.054 -3.0653 -2.3814 -2.9011
  835MOL0     H12669   0.514   1.977   8.121  1.5508 -1.0921  1.6385
  835MOL0     H12670   0.522   2.080   8.345  0.7441  0.3320 -0.2028
  835MOL0     H12671   0.647   2.184   8.311 -0.8060 -1.5108  3.4646
  835MOL0     H12672   0.529   2.301   8.121  0.3980  0.9905  0.6291
  835MOL0     H12673   0.389   2.193   8.146  0.0705 -3.3879  1.8287
  835MOL0     H12674   0.532   2.366   8.350 -0.0515 -2.7756  1.6592
  835MOL0     H12675   0.372   2.280   8.374 -0.8137  0.9701  0.2991
  835MOL0     H12676   0.168   2.372   8.168  0.4031 -0.1703  0.5720
  835MOL0     H12677   0.036   2.561   8.054  0.5605 -1.5428  1.6408
  835MOL0     H12678   0.131   2.726   8.035  1.5622 -0.3538 -1.9170
  835MOL0     H12679   0.124   2.479   7.859  0.5744 -1.0104 -0.7271
  835MOL0     H12680   0.272   2.572   7.871  0.1066 -1.4752  0.0976
  835MOL0     H12681   0.130   2.652   7.687  0.7828 -0.1108 -0.1916
  835MOL0     H12682   0.173   2.780   7.803  0.7653 -0.5130 -0.0164
  835MOL0     H12683  -0.083   2.655   7.888  0.1823 -0.3538 -0.3447
  835MOL0     H12684  -0.084   2.647   7.719  1.6589  0.1857 -1.1487
  835MOL0     H12685  -0.337   2.896   7.837  0.1581 -1.4809  0.2796
  835MOL0     H12686  -0.628   2.879   7.668  1.3393 -1.6828  0.7059
  835MOL0     H12687  -0.533   2.940   7.811  4.2495 -0.2197 -1.0155
  835MOL0     H12688  -0.579   3.043   7.668 -3.8359  0.8307  4.5292
  835MOL0     H12689  -0.644   2.981   7.154  1.3411 -0.5281  3.3115
  835MOL0     H12690  -0.852   2.902   7.025 -1.8300 -2.7265  0.3110
  835MOL0     H12691  -1.173   2.726   7.254 -0.6420  2.0520  1.4722
  835MOL0     H12692  -1.241   2.891   7.246 -0.3698  1.1516  0.0622
  835MOL0     H12693  -1.350   2.860   7.054 -0.3477  0.3158  0.4745
  835MOL0     H12694  -1.276   2.690   7.030  1.7313  0.0567  1.0673
  835MOL0     H12695  -1.481   2.784   7.230 -1.5114 -0.9326 -1.4503
  835MOL0     H12696  -1.394   2.620   7.249  1.8681 -1.1025 -0.9745
  835MOL0     H12697  -1.543   2.735   7.014  0.6542 -0.6849 -0.9898
  835MOL0     H12698  -1.490   2.570   7.019  0.3928  1.3476 -1.7550
  835MOL0     H12699  -1.709   2.706   7.210  1.6041  0.9054  0.8482
  835MOL0     H12700  -1.647   2.538   7.217  2.8930  0.1713 -0.9410
  835MOL0     H12701  -1.719   2.519   6.963 -2.7085  0.4063 -1.3232
  835MOL0     H12702  -1.842   2.528   7.081  2.2370 -3.0652  0.2159
  835MOL0     H12703  -1.895   2.657   6.868 -1.9933 -0.1939  0.5811
  835MOL0     H12704  -1.758   2.759   6.916  1.3532 -2.6687  0.2369
  835MOL0     H12705  -1.954   2.876   6.977  3.0683  1.1626  0.4996
  835MOL0     H12706  -1.872   2.827   7.119  1.5761  1.6221 -0.9693
  835MOL0     H12707  -1.062   2.885   7.403  0.9603  0.0415  1.8933
  835MOL0     H12708  -0.857   2.924   7.511  1.0979 -0.4669 -0.6728
  835MOL0     H12709  -0.220   2.854   7.356 -0.1700 -1.4094  0.4662
  835MOL0     H12710  -0.047   2.851   7.519 -0.7255 -1.4584 -1.9243
  835MOL0     H12711   1.256   1.856   8.270 -2.1224 -0.6902 -2.2465
  835MOL0     H12712   1.491   1.927   8.350 -0.3893  0.9823  0.2839
  835MOL0     H12713   1.806   2.312   8.516  0.8274 -0.5297 -1.2620
  835MOL0     H12714   2.039   2.350   8.545  1.7458 -0.6751 -0.2632
  835MOL0     H12715   2.239   2.381   8.522 -1.8148 -0.0826 -0.9357
  835MOL0     H12716   2.385   2.302   8.526  1.0871  2.1185 -1.4042
  835MOL0     H12717   2.404   2.500   8.423 -2.6821 -0.6875  0.6636
  835MOL0     H12718   2.323   2.440   8.271 -0.3746 -1.0618 -0.3315
  835MOL0     H12719   2.472   2.232   8.297  2.6517 -1.0725  0.4839
  835MOL0     H12720   2.568   2.340   8.404  1.5390  1.5935 -1.7014
  835MOL0     H12721   2.490   2.443   8.128 -0.0925  0.6379  1.4376
  835MOL0     H12722   2.627   2.334   8.147  2.9964  0.2184  0.3385
  835MOL0     H12723   2.793   2.677   8.315  1.0590 -1.0757  3.7654
  835MOL0     H12724   2.113   2.074   8.229 -1.8282 -0.6636 -2.3573
  835MOL0     H12725   1.879   2.078   8.173 -0.2813  0.6940  0.9562
  836MOL0     O12726   8.515  10.591   1.023  0.1695  0.1053  0.7549
  836MOL0     C12727   8.605  10.630   0.952  0.4341 -0.4343  0.6763
  836MOL0     O12728   8.596  10.735   0.865  0.3234  0.5199 -0.1894
  836MOL0     C12729   8.469  10.780   0.841 -0.2206  0.5511  1.0698
  836MOL0     C12730   8.430  10.910   0.871  0.8843 -0.2278 -0.6807
  836MOL0     C12731   8.301  10.950   0.830  0.5052  0.1844 -0.0432
  836MOL0     C12732   8.214  10.870   0.755  0.3333  0.1182  1.0333
  836MOL0     O12733   8.089  10.916   0.710  0.6390  0.1437  0.5189
  836MOL0     C12734   7.999  10.939   0.818  1.2625 -0.1713  0.1305
  836MOL0     C12735   7.916  10.817   0.842 -0.2149  0.6192 -0.3366
  836MOL0     C12736   7.836  10.783   0.718  0.1580  0.7084  0.2391
  836MOL0     C12737   7.744  10.667   0.747  1.2519 -0.4002  0.0928
  836MOL0     C12738   7.672  10.624   0.616 -0.1092 -0.0570 -0.0241
  836MOL0     C12739   7.586  10.501   0.637 -0.1349  0.1128 -0.2931
  836MOL0     C12740   7.503  10.463   0.514 -0.4607  1.1410  0.8125
  836MOL0     C12741   7.420  10.335   0.543 -0.3603  0.3085  0.4388
  836MOL0     N12742   7.289  10.365   0.497  0.4657  0.2037  0.1526
  836MOL0     C12743   7.175  10.410   0.571  0.2383  0.4311  0.1710
  836MOL0     C12744   7.069  10.429   0.481 -0.8452 -0.5852 -0.5267
  836MOL0     C12745   6.925  10.465   0.518  0.1799 -0.0354 -0.1763
  836MOL0     C12746   6.906  10.617   0.491 -0.2150  0.7228 -0.3478
  836MOL0     C12747   6.780  10.687   0.549  0.1201  1.2707 -0.0113
  836MOL0     C12748   6.643  10.611   0.526 -0.7001  1.3367  0.5417
  836MOL0     O12749   6.531  10.701   0.521 -0.5303  0.7801 -0.2362
  836MOL0     C12750   6.408  10.663   0.492  0.4176 -0.5352 -0.3563
  836MOL0     C12751   6.320  10.772   0.486  0.5703 -0.6998  0.3937
  836MOL0     C12752   6.189  10.762   0.459  0.3302  0.5653 -0.2605
  836MOL0     C12753   6.114  10.893   0.448  0.1158 -0.3931  0.4091
  836MOL0     C12754   6.143  10.631   0.417  0.3703 -0.3859 -0.7293
  836MOL0     C12755   6.001  10.602   0.369 -0.9970 -1.0434  0.6944
  836MOL0     O12756   5.988  10.498   0.282 -0.3596  0.2509 -0.1297
  836MOL0     C12757   5.871  10.488   0.212 -0.0647  0.1817 -0.3014
  836MOL0     C12758   5.836  10.362   0.171 -0.2012  0.0067 -0.2244
  836MOL0     C12759   5.727  10.348   0.082  0.7464 -0.6573 -0.0777
  836MOL0     C12760   5.658  10.452   0.025 -0.1179 -0.4930  0.2704
  836MOL0     O12761   5.562  10.431  -0.070 -0.3775  0.1429 -0.4234
  836MOL0     C12762   5.440  10.356  -0.033  0.6851 -0.0234  0.0747
  836MOL0     C12763   5.341  10.374  -0.150  0.0639  0.5297 -0.2080
  836MOL0     C12764   5.389  10.314  -0.286 -0.4422 -0.4635  0.0777
  836MOL0     C12765   5.302  10.342  -0.402  0.1249  0.8241 -0.0761
  836MOL0     C12766   5.166  10.268  -0.416  0.0408 -0.4219  0.4851
  836MOL0     C12767   5.094  10.291  -0.556 -1.7446  0.1639  0.6372
  836MOL0     C12768   5.187  10.282  -0.679 -0.1283 -0.6002 -1.6595
  836MOL0     C12769   5.244  10.144  -0.692  0.0943  0.8934  0.0264
  836MOL0    Cl12770   5.144   9.993  -0.734  0.1006  0.3634 -0.0491
  836MOL0     C12771   5.709  10.583   0.054  0.5045  0.4619 -0.2361
  836MOL0     C12772   5.808  10.598   0.156  1.0010  0.0245 -0.0063
  836MOL0     O12773   5.908  10.667   0.412  0.0205  0.6226 -0.2648
  836MOL0     C12774   6.241  10.531   0.400  0.6460 -0.1756 -0.2974
  836MOL0     C12775   6.367  10.540   0.444 -0.2268  0.9721 -0.7131
  836MOL0     N12776   7.118  10.429   0.359 -0.3024 -0.6293  0.2971
  836MOL0     N12777   7.242  10.392   0.372  0.0483 -0.9788 -0.3492
  836MOL0     C12778   8.251  10.738   0.736  0.2385 -0.8481  0.0624
  836MOL0     C12779   8.379  10.693   0.764 -0.7330  0.4988 -0.3877
  836MOL0     C12780   8.736  10.581   0.967  0.0410  0.2324  0.1104
  836MOL0     C12781   8.854  10.659   0.981  0.9593 -0.4139 -0.6561
  836MOL0     C12782   8.976  10.602   1.023 -0.0343 -0.4626 -1.1362
  836MOL0     C12783   8.984  10.468   1.059  0.3745 -0.6325 -0.4785
  836MOL0     O12784   9.103  10.430   1.111  0.4303 -0.3991 -0.3413
  836MOL0     C12785   9.127  10.293   1.112 -0.2855 -0.4625 -0.6670
  836MOL0     C12786   9.281  10.274   1.143 -0.2913 -0.5751  0.4595
  836MOL0     C12787   9.302  10.128   1.216  0.0137 -0.2979 -0.3424
  836MOL0     C12788   9.431  10.132   1.285 -1.3834  0.8809  0.5447
  836MOL0     C12789   9.455  10.017   1.375 -0.3289  1.9665  0.8854
  836MOL0     C12790   9.489   9.919   1.441 -0.5031 -0.1528  0.0111
  836MOL0     C12791   8.872  10.390   1.054  0.1462 -1.1184  0.1575
  836MOL0     C12792   8.756  10.447   1.011  0.2954 -0.6831  0.7044
  836MOL0     H12793   8.480  10.980   0.938 -2.1861  1.9254 -0.4119
  836MOL0     H12794   8.285  11.056   0.843  0.3650  0.0032  1.3199
  836MOL0     H12795   8.041  10.947   0.919 -1.2054 -1.1205  1.3062
  836MOL0     H12796   7.945  11.033   0.803  1.9313 -0.0675 -1.9549
  836MOL0     H12797   7.986  10.736   0.863  0.4829  0.6696 -2.2423
  836MOL0     H12798   7.855  10.838   0.931 -0.6045  1.5140 -0.7960
  836MOL0     H12799   7.772  10.857   0.668 -1.1058 -2.0414 -2.5462
  836MOL0     H12800   7.916  10.751   0.651  0.7414 -0.0504  1.2757
  836MOL0     H12801   7.789  10.575   0.784 -2.7977 -2.9292 -0.6743
  836MOL0     H12802   7.667  10.697   0.819  0.3185 -1.3369 -0.4791
  836MOL0     H12803   7.603  10.690   0.563 -0.2731 -1.2456 -1.3351
  836MOL0     H12804   7.751  10.605   0.543  1.2159  0.8275  1.1387
  836MOL0     H12805   7.649  10.418   0.672  0.6831  0.2562 -1.3764
  836MOL0     H12806   7.525  10.522   0.725  1.8667  0.3343  1.1120
  836MOL0     H12807   7.451  10.553   0.482  1.2309  1.6928 -0.5535
  836MOL0     H12808   7.575  10.434   0.437 -2.9134 -2.8128 -0.2475
  836MOL0     H12809   7.411  10.308   0.649  4.3879 -0.3905  0.8723
  836MOL0     H12810   7.461  10.256   0.479  0.1565  0.6085  0.3906
  836MOL0     H12811   7.158  10.431   0.676 -1.4864 -0.1964  0.0599
  836MOL0     H12812   6.852  10.398   0.471  0.0815  0.2659 -0.4551
  836MOL0     H12813   6.910  10.449   0.625  1.4215 -0.6290 -0.0763
  836MOL0     H12814   6.917  10.626   0.383 -0.9174  0.3900 -0.4500
  836MOL0     H12815   6.996  10.660   0.537 -0.3245 -1.1039  1.7413
  836MOL0     H12816   6.791  10.786   0.504  0.5058  1.0024 -0.5224
  836MOL0     H12817   6.787  10.704   0.657 -0.3582  0.4408  0.1591
  836MOL0     H12818   6.639  10.550   0.616  1.9750  1.6097  0.9097
  836MOL0     H12819   6.657  10.552   0.435  0.3995 -0.2388  1.7028
  836MOL0     H12820   6.363  10.870   0.504  0.2957  0.3488 -3.7520
  836MOL0     H12821   6.081  10.935   0.544  0.7426 -1.5839  1.1683
  836MOL0     H12822   6.174  10.978   0.413  0.3875  0.2730  2.3479
  836MOL0     H12823   6.026  10.881   0.385  1.3900 -0.1590 -1.4886
  836MOL0     H12824   5.907  10.284   0.193 -0.5615  0.4381  3.0080
  836MOL0     H12825   5.694  10.257   0.034 -1.1176 -2.0747  3.4878
  836MOL0     H12826   5.453  10.249  -0.016  1.1598 -0.0861 -0.6251
  836MOL0     H12827   5.384  10.392   0.054  1.9961 -0.4811  1.1359
  836MOL0     H12828   5.240  10.337  -0.129 -0.0052 -0.6411 -2.3409
  836MOL0     H12829   5.312  10.476  -0.173 -1.1844  0.3273  0.3706
  836MOL0     H12830   5.407  10.206  -0.274 -0.7056 -0.6117 -0.7670
  836MOL0     H12831   5.482  10.361  -0.318 -0.6995 -0.4407 -0.6710
  836MOL0     H12832   5.282  10.450  -0.407  0.7144  0.9073 -0.9575
  836MOL0     H12833   5.367  10.319  -0.487  0.6781  3.6807 -0.5324
  836MOL0     H12834   5.097  10.299  -0.337  2.3124  2.0281  1.6705
  836MOL0     H12835   5.178  10.159  -0.406 -1.3238 -0.5331  1.1966
  836MOL0     H12836   5.009  10.226  -0.578 -0.3534 -1.2754 -0.6677
  836MOL0     H12837   5.046  10.389  -0.557 -0.0809  1.0118 -0.8334
  836MOL0     H12838   5.261  10.362  -0.671 -1.9624  1.4590 -3.6137
  836MOL0     H12839   5.116  10.291  -0.763 -2.8055  1.3689  0.6253
  836MOL0     H12840   5.301  10.116  -0.603 -3.6723  2.6791  3.2825
  836MOL0     H12841   5.310  10.140  -0.779  3.6287  1.0881  2.4671
  836MOL0     H12842   5.666  10.666  -0.001 -0.2985 -0.9374 -1.8073
  836MOL0     H12843   5.842  10.701   0.161 -1.0201  0.8030 -0.9698
  836MOL0     H12844   6.202  10.436   0.364 -1.5663  0.3084  0.6201
  836MOL0     H12845   6.443  10.463   0.430  1.1284  2.3206 -1.0759
  836MOL0     H12846   8.172  10.687   0.681  0.2915  0.7612 -1.5717
  836MOL0     H12847   8.398  10.588   0.745 -0.6673  0.1733  1.2955
  836MOL0     H12848   8.843  10.765   0.958 -3.8731 -0.8185 -1.3191
  836MOL0     H12849   9.073  10.651   1.025 -0.0763 -0.4028  0.5476
  836MOL0     H12850   9.059  10.247   1.185 -0.1291 -2.8744 -1.9795
  836MOL0     H12851   9.095  10.262   1.013 -4.8365  2.0056 -0.2698
  836MOL0     H12852   9.313  10.355   1.210  0.1537  0.0971 -0.5442
  836MOL0     H12853   9.343  10.291   1.055  0.3451  0.5073  1.0832
  836MOL0     H12854   9.302  10.044   1.146 -0.0985 -0.0719 -0.6157
  836MOL0     H12855   9.225  10.117   1.293 -0.8457 -2.0148 -1.3910
  836MOL0     H12856   9.425  10.218   1.352  1.0749  0.3764  1.5217
  836MOL0     H12857   9.518  10.141   1.218 -3.2792  0.2686 -2.1431
  836MOL0     H12858   9.536   9.832   1.482  1.8662 -0.6865 -3.3621
  836MOL0     H12859   8.871  10.283   1.068 -0.6516 -1.3722 -1.6018
  836MOL0     H12860   8.676  10.374   1.011  0.3526 -0.7774 -0.8411
  837MOL0     O12861   2.445  10.669   5.922  0.6050  0.3186  0.2891
  837MOL0     C12862   2.466  10.592   5.830 -0.8739 -0.0756 -0.2443
  837MOL0     O12863   2.371  10.510   5.769 -0.7337  0.0654 -0.3837
  837MOL0     C12864   2.238  10.505   5.804  0.4266 -0.3440  0.6881
  837MOL0     C12865   2.211  10.493   5.943  0.3600 -0.1045  0.4701
  837MOL0     C12866   2.087  10.477   5.992  0.5340  0.4410  0.4421
  837MOL0     C12867   1.977  10.479   5.902  0.0527  0.5409 -0.0278
  837MOL0     O12868   1.851  10.439   5.945  0.1001  0.4754  0.1801
  837MOL0     C12869   1.811  10.464   6.078  0.7594 -0.8800  0.5261
  837MOL0     C12870   1.656  10.467   6.110  0.0050 -0.2161 -0.6939
  837MOL0     C12871   1.611  10.550   6.236 -1.0204 -0.8354 -0.2240
  837MOL0     C12872   1.468  10.512   6.280 -0.0057 -0.1869  0.1035
  837MOL0     C12873   1.407  10.622   6.364 -0.2115  0.3777  0.4391
  837MOL0     C12874   1.272  10.571   6.410 -0.1619  0.8346  0.1604
  837MOL0     C12875   1.197  10.689   6.460  0.9780 -0.4678 -0.3244
  837MOL0     C12876   1.056  10.667   6.509 -0.2121  0.7067  0.3544
  837MOL0     N12877   0.977  10.793   6.514  0.3814  0.3929  0.6739
  837MOL0     C12878   0.898  10.865   6.427 -0.2038 -0.2586 -1.2081
  837MOL0     C12879   0.832  10.959   6.502  0.2620  0.0450  0.1992
  837MOL0     C12880   0.724  11.049   6.447 -0.5536  0.2444  0.1736
  837MOL0     C12881   0.597  10.975   6.441 -0.9641 -0.0211  0.0436
  837MOL0     C12882   0.493  11.059   6.366 -0.9487  0.2520 -0.0251
  837MOL0     C12883   0.356  10.992   6.361  0.7218 -0.7005  0.1725
  837MOL0     O12884   0.322  10.912   6.478  0.4283 -0.6828  0.4676
  837MOL0     C12885   0.214  10.837   6.486 -0.0483  0.9501 -0.2559
  837MOL0     C12886   0.089  10.879   6.443 -0.2392 -0.7483 -0.2784
  837MOL0     C12887  -0.028  10.808   6.461  0.0781  0.1507 -0.8898
  837MOL0     C12888  -0.158  10.858   6.401 -0.0152 -0.4209 -0.3492
  837MOL0     C12889  -0.025  10.678   6.517  0.6726 -0.6602  0.2649
  837MOL0     C12890  -0.136  10.579   6.546  1.3121  0.0672  0.6114
  837MOL0     O12891  -0.129  10.470   6.630  0.3370 -0.2423 -0.0829
  837MOL0     C12892  -0.243  10.417   6.690  0.5652  0.9633 -0.3858
  837MOL0     C12893  -0.232  10.283   6.722  1.2813  0.5666 -0.3082
  837MOL0     C12894  -0.345  10.219   6.785 -0.7192  0.4417 -0.0976
  837MOL0     C12895  -0.460  10.282   6.823  0.9129  0.7754  0.3096
  837MOL0     O12896  -0.569  10.218   6.880 -0.0568 -1.4354 -0.7684
  837MOL0     C12897  -0.644  10.156   6.782  0.3020 -0.2969  0.4549
  837MOL0     C12898  -0.793  10.122   6.812 -0.4889 -0.1491  0.3425
  837MOL0     C12899  -0.887  10.245   6.804 -0.0597 -0.6575  0.3099
  837MOL0     C12900  -1.041  10.228   6.842  0.6311 -0.0955 -0.8103
  837MOL0     C12901  -1.133  10.353   6.832  0.0100  0.1433  0.2974
  837MOL0     C12902  -1.278  10.331   6.875  0.2830 -0.5336 -0.7439
  837MOL0     C12903  -1.302  10.344   7.030 -0.6150  1.0533  1.0401
  837MOL0     C12904  -1.453  10.337   7.052 -0.4484 -0.1616 -0.4482
  837MOL0    Cl12905  -1.531  10.178   7.091  0.0522 -0.2666  0.1654
  837MOL0     C12906  -0.462  10.426   6.798  0.2721  0.0998  0.7201
  837MOL0     C12907  -0.351  10.485   6.737  0.8301 -0.4450 -0.1679
  837MOL0     O12908  -0.235  10.594   6.473 -0.3919  0.5129 -0.2744
  837MOL0     C12909   0.096  10.642   6.574  0.0925 -0.8249  0.7785
  837MOL0     C12910   0.219  10.712   6.557  0.4954 -0.5485  0.8839
  837MOL0     N12911   0.891  10.962   6.623 -1.3169 -0.2980  0.9109
  837MOL0     N12912   0.970  10.857   6.631  0.1501 -0.4084 -0.3897
  837MOL0     C12913   1.996  10.496   5.762 -0.9432  0.3454  0.2355
  837MOL0     C12914   2.130  10.508   5.713 -1.1946  0.2639  0.3318
  837MOL0     C12915   2.606  10.575   5.785 -0.3354  0.2732 -0.1057
  837MOL0     C12916   2.704  10.585   5.878 -0.2986  0.1612  0.6451
  837MOL0     C12917   2.837  10.563   5.843 -0.0461  0.5095 -1.1154
  837MOL0     C12918   2.868  10.546   5.709  0.5337  0.2630  0.3818
  837MOL0     O12919   2.998  10.541   5.660 -1.0047 -0.2074  0.1339
  837MOL0     C12920   3.077  10.655   5.703  0.3730  0.3046 -0.7996
  837MOL0     C12921   3.217  10.642   5.661  1.1194  0.3997  0.2892
  837MOL0     C12922   3.307  10.766   5.688  0.4192 -0.3250 -0.6831
  837MOL0     C12923   3.446  10.751   5.612 -0.2358 -0.0884 -1.2740
  837MOL0     C12924   3.437  10.784   5.469  0.6786 -0.1067  0.0309
  837MOL0     C12925   3.398  10.807   5.353  0.6004  0.3785  0.1597
  837MOL0     C12926   2.765  10.525   5.613 -0.2451  0.1745  0.1905
  837MOL0     C12927   2.635  10.549   5.651  0.1963 -0.5117 -0.0278
  837MOL0     H12928   2.291  10.496   6.016 -1.6897 -2.2328  2.9648
  837MOL0     H12929   2.070  10.458   6.097  1.3499 -1.9067  0.2159
  837MOL0     H12930   1.840  10.383   6.145 -1.9950  0.0515  3.0576
  837MOL0     H12931   1.848  10.565   6.097  0.7791 -0.4150 -1.6993
  837MOL0     H12932   1.598  10.519   6.034 -1.0608  0.4961  0.5491
  837MOL0     H12933   1.613  10.367   6.108 -0.2852 -0.1368 -4.0911
  837MOL0     H12934   1.684  10.526   6.314  0.6450 -1.0700 -1.8043
  837MOL0     H12935   1.626  10.655   6.211  0.7646 -0.2242  2.8968
  837MOL0     H12936   1.418  10.515   6.183  0.9839  1.1426 -0.3929
  837MOL0     H12937   1.466  10.409   6.318  0.0839 -0.1389  0.2395
  837MOL0     H12938   1.473  10.645   6.448  2.7726  0.7201 -1.8099
  837MOL0     H12939   1.398  10.713   6.303 -0.1083  1.6186  2.1960
  837MOL0     H12940   1.219  10.517   6.331 -1.4837 -0.1160  1.6305
  837MOL0     H12941   1.281  10.494   6.487  3.0343 -1.1253 -1.9445
  837MOL0     H12942   1.249  10.739   6.543 -0.5034 -1.5453  1.3386
  837MOL0     H12943   1.182  10.758   6.377 -1.6283 -1.2516 -0.6245
  837MOL0     H12944   1.064  10.622   6.609  1.7431 -0.0059 -0.0782
  837MOL0     H12945   1.006  10.601   6.438 -3.6419 -0.2342  3.3168
  837MOL0     H12946   0.896  10.852   6.319 -0.5733  0.9930 -1.3759
  837MOL0     H12947   0.710  11.133   6.515  1.0521 -0.4865  1.4630
  837MOL0     H12948   0.743  11.089   6.347 -1.4086 -2.4207 -1.1589
  837MOL0     H12949   0.552  10.948   6.537 -0.4562  2.1729  0.9448
  837MOL0     H12950   0.627  10.878   6.399 -0.1569 -0.4142  1.4571
  837MOL0     H12951   0.528  11.075   6.264 -0.1435 -2.4541 -0.2609
  837MOL0     H12952   0.478  11.156   6.415 -2.3698 -0.6391  1.4451
  837MOL0     H12953   0.341  10.929   6.273  2.3267 -1.5662  0.4798
  837MOL0     H12954   0.283  11.072   6.346  1.7765  0.1122 -0.7212
  837MOL0     H12955   0.081  10.974   6.390  3.5762 -0.3367 -0.3397
  837MOL0     H12956  -0.201  10.785   6.332  1.4872 -2.5744  0.8705
  837MOL0     H12957  -0.237  10.874   6.475  1.2197 -1.3255  1.2189
  837MOL0     H12958  -0.131  10.947   6.343 -2.3785 -0.2876 -1.3418
  837MOL0     H12959  -0.138  10.232   6.706  0.9727 -1.0754  2.4561
  837MOL0     H12960  -0.336  10.114   6.811 -1.4128  0.0623 -1.3143
  837MOL0     H12961  -0.639  10.200   6.683  3.3327 -0.9033  0.2536
  837MOL0     H12962  -0.591  10.061   6.772  0.6921 -0.6239  4.0207
  837MOL0     H12963  -0.834  10.051   6.739 -2.1878 -0.0469  1.1481
  837MOL0     H12964  -0.802  10.061   6.902  0.5423  0.1812  0.6893
  837MOL0     H12965  -0.882  10.283   6.702  0.4488  0.5975  0.7656
  837MOL0     H12966  -0.843  10.321   6.870 -1.3115  0.7597 -0.4135
  837MOL0     H12967  -1.083  10.148   6.780 -2.5446 -1.7263  3.0315
  837MOL0     H12968  -1.042  10.180   6.941  0.7079 -0.0627 -0.7932
  837MOL0     H12969  -1.135  10.377   6.725  1.7007  3.5892  0.9153
  837MOL0     H12970  -1.085  10.444   6.869 -0.6353  2.0901 -3.2009
  837MOL0     H12971  -1.336  10.408   6.824  0.2676 -0.2472 -0.2942
  837MOL0     H12972  -1.308  10.231   6.842  4.0903 -1.3501 -2.3253
  837MOL0     H12973  -1.263  10.441   7.062 -0.1699  0.8442  1.1348
  837MOL0     H12974  -1.252  10.261   7.081 -1.1138 -0.2758 -0.5669
  837MOL0     H12975  -1.508  10.374   6.965  0.0080  0.9692 -0.2703
  837MOL0     H12976  -1.475  10.397   7.141  0.6718  0.3272 -0.4859
  837MOL0     H12977  -0.549  10.486   6.823 -0.7671  1.1067 -4.1927
  837MOL0     H12978  -0.358  10.590   6.710 -3.2056 -0.5232 -0.0340
  837MOL0     H12979   0.103  10.543   6.619  0.6953 -1.1145  0.0710
  837MOL0     H12980   0.310  10.676   6.604  2.0571 -0.7247 -2.0019
  837MOL0     H12981   1.905  10.484   5.703 -0.8199 -2.2365  0.4515
  837MOL0     H12982   2.140  10.508   5.605 -4.0182 -1.4586 -0.0436
  837MOL0     H12983   2.672  10.612   5.978 -4.1313 -1.1845 -0.0716
  837MOL0     H12984   2.912  10.566   5.921 -3.7773  2.1994  2.8401
  837MOL0     H12985   3.029  10.743   5.660 -0.3161 -0.2364 -1.1712
  837MOL0     H12986   3.073  10.659   5.812  1.6727 -1.3582 -0.6501
  837MOL0     H12987   3.222  10.633   5.552 -0.0874  2.0326  0.0556
  837MOL0     H12988   3.259  10.556   5.715  1.6253 -0.0418 -0.7738
  837MOL0     H12989   3.304  10.776   5.797  1.8402 -1.4483 -0.5175
  837MOL0     H12990   3.263  10.859   5.651 -1.4657 -0.5294  0.8493
  837MOL0     H12991   3.487  10.650   5.621 -4.0087 -1.6110  1.6695
  837MOL0     H12992   3.522  10.820   5.650 -0.2287  0.6571 -2.6058
  837MOL0     H12993   3.390  10.815   5.246  2.3176 -1.1519 -0.1402
  837MOL0     H12994   2.791  10.511   5.508 -0.3739  2.3957 -0.1913
  837MOL0     H12995   2.566  10.557   5.567  0.8504  3.5064 -0.4021
  838MOL0     O12996   3.642  11.274  10.322  0.2861 -0.2785 -0.2837
  838MOL0     C12997   3.706  11.380  10.308 -0.3415 -0.4673  0.7481
  838MOL0     O12998   3.667  11.506  10.366  0.4168 -0.3935  0.8133
  838MOL0     C12999   3.553  11.509  10.438  0.8133  0.2091  0.3639
  838MOL0     C13000   3.426  11.510  10.378 -0.5057 -1.2543 -0.2240
  838MOL0     C13001   3.308  11.512  10.452 -0.3635  0.8391 -0.1572
  838MOL0     C13002   3.313  11.532  10.594 -0.0126  0.8048 -0.5765
  838MOL0     O13003   3.195  11.540  10.657  0.7162 -0.1888 -0.2438
  838MOL0     C13004   3.180  11.607  10.778  0.4346  0.3001 -0.0381
  838MOL0     C13005   3.049  11.681  10.802  0.9779 -0.0800  0.4540
  838MOL0     C13006   2.920  11.596  10.801 -1.0553  0.2893 -0.5701
  838MOL0     C13007   2.846  11.601  10.663  0.5271  0.5865 -0.3700
  838MOL0     C13008   2.704  11.533  10.675  0.3434 -0.2250 -0.5336
  838MOL0     C13009   2.594  11.623  10.625  0.2630 -0.1545 -0.2843
  838MOL0     C13010   2.459  11.559  10.645 -0.0493 -0.2008  0.9047
  838MOL0     C13011   2.356  11.666  10.632 -0.5739 -0.4065 -0.4106
  838MOL0     N13012   2.213  11.629  10.647 -0.1096 -0.7470 -0.4781
  838MOL0     C13013   2.137  11.561  10.554  0.0087 -0.0950  0.5663
  838MOL0     C13014   2.019  11.549  10.619  0.3698  0.2698 -0.1570
  838MOL0     C13015   1.894  11.479  10.556 -0.1174 -0.5446 -0.1155
  838MOL0     C13016   1.835  11.372  10.654  0.5463  0.3705 -0.7757
  838MOL0     C13017   1.699  11.322  10.625  0.1087  0.5941  0.3612
  838MOL0     C13018   1.637  11.266  10.753 -0.6234 -1.0649 -0.2104
  838MOL0     O13019   1.497  11.234  10.736 -0.5323 -0.7136  0.8606
  838MOL0     C13020   1.416  11.245  10.842 -0.7843 -0.5305 -0.3459
  838MOL0     C13021   1.449  11.273  10.977  0.8058  0.3829  0.3606
  838MOL0     C13022   1.352  11.277  11.081  0.0607 -0.9465  0.3923
  838MOL0     C13023   1.400  11.310  11.225 -0.3367  0.2986 -0.1659
  838MOL0     C13024   1.215  11.288  11.034  0.5295  0.6055  0.1477
  838MOL0     C13025   1.096  11.283  11.126 -0.4121 -0.6956 -0.0947
  838MOL0     O13026   0.970  11.244  11.077 -0.1403  0.2455 -0.4001
  838MOL0     C13027   0.883  11.208  11.179 -0.3341  0.0513  0.1301
  838MOL0     C13028   0.799  11.296  11.245 -1.1758  0.0777  0.3804
  838MOL0     C13029   0.717  11.259  11.353  0.3081  0.0616  0.3116
  838MOL0     C13030   0.711  11.117  11.387 -0.0236  0.2794 -1.1169
  838MOL0     O13031   0.642  11.068  11.497  0.5863  0.0862  0.1715
  838MOL0     C13032   0.518  11.120  11.538  0.7285  0.2884 -1.4035
  838MOL0     C13033   0.452  11.005  11.621  0.1016  0.4113  0.1309
  838MOL0     C13034   0.315  11.057  11.670 -0.1147  0.0944  0.5648
  838MOL0     C13035   0.205  11.089  11.563 -0.1383  0.4330 -0.1876
  838MOL0     C13036   0.074  11.132  11.626  0.3151 -0.4284  0.0930
  838MOL0     C13037  -0.013  11.015  11.679 -0.5049  0.3446  0.0850
  838MOL0     C13038  -0.148  11.071  11.716  0.0393 -0.5011  0.4155
  838MOL0     C13039  -0.243  10.967  11.785 -0.1061 -0.6848 -0.7297
  838MOL0    Cl13040  -0.293  10.836  11.680 -0.0334  0.2359  0.3766
  838MOL0     C13041   0.790  11.023  11.316  0.2200  1.1252 -0.6020
  838MOL0     C13042   0.874  11.067  11.208  0.8714  0.4089  0.4333
  838MOL0     O13043   1.116  11.345  11.230 -0.3099 -0.5394  0.4352
  838MOL0     C13044   1.195  11.299  10.897 -0.1539  0.0428 -0.3248
  838MOL0     C13045   1.295  11.258  10.806  0.8469  0.1939 -0.6124
  838MOL0     N13046   2.022  11.615  10.746  1.0797 -1.3772  0.6118
  838MOL0     N13047   2.140  11.673  10.751 -0.7628  0.5497  0.6465
  838MOL0     C13048   3.439  11.528  10.652  0.4668 -0.6813 -0.1218
  838MOL0     C13049   3.559  11.527  10.574  0.4480 -0.4106  0.0356
  838MOL0     C13050   3.816  11.391  10.217 -0.4724  0.2672 -0.4228
  838MOL0     C13051   3.827  11.291  10.114 -0.1884 -0.2366 -0.4478
  838MOL0     C13052   3.944  11.306  10.033  0.5330  0.8613  0.7746
  838MOL0     C13053   4.030  11.416  10.036 -0.5302 -0.2062 -0.1143
  838MOL0     O13054   4.135  11.415   9.943 -0.5586 -0.3662 -0.0074
  838MOL0     C13055   4.113  11.487   9.821  0.1422 -0.1027  0.7408
  838MOL0     C13056   4.203  11.611   9.814  0.0697  0.3964  0.6045
  838MOL0     C13057   4.351  11.566   9.834 -0.9186  0.8924  0.2129
  838MOL0     C13058   4.449  11.676   9.817  0.2748 -0.0278  0.8821
  838MOL0     C13059   4.437  11.794   9.908  0.8443  0.2396 -1.2591
  838MOL0     C13060   4.432  11.892   9.974 -0.2038  0.5713  0.3252
  838MOL0     C13061   4.020  11.506  10.136  0.0402 -0.2981  0.5237
  838MOL0     C13062   3.917  11.489  10.227  0.3798 -0.1721 -0.2870
  838MOL0     H13063   3.425  11.507  10.269 -0.1592  1.8855 -0.4077
  838MOL0     H13064   3.217  11.512  10.393 -2.2893  3.0266  2.5127
  838MOL0     H13065   3.195  11.537  10.862  0.1849  2.3034  1.7563
  838MOL0     H13066   3.258  11.684  10.775 -1.5653  2.5183  1.5333
  838MOL0     H13067   3.057  11.729  10.900 -2.2247 -1.6711  1.6262
  838MOL0     H13068   3.038  11.755  10.723  1.5169  0.0274  0.4745
  838MOL0     H13069   2.946  11.490  10.807 -1.5042  0.0139 -2.6237
  838MOL0     H13070   2.851  11.627  10.879 -0.1535  2.9231 -0.7114
  838MOL0     H13071   2.828  11.703  10.629 -2.4629 -0.3127 -1.8292
  838MOL0     H13072   2.910  11.547  10.593  0.7340 -0.1935  0.4054
  838MOL0     H13073   2.690  11.452  10.603 -0.6799  0.4116 -1.0716
  838MOL0     H13074   2.676  11.502  10.776  0.9523  0.2516 -0.2079
  838MOL0     H13075   2.600  11.725  10.664  1.2221  0.0080 -0.8229
  838MOL0     H13076   2.606  11.644  10.518 -1.5028 -1.9130 -0.8980
  838MOL0     H13077   2.457  11.482  10.568  2.7698 -0.0844  0.6096
  838MOL0     H13078   2.448  11.523  10.748  0.4729 -1.9043  0.3884
  838MOL0     H13079   2.372  11.721  10.538 -0.1804 -0.3672 -0.3254
  838MOL0     H13080   2.375  11.745  10.705 -1.0917  0.0165 -0.7262
  838MOL0     H13081   2.160  11.517  10.457 -2.4726  2.8787 -1.5542
  838MOL0     H13082   1.815  11.552  10.537 -1.3783 -1.6010  0.8447
  838MOL0     H13083   1.930  11.433  10.464  3.9466  1.4187  0.2553
  838MOL0     H13084   1.838  11.416  10.755 -0.5050  1.4184 -1.1754
  838MOL0     H13085   1.899  11.284  10.659 -0.4315 -0.3876 -1.2065
  838MOL0     H13086   1.699  11.239  10.554 -0.5009  0.7744  0.1464
  838MOL0     H13087   1.638  11.403  10.585  0.5404  1.5516  1.5602
  838MOL0     H13088   1.658  11.334  10.836  1.7960  0.4084 -1.9055
  838MOL0     H13089   1.681  11.167  10.767  3.0725  0.4405 -0.0455
  838MOL0     H13090   1.553  11.281  11.006  1.3013  1.9862 -1.6591
  838MOL0     H13091   1.369  11.409  11.258 -1.1111 -0.1681  0.5434
  838MOL0     H13092   1.356  11.233  11.289 -1.5588 -0.4267 -1.8239
  838MOL0     H13093   1.507  11.297  11.247 -0.0844 -1.3528 -2.0624
  838MOL0     H13094   0.804  11.402  11.221 -0.6492 -0.0109  0.0682
  838MOL0     H13095   0.652  11.337  11.389  1.2519  0.8022  0.4492
  838MOL0     H13096   0.526  11.201  11.612 -4.7168  0.2572 -0.3085
  838MOL0     H13097   0.454  11.152  11.456 -0.0908  2.1634 -0.1112
  838MOL0     H13098   0.453  10.911  11.564  1.9155 -0.1975  1.0538
  838MOL0     H13099   0.515  10.983  11.708  1.9585 -0.2205 -1.2869
  838MOL0     H13100   0.314  11.143  11.737  0.6558 -0.0000  0.7116
  838MOL0     H13101   0.269  10.972  11.722 -3.4885  1.0132 -0.6546
  838MOL0     H13102   0.248  11.173  11.507 -1.1342 -0.6060 -2.6289
  838MOL0     H13103   0.195  11.003  11.497 -1.3733  0.9271 -0.6823
  838MOL0     H13104   0.016  11.182  11.547  0.6606  1.6408  1.0898
  838MOL0     H13105   0.088  11.201  11.709 -0.5738 -0.6623  0.4573
  838MOL0     H13106  -0.015  10.926  11.616  1.2975  1.3495 -1.5128
  838MOL0     H13107   0.033  10.975  11.769 -1.1186  0.6791  0.5525
  838MOL0     H13108  -0.194  11.106  11.623 -2.7410 -1.6253  1.2420
  838MOL0     H13109  -0.137  11.160  11.780  1.0108 -0.3614  0.0726
  838MOL0     H13110  -0.336  11.017  11.813  0.8057  0.4017  0.4679
  838MOL0     H13111  -0.193  10.934  11.877 -1.0343 -1.6721 -0.5548
  838MOL0     H13112   0.786  10.916  11.338  1.2162  1.1229 -0.4210
  838MOL0     H13113   0.918  10.991  11.144 -2.0845  0.0431 -1.3427
  838MOL0     H13114   1.094  11.314  10.860  0.5115  1.4097 -1.6957
  838MOL0     H13115   1.258  11.263  10.704 -0.6928  0.0441 -0.0835
  838MOL0     H13116   3.460  11.521  10.759  2.3542  2.1046 -0.2208
  838MOL0     H13117   3.654  11.519  10.626 -1.3635 -0.0666  3.7281
  838MOL0     H13118   3.753  11.213  10.103  0.0046 -0.2698 -1.6535
  838MOL0     H13119   3.966  11.226   9.963 -3.0244  1.0984 -0.8255
  838MOL0     H13120   4.147  11.426   9.736  0.3529 -0.7589  1.2955
  838MOL0     H13121   4.009  11.516   9.802  0.5696  0.3946 -1.0978
  838MOL0     H13122   4.174  11.685   9.889  3.0082 -1.5549  4.0319
  838MOL0     H13123   4.181  11.658   9.718 -0.4281 -0.1587  0.4410
  838MOL0     H13124   4.366  11.476   9.774 -2.2409 -1.1469  2.7339
  838MOL0     H13125   4.375  11.525   9.933 -3.0830 -0.4486  0.2453
  838MOL0     H13126   4.443  11.709   9.713  1.0642 -1.1175  0.4700
  838MOL0     H13127   4.550  11.635   9.813 -0.3285 -1.4562 -0.7189
  838MOL0     H13128   4.415  11.974  10.041  2.6967  0.7565  0.9780
  838MOL0     H13129   4.103  11.574  10.151  0.2846 -0.3454 -0.5678
  838MOL0     H13130   3.930  11.552  10.314 -0.5866  2.4234 -1.9101
  839MOL0     O13131   7.849   5.822  10.230 -0.0465  0.0359  0.1726
  839MOL0     C13132   7.867   5.848  10.351  0.1367  0.1962  0.2910
  839MOL0     O13133   7.765   5.870  10.444 -0.2145  0.4527  0.4742
  839MOL0     C13134   7.624   5.853  10.418 -0.8265  1.0862 -0.0037
  839MOL0     C13135   7.559   5.851  10.533  0.3158  0.7397  0.4661
  839MOL0     C13136   7.424   5.810  10.534  0.2769 -0.3718 -0.8578
  839MOL0     C13137   7.358   5.767  10.420  0.2049  0.5017 -0.2435
  839MOL0     O13138   7.223   5.717  10.417 -0.1671 -0.3940  0.1233
  839MOL0     C13139   7.164   5.644  10.530 -0.5874  0.8435 -0.2600
  839MOL0     C13140   7.093   5.727  10.640 -0.7849  0.2771  1.0571
  839MOL0     C13141   6.969   5.813  10.583  1.1219  0.6379  1.2913
  839MOL0     C13142   6.862   5.714  10.544 -1.0592  0.4126  0.0841
  839MOL0     C13143   6.718   5.761  10.529  0.2144 -0.0892 -0.9226
  839MOL0     C13144   6.670   5.828  10.658 -0.1533 -0.5707  0.0188
  839MOL0     C13145   6.512   5.833  10.650 -0.5331  0.0850  0.4643
  839MOL0     C13146   6.454   5.925  10.532 -0.4030  0.2791  0.1484
  839MOL0     N13147   6.483   6.063  10.560 -0.3518 -0.2897  1.2070
  839MOL0     C13148   6.602   6.127  10.542 -0.2172 -0.6670 -0.0460
  839MOL0     C13149   6.595   6.250  10.602  0.5793 -0.1740  0.1313
  839MOL0     C13150   6.693   6.360  10.605  1.3071  0.4883 -0.9069
  839MOL0     C13151   6.806   6.332  10.707 -0.7073 -0.9011 -0.3644
  839MOL0     C13152   6.759   6.296  10.850 -0.4877  0.0519  0.3970
  839MOL0     C13153   6.864   6.300  10.954  0.1486 -0.3816 -0.6181
  839MOL0     O13154   6.992   6.233  10.916 -0.3197  0.4196  1.1414
  839MOL0     C13155   7.105   6.233  10.991  0.2868 -0.0292 -1.1261
  839MOL0     C13156   7.211   6.148  10.971  0.0945  0.8408  0.0951
  839MOL0     C13157   7.331   6.136  11.054  1.0970 -0.5912  1.7263
  839MOL0     C13158   7.430   6.024  11.006 -0.5417 -0.1158 -0.8121
  839MOL0     C13159   7.338   6.218  11.176 -0.6935 -0.0526  0.5174
  839MOL0     C13160   7.459   6.225  11.265 -0.2259 -0.1730 -0.1475
  839MOL0     O13161   7.568   6.138  11.240 -0.4273  0.2911  0.3343
  839MOL0     C13162   7.694   6.198  11.258 -0.2887 -0.0891 -0.7852
  839MOL0     C13163   7.744   6.298  11.172 -0.1045  0.2017  0.0308
  839MOL0     C13164   7.872   6.357  11.195  0.8983 -0.5610  0.0403
  839MOL0     C13165   7.960   6.309  11.295  0.1329 -0.5085  0.8198
  839MOL0     O13166   8.083   6.365  11.312 -0.2539 -0.0370  0.1836
  839MOL0     C13167   8.166   6.316  11.414 -0.4137 -0.2346  1.1525
  839MOL0     C13168   8.300   6.398  11.420 -0.4805  0.2014  0.0667
  839MOL0     C13169   8.375   6.360  11.549  0.0809 -0.0901  0.7024
  839MOL0     C13170   8.490   6.467  11.576  0.4277 -0.2524  0.1880
  839MOL0     C13171   8.602   6.416  11.664 -0.1218 -0.2808  0.3186
  839MOL0     C13172   8.717   6.516  11.669  1.5983 -0.7016  0.7499
  839MOL0     C13173   8.781   6.505  11.797  0.2036 -0.0358  0.2558
  839MOL0     C13174   8.916   6.552  11.798 -0.9694 -0.1161  0.3601
  839MOL0    Cl13175   9.003   6.517  11.951 -0.4388  0.0368 -0.2059
  839MOL0     C13176   7.901   6.208  11.375  0.1922 -0.3829 -0.1466
  839MOL0     C13177   7.774   6.154  11.362  0.3055  0.1364 -0.3034
  839MOL0     O13178   7.457   6.297  11.366 -0.0312 -0.8309 -0.0768
  839MOL0     C13179   7.227   6.303  11.198 -0.5701  0.3765  0.3804
  839MOL0     C13180   7.114   6.305  11.110  0.4429 -0.3950 -0.2432
  839MOL0     N13181   6.463   6.263  10.647  0.5356 -0.5883  0.4958
  839MOL0     N13182   6.401   6.150  10.623 -0.4981 -1.3829 -0.1778
  839MOL0     C13183   7.411   5.785  10.296 -0.9556  0.1009  0.2704
  839MOL0     C13184   7.549   5.833  10.298  0.3838  0.4327 -0.0922
  839MOL0     C13185   8.013   5.859  10.398  0.8731 -0.3519  0.8109
  839MOL0     C13186   8.029   5.925  10.521 -0.5453 -0.8928 -1.0639
  839MOL0     C13187   8.161   5.923  10.577 -0.0527  0.0602 -0.4159
  839MOL0     C13188   8.261   5.842  10.511  0.0695  0.1445  0.4724
  839MOL0     O13189   8.388   5.821  10.549  0.4180 -0.9115  0.3534
  839MOL0     C13190   8.447   5.939  10.613 -0.4685  0.2488 -0.1741
  839MOL0     C13191   8.598   5.954  10.597  0.3677 -0.6053 -0.4156
  839MOL0     C13192   8.675   5.823  10.616  0.0930  1.0854 -0.5719
  839MOL0     C13193   8.754   5.756  10.502 -0.5661  0.6283  0.0604
  839MOL0     C13194   8.651   5.703  10.412  0.4746 -0.3055 -0.8556
  839MOL0     C13195   8.565   5.657  10.341 -0.3432  0.5887 -0.2273
  839MOL0     C13196   8.237   5.764  10.396  0.4438 -0.2559  0.7008
  839MOL0     C13197   8.109   5.773  10.335  0.1720  0.1916 -0.1905
  839MOL0     H13198   7.606   5.885  10.624  2.2412 -0.7495  0.0861
  839MOL0     H13199   7.371   5.817  10.629  0.2827 -0.2956 -0.8606
  839MOL0     H13200   7.107   5.561  10.487  0.7639 -0.2660 -0.0097
  839MOL0     H13201   7.249   5.598  10.582 -0.8495  1.4560  0.7492
  839MOL0     H13202   7.064   5.665  10.725  0.9751  0.9049  2.1880
  839MOL0     H13203   7.157   5.808  10.678  0.9908 -1.8500  2.8715
  839MOL0     H13204   6.930   5.885  10.655  0.4981 -1.2875  2.9686
  839MOL0     H13205   7.009   5.869  10.497 -0.9139  0.0503 -0.1150
  839MOL0     H13206   6.888   5.669  10.447  1.1512  0.2004  0.7213
  839MOL0     H13207   6.868   5.626  10.608  1.0310 -0.8345 -1.6828
  839MOL0     H13208   6.695   5.824  10.443 -0.5655  2.5847  1.0968
  839MOL0     H13209   6.675   5.662  10.510  0.2133 -0.0231 -1.2586
  839MOL0     H13210   6.713   5.784  10.748  3.0319  2.9610  0.4743
  839MOL0     H13211   6.714   5.928  10.661  0.8774 -1.0059  0.0957
  839MOL0     H13212   6.473   5.732  10.646  0.8724 -0.5918  2.2115
  839MOL0     H13213   6.461   5.869  10.740 -1.6139 -1.1856  0.3797
  839MOL0     H13214   6.344   5.922  10.523 -0.3321  1.3872 -1.7050
  839MOL0     H13215   6.492   5.890  10.435 -1.4739 -2.5069  0.6384
  839MOL0     H13216   6.693   6.082  10.503  0.4639 -1.3973  2.2460
  839MOL0     H13217   6.732   6.366  10.503 -0.0669  1.1364 -1.4209
  839MOL0     H13218   6.638   6.449  10.637 -1.9805 -1.7306  0.1897
  839MOL0     H13219   6.870   6.419  10.725 -1.6476 -0.4587  1.0116
  839MOL0     H13220   6.859   6.248  10.662 -0.5536 -0.2595 -1.4274
  839MOL0     H13221   6.703   6.202  10.855  0.0922 -0.2693  0.9911
  839MOL0     H13222   6.678   6.365  10.874 -2.9816 -2.7529  0.6907
  839MOL0     H13223   6.831   6.256  11.048 -0.4374  2.6930  0.7486
  839MOL0     H13224   6.879   6.406  10.979 -1.2440  0.1908 -2.0006
  839MOL0     H13225   7.217   6.084  10.883  3.9524  1.8070 -0.5635
  839MOL0     H13226   7.390   5.952  10.934 -1.3702 -1.6306  1.0703
  839MOL0     H13227   7.521   6.069  10.968 -0.9311 -1.5572 -3.7024
  839MOL0     H13228   7.455   5.964  11.094 -3.0865 -0.7798 -0.4411
  839MOL0     H13229   7.684   6.316  11.083 -0.5914 -2.5216 -0.2634
  839MOL0     H13230   7.905   6.431  11.123  1.7177 -0.1109  0.8581
  839MOL0     H13231   8.125   6.327  11.515  1.2639 -1.5235  2.0218
  839MOL0     H13232   8.186   6.211  11.390 -1.7167 -0.2741  0.1449
  839MOL0     H13233   8.367   6.389  11.334  0.8711 -0.0862  1.1282
  839MOL0     H13234   8.283   6.506  11.427  1.3400  0.4143  1.8767
  839MOL0     H13235   8.417   6.259  11.544 -0.9231 -0.5625  1.4886
  839MOL0     H13236   8.309   6.362  11.636  0.9476 -0.6392  1.3902
  839MOL0     H13237   8.540   6.497  11.483 -0.8596  2.2206  0.2249
  839MOL0     H13238   8.451   6.562  11.611 -1.1779 -1.4581  1.8372
  839MOL0     H13239   8.641   6.323  11.622 -0.1873  0.2365 -0.9293
  839MOL0     H13240   8.556   6.398  11.762 -1.3937 -2.8298 -0.6469
  839MOL0     H13241   8.781   6.519  11.580  0.8173  1.8565  0.1823
  839MOL0     H13242   8.678   6.618  11.662 -2.3705 -2.1353 -0.6776
  839MOL0     H13243   8.785   6.398  11.820 -0.3359 -0.4826 -1.5715
  839MOL0     H13244   8.715   6.554  11.868 -2.2110 -1.0645 -1.1496
  839MOL0     H13245   8.930   6.660  11.784  3.7636 -0.3684  1.2660
  839MOL0     H13246   8.972   6.505  11.716 -1.6999 -2.1549  0.9707
  839MOL0     H13247   7.968   6.159  11.445  0.1943  0.3031  0.3414
  839MOL0     H13248   7.729   6.089  11.436  1.3345  0.6919  0.8453
  839MOL0     H13249   7.231   6.369  11.284 -1.4987 -2.3672  2.7078
  839MOL0     H13250   7.033   6.366  11.146  1.0953  0.2522  0.1682
  839MOL0     H13251   7.371   5.733  10.209 -0.0096 -1.7303  0.8743
  839MOL0     H13252   7.591   5.828  10.198 -1.5329 -0.4334 -0.9122
  839MOL0     H13253   7.955   5.981  10.578  0.1374 -2.1864  1.1714
  839MOL0     H13254   8.188   5.971  10.670  0.3609 -1.1216  0.1060
  839MOL0     H13255   8.401   6.032  10.580 -0.1952  0.4027 -0.1266
  839MOL0     H13256   8.418   5.950  10.718 -0.5945  1.9109 -0.3587
  839MOL0     H13257   8.628   6.034  10.665 -1.6961  1.9930 -2.3779
  839MOL0     H13258   8.612   5.981  10.492  0.6883 -3.6778 -1.2618
  839MOL0     H13259   8.604   5.748  10.652 -1.4015  2.9975  0.6206
  839MOL0     H13260   8.748   5.831  10.698 -1.4906  1.6716  0.8405
  839MOL0     H13261   8.810   5.674  10.550 -0.3236 -0.6847 -2.2844
  839MOL0     H13262   8.824   5.829  10.461 -0.7753  1.2515  0.7875
  839MOL0     H13263   8.496   5.612  10.271  0.3266  1.0903 -1.2240
  839MOL0     H13264   8.310   5.707  10.339  2.7259  2.4080  0.7653
  839MOL0     H13265   8.081   5.717  10.247  0.7309  0.4173 -0.5192
  840MOL0     O13266  10.935   7.662   3.966  0.7068 -0.0755  0.5115
  840MOL0     C13267  11.010   7.602   3.892  0.1797  0.6728 -0.1840
  840MOL0     O13268  10.980   7.559   3.770  0.3606 -0.3764 -0.1799
  840MOL0     C13269  10.877   7.611   3.696 -0.4949  0.8649 -0.8877
  840MOL0     C13270  10.742   7.593   3.727  0.8051 -0.5156  0.3719
  840MOL0     C13271  10.638   7.640   3.644  0.9981  0.9339 -0.0519
  840MOL0     C13272  10.669   7.698   3.520  0.0229  0.0627  1.0114
  840MOL0     O13273  10.574   7.737   3.435 -0.4687 -0.0196 -0.2257
  840MOL0     C13274  10.463   7.644   3.422 -0.3122  0.2675 -0.9811
  840MOL0     C13275  10.372   7.709   3.322 -0.5383  0.2562  0.5929
  840MOL0     C13276  10.233   7.657   3.345 -0.2294  0.7060  0.5131
  840MOL0     C13277  10.115   7.751   3.294  0.4766 -0.0031  0.3806
  840MOL0     C13278  10.119   7.794   3.152 -0.2999  0.6123 -0.3929
  840MOL0     C13279  10.007   7.895   3.105  0.3295 -0.4323 -0.7281
  840MOL0     C13280   9.871   7.830   3.073 -0.2315  0.0348  0.0063
  840MOL0     C13281   9.766   7.931   3.031  0.0162  0.3042 -0.6091
  840MOL0     N13282   9.657   7.876   2.948 -0.7829 -0.2970  0.2863
  840MOL0     C13283   9.532   7.869   2.990  0.9884  0.6626 -0.8828
  840MOL0     C13284   9.458   7.817   2.894 -0.0854 -0.0333 -0.0351
  840MOL0     C13285   9.315   7.793   2.912  1.6666 -0.0991 -0.4998
  840MOL0     C13286   9.276   7.674   2.828  0.4875  0.1223  0.3611
  840MOL0     C13287   9.120   7.665   2.835 -0.0427 -0.7418 -0.0287
  840MOL0     C13288   9.032   7.749   2.730 -1.4260  0.1530 -0.2442
  840MOL0     O13289   8.896   7.732   2.767  0.2774 -0.5461  0.0592
  840MOL0     C13290   8.835   7.822   2.851  0.4254  0.5824  0.2957
  840MOL0     C13291   8.884   7.940   2.900 -0.1392 -0.4139  0.4228
  840MOL0     C13292   8.812   8.017   2.989 -0.3234 -0.0208 -0.5185
  840MOL0     C13293   8.885   8.129   3.062 -0.0167 -0.1927 -0.2217
  840MOL0     C13294   8.677   7.985   3.008  1.0914 -0.8428 -0.8003
  840MOL0     C13295   8.583   8.072   3.085 -1.0394  0.1792 -0.1358
  840MOL0     O13296   8.451   8.055   3.068 -0.1844 -0.4269  0.3695
  840MOL0     C13297   8.363   8.119   3.155 -0.5722  0.2885 -0.6648
  840MOL0     C13298   8.230   8.147   3.107  0.7378  0.0300  0.4574
  840MOL0     C13299   8.130   8.194   3.192  0.6262  0.6226 -0.1709
  840MOL0     C13300   8.155   8.211   3.332  0.2663 -0.5019 -0.3634
  840MOL0     O13301   8.049   8.251   3.409 -0.5610 -0.2400  0.4760
  840MOL0     C13302   8.072   8.243   3.551 -0.3375  0.5019 -0.1235
  840MOL0     C13303   7.944   8.279   3.631  0.1795  0.7617 -1.2087
  840MOL0     C13304   7.829   8.188   3.601 -1.4661 -0.5821 -0.2760
  840MOL0     C13305   7.714   8.214   3.698 -0.2651 -0.0060  0.1018
  840MOL0     C13306   7.591   8.138   3.640 -0.3055 -0.0691  0.6328
  840MOL0     C13307   7.461   8.182   3.717  0.4338  0.8808  0.8802
  840MOL0     C13308   7.322   8.139   3.680 -0.2613  0.1739  0.4142
  840MOL0     C13309   7.272   8.168   3.542 -0.1138 -1.4094  1.3372
  840MOL0    Cl13310   7.229   8.338   3.543 -0.0099  0.1551  0.4615
  840MOL0     C13311   8.295   8.196   3.381  0.2044  1.1458 -0.1349
  840MOL0     C13312   8.388   8.139   3.296 -0.0873 -0.2728  0.8966
  840MOL0     O13313   8.632   8.163   3.149 -0.5578 -0.0305 -0.0754
  840MOL0     C13314   8.626   7.872   2.945  0.1944 -0.2835 -0.4855
  840MOL0     C13315   8.708   7.778   2.885 -0.0968 -0.1011  0.7444
  840MOL0     N13316   9.534   7.804   2.787  0.1816 -0.6122  0.0517
  840MOL0     N13317   9.657   7.829   2.818 -0.0898  0.0003 -0.2876
  840MOL0     C13318  10.803   7.711   3.481  0.6940  0.7537  0.3653
  840MOL0     C13319  10.898   7.669   3.569  0.0202 -0.4946  0.6989
  840MOL0     C13320  11.134   7.545   3.956  0.4675 -0.9354  0.5612
  840MOL0     C13321  11.161   7.559   4.092  1.0913  0.4434 -0.2577
  840MOL0     C13322  11.276   7.518   4.159 -0.7926 -0.0064 -0.3288
  840MOL0     C13323  11.370   7.448   4.080  0.2702  0.1841  0.7131
  840MOL0     O13324  11.471   7.383   4.144  1.0832 -0.3959  0.6910
  840MOL0     C13325  11.529   7.270   4.086 -0.8444  0.4940 -0.8423
  840MOL0     C13326  11.631   7.192   4.176 -0.4809 -0.0127  0.4697
  840MOL0     C13327  11.738   7.284   4.219 -0.2423  0.0096 -0.7621
  840MOL0     C13328  11.861   7.199   4.254 -0.5558 -0.3438 -0.9595
  840MOL0     C13329  11.876   7.142   4.386  0.4644  0.9356 -0.3843
  840MOL0     C13330  11.885   7.094   4.498 -1.0587 -0.2005 -0.4362
  840MOL0     C13331  11.345   7.434   3.944 -0.1397  0.8782  0.0789
  840MOL0     C13332  11.237   7.493   3.878 -1.1154  0.7196 -0.3298
  840MOL0     H13333  10.708   7.544   3.818  2.6957  0.1700  1.5264
  840MOL0     H13334  10.534   7.628   3.673  1.0647 -2.6822 -0.8199
  840MOL0     H13335  10.486   7.538   3.408 -1.3784  0.0155 -0.9119
  840MOL0     H13336  10.401   7.650   3.511 -1.4681 -1.5346 -1.5922
  840MOL0     H13337  10.366   7.814   3.352 -0.7713  0.3121  0.3525
  840MOL0     H13338  10.416   7.693   3.223  0.1785 -3.3844  1.3357
  840MOL0     H13339  10.223   7.557   3.302  1.1304  0.0315  1.6931
  840MOL0     H13340  10.207   7.647   3.450 -3.3191  0.9059 -0.1417
  840MOL0     H13341  10.026   7.688   3.303 -2.1653  3.3885 -0.0767
  840MOL0     H13342  10.114   7.844   3.351  2.3656 -0.2099  0.8189
  840MOL0     H13343  10.219   7.835   3.137  1.5376 -0.4128  5.8841
  840MOL0     H13344  10.103   7.704   3.093  0.1127 -2.0900  3.2858
  840MOL0     H13345  10.001   7.974   3.181 -0.2033  1.6211 -2.7804
  840MOL0     H13346  10.043   7.947   3.015  3.1319 -1.2312 -0.1554
  840MOL0     H13347   9.875   7.761   2.988 -0.8667 -0.5330  0.4252
  840MOL0     H13348   9.832   7.778   3.161 -1.4376  1.5745  0.4193
  840MOL0     H13349   9.823   8.012   2.984 -0.2076 -0.1033 -1.6067
  840MOL0     H13350   9.721   7.982   3.117  1.6725  3.9263 -1.6757
  840MOL0     H13351   9.494   7.903   3.085 -0.3101  1.3861 -1.6314
  840MOL0     H13352   9.291   7.775   3.017  2.0309 -0.0506 -0.4065
  840MOL0     H13353   9.264   7.886   2.886  1.0704 -0.7597 -1.8252
  840MOL0     H13354   9.314   7.582   2.873 -0.5036 -0.6955 -0.4503
  840MOL0     H13355   9.309   7.689   2.725 -2.7288 -1.5483 -1.0474
  840MOL0     H13356   9.094   7.688   2.939  1.3131  2.2169 -0.2669
  840MOL0     H13357   9.111   7.559   2.807  1.3534 -1.1172  0.8353
  840MOL0     H13358   9.065   7.721   2.630 -0.0114  1.5573 -0.2141
  840MOL0     H13359   9.070   7.852   2.739 -0.2841 -0.1893 -0.9277
  840MOL0     H13360   8.985   7.963   2.868 -0.6413  1.3474 -0.0015
  840MOL0     H13361   8.905   8.110   3.168 -0.0931 -2.1862 -0.5393
  840MOL0     H13362   8.981   8.154   3.015  1.0799  1.3028  2.5691
  840MOL0     H13363   8.829   8.222   3.052  3.5137  2.4423  1.9193
  840MOL0     H13364   8.199   8.124   3.006  0.2078  1.4880  0.2623
  840MOL0     H13365   8.034   8.227   3.151 -0.9083 -2.7184  0.4045
  840MOL0     H13366   8.111   8.145   3.580  0.7298  0.9467 -0.0229
  840MOL0     H13367   8.149   8.315   3.578 -0.6942  0.0152  2.3707
  840MOL0     H13368   7.972   8.262   3.736  1.5132  1.1275 -1.4857
  840MOL0     H13369   7.923   8.386   3.618  1.5944  0.8590 -3.1703
  840MOL0     H13370   7.857   8.083   3.616 -0.4056 -0.0553  1.8513
  840MOL0     H13371   7.789   8.212   3.502 -0.8187 -0.6253 -0.5541
  840MOL0     H13372   7.729   8.176   3.799 -0.5411  0.1715  0.2101
  840MOL0     H13373   7.696   8.321   3.713  1.7379  0.2384  1.0546
  840MOL0     H13374   7.604   8.031   3.657 -0.9688  0.0776  2.2063
  840MOL0     H13375   7.582   8.150   3.532  0.3585 -3.9092  0.0164
  840MOL0     H13376   7.474   8.144   3.819 -4.1713  1.2739  1.8282
  840MOL0     H13377   7.464   8.291   3.725 -2.2818  1.4900 -3.1847
  840MOL0     H13378   7.261   8.180   3.762 -1.8601 -1.0703 -0.1070
  840MOL0     H13379   7.312   8.030   3.687  2.3675 -0.1153  0.5257
  840MOL0     H13380   7.185   8.110   3.510 -0.0793 -0.5395 -0.4612
  840MOL0     H13381   7.347   8.145   3.467 -0.2697  0.0800  0.6777
  840MOL0     H13382   8.312   8.216   3.486  1.3525 -3.9775  0.9323
  840MOL0     H13383   8.481   8.094   3.329  1.1801 -2.5942 -4.7079
  840MOL0     H13384   8.519   7.857   2.942  0.1639  0.1088 -2.4171
  840MOL0     H13385   8.663   7.686   2.849 -3.7693  1.4760  0.8020
  840MOL0     H13386  10.834   7.745   3.382  1.2035 -0.4610  0.0852
  840MOL0     H13387  10.999   7.685   3.533  0.1391 -3.9760 -0.9513
  840MOL0     H13388  11.078   7.598   4.150  1.4233  1.7065 -0.6067
  840MOL0     H13389  11.270   7.538   4.265 -0.5101  3.0291 -0.7712
  840MOL0     H13390  11.449   7.197   4.069 -2.0351  0.7323  2.9461
  840MOL0     H13391  11.587   7.293   3.996  0.4980 -1.0208 -0.4204
  840MOL0     H13392  11.672   7.108   4.119 -0.3172 -1.7114  2.9021
  840MOL0     H13393  11.572   7.147   4.257 -0.2895 -0.1692  0.5215
  840MOL0     H13394  11.704   7.346   4.302 -3.0638 -0.8882 -1.1410
  840MOL0     H13395  11.770   7.348   4.137  1.3265  3.4844  2.2809
  840MOL0     H13396  11.952   7.257   4.233 -0.3692 -0.0439  0.5821
  840MOL0     H13397  11.867   7.107   4.195  2.1761 -1.4982  0.9296
  840MOL0     H13398  11.902   7.053   4.595  1.6717 -1.3580 -1.3140
  840MOL0     H13399  11.415   7.372   3.889  0.4199  1.6027 -0.0378
  840MOL0     H13400  11.238   7.487   3.770  0.4382 -3.6741 -0.2637
  841MOL0     O13401   1.479   9.547  10.143  0.0270  0.2291 -0.0910
  841MOL0     C13402   1.445   9.608  10.045  0.3678 -0.5021 -0.2679
  841MOL0     O13403   1.535   9.690   9.978  0.1377  0.0967  0.0219
  841MOL0     C13404   1.668   9.676  10.010  0.2788  0.7488  0.0450
  841MOL0     C13405   1.719   9.739  10.130 -1.1155  0.3860  0.5316
  841MOL0     C13406   1.855   9.731  10.159 -0.5365  0.6026 -0.3657
  841MOL0     C13407   1.940   9.662  10.078 -0.8552 -0.5939  0.2549
  841MOL0     O13408   2.074   9.649  10.094  0.1250 -0.4208 -0.1323
  841MOL0     C13409   2.123   9.692  10.226  0.4027 -0.5122 -0.2008
  841MOL0     C13410   2.263   9.624  10.242 -0.0221  0.2732  0.0503
  841MOL0     C13411   2.385   9.701  10.181  0.4817  0.2734  0.6497
  841MOL0     C13412   2.522   9.619  10.228 -0.4852  0.0965 -0.3537
  841MOL0     C13413   2.647   9.624  10.142  0.5618 -0.8437  0.9684
  841MOL0     C13414   2.689   9.761  10.103 -0.4229  0.8913 -0.2020
  841MOL0     C13415   2.822   9.763  10.022  0.1032  0.3691 -0.1722
  841MOL0     C13416   2.835   9.659   9.916 -0.0562  0.7576  0.0273
  841MOL0     N13417   2.941   9.707   9.825  0.3474  0.1501  1.2859
  841MOL0     C13418   2.952   9.655   9.701 -1.2436  0.5699  0.1109
  841MOL0     C13419   3.071   9.705   9.657  0.0257  0.4295 -0.3465
  841MOL0     C13420   3.128   9.664   9.528 -0.4462 -0.4254 -0.6666
  841MOL0     C13421   3.036   9.691   9.410 -0.6046 -0.0130 -0.3693
  841MOL0     C13422   2.988   9.843   9.401  0.5659  0.1592 -0.4362
  841MOL0     C13423   2.892   9.855   9.272 -0.1725  0.4295  0.4236
  841MOL0     O13424   2.816   9.977   9.256 -0.4234 -0.3435 -0.2140
  841MOL0     C13425   2.883  10.091   9.241  0.6310 -0.5519  0.1390
  841MOL0     C13426   3.011  10.103   9.183  0.0282 -0.2194 -0.5396
  841MOL0     C13427   3.069  10.230   9.150  0.0978 -0.6495 -0.3744
  841MOL0     C13428   3.205  10.221   9.086  0.2784 -0.1674 -0.0876
  841MOL0     C13429   2.999  10.351   9.188 -0.5560 -0.6226  0.2404
  841MOL0     C13430   3.054  10.492   9.172  0.1471  0.3640  0.2100
  841MOL0     O13431   3.005  10.581   9.263 -0.7390  0.5454 -0.5602
  841MOL0     C13432   3.085  10.692   9.272 -0.5146  0.2470 -0.5015
  841MOL0     C13433   3.032  10.816   9.264 -0.2789 -0.6090  0.8497
  841MOL0     C13434   3.115  10.935   9.270 -0.3471 -0.9527 -0.3944
  841MOL0     C13435   3.248  10.921   9.294  0.2343  0.1639 -0.0458
  841MOL0     O13436   3.326  11.038   9.301  0.3227  0.5419  0.3495
  841MOL0     C13437   3.446  11.031   9.225  0.6017 -0.4448  0.4984
  841MOL0     C13438   3.433  10.993   9.079 -0.1289  0.9667  0.1973
  841MOL0     C13439   3.353  11.096   8.998  0.4040 -0.3769 -0.8481
  841MOL0     C13440   3.369  11.087   8.847  0.7555 -0.6289  0.6529
  841MOL0     C13441   3.346  10.953   8.772  0.4147  0.8362 -0.0341
  841MOL0     C13442   3.190  10.919   8.758 -0.6979  1.1454  0.3189
  841MOL0     C13443   3.146  10.830   8.875 -0.3461 -0.1023  0.0356
  841MOL0     C13444   3.004  10.833   8.918  0.6366  0.1305  1.2318
  841MOL0    Cl13445   2.885  10.833   8.784  0.0218 -0.0065  0.4031
  841MOL0     C13446   3.304  10.794   9.327  0.9224 -0.5525  0.4715
  841MOL0     C13447   3.216  10.688   9.323  0.7337 -0.4133  0.5159
  841MOL0     O13448   3.148  10.515   9.093 -0.4738 -0.2676  0.0552
  841MOL0     C13449   2.869  10.336   9.235  0.6121  0.4958 -0.3838
  841MOL0     C13450   2.810  10.209   9.258  0.5888 -0.4086  0.1460
  841MOL0     N13451   3.136   9.780   9.755  0.0173 -0.0003  0.6734
  841MOL0     N13452   3.055   9.785   9.854  0.8974  0.3706  0.4532
  841MOL0     C13453   1.885   9.603   9.958 -0.9404 -0.5946 -1.0677
  841MOL0     C13454   1.757   9.607   9.929  1.0914 -0.3969 -0.2715
  841MOL0     C13455   1.308   9.614  10.008 -0.6394 -0.1088  0.3236
  841MOL0     C13456   1.213   9.525  10.056  0.0947  0.5758 -0.4246
  841MOL0     C13457   1.083   9.522  10.007 -0.9515  0.3095  0.6862
  841MOL0     C13458   1.040   9.615   9.909 -0.3010  0.3532 -0.7720
  841MOL0     O13459   0.914   9.622   9.867 -0.3656 -0.2793 -0.1749
  841MOL0     C13460   0.823   9.531   9.921 -0.9906  0.7212 -0.3516
  841MOL0     C13461   0.691   9.546   9.845  0.2792 -0.8711  0.5407
  841MOL0     C13462   0.644   9.684   9.845 -0.7003 -1.1224 -0.0529
  841MOL0     C13463   0.513   9.687   9.756 -0.1719 -0.0981  0.1024
  841MOL0     C13464   0.383   9.657   9.819 -0.2193  1.2226 -0.5868
  841MOL0     C13465   0.270   9.657   9.860  0.5851 -0.8109  0.3820
  841MOL0     C13466   1.131   9.708   9.866  0.2436  0.0323 -0.1342
  841MOL0     C13467   1.264   9.718   9.916  0.3909 -0.2236 -0.4923
  841MOL0     H13468   1.643   9.783  10.194 -3.3120 -3.2244  0.7164
  841MOL0     H13469   1.879   9.779  10.254 -0.5449  3.3338 -1.6318
  841MOL0     H13470   2.137   9.801  10.222  0.5818 -0.5189  0.3176
  841MOL0     H13471   2.070   9.656  10.314  0.1911  1.1959  0.4158
  841MOL0     H13472   2.290   9.612  10.348 -0.5932 -1.1580  0.0532
  841MOL0     H13473   2.247   9.520  10.214 -0.1961  0.6870 -1.4891
  841MOL0     H13474   2.365   9.674  10.077  1.4306 -0.3904  0.6235
  841MOL0     H13475   2.386   9.808  10.201 -0.9925  0.5799 -0.7409
  841MOL0     H13476   2.553   9.659  10.324  1.2496 -1.8292 -0.0606
  841MOL0     H13477   2.492   9.519  10.258 -3.9219  1.5629  1.7669
  841MOL0     H13478   2.731   9.579  10.196  3.8863  4.3402  0.8332
  841MOL0     H13479   2.619   9.573  10.049 -1.0458  2.8497 -0.7886
  841MOL0     H13480   2.607   9.797  10.040 -0.5995 -0.9436 -1.0963
  841MOL0     H13481   2.696   9.818  10.196 -0.1186 -0.8540  0.8905
  841MOL0     H13482   2.837   9.865   9.985  1.5844  0.8675  1.6744
  841MOL0     H13483   2.906   9.730  10.084  0.4600  1.2954 -0.1476
  841MOL0     H13484   2.739   9.652   9.865 -0.6424  1.7964  0.9432
  841MOL0     H13485   2.859   9.563   9.962 -0.7748  0.4802 -0.1531
  841MOL0     H13486   2.885   9.584   9.654 -0.5321 -1.1286  1.5828
  841MOL0     H13487   3.220   9.717   9.501 -0.0979 -1.9058 -2.5995
  841MOL0     H13488   3.159   9.559   9.531 -3.7735 -1.6240 -2.8023
  841MOL0     H13489   2.947   9.627   9.416 -2.6018  2.1777 -3.4337
  841MOL0     H13490   3.096   9.666   9.322 -1.4145 -2.5425 -0.3074
  841MOL0     H13491   3.064   9.922   9.397 -0.1873  0.8566 -2.8632
  841MOL0     H13492   2.925   9.870   9.487  3.1328  0.8008  1.3551
  841MOL0     H13493   2.822   9.772   9.280 -1.7582  1.6233 -0.5903
  841MOL0     H13494   2.951   9.849   9.179 -1.0747  0.4132 -0.1554
  841MOL0     H13495   3.066  10.013   9.156  0.1252 -1.4195  3.1417
  841MOL0     H13496   3.202  10.277   8.992 -2.2661  0.4305  0.2654
  841MOL0     H13497   3.276  10.283   9.141 -0.4784  2.3623 -1.7831
  841MOL0     H13498   3.232  10.119   9.057 -2.2500 -0.5400 -1.4324
  841MOL0     H13499   2.925  10.809   9.246 -0.1523  0.9403 -0.9241
  841MOL0     H13500   3.069  11.032   9.250 -2.6758 -1.4069  2.2135
  841MOL0     H13501   3.490  11.130   9.243  0.1330 -0.2682  0.6986
  841MOL0     H13502   3.516  10.959   9.268  1.6716 -1.1552 -2.2290
  841MOL0     H13503   3.536  11.008   9.044 -0.1307  0.6524  0.0603
  841MOL0     H13504   3.402  10.891   9.057 -1.0812  1.2718  0.1157
  841MOL0     H13505   3.390  11.191   9.039 -0.7568 -1.3602  2.7937
  841MOL0     H13506   3.247  11.092   9.023  1.3591 -0.1084  4.2925
  841MOL0     H13507   3.301  11.162   8.805 -0.4599 -0.2438  3.1519
  841MOL0     H13508   3.473  11.117   8.829  1.4407 -2.3674  1.5069
  841MOL0     H13509   3.406  10.876   8.820  0.1075  0.6324  0.0295
  841MOL0     H13510   3.385  10.967   8.671  2.4004  0.8464  0.6864
  841MOL0     H13511   3.128  11.010   8.754 -2.5330 -0.0953 -1.1541
  841MOL0     H13512   3.165  10.860   8.669  3.8042  0.9979 -1.1028
  841MOL0     H13513   3.194  10.854   8.970 -1.4038 -0.5483  0.6965
  841MOL0     H13514   3.171  10.725   8.856  0.0269 -0.1547  0.8103
  841MOL0     H13515   2.974  10.925   8.968 -0.1287  1.1795 -1.0037
  841MOL0     H13516   2.985  10.751   8.988 -1.6825 -0.8090 -0.3963
  841MOL0     H13517   3.410  10.783   9.348  0.3588 -3.9568  2.2002
  841MOL0     H13518   3.264  10.601   9.367  2.4467  0.7501  1.0597
  841MOL0     H13519   2.808  10.422   9.259  0.7483  0.3031  0.7401
  841MOL0     H13520   2.702  10.199   9.270  0.4972 -0.1996 -0.4459
  841MOL0     H13521   1.954   9.563   9.884 -0.4599 -0.2536 -0.8105
  841MOL0     H13522   1.721   9.555   9.841  0.0706 -1.4360  0.7270
  841MOL0     H13523   1.253   9.460  10.133  1.2035  1.2810 -0.3726
  841MOL0     H13524   1.015   9.445  10.041  0.4145 -1.5456 -0.6120
  841MOL0     H13525   0.863   9.430   9.914  0.5054  0.8437  3.7082
  841MOL0     H13526   0.799   9.551  10.026  0.7266  1.5302 -0.0767
  841MOL0     H13527   0.618   9.483   9.896  0.7399 -2.8365 -1.0615
  841MOL0     H13528   0.698   9.506   9.743 -2.5329 -1.3139  0.4460
  841MOL0     H13529   0.720   9.748   9.800 -0.1227 -0.8399  1.2643
  841MOL0     H13530   0.609   9.720   9.943 -1.4432  1.6623 -1.2494
  841MOL0     H13531   0.527   9.647   9.655  1.9812  1.9864 -0.4973
  841MOL0     H13532   0.496   9.793   9.733 -3.5578 -0.3886  0.7295
  841MOL0     H13533   0.169   9.659   9.897 -0.2736  1.0132 -1.8057
  841MOL0     H13534   1.102   9.781   9.791 -1.0314 -0.9229 -0.5939
  841MOL0     H13535   1.330   9.802   9.894 -1.3699  1.6089  0.8526
  842MOL0     O13536  11.237   8.451   7.190  0.1248  0.1005 -0.4449
  842MOL0     C13537  11.281   8.336   7.193  0.2309  0.5701  0.2122
  842MOL0     O13538  11.206   8.220   7.172  0.4603 -0.4381 -0.0212
  842MOL0     C13539  11.082   8.236   7.126 -0.3828  0.4597 -0.7192
  842MOL0     C13540  11.052   8.253   6.988 -0.1021 -0.4506  0.3647
  842MOL0     C13541  10.920   8.272   6.956  0.1164 -0.6975  0.8558
  842MOL0     C13542  10.815   8.246   7.040 -0.6869 -0.3720 -0.0160
  842MOL0     O13543  10.696   8.271   6.987 -0.5094 -0.3394 -0.6529
  842MOL0     C13544  10.589   8.227   7.065 -0.1714 -0.3193  0.2229
  842MOL0     C13545  10.471   8.238   6.982 -0.6400 -0.5004  0.3243
  842MOL0     C13546  10.351   8.155   7.032  0.3663  0.7991  0.3117
  842MOL0     C13547  10.320   8.180   7.178  0.7599 -0.1924 -0.6823
  842MOL0     C13548  10.184   8.127   7.236  0.3392  0.2694 -0.0721
  842MOL0     C13549  10.208   7.981   7.279 -1.0106  0.7065  0.0021
  842MOL0     C13550  10.068   7.915   7.300 -0.6077  1.7290 -1.0874
  842MOL0     C13551  10.067   7.759   7.309 -0.0631  0.7146 -0.8518
  842MOL0     N13552   9.931   7.717   7.345  0.3183  0.1529 -0.4181
  842MOL0     C13553   9.828   7.711   7.259  0.1763  1.1574  0.9642
  842MOL0     C13554   9.712   7.703   7.318  0.5343  0.2127  0.4083
  842MOL0     C13555   9.574   7.691   7.263  0.6513 -0.6753  0.4324
  842MOL0     C13556   9.504   7.564   7.285 -0.4075 -0.3009 -0.4979
  842MOL0     C13557   9.584   7.451   7.223  0.2036  0.1020  0.0367
  842MOL0     C13558   9.511   7.319   7.249 -0.8444  0.2954 -0.2609
  842MOL0     O13559   9.390   7.308   7.167  0.1773  0.0976 -0.6067
  842MOL0     C13560   9.303   7.202   7.186  0.1230 -0.1128 -0.0592
  842MOL0     C13561   9.169   7.208   7.140  0.1776  0.3491  0.3337
  842MOL0     C13562   9.077   7.099   7.151 -0.5949  0.0405  0.8188
  842MOL0     C13563   8.946   7.123   7.077  0.2702  0.2154  0.4123
  842MOL0     C13564   9.116   6.985   7.226 -0.2798 -0.3532  0.2634
  842MOL0     C13565   9.034   6.854   7.229 -0.5235 -0.2301 -0.1961
  842MOL0     O13566   8.904   6.856   7.173  0.1870 -0.1801 -0.2814
  842MOL0     C13567   8.825   6.752   7.210  0.9883  0.1328  0.4312
  842MOL0     C13568   8.849   6.628   7.157  0.6516 -0.5410 -0.2973
  842MOL0     C13569   8.766   6.520   7.199  0.3494  0.2406  0.0968
  842MOL0     C13570   8.671   6.537   7.308 -0.3311  0.2348  0.4761
  842MOL0     O13571   8.590   6.433   7.355 -0.8651 -0.3576 -0.2097
  842MOL0     C13572   8.650   6.304   7.353  0.6464 -0.1309 -0.7641
  842MOL0     C13573   8.588   6.202   7.448  0.1196  0.0105  0.8533
  842MOL0     C13574   8.434   6.189   7.445 -0.0900  0.0533 -1.4051
  842MOL0     C13575   8.389   6.088   7.341  1.1295  0.2141  0.4525
  842MOL0     C13576   8.235   6.033   7.368  0.7179 -0.7468  0.2603
  842MOL0     C13577   8.134   6.138   7.318 -0.1827 -0.5372 -1.1736
  842MOL0     C13578   8.000   6.066   7.299  0.1985 -0.5693  0.4531
  842MOL0     C13579   7.897   6.169   7.265 -0.0454 -0.6011 -0.1629
  842MOL0    Cl13580   7.738   6.097   7.249 -0.1292  0.1449 -0.1699
  842MOL0     C13581   8.661   6.662   7.366 -0.6112 -0.7106 -0.3371
  842MOL0     C13582   8.734   6.770   7.316 -0.2175  0.0574 -0.2673
  842MOL0     O13583   9.081   6.751   7.282 -0.3181 -0.2015  0.3501
  842MOL0     C13584   9.238   6.993   7.288  0.5620  0.8966  0.1599
  842MOL0     C13585   9.327   7.096   7.271 -0.9695  1.2746 -0.6597
  842MOL0     N13586   9.740   7.704   7.450 -0.2516 -0.0943 -0.9482
  842MOL0     N13587   9.874   7.710   7.465  0.2840  0.2672  0.3907
  842MOL0     C13588  10.846   8.198   7.166 -0.7321  0.3242  0.0814
  842MOL0     C13589  10.977   8.197   7.206  0.2886  0.8142  0.4354
  842MOL0     C13590  11.434   8.311   7.203 -0.0952 -0.2800 -0.4005
  842MOL0     C13591  11.516   8.403   7.258  0.7244 -0.3304 -0.2939
  842MOL0     C13592  11.652   8.380   7.286  0.4738  0.3384 -0.1720
  842MOL0     C13593  11.706   8.258   7.268  0.0314  0.2050  0.5802
  842MOL0     O13594  11.834   8.235   7.306  0.0452 -0.2283  0.0995
  842MOL0     C13595  11.886   8.103   7.328  0.9258  1.1891 -0.3616
  842MOL0     C13596  12.006   8.098   7.420  0.1208  0.0674  0.1493
  842MOL0     C13597  11.964   8.108   7.570  0.1555  0.1879 -0.5807
  842MOL0     C13598  12.094   8.092   7.657  0.4610  0.2121 -0.1376
  842MOL0     C13599  12.174   8.212   7.631 -0.3952 -0.3228 -0.0864
  842MOL0     C13600  12.235   8.309   7.596  0.8158  0.0275  0.3190
  842MOL0     C13601  11.622   8.159   7.204 -0.5271 -0.2446 -0.3613
  842MOL0     C13602  11.490   8.188   7.171 -0.0252 -0.1515  0.0472
  842MOL0     H13603  11.131   8.268   6.915  0.2443 -0.3192  0.7616
  842MOL0     H13604  10.892   8.296   6.853  2.7943 -0.7919  0.0297
  842MOL0     H13605  10.609   8.127   7.104  1.3149 -0.1595 -0.0586
  842MOL0     H13606  10.583   8.295   7.150  0.9541 -3.1851  2.7622
  842MOL0     H13607  10.443   8.344   6.978  1.0121 -0.0674 -0.3841
  842MOL0     H13608  10.489   8.199   6.882  2.2290  1.4173 -0.0033
  842MOL0     H13609  10.261   8.176   6.974 -0.7308 -5.4107 -0.9998
  842MOL0     H13610  10.370   8.049   7.011  1.9001  1.2836 -0.9741
  842MOL0     H13611  10.404   8.139   7.234  0.4291 -1.7656 -1.2996
  842MOL0     H13612  10.322   8.290   7.185  0.1976 -0.1901 -0.4950
  842MOL0     H13613  10.153   8.188   7.321 -0.8428 -0.0786 -0.2369
  842MOL0     H13614  10.110   8.128   7.155 -0.7706 -1.4918  0.8840
  842MOL0     H13615  10.268   7.925   7.207  0.5112  2.1379  0.0981
  842MOL0     H13616  10.267   7.982   7.371 -1.2147 -1.7219  0.2401
  842MOL0     H13617  10.037   7.953   7.398  0.5945 -0.7548  0.3693
  842MOL0     H13618   9.990   7.947   7.231 -2.0281 -1.7751 -1.3182
  842MOL0     H13619  10.135   7.720   7.385  0.8200  1.9759 -0.9757
  842MOL0     H13620  10.103   7.705   7.221  0.1233 -1.2858  0.3613
  842MOL0     H13621   9.834   7.711   7.150 -1.0820  1.6892  0.8829
  842MOL0     H13622   9.513   7.773   7.303  1.0551  0.0857 -0.4708
  842MOL0     H13623   9.582   7.705   7.155 -2.1781 -0.0721  0.2434
  842MOL0     H13624   9.401   7.577   7.249  0.6830  0.4685 -3.7165
  842MOL0     H13625   9.508   7.544   7.392 -0.0786 -3.1568 -0.9741
  842MOL0     H13626   9.689   7.443   7.253  0.5644  0.5013 -1.0793
  842MOL0     H13627   9.586   7.477   7.116 -1.5287  0.8295  0.1391
  842MOL0     H13628   9.483   7.314   7.355  1.7245 -1.0715  0.4269
  842MOL0     H13629   9.576   7.234   7.225  0.1324  1.7286 -3.1116
  842MOL0     H13630   9.154   7.300   7.085  2.0662  1.1891  1.1450
  842MOL0     H13631   8.861   7.125   7.146  0.1738  2.7916  0.3014
  842MOL0     H13632   8.946   7.217   7.023 -0.2455 -0.2477 -0.4135
  842MOL0     H13633   8.934   7.039   7.008  0.2816 -0.9146  1.7309
  842MOL0     H13634   8.938   6.608   7.099  0.9146  0.4653 -0.2733
  842MOL0     H13635   8.778   6.420   7.158 -2.2585 -0.3288  0.5610
  842MOL0     H13636   8.641   6.275   7.248  1.5680 -0.5731 -0.7338
  842MOL0     H13637   8.751   6.323   7.388  0.2860 -1.7541  1.4110
  842MOL0     H13638   8.632   6.103   7.431  2.7151  1.5538 -2.6584
  842MOL0     H13639   8.632   6.235   7.543  1.2894  0.0168  0.3259
  842MOL0     H13640   8.383   6.283   7.424 -0.4670  0.6779  1.7762
  842MOL0     H13641   8.399   6.172   7.548  1.9560  0.8828 -0.5214
  842MOL0     H13642   8.388   6.123   7.237 -0.1872 -1.7780 -0.2561
  842MOL0     H13643   8.460   6.005   7.348  0.1224 -0.8435 -1.1146
  842MOL0     H13644   8.223   6.014   7.475  0.2509 -2.5334 -0.0702
  842MOL0     H13645   8.224   5.938   7.315  1.7206 -0.4680 -0.4713
  842MOL0     H13646   8.132   6.201   7.407  1.5651  3.1078 -3.4929
  842MOL0     H13647   8.164   6.196   7.230 -1.0708  1.4981 -0.2123
  842MOL0     H13648   7.976   6.034   7.401 -2.8591  1.7426  0.6390
  842MOL0     H13649   8.009   5.985   7.227 -0.0345 -1.8211  1.7804
  842MOL0     H13650   7.927   6.224   7.176 -0.9983  1.6363  0.8280
  842MOL0     H13651   7.894   6.237   7.351  1.7825  1.8370 -1.9122
  842MOL0     H13652   8.594   6.676   7.450  0.5269 -0.0335  0.4912
  842MOL0     H13653   8.724   6.869   7.361  1.7535  0.0036  0.3741
  842MOL0     H13654   9.274   6.907   7.343 -0.7937 -0.0834 -0.4425
  842MOL0     H13655   9.416   7.098   7.333 -0.5483 -3.3356 -0.8180
  842MOL0     H13656  10.762   8.173   7.230 -0.7145  0.1319  0.0277
  842MOL0     H13657  10.996   8.157   7.305  1.2691 -1.0229 -0.4514
  842MOL0     H13658  11.471   8.496   7.291 -1.9612 -2.3264  2.2416
  842MOL0     H13659  11.714   8.454   7.335 -0.9072 -0.1603  2.4653
  842MOL0     H13660  11.803   8.047   7.371 -1.0349  1.9569 -2.8958
  842MOL0     H13661  11.914   8.054   7.234  0.2141  1.2446 -0.6069
  842MOL0     H13662  12.070   8.184   7.398 -0.9995  0.5992 -1.1341
  842MOL0     H13663  12.058   8.006   7.390  0.2889  0.6908 -1.5329
  842MOL0     H13664  11.902   8.022   7.596  1.5498 -1.4544 -2.3815
  842MOL0     H13665  11.908   8.200   7.591  1.9906  0.5781  3.5597
  842MOL0     H13666  12.155   8.005   7.629  2.2367  1.8420 -1.6280
  842MOL0     H13667  12.067   8.098   7.763 -3.3693  2.1019 -1.0462
  842MOL0     H13668  12.293   8.398   7.589  1.3828  0.0014  3.2088
  842MOL0     H13669  11.654   8.057   7.188 -0.4895 -0.1137 -1.2179
  842MOL0     H13670  11.424   8.112   7.132  2.2596 -1.2000 -2.1432
  843MOL0     O13671   5.443   9.374   5.231 -0.4421 -0.4781  0.1790
  843MOL0     C13672   5.504   9.332   5.325  1.2299 -0.1838 -0.2995
  843MOL0     O13673   5.571   9.401   5.422 -0.1835 -0.4954  0.4617
  843MOL0     C13674   5.562   9.540   5.418  0.4575 -0.0746 -0.9626
  843MOL0     C13675   5.683   9.618   5.426  0.4206  0.2731  0.7332
  843MOL0     C13676   5.676   9.757   5.449 -0.2470  0.1680  0.2773
  843MOL0     C13677   5.552   9.823   5.458  0.1263  0.5075  0.2408
  843MOL0     O13678   5.557   9.957   5.465  0.2390 -0.0134 -0.1592
  843MOL0     C13679   5.436  10.031   5.480  1.0602 -0.2040  0.0447
  843MOL0     C13680   5.351  10.063   5.353 -0.3503  0.3820 -0.0405
  843MOL0     C13681   5.231  10.154   5.395 -0.6514  0.5583  0.1220
  843MOL0     C13682   5.160  10.201   5.278 -0.1653 -0.4029 -0.5683
  843MOL0     C13683   5.043  10.279   5.340  0.5907  0.4522 -0.1245
  843MOL0     C13684   4.963  10.344   5.228 -0.2794  0.6036 -0.8455
  843MOL0     C13685   4.921  10.246   5.113  0.0900 -0.4457 -0.8231
  843MOL0     C13686   4.831  10.131   5.161 -0.3398 -0.1233 -0.3332
  843MOL0     N13687   4.734  10.080   5.057 -0.1593 -0.1700 -0.6072
  843MOL0     C13688   4.761  10.022   4.941 -0.4175 -0.7692  0.0404
  843MOL0     C13689   4.639  10.022   4.876  0.4330 -0.5633 -0.3474
  843MOL0     C13690   4.627   9.953   4.746 -0.4023 -0.2157  0.0185
  843MOL0     C13691   4.710  10.015   4.635 -0.7905 -0.5599  0.0942
  843MOL0     C13692   4.655  10.154   4.595  1.0367  0.1043 -0.5454
  843MOL0     C13693   4.747  10.221   4.502 -0.1046  0.4622  0.0688
  843MOL0     O13694   4.879  10.230   4.558  0.3998 -0.0598  0.4277
  843MOL0     C13695   4.914  10.319   4.654  0.2522  0.3183 -0.4133
  843MOL0     C13696   5.040  10.306   4.702  0.1715 -0.2314  0.2530
  843MOL0     C13697   5.099  10.391   4.793  0.6345 -0.5505 -0.9111
  843MOL0     C13698   5.229  10.354   4.854  0.4454 -0.4725  0.5604
  843MOL0     C13699   5.023  10.506   4.834  0.3287  0.2031  0.1746
  843MOL0     C13700   5.072  10.624   4.915 -0.3811  0.6053 -0.8316
  843MOL0     O13701   4.985  10.733   4.914  0.3404 -0.4478  0.4182
  843MOL0     C13702   5.015  10.839   4.998  0.3625 -0.1672  0.3527
  843MOL0     C13703   5.118  10.927   4.955  0.1115 -0.2244  0.5381
  843MOL0     C13704   5.161  11.030   5.033 -0.2994 -0.6161  0.3024
  843MOL0     C13705   5.104  11.061   5.159  0.0342  0.4013  0.9193
  843MOL0     O13706   5.125  11.173   5.237  0.2395  0.0658 -0.2360
  843MOL0     C13707   5.197  11.290   5.191  0.7880 -0.0678  0.8758
  843MOL0     C13708   5.127  11.356   5.071 -0.3709 -0.0730 -1.2488
  843MOL0     C13709   4.978  11.379   5.103 -0.3174  0.1834 -0.9285
  843MOL0     C13710   4.908  11.425   4.978  0.2354  0.4773 -0.1096
  843MOL0     C13711   4.755  11.432   5.015  0.4204 -0.2077  0.9730
  843MOL0     C13712   4.681  11.498   4.897  1.0954 -0.5147  0.0401
  843MOL0     C13713   4.536  11.523   4.928  0.0894 -0.1235 -0.1737
  843MOL0     C13714   4.453  11.397   4.923  0.5676 -0.3599 -0.3431
  843MOL0    Cl13715   4.297  11.440   4.990  0.0191  0.0543  0.7519
  843MOL0     C13716   4.996  10.983   5.202 -0.9960  0.3912 -0.0063
  843MOL0     C13717   4.959  10.876   5.122 -0.1247  0.3186 -0.0770
  843MOL0     O13718   5.190  10.628   4.961  0.2447  0.2411 -0.4275
  843MOL0     C13719   4.892  10.510   4.784 -0.3252  0.0114 -0.0867
  843MOL0     C13720   4.837  10.423   4.695  0.0077 -0.3432  0.1207
  843MOL0     N13721   4.548  10.072   4.961 -1.1711 -0.5341  0.8762
  843MOL0     N13722   4.604  10.118   5.064 -0.6805  0.2734  0.8158
  843MOL0     C13723   5.438   9.746   5.438  0.1932  0.1059  0.0656
  843MOL0     C13724   5.440   9.603   5.424 -0.0455  0.3823 -0.7140
  843MOL0     C13725   5.484   9.189   5.360  0.1896  0.3348  0.6040
  843MOL0     C13726   5.356   9.130   5.325 -0.2684 -0.2778 -0.4424
  843MOL0     C13727   5.325   9.000   5.348  0.1928  0.2647 -0.1949
  843MOL0     C13728   5.425   8.924   5.422  0.6287  0.1001 -0.0604
  843MOL0     O13729   5.392   8.792   5.440  0.8443 -0.0592 -0.8568
  843MOL0     C13730   5.491   8.699   5.428 -0.3766  0.5206  0.4212
  843MOL0     C13731   5.540   8.683   5.288 -0.1431 -0.3920 -0.2371
  843MOL0     C13732   5.610   8.543   5.270 -0.1452 -0.9230 -0.2813
  843MOL0     C13733   5.760   8.568   5.238 -0.1776  0.1021  0.0116
  843MOL0     C13734   5.792   8.641   5.111 -0.0127 -0.0210 -0.4539
  843MOL0     C13735   5.805   8.709   5.011 -0.0700  0.7343 -0.0550
  843MOL0     C13736   5.548   8.981   5.462  0.5718 -1.0828  0.0266
  843MOL0     C13737   5.575   9.110   5.429  0.0103 -0.3087 -1.3432
  843MOL0     H13738   5.773   9.558   5.416  1.5104  1.9354  0.0971
  843MOL0     H13739   5.768   9.810   5.470 -1.1166  1.8555  0.0641
  843MOL0     H13740   5.368   9.991   5.556  0.2180  0.1316 -0.5158
  843MOL0     H13741   5.466  10.127   5.524  0.0773  0.4100 -0.5831
  843MOL0     H13742   5.407  10.114   5.275 -0.5551 -3.7481 -3.2072
  843MOL0     H13743   5.316   9.968   5.313 -0.6290  0.8220 -0.8541
  843MOL0     H13744   5.172  10.093   5.463  0.0777  0.3856  0.6178
  843MOL0     H13745   5.272  10.237   5.452 -0.6764 -0.8378  2.3034
  843MOL0     H13746   5.228  10.261   5.216 -0.7710 -0.2624 -1.1134
  843MOL0     H13747   5.137  10.119   5.209  4.0333 -0.7572 -1.8755
  843MOL0     H13748   4.982  10.200   5.386  0.2821 -0.1942 -1.6091
  843MOL0     H13749   5.066  10.351   5.419 -1.9520 -1.2249  2.3587
  843MOL0     H13750   4.865  10.384   5.254 -0.6034 -0.0103 -1.0754
  843MOL0     H13751   5.029  10.421   5.187  2.5719 -1.0290  0.3475
  843MOL0     H13752   4.865  10.297   5.035 -0.0178  0.5121 -0.1402
  843MOL0     H13753   5.012  10.213   5.062 -0.7532 -2.5567 -1.0671
  843MOL0     H13754   4.779  10.159   5.253  1.6125 -0.3321  0.9201
  843MOL0     H13755   4.903  10.053   5.188 -1.3515 -0.7665  0.6221
  843MOL0     H13756   4.855   9.978   4.908 -1.3899 -0.3236 -3.7753
  843MOL0     H13757   4.658   9.850   4.768 -0.0616 -0.3044 -0.8338
  843MOL0     H13758   4.524   9.940   4.713 -0.8624  3.4462 -0.3290
  843MOL0     H13759   4.712   9.945   4.550  1.1999 -1.8731  1.1682
  843MOL0     H13760   4.814  10.023   4.667 -0.2015  2.1565 -2.1098
  843MOL0     H13761   4.638  10.217   4.683  2.1245  0.5800 -0.6571
  843MOL0     H13762   4.563  10.145   4.536  0.3423 -1.0460  0.6686
  843MOL0     H13763   4.712  10.324   4.493 -0.0609  0.3198 -2.0559
  843MOL0     H13764   4.750  10.183   4.400  0.7263  0.9424 -0.1006
  843MOL0     H13765   5.092  10.215   4.672 -3.3504 -1.9667 -1.0927
  843MOL0     H13766   5.296  10.426   4.806 -3.1769  1.2761 -2.3568
  843MOL0     H13767   5.213  10.353   4.962  0.9977  3.0014  0.7905
  843MOL0     H13768   5.260  10.257   4.815  0.1764 -0.5763  0.6002
  843MOL0     H13769   5.184  10.907   4.871  3.0978 -0.2550  2.7595
  843MOL0     H13770   5.243  11.095   5.005 -0.3906  0.4347  2.2500
  843MOL0     H13771   5.193  11.369   5.266 -1.2536  3.0472 -2.2450
  843MOL0     H13772   5.301  11.258   5.173  0.5363  0.3407 -1.6630
  843MOL0     H13773   5.178  11.451   5.047 -0.1225  0.6410  1.6709
  843MOL0     H13774   5.119  11.287   4.988  0.6702  0.4431 -1.8045
  843MOL0     H13775   4.958  11.457   5.177 -0.7565  1.8940 -2.7699
  843MOL0     H13776   4.926  11.290   5.141 -1.2682  0.2842 -1.9425
  843MOL0     H13777   4.940  11.520   4.933  0.8046 -0.0648 -0.8636
  843MOL0     H13778   4.912  11.345   4.904  1.1289  0.0448  0.4054
  843MOL0     H13779   4.752  11.502   5.099 -0.3907 -0.7402  1.3997
  843MOL0     H13780   4.715  11.334   5.042 -1.1616 -0.5818 -2.2032
  843MOL0     H13781   4.718  11.596   4.866 -2.0920  0.6690 -0.4093
  843MOL0     H13782   4.693  11.431   4.811  0.0403 -2.1533  1.1198
  843MOL0     H13783   4.493  11.594   4.857 -4.1912 -1.1098  1.1536
  843MOL0     H13784   4.521  11.568   5.027 -0.2699  0.8508 -0.6616
  843MOL0     H13785   4.490  11.312   4.982  4.4067  0.9153 -0.6328
  843MOL0     H13786   4.437  11.371   4.818 -3.2936  4.3468 -1.2191
  843MOL0     H13787   4.941  10.994   5.295 -3.4396 -1.6198 -1.0998
  843MOL0     H13788   4.870  10.824   5.155  1.0879 -2.1868 -0.4823
  843MOL0     H13789   4.827  10.594   4.809 -2.6188 -0.9804 -2.2380
  843MOL0     H13790   4.742  10.459   4.658 -0.3507  1.1566  2.2842
  843MOL0     H13791   5.335   9.782   5.436 -0.2608 -1.1270  0.4601
  843MOL0     H13792   5.347   9.548   5.411  0.7289 -0.9138 -0.8680
  843MOL0     H13793   5.287   9.192   5.268  0.1874 -0.5490 -1.2997
  843MOL0     H13794   5.240   8.945   5.309 -0.8795  1.8189 -0.1464
  843MOL0     H13795   5.574   8.724   5.494 -1.1105  3.2463  0.4131
  843MOL0     H13796   5.445   8.602   5.448 -1.7132  0.9663 -0.3314
  843MOL0     H13797   5.611   8.765   5.275  0.0462 -0.6564 -0.9298
  843MOL0     H13798   5.458   8.693   5.217 -1.3361  1.3552  1.2853
  843MOL0     H13799   5.568   8.505   5.177 -0.7563 -0.0292 -0.3855
  843MOL0     H13800   5.602   8.474   5.355  0.4995  0.6442  1.1138
  843MOL0     H13801   5.826   8.482   5.252 -0.5324  0.0911  1.8590
  843MOL0     H13802   5.797   8.636   5.316  0.8153  0.8500 -1.0726
  843MOL0     H13803   5.810   8.775   4.927 -4.0272  0.3935 -0.7394
  843MOL0     H13804   5.624   8.928   5.519  2.6458  0.7011 -0.9273
  843MOL0     H13805   5.669   9.148   5.466 -0.2394 -0.8921 -0.0406
  844MOL0     O13806   9.887   4.771   7.894 -0.0690  0.1471  0.1929
  844MOL0     C13807   9.866   4.783   7.772 -0.0045  0.6633 -0.2126
  844MOL0     O13808   9.784   4.701   7.698  0.2660 -0.3786  0.3328
  844MOL0     C13809   9.687   4.618   7.757 -0.1954 -0.2447 -0.2402
  844MOL0     C13810   9.561   4.645   7.715 -0.4027 -0.1643 -0.1837
  844MOL0     C13811   9.449   4.586   7.776  0.0869  0.3507 -0.6889
  844MOL0     C13812   9.472   4.503   7.889  0.2175  0.3765  0.7034
  844MOL0     O13813   9.367   4.441   7.942 -0.0210  0.0361  0.2969
  844MOL0     C13814   9.302   4.528   8.039  0.5682  0.4753  0.4637
  844MOL0     C13815   9.194   4.439   8.115 -0.0623  0.5993  0.0077
  844MOL0     C13816   9.259   4.321   8.182 -0.6638  0.3391  0.2434
  844MOL0     C13817   9.150   4.219   8.228  0.4786  0.2128  0.2151
  844MOL0     C13818   9.197   4.122   8.327 -0.1724  0.4177  0.0666
  844MOL0     C13819   9.319   4.040   8.272  0.1622 -0.4350  0.6010
  844MOL0     C13820   9.382   3.940   8.364  0.1465  1.3755  0.4201
  844MOL0     C13821   9.476   3.836   8.290  0.1607  0.3733 -0.0989
  844MOL0     N13822   9.605   3.900   8.294 -0.2452  0.0806 -0.3578
  844MOL0     C13823   9.658   3.998   8.211  0.2354  0.0500 -0.0867
  844MOL0     C13824   9.789   3.993   8.210  0.4395 -0.0534  0.7051
  844MOL0     C13825   9.897   4.065   8.133  0.5824 -0.3337  0.7942
  844MOL0     C13826   9.961   4.167   8.211 -0.0320 -0.0088 -0.5274
  844MOL0     C13827   9.891   4.298   8.228  0.0945 -0.1931  0.2679
  844MOL0     C13828   9.979   4.414   8.287  0.2303  0.6114 -0.3667
  844MOL0     O13829   9.927   4.549   8.257  0.2301  0.8622  0.6213
  844MOL0     C13830   9.805   4.596   8.296  0.0781  0.7693 -0.6263
  844MOL0     C13831   9.742   4.690   8.201 -0.2813  0.4262 -0.0013
  844MOL0     C13832   9.611   4.735   8.226 -0.5588  0.5982 -0.1220
  844MOL0     C13833   9.574   4.840   8.136 -0.5743 -0.0575  0.4626
  844MOL0     C13834   9.544   4.692   8.341  1.2916 -0.0707 -0.7400
  844MOL0     C13835   9.402   4.724   8.377 -0.6591  0.5881 -0.4052
  844MOL0     O13836   9.362   4.671   8.491 -0.4324  0.2687 -0.9551
  844MOL0     C13837   9.243   4.718   8.544 -0.8690 -0.4468 -0.3288
  844MOL0     C13838   9.120   4.684   8.490 -0.3407  0.1073  0.4391
  844MOL0     C13839   8.996   4.716   8.550 -0.1497 -0.6976 -0.7421
  844MOL0     C13840   8.992   4.795   8.663  0.2933 -0.9127  0.2130
  844MOL0     O13841   8.874   4.839   8.724 -0.3260  0.2572  0.4286
  844MOL0     C13842   8.874   4.832   8.868 -0.7173  0.2608  0.0555
  844MOL0     C13843   8.760   4.925   8.931  0.7946  0.2089  0.1851
  844MOL0     C13844   8.618   4.870   8.900 -0.3426  0.0900  0.7982
  844MOL0     C13845   8.496   4.933   8.976  1.2370  0.0692 -0.4578
  844MOL0     C13846   8.359   4.881   8.925  1.2631  0.1888 -0.4783
  844MOL0     C13847   8.354   4.739   8.879 -0.1882 -0.5925 -0.1983
  844MOL0     C13848   8.221   4.685   8.851 -0.5132 -0.2490 -0.4526
  844MOL0     C13849   8.111   4.694   8.960 -0.2709  0.0308 -0.0539
  844MOL0    Cl13850   7.998   4.556   8.960 -0.2443 -0.1295  0.4692
  844MOL0     C13851   9.112   4.838   8.716 -0.1998  0.2405 -0.4107
  844MOL0     C13852   9.238   4.796   8.660  0.2522 -0.3395  0.1785
  844MOL0     O13853   9.332   4.787   8.291 -0.2796 -0.0158 -0.2535
  844MOL0     C13854   9.614   4.604   8.431  0.3428 -0.6079 -0.3614
  844MOL0     C13855   9.748   4.562   8.414  0.0660  0.3169  0.4285
  844MOL0     N13856   9.821   3.899   8.303  0.6225 -0.2685  0.4990
  844MOL0     N13857   9.715   3.834   8.348 -0.7017 -0.0108 -1.0698
  844MOL0     C13858   9.599   4.475   7.928 -0.7088  0.6826  0.3659
  844MOL0     C13859   9.716   4.532   7.866  0.2760  0.3172  0.2158
  844MOL0     C13860   9.956   4.869   7.693  0.3869 -0.3404 -0.0011
  844MOL0     C13861   9.921   4.903   7.563 -0.9513  0.3104  0.8801
  844MOL0     C13862  10.007   4.981   7.482 -0.1041 -0.5372  0.5609
  844MOL0     C13863  10.131   5.026   7.538 -0.1938 -0.5828 -0.3331
  844MOL0     O13864  10.226   5.101   7.473  0.6308 -0.3281 -0.2332
  844MOL0     C13865  10.188   5.209   7.385  0.5393  0.5553  0.1566
  844MOL0     C13866  10.136   5.165   7.254 -0.6036  0.5022  0.6366
  844MOL0     C13867  10.194   5.238   7.135 -0.2551  0.0911  0.0116
  844MOL0     C13868  10.129   5.186   6.999 -0.0902 -0.3359  0.8276
  844MOL0     C13869  10.146   5.040   6.981  1.0411  0.2117  0.3790
  844MOL0     C13870  10.163   4.921   6.958 -0.4853 -0.3070  0.2098
  844MOL0     C13871  10.170   4.994   7.669 -0.1816  0.6743 -0.5649
  844MOL0     C13872  10.079   4.911   7.748 -0.5983 -0.2206  0.8802
  844MOL0     H13873   9.560   4.723   7.640  0.2707  2.3481  2.2568
  844MOL0     H13874   9.353   4.602   7.728 -0.3667  0.5978  0.2578
  844MOL0     H13875   9.372   4.580   8.105 -2.2680  1.0880  3.2421
  844MOL0     H13876   9.245   4.611   7.996  0.5994  1.2440  1.8472
  844MOL0     H13877   9.136   4.500   8.185 -2.5954  1.0890 -2.3423
  844MOL0     H13878   9.116   4.415   8.043 -1.5123  1.3871  1.2511
  844MOL0     H13879   9.334   4.274   8.118  1.5753  0.4536  2.6403
  844MOL0     H13880   9.323   4.359   8.262  1.4350  0.5370 -1.4416
  844MOL0     H13881   9.065   4.276   8.269  0.7911  0.7734  0.0984
  844MOL0     H13882   9.110   4.160   8.145 -1.3447 -0.2374  1.3552
  844MOL0     H13883   9.232   4.183   8.411  0.0738  1.3649 -0.7011
  844MOL0     H13884   9.117   4.063   8.371 -0.1249  1.1483  1.1801
  844MOL0     H13885   9.280   3.983   8.187 -1.6115  1.3751  0.1164
  844MOL0     H13886   9.390   4.112   8.232 -0.0274 -0.3931  0.3333
  844MOL0     H13887   9.439   3.988   8.444  1.9008 -0.4639  0.3732
  844MOL0     H13888   9.304   3.888   8.419 -0.7749  1.1661 -1.0183
  844MOL0     H13889   9.458   3.806   8.186 -0.6723  0.4467  0.0169
  844MOL0     H13890   9.481   3.743   8.348  3.3467  0.9179  0.6713
  844MOL0     H13891   9.604   4.060   8.141 -1.7742 -1.6527 -0.1553
  844MOL0     H13892   9.983   3.998   8.120  1.7027  1.3815 -1.3459
  844MOL0     H13893   9.859   4.099   8.036  1.8350  2.2831  1.1321
  844MOL0     H13894  10.043   4.211   8.153  2.3139 -1.6331  1.3677
  844MOL0     H13895  10.002   4.135   8.307  0.3009 -0.0140 -0.6704
  844MOL0     H13896   9.802   4.280   8.289 -0.9697 -2.7407 -1.8752
  844MOL0     H13897   9.866   4.327   8.126  2.2595 -2.1507 -0.8938
  844MOL0     H13898  10.083   4.406   8.252 -0.8671 -0.7052 -3.6864
  844MOL0     H13899   9.981   4.400   8.396 -1.4857 -0.1046 -0.3972
  844MOL0     H13900   9.792   4.719   8.109 -1.5447  2.4865 -0.1022
  844MOL0     H13901   9.509   4.906   8.194 -0.8005 -2.4160  3.0741
  844MOL0     H13902   9.665   4.897   8.118 -1.4622  1.1047 -0.5630
  844MOL0     H13903   9.539   4.810   8.037 -0.1598 -0.0809  0.3211
  844MOL0     H13904   9.115   4.624   8.399  1.0129  1.9690 -0.9353
  844MOL0     H13905   8.908   4.687   8.495 -1.8075  0.1382  1.3386
  844MOL0     H13906   8.854   4.729   8.898 -0.1251  0.2539  0.4451
  844MOL0     H13907   8.966   4.868   8.916 -1.8373 -0.4370  2.8993
  844MOL0     H13908   8.771   4.931   9.040 -1.1426 -1.9540  0.5629
  844MOL0     H13909   8.770   5.025   8.888  1.4375  1.1665  2.4007
  844MOL0     H13910   8.621   4.761   8.910 -1.4330  0.0588  0.8363
  844MOL0     H13911   8.600   4.882   8.793 -3.1423  0.1791  1.2034
  844MOL0     H13912   8.505   4.902   9.080 -1.7165 -5.0560 -1.3926
  844MOL0     H13913   8.484   5.041   8.964  0.2185 -0.1339 -1.5349
  844MOL0     H13914   8.324   4.944   8.842 -2.2229  1.0408  1.4102
  844MOL0     H13915   8.288   4.902   9.006  0.1140 -1.1245 -1.1090
  844MOL0     H13916   8.400   4.722   8.782 -0.2266  0.1606 -0.3553
  844MOL0     H13917   8.405   4.682   8.957  0.4940  2.0024  1.3797
  844MOL0     H13918   8.238   4.584   8.810  2.3820  0.0765 -0.2512
  844MOL0     H13919   8.165   4.741   8.776 -0.7259  1.8120  1.1636
  844MOL0     H13920   8.047   4.780   8.941 -1.2463 -0.4758  0.8490
  844MOL0     H13921   8.160   4.696   9.058  1.7267 -0.6743 -0.9781
  844MOL0     H13922   9.118   4.907   8.799  0.5331 -0.4263  0.1018
  844MOL0     H13923   9.321   4.852   8.702  0.1399 -0.0434  0.0031
  844MOL0     H13924   9.566   4.575   8.524  0.4943  0.9508  0.2380
  844MOL0     H13925   9.804   4.509   8.490  3.8263  3.9626  0.5709
  844MOL0     H13926   9.620   4.416   8.017  0.2113  2.2494  1.2273
  844MOL0     H13927   9.813   4.521   7.913  0.5227 -1.5311 -0.6104
  844MOL0     H13928   9.824   4.876   7.524 -0.4238 -0.3765 -0.0028
  844MOL0     H13929   9.970   5.003   7.383 -0.1299 -0.2328  0.6349
  844MOL0     H13930  10.113   5.278   7.426 -1.4208 -1.6508  0.4837
  844MOL0     H13931  10.279   5.269   7.379 -1.0052  2.9504 -0.9664
  844MOL0     H13932  10.027   5.179   7.249 -0.9416 -1.6523  0.9281
  844MOL0     H13933  10.156   5.060   7.235  3.4409  1.6801 -3.6371
  844MOL0     H13934  10.302   5.221   7.130 -0.1276  0.2771  1.6165
  844MOL0     H13935  10.177   5.345   7.148 -3.3214  0.1723 -3.0533
  844MOL0     H13936  10.160   5.240   6.909  0.1004  0.4183  1.3447
  844MOL0     H13937  10.020   5.195   7.007 -0.4281 -1.7785 -1.2201
  844MOL0     H13938  10.181   4.818   6.938 -1.5719 -0.2006 -1.5215
  844MOL0     H13939  10.263   5.029   7.714 -0.2102  0.2301 -0.1482
  844MOL0     H13940  10.111   4.891   7.850  0.6137  0.7033  0.7122
  845MOL0     O13941   7.395   4.460   4.710  0.0477  0.1254 -0.3087
  845MOL0     C13942   7.390   4.351   4.662 -0.6305  0.2177 -0.5416
  845MOL0     O13943   7.321   4.323   4.554  0.4356 -0.6545  0.2545
  845MOL0     C13944   7.221   4.402   4.502 -0.1427 -0.0811  0.1279
  845MOL0     C13945   7.110   4.451   4.582 -0.2706 -0.2647 -1.0803
  845MOL0     C13946   7.009   4.516   4.523  0.0365 -0.1862  0.1400
  845MOL0     C13947   7.003   4.534   4.378  0.1302 -0.0240  0.0280
  845MOL0     O13948   6.898   4.595   4.309  0.5771  0.1654 -0.1202
  845MOL0     C13949   6.781   4.649   4.381  0.1709 -0.2593 -0.1518
  845MOL0     C13950   6.673   4.696   4.275 -0.2473  0.0182 -0.0930
  845MOL0     C13951   6.589   4.812   4.333 -0.7519 -0.7432 -0.9416
  845MOL0     C13952   6.506   4.889   4.229 -0.0287  0.3593 -1.0420
  845MOL0     C13953   6.464   5.018   4.281 -0.4351 -0.2880 -0.0175
  845MOL0     C13954   6.324   5.019   4.353  0.4916 -1.2257  0.1984
  845MOL0     C13955   6.202   4.987   4.260  0.5801 -0.3498 -0.8657
  845MOL0     C13956   6.078   4.978   4.353 -0.2216  0.9469  0.0519
  845MOL0     N13957   5.942   4.947   4.299 -1.2594  0.3732  1.1315
  845MOL0     C13958   5.843   5.041   4.299 -0.4323 -0.5959  0.6903
  845MOL0     C13959   5.743   4.977   4.227  0.5766 -0.4713 -0.0465
  845MOL0     C13960   5.614   5.044   4.196 -0.3511 -0.4246  0.3538
  845MOL0     C13961   5.628   5.104   4.058 -0.5926  0.1631 -0.4389
  845MOL0     C13962   5.490   5.117   3.984  0.2040  0.6972  0.5068
  845MOL0     C13963   5.503   5.150   3.831 -0.8105  1.1809  0.4189
  845MOL0     O13964   5.387   5.157   3.752 -0.9215 -0.3840  0.3235
  845MOL0     C13965   5.335   5.284   3.727 -0.0704  0.0941 -0.5562
  845MOL0     C13966   5.370   5.396   3.797  0.1910 -0.1419  0.0522
  845MOL0     C13967   5.320   5.522   3.763  1.0203  0.8240 -0.2623
  845MOL0     C13968   5.374   5.641   3.850 -0.0090  0.3097 -0.1971
  845MOL0     C13969   5.221   5.542   3.663  0.1586 -1.1080  0.1828
  845MOL0     C13970   5.171   5.677   3.626 -0.1706  0.2579  0.9461
  845MOL0     O13971   5.050   5.672   3.573 -0.1562 -0.3710  0.6156
  845MOL0     C13972   5.005   5.770   3.490 -0.2262  0.0430  0.6027
  845MOL0     C13973   4.887   5.842   3.518  0.1141 -0.1346 -0.0869
  845MOL0     C13974   4.854   5.958   3.461 -0.4378 -0.7009  0.5799
  845MOL0     C13975   4.931   5.998   3.350  0.1447 -0.3493 -1.0398
  845MOL0     O13976   4.910   6.122   3.296  0.0780  0.7039 -0.1861
  845MOL0     C13977   5.030   6.200   3.265  0.5383 -0.9930  0.5075
  845MOL0     C13978   5.002   6.327   3.185 -0.2827  0.2650 -0.1929
  845MOL0     C13979   4.886   6.326   3.093 -0.3185 -0.2710 -0.6178
  845MOL0     C13980   4.885   6.456   3.003 -0.6278 -0.4616 -0.1528
  845MOL0     C13981   4.769   6.466   2.920  0.0361  0.3756  0.5044
  845MOL0     C13982   4.640   6.521   2.990 -0.7748 -0.1636 -0.0836
  845MOL0     C13983   4.510   6.455   2.939 -0.5090  0.3154 -0.2469
  845MOL0     C13984   4.396   6.562   2.918  0.2202  1.0058 -0.2691
  845MOL0    Cl13985   4.256   6.469   2.866  0.3973  0.5202 -0.0160
  845MOL0     C13986   5.030   5.912   3.298  0.4820 -0.1669  0.3521
  845MOL0     C13987   5.070   5.797   3.369 -0.1361 -0.7810 -0.5071
  845MOL0     O13988   5.240   5.783   3.630 -0.5207 -0.2586  0.1124
  845MOL0     C13989   5.192   5.423   3.589  0.2036  0.2741  0.2820
  845MOL0     C13990   5.248   5.300   3.616 -0.0609  0.2834 -1.2573
  845MOL0     N13991   5.781   4.849   4.187 -0.0761  0.4595  0.1305
  845MOL0     N13992   5.898   4.833   4.232  0.0654  0.2270 -0.3830
  845MOL0     C13993   7.107   4.489   4.300  0.3518  0.0362 -0.6934
  845MOL0     C13994   7.219   4.422   4.364 -1.1217 -0.7240  0.6300
  845MOL0     C13995   7.457   4.237   4.724 -0.2736  0.1576 -0.0025
  845MOL0     C13996   7.547   4.262   4.838  0.0581 -0.2614 -0.2127
  845MOL0     C13997   7.635   4.166   4.894 -0.1269  0.4149  0.0576
  845MOL0     C13998   7.620   4.035   4.847  0.4024 -0.2953 -0.0024
  845MOL0     O13999   7.697   3.929   4.894 -1.0278 -0.1799  0.5097
  845MOL0     C14000   7.792   3.942   5.000  0.0507 -0.8276  0.3207
  845MOL0     C14001   7.923   4.007   4.955  0.4827  1.3391  0.4401
  845MOL0     C14002   8.009   4.093   5.065 -0.9413  0.2268 -0.5983
  845MOL0     C14003   8.068   4.210   5.002 -1.2736 -0.0081 -0.1945
  845MOL0     C14004   7.977   4.304   4.932  0.2505  0.5528  0.7686
  845MOL0     C14005   7.900   4.381   4.886 -0.7387  0.2607  0.4280
  845MOL0     C14006   7.530   4.007   4.749  0.3063  0.3865  0.2214
  845MOL0     C14007   7.452   4.109   4.686  0.0354 -0.3571  0.2066
  845MOL0     H14008   7.109   4.450   4.691  0.1295 -0.2781 -1.0763
  845MOL0     H14009   6.923   4.552   4.579 -1.3354  0.2122 -2.1022
  845MOL0     H14010   6.741   4.574   4.451 -0.2662 -1.6588 -1.8175
  845MOL0     H14011   6.801   4.736   4.443  0.8108  0.9689 -2.0092
  845MOL0     H14012   6.730   4.713   4.183  3.2053 -2.8289  1.2660
  845MOL0     H14013   6.609   4.610   4.258 -1.9300  0.7196  2.1901
  845MOL0     H14014   6.536   4.769   4.418  1.3816 -2.3042 -0.3000
  845MOL0     H14015   6.652   4.884   4.386 -3.9501  1.4819  0.0962
  845MOL0     H14016   6.573   4.911   4.146 -0.6418  0.8864 -1.4037
  845MOL0     H14017   6.433   4.827   4.177  0.7937 -0.3540 -1.3790
  845MOL0     H14018   6.536   5.062   4.351  0.2963  0.8352 -1.4306
  845MOL0     H14019   6.455   5.087   4.197  1.1703  0.4704  0.4014
  845MOL0     H14020   6.328   4.944   4.432  2.1087 -1.5694 -0.1695
  845MOL0     H14021   6.315   5.109   4.415 -0.3631 -1.1668 -0.0012
  845MOL0     H14022   6.185   5.065   4.186 -1.3716 -2.0240 -2.2959
  845MOL0     H14023   6.222   4.893   4.207  1.5568 -2.8548  3.4126
  845MOL0     H14024   6.084   5.080   4.394  2.1072  1.0825 -0.4658
  845MOL0     H14025   6.111   4.912   4.434 -1.8857  0.0703  0.0429
  845MOL0     H14026   5.842   5.143   4.336 -2.5933 -1.1195  2.2704
  845MOL0     H14027   5.532   4.972   4.201  0.5974 -1.5246  0.6075
  845MOL0     H14028   5.591   5.112   4.279  0.2933 -1.8896  1.7927
  845MOL0     H14029   5.694   5.042   3.996 -2.4557  0.3932 -2.8094
  845MOL0     H14030   5.675   5.202   4.054 -0.9998  0.3861  0.1558
  845MOL0     H14031   5.431   5.198   4.027 -1.7521  0.4654 -1.5660
  845MOL0     H14032   5.425   5.029   3.994 -1.5650  1.9435  0.3126
  845MOL0     H14033   5.563   5.071   3.785 -1.6382  0.9802 -0.3422
  845MOL0     H14034   5.560   5.243   3.819  0.8279 -0.0307 -2.0579
  845MOL0     H14035   5.435   5.395   3.884 -1.3768 -0.1229  1.2607
  845MOL0     H14036   5.295   5.714   3.872  0.5198  0.7891  0.1259
  845MOL0     H14037   5.406   5.606   3.948  0.9702 -1.1685 -1.0006
  845MOL0     H14038   5.453   5.690   3.792  1.4107 -1.5022  0.1266
  845MOL0     H14039   4.830   5.819   3.608  2.1484 -0.7254  1.1092
  845MOL0     H14040   4.780   6.027   3.499 -0.1558 -0.3028  0.4107
  845MOL0     H14041   5.074   6.237   3.358 -3.0498 -0.2127  2.0740
  845MOL0     H14042   5.099   6.137   3.209 -1.0713 -3.8032  1.4934
  845MOL0     H14043   4.992   6.410   3.256 -0.7581 -1.6258  2.0483
  845MOL0     H14044   5.097   6.339   3.131  0.1886 -2.4221 -0.1162
  845MOL0     H14045   4.798   6.333   3.158 -0.3805 -1.5800 -0.5309
  845MOL0     H14046   4.879   6.240   3.026 -0.3846  0.2359 -1.2678
  845MOL0     H14047   4.900   6.534   3.079  3.5144  1.1221 -2.2515
  845MOL0     H14048   4.970   6.453   2.933 -2.4185  0.3178 -2.4645
  845MOL0     H14049   4.747   6.366   2.882  1.7491  0.3734 -0.5685
  845MOL0     H14050   4.791   6.529   2.834  2.4823 -0.2952  0.5755
  845MOL0     H14051   4.667   6.516   3.096  2.9102 -0.3944 -0.8946
  845MOL0     H14052   4.634   6.629   2.976  1.4776 -0.0307 -0.3564
  845MOL0     H14053   4.481   6.375   3.008  0.5676  1.4777  1.6240
  845MOL0     H14054   4.532   6.424   2.836  2.5898  0.5704  0.2345
  845MOL0     H14055   4.412   6.635   2.838  0.2006  1.0887 -0.1977
  845MOL0     H14056   4.369   6.614   3.010 -3.1840 -0.6920 -0.1424
  845MOL0     H14057   5.075   5.933   3.202  0.4885  0.2359  0.4412
  845MOL0     H14058   5.153   5.739   3.329  0.1490 -0.6066 -0.1781
  845MOL0     H14059   5.141   5.424   3.493 -1.9270 -2.5472  1.2496
  845MOL0     H14060   5.235   5.208   3.561  2.0326 -0.7718 -0.0945
  845MOL0     H14061   7.104   4.495   4.192  1.8194 -2.0740 -0.9194
  845MOL0     H14062   7.295   4.371   4.306 -1.9586 -1.1273 -0.1398
  845MOL0     H14063   7.557   4.363   4.875  0.9404 -1.1372  2.1232
  845MOL0     H14064   7.701   4.195   4.975 -2.4530  1.5032  1.6664
  845MOL0     H14065   7.744   3.993   5.085  2.5307  0.6017  0.9498
  845MOL0     H14066   7.810   3.840   5.035  0.6484 -0.5820  0.7409
  845MOL0     H14067   7.905   4.060   4.861  0.6044 -1.0649 -1.0228
  845MOL0     H14068   7.989   3.927   4.919 -0.8653 -0.0158  0.8833
  845MOL0     H14069   8.092   4.031   5.101 -0.6426  1.4438  0.8999
  845MOL0     H14070   7.960   4.120   5.159 -2.4343  2.5181 -1.9299
  845MOL0     H14071   8.150   4.180   4.935 -1.8202 -1.0491 -0.4156
  845MOL0     H14072   8.109   4.281   5.073  1.4193  1.4846 -2.9666
  845MOL0     H14073   7.823   4.450   4.856  0.4050  0.5169 -2.2253
  845MOL0     H14074   7.529   3.910   4.701 -0.0606 -0.3823  1.7257
  845MOL0     H14075   7.396   4.092   4.595 -0.4417  4.4331 -0.6520
  846MOL0     O14076   9.875   1.385   2.725 -0.5962 -0.6319 -0.3216
  846MOL0     C14077   9.902   1.409   2.609 -0.0813 -0.2571  0.0806
  846MOL0     O14078   9.813   1.457   2.513  0.0337 -0.4023 -0.2528
  846MOL0     C14079   9.679   1.466   2.537 -0.4312  0.1566  0.5863
  846MOL0     C14080   9.618   1.557   2.447  0.4011 -0.4331  0.4019
  846MOL0     C14081   9.482   1.563   2.443  1.4874  0.0153 -0.2187
  846MOL0     C14082   9.404   1.497   2.541  0.0342 -0.8157 -0.3728
  846MOL0     O14083   9.268   1.527   2.563 -0.4919  0.6738  0.1555
  846MOL0     C14084   9.187   1.604   2.466 -0.9338  0.1943 -0.7117
  846MOL0     C14085   9.051   1.609   2.531  1.1115  0.2499 -0.2217
  846MOL0     C14086   8.945   1.667   2.434  0.1241  1.1499 -0.4502
  846MOL0     C14087   8.798   1.641   2.475  0.1891  0.2802  0.3503
  846MOL0     C14088   8.677   1.721   2.412 -0.0662  0.4071  0.3133
  846MOL0     C14089   8.545   1.638   2.411 -0.1928 -0.3420  0.4156
  846MOL0     C14090   8.435   1.743   2.427  0.1346  0.4278  0.1114
  846MOL0     C14091   8.300   1.674   2.407  0.5783 -0.6195 -0.0093
  846MOL0     N14092   8.199   1.782   2.402 -0.2213  0.0652  0.7482
  846MOL0     C14093   8.099   1.806   2.490  0.0513 -0.0104 -0.0559
  846MOL0     C14094   8.050   1.933   2.478  0.1526  0.0744  1.0028
  846MOL0     C14095   7.941   2.012   2.548  0.4866 -0.3065 -0.4208
  846MOL0     C14096   7.965   2.047   2.693  0.0036 -0.7873 -0.0810
  846MOL0     C14097   8.076   2.151   2.738  0.6329  0.1128  0.7809
  846MOL0     C14098   8.214   2.113   2.692 -0.2205 -1.3314  0.1539
  846MOL0     O14099   8.308   2.215   2.735 -0.7706 -0.4261 -0.3426
  846MOL0     C14100   8.305   2.338   2.674 -0.7120 -0.6413  0.3022
  846MOL0     C14101   8.388   2.432   2.735 -0.0990 -0.5557 -0.0001
  846MOL0     C14102   8.407   2.558   2.683 -0.5614  0.1848  1.2986
  846MOL0     C14103   8.508   2.647   2.767 -0.4067 -0.1968 -0.1355
  846MOL0     C14104   8.341   2.603   2.569  0.4907 -0.3283  0.0141
  846MOL0     C14105   8.344   2.742   2.510  0.1366  0.6271 -0.3211
  846MOL0     O14106   8.270   2.757   2.396  0.1956 -0.1247 -0.3246
  846MOL0     C14107   8.210   2.877   2.364 -0.1827  0.9648 -0.4075
  846MOL0     C14108   8.080   2.913   2.421 -1.0772  0.9806  0.3294
  846MOL0     C14109   8.017   3.030   2.371  0.7101  0.2620  0.2447
  846MOL0     C14110   8.084   3.114   2.280 -0.0134  0.1567 -0.1966
  846MOL0     O14111   8.034   3.232   2.240  0.3392  0.0348 -0.4572
  846MOL0     C14112   7.984   3.311   2.344 -0.7415 -0.8170  0.2621
  846MOL0     C14113   7.835   3.328   2.336 -0.2975  0.3965  0.1653
  846MOL0     C14114   7.801   3.452   2.250 -0.0017 -0.8567 -0.4575
  846MOL0     C14115   7.659   3.491   2.266  0.7902  0.1867 -0.4398
  846MOL0     C14116   7.599   3.575   2.151  0.7109  0.1430 -0.4112
  846MOL0     C14117   7.478   3.645   2.221 -0.2577  0.5682  0.9615
  846MOL0     C14118   7.433   3.723   2.105 -0.4289 -0.2239  0.7975
  846MOL0     C14119   7.311   3.803   2.137 -0.1633 -0.1340  0.5962
  846MOL0    Cl14120   7.323   3.902   2.280 -0.2137  0.2726  0.0633
  846MOL0     C14121   8.196   3.069   2.221 -1.0818  0.1708  0.1993
  846MOL0     C14122   8.261   2.954   2.263 -0.1202  0.9969  0.8124
  846MOL0     O14123   8.419   2.826   2.549 -0.0794 -0.6260 -0.8933
  846MOL0     C14124   8.246   2.506   2.513 -0.5715 -0.5365  0.4984
  846MOL0     C14125   8.239   2.382   2.559  0.5298 -0.4709 -0.2941
  846MOL0     N14126   8.113   1.981   2.355  0.2149  0.1911  0.3080
  846MOL0     N14127   8.203   1.896   2.321  0.5920  0.0614  0.0038
  846MOL0     C14128   9.457   1.407   2.631  0.6892  0.3164  0.4122
  846MOL0     C14129   9.595   1.391   2.624 -0.6493 -0.6170 -0.7746
  846MOL0     C14130  10.047   1.419   2.572  0.0063  0.1308  0.4108
  846MOL0     C14131  10.148   1.370   2.655 -0.2892 -0.3957 -0.3472
  846MOL0     C14132  10.276   1.353   2.609 -0.0038 -0.1249  0.9532
  846MOL0     C14133  10.311   1.393   2.478  0.7678 -0.5021 -0.9943
  846MOL0     O14134  10.440   1.391   2.447 -0.6092 -0.5513  0.0963
  846MOL0     C14135  10.502   1.509   2.388 -0.5600 -0.2230 -0.3993
  846MOL0     C14136  10.650   1.479   2.366 -0.3882  0.3673  0.0045
  846MOL0     C14137  10.728   1.600   2.309 -0.1385 -0.0737  0.6635
  846MOL0     C14138  10.876   1.646   2.357  0.1557  0.5743  0.0488
  846MOL0     C14139  10.974   1.572   2.277  0.0546 -0.5144 -0.1713
  846MOL0     C14140  11.050   1.513   2.206  0.3036  1.0082  0.3385
  846MOL0     C14141  10.213   1.432   2.389 -0.7273  0.1855 -0.1468
  846MOL0     C14142  10.079   1.446   2.438  0.7157 -0.2056  0.1562
  846MOL0     H14143   9.675   1.596   2.363 -1.2810 -0.4812 -0.8115
  846MOL0     H14144   9.441   1.616   2.358  3.7612 -0.5036 -1.7213
  846MOL0     H14145   9.230   1.703   2.454  1.8140 -0.9202 -0.6963
  846MOL0     H14146   9.178   1.551   2.370 -4.4678 -1.9355  0.5720
  846MOL0     H14147   9.024   1.506   2.555  1.5329  0.6132  2.0316
  846MOL0     H14148   9.057   1.666   2.624  0.9892 -2.7850  1.7690
  846MOL0     H14149   8.957   1.775   2.420 -2.6981  1.9514  2.0281
  846MOL0     H14150   8.965   1.614   2.341  0.2069 -1.1880  0.8380
  846MOL0     H14151   8.775   1.535   2.457  0.4374  0.6221 -2.5821
  846MOL0     H14152   8.793   1.640   2.584 -0.4158 -0.4216  0.3238
  846MOL0     H14153   8.668   1.811   2.474 -2.4642  0.0283  0.6121
  846MOL0     H14154   8.701   1.764   2.314 -0.0978  2.2446  1.0704
  846MOL0     H14155   8.532   1.577   2.321 -0.2397 -1.7102  1.3158
  846MOL0     H14156   8.550   1.576   2.501  0.4383 -1.1850 -0.1853
  846MOL0     H14157   8.452   1.782   2.528  1.4521  0.8662 -0.2493
  846MOL0     H14158   8.460   1.813   2.347 -0.5187 -0.5075 -0.9360
  846MOL0     H14159   8.268   1.606   2.486  0.1035  1.6587  1.8980
  846MOL0     H14160   8.310   1.623   2.311  2.2611  2.3034 -1.5351
  846MOL0     H14161   8.069   1.735   2.567  1.7661 -1.3426 -0.5675
  846MOL0     H14162   7.950   2.109   2.498  0.3774  2.0818  3.7698
  846MOL0     H14163   7.843   1.975   2.516 -0.4334  2.6431 -1.3373
  846MOL0     H14164   7.980   1.950   2.741  2.6514 -1.0230 -1.1807
  846MOL0     H14165   7.873   2.079   2.741 -0.6420 -2.3956 -0.1768
  846MOL0     H14166   8.073   2.147   2.847  3.9378  0.8224  0.9751
  846MOL0     H14167   8.047   2.253   2.714 -3.5221 -1.0299  0.0797
  846MOL0     H14168   8.216   2.111   2.582  2.0054 -1.1527  0.1309
  846MOL0     H14169   8.241   2.012   2.724  1.2610 -0.7034  0.9921
  846MOL0     H14170   8.444   2.413   2.826 -0.9471  0.8654  0.8522
  846MOL0     H14171   8.446   2.721   2.819 -1.0778 -2.4108  2.4076
  846MOL0     H14172   8.561   2.586   2.840  2.6617  0.8761 -1.2940
  846MOL0     H14173   8.579   2.702   2.704 -1.5455  0.9047 -0.4954
  846MOL0     H14174   8.028   2.866   2.504  2.2417  0.5423  2.3896
  846MOL0     H14175   7.924   3.065   2.414  1.2039  1.4872  0.3658
  846MOL0     H14176   7.999   3.278   2.447 -2.3401  2.1718  1.6049
  846MOL0     H14177   8.039   3.405   2.355  2.5702 -2.6986  0.8799
  846MOL0     H14178   7.781   3.251   2.281 -1.9404  1.9090 -0.4619
  846MOL0     H14179   7.782   3.334   2.431 -0.0092 -0.4506  0.3844
  846MOL0     H14180   7.825   3.442   2.144  3.7381 -1.3253  0.2979
  846MOL0     H14181   7.861   3.540   2.275 -1.4467  1.1617 -3.4386
  846MOL0     H14182   7.589   3.407   2.262 -0.7803  1.4385 -0.3666
  846MOL0     H14183   7.650   3.547   2.360  1.9817  0.3655 -0.4123
  846MOL0     H14184   7.557   3.511   2.072 -0.8128 -1.5432  1.6466
  846MOL0     H14185   7.664   3.652   2.109 -2.1072  3.2539  0.4761
  846MOL0     H14186   7.406   3.568   2.248  1.5496 -1.5391  0.0826
  846MOL0     H14187   7.510   3.700   2.310  0.8544 -1.0650  1.6023
  846MOL0     H14188   7.410   3.656   2.022  1.5310 -0.8594  0.7143
  846MOL0     H14189   7.509   3.794   2.071  2.3817 -2.8138  1.2279
  846MOL0     H14190   7.222   3.741   2.151 -0.2907  0.1697  1.1682
  846MOL0     H14191   7.285   3.873   2.058 -0.3976  3.6692  3.7448
  846MOL0     H14192   8.247   3.117   2.138 -0.6558 -1.4466 -0.5385
  846MOL0     H14193   8.359   2.932   2.221 -1.7525 -0.1569 -2.7236
  846MOL0     H14194   8.200   2.539   2.421  0.2698 -1.7231 -0.3786
  846MOL0     H14195   8.165   2.319   2.510 -1.1038  0.1188  1.3081
  846MOL0     H14196   9.399   1.342   2.696  2.0799 -3.7175 -1.9849
  846MOL0     H14197   9.643   1.314   2.684  0.9664  0.3418 -0.7730
  846MOL0     H14198  10.130   1.334   2.756 -1.9958 -2.0859 -1.1778
  846MOL0     H14199  10.353   1.312   2.673  2.9370  3.6172  0.1796
  846MOL0     H14200  10.452   1.530   2.293  0.6986 -0.8962 -1.2381
  846MOL0     H14201  10.476   1.585   2.462 -1.1010  1.2684 -2.0432
  846MOL0     H14202  10.664   1.389   2.305 -1.7808 -0.6557  1.1279
  846MOL0     H14203  10.690   1.454   2.465 -4.3449 -1.0561  1.4642
  846MOL0     H14204  10.671   1.691   2.327  1.0590  0.9855 -0.6128
  846MOL0     H14205  10.727   1.581   2.201 -0.9740 -0.0392  0.6618
  846MOL0     H14206  10.899   1.616   2.459  2.4266 -2.3522 -1.1684
  846MOL0     H14207  10.894   1.753   2.341 -2.0139  1.3150  2.0357
  846MOL0     H14208  11.104   1.456   2.133 -0.8002  0.0910  0.2020
  846MOL0     H14209  10.224   1.479   2.292 -0.4127  0.2871 -0.0636
  846MOL0     H14210  10.003   1.496   2.379 -0.2503  1.0126  2.3099
  847MOL0     O14211   8.772  10.661   3.022 -0.1071 -0.9186 -0.1256
  847MOL0     C14212   8.889  10.632   3.056 -0.6058  0.2246  0.1783
  847MOL0     O14213   8.934  10.631   3.188  0.1590  0.0519  0.4143
  847MOL0     C14214   8.872  10.701   3.286  0.3249  0.3027  0.5311
  847MOL0     C14215   8.742  10.695   3.325 -0.0404 -0.4404  0.2820
  847MOL0     C14216   8.681  10.789   3.399  0.9027 -0.0183 -0.7500
  847MOL0     C14217   8.749  10.895   3.459  0.4918 -0.4105 -0.7011
  847MOL0     O14218   8.692  10.981   3.548 -0.2592 -0.5577 -0.3977
  847MOL0     C14219   8.590  11.068   3.490 -0.4675  0.3966 -1.0078
  847MOL0     C14220   8.552  11.176   3.596 -0.0963 -0.7715  0.6783
  847MOL0     C14221   8.429  11.150   3.679 -0.9549  0.1665  0.3092
  847MOL0     C14222   8.407  11.260   3.781  0.8717 -0.9042 -0.6146
  847MOL0     C14223   8.286  11.225   3.863  0.0374  0.1525 -0.5355
  847MOL0     C14224   8.147  11.207   3.781 -0.0678 -0.5324  0.3011
  847MOL0     C14225   8.104  11.335   3.714 -0.5149 -0.0598  0.5403
  847MOL0     C14226   7.967  11.332   3.644 -0.0624 -0.6921  0.8845
  847MOL0     N14227   7.854  11.308   3.740  0.0747 -0.2364  0.1362
  847MOL0     C14228   7.784  11.404   3.811 -0.5486  0.2779  0.4280
  847MOL0     C14229   7.677  11.338   3.861  0.2464 -0.0075 -0.8754
  847MOL0     C14230   7.573  11.394   3.946  0.6718  0.0992  0.9645
  847MOL0     C14231   7.462  11.446   3.854  0.0835  0.0459  0.3568
  847MOL0     C14232   7.372  11.325   3.808 -0.2912 -0.6566 -0.2081
  847MOL0     C14233   7.223  11.355   3.797 -0.2020 -0.6593  1.1393
  847MOL0     O14234   7.199  11.433   3.687 -0.0215  0.3133  0.4872
  847MOL0     C14235   7.076  11.498   3.687  0.0022  0.6266  0.4918
  847MOL0     C14236   6.980  11.505   3.780  0.3467 -0.6112  0.1440
  847MOL0     C14237   6.865  11.578   3.762 -0.3473 -0.3246  0.2283
  847MOL0     C14238   6.766  11.565   3.879  0.7309 -0.4442  0.7649
  847MOL0     C14239   6.842  11.653   3.643 -0.3914  0.0299 -0.0601
  847MOL0     C14240   6.720  11.723   3.617  0.3154  0.1838  0.0574
  847MOL0     O14241   6.641  11.780   3.723 -0.3743 -0.4865 -0.4164
  847MOL0     C14242   6.534  11.860   3.696 -0.0422  0.1330 -0.2182
  847MOL0     C14243   6.542  11.996   3.664  0.0337  1.0865 -0.6395
  847MOL0     C14244   6.427  12.073   3.653  0.8111 -0.4810 -0.2532
  847MOL0     C14245   6.302  12.013   3.647  0.0559 -0.0660 -0.1852
  847MOL0     O14246   6.191  12.084   3.625 -0.1736  0.9470  0.4374
  847MOL0     C14247   6.184  12.222   3.673 -0.4098 -0.0651 -0.1419
  847MOL0     C14248   6.049  12.268   3.626 -0.2510 -0.3421  0.5467
  847MOL0     C14249   5.942  12.209   3.714 -0.2594 -1.2052 -0.6908
  847MOL0     C14250   5.806  12.240   3.663 -0.8993  0.2609  0.1332
  847MOL0     C14251   5.707  12.207   3.781  0.1736  0.2372  0.7236
  847MOL0     C14252   5.561  12.245   3.746 -0.0881 -0.0553 -0.1973
  847MOL0     C14253   5.512  12.187   3.614 -0.3366  0.4310 -0.8364
  847MOL0     C14254   5.517  12.035   3.593  0.3676  0.1311 -0.2617
  847MOL0    Cl14255   5.423  12.019   3.446  0.4691  0.1247  0.0915
  847MOL0     C14256   6.295  11.876   3.679 -0.4784 -0.2373  0.2244
  847MOL0     C14257   6.410  11.799   3.701  0.0950 -0.0750  0.0551
  847MOL0     O14258   6.673  11.704   3.507  0.4357 -0.7818  0.0706
  847MOL0     C14259   6.939  11.637   3.545 -0.1580  0.4752 -0.2756
  847MOL0     C14260   7.058  11.572   3.569 -0.1199  1.2362 -0.8098
  847MOL0     N14261   7.679  11.204   3.812  0.6655 -0.2572  0.2539
  847MOL0     N14262   7.785  11.192   3.747 -0.4554 -0.2996  0.0849
  847MOL0     C14263   8.883  10.910   3.431  0.2211 -0.1168  0.0303
  847MOL0     C14264   8.938  10.812   3.348 -0.0027  0.9007 -0.3954
  847MOL0     C14265   8.988  10.599   2.955 -0.1242 -0.6968 -0.5866
  847MOL0     C14266   8.938  10.544   2.840 -0.4460  0.7319  0.5180
  847MOL0     C14267   9.026  10.489   2.746 -0.3717  0.6424  0.4170
  847MOL0     C14268   9.164  10.520   2.750  0.8586 -0.4834  0.5094
  847MOL0     O14269   9.242  10.492   2.640 -0.8716 -0.5220  0.1148
  847MOL0     C14270   9.385  10.492   2.639  0.0219 -0.7526 -0.7791
  847MOL0     C14271   9.430  10.452   2.505  0.2210  0.0510  1.1037
  847MOL0     C14272   9.578  10.458   2.483 -0.1717  0.1711 -0.7510
  847MOL0     C14273   9.655  10.353   2.563 -0.0531  0.6214  0.4365
  847MOL0     C14274   9.657  10.230   2.479  0.6257  0.0738 -0.6168
  847MOL0     C14275   9.650  10.134   2.405  0.5673 -0.0520 -0.0640
  847MOL0     C14276   9.216  10.574   2.872 -0.3530 -0.7913 -0.0195
  847MOL0     C14277   9.127  10.612   2.975  0.1440 -0.0376 -0.3770
  847MOL0     H14278   8.689  10.610   3.282 -0.4446 -0.3497  0.5944
  847MOL0     H14279   8.582  10.770   3.440  0.7588  0.6037 -0.7991
  847MOL0     H14280   8.625  11.115   3.398  3.2760 -2.3213 -1.1996
  847MOL0     H14281   8.506  10.999   3.476  1.3345 -2.5028  1.2512
  847MOL0     H14282   8.640  11.197   3.657  1.9317 -3.0666 -1.2294
  847MOL0     H14283   8.531  11.275   3.554  5.8327  0.1406 -1.0070
  847MOL0     H14284   8.344  11.135   3.611  1.2791 -2.6743 -2.1231
  847MOL0     H14285   8.444  11.054   3.729 -0.1891 -1.9942 -3.6555
  847MOL0     H14286   8.497  11.291   3.835  2.2182  1.6175 -3.9220
  847MOL0     H14287   8.383  11.349   3.721 -0.3343  0.5324  1.8186
  847MOL0     H14288   8.298  11.136   3.925  0.0239  1.2252  1.0704
  847MOL0     H14289   8.273  11.304   3.938  0.6751  0.3904 -0.6720
  847MOL0     H14290   8.142  11.127   3.707 -3.0067 -0.4338  0.2614
  847MOL0     H14291   8.068  11.181   3.853  0.1803 -1.4084  0.2749
  847MOL0     H14292   8.089  11.402   3.799  1.5537 -0.7045  1.4546
  847MOL0     H14293   8.180  11.383   3.652 -1.0834 -1.0095 -0.9522
  847MOL0     H14294   7.965  11.258   3.563 -1.0002 -1.7535  1.8328
  847MOL0     H14295   7.961  11.428   3.592  3.0854 -0.0394  1.5683
  847MOL0     H14296   7.816  11.508   3.815  2.4049 -0.3491 -2.1563
  847MOL0     H14297   7.547  11.321   4.023  0.9132  1.1547  2.0976
  847MOL0     H14298   7.609  11.485   3.996 -0.0516  1.2135 -0.4550
  847MOL0     H14299   7.505  11.494   3.765  2.5539 -2.6129 -0.0069
  847MOL0     H14300   7.404  11.526   3.901 -0.9797 -0.3189 -0.2793
  847MOL0     H14301   7.385  11.242   3.877 -0.8597  1.6496  2.8884
  847MOL0     H14302   7.401  11.305   3.704 -1.6841  4.2287 -1.8292
  847MOL0     H14303   7.196  11.410   3.887  0.7391  0.5617  0.7005
  847MOL0     H14304   7.171  11.258   3.791 -1.0547 -0.2070  1.0238
  847MOL0     H14305   6.995  11.455   3.875  2.9506  1.4941  0.9860
  847MOL0     H14306   6.775  11.639   3.959  1.6828  0.0161  0.2533
  847MOL0     H14307   6.668  11.583   3.834  1.7189 -0.0417 -1.3476
  847MOL0     H14308   6.762  11.461   3.912 -1.7005 -0.1170  1.6931
  847MOL0     H14309   6.639  12.041   3.648  0.9463 -0.6976 -0.4153
  847MOL0     H14310   6.445  12.180   3.647  1.2246 -0.4491  1.1550
  847MOL0     H14311   6.190  12.229   3.782  1.0015  1.0949 -0.2697
  847MOL0     H14312   6.260  12.295   3.644 -1.7512  1.2441 -0.5153
  847MOL0     H14313   6.051  12.377   3.624 -1.8463 -0.2754  0.6607
  847MOL0     H14314   6.029  12.238   3.522  1.0324  1.0040 -0.1270
  847MOL0     H14315   5.950  12.254   3.814 -1.6729 -1.2491 -0.5449
  847MOL0     H14316   5.964  12.106   3.741 -0.3211 -1.0084  0.1563
  847MOL0     H14317   5.788  12.344   3.637  0.6048  0.0339 -2.0106
  847MOL0     H14318   5.784  12.187   3.570  0.3836  1.5049 -0.9120
  847MOL0     H14319   5.734  12.254   3.876  1.5227 -0.5074  0.7353
  847MOL0     H14320   5.705  12.098   3.797 -0.4534 -0.2087 -1.9375
  847MOL0     H14321   5.499  12.214   3.831  0.3717  1.5005  0.7300
  847MOL0     H14322   5.563  12.354   3.745 -0.6850 -0.0327  0.2426
  847MOL0     H14323   5.577  12.226   3.536 -1.4407  2.6175 -0.7598
  847MOL0     H14324   5.413  12.233   3.605  0.0858  1.1287 -2.2777
  847MOL0     H14325   5.473  11.972   3.671  0.9250 -1.5221 -1.2369
  847MOL0     H14326   5.620  12.003   3.577  0.7517  1.1637  0.0677
  847MOL0     H14327   6.199  11.826   3.680 -0.6413  0.0378 -0.9429
  847MOL0     H14328   6.411  11.694   3.728  0.9044  0.4833  2.5260
  847MOL0     H14329   6.923  11.671   3.443  1.0906 -1.3869 -1.1493
  847MOL0     H14330   7.125  11.560   3.485  1.4522  1.6010  0.3464
  847MOL0     H14331   8.936  10.993   3.477 -1.0111  1.0006 -0.5222
  847MOL0     H14332   9.045  10.823   3.330  0.2700  1.0901  1.2163
  847MOL0     H14333   8.831  10.535   2.825 -0.9869  1.8303  3.1921
  847MOL0     H14334   8.985  10.437   2.660  0.0269  0.1263  0.5365
  847MOL0     H14335   9.420  10.594   2.660 -0.3476 -0.8697  0.5149
  847MOL0     H14336   9.416  10.419   2.715  3.4312 -1.4004 -2.6126
  847MOL0     H14337   9.395  10.520   2.427  0.6339  0.4307  1.2409
  847MOL0     H14338   9.397  10.351   2.481  1.0272 -0.6963  2.9177
  847MOL0     H14339   9.615  10.553   2.523  3.3074 -0.8810 -1.0725
  847MOL0     H14340   9.604  10.451   2.377  0.1306 -2.0261 -0.5823
  847MOL0     H14341   9.610  10.328   2.660 -0.7906  1.4355  0.3215
  847MOL0     H14342   9.760  10.381   2.574  0.5370  0.2216 -3.0832
  847MOL0     H14343   9.655  10.045   2.346 -2.9943  0.2034 -0.9643
  847MOL0     H14344   9.322  10.596   2.883 -0.9618  3.2253 -0.7101
  847MOL0     H14345   9.187  10.655   3.055  1.0009 -1.4150 -0.2410
  848MOL0     O14346   7.133   7.523   2.884 -0.3463 -0.9544  0.9630
  848MOL0     C14347   7.226   7.543   2.799  0.6593  0.8858  0.9187
  848MOL0     O14348   7.219   7.520   2.663 -0.0382  0.7553  0.0783
  848MOL0     C14349   7.092   7.520   2.615  0.6431 -0.1915 -0.2995
  848MOL0     C14350   7.024   7.640   2.626  0.0457  0.7493 -0.3520
  848MOL0     C14351   6.898   7.653   2.563 -0.8127  0.0274  0.8858
  848MOL0     C14352   6.841   7.543   2.500 -0.1424  1.0402 -0.0189
  848MOL0     O14353   6.715   7.536   2.453 -0.8711  1.5913 -0.3457
  848MOL0     C14354   6.632   7.647   2.478 -0.3290 -0.4043 -0.1235
  848MOL0     C14355   6.505   7.604   2.400 -0.0866  0.4241 -0.7270
  848MOL0     C14356   6.445   7.465   2.423 -0.2926  0.1033  0.1749
  848MOL0     C14357   6.398   7.441   2.568  0.1464  0.2712  0.2767
  848MOL0     C14358   6.313   7.327   2.614 -0.4196  0.3603  0.1710
  848MOL0     C14359   6.357   7.187   2.564 -0.6424  0.5802 -0.1080
  848MOL0     C14360   6.249   7.092   2.595 -0.1577  0.0526 -0.6423
  848MOL0     C14361   6.288   6.941   2.580  0.3254 -0.2096 -0.1585
  848MOL0     N14362   6.185   6.830   2.579  0.9621 -0.4179 -0.1644
  848MOL0     C14363   6.086   6.827   2.486 -0.7760 -0.2052 -0.9468
  848MOL0     C14364   6.031   6.706   2.506  0.4611  0.3356  0.0602
  848MOL0     C14365   5.915   6.675   2.423  0.0299  0.4533 -0.1827
  848MOL0     C14366   5.881   6.518   2.414 -0.1299  0.2314 -0.5851
  848MOL0     C14367   5.768   6.500   2.311  0.3559 -0.3852 -0.5282
  848MOL0     C14368   5.621   6.525   2.359 -1.1554 -0.1730  0.3812
  848MOL0     O14369   5.576   6.655   2.332  0.4808 -0.4157 -0.3785
  848MOL0     C14370   5.438   6.673   2.352 -0.3232  0.3289  0.2257
  848MOL0     C14371   5.409   6.781   2.425  0.0201  0.1445 -0.0371
  848MOL0     C14372   5.276   6.807   2.461  0.3039  0.1344 -0.8574
  848MOL0     C14373   5.251   6.924   2.563 -0.0425  0.5589 -0.0496
  848MOL0     C14374   5.172   6.713   2.416 -0.9326 -0.1606  0.5225
  848MOL0     C14375   5.029   6.733   2.445  0.4370 -0.3987 -0.2551
  848MOL0     O14376   4.946   6.698   2.355  0.8609 -0.7804  0.1948
  848MOL0     C14377   4.810   6.683   2.383 -0.9910 -0.7422  0.6614
  848MOL0     C14378   4.729   6.778   2.453  0.1938 -0.5590 -0.3971
  848MOL0     C14379   4.598   6.749   2.488 -0.3052 -0.0601  0.5037
  848MOL0     C14380   4.543   6.630   2.444 -0.5079  0.8005  0.7125
  848MOL0     O14381   4.411   6.615   2.475  0.0688 -0.1444 -0.0771
  848MOL0     C14382   4.329   6.520   2.409  0.2741 -0.3759 -0.4372
  848MOL0     C14383   4.181   6.585   2.400  0.3548  0.0021 -0.2190
  848MOL0     C14384   4.125   6.619   2.539 -0.3240  0.1866  0.5548
  848MOL0     C14385   3.975   6.574   2.538  0.2222 -0.0593  0.8412
  848MOL0     C14386   3.891   6.653   2.639  0.9804 -0.4919 -0.5398
  848MOL0     C14387   3.923   6.611   2.785 -0.5912 -0.6102 -0.6240
  848MOL0     C14388   3.827   6.660   2.893  0.5715 -0.3405 -0.8967
  848MOL0     C14389   3.888   6.679   3.033 -0.4468 -0.1974 -0.9744
  848MOL0    Cl14390   3.986   6.522   3.067 -0.1117  0.0240 -0.1886
  848MOL0     C14391   4.616   6.541   2.360  0.2969  0.6351 -0.0080
  848MOL0     C14392   4.745   6.566   2.332 -0.1256  0.5060 -0.2938
  848MOL0     O14393   4.992   6.773   2.553 -0.9321 -0.2458  0.5034
  848MOL0     C14394   5.208   6.598   2.345  0.3613  0.7193 -0.0456
  848MOL0     C14395   5.338   6.583   2.312  1.1214  0.4424 -0.8211
  848MOL0     N14396   6.085   6.648   2.625  0.4513  0.9573 -0.1847
  848MOL0     N14397   6.171   6.729   2.666  1.1951  0.2448  0.2435
  848MOL0     C14398   6.900   7.416   2.520 -0.4144 -0.6987 -0.3476
  848MOL0     C14399   7.019   7.406   2.580 -0.8028 -0.3146 -0.3610
  848MOL0     C14400   7.365   7.575   2.834  0.1798  1.3411  0.5364
  848MOL0     C14401   7.400   7.579   2.970  0.5810 -0.2910 -0.0783
  848MOL0     C14402   7.522   7.620   3.011 -0.6475 -0.6279  0.6505
  848MOL0     C14403   7.623   7.658   2.918  0.8618  0.5790 -0.0136
  848MOL0     O14404   7.740   7.686   2.969 -0.1229 -0.7142 -0.8617
  848MOL0     C14405   7.864   7.668   2.892  0.2311 -0.0131 -1.4917
  848MOL0     C14406   7.981   7.706   2.992  0.4933  0.5180  1.2792
  848MOL0     C14407   8.123   7.678   2.931  0.5634 -0.0415  0.1532
  848MOL0     C14408   8.173   7.808   2.862 -1.6418  0.0524  0.3098
  848MOL0     C14409   8.094   7.848   2.743 -0.4784  0.0947 -0.1952
  848MOL0     C14410   8.044   7.887   2.638 -1.1267 -0.3405 -0.6717
  848MOL0     C14411   7.587   7.668   2.784 -0.0325 -0.0491  1.2115
  848MOL0     C14412   7.466   7.617   2.737  0.5147 -0.7411 -0.0071
  848MOL0     H14413   7.080   7.726   2.662 -0.3028  0.7340  0.2334
  848MOL0     H14414   6.858   7.752   2.544  0.3817  0.1782 -1.1666
  848MOL0     H14415   6.604   7.661   2.583 -0.2839 -0.4401 -0.1068
  848MOL0     H14416   6.679   7.738   2.439 -0.6685  1.4335  3.2896
  848MOL0     H14417   6.424   7.676   2.414 -0.5078 -0.4751  2.3328
  848MOL0     H14418   6.541   7.604   2.297  0.8550 -0.6376 -0.4278
  848MOL0     H14419   6.363   7.455   2.351  0.2843  1.9181 -0.8085
  848MOL0     H14420   6.515   7.387   2.395  0.1436  0.2492  0.8251
  848MOL0     H14421   6.482   7.446   2.638 -0.3231 -2.8338  1.1993
  848MOL0     H14422   6.330   7.524   2.588 -1.2011 -1.1554  1.9544
  848MOL0     H14423   6.305   7.332   2.723  0.5509  1.8027  0.1987
  848MOL0     H14424   6.215   7.354   2.573 -1.8608 -0.3182  2.8619
  848MOL0     H14425   6.374   7.188   2.456 -2.1188 -1.1785 -0.4101
  848MOL0     H14426   6.447   7.153   2.616 -0.7701  1.0872  0.4571
  848MOL0     H14427   6.205   7.098   2.695 -0.8040  2.8811 -1.0324
  848MOL0     H14428   6.170   7.112   2.523  0.0371 -0.7019 -1.0754
  848MOL0     H14429   6.361   6.919   2.659 -0.4939 -1.0957  0.3762
  848MOL0     H14430   6.339   6.950   2.484 -1.3485  0.0250 -1.0662
  848MOL0     H14431   6.055   6.909   2.422 -1.2285  1.8229  1.7293
  848MOL0     H14432   5.827   6.714   2.476  0.4145 -0.4071  1.1386
  848MOL0     H14433   5.926   6.708   2.320  3.4177 -4.3810 -1.7079
  848MOL0     H14434   5.858   6.469   2.509 -2.9525  2.1744 -0.1158
  848MOL0     H14435   5.962   6.466   2.364  0.6239  0.9359 -0.1249
  848MOL0     H14436   5.777   6.396   2.280  0.5920 -1.1011  1.7607
  848MOL0     H14437   5.794   6.562   2.224 -0.5991 -0.0716 -0.5991
  848MOL0     H14438   5.617   6.500   2.465  0.2827  0.3631  0.5810
  848MOL0     H14439   5.565   6.461   2.290  1.0735  0.6201 -2.3218
  848MOL0     H14440   5.499   6.834   2.454  0.4848  0.9779 -2.7364
  848MOL0     H14441   5.236   6.885   2.664  1.1022 -1.4818 -0.6144
  848MOL0     H14442   5.339   6.990   2.562 -0.3638  1.0243  0.8882
  848MOL0     H14443   5.161   6.979   2.536  0.6154  0.4102 -2.7847
  848MOL0     H14444   4.773   6.874   2.475 -0.0572  0.0981 -2.5520
  848MOL0     H14445   4.546   6.829   2.541  0.9062  0.3452  1.1149
  848MOL0     H14446   4.357   6.496   2.307  0.1088  1.1115 -0.8563
  848MOL0     H14447   4.333   6.428   2.468  2.9902  1.9510  3.5216
  848MOL0     H14448   4.189   6.667   2.328  1.8563 -1.8030 -2.2567
  848MOL0     H14449   4.120   6.503   2.359  0.1361 -0.4023  0.8674
  848MOL0     H14450   4.140   6.727   2.547  1.0952  0.0930 -0.5774
  848MOL0     H14451   4.175   6.570   2.623 -0.9196 -2.4109 -0.5131
  848MOL0     H14452   3.925   6.602   2.445 -3.8658 -1.9562  2.2644
  848MOL0     H14453   3.960   6.466   2.535 -2.5073  0.2455 -2.3535
  848MOL0     H14454   3.784   6.633   2.630  0.5934 -1.3917  3.8695
  848MOL0     H14455   3.907   6.760   2.625 -2.6577  0.4522  1.1938
  848MOL0     H14456   3.935   6.502   2.788 -0.4455 -0.5743  1.7955
  848MOL0     H14457   4.022   6.651   2.805 -1.0621  1.3027 -1.8587
  848MOL0     H14458   3.737   6.597   2.895 -0.2932  0.8857  1.2315
  848MOL0     H14459   3.779   6.750   2.856 -2.2431 -1.4194 -0.1173
  848MOL0     H14460   3.821   6.693   3.118  2.3460 -1.9146  1.7040
  848MOL0     H14461   3.956   6.765   3.040  0.4896 -0.8001 -2.2493
  848MOL0     H14462   4.579   6.446   2.323  0.1136  0.7336 -0.0824
  848MOL0     H14463   4.807   6.506   2.266 -2.0435  0.9283 -2.6083
  848MOL0     H14464   5.134   6.523   2.320 -2.1571  3.2784 -0.7386
  848MOL0     H14465   5.360   6.500   2.246 -0.9954 -1.9519  1.2657
  848MOL0     H14466   6.852   7.323   2.492  0.2711 -0.8609 -0.9923
  848MOL0     H14467   7.059   7.305   2.584  0.6649  0.2768  1.2419
  848MOL0     H14468   7.326   7.571   3.050  1.4913 -0.4130  0.7672
  848MOL0     H14469   7.567   7.623   3.110 -0.7520  0.2287  0.6795
  848MOL0     H14470   7.876   7.568   2.851  1.5165 -0.2897 -0.5051
  848MOL0     H14471   7.866   7.737   2.807  0.3212  0.7033 -0.9198
  848MOL0     H14472   7.971   7.638   3.077 -4.7024 -3.9621 -2.2227
  848MOL0     H14473   7.970   7.810   3.024 -0.4342  0.0758  2.4882
  848MOL0     H14474   8.119   7.601   2.854 -4.6344  0.7130 -0.7306
  848MOL0     H14475   8.191   7.640   3.008  1.5119  2.2850  0.5402
  848MOL0     H14476   8.276   7.807   2.826 -2.6453  2.7243 -3.1720
  848MOL0     H14477   8.176   7.898   2.924 -0.4078  0.4865 -0.3391
  848MOL0     H14478   8.008   7.937   2.551 -1.3721 -1.9352 -1.5343
  848MOL0     H14479   7.654   7.715   2.713 -1.7416  1.3621  0.4664
  848MOL0     H14480   7.447   7.618   2.630  1.3977  0.1130 -0.1695
  849MOL0     O14481   6.721   3.452   9.916  0.7145 -0.5561  0.1820
  849MOL0     C14482   6.770   3.366   9.988 -0.6850 -0.0143  0.4143
  849MOL0     O14483   6.713   3.307  10.093  0.0868 -1.1227 -1.0569
  849MOL0     C14484   6.592   3.356  10.138  0.1634  0.6326 -0.0529
  849MOL0     C14485   6.572   3.487  10.179 -0.5735  0.4344  0.5832
  849MOL0     C14486   6.452   3.523  10.224  0.2318  0.1042  0.1463
  849MOL0     C14487   6.339   3.441  10.241 -0.5780 -0.6448  0.1407
  849MOL0     O14488   6.222   3.475  10.290 -0.1088  0.4113  0.2966
  849MOL0     C14489   6.189   3.618  10.312  0.2788 -0.1499  1.0854
  849MOL0     C14490   6.043   3.633  10.387 -0.2172 -0.1576  0.2125
  849MOL0     C14491   6.036   3.553  10.519  0.4252 -1.2289  0.4902
  849MOL0     C14492   5.890   3.519  10.554 -0.4396 -0.8729 -0.8563
  849MOL0     C14493   5.789   3.637  10.581 -0.5839  1.2999  0.6218
  849MOL0     C14494   5.649   3.575  10.609 -0.6174 -0.1074 -0.2994
  849MOL0     C14495   5.543   3.671  10.646  0.3566 -0.7536  0.0167
  849MOL0     C14496   5.410   3.604  10.682 -0.2080  0.4046 -0.2006
  849MOL0     N14497   5.302   3.695  10.719  0.5345  0.6843  0.0496
  849MOL0     C14498   5.247   3.797  10.643  0.2751  0.1430 -0.4231
  849MOL0     C14499   5.145   3.846  10.718 -0.4375 -0.4926  0.2625
  849MOL0     C14500   5.065   3.960  10.671  0.3531  0.9554 -0.6209
  849MOL0     C14501   5.010   3.957  10.528  0.0448 -0.0279 -0.4229
  849MOL0     C14502   4.900   4.056  10.512  0.2204  0.9423 -0.3516
  849MOL0     C14503   4.769   3.987  10.534 -0.1909  0.1028 -0.2314
  849MOL0     O14504   4.745   3.899  10.422 -0.7061  0.3789 -0.2823
  849MOL0     C14505   4.614   3.864  10.402  0.2525 -0.3869 -0.2890
  849MOL0     C14506   4.575   3.844  10.269 -0.4422  1.1252  0.1498
  849MOL0     C14507   4.441   3.822  10.227  0.1186  0.3606  0.3067
  849MOL0     C14508   4.422   3.779  10.084 -0.1326  0.8451 -0.0296
  849MOL0     C14509   4.332   3.821  10.328 -0.1752  0.1589  0.6298
  849MOL0     C14510   4.190   3.795  10.293  0.3762  0.1218  0.3507
  849MOL0     O14511   4.109   3.752  10.386 -0.3563 -0.3207 -0.1077
  849MOL0     C14512   3.976   3.720  10.360 -0.2606  0.3105  0.4765
  849MOL0     C14513   3.938   3.642  10.247 -1.2280  0.0687  0.0724
  849MOL0     C14514   3.807   3.594  10.240 -0.5202 -0.1218  0.3551
  849MOL0     C14515   3.704   3.633  10.327  0.2340 -0.6019 -0.0368
  849MOL0     O14516   3.576   3.591  10.311  0.4808  0.3246 -0.0569
  849MOL0     C14517   3.502   3.671  10.218 -1.1322 -0.2891  0.7804
  849MOL0     C14518   3.360   3.608  10.234 -0.1694  0.5493 -0.2578
  849MOL0     C14519   3.289   3.621  10.368  0.5483 -0.2375 -0.6132
  849MOL0     C14520   3.157   3.546  10.351  0.5681 -0.0214  0.3380
  849MOL0     C14521   3.061   3.630  10.267  0.2854 -0.8717 -0.9415
  849MOL0     C14522   2.917   3.600  10.286  0.0798  0.5048  0.7234
  849MOL0     C14523   2.876   3.500  10.176  0.1571  0.1726  0.0952
  849MOL0     C14524   2.729   3.450  10.184  0.1258  0.4076  0.1049
  849MOL0    Cl14525   2.728   3.351  10.328 -0.2949  0.0308 -0.4449
  849MOL0     C14526   3.738   3.705  10.440 -0.8280  0.1048 -0.5874
  849MOL0     C14527   3.879   3.739  10.455 -0.2533  0.8477  0.7956
  849MOL0     O14528   4.159   3.819  10.176  0.0395 -0.3400 -0.1455
  849MOL0     C14529   4.380   3.838  10.463 -0.2034  0.2974  0.1221
  849MOL0     C14530   4.511   3.861  10.501  0.1596 -1.2086  0.4145
  849MOL0     N14531   5.133   3.774  10.836 -0.3751 -0.9401 -0.2392
  849MOL0     N14532   5.234   3.689  10.832  0.1610 -1.3373 -0.3705
  849MOL0     C14533   6.359   3.309  10.192  0.0723 -0.9862  0.6198
  849MOL0     C14534   6.485   3.267  10.151 -0.7874 -0.2119 -0.4362
  849MOL0     C14535   6.901   3.303   9.956 -0.0635 -0.0307  0.2093
  849MOL0     C14536   6.940   3.176  10.022 -0.4101 -0.0354 -0.6757
  849MOL0     C14537   7.067   3.127  10.006  0.0412  0.9716  0.0961
  849MOL0     C14538   7.159   3.187   9.923  1.2079 -0.2820 -0.2813
  849MOL0     O14539   7.280   3.113   9.906  0.5040  0.4999 -0.0073
  849MOL0     C14540   7.387   3.172   9.818  0.3566 -0.0643 -0.5965
  849MOL0     C14541   7.525   3.107   9.844  0.0831 -0.2681  0.4043
  849MOL0     C14542   7.523   2.971   9.770 -0.1105  0.3061  0.1600
  849MOL0     C14543   7.640   2.883   9.823 -0.4559  0.1205  0.4880
  849MOL0     C14544   7.697   2.805   9.713 -0.8024 -0.1669 -0.8818
  849MOL0     C14545   7.749   2.760   9.612  0.5376  1.1595  1.0642
  849MOL0     C14546   7.115   3.304   9.849 -0.0669 -0.1680  0.1349
  849MOL0     C14547   6.989   3.358   9.857 -0.8507  0.1764 -0.6998
  849MOL0     H14548   6.650   3.563  10.172  1.3925 -1.5338  0.0396
  849MOL0     H14549   6.434   3.626  10.254 -2.4772 -0.8164  2.1142
  849MOL0     H14550   6.260   3.665  10.381  1.2730 -0.7902  0.5248
  849MOL0     H14551   6.181   3.666  10.214 -1.5326  0.2236  1.3787
  849MOL0     H14552   6.012   3.736  10.404  1.7297  0.4444  0.2926
  849MOL0     H14553   5.976   3.589  10.311 -1.1926  4.9116 -2.2988
  849MOL0     H14554   6.086   3.458  10.499  2.5453  0.0346 -0.5840
  849MOL0     H14555   6.082   3.610  10.600 -0.0527 -0.3425  0.1530
  849MOL0     H14556   5.844   3.464  10.471  0.9183  0.7579 -2.7644
  849MOL0     H14557   5.884   3.441  10.631 -3.0825  0.7584  0.7743
  849MOL0     H14558   5.826   3.685  10.672  1.1178  1.0990  0.0838
  849MOL0     H14559   5.792   3.707  10.497 -0.7594  2.3693  1.4930
  849MOL0     H14560   5.631   3.519  10.517 -2.1544 -0.4212  0.1729
  849MOL0     H14561   5.650   3.500  10.689 -0.0523  1.5694  1.3381
  849MOL0     H14562   5.567   3.725  10.738  0.4457  2.3991 -1.7350
  849MOL0     H14563   5.523   3.748  10.571 -0.2946 -2.4665 -1.6390
  849MOL0     H14564   5.431   3.530  10.760 -0.1577 -0.7985 -1.3141
  849MOL0     H14565   5.382   3.533  10.603 -2.8170  1.7233 -0.5725
  849MOL0     H14566   5.282   3.824  10.544 -1.7073  2.2167 -0.6396
  849MOL0     H14567   4.985   3.973  10.745  1.6196  1.2235  0.7586
  849MOL0     H14568   5.130   4.048  10.671  3.8825 -1.4289  1.6867
  849MOL0     H14569   4.983   3.855  10.497  0.9096 -0.0097 -1.2692
  849MOL0     H14570   5.089   3.989  10.460 -1.1945  4.3975 -0.0581
  849MOL0     H14571   4.906   4.086  10.407 -4.8164 -0.9326 -1.4310
  849MOL0     H14572   4.911   4.145  10.574  1.0357  2.8010 -2.9621
  849MOL0     H14573   4.688   4.059  10.543 -0.7724 -0.6455  0.8103
  849MOL0     H14574   4.764   3.930  10.628  1.2466 -0.2181 -0.3263
  849MOL0     H14575   4.660   3.833  10.202 -3.2260 -0.2542 -3.5349
  849MOL0     H14576   4.362   3.687  10.083  3.0974 -1.4981  2.3904
  849MOL0     H14577   4.389   3.857  10.014 -0.8989  2.0404  1.5896
  849MOL0     H14578   4.525   3.755  10.055 -0.0010  0.2474  0.8876
  849MOL0     H14579   4.013   3.612  10.174  0.6540 -0.8684  2.2528
  849MOL0     H14580   3.783   3.528  10.157 -1.5534  0.1661  0.4036
  849MOL0     H14581   3.514   3.775  10.250  0.1664  0.8345 -2.8872
  849MOL0     H14582   3.541   3.669  10.116  0.1872 -0.2440  1.2569
  849MOL0     H14583   3.290   3.646  10.158 -1.8255 -0.5320  0.6627
  849MOL0     H14584   3.379   3.502  10.212 -3.5394 -0.7143  1.9930
  849MOL0     H14585   3.274   3.728  10.382 -0.0367  0.3422 -4.4013
  849MOL0     H14586   3.338   3.575  10.454 -3.4701 -1.9377  1.0309
  849MOL0     H14587   3.171   3.454  10.294 -0.9209  1.5514 -2.7809
  849MOL0     H14588   3.124   3.523  10.453  2.8675  2.4890  1.8007
  849MOL0     H14589   3.094   3.639  10.163 -1.3776  0.3091 -1.4060
  849MOL0     H14590   3.073   3.732  10.306 -0.2402  0.0442 -3.0390
  849MOL0     H14591   2.903   3.565  10.389  1.6629  0.0452  0.8225
  849MOL0     H14592   2.853   3.688  10.275 -0.2276  0.1549 -0.3900
  849MOL0     H14593   2.959   3.429  10.166  3.0122  3.2078  0.5694
  849MOL0     H14594   2.875   3.554  10.081  1.5579  1.3661  0.7215
  849MOL0     H14595   2.722   3.389  10.094  0.9162  0.0790  0.2539
  849MOL0     H14596   2.656   3.531  10.184 -0.1727  0.1518 -0.8585
  849MOL0     H14597   3.663   3.737  10.511  2.6811  2.7582  2.3325
  849MOL0     H14598   3.906   3.802  10.539  1.0319  1.3979 -0.0057
  849MOL0     H14599   4.304   3.837  10.541 -1.6363 -0.4579 -1.2279
  849MOL0     H14600   4.527   3.888  10.605 -1.1667 -0.7619  0.5258
  849MOL0     H14601   6.285   3.229  10.196 -2.0544  0.7940 -0.8294
  849MOL0     H14602   6.492   3.159  10.138 -3.0567 -0.1952 -2.3677
  849MOL0     H14603   6.866   3.124  10.081 -1.9607 -3.3932 -5.0091
  849MOL0     H14604   7.088   3.029  10.049  3.1797  0.4916 -2.1532
  849MOL0     H14605   7.364   3.169   9.711 -0.9031 -1.3665 -0.3184
  849MOL0     H14606   7.393   3.280   9.832  0.5052 -0.2364  0.8665
  849MOL0     H14607   7.543   3.088   9.950  3.2953 -1.0691 -0.1570
  849MOL0     H14608   7.604   3.171   9.804 -0.9223  0.6613 -0.1417
  849MOL0     H14609   7.547   2.978   9.663 -2.1360  2.4954 -0.2347
  849MOL0     H14610   7.427   2.921   9.786  1.9947 -4.7075 -0.7769
  849MOL0     H14611   7.603   2.806   9.891 -1.8926 -0.5445 -0.9846
  849MOL0     H14612   7.721   2.943   9.866  0.4314 -1.5788  1.3098
  849MOL0     H14613   7.799   2.735   9.521 -0.3497 -1.9366  1.3255
  849MOL0     H14614   7.184   3.351   9.780  0.3595 -0.2287  0.5216
  849MOL0     H14615   6.954   3.447   9.805 -0.8473  2.3203  2.6182
  850MOL0     O14616   6.225   3.767   6.921  1.5674 -0.0308  0.4439
  850MOL0     C14617   6.200   3.650   6.897  0.4495  0.3407  0.7513
  850MOL0     O14618   6.070   3.598   6.862  0.5315  0.4769  0.3772
  850MOL0     C14619   5.950   3.677   6.872 -1.1643 -0.7410 -0.0640
  850MOL0     C14620   5.943   3.823   6.864  0.3751 -0.2022 -0.0192
  850MOL0     C14621   5.818   3.878   6.872 -0.0172  0.0564  0.7290
  850MOL0     C14622   5.704   3.796   6.885 -0.4438 -0.5527 -1.1475
  850MOL0     O14623   5.582   3.860   6.897 -0.2818  0.2103  0.8089
  850MOL0     C14624   5.465   3.788   6.865  0.2337 -0.0828 -0.4744
  850MOL0     C14625   5.354   3.890   6.869 -0.6357 -0.0860 -0.2792
  850MOL0     C14626   5.216   3.832   6.870 -0.0629  0.9160  0.2176
  850MOL0     C14627   5.126   3.938   6.810  0.4866  0.2802  0.4267
  850MOL0     C14628   4.978   3.886   6.782 -0.0925  0.3642 -0.7320
  850MOL0     C14629   4.907   3.991   6.705  0.4964  0.3672  0.3999
  850MOL0     C14630   4.758   3.947   6.675 -0.0509  0.2460 -0.0326
  850MOL0     C14631   4.745   3.869   6.544  0.1260 -0.1351 -0.2385
  850MOL0     N14632   4.609   3.869   6.491  0.4904 -0.1015 -0.7283
  850MOL0     C14633   4.568   3.822   6.363 -0.3810  0.5913 -0.2468
  850MOL0     C14634   4.427   3.815   6.366 -0.1027  0.1998  0.8663
  850MOL0     C14635   4.340   3.768   6.257  0.5665 -0.0196 -0.2988
  850MOL0     C14636   4.374   3.846   6.133 -0.4490 -0.5219  0.3368
  850MOL0     C14637   4.314   3.815   5.999 -0.6934  0.6846 -0.4988
  850MOL0     C14638   4.340   3.932   5.896  0.1556  0.8101  0.8601
  850MOL0     O14639   4.471   3.903   5.850 -0.2332  0.3881  0.0269
  850MOL0     C14640   4.562   4.001   5.813 -0.7259 -0.0549 -0.4441
  850MOL0     C14641   4.694   3.984   5.842 -0.4903 -0.2875 -0.1037
  850MOL0     C14642   4.790   4.073   5.786 -1.0287  0.5264  0.3561
  850MOL0     C14643   4.941   4.040   5.808  1.1313  0.1358 -0.5088
  850MOL0     C14644   4.742   4.184   5.707 -1.1922 -0.5688 -0.0752
  850MOL0     C14645   4.834   4.284   5.655  0.0376 -1.0097  0.1504
  850MOL0     O14646   4.812   4.418   5.676  0.0744 -0.8983 -0.1614
  850MOL0     C14647   4.911   4.515   5.655  0.3040 -0.6914  0.3639
  850MOL0     C14648   4.872   4.647   5.628 -0.8127  0.0848  0.2448
  850MOL0     C14649   4.967   4.750   5.610 -0.3647 -0.0699 -0.0986
  850MOL0     C14650   5.103   4.725   5.629 -0.6291 -0.2049 -0.1454
  850MOL0     O14651   5.183   4.824   5.599  0.3868 -0.3070  0.4663
  850MOL0     C14652   5.288   4.846   5.699  0.2684 -0.4734  1.2099
  850MOL0     C14653   5.398   4.928   5.637 -0.5804 -0.8873 -0.5639
  850MOL0     C14654   5.478   4.847   5.538  1.0186  0.2378 -0.7762
  850MOL0     C14655   5.575   4.925   5.453 -0.3142 -0.6487 -0.0236
  850MOL0     C14656   5.507   5.005   5.344 -0.1008  0.5101 -0.2645
  850MOL0     C14657   5.592   5.101   5.258 -0.2617 -0.5164 -0.6422
  850MOL0     C14658   5.708   5.047   5.182 -0.7582 -0.4606 -0.2163
  850MOL0     C14659   5.667   4.958   5.060  0.0459  0.1501 -0.2949
  850MOL0    Cl14660   5.574   5.058   4.931  0.0364  0.3420  0.3060
  850MOL0     C14661   5.136   4.595   5.673  0.0952  0.3494 -1.0280
  850MOL0     C14662   5.045   4.490   5.670  0.0880  1.1274 -0.6191
  850MOL0     O14663   4.920   4.237   5.586  0.0631  0.1539 -0.0733
  850MOL0     C14664   4.609   4.206   5.687  0.4935  0.3579 -0.0511
  850MOL0     C14665   4.521   4.116   5.744  0.1871  0.0221  0.2781
  850MOL0     N14666   4.386   3.873   6.495 -0.4672 -0.1477  0.9826
  850MOL0     N14667   4.497   3.910   6.556 -1.0849  0.2694 -0.7433
  850MOL0     C14668   5.704   3.660   6.890 -0.3675  0.9369  0.0641
  850MOL0     C14669   5.834   3.598   6.880  0.1034  0.1728  0.1908
  850MOL0     C14670   6.310   3.561   6.894  0.1340  0.8789  0.0604
  850MOL0     C14671   6.443   3.592   6.925 -0.0382 -0.5270  0.7540
  850MOL0     C14672   6.556   3.506   6.913 -0.6778 -0.3808  0.5212
  850MOL0     C14673   6.529   3.368   6.889 -0.4751  0.1210  0.3082
  850MOL0     O14674   6.631   3.271   6.882  0.4213 -0.7619 -0.3524
  850MOL0     C14675   6.771   3.293   6.917 -0.2823 -0.2564 -0.1270
  850MOL0     C14676   6.793   3.293   7.070  0.3149 -0.4002 -1.2711
  850MOL0     C14677   6.785   3.149   7.125  0.1939  0.8899 -0.3916
  850MOL0     C14678   6.908   3.063   7.101  0.1328  0.2019 -0.5058
  850MOL0     C14679   6.899   2.942   7.185 -0.6956 -1.2040 -0.4721
  850MOL0     C14680   6.879   2.843   7.251  0.2254 -0.3811 -0.2031
  850MOL0     C14681   6.396   3.318   6.864  0.1774  0.1545  0.5140
  850MOL0     C14682   6.288   3.415   6.862  0.4014 -1.4499 -0.6188
  850MOL0     H14683   6.034   3.882   6.851  0.5704 -0.5331 -0.1651
  850MOL0     H14684   5.806   3.985   6.854 -3.0638 -0.1942  0.7795
  850MOL0     H14685   5.473   3.740   6.766 -1.5034  1.6743 -1.5352
  850MOL0     H14686   5.455   3.712   6.942 -2.0585  1.5974  1.0088
  850MOL0     H14687   5.376   3.948   6.959 -1.0339  0.0294 -0.2534
  850MOL0     H14688   5.367   3.960   6.787 -1.3136  0.3356 -0.0397
  850MOL0     H14689   5.217   3.739   6.814 -1.8565 -2.2231  4.7924
  850MOL0     H14690   5.180   3.810   6.971 -2.0429  1.1060 -0.4015
  850MOL0     H14691   5.129   4.034   6.862 -0.7477 -0.0980  1.2333
  850MOL0     H14692   5.175   3.958   6.714  0.8749  0.8369  0.7342
  850MOL0     H14693   4.987   3.791   6.729  2.0297 -0.2368  0.5835
  850MOL0     H14694   4.919   3.876   6.874  2.2741 -1.5479  0.7000
  850MOL0     H14695   4.903   4.085   6.761  4.1501  1.3652 -0.7488
  850MOL0     H14696   4.972   4.004   6.618  1.2202 -1.2667  0.6659
  850MOL0     H14697   4.719   3.887   6.757 -0.2615 -0.0804 -0.3701
  850MOL0     H14698   4.701   4.040   6.668 -1.8456 -0.8216 -0.0171
  850MOL0     H14699   4.795   3.772   6.556  1.5261  0.6542  0.6639
  850MOL0     H14700   4.802   3.925   6.469  0.2073  0.0002 -0.0762
  850MOL0     H14701   4.641   3.783   6.293  2.2877  0.2368  2.5199
  850MOL0     H14702   4.349   3.664   6.225 -0.0275 -0.9476  2.3212
  850MOL0     H14703   4.235   3.785   6.283  0.6009  1.4743 -1.0298
  850MOL0     H14704   4.481   3.827   6.114  0.4548  0.6449  3.7263
  850MOL0     H14705   4.359   3.952   6.151 -3.0378 -0.4361 -1.7221
  850MOL0     H14706   4.206   3.803   6.012 -0.7827  1.1443 -0.8066
  850MOL0     H14707   4.347   3.719   5.958  1.5000 -2.0199  6.2371
  850MOL0     H14708   4.329   4.029   5.946  2.0773  2.9313 -2.4422
  850MOL0     H14709   4.275   3.918   5.809  1.7202  0.3464 -0.2604
  850MOL0     H14710   4.735   3.900   5.898 -0.4520 -0.3459 -0.2202
  850MOL0     H14711   4.946   3.995   5.907 -0.9424 -2.7519 -1.5810
  850MOL0     H14712   4.972   3.975   5.726  0.2716  0.6176 -1.2360
  850MOL0     H14713   5.002   4.131   5.814  0.5373  0.6511 -1.8319
  850MOL0     H14714   4.765   4.657   5.613 -0.9498 -0.9813  0.4227
  850MOL0     H14715   4.916   4.840   5.579  0.0970  0.3317  0.2726
  850MOL0     H14716   5.240   4.900   5.782  1.9861  2.1298  0.6428
  850MOL0     H14717   5.333   4.757   5.742  2.8194 -0.8271 -1.8600
  850MOL0     H14718   5.364   5.026   5.603 -0.2076 -0.1778  1.0142
  850MOL0     H14719   5.470   4.959   5.713 -1.8487  2.1520 -0.4710
  850MOL0     H14720   5.424   4.787   5.464  5.4616 -3.2000 -1.6335
  850MOL0     H14721   5.531   4.768   5.590  2.5086  0.6053 -1.6815
  850MOL0     H14722   5.631   4.997   5.512 -1.0521 -0.9318  1.0668
  850MOL0     H14723   5.651   4.857   5.413  1.7480  0.2764  2.0872
  850MOL0     H14724   5.427   5.058   5.395  0.3340  0.9920 -0.0717
  850MOL0     H14725   5.474   4.930   5.271  0.0395 -0.7363  0.9091
  850MOL0     H14726   5.522   5.162   5.201  0.6477  0.7142 -0.4770
  850MOL0     H14727   5.633   5.167   5.335  0.4020 -2.6678  0.9696
  850MOL0     H14728   5.767   4.985   5.251 -1.9610  0.0807  1.3557
  850MOL0     H14729   5.770   5.129   5.144  0.4208 -1.1934  0.0877
  850MOL0     H14730   5.603   4.881   5.103  2.0388 -0.0532  2.6548
  850MOL0     H14731   5.758   4.917   5.014  1.6517  0.9379  1.9912
  850MOL0     H14732   5.235   4.579   5.714 -1.3230  3.2808  4.5832
  850MOL0     H14733   5.077   4.388   5.685 -0.0919  1.3724  1.9652
  850MOL0     H14734   4.568   4.288   5.629 -0.4650  0.7909  1.1943
  850MOL0     H14735   4.414   4.129   5.734 -0.0778  0.2199  2.7512
  850MOL0     H14736   5.622   3.592   6.910  0.6342  0.5409  3.4791
  850MOL0     H14737   5.846   3.490   6.879  0.0811  0.1394  1.6662
  850MOL0     H14738   6.462   3.693   6.959  1.7355 -0.2787 -0.7840
  850MOL0     H14739   6.655   3.539   6.941  0.8988 -3.6071 -0.8040
  850MOL0     H14740   6.831   3.213   6.872 -2.4236 -1.3942 -1.1208
  850MOL0     H14741   6.812   3.389   6.885 -0.2652  0.6590  2.3789
  850MOL0     H14742   6.718   3.360   7.111  2.6495  0.8929  1.1548
  850MOL0     H14743   6.893   3.332   7.087  0.4831 -1.8300  1.6631
  850MOL0     H14744   6.693   3.103   7.088 -0.7892  1.9911  0.5613
  850MOL0     H14745   6.772   3.164   7.233  0.0441  3.6775 -0.7035
  850MOL0     H14746   6.997   3.126   7.113 -1.6927  2.9675 -0.4379
  850MOL0     H14747   6.902   3.028   6.998  0.5751 -1.7789  0.1009
  850MOL0     H14748   6.852   2.759   7.312 -0.8626  1.8019  2.5797
  850MOL0     H14749   6.375   3.217   6.828 -1.4613 -0.0366  1.8736
  850MOL0     H14750   6.187   3.389   6.834 -0.7791 -0.6438  2.4867
  851MOL0     O14751   8.756   4.084   1.884  0.0977  0.0978  0.2039
  851MOL0     C14752   8.868   4.042   1.879 -0.9548  0.4242  0.7219
  851MOL0     O14753   8.914   3.941   1.795 -1.3685 -0.2376 -0.6671
  851MOL0     C14754   8.827   3.896   1.708 -0.5139  0.2317  0.3100
  851MOL0     C14755   8.863   3.896   1.571 -0.3496  0.0501 -0.1406
  851MOL0     C14756   8.775   3.837   1.484 -0.5236 -0.5835  0.4781
  851MOL0     C14757   8.666   3.762   1.523 -0.2825  0.2438 -0.0903
  851MOL0     O14758   8.577   3.694   1.445 -0.0441  0.1575  0.1837
  851MOL0     C14759   8.629   3.596   1.359 -0.0552  0.6224  0.4233
  851MOL0     C14760   8.549   3.586   1.230 -0.2440  0.4991 -0.6314
  851MOL0     C14761   8.404   3.585   1.253  0.2352 -1.0641 -0.6367
  851MOL0     C14762   8.337   3.506   1.136  0.1147 -0.2737 -0.1739
  851MOL0     C14763   8.213   3.582   1.098  0.3317  0.4912  0.0284
  851MOL0     C14764   8.145   3.545   0.964 -0.0828  0.3730  0.1000
  851MOL0     C14765   8.109   3.400   0.958 -0.4135  0.2919  0.1947
  851MOL0     C14766   7.998   3.365   1.063 -0.3399  0.2932 -0.3261
  851MOL0     N14767   7.968   3.227   1.056  0.7614  0.0511  0.4263
  851MOL0     C14768   7.858   3.186   0.986  0.3386 -0.0952 -0.6016
  851MOL0     C14769   7.876   3.054   0.961  0.5378 -0.5190  0.5305
  851MOL0     C14770   7.777   2.961   0.894 -0.2643 -0.2807  0.3311
  851MOL0     C14771   7.650   2.934   0.969 -0.6296 -0.0108  0.0312
  851MOL0     C14772   7.564   3.060   0.979  0.8851  0.7377 -0.1594
  851MOL0     C14773   7.423   3.021   1.024 -0.3806  0.2231 -0.7602
  851MOL0     O14774   7.343   2.996   0.906  0.3801  1.1409 -0.3110
  851MOL0     C14775   7.209   3.026   0.911 -0.6082 -0.4831 -0.5137
  851MOL0     C14776   7.154   3.054   0.786  0.3570 -0.3889 -0.2971
  851MOL0     C14777   7.021   3.080   0.767  0.0178  0.3794  0.2903
  851MOL0     C14778   6.976   3.091   0.628  0.5156  0.1707  0.8649
  851MOL0     C14779   6.936   3.079   0.877  1.2508 -0.1412 -0.4376
  851MOL0     C14780   6.789   3.103   0.861  0.6624 -0.4072 -0.1821
  851MOL0     O14781   6.711   3.038   0.960  0.1515 -0.2833  1.0421
  851MOL0     C14782   6.575   3.035   0.948 -1.0794  0.6329  0.3235
  851MOL0     C14783   6.485   3.090   0.851 -0.7694  1.0655 -0.1817
  851MOL0     C14784   6.348   3.082   0.862  0.2951 -0.0171 -0.0726
  851MOL0     C14785   6.282   3.026   0.969  0.2449  0.0062  0.5909
  851MOL0     O14786   6.147   3.007   0.987 -0.2912 -0.2920 -0.2800
  851MOL0     C14787   6.063   3.028   0.877 -0.7123  0.4378 -0.1710
  851MOL0     C14788   5.949   3.128   0.913 -0.8441 -0.6436  0.0138
  851MOL0     C14789   5.839   3.061   1.006 -0.4423  0.7695  0.4537
  851MOL0     C14790   5.736   3.011   0.893 -1.0046 -0.1761  0.1791
  851MOL0     C14791   5.601   2.981   0.961  0.7822  0.4800 -0.9029
  851MOL0     C14792   5.492   3.014   0.854  0.0740  0.0037 -0.4520
  851MOL0     C14793   5.355   2.970   0.916 -0.5802  0.0680  0.1559
  851MOL0     C14794   5.257   2.962   0.809 -0.2026  1.0557  0.7917
  851MOL0    Cl14795   5.082   2.937   0.862  0.2936  0.0308 -0.0680
  851MOL0     C14796   6.368   2.978   1.070  0.4631 -0.6512  0.6423
  851MOL0     C14797   6.509   2.972   1.054  0.2483 -1.1248 -0.3769
  851MOL0     O14798   6.741   3.164   0.762 -1.3839  0.1491 -0.1230
  851MOL0     C14799   6.988   3.043   1.007 -0.4293 -0.2553  0.4507
  851MOL0     C14800   7.123   3.012   1.017  0.5343 -0.7173 -0.1011
  851MOL0     N14801   8.005   3.020   1.004  0.5922  0.3962  0.3024
  851MOL0     N14802   8.052   3.125   1.052  0.3180 -0.6075 -0.0128
  851MOL0     C14803   8.629   3.767   1.658 -0.1889 -0.1033  0.3844
  851MOL0     C14804   8.711   3.832   1.749 -0.5089  1.1069  0.6606
  851MOL0     C14805   8.966   4.129   1.954 -0.3015  0.1095 -0.0016
  851MOL0     C14806   8.926   4.205   2.066  0.1146 -0.2920  0.2472
  851MOL0     C14807   9.015   4.284   2.142 -0.1574  0.4611 -0.3579
  851MOL0     C14808   9.149   4.281   2.114 -0.9502 -0.4770  1.0786
  851MOL0     O14809   9.232   4.358   2.188 -0.4290 -0.1742 -0.2297
  851MOL0     C14810   9.378   4.358   2.161  0.5642  0.0969 -0.4133
  851MOL0     C14811   9.449   4.462   2.254  0.6370  0.4758 -0.0178
  851MOL0     C14812   9.411   4.457   2.411  0.9997 -0.0160 -0.2985
  851MOL0     C14813   9.523   4.522   2.496 -0.0864  0.0625 -0.2499
  851MOL0     C14814   9.660   4.452   2.502  0.3243  0.3675 -0.3617
  851MOL0     C14815   9.766   4.400   2.511  0.5770  0.1008 -0.6837
  851MOL0     C14816   9.194   4.191   2.015  0.7138 -0.2044 -0.2469
  851MOL0     C14817   9.103   4.122   1.935 -1.1928  0.1233 -0.0228
  851MOL0     H14818   8.950   3.949   1.533 -3.2044  2.8679 -3.4788
  851MOL0     H14819   8.787   3.856   1.378 -1.9594  1.9598  0.6798
  851MOL0     H14820   8.735   3.615   1.338 -0.1432  0.9013  0.2165
  851MOL0     H14821   8.635   3.504   1.417  0.7616 -0.2235 -0.9552
  851MOL0     H14822   8.570   3.667   1.160 -3.4240 -0.7050 -3.2028
  851MOL0     H14823   8.575   3.487   1.189 -0.5778  0.5228 -0.9062
  851MOL0     H14824   8.390   3.528   1.345  1.0564 -0.0717  0.1269
  851MOL0     H14825   8.359   3.684   1.261 -0.3132 -1.3894  0.7829
  851MOL0     H14826   8.400   3.524   1.048  2.1501  1.9565  1.6008
  851MOL0     H14827   8.314   3.401   1.156 -1.5508 -0.0524 -0.7343
  851MOL0     H14828   8.137   3.593   1.176  0.6292  0.1494  0.3702
  851MOL0     H14829   8.248   3.681   1.066  1.2449 -0.2499 -1.3249
  851MOL0     H14830   8.054   3.604   0.948 -0.4001 -0.2415 -0.3689
  851MOL0     H14831   8.216   3.571   0.885 -0.9033  0.8717 -0.4974
  851MOL0     H14832   8.079   3.371   0.857  1.4759 -3.8131  0.6168
  851MOL0     H14833   8.195   3.334   0.969 -2.3176 -2.8167 -2.0149
  851MOL0     H14834   7.905   3.423   1.061 -1.2691 -0.8491  2.8727
  851MOL0     H14835   8.046   3.379   1.160  0.1315 -2.5548 -0.0827
  851MOL0     H14836   7.772   3.250   0.968  0.7723  0.3265 -1.2064
  851MOL0     H14837   7.749   3.018   0.805  2.5016  0.7348  0.0071
  851MOL0     H14838   7.820   2.868   0.855  0.9777 -0.2544  1.5620
  851MOL0     H14839   7.675   2.890   1.066 -1.0017  1.0411  0.6191
  851MOL0     H14840   7.597   2.861   0.907 -1.8861 -0.5317  1.6400
  851MOL0     H14841   7.568   3.117   0.886  3.0843  0.7649 -0.0962
  851MOL0     H14842   7.598   3.133   1.052  1.2276  3.0978 -2.5168
  851MOL0     H14843   7.386   3.109   1.078  0.4690  0.1548 -0.0419
  851MOL0     H14844   7.430   2.943   1.099  0.5498  0.2550 -0.7939
  851MOL0     H14845   7.217   3.056   0.698 -1.6934  0.5619 -1.8239
  851MOL0     H14846   6.973   3.194   0.592  0.4661 -1.0030 -2.9314
  851MOL0     H14847   7.043   3.035   0.562 -0.8650 -1.1209  0.4986
  851MOL0     H14848   6.882   3.039   0.611 -0.3927  1.4489  1.7890
  851MOL0     H14849   6.525   3.123   0.755 -0.1607 -2.0139 -1.1111
  851MOL0     H14850   6.295   3.121   0.776 -0.8471 -2.8579 -0.7434
  851MOL0     H14851   6.115   3.054   0.784  3.9067 -2.3209  1.2834
  851MOL0     H14852   6.015   2.933   0.854 -2.1212  1.1320 -0.1967
  851MOL0     H14853   6.000   3.202   0.975  0.8138 -0.8590 -1.0502
  851MOL0     H14854   5.916   3.176   0.821  0.4500 -1.3875 -0.8642
  851MOL0     H14855   5.790   3.123   1.082 -1.8343  1.0112 -0.5785
  851MOL0     H14856   5.870   2.972   1.060  0.5532  0.4803 -0.5468
  851MOL0     H14857   5.730   3.081   0.808  2.2087 -1.5787 -1.3557
  851MOL0     H14858   5.781   2.921   0.850 -3.2417 -0.8935 -0.8139
  851MOL0     H14859   5.590   3.051   1.044 -0.8642  0.5060 -1.1205
  851MOL0     H14860   5.603   2.873   0.979  1.1641  0.7099  0.5912
  851MOL0     H14861   5.494   3.120   0.831  1.2612 -0.0159 -0.5168
  851MOL0     H14862   5.512   2.960   0.761 -0.3051  2.3628 -1.9847
  851MOL0     H14863   5.316   3.053   0.976  1.8412  2.0540 -0.8466
  851MOL0     H14864   5.374   2.889   0.988  1.9933  2.5786  2.5464
  851MOL0     H14865   5.273   2.877   0.742 -0.9083  1.8656 -0.4190
  851MOL0     H14866   5.264   3.053   0.750  2.8373  1.3030  1.4056
  851MOL0     H14867   6.327   2.933   1.160 -0.2366 -0.1448  0.5877
  851MOL0     H14868   6.558   2.930   1.141 -1.1536  1.0955  1.6053
  851MOL0     H14869   6.923   3.033   1.093 -0.6991 -1.7540  0.1076
  851MOL0     H14870   7.158   2.977   1.114  0.2894  1.7480  0.9726
  851MOL0     H14871   8.533   3.728   1.688 -0.2647  1.6824  2.7163
  851MOL0     H14872   8.669   3.842   1.849 -1.8582 -3.8892  0.8636
  851MOL0     H14873   8.820   4.217   2.089  0.6421 -1.3766  3.8167
  851MOL0     H14874   8.974   4.336   2.228 -0.9777 -0.5374 -0.1173
  851MOL0     H14875   9.421   4.260   2.182  0.6778 -0.2676 -2.2421
  851MOL0     H14876   9.393   4.381   2.056 -0.4873  0.9684 -0.3907
  851MOL0     H14877   9.461   4.558   2.205  3.8130 -0.9095 -2.3382
  851MOL0     H14878   9.555   4.433   2.255  0.1939 -1.2636 -0.1879
  851MOL0     H14879   9.377   4.357   2.442 -0.7440  1.0556  1.4719
  851MOL0     H14880   9.323   4.520   2.423  0.7896 -0.1283 -1.2292
  851MOL0     H14881   9.485   4.548   2.596  0.9898  0.3455  0.1037
  851MOL0     H14882   9.546   4.623   2.460  1.4238  0.7138  2.2797
  851MOL0     H14883   9.863   4.355   2.522  0.4051 -0.6466 -2.0870
  851MOL0     H14884   9.300   4.177   2.000  1.0526  1.9621 -0.1846
  851MOL0     H14885   9.142   4.059   1.856 -0.4526 -2.0643  2.0000
  852MOL0     O14886   6.683   3.106   9.453 -0.5066  0.0149  0.2576
  852MOL0     C14887   6.779   3.131   9.525 -0.3746  0.9511  0.6011
  852MOL0     O14888   6.844   3.257   9.535  0.4358  0.4070 -0.5094
  852MOL0     C14889   6.804   3.353   9.454  1.1569  0.1050  0.6670
  852MOL0     C14890   6.713   3.449   9.501 -0.1862  0.6114 -0.1186
  852MOL0     C14891   6.683   3.555   9.419 -0.1076 -0.3523 -0.2408
  852MOL0     C14892   6.726   3.561   9.285  0.3481  0.4870  0.0323
  852MOL0     O14893   6.687   3.663   9.202  0.0089  0.7927 -0.3460
  852MOL0     C14894   6.601   3.764   9.255 -0.7630 -0.0303  0.1161
  852MOL0     C14895   6.570   3.866   9.145  0.0786 -0.9693  0.3975
  852MOL0     C14896   6.525   3.995   9.211  0.1738 -0.2370 -0.4511
  852MOL0     C14897   6.459   4.088   9.109 -0.3883  0.4456  0.3629
  852MOL0     C14898   6.554   4.163   9.015  0.9063  0.2179  0.6871
  852MOL0     C14899   6.649   4.246   9.107  0.2583  0.5438 -0.4516
  852MOL0     C14900   6.710   4.358   9.033  0.2208  0.0337  0.0628
  852MOL0     C14901   6.770   4.468   9.118  0.0190  0.2558 -0.6965
  852MOL0     N14902   6.866   4.415   9.215  0.2083  0.1622  0.1164
  852MOL0     C14903   6.845   4.425   9.352  0.0101 -0.4222  0.6421
  852MOL0     C14904   6.961   4.413   9.414 -0.9607  0.6468  0.1731
  852MOL0     C14905   6.978   4.415   9.563 -0.5783 -0.0669  0.1112
  852MOL0     C14906   6.860   4.421   9.652 -0.3461 -0.5548 -0.4322
  852MOL0     C14907   6.892   4.470   9.800 -0.0265  0.9422 -0.0809
  852MOL0     C14908   6.778   4.535   9.877 -0.6950  0.0299 -0.0613
  852MOL0     O14909   6.683   4.438   9.911  0.4452  0.6044  0.0633
  852MOL0     C14910   6.582   4.477   9.988  0.1847  0.1117  0.4346
  852MOL0     C14911   6.564   4.598  10.060 -0.0638  0.3973 -0.7553
  852MOL0     C14912   6.452   4.631  10.137 -0.6016  0.5898 -0.7139
  852MOL0     C14913   6.448   4.763  10.200  0.5300 -0.1600 -0.3514
  852MOL0     C14914   6.345   4.545  10.152 -0.3713 -0.3360  0.6303
  852MOL0     C14915   6.212   4.574  10.226 -0.8454 -0.4614  0.9049
  852MOL0     O14916   6.094   4.539  10.158 -0.1428 -0.1448  0.6139
  852MOL0     C14917   5.971   4.548  10.227 -0.3359  0.1403  0.0612
  852MOL0     C14918   5.853   4.596  10.164  0.2969  0.1367  0.5783
  852MOL0     C14919   5.728   4.594  10.228  0.0176 -0.0422 -0.0817
  852MOL0     C14920   5.708   4.538  10.348  1.1525  0.7930 -0.0311
  852MOL0     O14921   5.581   4.547  10.408 -0.5495  0.1356 -0.6859
  852MOL0     C14922   5.594   4.556  10.549  0.2371  0.0000 -0.6788
  852MOL0     C14923   5.461   4.617  10.605  0.2937  1.4316 -0.4087
  852MOL0     C14924   5.484   4.678  10.739 -0.1445  0.7059 -0.2770
  852MOL0     C14925   5.372   4.777  10.768  0.8160  0.5986 -0.4521
  852MOL0     C14926   5.388   4.854  10.899 -0.2671  0.5092  0.0051
  852MOL0     C14927   5.262   4.922  10.941  0.3504 -0.6314  0.1725
  852MOL0     C14928   5.289   5.051  11.024  0.3048 -0.4737 -0.0452
  852MOL0     C14929   5.166   5.110  11.085  0.5247 -0.6041 -0.2343
  852MOL0    Cl14930   5.101   4.992  11.210 -0.0258 -0.0583 -0.0577
  852MOL0     C14931   5.820   4.478  10.404 -0.0754 -0.0430 -0.2174
  852MOL0     C14932   5.950   4.483  10.349  0.9128 -0.8724 -1.0585
  852MOL0     O14933   6.215   4.617  10.341  0.1368  0.0140  0.3859
  852MOL0     C14934   6.358   4.424  10.074 -0.0636 -0.6200 -0.4190
  852MOL0     C14935   6.465   4.382  10.001  0.7191  0.1202  0.6193
  852MOL0     N14936   7.053   4.390   9.308 -1.3238 -0.8560 -0.2755
  852MOL0     N14937   6.996   4.391   9.192  0.5483  0.3003  0.4718
  852MOL0     C14938   6.817   3.467   9.239 -0.1371 -0.1363  0.4836
  852MOL0     C14939   6.857   3.361   9.322 -0.1344 -0.0691  1.1902
  852MOL0     C14940   6.830   3.015   9.596 -0.4419  0.3439 -0.3862
  852MOL0     C14941   6.962   3.014   9.653  0.0711 -0.3838 -0.7771
  852MOL0     C14942   7.019   2.895   9.710 -0.2015 -0.6187 -0.3166
  852MOL0     C14943   6.938   2.779   9.723  0.0644  0.0904  0.1994
  852MOL0     O14944   6.972   2.662   9.787 -0.7140  0.4835  0.2392
  852MOL0     C14945   7.111   2.641   9.824  0.4965  0.3828  0.0439
  852MOL0     C14946   7.138   2.692   9.969  1.0053 -0.3517 -0.1580
  852MOL0     C14947   7.275   2.667  10.019  0.5938 -0.2244 -0.8825
  852MOL0     C14948   7.314   2.768  10.128  0.0966  0.1944  0.0670
  852MOL0     C14949   7.449   2.744  10.184 -0.9024  1.0759  0.8804
  852MOL0     C14950   7.566   2.745  10.224 -0.2782  0.7341 -0.7666
  852MOL0     C14951   6.813   2.779   9.661 -0.8059 -0.8490 -0.4510
  852MOL0     C14952   6.758   2.892   9.603 -0.5407 -0.4134  0.0152
  852MOL0     H14953   6.686   3.448   9.606 -0.2366  0.5132 -0.1321
  852MOL0     H14954   6.623   3.635   9.461 -0.7901 -0.7336 -0.4722
  852MOL0     H14955   6.513   3.705   9.279  0.4436 -1.4455  1.2153
  852MOL0     H14956   6.653   3.806   9.342 -1.7178  1.3956  0.0314
  852MOL0     H14957   6.658   3.900   9.089  1.4050  2.2213  3.9699
  852MOL0     H14958   6.498   3.822   9.075  1.9079 -2.2636 -0.7726
  852MOL0     H14959   6.459   3.960   9.290  1.1490 -0.5591  0.2338
  852MOL0     H14960   6.613   4.032   9.264 -1.6511  1.6336  1.4597
  852MOL0     H14961   6.388   4.033   9.047  0.6471 -0.7236  0.1744
  852MOL0     H14962   6.402   4.160   9.168  0.2768  1.2639  0.0416
  852MOL0     H14963   6.599   4.081   8.958  0.9095 -0.5638  1.7753
  852MOL0     H14964   6.496   4.233   8.954 -1.0894 -2.0734 -0.2438
  852MOL0     H14965   6.605   4.279   9.202 -0.0413 -4.5741  1.5241
  852MOL0     H14966   6.726   4.174   9.135  1.3753  1.0055 -2.1652
  852MOL0     H14967   6.792   4.310   8.979 -0.0658  0.4222 -0.7253
  852MOL0     H14968   6.641   4.396   8.958 -1.3816 -1.6440  0.5987
  852MOL0     H14969   6.689   4.526   9.163 -1.8309 -1.9775 -0.9553
  852MOL0     H14970   6.827   4.535   9.053 -0.3634  0.3607 -0.9277
  852MOL0     H14971   6.752   4.442   9.406  0.9659 -1.0546  2.5667
  852MOL0     H14972   7.035   4.326   9.589  2.5332  1.7100 -0.0685
  852MOL0     H14973   7.040   4.502   9.586 -1.4309  1.2646 -2.2753
  852MOL0     H14974   6.808   4.325   9.667 -0.0711 -0.2787  3.2120
  852MOL0     H14975   6.784   4.492   9.619 -4.6173 -2.7547  3.4231
  852MOL0     H14976   6.977   4.538   9.811 -0.2822  1.1815  0.4453
  852MOL0     H14977   6.919   4.377   9.852  3.3653  0.4409 -2.4144
  852MOL0     H14978   6.728   4.617   9.823 -0.5280  0.7117  0.7902
  852MOL0     H14979   6.822   4.590   9.961 -0.1504  0.1887 -0.4388
  852MOL0     H14980   6.643   4.672  10.054 -2.4783  3.0414 -2.6825
  852MOL0     H14981   6.449   4.753  10.309 -1.1742 -0.1865 -0.3085
  852MOL0     H14982   6.537   4.820  10.172  1.7519  0.2515  3.6870
  852MOL0     H14983   6.353   4.816  10.183  0.5044 -0.0207  0.2023
  852MOL0     H14984   5.855   4.631  10.061 -2.1174 -2.4600 -0.5226
  852MOL0     H14985   5.645   4.645  10.179 -0.0043 -0.2941 -0.3053
  852MOL0     H14986   5.595   4.457  10.595 -2.2923  0.2800  0.1058
  852MOL0     H14987   5.679   4.611  10.593 -1.7140 -0.5771  4.5663
  852MOL0     H14988   5.417   4.693  10.540 -1.2829  0.4706 -0.5378
  852MOL0     H14989   5.378   4.546  10.608 -0.0931  1.8912  1.2135
  852MOL0     H14990   5.581   4.728  10.727 -0.3217  1.0378 -0.3471
  852MOL0     H14991   5.495   4.606  10.820  6.2656  0.5874 -0.7790
  852MOL0     H14992   5.357   4.846  10.684  2.4444  1.5266 -0.0035
  852MOL0     H14993   5.281   4.720  10.791  2.3878 -1.6440  0.5201
  852MOL0     H14994   5.473   4.922  10.889  2.4425 -2.8401 -1.9928
  852MOL0     H14995   5.419   4.782  10.975 -2.4538  1.4154  1.8972
  852MOL0     H14996   5.204   4.955  10.855 -1.2953 -0.3698  1.3389
  852MOL0     H14997   5.190   4.856  10.991  1.0154 -2.5693 -1.2647
  852MOL0     H14998   5.344   5.126  10.965 -0.1564 -0.7973 -0.9061
  852MOL0     H14999   5.345   5.034  11.116 -0.7718  0.5555  0.8298
  852MOL0     H15000   5.089   5.126  11.008 -0.2098  0.2228  0.6492
  852MOL0     H15001   5.197   5.204  11.132  0.9790  0.0970 -1.8460
  852MOL0     H15002   5.802   4.426  10.498 -0.4605  0.9123  0.2476
  852MOL0     H15003   6.036   4.440  10.401  0.5286 -1.5275 -0.9495
  852MOL0     H15004   6.282   4.347  10.090 -0.2818 -0.7485 -1.8724
  852MOL0     H15005   6.475   4.287   9.950  2.3630 -0.1993  1.4513
  852MOL0     H15006   6.835   3.470   9.133 -2.2868  1.3422  0.1010
  852MOL0     H15007   6.914   3.277   9.282 -0.0459  0.7637 -0.5399
  852MOL0     H15008   7.012   3.111   9.652 -0.3955  0.0238  2.9556
  852MOL0     H15009   7.121   2.892   9.745  1.2734  1.6882 -3.8668
  852MOL0     H15010   7.121   2.532   9.815  1.1118  0.6047 -2.4768
  852MOL0     H15011   7.187   2.690   9.764 -0.1186  0.3403 -0.7935
  852MOL0     H15012   7.057   2.651  10.030  0.9687 -1.0911 -0.6989
  852MOL0     H15013   7.129   2.801   9.957  0.8395 -0.4615 -1.0923
  852MOL0     H15014   7.349   2.670   9.939  0.2489 -0.7598 -1.2326
  852MOL0     H15015   7.285   2.563  10.053  2.4084 -1.1422 -3.8414
  852MOL0     H15016   7.245   2.758  10.212  1.6489  0.1008  1.3743
  852MOL0     H15017   7.309   2.867  10.081 -0.7895  0.7784  1.3277
  852MOL0     H15018   7.664   2.740  10.269 -0.8953  0.5646  0.6300
  852MOL0     H15019   6.753   2.688   9.663  1.4585 -2.4430  1.5356
  852MOL0     H15020   6.663   2.881   9.552 -1.4900  1.6670  1.1960
  853MOL0     O15021   8.012   8.740   0.892 -0.6856 -0.2492 -0.0830
  853MOL0     C15022   7.991   8.856   0.857  0.6207  0.0406 -0.1877
  853MOL0     O15023   7.868   8.918   0.848  0.1314  0.0734  0.1375
  853MOL0     C15024   7.748   8.857   0.878  0.7557 -0.0386 -0.9467
  853MOL0     C15025   7.673   8.916   0.981 -0.6092  0.6150 -0.3292
  853MOL0     C15026   7.546   8.860   1.005 -0.5630  0.3677 -0.0544
  853MOL0     C15027   7.495   8.754   0.937 -0.7301 -0.1071  0.9464
  853MOL0     O15028   7.379   8.697   0.969  0.0259  0.0503  0.1980
  853MOL0     C15029   7.402   8.574   1.033 -1.1964  0.8948 -0.3856
  853MOL0     C15030   7.286   8.481   1.005  0.8489  0.7646 -0.3061
  853MOL0     C15031   7.151   8.508   1.076  0.1952 -0.3571  0.3296
  853MOL0     C15032   7.085   8.627   1.004  0.8740 -1.1851  0.6229
  853MOL0     C15033   6.942   8.657   1.058 -0.1988 -1.1238  0.4951
  853MOL0     C15034   6.878   8.787   1.010 -0.3470  0.3681  0.0210
  853MOL0     C15035   6.842   8.787   0.862 -0.4308  0.1755  1.0685
  853MOL0     C15036   6.805   8.927   0.809  0.5524  0.8966 -0.9261
  853MOL0     N15037   6.690   8.971   0.877  0.0994  0.0287 -1.1424
  853MOL0     C15038   6.696   9.034   1.010  0.0250  0.1289  0.7506
  853MOL0     C15039   6.568   9.047   1.044 -1.0519 -0.4273  0.2806
  853MOL0     C15040   6.514   9.101   1.172 -0.4952  0.0556 -0.0472
  853MOL0     C15041   6.546   9.254   1.191  0.7933  1.2180  0.0931
  853MOL0     C15042   6.497   9.355   1.087  1.1855  0.5529  0.6967
  853MOL0     C15043   6.351   9.347   1.074  0.2918 -0.3354  0.7412
  853MOL0     O15044   6.289   9.395   1.199 -0.5291  0.1391 -0.4578
  853MOL0     C15045   6.156   9.425   1.191 -0.3275  0.4205  0.2457
  853MOL0     C15046   6.104   9.545   1.246 -0.0053 -0.2534 -0.9850
  853MOL0     C15047   5.970   9.596   1.233 -0.0204  0.7041  0.3069
  853MOL0     C15048   5.937   9.733   1.282 -0.8364 -0.7100  0.0755
  853MOL0     C15049   5.883   9.516   1.156 -0.0029 -0.1045  0.2047
  853MOL0     C15050   5.740   9.553   1.125 -0.1211  0.0350  0.2943
  853MOL0     O15051   5.667   9.458   1.050 -0.5086 -0.0256  0.1538
  853MOL0     C15052   5.534   9.481   1.042 -0.6103  0.6486 -1.1434
  853MOL0     C15053   5.449   9.416   1.132 -0.1952 -0.9013 -0.4190
  853MOL0     C15054   5.313   9.427   1.116 -0.5732  0.2158  0.6529
  853MOL0     C15055   5.253   9.501   1.012  0.2216 -0.8128 -0.3029
  853MOL0     O15056   5.113   9.519   0.990 -0.9491  0.1196 -0.6787
  853MOL0     C15057   5.033   9.495   1.103  0.3418  0.8177  0.0216
  853MOL0     C15058   4.990   9.348   1.100 -0.1808 -0.3862 -0.6186
  853MOL0     C15059   4.942   9.311   1.239  0.4919 -0.3016 -0.3896
  853MOL0     C15060   4.796   9.342   1.259  0.6872 -0.4389 -0.2971
  853MOL0     C15061   4.758   9.307   1.406  0.2292  0.9960  0.0680
  853MOL0     C15062   4.610   9.337   1.414 -0.2539  0.7705 -0.1668
  853MOL0     C15063   4.533   9.231   1.496  1.1926  0.3467  0.9144
  853MOL0     C15064   4.381   9.265   1.502 -0.7389 -0.1691  0.9840
  853MOL0    Cl15065   4.297   9.148   1.612 -0.2885  0.2476 -0.3410
  853MOL0     C15066   5.341   9.577   0.937  0.3462 -0.1477  0.4060
  853MOL0     C15067   5.472   9.570   0.948  0.2845  0.6303  0.6029
  853MOL0     O15068   5.685   9.649   1.170 -0.3280  0.1272  0.4177
  853MOL0     C15069   5.933   9.389   1.108  0.4920 -0.0836  0.9837
  853MOL0     C15070   6.072   9.360   1.108  0.4355  0.5329  0.3061
  853MOL0     N15071   6.487   9.000   0.948  0.2535 -0.0083  0.3323
  853MOL0     N15072   6.552   8.945   0.858 -0.2188 -0.2402 -0.7095
  853MOL0     C15073   7.566   8.705   0.824 -0.5924  0.3043  0.1338
  853MOL0     C15074   7.697   8.749   0.802  0.6157  0.7709 -0.4385
  853MOL0     C15075   8.103   8.949   0.853 -0.2010  0.1624  0.4549
  853MOL0     C15076   8.240   8.924   0.887 -0.8147  0.5320  0.0614
  853MOL0     C15077   8.336   9.024   0.882  0.2136 -0.0312 -0.2064
  853MOL0     C15078   8.316   9.148   0.815  0.1506 -0.6303 -0.6185
  853MOL0     O15079   8.416   9.236   0.791 -0.0254  0.2761  0.0201
  853MOL0     C15080   8.553   9.203   0.820 -0.2976 -0.5737  0.0074
  853MOL0     C15081   8.633   9.322   0.781 -0.4530 -0.0389  0.4302
  853MOL0     C15082   8.777   9.298   0.791  0.2055 -0.2148  0.2135
  853MOL0     C15083   8.830   9.235   0.664 -0.2212  0.4893  0.4188
  853MOL0     C15084   8.969   9.178   0.687  0.1801  0.0696  0.9136
  853MOL0     C15085   9.081   9.139   0.704  0.3807  0.2738  0.0776
  853MOL0     C15086   8.187   9.175   0.779 -1.3818 -0.2644 -0.2006
  853MOL0     C15087   8.083   9.076   0.791  0.2354  0.0653 -0.5325
  853MOL0     H15088   7.701   9.010   1.027  0.8075  1.0099 -1.8886
  853MOL0     H15089   7.487   8.916   1.077 -2.3811  0.8184 -1.7849
  853MOL0     H15090   7.493   8.524   0.999 -2.6579 -2.6495  0.4330
  853MOL0     H15091   7.401   8.583   1.142 -2.5366  0.7214 -0.3681
  853MOL0     H15092   7.275   8.474   0.896 -0.6840  1.5180 -0.2308
  853MOL0     H15093   7.307   8.382   1.046 -0.7229  1.0839  1.4407
  853MOL0     H15094   7.079   8.426   1.064  0.9152 -0.9411 -0.0395
  853MOL0     H15095   7.184   8.534   1.177 -0.0046  2.3621 -0.2274
  853MOL0     H15096   7.131   8.721   1.035 -0.0335 -1.1164  1.8157
  853MOL0     H15097   7.088   8.620   0.895 -1.6645 -3.0682  0.5655
  853MOL0     H15098   6.877   8.578   1.018  0.2272 -0.7296 -1.0508
  853MOL0     H15099   6.930   8.648   1.166  0.6717 -1.9261  0.5342
  853MOL0     H15100   6.791   8.801   1.074  0.8245 -0.2606  1.8469
  853MOL0     H15101   6.945   8.874   1.021  1.8911 -1.4049  1.5185
  853MOL0     H15102   6.934   8.757   0.810 -0.5014  1.6458  0.0292
  853MOL0     H15103   6.761   8.717   0.840 -0.7133  1.1461 -1.3001
  853MOL0     H15104   6.783   8.912   0.703  4.0616 -2.0930 -1.4189
  853MOL0     H15105   6.887   9.000   0.815 -0.1146  1.6305 -0.5491
  853MOL0     H15106   6.785   9.072   1.058  1.6580 -1.9685 -0.4572
  853MOL0     H15107   6.407   9.082   1.157 -0.0395 -0.7317 -2.7558
  853MOL0     H15108   6.557   9.037   1.250 -0.0856 -1.4077 -1.4348
  853MOL0     H15109   6.654   9.246   1.182  0.7621 -3.2756  1.5965
  853MOL0     H15110   6.521   9.280   1.294  1.8877  1.1673  0.3780
  853MOL0     H15111   6.532   9.328   0.987  0.4790  4.3088 -0.6943
  853MOL0     H15112   6.526   9.458   1.109 -0.0065  0.5415  2.5867
  853MOL0     H15113   6.321   9.244   1.055  0.0943 -0.6158  2.4507
  853MOL0     H15114   6.315   9.422   1.003  0.6532 -0.5116  0.3641
  853MOL0     H15115   6.185   9.603   1.290  1.4362 -0.7194 -2.8765
  853MOL0     H15116   5.884   9.798   1.213 -0.7813  0.4197  1.0603
  853MOL0     H15117   5.871   9.733   1.370 -2.9054  1.3128 -1.3689
  853MOL0     H15118   6.033   9.780   1.307 -0.6095  1.0341 -3.5348
  853MOL0     H15119   5.487   9.355   1.214  1.1165  0.2950 -0.1021
  853MOL0     H15120   5.248   9.369   1.181  1.1159 -1.0180  1.3293
  853MOL0     H15121   5.080   9.526   1.197  3.5310  0.2692 -1.2653
  853MOL0     H15122   4.939   9.551   1.092 -0.7602 -1.1353 -1.0695
  853MOL0     H15123   4.924   9.337   1.014 -0.0239  1.4518 -1.0204
  853MOL0     H15124   5.080   9.287   1.085 -0.2813 -1.9326  3.6384
  853MOL0     H15125   4.998   9.362   1.317 -3.5655 -0.7182  3.1548
  853MOL0     H15126   4.954   9.205   1.264  3.4071 -0.2955 -1.4329
  853MOL0     H15127   4.779   9.449   1.244 -1.2981 -0.1450  3.1146
  853MOL0     H15128   4.737   9.283   1.188 -0.4186 -1.0349  1.0639
  853MOL0     H15129   4.809   9.380   1.469 -3.2089  1.8226  2.1958
  853MOL0     H15130   4.781   9.202   1.425 -0.2310 -0.0158 -4.1252
  853MOL0     H15131   4.594   9.437   1.455  1.7708  1.3086 -0.5644
  853MOL0     H15132   4.566   9.331   1.314  1.0611 -4.8521 -0.7115
  853MOL0     H15133   4.574   9.223   1.597  3.1773 -0.8706  0.0657
  853MOL0     H15134   4.539   9.136   1.444  0.0422  0.9699 -0.4388
  853MOL0     H15135   4.339   9.260   1.401 -2.5503  1.0792  1.6166
  853MOL0     H15136   4.374   9.371   1.531  0.1985  0.4762 -0.9695
  853MOL0     H15137   5.291   9.650   0.874  1.9977  0.0727 -0.7043
  853MOL0     H15138   5.519   9.647   0.888  0.6176  1.9051  2.3848
  853MOL0     H15139   5.875   9.333   1.036  0.7128  2.9348 -1.7520
  853MOL0     H15140   6.111   9.275   1.053  2.1334  1.8028 -0.5472
  853MOL0     H15141   7.514   8.627   0.769  1.1029 -0.9760  0.2918
  853MOL0     H15142   7.759   8.706   0.724  0.9404 -1.8975  1.1645
  853MOL0     H15143   8.265   8.823   0.919  0.1446  0.7301 -0.0401
  853MOL0     H15144   8.430   9.010   0.934 -1.6151  0.9241  3.7528
  853MOL0     H15145   8.569   9.155   0.918  1.2752 -4.0857 -1.7965
  853MOL0     H15146   8.583   9.129   0.746 -1.8242 -0.9910 -0.2283
  853MOL0     H15147   8.615   9.401   0.855 -3.0948  2.1245 -2.2513
  853MOL0     H15148   8.600   9.351   0.681  1.9055  0.1705 -0.3249
  853MOL0     H15149   8.804   9.241   0.880  1.5424  0.8322  0.5062
  853MOL0     H15150   8.816   9.398   0.815  3.0253 -1.8762  3.3000
  853MOL0     H15151   8.846   9.304   0.580  1.4841  0.1330  0.4157
  853MOL0     H15152   8.764   9.152   0.636 -1.6965  1.8726 -0.3753
  853MOL0     H15153   9.177   9.104   0.735  0.4982  0.7557  0.2760
  853MOL0     H15154   8.171   9.275   0.741 -0.6682 -0.0133  0.1566
  853MOL0     H15155   7.987   9.105   0.748 -0.0503 -1.3856 -0.9156
  854MOL0     O15156   1.920  11.313   7.966 -0.7109  0.5697  0.0988
  854MOL0     C15157   1.942  11.232   8.055 -1.1786 -0.4708 -0.6494
  854MOL0     O15158   1.847  11.152   8.113 -0.5870  0.0091 -0.2165
  854MOL0     C15159   1.720  11.142   8.058 -0.0577 -0.1228  1.0612
  854MOL0     C15160   1.607  11.145   8.142  0.2456  0.7916  0.3274
  854MOL0     C15161   1.476  11.159   8.095  0.3697  0.5655  0.6363
  854MOL0     C15162   1.453  11.143   7.957 -0.6810 -0.1963 -0.4109
  854MOL0     O15163   1.330  11.167   7.903 -0.6131  0.0574  0.0051
  854MOL0     C15164   1.207  11.170   7.968  0.4558  0.2329  0.3007
  854MOL0     C15165   1.112  11.264   7.887 -1.2487  0.1648  0.4286
  854MOL0     C15166   0.977  11.260   7.949  1.0755 -0.1002  1.2214
  854MOL0     C15167   0.890  11.370   7.900 -0.0820  0.0210  0.0910
  854MOL0     C15168   0.747  11.336   7.932  0.1183  0.2880 -0.1152
  854MOL0     C15169   0.667  11.470   7.915  0.1790 -0.1737  0.9492
  854MOL0     C15170   0.530  11.449   7.978  0.0737  0.1182 -0.7026
  854MOL0     C15171   0.461  11.584   7.988 -0.4558  0.1178  0.1930
  854MOL0     N15172   0.357  11.579   8.082 -0.4125  0.5553  0.1196
  854MOL0     C15173   0.250  11.499   8.064 -0.2288  0.3306 -0.4868
  854MOL0     C15174   0.169  11.518   8.170 -0.2630 -1.2796 -0.7286
  854MOL0     C15175   0.017  11.486   8.182 -0.9666 -0.3537  0.2278
  854MOL0     C15176  -0.057  11.508   8.049 -0.5638  0.0163 -0.0715
  854MOL0     C15177  -0.066  11.660   8.016  0.3027 -0.0458  0.3561
  854MOL0     C15178  -0.214  11.678   7.999  0.2805 -0.5691 -0.0123
  854MOL0     O15179  -0.245  11.826   7.978 -0.5589  1.1169  0.5727
  854MOL0     C15180  -0.377  11.853   7.966  1.2909  0.1003 -0.5657
  854MOL0     C15181  -0.426  11.985   7.933 -0.3574  1.0318  0.0893
  854MOL0     C15182  -0.556  12.027   7.904  0.1119 -0.5389 -0.3955
  854MOL0     C15183  -0.567  12.169   7.846 -0.2114 -0.1421 -0.3537
  854MOL0     C15184  -0.656  11.930   7.939 -0.2303 -0.5069 -0.1898
  854MOL0     C15185  -0.799  11.966   7.933 -0.2689  0.1622  0.4042
  854MOL0     O15186  -0.880  11.874   7.991  0.1436 -0.4047 -0.3773
  854MOL0     C15187  -1.010  11.902   7.978  0.1780 -0.2192  0.4119
  854MOL0     C15188  -1.091  11.833   7.888  0.0643 -0.5755  0.4045
  854MOL0     C15189  -1.230  11.859   7.886  0.0047  0.5212  0.2751
  854MOL0     C15190  -1.293  11.922   7.985 -0.1031 -0.3652  0.5973
  854MOL0     O15191  -1.425  11.929   7.979  0.4903 -0.3983 -0.1288
  854MOL0     C15192  -1.488  12.052   8.001 -0.4476 -0.0116 -0.0742
  854MOL0     C15193  -1.639  12.032   8.001  1.1095  1.0290  0.3921
  854MOL0     C15194  -1.706  12.158   8.050 -0.1648 -0.0018  0.1212
  854MOL0     C15195  -1.858  12.124   8.068 -0.0364 -0.7463 -0.1466
  854MOL0     C15196  -1.943  12.245   8.135 -0.5638 -0.2157  0.5436
  854MOL0     C15197  -1.932  12.260   8.279 -0.1922 -0.4719  0.5350
  854MOL0     C15198  -1.829  12.348   8.345 -0.5135  0.3238 -0.2071
  854MOL0     C15199  -1.851  12.343   8.499  0.0108 -0.0870 -1.3375
  854MOL0    Cl15200  -1.990  12.447   8.543  0.0494  0.1909 -0.0985
  854MOL0     C15201  -1.213  11.977   8.089 -0.6657  0.2047  0.1279
  854MOL0     C15202  -1.072  11.964   8.083 -0.1054  0.1264 -0.6806
  854MOL0     O15203  -0.833  12.052   7.859  0.0331 -0.5264  0.1347
  854MOL0     C15204  -0.618  11.798   7.981  1.0682 -0.1794 -0.1096
  854MOL0     C15205  -0.488  11.769   8.000 -0.9327  0.0403  0.0768
  854MOL0     N15206   0.237  11.599   8.264  0.2602  1.0288 -0.3850
  854MOL0     N15207   0.335  11.649   8.196 -0.7266 -0.0160 -0.2100
  854MOL0     C15208   1.566  11.133   7.876  0.4748 -0.1872 -0.7018
  854MOL0     C15209   1.697  11.133   7.923 -0.0571  0.1738 -0.0420
  854MOL0     C15210   2.074  11.228   8.119 -0.2016 -0.8459 -1.1636
  854MOL0     C15211   2.110  11.192   8.252  0.8543  0.0722 -0.4596
  854MOL0     C15212   2.239  11.190   8.297 -0.2538 -0.6667 -0.2229
  854MOL0     C15213   2.346  11.211   8.214  0.0555 -1.0376 -1.6442
  854MOL0     O15214   2.476  11.178   8.252  0.4939  1.2811  1.0007
  854MOL0     C15215   2.523  11.156   8.388 -0.9855  0.9765 -0.6608
  854MOL0     C15216   2.660  11.083   8.396 -0.6922 -0.5510 -0.8632
  854MOL0     C15217   2.770  11.171   8.333 -0.1696 -0.0354  0.1897
  854MOL0     C15218   2.871  11.095   8.264  0.8027 -0.3818  0.1530
  854MOL0     C15219   2.967  11.186   8.203 -0.3329  0.7090  0.4077
  854MOL0     C15220   3.050  11.254   8.152 -0.5310 -0.1995 -0.4968
  854MOL0     C15221   2.316  11.247   8.085 -0.2559 -1.0528  0.1231
  854MOL0     C15222   2.187  11.250   8.035 -0.2177 -0.1069  0.1660
  854MOL0     H15223   1.601  11.153   8.250 -2.9461  0.0337  0.3021
  854MOL0     H15224   1.390  11.166   8.160 -0.1244  0.3605  0.0132
  854MOL0     H15225   1.165  11.069   7.970  3.9594 -1.4828 -2.1194
  854MOL0     H15226   1.211  11.210   8.070  1.2248  1.7561 -0.2927
  854MOL0     H15227   1.150  11.366   7.901 -0.4098  0.0019 -0.6106
  854MOL0     H15228   1.108  11.234   7.782  0.1034  1.9590 -0.1774
  854MOL0     H15229   0.938  11.160   7.926  0.9064 -0.5473  3.3056
  854MOL0     H15230   0.986  11.269   8.057  0.1019  2.3090  1.1705
  854MOL0     H15231   0.922  11.471   7.931 -0.6771 -0.1726  1.4252
  854MOL0     H15232   0.903  11.361   7.792  0.5361  0.1892  0.1451
  854MOL0     H15233   0.710  11.263   7.859 -0.4867  1.2578 -0.8145
  854MOL0     H15234   0.745  11.291   8.031  0.8789  1.3831  0.4166
  854MOL0     H15235   0.720  11.548   7.969  0.6871  0.1706 -0.0324
  854MOL0     H15236   0.668  11.510   7.814 -0.0532 -1.7266  0.3053
  854MOL0     H15237   0.470  11.374   7.926  0.3601  0.0843 -0.9884
  854MOL0     H15238   0.548  11.424   8.083 -0.7617  4.6408  0.7397
  854MOL0     H15239   0.414  11.616   7.894 -1.0272 -0.1610  0.3806
  854MOL0     H15240   0.532  11.660   8.020 -0.9993 -0.5822  3.3216
  854MOL0     H15241   0.215  11.449   7.975  0.6062  2.1484 -1.9041
  854MOL0     H15242  -0.007  11.380   8.195 -0.4595 -0.5438 -0.3250
  854MOL0     H15243  -0.031  11.548   8.259 -0.1841  2.5492 -1.4491
  854MOL0     H15244  -0.151  11.452   8.048 -0.3155 -0.4001 -0.4787
  854MOL0     H15245   0.005  11.470   7.967  2.3879  0.8308  1.6047
  854MOL0     H15246  -0.017  11.682   7.921 -1.3891 -2.3038 -1.1785
  854MOL0     H15247  -0.024  11.729   8.090 -2.2719  4.4741 -1.9564
  854MOL0     H15248  -0.261  11.635   8.088 -1.5057 -0.3348 -0.8144
  854MOL0     H15249  -0.259  11.634   7.910 -1.3156 -1.1927  1.0600
  854MOL0     H15250  -0.356  12.065   7.909 -0.7327  0.3132 -4.2497
  854MOL0     H15251  -0.606  12.249   7.910  2.2983  1.6002 -0.8475
  854MOL0     H15252  -0.465  12.202   7.824  0.5309 -2.3952 -0.5472
  854MOL0     H15253  -0.630  12.169   7.756  1.9762 -1.0776 -2.0049
  854MOL0     H15254  -1.048  11.761   7.820 -0.3430 -0.2491 -0.2103
  854MOL0     H15255  -1.285  11.808   7.808 -1.3665 -3.8451  3.6479
  854MOL0     H15256  -1.458  12.111   8.087 -0.8844 -0.2553  0.2512
  854MOL0     H15257  -1.455  12.113   7.916  1.9169 -1.7327 -0.4844
  854MOL0     H15258  -1.673  11.991   7.905  2.6779  1.0091 -0.1895
  854MOL0     H15259  -1.660  11.951   8.071 -0.0910  0.3156 -0.7374
  854MOL0     H15260  -1.696  12.251   7.994  2.3316  1.8504  3.2471
  854MOL0     H15261  -1.664  12.181   8.149 -0.1067 -1.3508  0.4306
  854MOL0     H15262  -1.892  12.107   7.965 -1.6967 -0.9491  0.3995
  854MOL0     H15263  -1.871  12.035   8.131 -1.4976  1.4168  2.8422
  854MOL0     H15264  -2.048  12.232   8.105 -0.6831 -0.2008  0.9389
  854MOL0     H15265  -1.907  12.335   8.086  0.0664 -1.3993 -1.2942
  854MOL0     H15266  -2.033  12.283   8.316 -0.5248 -1.0902  0.0260
  854MOL0     H15267  -1.925  12.159   8.320  3.3690 -1.3265 -1.7566
  854MOL0     H15268  -1.818  12.451   8.311  0.0828  1.5074  3.2726
  854MOL0     H15269  -1.732  12.298   8.329  0.4132  2.2054 -0.8442
  854MOL0     H15270  -1.756  12.381   8.539 -0.4316 -0.5235  0.2085
  854MOL0     H15271  -1.861  12.244   8.543  0.9198  1.0155  1.5862
  854MOL0     H15272  -1.263  12.032   8.168  0.7406 -0.1748  1.3286
  854MOL0     H15273  -1.007  11.997   8.163  1.4055 -1.4749 -1.1929
  854MOL0     H15274  -0.685  11.715   7.999  4.3226 -3.2838 -1.0533
  854MOL0     H15275  -0.465  11.675   8.048  0.5198 -0.2386 -1.0930
  854MOL0     H15276   1.553  11.138   7.769 -2.2642 -0.5790 -0.4646
  854MOL0     H15277   1.782  11.129   7.855  1.8486 -2.2815  2.2436
  854MOL0     H15278   2.026  11.165   8.316  0.1808 -1.3613 -1.8830
  854MOL0     H15279   2.264  11.171   8.401  1.0080  0.0792 -0.3771
  854MOL0     H15280   2.532  11.248   8.448 -0.3640 -0.4144  1.5177
  854MOL0     H15281   2.446  11.101   8.442 -2.1971  0.6816 -2.6401
  854MOL0     H15282   2.649  10.992   8.336 -1.6344  0.1385 -1.7652
  854MOL0     H15283   2.680  11.045   8.497  2.4041 -1.7950 -1.8395
  854MOL0     H15284   2.803  11.238   8.413 -0.2445  0.0695  0.1342
  854MOL0     H15285   2.726  11.242   8.263  3.5531  1.9928 -0.2909
  854MOL0     H15286   2.824  11.031   8.188  0.5405 -1.1889  0.9839
  854MOL0     H15287   2.918  11.020   8.327 -0.9840 -1.0950  0.7052
  854MOL0     H15288   3.136  11.304   8.112 -0.2753  1.0537  1.5032
  854MOL0     H15289   2.407  11.274   8.031  0.7082 -3.0804  0.6556
  854MOL0     H15290   2.172  11.276   7.931  0.9899 -0.8022 -0.2000
  855MOL0     O15291   3.168   1.489   4.445  0.1864 -0.1831  0.0726
  855MOL0     C15292   3.218   1.569   4.522  0.7118 -0.6785 -0.3878
  855MOL0     O15293   3.147   1.665   4.600 -0.1874 -0.1160 -0.4644
  855MOL0     C15294   3.019   1.638   4.642  0.0101  0.2494 -0.2315
  855MOL0     C15295   2.909   1.719   4.598  0.1453  0.3756  0.2882
  855MOL0     C15296   2.778   1.689   4.634  0.2266  0.4246 -0.4234
  855MOL0     C15297   2.748   1.575   4.719  0.1641 -0.5077  0.1260
  855MOL0     O15298   2.621   1.553   4.752 -0.7439 -0.4359  0.4420
  855MOL0     C15299   2.541   1.477   4.662 -1.0999 -0.3130 -0.2189
  855MOL0     C15300   2.403   1.475   4.713  0.5854 -0.6996 -0.9192
  855MOL0     C15301   2.295   1.414   4.625 -0.4117 -0.2237  1.0340
  855MOL0     C15302   2.161   1.358   4.687 -0.2539 -0.1154 -0.0336
  855MOL0     C15303   2.073   1.324   4.569  0.1084  0.3922 -1.3449
  855MOL0     C15304   1.922   1.316   4.606 -0.3305  0.5189  0.4626
  855MOL0     C15305   1.836   1.268   4.481  0.4170 -0.6015 -1.3973
  855MOL0     C15306   1.685   1.256   4.511 -0.0079  0.2178 -0.8005
  855MOL0     N15307   1.606   1.180   4.417 -0.0169  0.0564 -0.1345
  855MOL0     C15308   1.534   1.231   4.314  0.1832 -0.0613 -0.1041
  855MOL0     C15309   1.472   1.116   4.262  1.0086 -1.0695  0.1987
  855MOL0     C15310   1.355   1.104   4.168 -0.1656 -0.5831  0.5453
  855MOL0     C15311   1.222   1.081   4.253 -0.5942 -0.2478 -0.3018
  855MOL0     C15312   1.097   1.100   4.162 -0.5336 -0.5565  0.1606
  855MOL0     C15313   0.965   1.058   4.226 -0.0677 -1.3398  0.5599
  855MOL0     O15314   0.885   0.992   4.122 -0.1874 -0.4353 -0.5494
  855MOL0     C15315   0.778   1.057   4.064  0.0606 -0.0542  0.0996
  855MOL0     C15316   0.690   1.139   4.138 -0.1708 -0.2824 -0.2577
  855MOL0     C15317   0.587   1.202   4.068 -0.1065  1.5624 -0.0432
  855MOL0     C15318   0.473   1.262   4.147 -0.5213 -0.2437  0.1253
  855MOL0     C15319   0.594   1.208   3.922 -0.4201 -0.2213 -0.8071
  855MOL0     C15320   0.513   1.290   3.831  0.2613  0.0621  0.9306
  855MOL0     O15321   0.537   1.283   3.692 -0.3161 -0.4591 -0.0758
  855MOL0     C15322   0.441   1.329   3.607  0.9312 -1.1503 -0.0159
  855MOL0     C15323   0.478   1.399   3.497 -0.2981  0.6720 -0.1989
  855MOL0     C15324   0.388   1.430   3.394 -0.1456  0.0766  0.3696
  855MOL0     C15325   0.263   1.368   3.386 -0.0007  0.8525  0.1813
  855MOL0     O15326   0.182   1.369   3.280  0.2346  0.2252  0.1739
  855MOL0     C15327   0.160   1.495   3.228 -0.3550 -0.0928 -0.6326
  855MOL0     C15328   0.046   1.485   3.129 -0.3636 -0.2931 -0.0979
  855MOL0     C15329  -0.099   1.503   3.189 -0.4341  0.6375  1.2372
  855MOL0     C15330  -0.201   1.468   3.075  0.2576  0.3766 -0.0593
  855MOL0     C15331  -0.348   1.464   3.134 -0.5144 -0.1967 -0.6239
  855MOL0     C15332  -0.405   1.603   3.144  0.0928  0.1325  0.3823
  855MOL0     C15333  -0.551   1.587   3.176  1.1518  0.2784  0.0248
  855MOL0     C15334  -0.604   1.719   3.231  1.2157 -0.2371  0.0408
  855MOL0    Cl15335  -0.682   1.808   3.099 -0.0953  0.0696  0.4006
  855MOL0     C15336   0.223   1.310   3.508 -0.2942 -0.3176  0.4987
  855MOL0     C15337   0.306   1.295   3.620  1.1729 -0.5417  0.0914
  855MOL0     O15338   0.410   1.346   3.882 -0.9400  0.1590  0.4827
  855MOL0     C15339   0.677   1.114   3.858  0.0565 -0.6950 -0.1897
  855MOL0     C15340   0.761   1.029   3.934 -0.6097  0.2825  1.1974
  855MOL0     N15341   1.522   1.008   4.324 -0.2297  0.6329  1.0160
  855MOL0     N15342   1.617   1.048   4.401 -0.5624  0.1398  1.1905
  855MOL0     C15343   2.854   1.498   4.766 -0.1573  0.4864  0.5519
  855MOL0     C15344   2.991   1.527   4.730  0.6483  0.3398  0.0591
  855MOL0     C15345   3.369   1.575   4.507  0.3875  0.6705 -0.0927
  855MOL0     C15346   3.438   1.665   4.592  0.3522  0.2063  1.5545
  855MOL0     C15347   3.574   1.670   4.586  0.3656  0.5868 -0.0806
  855MOL0     C15348   3.642   1.597   4.488 -0.3003 -0.5477  0.7629
  855MOL0     O15349   3.775   1.627   4.485 -0.3434 -0.3782  0.5003
  855MOL0     C15350   3.871   1.540   4.414 -0.4518 -0.2017  0.0301
  855MOL0     C15351   4.021   1.584   4.430  0.9829  0.1462 -0.3236
  855MOL0     C15352   4.123   1.513   4.341  0.5826  0.6169 -0.2546
  855MOL0     C15353   4.266   1.579   4.373 -0.0875  1.2149 -0.5759
  855MOL0     C15354   4.303   1.549   4.512  1.0208  0.5124  0.1898
  855MOL0     C15355   4.369   1.543   4.611 -0.0543 -0.1173 -0.5430
  855MOL0     C15356   3.574   1.523   4.390 -1.2346  0.0644  0.1980
  855MOL0     C15357   3.432   1.504   4.411  0.3237  0.2959  0.8445
  855MOL0     H15358   2.933   1.796   4.526  0.8786 -1.4401 -1.4893
  855MOL0     H15359   2.693   1.749   4.605 -1.3025  0.3671  3.3712
  855MOL0     H15360   2.541   1.525   4.563 -0.0998 -1.3965 -0.7674
  855MOL0     H15361   2.580   1.376   4.646  2.8778  1.2109 -1.2908
  855MOL0     H15362   2.386   1.426   4.809  0.9527  2.5544  0.9280
  855MOL0     H15363   2.375   1.579   4.732  2.0655 -0.7292  1.8360
  855MOL0     H15364   2.263   1.489   4.553  1.1724 -0.6256 -0.1546
  855MOL0     H15365   2.338   1.322   4.583 -2.0649 -0.8050  0.5160
  855MOL0     H15366   2.181   1.263   4.738  1.4330  0.4865  0.5021
  855MOL0     H15367   2.128   1.434   4.758 -1.3676 -0.5966 -0.0053
  855MOL0     H15368   2.082   1.412   4.505  3.5277  1.3451  0.2012
  855MOL0     H15369   2.114   1.239   4.513  1.2467  0.6150 -0.8702
  855MOL0     H15370   1.904   1.255   4.696 -0.1609  1.3118  1.0473
  855MOL0     H15371   1.886   1.412   4.643 -4.1863 -0.2639 -0.7849
  855MOL0     H15372   1.850   1.336   4.396  3.9745 -1.3005 -1.5369
  855MOL0     H15373   1.888   1.176   4.452  1.1554 -0.0090 -2.0000
  855MOL0     H15374   1.639   1.355   4.518 -0.8040 -0.2463  1.2531
  855MOL0     H15375   1.668   1.213   4.610 -3.0777  0.3130 -1.1831
  855MOL0     H15376   1.510   1.333   4.285 -0.2036 -0.8131 -2.6323
  855MOL0     H15377   1.356   1.197   4.111 -0.1543 -0.3713  0.8917
  855MOL0     H15378   1.373   1.012   4.111 -2.5669 -1.9326  1.7830
  855MOL0     H15379   1.216   1.160   4.329 -2.8230 -2.9323  2.5854
  855MOL0     H15380   1.223   0.983   4.302  0.7955 -0.1199 -0.0182
  855MOL0     H15381   1.119   1.028   4.083 -0.3267 -0.8705  0.5019
  855MOL0     H15382   1.091   1.204   4.130 -1.5017 -0.3250  1.0459
  855MOL0     H15383   0.917   1.134   4.289 -1.8021 -1.9714  0.0536
  855MOL0     H15384   0.986   0.985   4.304  2.3023 -1.7940 -0.4362
  855MOL0     H15385   0.704   1.136   4.245  3.7104 -0.4828 -0.6571
  855MOL0     H15386   0.392   1.189   4.160 -1.3449  0.2876 -1.7153
  855MOL0     H15387   0.506   1.284   4.248  2.2390  0.8305 -0.9219
  855MOL0     H15388   0.426   1.356   4.116 -0.1158  0.6620  2.0927
  855MOL0     H15389   0.578   1.440   3.486  1.0431 -2.4979 -1.1451
  855MOL0     H15390   0.427   1.490   3.312 -0.7592  0.4541  0.3464
  855MOL0     H15391   0.149   1.573   3.304  2.6558 -0.0836 -0.0834
  855MOL0     H15392   0.253   1.519   3.175 -0.2945 -1.2122 -1.0619
  855MOL0     H15393   0.066   1.565   3.058  3.6389  0.2194  1.3255
  855MOL0     H15394   0.057   1.385   3.087 -1.1357 -0.2486 -0.4151
  855MOL0     H15395  -0.120   1.606   3.221 -0.8075  2.0068 -2.7870
  855MOL0     H15396  -0.114   1.433   3.272  0.0590 -0.4858  0.4067
  855MOL0     H15397  -0.194   1.543   2.996  0.5980  0.4302  0.0218
  855MOL0     H15398  -0.179   1.370   3.032 -0.6137  0.5935 -1.0412
  855MOL0     H15399  -0.340   1.415   3.232 -1.3534 -1.9202 -1.3739
  855MOL0     H15400  -0.414   1.395   3.080  1.0732 -2.5623  0.2962
  855MOL0     H15401  -0.352   1.660   3.222 -0.3040  0.5380  0.3611
  855MOL0     H15402  -0.398   1.668   3.057  0.0736  0.6773  0.7823
  855MOL0     H15403  -0.551   1.525   3.266  2.1128  0.8583  0.4373
  855MOL0     H15404  -0.618   1.539   3.104 -0.0613  2.1762 -0.1733
  855MOL0     H15405  -0.522   1.774   3.278  0.9745  0.2014 -0.0495
  855MOL0     H15406  -0.681   1.700   3.307 -1.1136  1.0307 -1.8800
  855MOL0     H15407   0.124   1.266   3.506 -0.6501  0.4697  0.0049
  855MOL0     H15408   0.270   1.231   3.699  2.3139 -0.8789  0.3553
  855MOL0     H15409   0.684   1.106   3.750  1.1438  1.0668 -0.3001
  855MOL0     H15410   0.820   0.963   3.871 -1.7506  1.9411 -1.8509
  855MOL0     H15411   2.830   1.419   4.837 -3.6080  3.3386  2.9296
  855MOL0     H15412   3.070   1.463   4.766 -1.1181 -0.3493  3.1193
  855MOL0     H15413   3.378   1.720   4.664  0.5875 -0.4215  2.2446
  855MOL0     H15414   3.633   1.731   4.654  1.2401  1.1589 -1.2985
  855MOL0     H15415   3.857   1.446   4.467 -0.5855  0.4521  1.1820
  855MOL0     H15416   3.843   1.535   4.308 -0.8320 -0.5252  0.1432
  855MOL0     H15417   4.050   1.573   4.535 -2.6462  0.5405  0.8523
  855MOL0     H15418   4.023   1.693   4.422 -0.5991  0.4202  1.9101
  855MOL0     H15419   4.094   1.522   4.236 -0.3086  1.2237  0.0300
  855MOL0     H15420   4.125   1.407   4.367 -1.5553 -0.3143 -3.3470
  855MOL0     H15421   4.260   1.688   4.365 -2.0337  1.0547 -2.0774
  855MOL0     H15422   4.351   1.538   4.319  0.6207 -1.2343  2.1322
  855MOL0     H15423   4.416   1.514   4.703 -1.4067 -1.7484 -0.3120
  855MOL0     H15424   3.642   1.489   4.313 -1.2671  2.4827 -0.9828
  855MOL0     H15425   3.383   1.442   4.337  0.6112  1.9893 -0.8216
  856MOL0     O15426   4.772   7.469   6.059  0.1135 -0.0893 -0.1316
  856MOL0     C15427   4.771   7.365   6.129  0.0814  0.3161 -0.0439
  856MOL0     O15428   4.679   7.262   6.127  0.2883 -0.3705  0.3133
  856MOL0     C15429   4.568   7.261   6.036 -0.0808 -0.4682 -0.3114
  856MOL0     C15430   4.528   7.143   5.989  0.3262  0.4036 -0.3589
  856MOL0     C15431   4.415   7.129   5.908 -0.1389 -0.7776  0.2793
  856MOL0     C15432   4.338   7.243   5.869  0.0957  0.1443  0.3633
  856MOL0     O15433   4.226   7.240   5.789 -0.4868 -0.6784  0.0390
  856MOL0     C15434   4.195   7.135   5.697 -1.0375  0.4629  0.0498
  856MOL0     C15435   4.093   7.036   5.747  0.2565 -0.4820 -0.4366
  856MOL0     C15436   3.962   7.119   5.760  0.4716  0.5723 -0.2781
  856MOL0     C15437   3.851   7.012   5.727 -1.1975 -0.7826 -0.0483
  856MOL0     C15438   3.722   7.081   5.736 -0.0724 -0.4436  0.1012
  856MOL0     C15439   3.610   6.986   5.700  1.1767  0.6067 -0.9436
  856MOL0     C15440   3.479   7.057   5.732  0.0014  0.0772 -0.9233
  856MOL0     C15441   3.361   6.981   5.673  0.3850 -0.1353  0.1062
  856MOL0     N15442   3.230   7.040   5.703 -0.3328  0.3649  0.3123
  856MOL0     C15443   3.171   7.040   5.828  0.4556  0.0138 -0.6595
  856MOL0     C15444   3.079   7.141   5.824  0.1471 -0.0881 -0.6527
  856MOL0     C15445   2.967   7.167   5.925  0.4083 -0.2496  0.2779
  856MOL0     C15446   3.015   7.260   6.041  0.6690  0.8067 -0.4133
  856MOL0     C15447   3.130   7.210   6.131  0.5677 -0.7520  0.5644
  856MOL0     C15448   3.094   7.076   6.209  1.0203 -0.9110  0.3734
  856MOL0     O15449   2.978   7.111   6.291  0.2049 -0.9166  0.1143
  856MOL0     C15450   2.912   7.017   6.361  0.3440  0.2820 -0.8296
  856MOL0     C15451   2.983   6.934   6.445  0.2334 -0.5478 -0.3590
  856MOL0     C15452   2.912   6.839   6.524 -0.8540  0.2549  0.2284
  856MOL0     C15453   2.995   6.751   6.626  0.2732 -0.1971 -0.5455
  856MOL0     C15454   2.770   6.838   6.521  0.1925  0.4715  0.5576
  856MOL0     C15455   2.690   6.745   6.603  0.1826  0.0937  0.8325
  856MOL0     O15456   2.598   6.789   6.695 -0.2609  0.2933  0.1059
  856MOL0     C15457   2.601   6.919   6.728  0.0398 -0.2267  0.5276
  856MOL0     C15458   2.498   6.994   6.678  0.2548  0.2498 -0.6021
  856MOL0     C15459   2.477   7.119   6.719  0.1386  0.4768 -0.4175
  856MOL0     C15460   2.571   7.180   6.812  0.0326 -0.7212 -0.1519
  856MOL0     O15461   2.580   7.309   6.857 -0.5256  0.4597 -0.1041
  856MOL0     C15462   2.452   7.368   6.873 -0.4266 -1.6732  0.3749
  856MOL0     C15463   2.456   7.480   6.980 -0.0959  0.1549  0.1885
  856MOL0     C15464   2.544   7.592   6.922 -0.2373  0.1660 -0.2611
  856MOL0     C15465   2.631   7.633   7.048 -0.2393  0.3821 -0.0083
  856MOL0     C15466   2.714   7.765   7.039 -0.6943 -0.1181  0.3679
  856MOL0     C15467   2.796   7.799   7.162 -0.7053 -0.3709  0.5879
  856MOL0     C15468   2.710   7.874   7.270 -0.3174  1.1070  0.3765
  856MOL0     C15469   2.788   7.877   7.396 -1.1101  1.1340 -0.1244
  856MOL0    Cl15470   2.672   7.914   7.529  0.2661  0.0055 -0.2137
  856MOL0     C15471   2.677   7.103   6.859 -0.2024 -0.1610  0.7754
  856MOL0     C15472   2.697   6.976   6.809  0.6536 -0.0783 -0.3858
  856MOL0     O15473   2.718   6.629   6.587 -0.2972  0.3699  0.4844
  856MOL0     C15474   2.707   6.927   6.428 -0.7927  0.2528 -0.5000
  856MOL0     C15475   2.776   7.022   6.363 -0.4126 -0.1605 -0.5691
  856MOL0     N15476   3.092   7.207   5.703 -0.3079  0.5079 -0.1140
  856MOL0     N15477   3.185   7.145   5.634 -0.8339  0.0853 -0.4190
  856MOL0     C15478   4.375   7.366   5.923 -0.9907  0.4569  0.4075
  856MOL0     C15479   4.492   7.376   6.001 -0.6064  0.0470  0.0362
  856MOL0     C15480   4.891   7.334   6.215  0.0625  0.6619  0.3995
  856MOL0     C15481   4.924   7.198   6.251  0.2501 -0.4930  0.2165
  856MOL0     C15482   5.036   7.169   6.329 -0.6471 -0.2398 -0.3020
  856MOL0     C15483   5.121   7.276   6.367 -0.3925  0.7836 -0.3045
  856MOL0     O15484   5.233   7.254   6.442  0.3944  0.1650 -0.7000
  856MOL0     C15485   5.344   7.343   6.442 -1.3813 -0.1631 -0.6206
  856MOL0     C15486   5.436   7.319   6.324 -0.0444  0.4244 -0.2548
  856MOL0     C15487   5.557   7.405   6.319  0.1122 -0.8807 -0.2268
  856MOL0     C15488   5.516   7.550   6.279  0.3481 -0.6538  0.3009
  856MOL0     C15489   5.651   7.618   6.278 -0.4477 -1.5114 -0.0026
  856MOL0     C15490   5.760   7.666   6.291 -0.1665 -0.3239 -0.0205
  856MOL0     C15491   5.092   7.408   6.317 -0.4705  0.4401  0.5747
  856MOL0     C15492   4.976   7.437   6.255  0.5522 -0.7748 -0.0569
  856MOL0     H15493   4.586   7.058   6.023  2.3506  1.6297 -0.6207
  856MOL0     H15494   4.385   7.029   5.877 -1.5279 -0.3187  0.0412
  856MOL0     H15495   4.167   7.185   5.604  1.0328  0.5483 -0.5800
  856MOL0     H15496   4.285   7.075   5.683 -2.4708 -1.5770 -0.8653
  856MOL0     H15497   4.083   6.947   5.683  0.2319  0.8643 -2.3824
  856MOL0     H15498   4.115   7.003   5.849 -0.4899  1.0616  0.2520
  856MOL0     H15499   3.949   7.166   5.858  2.2572  0.9780 -0.2021
  856MOL0     H15500   3.946   7.190   5.678 -1.2708 -1.1867 -1.5716
  856MOL0     H15501   3.875   6.983   5.624  0.2745 -0.1155  0.0785
  856MOL0     H15502   3.858   6.924   5.791  0.6829 -0.2084  0.5994
  856MOL0     H15503   3.700   7.123   5.835 -1.8445  0.0965 -0.4799
  856MOL0     H15504   3.717   7.168   5.670 -0.2547 -0.2082  0.4221
  856MOL0     H15505   3.617   6.971   5.592  2.6200  1.8945 -1.0587
  856MOL0     H15506   3.614   6.891   5.754 -1.4170  1.4585  1.0044
  856MOL0     H15507   3.464   7.051   5.840 -0.2370  4.1979 -0.5725
  856MOL0     H15508   3.480   7.162   5.702 -0.6708  0.1022 -0.8695
  856MOL0     H15509   3.361   6.874   5.697  0.2718  0.4098  2.7746
  856MOL0     H15510   3.358   6.979   5.563 -2.0232 -0.9122  0.1159
  856MOL0     H15511   3.197   6.978   5.913 -2.1727 -2.4191 -1.4814
  856MOL0     H15512   2.884   7.219   5.874 -0.3834 -0.3034  1.4664
  856MOL0     H15513   2.925   7.074   5.964 -0.6985 -0.4971 -1.3600
  856MOL0     H15514   2.926   7.272   6.104  0.6888 -3.4480  0.7420
  856MOL0     H15515   3.041   7.354   5.993 -2.0612  2.1962  0.6226
  856MOL0     H15516   3.148   7.291   6.202 -1.6334 -0.9955  1.5038
  856MOL0     H15517   3.217   7.199   6.067 -2.1531 -1.7087 -3.3627
  856MOL0     H15518   3.168   7.036   6.279 -0.8894  0.3611  3.3031
  856MOL0     H15519   3.069   6.992   6.142 -1.0627 -1.7258  2.0636
  856MOL0     H15520   3.091   6.946   6.452  0.0051  0.5565  1.8014
  856MOL0     H15521   2.953   6.753   6.727 -2.3343 -0.8663 -1.5350
  856MOL0     H15522   2.985   6.649   6.588 -4.5393 -0.0702 -0.3015
  856MOL0     H15523   3.097   6.788   6.636 -0.2936  0.8130  3.6789
  856MOL0     H15524   2.431   6.952   6.604 -1.4691  0.8934  0.5419
  856MOL0     H15525   2.399   7.170   6.663  0.7934  2.3785  0.3025
  856MOL0     H15526   2.421   7.414   6.778  1.6090 -1.1956 -0.1196
  856MOL0     H15527   2.382   7.293   6.909 -0.8995 -1.8792 -0.9200
  856MOL0     H15528   2.357   7.519   7.005  0.5238  2.3412 -0.5838
  856MOL0     H15529   2.487   7.433   7.074  1.5799  1.1686  0.1785
  856MOL0     H15530   2.483   7.677   6.888  0.6957  1.2408  0.6564
  856MOL0     H15531   2.613   7.562   6.842 -1.5040 -0.2705 -1.2132
  856MOL0     H15532   2.560   7.649   7.130 -1.1094 -2.2374 -0.1762
  856MOL0     H15533   2.698   7.551   7.075  1.1045  0.6674 -2.2351
  856MOL0     H15534   2.647   7.846   7.007  0.8794  1.1609  0.1703
  856MOL0     H15535   2.789   7.751   6.961  2.3456  1.1179  2.8165
  856MOL0     H15536   2.841   7.706   7.196 -0.9323 -2.0072 -3.1017
  856MOL0     H15537   2.872   7.865   7.118 -2.5605  1.5511  0.0363
  856MOL0     H15538   2.612   7.829   7.287 -0.8883  2.5946  1.2233
  856MOL0     H15539   2.692   7.976   7.234 -5.0006  0.9000  1.5322
  856MOL0     H15540   2.883   7.932   7.390 -0.2658  0.2579  2.9672
  856MOL0     H15541   2.828   7.777   7.416 -0.1299  0.9502 -2.6796
  856MOL0     H15542   2.747   7.133   6.937  0.2683  1.6675 -0.2996
  856MOL0     H15543   2.787   6.924   6.843  1.6989  1.9841  0.1429
  856MOL0     H15544   2.598   6.934   6.430 -0.9124 -1.2465 -0.5977
  856MOL0     H15545   2.716   7.091   6.305 -0.3830  0.6411  0.3181
  856MOL0     H15546   4.320   7.456   5.898 -0.9294 -0.0566 -1.7233
  856MOL0     H15547   4.512   7.475   6.039  1.3263  0.4361 -1.7883
  856MOL0     H15548   4.877   7.111   6.206  1.7721 -1.9848  1.3903
  856MOL0     H15549   5.062   7.064   6.343 -1.2270 -0.3347  0.1140
  856MOL0     H15550   5.326   7.450   6.449  1.7151  0.5894 -2.2437
  856MOL0     H15551   5.403   7.320   6.532 -0.5493 -0.6564 -1.2725
  856MOL0     H15552   5.380   7.328   6.231  0.8297  0.3561 -0.8073
  856MOL0     H15553   5.475   7.217   6.335  0.7711  0.8046  0.6020
  856MOL0     H15554   5.636   7.370   6.252  0.3951 -1.0878  0.2187
  856MOL0     H15555   5.604   7.414   6.417  0.6817  2.8055 -0.6986
  856MOL0     H15556   5.449   7.591   6.355  2.3017  2.5051  0.4787
  856MOL0     H15557   5.462   7.558   6.184 -2.9054  0.6164  2.0975
  856MOL0     H15558   5.865   7.686   6.300  0.5069 -2.0475 -2.8295
  856MOL0     H15559   5.146   7.498   6.342 -1.1468  1.7388 -2.2133
  856MOL0     H15560   4.955   7.540   6.226  3.0587 -1.1904 -4.2259
  857MOL0     O15561   5.492   3.581   7.160  0.5105 -0.7150  0.4805
  857MOL0     C15562   5.520   3.462   7.121 -0.0464 -0.4976 -0.6127
  857MOL0     O15563   5.430   3.390   7.050 -0.0630  0.3709 -0.1232
  857MOL0     C15564   5.298   3.434   7.028 -0.4488  0.0967  0.3153
  857MOL0     C15565   5.214   3.473   7.136  0.6270  1.5512 -0.1794
  857MOL0     C15566   5.083   3.513   7.104 -0.6439 -0.2920  0.5969
  857MOL0     C15567   5.036   3.512   6.972  0.0716  0.0308 -0.5427
  857MOL0     O15568   4.910   3.572   6.965  0.1565  0.0341 -0.1519
  857MOL0     C15569   4.829   3.522   6.860  0.1281  0.6766  0.3030
  857MOL0     C15570   4.682   3.559   6.893 -0.0041  0.8570 -0.8954
  857MOL0     C15571   4.573   3.518   6.790 -0.3126  0.5776  0.7826
  857MOL0     C15572   4.433   3.576   6.817  0.5569  0.4210  0.3778
  857MOL0     C15573   4.322   3.511   6.737  0.5611 -0.1545  0.6284
  857MOL0     C15574   4.346   3.534   6.588 -0.1948 -0.0845 -0.8472
  857MOL0     C15575   4.208   3.509   6.522 -0.1037  0.4019  0.3028
  857MOL0     C15576   4.100   3.619   6.528  0.5599  0.2309  0.8628
  857MOL0     N15577   3.986   3.577   6.443  0.5285  0.4438  0.2096
  857MOL0     C15578   3.870   3.518   6.481  0.0887  0.4053 -0.0059
  857MOL0     C15579   3.798   3.488   6.365  0.4125 -2.0828 -0.4218
  857MOL0     C15580   3.663   3.429   6.371 -0.4498  0.1643  0.5483
  857MOL0     C15581   3.654   3.293   6.433  0.0972 -0.0735  0.0699
  857MOL0     C15582   3.744   3.196   6.344 -0.1444 -0.5443 -0.3939
  857MOL0     C15583   3.752   3.058   6.418  0.4434  0.6555  0.4124
  857MOL0     O15584   3.622   2.996   6.422 -0.3903 -0.1597 -0.5413
  857MOL0     C15585   3.572   2.916   6.326 -0.1385  0.7070 -0.3362
  857MOL0     C15586   3.457   2.842   6.342  0.3976 -0.1406  0.1402
  857MOL0     C15587   3.401   2.761   6.236  0.2741  0.2510  0.7740
  857MOL0     C15588   3.266   2.688   6.258  1.0607 -0.0194 -0.3248
  857MOL0     C15589   3.484   2.744   6.121  0.5040  0.2898  0.2898
  857MOL0     C15590   3.452   2.659   6.000  0.3815  0.4779  0.1365
  857MOL0     O15591   3.511   2.685   5.881  0.0457  0.3700 -0.0451
  857MOL0     C15592   3.481   2.610   5.774 -0.3668 -0.1074 -0.0621
  857MOL0     C15593   3.565   2.497   5.747  0.5606 -1.0210  0.3840
  857MOL0     C15594   3.539   2.414   5.637  0.0649 -0.7112  0.3782
  857MOL0     C15595   3.436   2.443   5.548 -0.6234  0.0886  0.2096
  857MOL0     O15596   3.403   2.374   5.435  0.0784 -0.0514  0.5959
  857MOL0     C15597   3.504   2.288   5.389 -0.0813  0.0295 -1.1073
  857MOL0     C15598   3.460   2.211   5.265 -0.8794 -0.4889  0.1566
  857MOL0     C15599   3.340   2.122   5.306 -0.1163 -0.0275  0.1241
  857MOL0     C15600   3.268   2.063   5.185 -1.0721 -0.6115  0.9447
  857MOL0     C15601   3.175   1.955   5.227 -0.0026 -0.3244  0.4484
  857MOL0     C15602   3.097   1.968   5.362 -0.1757  0.3055 -0.1275
  857MOL0     C15603   3.038   1.833   5.404  0.0038 -0.0858 -0.6800
  857MOL0     C15604   2.900   1.843   5.461 -0.2014 -0.3645 -0.5231
  857MOL0    Cl15605   2.894   1.820   5.649 -0.2627 -0.3849  0.2538
  857MOL0     C15606   3.360   2.557   5.574 -0.9355  0.0631  0.3328
  857MOL0     C15607   3.375   2.639   5.683  0.0551  0.3182  0.2102
  857MOL0     O15608   3.391   2.555   6.017 -0.2519 -0.5062 -0.3297
  857MOL0     C15609   3.609   2.813   6.109  0.4816 -0.7100  0.3076
  857MOL0     C15610   3.652   2.894   6.210  0.7355 -0.1721 -0.7351
  857MOL0     N15611   3.883   3.532   6.257 -0.2200  0.5202  0.2951
  857MOL0     N15612   3.992   3.585   6.306  0.4633  0.2122  0.1273
  857MOL0     C15613   5.119   3.473   6.862 -0.6346  0.1274 -1.1394
  857MOL0     C15614   5.255   3.438   6.898  0.7385 -0.1361  0.7009
  857MOL0     C15615   5.650   3.399   7.150 -0.1260 -1.0180  0.1325
  857MOL0     C15616   5.742   3.462   7.241  0.5535 -0.0114 -0.4393
  857MOL0     C15617   5.864   3.411   7.281 -0.1730 -0.2703  0.2653
  857MOL0     C15618   5.910   3.294   7.216  0.8279 -1.0797  0.2392
  857MOL0     O15619   6.043   3.248   7.227 -0.2057  0.1005 -0.5446
  857MOL0     C15620   6.141   3.334   7.292  0.0247 -0.5765 -0.1158
  857MOL0     C15621   6.287   3.281   7.273  0.6877 -0.2990  0.4455
  857MOL0     C15622   6.306   3.145   7.339 -0.7644  0.3895  0.4456
  857MOL0     C15623   6.429   3.075   7.295  0.2850  0.2590 -0.0631
  857MOL0     C15624   6.405   3.009   7.170 -0.8673 -0.4862  0.0414
  857MOL0     C15625   6.410   2.947   7.062  0.6800  0.0840  0.3850
  857MOL0     C15626   5.826   3.234   7.117 -0.2382 -0.2591 -0.4485
  857MOL0     C15627   5.701   3.287   7.085  0.3541 -0.0068 -0.2737
  857MOL0     H15628   5.252   3.471   7.238  3.1696  1.6716 -1.0627
  857MOL0     H15629   5.025   3.540   7.191  1.8629  1.0374  1.9864
  857MOL0     H15630   4.851   3.559   6.759 -2.0137  0.1404 -0.3923
  857MOL0     H15631   4.838   3.414   6.847 -2.7300  0.4420 -0.3445
  857MOL0     H15632   4.646   3.499   6.977 -2.2379  0.8636 -1.7790
  857MOL0     H15633   4.675   3.666   6.913 -1.3496  0.6571 -0.1944
  857MOL0     H15634   4.611   3.537   6.689  2.8749  0.3978  1.8333
  857MOL0     H15635   4.548   3.412   6.785 -1.3497  0.6616  2.8854
  857MOL0     H15636   4.415   3.559   6.924  1.2123  0.2001  0.4561
  857MOL0     H15637   4.438   3.683   6.796  1.3882  0.4897  0.9049
  857MOL0     H15638   4.328   3.402   6.750 -4.0788 -0.4914  1.8905
  857MOL0     H15639   4.222   3.538   6.771  1.0595  0.1528  1.8832
  857MOL0     H15640   4.377   3.635   6.560  0.3296  0.2436  0.8385
  857MOL0     H15641   4.414   3.459   6.546  2.1961  1.4966  0.0208
  857MOL0     H15642   4.232   3.501   6.415  1.4242 -2.0136  0.7390
  857MOL0     H15643   4.165   3.410   6.540 -1.0627  0.4452 -1.4816
  857MOL0     H15644   4.149   3.710   6.492  0.4935 -0.2304 -0.4184
  857MOL0     H15645   4.060   3.634   6.629 -0.8093 -1.1472  0.5530
  857MOL0     H15646   3.829   3.489   6.577 -2.3801 -1.6507 -1.5784
  857MOL0     H15647   3.603   3.499   6.431  0.5181  1.4784  0.0188
  857MOL0     H15648   3.627   3.418   6.269  0.9795 -1.8544  0.1978
  857MOL0     H15649   3.550   3.259   6.434  0.6048 -1.7453 -0.3867
  857MOL0     H15650   3.705   3.288   6.529  1.4302 -1.1975 -0.6553
  857MOL0     H15651   3.846   3.233   6.333 -0.9947  2.0064 -0.4061
  857MOL0     H15652   3.702   3.181   6.244 -1.3751  2.5103 -0.4569
  857MOL0     H15653   3.790   3.089   6.516 -0.5212  0.9969  0.6909
  857MOL0     H15654   3.828   2.988   6.383 -0.1941 -1.9450  3.7206
  857MOL0     H15655   3.408   2.840   6.438 -1.3172  0.2604 -0.6878
  857MOL0     H15656   3.213   2.712   6.351  0.7653 -0.9415 -0.2453
  857MOL0     H15657   3.201   2.704   6.172 -1.5772  0.8095  1.6819
  857MOL0     H15658   3.282   2.581   6.248 -1.0783 -0.4562  0.5021
  857MOL0     H15659   3.651   2.477   5.810  1.2731  1.0896  0.1262
  857MOL0     H15660   3.611   2.333   5.625  0.1210 -0.6282  0.1582
  857MOL0     H15661   3.599   2.339   5.372  0.6616 -1.3359 -1.1897
  857MOL0     H15662   3.530   2.209   5.460  1.4752 -0.2550 -1.9538
  857MOL0     H15663   3.441   2.263   5.171 -1.3852 -1.4471 -0.2790
  857MOL0     H15664   3.535   2.135   5.241 -1.4026 -1.8804  2.5956
  857MOL0     H15665   3.275   2.188   5.364  1.3073  0.3892  1.3319
  857MOL0     H15666   3.378   2.047   5.375  0.1749  1.4203  1.6208
  857MOL0     H15667   3.219   2.147   5.134  0.8425 -0.3417 -0.5584
  857MOL0     H15668   3.336   2.020   5.111  0.9814  2.5801  0.7963
  857MOL0     H15669   3.231   1.863   5.247 -0.5552 -0.0228  4.0712
  857MOL0     H15670   3.102   1.942   5.147  2.4733 -2.0573 -1.7122
  857MOL0     H15671   3.166   1.992   5.443 -1.4934 -0.8873  1.4154
  857MOL0     H15672   3.027   2.047   5.335 -0.3426 -0.0488 -0.7620
  857MOL0     H15673   3.098   1.779   5.478  1.2670 -0.1315 -1.6833
  857MOL0     H15674   3.031   1.771   5.314 -1.4169  3.3286 -3.1243
  857MOL0     H15675   2.837   1.769   5.411  0.4115 -0.3545 -1.3177
  857MOL0     H15676   2.864   1.943   5.434 -0.7622 -0.5200 -0.3771
  857MOL0     H15677   3.291   2.589   5.496  2.2207 -0.8404 -3.1550
  857MOL0     H15678   3.309   2.724   5.697  1.3077  1.8473 -2.2919
  857MOL0     H15679   3.659   2.802   6.013 -3.2047 -1.2057 -1.7470
  857MOL0     H15680   3.739   2.956   6.191  0.6928  1.1992  2.8024
  857MOL0     H15681   5.090   3.486   6.759 -1.1072  3.3184 -0.7177
  857MOL0     H15682   5.318   3.388   6.824  0.6884  1.2869 -0.3419
  857MOL0     H15683   5.707   3.549   7.297  1.0409  0.3556 -0.7006
  857MOL0     H15684   5.926   3.455   7.359 -0.2907 -1.4066  1.0203
  857MOL0     H15685   6.130   3.436   7.255  1.8777 -0.2464  0.1374
  857MOL0     H15686   6.121   3.324   7.399 -1.3995 -0.2080 -0.3302
  857MOL0     H15687   6.370   3.340   7.313  0.0469 -0.1428  1.5593
  857MOL0     H15688   6.304   3.279   7.165  1.9047 -0.1924  0.6165
  857MOL0     H15689   6.210   3.092   7.334 -0.6307  0.2739 -1.4027
  857MOL0     H15690   6.331   3.169   7.443  1.3515 -2.3649  0.6798
  857MOL0     H15691   6.457   3.003   7.373  1.4327 -0.0393 -0.7304
  857MOL0     H15692   6.515   3.142   7.289 -1.5548  2.7171 -0.3889
  857MOL0     H15693   6.405   2.890   6.972 -1.4249  1.4933 -0.4778
  857MOL0     H15694   5.862   3.146   7.064 -0.1287 -0.0547 -0.7148
  857MOL0     H15695   5.640   3.243   7.007  0.4872 -0.1014 -0.3243
  858MOL0     O15696  11.251   9.869   5.798  0.4739 -0.1714  0.1431
  858MOL0     C15697  11.272   9.988   5.782 -0.0515 -0.3476 -0.4043
  858MOL0     O15698  11.197  10.070   5.704  0.2546 -0.4964 -0.7874
  858MOL0     C15699  11.082  10.009   5.659 -0.0575 -0.2536  1.1381
  858MOL0     C15700  11.081   9.908   5.571  0.3766 -0.5583 -0.0179
  858MOL0     C15701  10.961   9.853   5.526  0.5072 -0.3291  0.2856
  858MOL0     C15702  10.834   9.913   5.552 -0.4227 -0.5611 -0.5232
  858MOL0     O15703  10.722   9.860   5.483 -0.4511  0.4972  0.2770
  858MOL0     C15704  10.601   9.886   5.546  0.8970  0.5713  0.3561
  858MOL0     C15705  10.493   9.832   5.442 -0.0926 -0.1793  0.1393
  858MOL0     C15706  10.360   9.907   5.439 -0.3543  0.3845 -0.1109
  858MOL0     C15707  10.285   9.883   5.568  0.6561  0.0842  0.0265
  858MOL0     C15708  10.144   9.952   5.566  0.2091  0.1215 -0.0260
  858MOL0     C15709  10.053   9.914   5.684  0.4785  0.6300  0.1712
  858MOL0     C15710   9.912   9.951   5.649  0.6727  0.1163  0.0656
  858MOL0     C15711   9.832   9.823   5.608  0.1547  0.0414 -0.2777
  858MOL0     N15712   9.692   9.859   5.569  0.4261 -0.3289 -0.1982
  858MOL0     C15713   9.650   9.937   5.463  0.3914  0.2217 -0.4393
  858MOL0     C15714   9.514   9.951   5.479  0.3745  0.1037 -0.6143
  858MOL0     C15715   9.444  10.022   5.362  0.5689  0.6656  0.2722
  858MOL0     C15716   9.357  10.141   5.409  0.2786 -0.0761 -0.2621
  858MOL0     C15717   9.221  10.090   5.464 -0.3553  0.2376  0.6703
  858MOL0     C15718   9.161  10.185   5.563 -1.2500  0.1686  0.1830
  858MOL0     O15719   9.029  10.149   5.592 -0.4308 -0.9528 -0.0386
  858MOL0     C15720   8.928  10.189   5.502 -0.4961  0.5240 -1.3207
  858MOL0     C15721   8.942  10.275   5.396 -0.2972 -0.1919  0.2943
  858MOL0     C15722   8.832  10.343   5.331 -0.2542 -0.1910 -0.1956
  858MOL0     C15723   8.873  10.451   5.236  0.1236  0.4474 -0.7333
  858MOL0     C15724   8.700  10.314   5.380 -0.0896 -0.4329  0.2836
  858MOL0     C15725   8.584  10.375   5.312  0.0931  0.1386  0.4269
  858MOL0     O15726   8.468  10.381   5.384 -0.2226 -0.6122  0.5063
  858MOL0     C15727   8.341  10.393   5.328  0.1759 -0.5228 -0.1179
  858MOL0     C15728   8.237  10.436   5.410 -0.2240  0.4360  0.3086
  858MOL0     C15729   8.108  10.462   5.364  1.0585 -0.1128  0.1686
  858MOL0     C15730   8.068  10.434   5.236 -1.3132 -0.1281 -0.5620
  858MOL0     O15731   7.955  10.473   5.175 -0.2539  0.0875  0.0117
  858MOL0     C15732   7.860  10.539   5.255  0.5799  0.2897  0.0368
  858MOL0     C15733   7.779  10.429   5.322  0.2152 -0.0316  0.2740
  858MOL0     C15734   7.709  10.333   5.229 -0.5060  0.6911  0.1683
  858MOL0     C15735   7.591  10.266   5.291 -0.6591 -0.8386 -0.1037
  858MOL0     C15736   7.617  10.119   5.320 -0.2410 -1.0803 -0.2786
  858MOL0     C15737   7.490  10.074   5.400 -0.1169  0.2100  0.3950
  858MOL0     C15738   7.496  10.119   5.546 -0.5505  0.1556  0.3420
  858MOL0     C15739   7.378  10.090   5.628  0.8235 -0.1217 -0.3483
  858MOL0    Cl15740   7.227  10.145   5.554  0.2082  0.4031 -0.3164
  858MOL0     C15741   8.170  10.380   5.154  0.1729  0.2476  0.0987
  858MOL0     C15742   8.303  10.359   5.196  0.0497 -0.3420  0.3210
  858MOL0     O15743   8.594  10.404   5.195  0.2862 -0.1926  0.2337
  858MOL0     C15744   8.686  10.220   5.479 -0.3069 -0.2115  0.5085
  858MOL0     C15745   8.801  10.153   5.539  0.5812 -0.5503  0.2445
  858MOL0     N15746   9.473   9.886   5.595 -0.7003 -0.1081  0.5811
  858MOL0     N15747   9.573   9.827   5.648 -0.4135  0.0175  0.8227
  858MOL0     C15748  10.839  10.015   5.651  0.4204 -0.4013  0.7676
  858MOL0     C15749  10.960  10.058   5.703  0.6688  0.6056 -0.8319
  858MOL0     C15750  11.400  10.042   5.842 -0.3394  0.0775 -0.2743
  858MOL0     C15751  11.491   9.952   5.918  0.9227 -0.1447 -0.4881
  858MOL0     C15752  11.597   9.993   6.002 -0.7443 -0.3181  0.3989
  858MOL0     C15753  11.634  10.127   6.001  0.5138 -0.0632 -0.2976
  858MOL0     O15754  11.743  10.146   6.069  0.1805  0.4696  0.0532
  858MOL0     C15755  11.804  10.273   6.057 -0.1637 -0.0673  0.7952
  858MOL0     C15756  11.939  10.276   6.127 -1.3371  0.0062 -0.3621
  858MOL0     C15757  12.016  10.405   6.094 -0.8665 -1.2558  0.1501
  858MOL0     C15758  11.928  10.531   6.046  0.5188 -0.6802  0.4055
  858MOL0     C15759  11.855  10.569   6.168  0.1652 -0.1109 -0.1715
  858MOL0     C15760  11.793  10.603   6.267  0.6518  0.5384  0.5917
  858MOL0     C15761  11.556  10.218   5.921  0.7166 -0.5846  0.2659
  858MOL0     C15762  11.444  10.178   5.859  0.3720 -0.2434 -0.5274
  858MOL0     H15763  11.170   9.860   5.530  1.0910  0.4947  0.2578
  858MOL0     H15764  10.974   9.772   5.455 -0.2061  0.4158 -0.7333
  858MOL0     H15765  10.599   9.832   5.641 -1.0389 -0.8358 -0.3972
  858MOL0     H15766  10.601   9.993   5.564  1.4408  0.7722 -0.7210
  858MOL0     H15767  10.536   9.831   5.341 -1.8277 -0.0391 -0.6429
  858MOL0     H15768  10.470   9.728   5.468 -0.0752 -0.0587  0.6376
  858MOL0     H15769  10.370  10.013   5.417 -0.9476  0.1966 -1.3492
  858MOL0     H15770  10.298   9.862   5.361 -1.1430 -0.9056  1.1838
  858MOL0     H15771  10.274   9.776   5.586  0.0088  0.2365  0.5618
  858MOL0     H15772  10.343   9.926   5.651  0.6310  2.3530 -1.0521
  858MOL0     H15773  10.154  10.061   5.561 -0.7528  0.2147 -0.0193
  858MOL0     H15774  10.097   9.912   5.475  2.6220 -1.6077 -0.6009
  858MOL0     H15775  10.049   9.808   5.712 -1.9129  0.4822 -0.5687
  858MOL0     H15776  10.095   9.964   5.772 -0.2798 -1.2682  1.6809
  858MOL0     H15777   9.859   9.976   5.741 -3.1598  1.5893 -2.3129
  858MOL0     H15778   9.912  10.038   5.583  2.5356  2.8578  3.3673
  858MOL0     H15779   9.822   9.745   5.684 -0.3408 -0.3100 -0.7004
  858MOL0     H15780   9.892   9.793   5.522 -0.4403  1.2368 -1.1411
  858MOL0     H15781   9.709   9.972   5.379  0.9773 -0.3163 -0.2628
  858MOL0     H15782   9.519  10.067   5.297  0.9767  0.9103  0.8979
  858MOL0     H15783   9.389   9.948   5.303 -0.2714  1.1863  0.3799
  858MOL0     H15784   9.329  10.212   5.331  0.8813  0.2062 -0.2194
  858MOL0     H15785   9.401  10.194   5.493 -1.0232  0.3971  0.1475
  858MOL0     H15786   9.231   9.993   5.514 -0.3569  0.8236  1.8448
  858MOL0     H15787   9.146  10.081   5.385  1.1784 -0.8313 -0.7278
  858MOL0     H15788   9.180  10.284   5.520  5.0142 -1.3122 -1.4946
  858MOL0     H15789   9.223  10.180   5.653 -0.2574 -0.9488 -0.5323
  858MOL0     H15790   9.041  10.307   5.368  1.6906 -5.7059 -0.0861
  858MOL0     H15791   8.981  10.449   5.222  0.2366  3.8736 -1.1845
  858MOL0     H15792   8.821  10.438   5.140 -1.6661 -3.7231  0.5901
  858MOL0     H15793   8.835  10.545   5.277  1.7885  0.1818  1.5723
  858MOL0     H15794   8.256  10.449   5.516 -0.4750 -0.2503  0.4398
  858MOL0     H15795   8.041  10.509   5.434  2.9022  4.2412 -0.6375
  858MOL0     H15796   7.898  10.606   5.332 -1.3582 -1.8583  3.0475
  858MOL0     H15797   7.796  10.594   5.185 -1.6422  1.5166  2.8344
  858MOL0     H15798   7.837  10.360   5.384 -2.2284 -3.2291 -0.6780
  858MOL0     H15799   7.703  10.478   5.384  0.7772  3.7167 -1.6870
  858MOL0     H15800   7.779  10.253   5.202 -1.0168 -0.0002  0.8539
  858MOL0     H15801   7.682  10.374   5.131  0.7164  0.2757 -0.3645
  858MOL0     H15802   7.547  10.325   5.372  0.1412  1.6136 -1.3341
  858MOL0     H15803   7.508  10.270   5.219 -1.5246  0.2506  0.9044
  858MOL0     H15804   7.705  10.110   5.385 -1.9545  1.9673  2.7949
  858MOL0     H15805   7.628  10.066   5.225 -3.5836 -1.3919 -0.6186
  858MOL0     H15806   7.394  10.097   5.353  0.4313  0.1821 -0.7880
  858MOL0     H15807   7.500   9.965   5.406 -1.2754  0.0968  0.4726
  858MOL0     H15808   7.505  10.227   5.560 -1.4579 -0.0684  3.3329
  858MOL0     H15809   7.576  10.078   5.608  1.3660  3.5147  0.3611
  858MOL0     H15810   7.387  10.130   5.729  1.9244  1.6900 -1.0926
  858MOL0     H15811   7.375   9.982   5.641 -2.4684  0.2231  3.3733
  858MOL0     H15812   8.142  10.361   5.051 -0.4885  1.8780 -0.0505
  858MOL0     H15813   8.379  10.346   5.119  0.7189  3.0292  0.2232
  858MOL0     H15814   8.585  10.200   5.515 -1.5637  2.1555 -1.4232
  858MOL0     H15815   8.775  10.092   5.625 -0.0723 -0.2255  0.2839
  858MOL0     H15816  10.751  10.071   5.681 -0.5933 -0.1829 -2.2803
  858MOL0     H15817  10.978  10.143   5.768  3.1026  1.6224 -2.6688
  858MOL0     H15818  11.459   9.849   5.923 -2.5268  0.7195 -1.6522
  858MOL0     H15819  11.662   9.924   6.055  2.6488 -0.1711 -3.0821
  858MOL0     H15820  11.814  10.304   5.953  0.3165 -0.5122  0.7075
  858MOL0     H15821  11.739  10.351   6.098  0.7130  2.2643 -1.9397
  858MOL0     H15822  12.002  10.186   6.125 -1.1506  0.1197  0.1643
  858MOL0     H15823  11.911  10.289   6.232  0.2781  0.3601  0.0512
  858MOL0     H15824  12.090  10.389   6.016 -0.9091 -1.8255  0.2213
  858MOL0     H15825  12.073  10.433   6.182 -1.5185 -1.6594  0.7145
  858MOL0     H15826  11.856  10.516   5.965  2.1780 -0.6074 -1.1445
  858MOL0     H15827  11.982  10.618   6.009 -0.8849  0.0151 -0.0931
  858MOL0     H15828  11.735  10.631   6.352  0.7361  2.5209  0.0548
  858MOL0     H15829  11.584  10.323   5.914 -4.4051  1.0559  0.7886
  858MOL0     H15830  11.389  10.257   5.808  1.1003 -0.1917 -1.2518
  859MOL0     O15831  10.321   6.243  11.313  0.5360  0.2802 -0.1739
  859MOL0     C15832  10.418   6.211  11.250  0.4263  0.7867  0.0848
  859MOL0     O15833  10.420   6.200  11.117 -0.6602 -0.9684 -0.2958
  859MOL0     C15834  10.307   6.222  11.043 -0.2361 -0.4409  0.4234
  859MOL0     C15835  10.300   6.348  10.981 -0.9810 -0.3119  0.2524
  859MOL0     C15836  10.183   6.374  10.908  0.8349  0.1562 -0.2369
  859MOL0     C15837  10.079   6.274  10.892 -0.7318  0.5169 -0.4832
  859MOL0     O15838   9.970   6.281  10.804 -0.4831  0.1020  0.1610
  859MOL0     C15839   9.996   6.243  10.668  0.6148 -0.1136  0.2341
  859MOL0     C15840   9.860   6.245  10.596  0.0932 -0.5696  0.0344
  859MOL0     C15841   9.862   6.292  10.446  0.0729 -0.3910  0.1710
  859MOL0     C15842   9.903   6.440  10.433  0.5322 -0.5415 -0.6642
  859MOL0     C15843   9.883   6.478  10.286 -0.4260  0.2504  0.5051
  859MOL0     C15844   9.905   6.629  10.275 -0.3307 -0.3097 -0.2958
  859MOL0     C15845   9.796   6.725  10.329 -0.0026  0.0745 -0.1832
  859MOL0     C15846   9.816   6.868  10.295 -0.2357 -0.8277 -0.2875
  859MOL0     N15847   9.686   6.940  10.304  0.3814 -0.4668  0.2115
  859MOL0     C15848   9.594   6.935  10.408  0.6860  0.5311 -0.3121
  859MOL0     C15849   9.474   6.988  10.361  0.0401 -0.3116  0.2447
  859MOL0     C15850   9.358   7.021  10.441 -0.7715 -0.9625  0.0009
  859MOL0     C15851   9.357   7.153  10.525 -0.2077 -0.4771 -0.2620
  859MOL0     C15852   9.248   7.158  10.628  0.0062  0.1196  0.1835
  859MOL0     C15853   9.111   7.122  10.563  0.4895 -0.2287 -0.2211
  859MOL0     O15854   9.071   7.210  10.455 -0.0014  0.6889 -0.4956
  859MOL0     C15855   8.936   7.212  10.414  0.1587 -0.7757  0.3805
  859MOL0     C15856   8.881   7.326  10.352 -0.0681 -0.0654  0.3257
  859MOL0     C15857   8.743   7.333  10.322  0.7241  0.2818  0.0692
  859MOL0     C15858   8.708   7.461  10.255  0.6039  0.4354  0.1613
  859MOL0     C15859   8.650   7.228  10.369 -0.8199  0.1017  0.6813
  859MOL0     C15860   8.506   7.235  10.345  1.5712 -0.1549 -0.0484
  859MOL0     O15861   8.456   7.310  10.238  0.1865  0.2471 -0.1494
  859MOL0     C15862   8.317   7.339  10.211  0.4332  0.0184 -0.5034
  859MOL0     C15863   8.208   7.307  10.295 -0.2836 -0.1914 -0.6038
  859MOL0     C15864   8.074   7.323  10.263 -0.6869 -0.5240 -0.3091
  859MOL0     C15865   8.042   7.383  10.131 -0.3860  0.0990 -0.7803
  859MOL0     O15866   7.914   7.392  10.092 -0.4072 -0.3998  0.0047
  859MOL0     C15867   7.885   7.378   9.959 -0.3805 -0.0439  0.3628
  859MOL0     C15868   7.726   7.350   9.960 -0.2895 -0.4285  0.2927
  859MOL0     C15869   7.691   7.226  10.057  0.6395 -0.3630  0.6378
  859MOL0     C15870   7.567   7.154   9.991 -0.2135  0.1146 -0.2409
  859MOL0     C15871   7.528   7.049  10.096  0.5598  0.4483 -0.1889
  859MOL0     C15872   7.387   6.988  10.042 -0.3067  0.3096 -0.8977
  859MOL0     C15873   7.358   6.843  10.097  0.7502  0.3288 -0.4532
  859MOL0     C15874   7.220   6.799  10.069  0.3034 -0.0093 -0.1425
  859MOL0    Cl15875   7.197   6.736   9.906  0.3268 -0.0714  0.2119
  859MOL0     C15876   8.147   7.424  10.058 -0.3087  0.6534  0.1051
  859MOL0     C15877   8.285   7.399  10.089  0.1041 -0.3898 -0.1151
  859MOL0     O15878   8.447   7.158  10.417 -0.2692 -0.3045 -0.1120
  859MOL0     C15879   8.714   7.119  10.436  0.9310 -1.1617 -0.0939
  859MOL0     C15880   8.853   7.111  10.455 -0.1559  0.0447 -0.2280
  859MOL0     N15881   9.498   7.019  10.229  0.1926  0.3994  0.4090
  859MOL0     N15882   9.619   6.988  10.194 -0.3933  0.3502 -1.0820
  859MOL0     C15883  10.097   6.151  10.962 -0.0104  0.2667  0.0529
  859MOL0     C15884  10.209   6.132  11.048  0.2811 -0.3441 -0.3908
  859MOL0     C15885  10.542   6.190  11.323  0.8370 -0.2481 -0.5561
  859MOL0     C15886  10.658   6.151  11.253  0.1378 -0.0627 -0.8035
  859MOL0     C15887  10.771   6.127  11.323 -0.1578  0.5133 -0.1097
  859MOL0     C15888  10.778   6.139  11.461  0.2998  0.2847 -0.1921
  859MOL0     O15889  10.900   6.120  11.511 -0.4510  1.1433 -0.4578
  859MOL0     C15890  10.911   6.021  11.623  0.4560 -0.4233  0.3784
  859MOL0     C15891  11.056   5.969  11.632 -0.3873  0.5094  0.6499
  859MOL0     C15892  11.096   5.872  11.526 -0.0534  0.5120 -0.4243
  859MOL0     C15893  11.237   5.811  11.547  0.3878 -0.5262  0.1373
  859MOL0     C15894  11.270   5.721  11.434 -0.4859 -0.1056  0.1003
  859MOL0     C15895  11.303   5.660  11.332 -0.1017 -0.3420  0.0257
  859MOL0     C15896  10.655   6.170  11.532  0.4440 -0.3454 -0.7825
  859MOL0     C15897  10.534   6.192  11.463  0.4601  0.3561 -0.7092
  859MOL0     H15898  10.383   6.417  10.976 -0.2059 -1.2514 -0.1443
  859MOL0     H15899  10.175   6.471  10.862 -3.6443  0.7302  1.2226
  859MOL0     H15900  10.066   6.316  10.626 -0.3670  1.7822  1.7432
  859MOL0     H15901  10.038   6.142  10.666  0.2244 -0.2632 -0.8445
  859MOL0     H15902   9.816   6.146  10.612 -2.4796  0.4310 -0.3580
  859MOL0     H15903   9.789   6.312  10.647 -0.2913 -0.6910 -0.3389
  859MOL0     H15904   9.922   6.228  10.381  4.3676  2.5628  0.7188
  859MOL0     H15905   9.762   6.276  10.405 -0.1432 -0.7258  0.8119
  859MOL0     H15906   9.834   6.498  10.495  0.6866 -0.4126 -0.6146
  859MOL0     H15907  10.006   6.444  10.467  0.6672 -1.1423 -0.9732
  859MOL0     H15908   9.960   6.422  10.232 -1.0180  1.1969 -1.4116
  859MOL0     H15909   9.794   6.434  10.242  0.7678 -2.1466  0.3113
  859MOL0     H15910  10.001   6.654  10.321 -1.3195  0.9075  1.1798
  859MOL0     H15911   9.923   6.644  10.168  1.5736 -0.3477 -0.0061
  859MOL0     H15912   9.694   6.697  10.300 -1.0339  0.5063  2.6504
  859MOL0     H15913   9.793   6.718  10.438  0.3152 -2.9454 -0.2868
  859MOL0     H15914   9.864   6.878  10.197  3.4602  0.7264  1.4407
  859MOL0     H15915   9.888   6.918  10.362 -1.1574  2.1338 -1.3581
  859MOL0     H15916   9.613   6.908  10.511  1.4523  0.1763 -0.5446
  859MOL0     H15917   9.274   7.024  10.372 -1.9188 -0.0544  1.3700
  859MOL0     H15918   9.351   6.938  10.512 -1.7614 -0.5047  0.4486
  859MOL0     H15919   9.329   7.240  10.464 -1.4542 -2.1066 -2.1204
  859MOL0     H15920   9.456   7.169  10.568 -0.3323 -3.0801  1.1677
  859MOL0     H15921   9.247   7.254  10.680  1.4416 -0.6849  1.8081
  859MOL0     H15922   9.272   7.085  10.706  0.6823 -0.1933 -0.3038
  859MOL0     H15923   9.042   7.135  10.647 -0.3896 -1.1500 -0.7738
  859MOL0     H15924   9.110   7.015  10.539  0.0734 -0.2669 -0.0434
  859MOL0     H15925   8.954   7.398  10.315 -0.0827  0.7398  1.7716
  859MOL0     H15926   8.647   7.440  10.166  0.1428 -2.4927  1.0856
  859MOL0     H15927   8.639   7.521  10.314 -1.1654 -1.8356  0.5402
  859MOL0     H15928   8.797   7.518  10.226  0.4702  1.2356  1.2668
  859MOL0     H15929   8.232   7.243  10.379  1.1352 -0.2349 -1.0172
  859MOL0     H15930   8.002   7.274  10.328 -0.2369  0.1236  0.7022
  859MOL0     H15931   7.914   7.471   9.909 -3.2321  2.0302  2.2467
  859MOL0     H15932   7.941   7.292   9.920  2.2265  0.7912  2.0073
  859MOL0     H15933   7.675   7.440   9.997  0.2116 -0.8477  2.1253
  859MOL0     H15934   7.689   7.349   9.857  0.8219  3.8923 -0.3600
  859MOL0     H15935   7.678   7.253  10.162 -0.9598  0.8842  0.1703
  859MOL0     H15936   7.778   7.161  10.052  0.9864  0.0909  0.6599
  859MOL0     H15937   7.487   7.226   9.969  1.3910  2.6911  1.6847
  859MOL0     H15938   7.605   7.118   9.895  1.7799  0.3866  0.4096
  859MOL0     H15939   7.510   7.107  10.187 -0.8779  1.5335 -1.1094
  859MOL0     H15940   7.602   6.971  10.116  0.5457  0.7054  0.9602
  859MOL0     H15941   7.303   7.052  10.067 -0.0666  0.2182  0.1866
  859MOL0     H15942   7.377   6.996   9.934 -2.3249 -0.1507 -0.7897
  859MOL0     H15943   7.375   6.842  10.205  1.9366 -0.9122 -0.6275
  859MOL0     H15944   7.423   6.767  10.054  1.4890  0.5950  0.1715
  859MOL0     H15945   7.141   6.873  10.085 -1.1344 -1.4526 -0.3541
  859MOL0     H15946   7.197   6.720  10.141 -0.5824  1.2624  1.0315
  859MOL0     H15947   8.136   7.473   9.962 -1.0240 -1.4823 -0.9747
  859MOL0     H15948   8.368   7.424  10.024  1.5388 -1.5069  1.2301
  859MOL0     H15949   8.663   7.037  10.486  0.1044 -1.6740 -1.7255
  859MOL0     H15950   8.899   7.018  10.488 -0.1955  0.3568  0.7223
  859MOL0     H15951  10.024   6.071  10.955  0.9369 -0.5395 -1.0455
  859MOL0     H15952  10.236   6.035  11.089  2.3218  1.6865  3.7031
  859MOL0     H15953  10.669   6.130  11.147  4.1287 -1.3932 -0.2803
  859MOL0     H15954  10.871   6.097  11.292  0.0849  0.4952  0.6682
  859MOL0     H15955  10.888   6.057  11.723 -0.5937 -0.4711  0.1566
  859MOL0     H15956  10.842   5.938  11.602  2.3090 -2.7068  2.6616
  859MOL0     H15957  11.070   5.908  11.722 -1.1982 -2.1534 -0.9215
  859MOL0     H15958  11.116   6.060  11.627  0.7815 -0.3210 -1.9315
  859MOL0     H15959  11.082   5.926  11.432  1.2456 -1.3283 -1.7376
  859MOL0     H15960  11.023   5.791  11.523  0.4560  0.0503 -0.5616
  859MOL0     H15961  11.238   5.766  11.647  0.0078  2.5296  1.6205
  859MOL0     H15962  11.303   5.898  11.550 -0.2022 -0.0864  1.9044
  859MOL0     H15963  11.329   5.617  11.237  0.2377  2.0243 -1.0334
  859MOL0     H15964  10.660   6.170  11.640 -2.0718  0.5812 -0.6127
  859MOL0     H15965  10.441   6.208  11.516  0.4949 -1.5145  0.0100
  860MOL0     O15966   3.028   2.309   3.449  0.9620  0.3275  0.0656
  860MOL0     C15967   3.012   2.391   3.546  0.1324  0.0443 -0.2796
  860MOL0     O15968   2.893   2.438   3.595 -0.3870 -0.3262 -0.1851
  860MOL0     C15969   2.773   2.383   3.566  0.3818  0.9965  0.1172
  860MOL0     C15970   2.729   2.371   3.436  0.5939 -0.7959  0.8854
  860MOL0     C15971   2.600   2.327   3.407 -0.4027  0.8122  0.4915
  860MOL0     C15972   2.509   2.303   3.513 -0.4184  0.4936  0.4611
  860MOL0     O15973   2.392   2.251   3.491 -0.3760  0.7217 -0.4868
  860MOL0     C15974   2.322   2.257   3.366  0.0642 -0.4794 -0.5516
  860MOL0     C15975   2.214   2.143   3.373 -0.0696 -0.5851  0.2452
  860MOL0     C15976   2.126   2.139   3.245  1.3489  0.1242 -0.1044
  860MOL0     C15977   2.094   2.272   3.167 -0.3695  1.0298  0.3368
  860MOL0     C15978   2.018   2.235   3.038 -0.2405 -0.2771 -0.4219
  860MOL0     C15979   1.900   2.138   3.049 -0.0603 -0.3594  0.0740
  860MOL0     C15980   1.787   2.203   3.131 -0.4406 -0.3654  1.0657
  860MOL0     C15981   1.660   2.116   3.112  0.2333  1.1857  0.6183
  860MOL0     N15982   1.551   2.181   3.176  0.0274 -0.3818 -0.1021
  860MOL0     C15983   1.555   2.207   3.307  0.5083 -0.5792 -0.5765
  860MOL0     C15984   1.439   2.283   3.328 -0.3622  0.4371  0.1992
  860MOL0     C15985   1.363   2.319   3.458  0.5439 -0.6201  0.3468
  860MOL0     C15986   1.291   2.202   3.533  0.1845 -0.6466  0.2641
  860MOL0     C15987   1.223   2.106   3.441  0.1138  0.2190  0.1977
  860MOL0     C15988   1.090   2.150   3.380  0.7273 -0.6972 -0.2932
  860MOL0     O15989   1.034   2.040   3.319 -0.1598  0.6486 -0.2660
  860MOL0     C15990   0.939   2.064   3.229 -0.0919  0.6304  0.4072
  860MOL0     C15991   0.974   2.113   3.104 -0.4336  0.2137  0.1611
  860MOL0     C15992   0.882   2.164   3.016 -0.5504  0.6816  0.1111
  860MOL0     C15993   0.936   2.214   2.887 -0.5349 -0.3110 -0.3146
  860MOL0     C15994   0.748   2.164   3.051 -0.6355  0.9441  0.9299
  860MOL0     C15995   0.640   2.203   2.958 -0.6447  0.2141 -0.6065
  860MOL0     O15996   0.658   2.187   2.831  0.3564  0.0432  0.1076
  860MOL0     C15997   0.558   2.188   2.736  0.4376  0.2899 -0.7054
  860MOL0     C15998   0.418   2.157   2.766  1.1552 -0.2896  1.0861
  860MOL0     C15999   0.323   2.171   2.664 -0.2286 -0.5585 -1.1357
  860MOL0     C16000   0.360   2.209   2.533  0.1012 -0.1007  0.4300
  860MOL0     O16001   0.249   2.220   2.441 -0.7908  0.7575  0.0195
  860MOL0     C16002   0.267   2.213   2.296 -0.1992 -0.1840  0.1947
  860MOL0     C16003   0.142   2.187   2.214 -0.2971  0.3010  0.4995
  860MOL0     C16004   0.071   2.061   2.256  0.0484 -0.3494  0.2512
  860MOL0     C16005   0.108   1.931   2.198 -0.4470  0.5661  0.2607
  860MOL0     C16006   0.019   1.828   2.254 -0.7318  0.1198  0.7811
  860MOL0     C16007   0.032   1.797   2.402 -0.8326 -0.3804 -0.5576
  860MOL0     C16008  -0.054   1.675   2.452 -0.1446  0.7583 -0.0922
  860MOL0     C16009  -0.121   1.685   2.585 -0.0394  0.4617  0.5426
  860MOL0    Cl16010  -0.012   1.657   2.719 -0.2208 -0.1935  0.0856
  860MOL0     C16011   0.499   2.230   2.500 -0.0284  0.0172  0.5106
  860MOL0     C16012   0.595   2.208   2.603 -0.1472 -0.6717 -0.3371
  860MOL0     O16013   0.532   2.228   3.015 -0.0733  0.2245  1.1594
  860MOL0     C16014   0.711   2.124   3.182 -0.0643  0.7486 -0.7017
  860MOL0     C16015   0.809   2.064   3.272  0.7639  0.4038 -0.2738
  860MOL0     N16016   1.388   2.316   3.205  0.2092  0.1003 -0.1428
  860MOL0     N16017   1.444   2.241   3.116  0.0038  0.2565  0.0515
  860MOL0     C16018   2.551   2.329   3.646 -0.9396  0.0060  0.0579
  860MOL0     C16019   2.682   2.369   3.675 -0.3297  0.1483  0.2426
  860MOL0     C16020   3.136   2.445   3.608  0.1206  0.2323  0.6536
  860MOL0     C16021   3.266   2.412   3.574  0.6728 -0.7846  0.6110
  860MOL0     C16022   3.382   2.457   3.640  0.2076 -0.4639  0.0046
  860MOL0     C16023   3.372   2.534   3.750 -0.4942  1.0028  0.0629
  860MOL0     O16024   3.485   2.560   3.816  0.2555  0.5012 -0.4467
  860MOL0     C16025   3.473   2.658   3.922 -0.3462 -0.6290 -0.9170
  860MOL0     C16026   3.600   2.731   3.915 -0.7180  0.1757  0.3406
  860MOL0     C16027   3.721   2.656   3.966 -0.7547 -0.5191  0.1204
  860MOL0     C16028   3.819   2.760   4.027 -0.7372  0.1576 -0.5748
  860MOL0     C16029   3.919   2.693   4.111 -0.0281 -0.3493 -0.6258
  860MOL0     C16030   4.019   2.652   4.168 -0.3225  0.5138 -1.1334
  860MOL0     C16031   3.243   2.566   3.793  0.0941  0.1560  0.3515
  860MOL0     C16032   3.128   2.534   3.718 -0.9154 -0.6302 -0.4501
  860MOL0     H16033   2.797   2.381   3.353 -2.6547 -0.6491 -1.9895
  860MOL0     H16034   2.582   2.314   3.301  1.5221 -0.6230  0.2941
  860MOL0     H16035   2.274   2.355   3.358  0.0289 -0.4393  0.0639
  860MOL0     H16036   2.394   2.226   3.290  2.1691 -0.1594  1.1985
  860MOL0     H16037   2.264   2.046   3.385  0.0002 -0.7304 -1.1449
  860MOL0     H16038   2.153   2.164   3.461  0.2862  1.6274  0.0068
  860MOL0     H16039   2.192   2.073   3.187  0.3692 -0.3530 -0.7036
  860MOL0     H16040   2.030   2.087   3.257  0.5710  0.6971 -3.1012
  860MOL0     H16041   2.035   2.337   3.232 -1.4794 -0.9936  1.4693
  860MOL0     H16042   2.190   2.323   3.154 -0.4511  2.9792  5.1046
  860MOL0     H16043   1.995   2.325   2.982  2.5506  0.4778 -0.4894
  860MOL0     H16044   2.084   2.171   2.978  0.2152 -0.9194  0.7259
  860MOL0     H16045   1.876   2.131   2.942  2.2681  3.0925 -0.8453
  860MOL0     H16046   1.939   2.041   3.081  0.1362  0.1063  1.2658
  860MOL0     H16047   1.812   2.223   3.235  1.0024  0.3477  0.6028
  860MOL0     H16048   1.769   2.295   3.075 -1.6864 -1.6422 -0.8042
  860MOL0     H16049   1.674   2.013   3.146  0.3341  1.2201  0.6827
  860MOL0     H16050   1.636   2.098   3.007  1.9204 -0.3190  0.4403
  860MOL0     H16051   1.616   2.167   3.387  2.2216  1.0026 -1.0271
  860MOL0     H16052   1.430   2.365   3.532  0.8877  1.2943 -1.0907
  860MOL0     H16053   1.295   2.394   3.418 -0.9649 -1.2965  1.5119
  860MOL0     H16054   1.218   2.246   3.602 -0.2348 -0.1195 -0.4957
  860MOL0     H16055   1.371   2.158   3.593  0.7706 -0.1634 -0.1569
  860MOL0     H16056   1.192   2.026   3.509 -0.0399 -1.4448 -1.7315
  860MOL0     H16057   1.287   2.064   3.362 -2.4645 -0.2477 -1.7935
  860MOL0     H16058   1.109   2.229   3.308  0.2469 -2.3928 -2.3863
  860MOL0     H16059   1.014   2.169   3.456 -0.3967 -1.1856 -1.2634
  860MOL0     H16060   1.078   2.108   3.075  0.0882  0.9139  1.7900
  860MOL0     H16061   1.044   2.208   2.899 -0.4354  1.1230 -0.2830
  860MOL0     H16062   0.921   2.151   2.799 -1.3546 -0.7709  0.1321
  860MOL0     H16063   0.906   2.315   2.859 -2.7529 -0.9852 -0.5563
  860MOL0     H16064   0.384   2.132   2.866  1.1079  1.2221  1.4609
  860MOL0     H16065   0.216   2.165   2.681 -0.0915  1.3238  0.8018
  860MOL0     H16066   0.301   2.310   2.259 -0.1107  0.2334  1.3362
  860MOL0     H16067   0.339   2.134   2.273  0.0504  0.2957 -0.7327
  860MOL0     H16068   0.073   2.270   2.232 -2.5063 -1.6674  1.6039
  860MOL0     H16069   0.164   2.195   2.107  0.5641 -4.8413  0.0278
  860MOL0     H16070  -0.028   2.074   2.210  0.3030 -3.6725 -1.5644
  860MOL0     H16071   0.072   2.061   2.365 -0.0798  1.3371  0.2689
  860MOL0     H16072   0.116   1.927   2.089  2.3611  5.1568  0.0574
  860MOL0     H16073   0.208   1.897   2.226 -0.0898 -0.3514 -1.8877
  860MOL0     H16074   0.039   1.733   2.202 -0.2909 -1.1884  3.1964
  860MOL0     H16075  -0.080   1.868   2.230 -0.7846  0.2487  1.2243
  860MOL0     H16076   0.136   1.780   2.432 -0.3482 -4.5162 -3.7463
  860MOL0     H16077  -0.006   1.882   2.460 -1.5342  0.0312 -1.6034
  860MOL0     H16078   0.020   1.596   2.465  0.0929  1.3515  2.7654
  860MOL0     H16079  -0.135   1.640   2.387 -0.2175 -1.3574  1.0510
  860MOL0     H16080  -0.205   1.615   2.588 -3.3177  3.6905 -3.7756
  860MOL0     H16081  -0.181   1.777   2.582 -1.4297 -0.4341 -0.5078
  860MOL0     H16082   0.534   2.265   2.404 -0.1029  0.0885  0.5089
  860MOL0     H16083   0.702   2.216   2.586  0.1236 -2.8489 -0.0112
  860MOL0     H16084   0.611   2.127   3.224 -0.1741  0.0459 -0.8919
  860MOL0     H16085   0.793   2.036   3.375 -3.0190 -1.4469 -1.1577
  860MOL0     H16086   2.489   2.315   3.734  1.5114  0.0940  1.9327
  860MOL0     H16087   2.707   2.395   3.778 -1.9866  1.1843  0.4103
  860MOL0     H16088   3.272   2.372   3.473 -0.4051  1.4141 -0.4215
  860MOL0     H16089   3.471   2.405   3.608 -0.4109 -1.8686  0.4683
  860MOL0     H16090   3.397   2.735   3.904  0.0673 -0.0380 -0.1911
  860MOL0     H16091   3.462   2.614   4.022  3.3634  0.4067  0.0948
  860MOL0     H16092   3.580   2.828   3.962 -2.5407  1.4537 -2.7864
  860MOL0     H16093   3.616   2.755   3.810  1.2816 -0.7886  0.3770
  860MOL0     H16094   3.776   2.608   3.885  1.4708  1.7387  0.1699
  860MOL0     H16095   3.709   2.573   4.037  0.2489 -1.7180 -1.0605
  860MOL0     H16096   3.765   2.828   4.094  0.3737  1.8200 -1.2956
  860MOL0     H16097   3.877   2.813   3.951 -0.3521  1.8068  0.8057
  860MOL0     H16098   4.121   2.634   4.194 -0.1271  2.0890 -0.7629
  860MOL0     H16099   3.235   2.623   3.885  1.7956 -2.4832  2.2470
  860MOL0     H16100   3.033   2.559   3.763  0.3966  3.4087  0.5243
  861MOL0     O16101   2.508   9.025   3.545 -0.0529 -0.1414 -0.5392
  861MOL0     C16102   2.465   9.041   3.666  0.0164  0.4405  0.5408
  861MOL0     O16103   2.552   9.078   3.766 -0.1354 -0.4405 -0.4135
  861MOL0     C16104   2.685   9.078   3.734  0.1962  0.4493  0.2072
  861MOL0     C16105   2.767   9.188   3.731 -0.7525  0.1348  0.8503
  861MOL0     C16106   2.908   9.180   3.712 -0.0928  0.6015 -0.1456
  861MOL0     C16107   2.964   9.049   3.706 -0.1579  0.4810 -0.5302
  861MOL0     O16108   3.107   9.055   3.701  0.0034  0.1403 -0.6945
  861MOL0     C16109   3.152   8.954   3.612  0.0173 -0.0185 -0.2700
  861MOL0     C16110   3.302   8.981   3.593  0.0746  0.3359 -0.4533
  861MOL0     C16111   3.380   8.977   3.719 -0.2944  0.1181 -0.2964
  861MOL0     C16112   3.522   8.916   3.712  0.2729  0.4532 -1.1719
  861MOL0     C16113   3.598   8.961   3.838  0.6208 -0.0664  0.8972
  861MOL0     C16114   3.743   8.931   3.856  0.5506 -0.4567 -0.0581
  861MOL0     C16115   3.836   9.012   3.761  0.5728  0.5098 -0.2677
  861MOL0     C16116   3.977   8.940   3.759  0.8133  0.0134 -0.7360
  861MOL0     N16117   4.045   8.953   3.891 -0.1524 -0.7114  0.4975
  861MOL0     C16118   4.135   9.050   3.927  1.2507  1.0201  0.1942
  861MOL0     C16119   4.202   9.007   4.034  0.2770  0.8196 -0.1648
  861MOL0     C16120   4.323   9.062   4.108  0.4421 -0.1480  0.2827
  861MOL0     C16121   4.403   9.169   4.027  0.0319 -0.0374 -0.0053
  861MOL0     C16122   4.487   9.273   4.109  0.0947 -0.3572  0.0478
  861MOL0     C16123   4.544   9.385   4.028  0.3681 -0.5712  0.3394
  861MOL0     O16124   4.430   9.465   3.986 -0.3910  0.6617  0.2359
  861MOL0     C16125   4.455   9.591   3.932  0.8497 -0.9327  0.0817
  861MOL0     C16126   4.342   9.661   3.914 -0.5332 -0.8037 -0.0547
  861MOL0     C16127   4.353   9.790   3.849 -0.0927  1.0641 -0.7099
  861MOL0     C16128   4.211   9.858   3.842 -0.1274  0.7001 -0.3270
  861MOL0     C16129   4.475   9.843   3.804  0.2974 -0.2616  0.3677
  861MOL0     C16130   4.484   9.972   3.724 -0.9058  0.1800 -0.0779
  861MOL0     O16131   4.610  10.015   3.697  0.0771  0.1139  0.1733
  861MOL0     C16132   4.615  10.140   3.642 -0.6698 -0.4978 -0.0566
  861MOL0     C16133   4.661  10.244   3.715  0.2085 -0.4354  0.5660
  861MOL0     C16134   4.690  10.363   3.652  0.3361 -0.5445  0.8384
  861MOL0     C16135   4.653  10.392   3.519  0.0816 -0.0610 -0.5644
  861MOL0     O16136   4.697  10.503   3.445  0.2927 -0.9688  0.1059
  861MOL0     C16137   4.740  10.614   3.512 -0.2144  0.0619  0.7220
  861MOL0     C16138   4.629  10.668   3.589  0.2179 -0.5157  0.3125
  861MOL0     C16139   4.505  10.718   3.502 -0.0241  0.3827  0.5041
  861MOL0     C16140   4.381  10.765   3.576 -0.4112  0.0529  0.6452
  861MOL0     C16141   4.391  10.898   3.663 -0.0221 -0.5068  0.1565
  861MOL0     C16142   4.271  10.933   3.738 -1.1306  0.0685 -0.1939
  861MOL0     C16143   4.299  11.053   3.834 -0.6717 -0.1177  0.3593
  861MOL0     C16144   4.177  11.083   3.914 -0.3677  0.0397  0.1044
  861MOL0    Cl16145   4.208  11.231   4.017 -0.2566  0.2517 -0.3867
  861MOL0     C16146   4.596  10.282   3.443  0.6778  0.4494  0.1538
  861MOL0     C16147   4.582  10.157   3.510  0.7531  0.3070  0.4033
  861MOL0     O16148   4.385  10.035   3.690  0.3375  0.4837 -0.1680
  861MOL0     C16149   4.582   9.759   3.833 -0.7703 -0.6767  0.7697
  861MOL0     C16150   4.578   9.639   3.897 -0.0526  0.7391  0.0325
  861MOL0     N16151   4.142   8.886   4.069  0.7978  0.1035 -0.4395
  861MOL0     N16152   4.056   8.855   3.978 -0.5867  0.1087  0.4622
  861MOL0     C16153   2.883   8.933   3.718 -0.1798  0.6733  0.0081
  861MOL0     C16154   2.747   8.947   3.727  0.8097 -0.3784 -0.0053
  861MOL0     C16155   2.317   9.029   3.701  0.3226 -0.5194 -0.0123
  861MOL0     C16156   2.226   9.011   3.601 -0.4837  0.2601 -0.0345
  861MOL0     C16157   2.092   8.989   3.626  0.2374 -0.2138  0.0822
  861MOL0     C16158   2.039   8.989   3.757  0.2651  0.1406  0.3598
  861MOL0     O16159   1.911   8.968   3.786 -0.3672 -0.1702  0.7221
  861MOL0     C16160   1.853   9.039   3.897 -0.2748 -0.7711 -0.9736
  861MOL0     C16161   1.701   9.017   3.897  0.5014  0.6825 -0.7613
  861MOL0     C16162   1.625   9.022   3.759 -0.3837 -0.3744 -0.0690
  861MOL0     C16163   1.472   9.004   3.785 -0.0541 -0.5327 -0.5672
  861MOL0     C16164   1.405   9.115   3.853  0.1072 -0.6883  0.4723
  861MOL0     C16165   1.337   9.200   3.905 -0.3119 -1.5814  0.5506
  861MOL0     C16166   2.131   9.028   3.850 -0.1049  0.4441 -0.1423
  861MOL0     C16167   2.270   9.042   3.829 -0.8137 -0.7872 -0.4015
  861MOL0     H16168   2.726   9.288   3.740 -2.7777 -0.6958  1.4329
  861MOL0     H16169   2.975   9.265   3.710 -0.6720  1.0991  0.8564
  861MOL0     H16170   3.134   8.852   3.646  1.4044 -0.7056 -1.5007
  861MOL0     H16171   3.118   8.957   3.508 -1.0463 -1.6221  0.0118
  861MOL0     H16172   3.348   8.899   3.538 -0.0424 -0.1314  0.1385
  861MOL0     H16173   3.306   9.080   3.546  1.6896  0.0927 -0.9058
  861MOL0     H16174   3.381   9.073   3.773  0.0629  1.1623 -2.0996
  861MOL0     H16175   3.325   8.915   3.791  1.0349 -1.5239 -0.6274
  861MOL0     H16176   3.508   8.808   3.707 -1.1383  0.3955  1.6647
  861MOL0     H16177   3.577   8.953   3.625  2.9727  0.7514  0.5323
  861MOL0     H16178   3.590   9.069   3.823 -0.4900 -0.2428  0.0157
  861MOL0     H16179   3.541   8.935   3.927  0.7785 -1.3868  0.6299
  861MOL0     H16180   3.779   8.967   3.953  2.2248  0.2171 -0.9000
  861MOL0     H16181   3.752   8.822   3.850  0.0787 -0.6670  2.2518
  861MOL0     H16182   3.800   8.998   3.659 -0.3740 -0.4826  0.1886
  861MOL0     H16183   3.844   9.114   3.800 -0.9513  0.2363  0.8502
  861MOL0     H16184   4.041   8.985   3.682  2.1346  1.6596  1.2244
  861MOL0     H16185   3.961   8.833   3.749 -3.0704  0.2262  1.3617
  861MOL0     H16186   4.147   9.137   3.863 -1.2387  1.5661  0.3886
  861MOL0     H16187   4.277   9.104   4.198  0.6087 -1.2949  0.9101
  861MOL0     H16188   4.384   8.975   4.133  0.3379 -0.0654  0.8282
  861MOL0     H16189   4.339   9.234   3.966 -0.3693 -0.4339 -0.0095
  861MOL0     H16190   4.479   9.129   3.960  0.8372  3.0984 -1.1459
  861MOL0     H16191   4.567   9.211   4.151 -2.0163 -2.6411  0.9549
  861MOL0     H16192   4.427   9.315   4.190 -2.0269  0.6007 -1.8996
  861MOL0     H16193   4.591   9.351   3.935  0.3298  1.3373 -0.4103
  861MOL0     H16194   4.608   9.449   4.089  0.2359 -1.0227  0.9683
  861MOL0     H16195   4.253   9.611   3.949 -0.6492 -0.6283 -0.0955
  861MOL0     H16196   4.136   9.792   3.887 -0.8448  0.3269 -2.0214
  861MOL0     H16197   4.218   9.948   3.904  0.6162 -0.3558  1.1983
  861MOL0     H16198   4.177   9.884   3.742  0.9178  0.5724 -0.7296
  861MOL0     H16199   4.698  10.222   3.814 -2.9713 -2.2681  1.5173
  861MOL0     H16200   4.741  10.440   3.708  0.2082  0.0140  0.2000
  861MOL0     H16201   4.840  10.609   3.558  1.7275 -0.6009 -3.1487
  861MOL0     H16202   4.758  10.686   3.432 -0.9158 -0.6754 -0.1105
  861MOL0     H16203   4.603  10.604   3.674  0.0629  0.8737  1.3477
  861MOL0     H16204   4.673  10.756   3.636  1.8490  0.2919 -2.5144
  861MOL0     H16205   4.477  10.628   3.446  3.1138 -1.6862  1.9191
  861MOL0     H16206   4.530  10.792   3.425  0.8871 -0.7070 -0.3066
  861MOL0     H16207   4.304  10.767   3.498  2.0808  1.7820 -1.9896
  861MOL0     H16208   4.359  10.696   3.658 -1.1743  0.5670  0.8832
  861MOL0     H16209   4.401  10.981   3.592 -2.1940  1.9694  2.4933
  861MOL0     H16210   4.481  10.901   3.725 -0.4235  0.1547  0.7272
  861MOL0     H16211   4.186  10.961   3.676 -0.7845  0.8749 -0.3157
  861MOL0     H16212   4.251  10.845   3.800  0.6323  0.3655  0.8952
  861MOL0     H16213   4.325  11.139   3.771 -0.1813 -0.1471  0.5239
  861MOL0     H16214   4.381  11.027   3.901 -1.1968 -1.1605  0.6206
  861MOL0     H16215   4.165  11.002   3.987  3.4502 -0.9194 -0.1009
  861MOL0     H16216   4.091  11.103   3.850 -0.7108  1.5742  0.9951
  861MOL0     H16217   4.568  10.289   3.338  1.6017 -2.4237 -0.3807
  861MOL0     H16218   4.556  10.071   3.448  0.9380  1.2141 -0.9651
  861MOL0     H16219   4.677   9.798   3.799 -0.7309 -1.1489  0.3216
  861MOL0     H16220   4.667   9.577   3.908  1.7495  3.4600  1.9762
  861MOL0     H16221   2.925   8.833   3.714  3.3972  2.0410  0.0732
  861MOL0     H16222   2.680   8.863   3.742 -1.8353  1.1293 -2.4302
  861MOL0     H16223   2.251   9.019   3.495  0.1556 -1.1411 -0.0181
  861MOL0     H16224   2.022   8.981   3.544  1.8379 -2.5710 -1.1761
  861MOL0     H16225   1.895   9.009   3.993 -1.7547 -1.6898 -0.5816
  861MOL0     H16226   1.867   9.147   3.881 -1.6378 -0.5053 -0.5059
  861MOL0     H16227   1.662   9.102   3.954  1.2980  2.3064 -2.5558
  861MOL0     H16228   1.685   8.923   3.951 -1.4166  1.3910 -0.0287
  861MOL0     H16229   1.660   8.933   3.706  0.2492 -1.4365  2.0239
  861MOL0     H16230   1.641   9.118   3.708  1.6847 -0.3681  0.4971
  861MOL0     H16231   1.446   8.913   3.839 -2.3550  0.5958  0.3841
  861MOL0     H16232   1.425   8.994   3.687  0.3185 -2.4118 -0.5997
  861MOL0     H16233   1.281   9.283   3.941  0.1521 -1.0744  0.1166
  861MOL0     H16234   2.099   9.036   3.954  1.5509  2.2774  0.2826
  861MOL0     H16235   2.338   9.055   3.912 -1.2617 -4.0767  0.6395
  862MOL0     O16236  11.057   3.761   6.138  0.5183  1.3198 -0.1045
  862MOL0     C16237  11.038   3.642   6.182  0.5757 -0.7623  0.2904
  862MOL0     O16238  10.926   3.573   6.187  0.3270  0.1312 -0.3988
  862MOL0     C16239  10.812   3.635   6.132 -0.6292  0.1864  0.0269
  862MOL0     C16240  10.811   3.660   5.992 -0.6260 -0.3408 -0.6025
  862MOL0     C16241  10.690   3.704   5.937  0.6101 -0.1038  0.5988
  862MOL0     C16242  10.576   3.744   6.021  0.2976 -0.2388  0.0141
  862MOL0     O16243  10.460   3.794   5.960  0.1399 -0.0541 -0.4004
  862MOL0     C16244  10.442   3.753   5.823 -1.0796  0.2885 -0.2502
  862MOL0     C16245  10.285   3.774   5.792 -0.3485  0.7056 -0.8602
  862MOL0     C16246  10.254   3.752   5.645  0.3462 -0.9000 -0.0025
  862MOL0     C16247  10.282   3.887   5.575 -0.2834  0.3217 -0.6680
  862MOL0     C16248  10.253   3.862   5.422  0.2842  0.9122 -0.8430
  862MOL0     C16249  10.261   3.988   5.340 -0.2467 -0.4434  0.7888
  862MOL0     C16250  10.279   3.958   5.188  0.6596  0.9516 -0.8145
  862MOL0     C16251  10.341   4.066   5.094 -0.7268 -0.2527 -0.8653
  862MOL0     N16252  10.246   4.179   5.051 -1.0406  0.3895  0.0445
  862MOL0     C16253  10.209   4.219   4.932 -0.4857  0.8744 -0.1214
  862MOL0     C16254  10.160   4.343   4.942 -0.2001 -0.4108 -0.5033
  862MOL0     C16255  10.080   4.428   4.840  1.1994  0.0592  0.3448
  862MOL0     C16256  10.072   4.359   4.701 -0.8231 -0.8373 -0.5131
  862MOL0     C16257  10.198   4.328   4.620  0.2980 -0.2954 -0.1235
  862MOL0     C16258  10.169   4.268   4.478 -0.0796 -0.1202  0.7878
  862MOL0     O16259  10.080   4.341   4.403 -0.3365 -0.8291  0.6060
  862MOL0     C16260  10.110   4.464   4.358  0.2447  0.0197 -1.1037
  862MOL0     C16261  10.240   4.511   4.343 -0.6674 -1.4305  0.6130
  862MOL0     C16262  10.262   4.642   4.293 -0.0171 -0.0809 -0.8457
  862MOL0     C16263  10.402   4.689   4.288  0.6762 -0.3424  0.5134
  862MOL0     C16264  10.159   4.731   4.258 -0.3530  0.3784  0.1358
  862MOL0     C16265  10.171   4.867   4.211 -0.4095 -0.0088 -0.2555
  862MOL0     O16266  10.067   4.950   4.227  0.9452 -0.4217 -0.0436
  862MOL0     C16267  10.056   5.086   4.183 -0.7134  0.7495  0.4227
  862MOL0     C16268   9.938   5.130   4.129  0.7134  0.4557  0.3876
  862MOL0     C16269   9.915   5.254   4.077 -0.7797 -0.6315  0.0981
  862MOL0     C16270  10.017   5.347   4.093  0.4654 -0.2923 -0.3328
  862MOL0     O16271  10.000   5.460   4.023 -0.0279 -0.2444 -0.1177
  862MOL0     C16272  10.117   5.558   4.016  0.0755  0.5777  0.2339
  862MOL0     C16273  10.096   5.664   3.913 -0.4174 -0.9844  0.1341
  862MOL0     C16274   9.983   5.752   3.973 -1.4891 -0.8451 -0.3250
  862MOL0     C16275   9.951   5.868   3.886  0.7132  0.2872 -0.3354
  862MOL0     C16276   9.840   5.958   3.940  0.2179 -0.0963 -0.2236
  862MOL0     C16277   9.823   6.069   3.836  0.3248  0.2778  0.0289
  862MOL0     C16278   9.714   6.177   3.873 -0.2350 -0.1868 -0.6407
  862MOL0     C16279   9.583   6.114   3.915 -0.4178 -0.2511  0.6195
  862MOL0    Cl16280   9.439   6.228   3.938  0.2463  0.3031  0.3090
  862MOL0     C16281  10.139   5.303   4.147 -0.2086  0.6124 -0.4679
  862MOL0     C16282  10.160   5.172   4.196 -0.6008 -0.5470 -0.5470
  862MOL0     O16283  10.275   4.903   4.155 -0.6176 -0.3320 -0.3438
  862MOL0     C16284  10.029   4.683   4.285  0.2392  0.3491  1.1268
  862MOL0     C16285  10.008   4.554   4.339  0.0263 -0.1699  0.1402
  862MOL0     N16286  10.172   4.384   5.070 -0.1956 -0.0478 -0.4624
  862MOL0     N16287  10.224   4.283   5.133  0.0563  0.2135  0.4874
  862MOL0     C16288  10.587   3.734   6.155 -0.4020 -0.2976 -0.4641
  862MOL0     C16289  10.705   3.676   6.213 -1.0682  0.0425 -0.3352
  862MOL0     C16290  11.168   3.572   6.220 -1.5729 -0.2563  0.1873
  862MOL0     C16291  11.162   3.441   6.276 -0.1600 -0.4258 -0.1568
  862MOL0     C16292  11.272   3.375   6.330 -0.0993 -0.1560 -0.0368
  862MOL0     C16293  11.400   3.429   6.320 -0.0994 -0.4133  0.0579
  862MOL0     O16294  11.513   3.354   6.358  0.6472 -0.1445 -0.6177
  862MOL0     C16295  11.636   3.397   6.300  0.0834 -0.1368 -0.3718
  862MOL0     C16296  11.725   3.281   6.306 -0.0391  1.1194 -0.2049
  862MOL0     C16297  11.764   3.240   6.450 -0.3991  0.9138  0.3460
  862MOL0     C16298  11.833   3.099   6.465 -0.2978 -1.3037 -0.2091
  862MOL0     C16299  11.967   3.090   6.401 -0.7282 -0.4818 -0.7865
  862MOL0     C16300  12.078   3.093   6.342  0.2874 -0.3001  0.2561
  862MOL0     C16301  11.406   3.561   6.270 -0.6328  0.0860 -0.3840
  862MOL0     C16302  11.299   3.627   6.225 -0.5390 -0.3248  0.0299
  862MOL0     H16303  10.900   3.627   5.939 -0.4031  0.1764 -0.5625
  862MOL0     H16304  10.694   3.701   5.828 -0.5792 -0.1312  0.5440
  862MOL0     H16305  10.501   3.807   5.748  0.5051 -3.0169 -1.5483
  862MOL0     H16306  10.474   3.650   5.815  1.1550  0.9025  0.2058
  862MOL0     H16307  10.230   3.710   5.861  3.0745 -0.1232  1.3219
  862MOL0     H16308  10.267   3.879   5.816 -1.0095  0.5980 -0.8611
  862MOL0     H16309  10.303   3.667   5.597  0.4620 -0.3912 -0.8012
  862MOL0     H16310  10.151   3.717   5.639 -0.0513  0.2972 -0.4024
  862MOL0     H16311  10.221   3.970   5.612 -1.9857 -1.8461  1.8041
  862MOL0     H16312  10.385   3.921   5.589  0.3954 -2.1027  0.9330
  862MOL0     H16313  10.328   3.795   5.380  0.8854  0.2122  1.2324
  862MOL0     H16314  10.155   3.815   5.413  0.0512  1.5830 -1.9907
  862MOL0     H16315  10.182   4.061   5.361  0.5197  0.0430  2.0446
  862MOL0     H16316  10.346   4.044   5.380  0.1319 -1.1906  1.0437
  862MOL0     H16317  10.355   3.880   5.180  3.3039  3.2175  0.1870
  862MOL0     H16318  10.185   3.926   5.142  1.1244 -1.1456 -0.3919
  862MOL0     H16319  10.367   4.015   5.001 -2.0742  0.1128 -1.4585
  862MOL0     H16320  10.428   4.113   5.142 -1.1340 -0.9068  0.5730
  862MOL0     H16321  10.216   4.158   4.842  1.0027  1.2002 -0.2627
  862MOL0     H16322   9.977   4.439   4.877  0.2122 -1.9907 -1.5252
  862MOL0     H16323  10.130   4.524   4.834  1.2657  0.1721  2.0934
  862MOL0     H16324  10.013   4.424   4.635 -0.6298 -1.0733 -0.9240
  862MOL0     H16325  10.018   4.266   4.718 -0.3751 -0.8100  1.2581
  862MOL0     H16326  10.273   4.266   4.669 -0.1601 -1.3031 -0.6767
  862MOL0     H16327  10.250   4.422   4.601  2.2833 -1.4009 -0.3684
  862MOL0     H16328  10.136   4.164   4.495  2.0331 -0.7727  1.1582
  862MOL0     H16329  10.261   4.252   4.421  1.4620 -1.8509  3.4900
  862MOL0     H16330  10.323   4.447   4.373 -0.5870 -0.8162  1.7470
  862MOL0     H16331  10.438   4.652   4.192 -1.3575 -0.4079 -0.2844
  862MOL0     H16332  10.412   4.797   4.305 -0.4169 -0.0102 -0.6952
  862MOL0     H16333  10.459   4.643   4.369 -1.9417 -1.0055  2.1115
  862MOL0     H16334   9.860   5.055   4.116  0.5213  0.2959  2.2010
  862MOL0     H16335   9.821   5.284   4.033 -1.1367  1.9697  2.3460
  862MOL0     H16336  10.145   5.600   4.113  0.9850 -0.0070  0.2363
  862MOL0     H16337  10.207   5.501   3.989 -1.1260 -0.0774 -2.7782
  862MOL0     H16338  10.184   5.727   3.895 -0.8411  0.0966  1.6636
  862MOL0     H16339  10.076   5.615   3.817  1.1397  0.5975 -1.0926
  862MOL0     H16340  10.016   5.795   4.068 -5.4638  0.5866  0.5826
  862MOL0     H16341   9.894   5.694   3.997 -1.5496 -0.1343  1.3268
  862MOL0     H16342  10.043   5.925   3.873 -0.1289  2.9320  3.5340
  862MOL0     H16343   9.915   5.830   3.790 -3.0104 -0.1600  1.0698
  862MOL0     H16344   9.871   6.009   4.031  0.5770  1.2937 -1.0979
  862MOL0     H16345   9.752   5.897   3.964 -1.4623  1.8522 -1.1022
  862MOL0     H16346   9.911   6.133   3.837  0.7036 -0.2376  0.0839
  862MOL0     H16347   9.803   6.025   3.737  0.0499 -1.3939  0.7852
  862MOL0     H16348   9.696   6.242   3.787  0.3663 -1.8573 -2.0944
  862MOL0     H16349   9.742   6.233   3.963  0.1482 -1.5036  0.0917
  862MOL0     H16350   9.601   6.055   4.005  0.9054 -1.8749 -0.6296
  862MOL0     H16351   9.553   6.032   3.849  2.7476 -1.1486  0.1278
  862MOL0     H16352  10.226   5.367   4.156  0.8664 -1.0696  2.4144
  862MOL0     H16353  10.255   5.138   4.235  0.1480  2.8128  0.9547
  862MOL0     H16354   9.939   4.743   4.280  1.4102  2.1174  0.3836
  862MOL0     H16355   9.903   4.530   4.352 -0.2741  0.2520 -1.3381
  862MOL0     H16356  10.507   3.772   6.218  0.0700  1.0693 -0.6506
  862MOL0     H16357  10.714   3.649   6.318  0.2726 -3.1193 -1.1649
  862MOL0     H16358  11.065   3.392   6.270  0.7777 -2.3300 -0.4106
  862MOL0     H16359  11.271   3.279   6.381  0.5526 -0.2599 -0.2112
  862MOL0     H16360  11.620   3.415   6.193 -0.3391 -2.3186 -0.7331
  862MOL0     H16361  11.680   3.483   6.351  0.3444 -0.2649 -0.3783
  862MOL0     H16362  11.814   3.306   6.248  2.0493 -1.7131  1.4929
  862MOL0     H16363  11.678   3.195   6.257  0.9270 -1.0515  2.4261
  862MOL0     H16364  11.677   3.222   6.513 -0.0324  1.6221  1.0757
  862MOL0     H16365  11.832   3.311   6.500 -0.2373  0.9494  0.0786
  862MOL0     H16366  11.762   3.030   6.419 -1.5515  0.3794 -0.8853
  862MOL0     H16367  11.838   3.068   6.570 -0.1142  2.4907  1.0832
  862MOL0     H16368  12.165   3.082   6.281 -0.2804 -0.9678 -0.4413
  862MOL0     H16369  11.504   3.605   6.254 -0.6563  1.4576  2.5482
  862MOL0     H16370  11.315   3.719   6.169  0.4888 -0.3864  0.2042
  863MOL0     O16371   6.111   9.869   7.397 -0.2295  0.2086  0.1990
  863MOL0     C16372   6.198   9.899   7.473 -0.4172  0.6289  0.5278
  863MOL0     O16373   6.190   9.882   7.601  0.6761 -0.4081 -0.0350
  863MOL0     C16374   6.117   9.778   7.660  0.5942  0.1630  1.2368
  863MOL0     C16375   5.981   9.799   7.669 -0.5630  0.0633  0.2890
  863MOL0     C16376   5.901   9.694   7.717  0.1562  0.4499  0.8404
  863MOL0     C16377   5.950   9.574   7.759 -0.5967 -0.6620 -0.0146
  863MOL0     O16378   5.871   9.479   7.826  0.4454 -0.2540  0.5092
  863MOL0     C16379   5.934   9.354   7.880  0.3048 -0.2340  0.1849
  863MOL0     C16380   5.824   9.298   7.979 -0.1681 -0.0720 -0.2453
  863MOL0     C16381   5.730   9.203   7.917  0.0620 -0.0882 -0.2689
  863MOL0     C16382   5.658   9.266   7.789  0.4184  0.8436 -0.0387
  863MOL0     C16383   5.543   9.175   7.728  0.2896 -0.6543 -0.6501
  863MOL0     C16384   5.446   9.263   7.641  0.3753 -0.1255  1.0575
  863MOL0     C16385   5.313   9.185   7.613 -0.4824 -0.0473 -0.4031
  863MOL0     C16386   5.199   9.267   7.539 -0.5228  0.0778 -0.8564
  863MOL0     N16387   5.107   9.188   7.444 -0.1267  0.2394 -1.1595
  863MOL0     C16388   4.987   9.131   7.481  0.1245  0.4764  0.6440
  863MOL0     C16389   4.934   9.098   7.355  0.5284  0.4297 -0.5671
  863MOL0     C16390   4.804   9.033   7.340  0.6425  0.0489 -0.2528
  863MOL0     C16391   4.716   9.090   7.223 -0.4732 -0.3721  0.1859
  863MOL0     C16392   4.677   8.987   7.124  0.3999 -0.0938  0.5163
  863MOL0     C16393   4.578   9.049   7.020 -0.0046  0.5969 -0.1039
  863MOL0     O16394   4.561   8.949   6.919  0.4553 -0.1518 -0.5561
  863MOL0     C16395   4.451   8.950   6.831  0.5755  0.1464 -0.3710
  863MOL0     C16396   4.422   8.829   6.778 -0.2828 -0.3692  0.5075
  863MOL0     C16397   4.315   8.811   6.689 -0.4769  0.2955  0.4639
  863MOL0     C16398   4.294   8.681   6.623  0.4148 -0.1081 -0.5105
  863MOL0     C16399   4.239   8.921   6.645 -0.3832  0.5371 -1.3281
  863MOL0     C16400   4.127   8.926   6.544  0.4228 -0.4546 -0.5593
  863MOL0     O16401   4.111   8.822   6.459 -0.1353  0.4562  0.2674
  863MOL0     C16402   3.995   8.817   6.386  0.0142 -0.4599  0.4274
  863MOL0     C16403   3.904   8.708   6.406  0.5365  0.3591  0.0356
  863MOL0     C16404   3.795   8.698   6.315 -0.3185 -0.0463 -0.3868
  863MOL0     C16405   3.789   8.783   6.211  0.5108  0.4527  0.4569
  863MOL0     O16406   3.675   8.775   6.138 -1.3806 -0.2768 -0.1338
  863MOL0     C16407   3.688   8.682   6.030  0.3698 -0.1933 -0.2115
  863MOL0     C16408   3.603   8.725   5.910 -0.6125  0.1275 -0.2098
  863MOL0     C16409   3.615   8.645   5.778 -0.0535 -0.7477  0.1600
  863MOL0     C16410   3.537   8.513   5.771 -0.7306 -0.2445 -0.3525
  863MOL0     C16411   3.563   8.441   5.636  0.2518 -0.9209  0.1734
  863MOL0     C16412   3.462   8.330   5.599 -0.0884 -0.6979 -0.9465
  863MOL0     C16413   3.447   8.217   5.716 -0.0510 -0.5422 -0.2168
  863MOL0     C16414   3.313   8.156   5.714  0.7305  0.5470 -0.0056
  863MOL0    Cl16415   3.284   8.050   5.863 -0.2096 -0.1788  0.3033
  863MOL0     C16416   3.866   8.902   6.202 -0.0984  0.4250  0.6239
  863MOL0     C16417   3.978   8.909   6.281 -0.2198 -0.1590 -0.4939
  863MOL0     O16418   4.055   9.026   6.540  0.2038 -0.6225  0.4755
  863MOL0     C16419   4.275   9.039   6.705  0.3766  0.3083 -0.1036
  863MOL0     C16420   4.373   9.059   6.799  0.3985  1.0704  0.0860
  863MOL0     N16421   5.024   9.128   7.261 -0.2920  0.0989  0.4787
  863MOL0     N16422   5.125   9.192   7.306  1.0290  0.0435 -0.1504
  863MOL0     C16423   6.084   9.557   7.757 -0.4944  0.4192 -0.2557
  863MOL0     C16424   6.165   9.652   7.702 -1.6434 -0.2401  0.5866
  863MOL0     C16425   6.310   9.979   7.427 -0.2020 -0.5323  0.6997
  863MOL0     C16426   6.331  10.036   7.288  0.8360  1.3304 -0.6948
  863MOL0     C16427   6.440  10.120   7.248  1.3755 -1.0060 -1.4123
  863MOL0     C16428   6.534  10.159   7.349  0.5291  1.3412  0.9595
  863MOL0     O16429   6.629  10.249   7.335  0.7260  0.0421  0.1977
  863MOL0     C16430   6.697  10.262   7.202 -0.1140  0.3333  0.2859
  863MOL0     C16431   6.765  10.124   7.174 -0.4426 -0.5132  0.2169
  863MOL0     C16432   6.888  10.115   7.261  0.2606 -0.6583 -0.4194
  863MOL0     C16433   6.934   9.967   7.270  0.2718  0.0872 -0.3615
  863MOL0     C16434   7.007   9.929   7.140 -0.5014  0.1342 -0.4170
  863MOL0     C16435   7.042   9.897   7.030 -0.7723 -0.6366 -0.6003
  863MOL0     C16436   6.527  10.098   7.477  1.2067  0.5494  0.6255
  863MOL0     C16437   6.419  10.013   7.513  1.1977 -0.1242  0.3723
  863MOL0     H16438   5.933   9.887   7.628  1.0664 -0.7301 -3.8194
  863MOL0     H16439   5.792   9.697   7.720  0.0390 -1.2421 -0.5982
  863MOL0     H16440   5.958   9.284   7.800  1.8539  1.3339 -0.8126
  863MOL0     H16441   6.024   9.384   7.935  0.8860 -0.0745 -0.8309
  863MOL0     H16442   5.863   9.254   8.071 -4.0843 -0.9428  1.2135
  863MOL0     H16443   5.768   9.383   8.017  0.4914  0.2794 -0.0528
  863MOL0     H16444   5.775   9.108   7.887 -1.0228 -0.0053 -2.3715
  863MOL0     H16445   5.651   9.175   7.987 -0.3352 -0.0880 -0.7132
  863MOL0     H16446   5.603   9.357   7.817 -0.4820  0.1566  0.4691
  863MOL0     H16447   5.725   9.288   7.705 -0.1631  1.5051 -0.3506
  863MOL0     H16448   5.578   9.092   7.667 -1.5637 -0.8470 -1.5309
  863MOL0     H16449   5.476   9.135   7.805 -0.8070  2.1254 -0.0350
  863MOL0     H16450   5.424   9.362   7.684  0.9100  0.8850 -0.8874
  863MOL0     H16451   5.495   9.294   7.548 -2.0192  0.3397 -0.1227
  863MOL0     H16452   5.338   9.090   7.566  2.1897 -0.2199  1.1486
  863MOL0     H16453   5.283   9.160   7.715  2.6737 -0.9343  0.4288
  863MOL0     H16454   5.261   9.338   7.484  1.6941  0.6019  2.0677
  863MOL0     H16455   5.124   9.317   7.601 -0.6318 -0.7812 -0.2737
  863MOL0     H16456   4.951   9.125   7.583  2.1777 -0.2756  1.3849
  863MOL0     H16457   4.809   8.926   7.318 -2.4004 -0.1064 -0.6283
  863MOL0     H16458   4.749   9.039   7.435  2.5363  1.0546  0.8534
  863MOL0     H16459   4.776   9.162   7.167 -2.2334 -0.8256 -2.4651
  863MOL0     H16460   4.630   9.143   7.264 -0.2859  0.3452 -0.3201
  863MOL0     H16461   4.630   8.906   7.181  0.5171 -0.8654 -0.4581
  863MOL0     H16462   4.766   8.955   7.069 -0.0394 -0.9796  0.2905
  863MOL0     H16463   4.607   9.148   6.986  0.4798  0.9428  1.2273
  863MOL0     H16464   4.483   9.064   7.073  0.1695 -0.9051  0.7148
  863MOL0     H16465   4.479   8.745   6.816 -2.6745 -1.4166  1.9852
  863MOL0     H16466   4.344   8.600   6.677 -1.0148 -0.7298 -0.0704
  863MOL0     H16467   4.185   8.677   6.628  0.4337  0.7266  1.0121
  863MOL0     H16468   4.329   8.680   6.519 -0.1270 -1.8244 -0.7086
  863MOL0     H16469   3.913   8.633   6.484  0.4728 -0.2216 -0.5060
  863MOL0     H16470   3.734   8.609   6.323 -1.5140  0.5006 -2.6462
  863MOL0     H16471   3.792   8.673   5.997  0.5266 -2.0296  0.7053
  863MOL0     H16472   3.659   8.585   6.070 -1.6014  1.3736  2.5363
  863MOL0     H16473   3.496   8.732   5.932 -0.1362 -0.2189  2.6196
  863MOL0     H16474   3.627   8.831   5.903  0.6306 -0.1264 -0.0320
  863MOL0     H16475   3.724   8.636   5.766 -0.4256 -3.4131 -2.4571
  863MOL0     H16476   3.576   8.710   5.700  0.1607 -1.5396 -0.6334
  863MOL0     H16477   3.583   8.457   5.854  1.1834  1.3318 -0.2807
  863MOL0     H16478   3.430   8.527   5.789 -0.7646 -0.5179 -0.3327
  863MOL0     H16479   3.661   8.394   5.647  0.4073 -0.0298  5.1342
  863MOL0     H16480   3.569   8.510   5.552  2.6189 -0.3698  0.7154
  863MOL0     H16481   3.364   8.373   5.576 -0.1367 -1.6251 -2.6010
  863MOL0     H16482   3.496   8.282   5.507  0.1903 -0.1032 -1.1652
  863MOL0     H16483   3.464   8.272   5.809 -0.8761  0.9399 -0.9178
  863MOL0     H16484   3.534   8.151   5.708  0.8529  0.7646 -1.7362
  863MOL0     H16485   3.308   8.086   5.630  0.5826 -0.6507  0.9768
  863MOL0     H16486   3.228   8.225   5.708 -0.0139 -0.1884  1.5703
  863MOL0     H16487   3.860   8.969   6.117 -1.0569  2.3956  2.1337
  863MOL0     H16488   4.056   8.984   6.269  0.1730 -0.3266  0.8962
  863MOL0     H16489   4.217   9.121   6.667 -2.2260 -2.1922 -1.9367
  863MOL0     H16490   4.388   9.153   6.852 -1.0796  2.2354 -1.4366
  863MOL0     H16491   6.127   9.464   7.793 -1.0632 -0.5927 -2.0645
  863MOL0     H16492   6.274   9.649   7.703 -1.5446  1.6414  1.3615
  863MOL0     H16493   6.268  10.005   7.206 -1.5322  2.1204  0.7335
  863MOL0     H16494   6.440  10.167   7.150  1.5033  2.6516  0.1606
  863MOL0     H16495   6.629  10.300   7.126 -2.0291 -3.9984 -0.4825
  863MOL0     H16496   6.764  10.348   7.210 -0.6109  0.5718  4.1034
  863MOL0     H16497   6.800  10.108   7.071 -0.1209 -2.9589  0.6525
  863MOL0     H16498   6.702  10.037   7.193  0.3743 -1.0430  0.5563
  863MOL0     H16499   6.865  10.157   7.359  2.6576  6.3944 -2.2924
  863MOL0     H16500   6.967  10.183   7.227 -2.0280  1.6672 -1.4179
  863MOL0     H16501   6.854   9.901   7.305  0.0334 -0.0006 -1.0586
  863MOL0     H16502   7.011   9.973   7.348 -1.7750  1.1453  1.7222
  863MOL0     H16503   7.077   9.858   6.937 -3.5292 -0.0525 -1.9777
  863MOL0     H16504   6.609  10.112   7.548  2.2602 -2.1354  0.0715
  863MOL0     H16505   6.426   9.962   7.608 -1.6439  0.0171  0.7443
  864MOL0     O16506   7.360   4.401   2.106 -0.0022  0.6372  0.2752
  864MOL0     C16507   7.403   4.296   2.159  0.5135 -0.4893 -1.0394
  864MOL0     O16508   7.321   4.202   2.216  0.3615 -0.1451 -0.4201
  864MOL0     C16509   7.188   4.226   2.234  0.0006  0.3431 -0.5275
  864MOL0     C16510   7.089   4.217   2.136 -0.2000 -0.4654 -0.2006
  864MOL0     C16511   6.957   4.228   2.169 -0.3918 -0.4278  0.2761
  864MOL0     C16512   6.910   4.247   2.304 -1.1279 -0.8801  1.0403
  864MOL0     O16513   6.784   4.259   2.343 -0.2934  0.3233 -0.7002
  864MOL0     C16514   6.707   4.343   2.265  0.0756 -1.0191 -0.1264
  864MOL0     C16515   6.607   4.415   2.369  0.1362  0.1876  0.5158
  864MOL0     C16516   6.672   4.463   2.499 -0.2203 -0.1006  0.7415
  864MOL0     C16517   6.579   4.555   2.570 -0.6477  0.0254 -0.3083
  864MOL0     C16518   6.641   4.627   2.687 -0.5693 -0.4483 -0.8456
  864MOL0     C16519   6.576   4.769   2.708 -0.3476 -0.2569  0.1178
  864MOL0     C16520   6.649   4.840   2.821  0.5158 -0.1034 -0.5098
  864MOL0     C16521   6.600   4.980   2.846 -0.2691 -0.4453  0.4591
  864MOL0     N16522   6.459   4.977   2.888  0.6987 -0.5059 -0.5970
  864MOL0     C16523   6.354   5.024   2.812 -0.1424  0.1569  0.5262
  864MOL0     C16524   6.250   5.042   2.892 -0.5083  0.4435 -0.2018
  864MOL0     C16525   6.109   5.060   2.840  0.2406 -0.5296  0.5548
  864MOL0     C16526   6.019   4.946   2.885 -0.0852  0.2902 -0.8027
  864MOL0     C16527   5.891   4.916   2.810  0.2351 -0.0108 -0.5985
  864MOL0     C16528   5.795   5.029   2.819 -0.4135  1.1105  0.2410
  864MOL0     O16529   5.818   5.146   2.732 -0.0874 -0.5493  0.9295
  864MOL0     C16530   5.741   5.258   2.747 -0.0887  0.1285 -0.6858
  864MOL0     C16531   5.618   5.267   2.680 -0.0985 -0.1855  0.0951
  864MOL0     C16532   5.524   5.371   2.699  0.1819  1.0772 -0.2100
  864MOL0     C16533   5.386   5.346   2.651 -0.4663 -0.1780 -0.3771
  864MOL0     C16534   5.573   5.493   2.768  0.1617  0.2401 -0.6943
  864MOL0     C16535   5.496   5.618   2.771 -0.3155  1.1867 -0.2681
  864MOL0     O16536   5.375   5.618   2.726 -0.4805  0.0520 -0.0264
  864MOL0     C16537   5.297   5.731   2.720  0.2752  0.3440 -0.6168
  864MOL0     C16538   5.185   5.738   2.812  0.7045  0.4603  0.8333
  864MOL0     C16539   5.108   5.852   2.811 -1.3637  0.4701 -0.3567
  864MOL0     C16540   5.132   5.949   2.717  0.4779 -0.3162  0.1286
  864MOL0     O16541   5.052   6.058   2.693 -0.0016  0.0481 -0.2553
  864MOL0     C16542   4.918   6.059   2.753 -0.0956 -1.1413  1.1892
  864MOL0     C16543   4.813   6.006   2.651  0.2816  0.9605  0.0479
  864MOL0     C16544   4.801   6.104   2.536  0.1844  0.0740  0.6788
  864MOL0     C16545   4.722   6.243   2.564  0.5165  0.0708  0.3879
  864MOL0     C16546   4.590   6.220   2.640  0.4005 -0.0948  0.3593
  864MOL0     C16547   4.473   6.145   2.577  0.4352  1.0242  0.5465
  864MOL0     C16548   4.356   6.168   2.666 -0.1388  0.9136  0.0041
  864MOL0     C16549   4.225   6.097   2.625  0.3259  0.3055 -0.3481
  864MOL0    Cl16550   4.183   6.158   2.459 -0.1788  0.1807 -0.2359
  864MOL0     C16551   5.242   5.941   2.630 -0.5336 -0.4430  0.1457
  864MOL0     C16552   5.325   5.833   2.632  0.5620  0.0181 -0.5575
  864MOL0     O16553   5.554   5.709   2.825  0.6344 -0.2892 -0.5232
  864MOL0     C16554   5.698   5.481   2.833 -0.2388  0.3188 -0.2228
  864MOL0     C16555   5.779   5.361   2.830  0.2264 -0.4961  0.7033
  864MOL0     N16556   6.295   5.014   3.022 -0.7858 -0.4483  0.1297
  864MOL0     N16557   6.412   4.958   3.013 -0.1974 -0.3487  0.3248
  864MOL0     C16558   7.017   4.255   2.401 -0.2431  0.1808  0.8649
  864MOL0     C16559   7.153   4.243   2.367  0.4705  0.1393 -0.0778
  864MOL0     C16560   7.545   4.264   2.131 -0.3252 -0.3768 -0.6296
  864MOL0     C16561   7.596   4.134   2.162 -0.4971 -0.5974  0.3298
  864MOL0     C16562   7.732   4.111   2.149 -0.0926 -0.4670 -0.5398
  864MOL0     C16563   7.818   4.205   2.097 -0.7797  0.1951 -0.1980
  864MOL0     O16564   7.951   4.169   2.076  0.3788 -0.1675 -0.7846
  864MOL0     C16565   8.022   4.227   1.966 -0.2383 -0.3013  0.3128
  864MOL0     C16566   8.138   4.127   1.934 -0.6791 -0.0441  0.3851
  864MOL0     C16567   8.259   4.161   2.011 -0.2743  0.2256 -0.9387
  864MOL0     C16568   8.236   4.175   2.166 -0.2513 -0.6041 -0.1556
  864MOL0     C16569   8.361   4.188   2.231 -0.7942  0.7317  0.8175
  864MOL0     C16570   8.479   4.189   2.272 -0.2361  0.4722 -0.2927
  864MOL0     C16571   7.771   4.335   2.065  0.6118  0.3688  0.0206
  864MOL0     C16572   7.637   4.361   2.079  0.7069 -0.4677  0.3734
  864MOL0     H16573   7.111   4.209   2.030 -2.3622 -1.4383 -0.6430
  864MOL0     H16574   6.884   4.226   2.088  1.7191  2.0745 -1.8655
  864MOL0     H16575   6.766   4.418   2.212 -0.3968 -1.0676 -0.7317
  864MOL0     H16576   6.648   4.288   2.191  1.6350 -1.1058 -1.3655
  864MOL0     H16577   6.575   4.507   2.318 -1.7821 -1.3002 -1.0864
  864MOL0     H16578   6.510   4.370   2.389  0.3278 -1.6792 -2.2722
  864MOL0     H16579   6.689   4.372   2.557  0.3079 -0.5665 -0.1223
  864MOL0     H16580   6.772   4.504   2.484 -1.1205  2.1751  0.5530
  864MOL0     H16581   6.544   4.630   2.498 -2.3764  0.4833  0.9409
  864MOL0     H16582   6.493   4.494   2.599 -0.7959 -0.0924 -1.0007
  864MOL0     H16583   6.637   4.571   2.781  0.2034  1.3492  0.3224
  864MOL0     H16584   6.747   4.650   2.672 -0.4756 -0.2178  0.1180
  864MOL0     H16585   6.593   4.834   2.621 -0.6016 -0.5110 -0.1250
  864MOL0     H16586   6.472   4.758   2.741  0.0320 -2.9996  0.5960
  864MOL0     H16587   6.644   4.785   2.915 -2.2741 -0.4607 -0.7878
  864MOL0     H16588   6.752   4.839   2.784  0.4846 -0.1200 -0.5960
  864MOL0     H16589   6.601   5.035   2.751  0.9596 -0.4294  0.4625
  864MOL0     H16590   6.654   5.034   2.925 -2.3792  0.0305  1.6524
  864MOL0     H16591   6.356   5.031   2.704 -0.6562  2.6197  0.5992
  864MOL0     H16592   6.063   5.151   2.881 -1.6638 -0.1282 -2.1778
  864MOL0     H16593   6.108   5.071   2.731  2.2743  0.7069  0.6211
  864MOL0     H16594   5.983   4.964   2.986  1.5547  2.3996 -0.5336
  864MOL0     H16595   6.080   4.855   2.880 -0.4173 -0.1267  1.6394
  864MOL0     H16596   5.842   4.831   2.860 -1.6894  1.9527  1.0547
  864MOL0     H16597   5.909   4.887   2.706  1.8109 -0.6711 -0.1697
  864MOL0     H16598   5.775   5.054   2.923  0.5335  2.7589  0.0540
  864MOL0     H16599   5.705   4.972   2.797 -0.5503  1.8104 -1.1140
  864MOL0     H16600   5.581   5.177   2.632 -0.1369  0.2458 -0.6909
  864MOL0     H16601   5.365   5.420   2.574  2.6068  0.2520 -0.9223
  864MOL0     H16602   5.380   5.245   2.609  3.0114 -0.2543 -1.0276
  864MOL0     H16603   5.316   5.342   2.735  2.6644  2.0674  2.6775
  864MOL0     H16604   5.183   5.654   2.881  3.6956  0.2602  0.8419
  864MOL0     H16605   5.030   5.845   2.886 -0.9438  0.9724  0.1331
  864MOL0     H16606   4.901   5.998   2.843  1.0457 -0.5446  1.8230
  864MOL0     H16607   4.895   6.161   2.784 -1.2931 -1.3065  0.8998
  864MOL0     H16608   4.836   5.902   2.625 -0.2419  0.7016  0.6109
  864MOL0     H16609   4.717   5.993   2.700  0.5257 -1.1381  0.0537
  864MOL0     H16610   4.750   6.056   2.452  0.5422 -1.7504  1.4458
  864MOL0     H16611   4.903   6.118   2.500 -0.9223 -0.7542 -3.2838
  864MOL0     H16612   4.785   6.300   2.633 -0.4436 -0.0399  1.3983
  864MOL0     H16613   4.718   6.298   2.470 -0.8624 -3.0529 -1.5746
  864MOL0     H16614   4.559   6.324   2.651  0.3763  0.5132 -3.9551
  864MOL0     H16615   4.611   6.177   2.739 -0.9928  0.6074  0.9842
  864MOL0     H16616   4.453   6.181   2.476  0.8834 -0.8365 -0.2462
  864MOL0     H16617   4.486   6.037   2.565 -1.5374  0.9467 -1.3998
  864MOL0     H16618   4.344   6.276   2.678  2.1733  0.9288  3.7544
  864MOL0     H16619   4.386   6.138   2.766  1.2950  0.0601 -0.6623
  864MOL0     H16620   4.148   6.113   2.702  3.4880  0.1262  3.1286
  864MOL0     H16621   4.249   5.992   2.605 -1.6183 -0.7567  2.2923
  864MOL0     H16622   5.249   6.018   2.554 -0.6035  0.5124  1.0782
  864MOL0     H16623   5.399   5.823   2.554  0.7260 -4.0927 -0.1170
  864MOL0     H16624   5.739   5.568   2.883 -2.9490 -0.0863  3.1211
  864MOL0     H16625   5.868   5.358   2.891 -0.0227 -1.1891  1.0503
  864MOL0     H16626   6.988   4.263   2.506 -2.1029 -1.2366  0.5048
  864MOL0     H16627   7.226   4.230   2.446 -1.6922  0.2652  2.0495
  864MOL0     H16628   7.539   4.047   2.194 -0.9892 -1.0257 -1.5599
  864MOL0     H16629   7.773   4.018   2.189 -1.3956 -0.4890  0.8109
  864MOL0     H16630   7.945   4.212   1.890 -0.3629 -1.3539  0.6389
  864MOL0     H16631   8.057   4.329   1.985  3.6127 -2.0350  4.3475
  864MOL0     H16632   8.165   4.148   1.831 -1.3077  0.0008  0.2257
  864MOL0     H16633   8.105   4.023   1.944  2.5346 -1.1308  0.9039
  864MOL0     H16634   8.302   4.251   1.966 -1.6906 -0.6447 -4.3433
  864MOL0     H16635   8.333   4.084   1.987  0.1917  0.3600  0.0282
  864MOL0     H16636   8.172   4.096   2.208 -2.5234  2.5213  2.8036
  864MOL0     H16637   8.177   4.267   2.178 -1.1937 -1.1058 -0.7949
  864MOL0     H16638   8.579   4.212   2.304 -0.1827  0.4228 -0.4247
  864MOL0     H16639   7.847   4.403   2.028  0.8134  1.0877  1.6635
  864MOL0     H16640   7.602   4.461   2.053 -0.0807 -1.4194 -2.5852
  865MOL0     O16641   8.251   6.613   4.776  0.6434  0.0487 -0.5120
  865MOL0     C16642   8.332   6.604   4.689  1.2320  0.1218 -0.0177
  865MOL0     O16643   8.312   6.611   4.549  0.5455 -0.1724 -0.0100
  865MOL0     C16644   8.183   6.634   4.501 -0.5512  0.1400 -1.3429
  865MOL0     C16645   8.155   6.755   4.445 -0.1768 -0.8901  0.2105
  865MOL0     C16646   8.039   6.773   4.381  0.6639 -0.0001  0.8680
  865MOL0     C16647   7.940   6.674   4.379  0.0139 -0.2929  0.5259
  865MOL0     O16648   7.825   6.677   4.310  0.6320  0.4178 -0.9984
  865MOL0     C16649   7.744   6.791   4.303  0.4627 -0.5816 -0.0184
  865MOL0     C16650   7.624   6.758   4.220  0.3832  0.2368  1.2953
  865MOL0     C16651   7.501   6.701   4.301 -0.7799  0.2128  0.0770
  865MOL0     C16652   7.377   6.695   4.211 -0.2534  0.6884 -0.1693
  865MOL0     C16653   7.259   6.626   4.269  0.3635  0.1525  0.3838
  865MOL0     C16654   7.208   6.684   4.396 -0.2743  0.0374 -0.3227
  865MOL0     C16655   7.131   6.817   4.368 -0.0956  0.1187 -0.1052
  865MOL0     C16656   7.001   6.810   4.290  0.1167  0.3874 -0.5482
  865MOL0     N16657   6.894   6.780   4.381 -0.2904  0.0443 -0.4504
  865MOL0     C16658   6.827   6.871   4.448  0.5209 -0.4435 -0.4073
  865MOL0     C16659   6.729   6.803   4.514 -0.9565 -0.6275 -0.9829
  865MOL0     C16660   6.633   6.865   4.603  0.3453  0.2341 -0.0693
  865MOL0     C16661   6.491   6.809   4.590 -0.8185 -1.2772 -0.3594
  865MOL0     C16662   6.400   6.831   4.704  0.0807 -0.5105 -0.4252
  865MOL0     C16663   6.324   6.959   4.689  0.4894 -0.9218  0.7648
  865MOL0     O16664   6.391   7.089   4.668 -0.0998 -0.0110 -1.0752
  865MOL0     C16665   6.327   7.203   4.635  0.0184  1.5397  0.1971
  865MOL0     C16666   6.209   7.234   4.690 -1.5489 -0.3812 -0.2747
  865MOL0     C16667   6.134   7.355   4.658 -0.7492  0.4206  0.4519
  865MOL0     C16668   6.006   7.386   4.729  0.0596 -0.0580  0.5451
  865MOL0     C16669   6.188   7.444   4.555  0.8618  0.1312 -0.2969
  865MOL0     C16670   6.132   7.569   4.511  0.6709 -0.2467 -0.3586
  865MOL0     O16671   6.223   7.669   4.520 -0.1712 -0.0606  0.1569
  865MOL0     C16672   6.191   7.788   4.456 -1.0322 -0.4015  0.5771
  865MOL0     C16673   6.087   7.872   4.491 -0.6961 -0.9803  0.1024
  865MOL0     C16674   6.054   7.987   4.425 -0.2177 -0.1925 -0.0699
  865MOL0     C16675   6.121   8.013   4.306 -0.9354 -0.5354 -0.0858
  865MOL0     O16676   6.108   8.116   4.217  0.1595 -1.0132 -0.3925
  865MOL0     C16677   6.021   8.228   4.237 -0.0550  0.0568 -0.8772
  865MOL0     C16678   5.902   8.228   4.136 -0.2262  0.2882 -1.1075
  865MOL0     C16679   5.793   8.138   4.193 -0.0078 -0.0176 -0.4219
  865MOL0     C16680   5.672   8.219   4.233 -0.3593 -0.0591  0.5231
  865MOL0     C16681   5.580   8.214   4.115  0.0558  0.1357  1.0176
  865MOL0     C16682   5.448   8.291   4.144  0.0091 -0.2613 -0.6351
  865MOL0     C16683   5.348   8.226   4.252 -0.4210 -0.3308  0.6273
  865MOL0     C16684   5.234   8.325   4.298 -0.3953 -0.1435 -0.1120
  865MOL0    Cl16685   5.299   8.456   4.384 -0.0518  0.2084 -0.0107
  865MOL0     C16686   6.234   7.939   4.273  0.1718  1.2239 -0.4877
  865MOL0     C16687   6.270   7.819   4.347  0.5341  0.3143  1.0715
  865MOL0     O16688   6.015   7.581   4.480  0.3303 -0.2595 -0.3869
  865MOL0     C16689   6.319   7.423   4.513  0.2188 -0.2897  0.1600
  865MOL0     C16690   6.389   7.306   4.559  0.2017 -0.4259  0.6758
  865MOL0     N16691   6.752   6.670   4.496 -0.3615  0.1055  0.0341
  865MOL0     N16692   6.860   6.655   4.426 -0.2836 -0.0230 -0.1029
  865MOL0     C16693   7.962   6.560   4.449  0.0826 -0.4268 -0.2221
  865MOL0     C16694   8.076   6.535   4.520 -0.0353 -0.5047 -0.4519
  865MOL0     C16695   8.472   6.585   4.730 -0.3293  0.5380 -0.5007
  865MOL0     C16696   8.498   6.555   4.859 -0.1654 -0.4451 -0.9312
  865MOL0     C16697   8.635   6.527   4.904  0.2270  0.8664  0.8785
  865MOL0     C16698   8.737   6.505   4.803  0.2631  0.2097 -0.5827
  865MOL0     O16699   8.868   6.468   4.838  0.0790  0.2632 -0.4145
  865MOL0     C16700   8.944   6.383   4.751  0.5368  0.2756  1.1562
  865MOL0     C16701   9.079   6.439   4.754  0.4524 -0.3908  1.1093
  865MOL0     C16702   9.096   6.564   4.658 -1.0418  0.6571  0.4475
  865MOL0     C16703   9.141   6.524   4.517  0.8377  1.1889  0.4140
  865MOL0     C16704   9.273   6.463   4.515 -0.3724  0.3987  0.1489
  865MOL0     C16705   9.388   6.432   4.537  0.4506 -0.4869 -0.1646
  865MOL0     C16706   8.703   6.525   4.665  0.1392 -0.2957  0.1007
  865MOL0     C16707   8.571   6.569   4.628  0.1800 -0.6763  0.2002
  865MOL0     H16708   8.227   6.837   4.435 -2.3152  1.1438  0.5219
  865MOL0     H16709   8.014   6.860   4.320 -0.5426 -0.8061  0.1650
  865MOL0     H16710   7.712   6.834   4.399 -1.9754  1.5913 -1.6394
  865MOL0     H16711   7.805   6.860   4.244  0.6354 -0.4381  0.3248
  865MOL0     H16712   7.585   6.846   4.167  0.1871 -1.1851 -1.0578
  865MOL0     H16713   7.656   6.686   4.144  1.5629  1.4831  0.5633
  865MOL0     H16714   7.533   6.602   4.335  1.7879  1.2634  0.9996
  865MOL0     H16715   7.490   6.767   4.388  3.3439  1.7612 -0.3448
  865MOL0     H16716   7.346   6.798   4.195 -0.8612  0.5866  0.3365
  865MOL0     H16717   7.398   6.648   4.114  1.8491  1.0365  0.0730
  865MOL0     H16718   7.183   6.611   4.191 -1.0870  0.5635  1.6681
  865MOL0     H16719   7.292   6.524   4.290 -0.3123 -0.8436 -2.7746
  865MOL0     H16720   7.124   6.621   4.427  0.4983 -0.7125  0.2636
  865MOL0     H16721   7.280   6.701   4.477  1.5051  1.1564 -2.0519
  865MOL0     H16722   7.116   6.874   4.460 -0.4326  1.6163 -1.0587
  865MOL0     H16723   7.196   6.887   4.315 -0.2704  0.7221  0.4633
  865MOL0     H16724   6.993   6.739   4.207 -0.7556 -0.4123  0.1905
  865MOL0     H16725   6.983   6.907   4.243  2.5466  2.3682  2.3209
  865MOL0     H16726   6.848   6.978   4.447 -1.8436  0.0728  0.1076
  865MOL0     H16727   6.670   6.854   4.705 -0.2473 -0.0213  0.1189
  865MOL0     H16728   6.627   6.973   4.587  0.3438  0.2993  0.3634
  865MOL0     H16729   6.496   6.701   4.572  2.1951 -1.0019 -1.9773
  865MOL0     H16730   6.462   6.856   4.496  0.3104  0.2611  0.0261
  865MOL0     H16731   6.444   6.839   4.804 -2.9602  0.0435  0.9831
  865MOL0     H16732   6.334   6.744   4.708 -0.0335 -0.3940  1.9665
  865MOL0     H16733   6.255   6.975   4.772 -1.5682 -0.5416 -0.9079
  865MOL0     H16734   6.263   6.955   4.598  1.4471  1.3764 -0.0564
  865MOL0     H16735   6.179   7.168   4.772  0.7689  0.6972  1.5678
  865MOL0     H16736   5.984   7.493   4.734  1.9204  0.9021 -4.6903
  865MOL0     H16737   5.926   7.338   4.672  0.6013  0.1237 -0.3875
  865MOL0     H16738   6.007   7.330   4.823  0.3817  0.5677  0.9194
  865MOL0     H16739   6.037   7.848   4.583  1.2947 -2.7121  0.8013
  865MOL0     H16740   5.970   8.049   4.454 -1.6183 -1.0937 -1.9665
  865MOL0     H16741   5.994   8.243   4.342 -2.9173  1.5882 -1.7064
  865MOL0     H16742   6.071   8.320   4.204 -3.1790  1.4566 -2.1871
  865MOL0     H16743   5.875   8.332   4.121  1.5327  0.7747 -1.0727
  865MOL0     H16744   5.927   8.189   4.037 -3.6321  1.8888 -2.7606
  865MOL0     H16745   5.838   8.081   4.276 -3.2389 -0.0364  1.4840
  865MOL0     H16746   5.766   8.060   4.121 -0.2243 -0.7098  0.3760
  865MOL0     H16747   5.629   8.171   4.322  0.4714  0.4538  1.2297
  865MOL0     H16748   5.702   8.323   4.250 -0.3710  0.2192 -1.0297
  865MOL0     H16749   5.558   8.112   4.082 -1.1138  0.2102  1.5401
  865MOL0     H16750   5.633   8.266   4.034 -1.0597 -0.2247  0.0329
  865MOL0     H16751   5.476   8.393   4.172  0.5528 -0.3751 -0.7421
  865MOL0     H16752   5.387   8.295   4.053  1.4115 -1.5799 -1.6957
  865MOL0     H16753   5.405   8.207   4.343  0.6702  1.1008  0.2862
  865MOL0     H16754   5.306   8.138   4.203 -2.2050  1.3889 -1.1546
  865MOL0     H16755   5.153   8.277   4.353  0.1817 -0.1949  0.7181
  865MOL0     H16756   5.187   8.371   4.211 -1.4259 -1.7307 -0.4347
  865MOL0     H16757   6.288   7.975   4.185  0.5519  2.7300  0.3118
  865MOL0     H16758   6.356   7.756   4.327 -0.8303 -0.9309 -1.3942
  865MOL0     H16759   6.376   7.491   4.451  3.6817 -2.5588  0.5175
  865MOL0     H16760   6.487   7.283   4.518  0.0631 -2.8496  1.5051
  865MOL0     H16761   7.894   6.475   4.445 -1.7260  0.9990 -1.3914
  865MOL0     H16762   8.097   6.439   4.565 -0.4693 -1.7448 -2.7666
  865MOL0     H16763   8.421   6.556   4.934  0.2170 -2.5593 -0.4389
  865MOL0     H16764   8.645   6.507   5.010 -0.9102 -0.2157  0.8058
  865MOL0     H16765   8.954   6.285   4.798  1.8236  0.3550  1.0706
  865MOL0     H16766   8.904   6.369   4.650 -1.2180  0.4487  1.8003
  865MOL0     H16767   9.156   6.366   4.728 -1.8932 -0.9643 -6.2712
  865MOL0     H16768   9.090   6.465   4.860  0.9242  0.0085  0.9680
  865MOL0     H16769   9.165   6.634   4.706  1.4738 -1.3430  0.0003
  865MOL0     H16770   9.005   6.625   4.656  1.1251  4.1174 -0.5909
  865MOL0     H16771   9.160   6.611   4.453  0.2323  0.2123 -1.1425
  865MOL0     H16772   9.057   6.466   4.480  1.2291 -2.0817  4.0021
  865MOL0     H16773   9.491   6.412   4.559 -0.2212 -0.6671  3.3544
  865MOL0     H16774   8.771   6.526   4.580  1.1828  2.7951  0.8427
  865MOL0     H16775   8.547   6.583   4.523  0.4478  4.0446  0.5413
  866MOL0     O16776   0.670   1.117  11.178  0.1254  0.2732  0.0289
  866MOL0     C16777   0.760   1.044  11.135  1.1258 -0.0865  0.5410
  866MOL0     O16778   0.748   0.971  11.024 -0.5349  0.3427 -0.0586
  866MOL0     C16779   0.633   0.988  10.951  0.7296 -0.3893 -0.3038
  866MOL0     C16780   0.518   0.909  10.977  0.0688 -0.4051  0.2077
  866MOL0     C16781   0.408   0.931  10.897  0.8752  0.4418 -0.9663
  866MOL0     C16782   0.411   1.017  10.790 -0.7585  0.2392 -0.5362
  866MOL0     O16783   0.288   1.034  10.740  0.6171 -0.5318  0.4131
  866MOL0     C16784   0.285   1.112  10.618 -0.3705 -0.4018 -0.0846
  866MOL0     C16785   0.143   1.129  10.552  0.3153 -0.4633 -0.1104
  866MOL0     C16786   0.042   1.198  10.641 -0.4865 -0.8614 -0.8039
  866MOL0     C16787  -0.048   1.292  10.564  0.0746  0.5037  0.6490
  866MOL0     C16788  -0.124   1.391  10.654 -0.5705  0.8637  0.2700
  866MOL0     C16789  -0.177   1.520  10.579  0.4707 -0.2428  0.3427
  866MOL0     C16790  -0.195   1.632  10.689  0.5653  1.0335  1.1178
  866MOL0     C16791  -0.073   1.675  10.774  0.1577  0.1759  0.0236
  866MOL0     N16792   0.029   1.738  10.691  0.1692 -0.5830  0.0006
  866MOL0     C16793   0.152   1.789  10.735 -0.9552 -0.4791  0.4373
  866MOL0     C16794   0.220   1.833  10.619 -0.0008  1.2580  0.5499
  866MOL0     C16795   0.366   1.863  10.603  0.3439 -0.4779 -0.3974
  866MOL0     C16796   0.434   1.829  10.466  0.0090 -0.4269 -0.6044
  866MOL0     C16797   0.566   1.899  10.446 -0.6034 -0.8691 -0.1806
  866MOL0     C16798   0.665   1.869  10.570  0.2525  0.3657  0.1819
  866MOL0     O16799   0.772   1.961  10.564 -0.5030  0.9828 -0.3799
  866MOL0     C16800   0.754   2.090  10.598 -0.3187 -1.1683 -0.3353
  866MOL0     C16801   0.635   2.145  10.648  0.5221  0.1286  0.1911
  866MOL0     C16802   0.618   2.287  10.658  0.0205  0.0042  0.1999
  866MOL0     C16803   0.479   2.332  10.690 -0.1985  0.0576  0.0007
  866MOL0     C16804   0.729   2.368  10.630 -0.3718  0.2446 -0.2869
  866MOL0     C16805   0.718   2.517  10.634 -0.3046  0.1838 -0.6093
  866MOL0     O16806   0.799   2.592  10.557 -0.9295  1.2508  0.5729
  866MOL0     C16807   0.827   2.722  10.584 -0.8708  0.1160  0.6752
  866MOL0     C16808   0.744   2.830  10.550 -1.0712  0.3472  0.2312
  866MOL0     C16809   0.787   2.963  10.572  0.3911 -0.7622 -0.6780
  866MOL0     C16810   0.918   2.986  10.622  0.6631 -0.3196  0.1354
  866MOL0     O16811   0.974   3.107  10.647  0.6751 -0.3928  0.3806
  866MOL0     C16812   0.902   3.209  10.730  0.0055  0.2544  0.5376
  866MOL0     C16813   0.975   3.337  10.749 -0.6651  0.2498 -0.0297
  866MOL0     C16814   0.934   3.411  10.879 -0.2815  0.4231  0.3791
  866MOL0     C16815   1.038   3.521  10.909  0.4850  1.3023  0.6234
  866MOL0     C16816   0.992   3.610  11.022  0.9639 -0.3550 -0.6989
  866MOL0     C16817   0.918   3.723  10.958 -0.3531 -0.6133 -0.4211
  866MOL0     C16818   0.880   3.815  11.078 -0.0061 -0.1493 -0.9195
  866MOL0     C16819   0.820   3.948  11.040  0.4018  0.1251  0.4661
  866MOL0    Cl16820   0.692   3.935  10.925  0.3101 -0.3111 -0.0190
  866MOL0     C16821   0.997   2.874  10.658  0.0150 -0.6499  0.0257
  866MOL0     C16822   0.954   2.744  10.631  1.1062  0.6101 -0.0549
  866MOL0     O16823   0.669   2.567  10.736  0.2067 -0.6824  0.0527
  866MOL0     C16824   0.849   2.315  10.584  1.1377 -0.2375  0.0566
  866MOL0     C16825   0.856   2.176  10.583 -0.4392 -1.5877  0.2021
  866MOL0     N16826   0.136   1.814  10.515 -0.1996 -0.9509  0.5788
  866MOL0     N16827   0.025   1.775  10.558  0.0625  0.1222  0.6762
  866MOL0     C16828   0.528   1.090  10.762 -0.2822  0.0801 -0.1010
  866MOL0     C16829   0.638   1.079  10.847  0.2582 -0.1984 -0.3203
  866MOL0     C16830   0.895   1.064  11.190 -0.2119 -0.2539 -0.2947
  866MOL0     C16831   1.012   1.059  11.108  0.2751  0.4394  0.0246
  866MOL0     C16832   1.140   1.097  11.165  1.2271  0.1504  0.0862
  866MOL0     C16833   1.155   1.117  11.300  0.2440 -0.2874 -0.2949
  866MOL0     O16834   1.285   1.129  11.350  0.6743 -0.4707 -0.1151
  866MOL0     C16835   1.300   1.134  11.493 -0.9763  0.5418 -0.6997
  866MOL0     C16836   1.443   1.102  11.537  0.5494  0.0153  0.0600
  866MOL0     C16837   1.545   1.207  11.491  0.4032 -0.3769  0.1348
  866MOL0     C16838   1.686   1.184  11.537 -0.3783 -0.3650 -0.5498
  866MOL0     C16839   1.764   1.289  11.482  0.0653  0.8191  0.9042
  866MOL0     C16840   1.822   1.378  11.432 -0.2996  0.2053  0.5619
  866MOL0     C16841   1.042   1.112  11.382 -0.4113 -1.1886  0.2576
  866MOL0     C16842   0.916   1.086  11.328 -0.4476  0.3368 -0.1038
  866MOL0     H16843   0.530   0.829  11.049 -0.0365 -2.1747 -1.6328
  866MOL0     H16844   0.315   0.878  10.917  0.7686  0.5301 -1.2323
  866MOL0     H16845   0.333   1.210  10.629 -2.2029  0.4352  0.9410
  866MOL0     H16846   0.343   1.052  10.547  0.2438  1.0693 -0.8574
  866MOL0     H16847   0.164   1.182  10.459 -0.4293 -1.2011 -0.7184
  866MOL0     H16848   0.114   1.030  10.517 -0.0603 -0.2217 -0.4945
  866MOL0     H16849  -0.015   1.135  10.709  0.2838  0.2784  0.9595
  866MOL0     H16850   0.096   1.269  10.704  0.0920 -1.7741 -0.2526
  866MOL0     H16851   0.017   1.338  10.489 -0.0264 -2.9054 -1.7637
  866MOL0     H16852  -0.119   1.235  10.503 -2.2895 -1.1744  4.5599
  866MOL0     H16853  -0.209   1.334  10.691 -0.3535  0.5710  0.3241
  866MOL0     H16854  -0.052   1.416  10.733 -1.6996 -1.2480  2.0743
  866MOL0     H16855  -0.095   1.546  10.511  0.5634 -2.3707 -0.4290
  866MOL0     H16856  -0.268   1.511  10.520 -0.1418  0.1475  1.1994
  866MOL0     H16857  -0.219   1.725  10.637  1.4896  1.1437  0.8630
  866MOL0     H16858  -0.276   1.595  10.752 -0.1226  1.1446  0.3089
  866MOL0     H16859  -0.036   1.589  10.831 -2.8197 -0.7879  0.6711
  866MOL0     H16860  -0.114   1.746  10.846 -0.9646 -0.4050 -0.0290
  866MOL0     H16861   0.201   1.790  10.832 -3.4677 -0.9086  1.8108
  866MOL0     H16862   0.373   1.971  10.620 -1.9795 -0.4967  1.1299
  866MOL0     H16863   0.412   1.796  10.676  0.6361  0.4445  0.2809
  866MOL0     H16864   0.373   1.859  10.381  0.6958  3.4167  0.0798
  866MOL0     H16865   0.438   1.719  10.461 -1.5977 -0.6930  2.0137
  866MOL0     H16866   0.556   2.007  10.432  2.1922 -0.4437  0.3974
  866MOL0     H16867   0.604   1.860  10.351 -2.9867 -0.3904 -1.3847
  866MOL0     H16868   0.698   1.766  10.551  0.5152  0.5325 -0.2676
  866MOL0     H16869   0.612   1.873  10.666 -1.4047  0.9443 -0.7283
  866MOL0     H16870   0.553   2.078  10.669  1.9277 -2.4366 -1.9359
  866MOL0     H16871   0.430   2.349  10.594 -0.3633  2.1380  0.4145
  866MOL0     H16872   0.420   2.257  10.743 -1.6779  1.4553  0.4057
  866MOL0     H16873   0.475   2.421  10.753 -1.3727 -1.4266  2.1412
  866MOL0     H16874   0.644   2.821  10.508 -0.2383  0.3222 -1.8341
  866MOL0     H16875   0.724   3.046  10.542 -0.4234 -0.8663  0.6374
  866MOL0     H16876   0.802   3.239  10.699  1.4749  3.4766 -1.6340
  866MOL0     H16877   0.887   3.160  10.827  1.1539 -1.6085 -0.1802
  866MOL0     H16878   1.083   3.320  10.757 -0.6800 -0.0164 -0.4098
  866MOL0     H16879   0.967   3.399  10.659  1.8248  1.3033  0.3895
  866MOL0     H16880   0.918   3.345  10.965  1.7490 -0.0335  0.4530
  866MOL0     H16881   0.838   3.459  10.856 -1.6626 -2.9564 -1.6922
  866MOL0     H16882   1.123   3.459  10.940 -0.2498 -1.0888 -1.7985
  866MOL0     H16883   1.052   3.572  10.813 -3.7662  2.2662  0.3345
  866MOL0     H16884   1.083   3.648  11.068 -0.4648  2.3713  0.0866
  866MOL0     H16885   0.933   3.563  11.101 -1.6405  3.0712 -0.3600
  866MOL0     H16886   0.987   3.777  10.893  1.8696 -0.6875  1.7294
  866MOL0     H16887   0.827   3.688  10.908 -1.0912 -3.5341  2.6000
  866MOL0     H16888   0.974   3.835  11.130 -0.5931  4.7092 -1.3044
  866MOL0     H16889   0.807   3.776  11.149 -0.1671  1.6258 -0.0615
  866MOL0     H16890   0.900   4.005  10.992 -0.2299  2.2920  1.7962
  866MOL0     H16891   0.786   4.005  11.127  0.5593  4.0078 -1.7941
  866MOL0     H16892   1.103   2.880  10.683 -0.0339 -0.5210  0.2029
  866MOL0     H16893   1.025   2.663  10.645  0.0258 -0.1803  1.0386
  866MOL0     H16894   0.925   2.381  10.543  2.2638 -1.5594 -0.0741
  866MOL0     H16895   0.950   2.134  10.548 -0.5837 -1.0227 -0.9061
  866MOL0     H16896   0.540   1.158  10.678 -1.6233  1.6494  0.9115
  866MOL0     H16897   0.725   1.143  10.840  0.2405  0.4040  3.3306
  866MOL0     H16898   1.000   1.025  11.006 -0.2394 -0.1384  0.2675
  866MOL0     H16899   1.226   1.110  11.100  0.2870  3.2158 -0.7269
  866MOL0     H16900   1.259   1.226  11.535 -0.4871 -0.2555  1.6851
  866MOL0     H16901   1.240   1.051  11.531  2.2420 -2.8434 -2.4056
  866MOL0     H16902   1.467   0.998  11.513 -0.2910 -0.3338  0.6587
  866MOL0     H16903   1.444   1.109  11.646  1.4762  3.4737 -0.0593
  866MOL0     H16904   1.520   1.306  11.532 -0.1622 -0.5182  0.1485
  866MOL0     H16905   1.547   1.205  11.382  1.7685 -1.5494  0.1583
  866MOL0     H16906   1.727   1.097  11.485  0.4863  0.3184 -1.0421
  866MOL0     H16907   1.709   1.160  11.642  1.4805 -0.2413 -0.9025
  866MOL0     H16908   1.858   1.463  11.377  1.9235 -0.3362  1.0434
  866MOL0     H16909   1.052   1.156  11.480  1.4321  3.1357 -1.6173
  866MOL0     H16910   0.835   1.059  11.395 -1.3589  1.6422 -0.6619
  867MOL0     O16911   9.860   0.862   8.840 -0.1457  1.0567 -0.5143
  867MOL0     C16912   9.958   0.919   8.886 -0.4187  0.0691 -0.7926
  867MOL0     O16913   9.956   1.034   8.954 -0.1813 -0.1183  0.5206
  867MOL0     C16914   9.850   1.119   8.971  0.3501  0.4314  0.6434
  867MOL0     C16915   9.858   1.202   9.079 -0.0185  0.8325 -0.1485
  867MOL0     C16916   9.748   1.288   9.106 -0.3993  0.0237 -0.5197
  867MOL0     C16917   9.635   1.289   9.023 -0.1088  0.3530 -0.4552
  867MOL0     O16918   9.530   1.371   9.047  0.5327  0.6152 -0.3840
  867MOL0     C16919   9.407   1.296   9.084 -0.3325 -0.5648  1.4326
  867MOL0     C16920   9.285   1.366   9.020 -0.0838 -0.2441 -0.5264
  867MOL0     C16921   9.291   1.514   9.055 -0.0635  0.5518  0.4381
  867MOL0     C16922   9.162   1.586   9.014  0.5805 -0.2929 -0.6723
  867MOL0     C16923   9.140   1.722   9.085 -0.0051 -0.0315  0.2831
  867MOL0     C16924   8.992   1.768   9.099 -0.6810 -0.0755  0.0289
  867MOL0     C16925   9.009   1.920   9.103  0.0530  0.3761 -0.5135
  867MOL0     C16926   8.883   1.984   9.158  0.1775  0.2850  0.3632
  867MOL0     N16927   8.812   1.942   9.271 -0.1800  0.4127 -0.0358
  867MOL0     C16928   8.886   1.918   9.383  0.4587  0.5731 -0.0003
  867MOL0     C16929   8.792   1.904   9.483 -0.3115 -0.3906  0.1737
  867MOL0     C16930   8.808   1.880   9.629 -0.5536 -0.0017  0.3839
  867MOL0     C16931   8.904   1.768   9.653 -0.3507 -0.3161  1.1617
  867MOL0     C16932   8.939   1.753   9.798 -0.3344  0.8018 -0.5828
  867MOL0     C16933   9.093   1.715   9.820  0.2180  0.3439  0.7953
  867MOL0     O16934   9.124   1.696   9.960 -0.0771 -0.4806 -0.0535
  867MOL0     C16935   9.255   1.667   9.997 -0.1715  0.2537  0.6037
  867MOL0     C16936   9.358   1.619   9.915 -0.0848  0.2823  0.2450
  867MOL0     C16937   9.498   1.605   9.952  0.9493  1.1907 -0.3456
  867MOL0     C16938   9.593   1.548   9.868 -0.4584  0.8943  0.0416
  867MOL0     C16939   9.534   1.628  10.089  0.5782 -0.0543 -0.5301
  867MOL0     C16940   9.676   1.628  10.134 -0.3169 -0.3641 -0.6637
  867MOL0     O16941   9.711   1.737  10.217 -0.1024 -0.3053 -0.3312
  867MOL0     C16942   9.845   1.787  10.227  0.1724 -0.0891 -0.1645
  867MOL0     C16943   9.961   1.724  10.178  0.0114  0.8186 -0.6747
  867MOL0     C16944  10.083   1.789  10.186  0.1337 -0.7598  0.6314
  867MOL0     C16945  10.091   1.917  10.240  0.3175  0.0499  0.0807
  867MOL0     O16946  10.207   1.987  10.260  0.2648  0.0660  0.0561
  867MOL0     C16947  10.314   1.953  10.168 -0.4027  0.6623 -0.6372
  867MOL0     C16948  10.404   2.080  10.148  1.4583 -0.1139  0.6071
  867MOL0     C16949  10.547   2.062  10.095 -0.7651 -0.7625  0.7347
  867MOL0     C16950  10.592   2.207  10.052 -0.3256  0.1942 -0.1334
  867MOL0     C16951  10.733   2.218   9.994  0.4190  0.1411 -0.5292
  867MOL0     C16952  10.751   2.147   9.854  0.1650  1.2648  1.0762
  867MOL0     C16953  10.901   2.179   9.792 -0.6522 -0.8602  0.7229
  867MOL0     C16954  11.026   2.124   9.855  0.1794 -1.0501  0.7854
  867MOL0    Cl16955  11.055   1.953   9.804 -0.1999  0.7185  0.3438
  867MOL0     C16956   9.980   1.964  10.304  0.1038  0.9663 -0.4155
  867MOL0     C16957   9.857   1.904  10.288 -0.2828 -0.5055 -0.5902
  867MOL0     O16958   9.743   1.528  10.122  0.5440 -0.7258  0.7705
  867MOL0     C16959   9.428   1.672  10.169 -1.0592 -0.1271  1.1617
  867MOL0     C16960   9.294   1.682  10.127  0.1549 -0.2803  0.0602
  867MOL0     N16961   8.667   1.929   9.433  0.7055 -0.0305 -0.4673
  867MOL0     N16962   8.675   1.951   9.304  0.2123 -0.5381  0.1551
  867MOL0     C16963   9.639   1.205   8.910 -0.1567 -0.5140 -0.6900
  867MOL0     C16964   9.743   1.117   8.880  0.7245 -0.5426 -0.5533
  867MOL0     C16965  10.078   0.849   8.846  0.5273  0.6164 -0.8124
  867MOL0     C16966  10.080   0.716   8.796  0.0722  0.6773 -0.0840
  867MOL0     C16967  10.204   0.658   8.768  0.0192  0.2832  0.1059
  867MOL0     C16968  10.322   0.737   8.761  0.1695 -0.1025  0.5537
  867MOL0     O16969  10.436   0.685   8.703  0.4854 -0.3790 -0.3673
  867MOL0     C16970  10.567   0.712   8.767  1.1775 -0.3150 -0.0766
  867MOL0     C16971  10.667   0.594   8.745 -0.9411  0.0608 -0.5209
  867MOL0     C16972  10.793   0.645   8.808 -0.7389 -0.3412 -0.6237
  867MOL0     C16973  10.896   0.523   8.823 -0.9348 -0.0090  0.4422
  867MOL0     C16974  11.028   0.558   8.852 -0.6991 -0.4827  0.2027
  867MOL0     C16975  11.139   0.608   8.889 -0.2678 -0.4655 -0.2886
  867MOL0     C16976  10.320   0.863   8.816  0.6226 -0.9316 -0.1027
  867MOL0     C16977  10.202   0.917   8.869 -0.1419 -0.1382  0.7198
  867MOL0     H16978   9.951   1.214   9.134  1.4250  0.2635 -2.3477
  867MOL0     H16979   9.751   1.358   9.189 -0.4005  0.2245 -0.6903
  867MOL0     H16980   9.403   1.193   9.047  0.9300  0.1744 -0.9703
  867MOL0     H16981   9.398   1.302   9.193  0.6599  0.3238  1.4876
  867MOL0     H16982   9.284   1.345   8.912 -1.1135  2.1686 -1.0337
  867MOL0     H16983   9.193   1.338   9.071  1.1266  0.7304  2.3710
  867MOL0     H16984   9.313   1.516   9.162 -0.0044  1.5745  0.4160
  867MOL0     H16985   9.378   1.562   9.009 -0.9796  2.1154  0.2746
  867MOL0     H16986   9.164   1.611   8.907  0.2866  0.7267 -0.4498
  867MOL0     H16987   9.072   1.527   9.038 -1.0902  1.7951 -1.4709
  867MOL0     H16988   9.172   1.709   9.189 -0.3107 -2.8672  0.1013
  867MOL0     H16989   9.204   1.800   9.042  1.8958 -0.3781  2.2479
  867MOL0     H16990   8.932   1.743   9.010  1.4399  3.2275 -2.5629
  867MOL0     H16991   8.953   1.727   9.193  3.0417 -0.8271  1.4231
  867MOL0     H16992   9.086   1.945   9.177  1.1446 -2.0945 -0.6958
  867MOL0     H16993   9.039   1.953   9.003 -1.0198 -1.2819 -1.4235
  867MOL0     H16994   8.816   1.967   9.073  0.2953  1.2473  0.0541
  867MOL0     H16995   8.911   2.090   9.169 -0.6934  0.5138  0.4660
  867MOL0     H16996   8.994   1.920   9.375  0.4367  0.3136 -0.4141
  867MOL0     H16997   8.851   1.971   9.673 -1.1983  0.0291  0.9702
  867MOL0     H16998   8.714   1.865   9.682 -1.0481  1.0298 -0.1787
  867MOL0     H16999   8.996   1.776   9.594 -0.5197 -1.5156  0.7043
  867MOL0     H17000   8.845   1.687   9.609  1.5910 -1.1528 -0.0344
  867MOL0     H17001   8.883   1.675   9.850  1.0904  0.9487  1.2607
  867MOL0     H17002   8.918   1.849   9.848 -0.7421 -0.6636  2.2550
  867MOL0     H17003   9.158   1.793   9.780 -1.2049  0.5456 -1.2828
  867MOL0     H17004   9.116   1.627   9.759  0.6647  2.5711 -2.4928
  867MOL0     H17005   9.328   1.590   9.814 -4.0375 -0.0591  1.3347
  867MOL0     H17006   9.554   1.542   9.766 -2.8760 -0.6299  0.9868
  867MOL0     H17007   9.684   1.609   9.875  0.5689 -0.6403  0.6495
  867MOL0     H17008   9.631   1.453   9.905  0.6422  1.3181  0.0526
  867MOL0     H17009   9.953   1.634  10.118  0.7364  1.8148 -2.3278
  867MOL0     H17010  10.172   1.737  10.153 -0.7848 -3.3480  1.8910
  867MOL0     H17011  10.373   1.871  10.211 -2.0311  0.4953  1.4704
  867MOL0     H17012  10.287   1.924  10.066  5.1465  0.1575 -2.3076
  867MOL0     H17013  10.345   2.152  10.091  0.0821 -2.3630 -0.9426
  867MOL0     H17014  10.408   2.127  10.246 -0.3209 -1.3903  1.3424
  867MOL0     H17015  10.545   2.001  10.004 -0.8644  0.1189  0.1409
  867MOL0     H17016  10.609   2.009  10.168  0.1964 -0.1031  0.4132
  867MOL0     H17017  10.530   2.267   9.984  2.9110  2.4761 -1.3419
  867MOL0     H17018  10.600   2.263  10.145  0.4839  2.4294 -1.4565
  867MOL0     H17019  10.805   2.176  10.066  2.5348  4.2521  0.0946
  867MOL0     H17020  10.758   2.325   9.985  0.9061  0.0559 -0.2602
  867MOL0     H17021  10.742   2.039   9.866 -0.3468  1.5549  3.8077
  867MOL0     H17022  10.684   2.178   9.773  1.1881 -0.1648 -0.3947
  867MOL0     H17023  10.901   2.288   9.787  1.0522 -0.6921  2.8114
  867MOL0     H17024  10.904   2.142   9.689 -2.5143 -2.6731  1.2579
  867MOL0     H17025  11.017   2.128   9.964 -2.8279  0.4177  0.5726
  867MOL0     H17026  11.107   2.188   9.817 -0.7960  0.8258  1.7303
  867MOL0     H17027   9.991   2.052  10.368  0.0662  0.2746  0.5757
  867MOL0     H17028   9.766   1.930  10.340  1.1568  0.9346  1.3492
  867MOL0     H17029   9.467   1.680  10.270  1.1576  1.0570  0.2786
  867MOL0     H17030   9.215   1.719  10.191 -2.0261  2.5125 -3.7925
  867MOL0     H17031   9.562   1.223   8.835 -1.7867  2.1531  1.4306
  867MOL0     H17032   9.723   1.053   8.795  0.3155  2.7630 -3.1710
  867MOL0     H17033   9.994   0.654   8.771  1.3217 -0.2683 -2.3712
  867MOL0     H17034  10.214   0.554   8.739 -3.2231 -0.1360  0.1806
  867MOL0     H17035  10.607   0.804   8.725 -2.1999  1.1132 -0.4645
  867MOL0     H17036  10.553   0.716   8.875 -2.2937 -2.0369 -0.3254
  867MOL0     H17037  10.669   0.557   8.643 -0.1735 -1.8181  0.1449
  867MOL0     H17038  10.642   0.501   8.797 -1.6484  0.3532 -0.3132
  867MOL0     H17039  10.781   0.685   8.909  0.8799  1.4748 -1.0827
  867MOL0     H17040  10.833   0.723   8.743  3.5809 -0.9351  0.9905
  867MOL0     H17041  10.895   0.475   8.725  1.4412  0.3275  0.1903
  867MOL0     H17042  10.861   0.459   8.905  2.2055  0.2168  2.1271
  867MOL0     H17043  11.225   0.650   8.936 -0.9459  1.0942 -0.3892
  867MOL0     H17044  10.403   0.934   8.819  0.2577 -0.5097  0.1817
  867MOL0     H17045  10.202   1.021   8.900 -1.9730  0.6422 -1.6426
  868MOL0     O17046   6.769   9.644   6.745  0.2188 -0.3397 -0.0136
  868MOL0     C17047   6.799   9.763   6.729 -0.0500 -0.5351  1.2330
  868MOL0     O17048   6.723   9.870   6.744 -0.5472 -0.0646  0.7564
  868MOL0     C17049   6.595   9.856   6.791  0.7168 -0.6822  0.0444
  868MOL0     C17050   6.558   9.912   6.914 -0.4356 -0.8583 -0.0954
  868MOL0     C17051   6.423   9.910   6.956 -0.1276 -0.5260  0.3182
  868MOL0     C17052   6.320   9.870   6.871  0.0602 -0.6498  0.4121
  868MOL0     O17053   6.198   9.857   6.928  0.1820 -0.0098 -0.9922
  868MOL0     C17054   6.093   9.861   6.829 -0.6091  0.3529  1.2718
  868MOL0     C17055   5.956   9.874   6.896 -0.3833  0.6692 -1.1289
  868MOL0     C17056   5.951   9.995   6.986 -0.5042  0.5445  0.5067
  868MOL0     C17057   5.861   9.968   7.103 -0.0530  0.2996 -0.4183
  868MOL0     C17058   5.864  10.079   7.208 -0.2509 -0.5567  0.2536
  868MOL0     C17059   5.780  10.041   7.327 -0.0463  0.6504 -0.4220
  868MOL0     C17060   5.774  10.166   7.421 -0.1560 -0.3100 -0.2722
  868MOL0     C17061   5.649  10.169   7.507 -0.0089  0.5061 -0.0908
  868MOL0     N17062   5.663  10.061   7.610 -0.4024  0.0296  0.8861
  868MOL0     C17063   5.576   9.956   7.612  0.0204 -0.3173  0.3837
  868MOL0     C17064   5.587   9.896   7.726 -0.6514 -0.2057 -0.3246
  868MOL0     C17065   5.507   9.788   7.788 -0.2518  0.8928 -0.6364
  868MOL0     C17066   5.370   9.764   7.710  0.8605  0.5073  0.0886
  868MOL0     C17067   5.270   9.685   7.788  0.2655  1.0565  0.3134
  868MOL0     C17068   5.156   9.633   7.696 -0.2131 -0.5183 -0.8802
  868MOL0     O17069   5.079   9.744   7.642 -1.2837 -0.0917  0.7136
  868MOL0     C17070   4.968   9.723   7.570 -0.5480  0.4398 -0.3960
  868MOL0     C17071   4.959   9.603   7.500 -0.3916  0.8174  0.0546
  868MOL0     C17072   4.837   9.568   7.442 -0.2074 -0.1325  1.0421
  868MOL0     C17073   4.837   9.430   7.374 -0.7065  0.0721  0.1128
  868MOL0     C17074   4.728   9.663   7.439 -0.3906  0.2171  0.2313
  868MOL0     C17075   4.595   9.635   7.370 -0.5889 -0.1153 -0.6967
  868MOL0     O17076   4.523   9.739   7.324  1.0833 -0.1923  0.4282
  868MOL0     C17077   4.378   9.729   7.308  0.4099 -0.3504 -0.3276
  868MOL0     C17078   4.314   9.790   7.195 -0.1547  0.7956 -0.2571
  868MOL0     C17079   4.168   9.780   7.183 -0.2924 -0.1427 -0.4470
  868MOL0     C17080   4.079   9.722   7.274 -0.9791  0.1722 -0.8546
  868MOL0     O17081   3.947   9.715   7.275  0.5972 -0.5117 -0.2559
  868MOL0     C17082   3.890   9.794   7.169  0.4751 -0.4937 -0.2151
  868MOL0     C17083   3.731   9.809   7.190  0.1467 -0.2721 -0.2833
  868MOL0     C17084   3.669   9.673   7.168 -0.2235  1.1125 -0.3536
  868MOL0     C17085   3.517   9.693   7.142 -0.2184  0.2842  0.2778
  868MOL0     C17086   3.435   9.560   7.141 -0.1992 -0.2935 -0.4842
  868MOL0     C17087   3.303   9.588   7.061  0.3125  0.4825 -1.1541
  868MOL0     C17088   3.205   9.472   7.079 -0.5663  0.3312  0.2288
  868MOL0     C17089   3.249   9.359   6.989 -0.5210  0.1469 -0.1636
  868MOL0    Cl17090   3.201   9.206   7.083  0.0050 -0.3889 -0.3385
  868MOL0     C17091   4.154   9.668   7.395  0.0846 -0.4011 -0.2892
  868MOL0     C17092   4.295   9.675   7.409 -0.5304  0.5346  0.8820
  868MOL0     O17093   4.556   9.519   7.370  0.2350  0.0002  0.2774
  868MOL0     C17094   4.758   9.791   7.487  1.2497  0.6608  0.1562
  868MOL0     C17095   4.869   9.814   7.562  0.2598  0.0059  0.7990
  868MOL0     N17096   5.681   9.970   7.800  0.1753 -0.4365 -0.0141
  868MOL0     N17097   5.733  10.074   7.724  0.9233 -0.0484  0.4681
  868MOL0     C17098   6.354   9.825   6.741  0.2355 -0.3135 -0.0775
  868MOL0     C17099   6.491   9.808   6.705 -0.2160 -0.8235 -0.1279
  868MOL0     C17100   6.940   9.790   6.700  0.0703 -0.6722 -0.1514
  868MOL0     C17101   7.030   9.685   6.687 -1.1441  0.2645 -0.1529
  868MOL0     C17102   7.159   9.703   6.641  1.2788  0.9042  0.3192
  868MOL0     C17103   7.215   9.827   6.626  0.5086 -1.0237  1.2192
  868MOL0     O17104   7.340   9.847   6.597 -0.4022 -0.1092 -0.6442
  868MOL0     C17105   7.429   9.737   6.590  0.4934  0.5962  0.4466
  868MOL0     C17106   7.556   9.784   6.520  0.3721 -0.5152  0.1257
  868MOL0     C17107   7.540   9.800   6.370 -1.3236 -0.6602  0.3202
  868MOL0     C17108   7.681   9.816   6.317 -0.1682  0.5061 -0.4339
  868MOL0     C17109   7.734   9.949   6.366  0.0353  0.1724 -0.1323
  868MOL0     C17110   7.768  10.049   6.432 -0.0446  0.1945  0.8239
  868MOL0     C17111   7.129   9.938   6.648  0.3959 -0.1538 -0.4367
  868MOL0     C17112   6.989   9.920   6.678 -0.0540 -0.9788 -0.1038
  868MOL0     H17113   6.639   9.948   6.976 -3.2836  2.5242  2.0002
  868MOL0     H17114   6.406   9.923   7.062  1.4964  1.2227  0.4096
  868MOL0     H17115   6.114   9.950   6.770 -2.9464  1.3104  1.7608
  868MOL0     H17116   6.098   9.771   6.767  2.3120  0.6687  0.9200
  868MOL0     H17117   5.884   9.868   6.814  0.7451 -2.8664 -2.0602
  868MOL0     H17118   5.939   9.785   6.958  0.8382  2.8538  2.6671
  868MOL0     H17119   6.054  10.018   7.016  0.2431  1.3918 -2.3630
  868MOL0     H17120   5.919  10.088   6.939  3.7782  1.5589 -0.8362
  868MOL0     H17121   5.759   9.963   7.064 -0.7656  2.6283  0.9347
  868MOL0     H17122   5.892   9.874   7.148 -1.9804 -0.8643 -1.4064
  868MOL0     H17123   5.964  10.109   7.238  0.1238  0.1735 -1.5623
  868MOL0     H17124   5.820  10.164   7.155 -0.3782 -1.4193 -1.0969
  868MOL0     H17125   5.676  10.019   7.301  0.0168 -0.7067  0.3980
  868MOL0     H17126   5.820   9.953   7.376 -0.7521 -0.1394 -1.2114
  868MOL0     H17127   5.856  10.184   7.491 -1.4284  1.3621  0.8887
  868MOL0     H17128   5.764  10.256   7.359 -2.9021  0.0231  0.5068
  868MOL0     H17129   5.558  10.156   7.446 -0.6206  5.8078 -0.8289
  868MOL0     H17130   5.636  10.262   7.563 -0.2355 -0.4353  1.4847
  868MOL0     H17131   5.507   9.927   7.533  0.7902 -0.8719 -0.1047
  868MOL0     H17132   5.584   9.711   7.790  0.4397  1.5865  0.1532
  868MOL0     H17133   5.481   9.807   7.893  0.6983 -0.6050 -0.0980
  868MOL0     H17134   5.392   9.695   7.628 -0.0812  0.0603  0.2073
  868MOL0     H17135   5.314   9.853   7.681 -0.7353 -0.4262  0.1817
  868MOL0     H17136   5.215   9.738   7.866 -3.4924 -2.0219  0.0935
  868MOL0     H17137   5.319   9.600   7.836 -0.0617  0.9348  0.4373
  868MOL0     H17138   5.091   9.572   7.760  0.7847  0.2690  0.9572
  868MOL0     H17139   5.199   9.570   7.617 -0.7790 -1.0405 -0.7743
  868MOL0     H17140   5.039   9.530   7.497 -1.4308 -0.3546 -0.2083
  868MOL0     H17141   4.942   9.409   7.352 -0.3685  0.7837  0.9740
  868MOL0     H17142   4.792   9.360   7.446 -2.0465  0.4245 -0.3452
  868MOL0     H17143   4.783   9.428   7.279 -0.5689 -2.9876 -0.0090
  868MOL0     H17144   4.369   9.841   7.117 -0.7229  2.4772  0.4122
  868MOL0     H17145   4.132   9.813   7.086  0.7614 -1.5802 -1.3874
  868MOL0     H17146   3.929   9.896   7.171  0.6233 -0.5553 -0.0125
  868MOL0     H17147   3.912   9.755   7.069 -0.2948  0.8322 -0.9287
  868MOL0     H17148   3.698   9.858   7.282  0.5462 -0.0119 -0.2779
  868MOL0     H17149   3.688   9.878   7.116 -1.2103  0.6705  1.3215
  868MOL0     H17150   3.676   9.617   7.261 -0.1499 -0.2307 -1.1458
  868MOL0     H17151   3.718   9.610   7.093 -1.1869  0.3589 -0.3638
  868MOL0     H17152   3.478   9.759   7.221  0.2855 -1.0996  1.7365
  868MOL0     H17153   3.508   9.746   7.047  1.5996  0.3833  0.1158
  868MOL0     H17154   3.423   9.522   7.243 -0.9942 -2.4222 -1.3171
  868MOL0     H17155   3.504   9.490   7.094  0.0602 -0.4399  0.1036
  868MOL0     H17156   3.257   9.686   7.077  0.3048  0.4492 -0.9761
  868MOL0     H17157   3.337   9.600   6.957  0.0910  0.7761 -1.1954
  868MOL0     H17158   3.101   9.499   7.060 -0.8102 -1.2353 -0.8722
  868MOL0     H17159   3.207   9.430   7.180  0.3003  0.2535  0.1885
  868MOL0     H17160   3.358   9.361   6.984 -0.3714  3.0839  2.0056
  868MOL0     H17161   3.220   9.353   6.884  2.5638 -1.7167 -1.0344
  868MOL0     H17162   4.097   9.620   7.473  1.3695  0.2227  1.0811
  868MOL0     H17163   4.329   9.647   7.509 -1.0964  2.3714  1.6278
  868MOL0     H17164   4.689   9.874   7.477  0.6267  0.0773 -0.4822
  868MOL0     H17165   4.878   9.912   7.608 -1.4787  0.2258  0.7344
  868MOL0     H17166   6.277   9.799   6.668  0.5651  1.9456 -1.3073
  868MOL0     H17167   6.518   9.765   6.609 -0.6146  2.9959 -2.1490
  868MOL0     H17168   6.992   9.586   6.708 -2.1326  0.9092  1.3070
  868MOL0     H17169   7.216   9.611   6.644  0.5277  0.4361  0.3417
  868MOL0     H17170   7.459   9.705   6.690  2.0379 -2.2518 -0.8138
  868MOL0     H17171   7.393   9.652   6.531  0.4280 -0.5396  2.0650
  868MOL0     H17172   7.626   9.702   6.535  0.0436 -0.8547 -0.1713
  868MOL0     H17173   7.591   9.877   6.566 -0.3590  0.3136 -0.9108
  868MOL0     H17174   7.471   9.883   6.353 -1.9099 -1.2606 -0.3343
  868MOL0     H17175   7.495   9.718   6.312  2.1654 -1.6625 -1.2141
  868MOL0     H17176   7.693   9.809   6.209  0.7841  1.5202 -0.4144
  868MOL0     H17177   7.748   9.741   6.358 -1.9171 -0.7507  0.2443
  868MOL0     H17178   7.802  10.139   6.479  0.4790 -0.0920  1.0105
  868MOL0     H17179   7.163  10.041   6.649 -3.4848  1.2980 -0.6500
  868MOL0     H17180   6.923  10.006   6.674  1.6680  0.3739 -3.9941
  869MOL0     O17181   1.605   9.962   8.099  0.9054 -0.2692  0.3288
  869MOL0     C17182   1.629  10.024   8.202  0.6892 -0.0811 -0.7683
  869MOL0     O17183   1.563  10.015   8.320  0.4514  0.4482  0.2637
  869MOL0     C17184   1.433   9.961   8.341 -0.1763  0.5413  0.6218
  869MOL0     C17185   1.391   9.970   8.478 -0.6499 -0.0992 -0.2823
  869MOL0     C17186   1.262   9.933   8.511  0.6751  0.1692 -0.8282
  869MOL0     C17187   1.168   9.888   8.418 -1.0216  0.5473 -0.1792
  869MOL0     O17188   1.038   9.859   8.452  0.4935 -0.1127  0.5997
  869MOL0     C17189   0.986   9.896   8.581 -0.4911 -0.9382 -0.4258
  869MOL0     C17190   0.846   9.864   8.610  0.3075  0.3309 -1.0224
  869MOL0     C17191   0.760   9.836   8.475  0.3808 -0.0147 -0.5350
  869MOL0     C17192   0.722   9.969   8.406  0.8619  0.8547 -0.4410
  869MOL0     C17193   0.643   9.947   8.282 -0.3654  0.4569  0.0752
  869MOL0     C17194   0.497   9.897   8.308  0.2471 -0.4322 -0.0156
  869MOL0     C17195   0.410  10.016   8.360 -0.6229 -0.0430  0.1231
  869MOL0     C17196   0.321   9.972   8.480 -0.4178  0.3704 -0.1675
  869MOL0     N17197   0.214  10.067   8.511  0.3625  0.5593 -0.1757
  869MOL0     C17198   0.231  10.206   8.533  0.3550 -0.2216 -0.0342
  869MOL0     C17199   0.110  10.271   8.530  0.4693  1.0437 -0.1037
  869MOL0     C17200   0.077  10.418   8.527 -0.4497 -0.5678 -0.2859
  869MOL0     C17201   0.126  10.494   8.643  0.6665 -0.5948  0.3197
  869MOL0     C17202   0.059  10.631   8.653  0.6281 -0.5987 -0.0095
  869MOL0     C17203  -0.085  10.627   8.702 -0.3931  0.2951  0.2418
  869MOL0     O17204  -0.100  10.610   8.841  0.0663  0.0344  0.2605
  869MOL0     C17205  -0.223  10.580   8.884 -0.6487  0.1748  0.2434
  869MOL0     C17206  -0.223  10.512   8.999 -0.1998 -0.6174  0.1715
  869MOL0     C17207  -0.333  10.472   9.070  0.5423 -0.3740 -0.2260
  869MOL0     C17208  -0.322  10.390   9.197  0.2758 -0.9457  0.2831
  869MOL0     C17209  -0.457  10.496   9.010 -0.2599  0.3382 -0.2192
  869MOL0     C17210  -0.586  10.460   9.078  0.5007 -1.0187  0.5618
  869MOL0     O17211  -0.687  10.552   9.071 -0.3637 -0.4513  0.7293
  869MOL0     C17212  -0.805  10.521   9.135 -0.7926 -0.4193  0.2608
  869MOL0     C17213  -0.903  10.479   9.053 -0.7187 -0.1063  0.0639
  869MOL0     C17214  -1.030  10.436   9.103 -1.0128 -0.0369 -0.2154
  869MOL0     C17215  -1.057  10.441   9.238 -0.3583  0.4335  0.5038
  869MOL0     O17216  -1.170  10.388   9.299 -0.1305  0.6427 -0.5645
  869MOL0     C17217  -1.296  10.428   9.232  0.4378  0.0103  0.1300
  869MOL0     C17218  -1.393  10.451   9.344  0.3533  0.0387  0.1787
  869MOL0     C17219  -1.533  10.487   9.297 -0.0935  0.1926  0.6460
  869MOL0     C17220  -1.639  10.468   9.404  0.8197  0.1408 -0.2868
  869MOL0     C17221  -1.762  10.522   9.346  0.2872  0.5058  0.6322
  869MOL0     C17222  -1.762  10.667   9.334  1.3885 -0.6958  0.2670
  869MOL0     C17223  -1.902  10.725   9.367  0.6121  0.2584 -0.2346
  869MOL0     C17224  -1.910  10.874   9.349 -0.5768  0.2284  0.8417
  869MOL0    Cl17225  -2.060  10.936   9.404 -0.1063 -0.1848  0.2639
  869MOL0     C17226  -0.950  10.502   9.320  1.3954  0.5111  0.6672
  869MOL0     C17227  -0.829  10.551   9.266  0.0333  0.3492  0.3768
  869MOL0     O17228  -0.608  10.341   9.120 -0.2268 -0.7640  0.6112
  869MOL0     C17229  -0.462  10.562   8.887 -0.0107  0.7239  0.3438
  869MOL0     C17230  -0.344  10.597   8.826  0.2982 -0.9435 -0.7155
  869MOL0     N17231   0.020  10.164   8.498  0.3554 -0.3147  0.3207
  869MOL0     N17232   0.079  10.048   8.497  0.0812  0.1562  0.9224
  869MOL0     C17233   1.207   9.889   8.287 -0.7410  0.3583  0.2322
  869MOL0     C17234   1.339   9.926   8.244  0.4332  1.2087  0.6692
  869MOL0     C17235   1.740  10.114   8.198  0.1555 -0.4462  0.9047
  869MOL0     C17236   1.802  10.138   8.072  0.5551 -0.2972  0.0513
  869MOL0     C17237   1.919  10.211   8.069 -0.0172  0.3760  0.1138
  869MOL0     C17238   1.970  10.263   8.186 -0.0755  0.2106  0.8660
  869MOL0     O17239   2.079  10.351   8.191  0.1376 -0.2720  0.2088
  869MOL0     C17240   2.180  10.321   8.092 -1.3178  0.5727  0.5454
  869MOL0     C17241   2.319  10.386   8.125  0.1809 -1.2767  0.7392
  869MOL0     C17242   2.421  10.343   8.015  0.6284 -1.1798  0.6385
  869MOL0     C17243   2.559  10.380   8.058 -0.5936  0.3260 -0.6702
  869MOL0     C17244   2.641  10.410   7.941 -0.8477 -0.6576 -0.2052
  869MOL0     C17245   2.717  10.412   7.854 -0.9707 -0.2355  0.4423
  869MOL0     C17246   1.907  10.251   8.309  0.5975 -0.5674  0.1652
  869MOL0     C17247   1.796  10.170   8.319  0.3379  0.3823  0.3888
  869MOL0     H17248   1.467   9.980   8.554 -3.4777 -0.0847  2.7701
  869MOL0     H17249   1.262   9.945   8.619  3.0066  1.3919 -0.9013
  869MOL0     H17250   1.047   9.871   8.668 -1.3418  2.9292  1.5313
  869MOL0     H17251   0.979  10.005   8.589 -3.7265 -1.1537  1.3756
  869MOL0     H17252   0.849   9.767   8.660  0.4463 -0.5878 -2.7209
  869MOL0     H17253   0.802   9.923   8.691  1.1355 -0.9084  0.3603
  869MOL0     H17254   0.808   9.771   8.402 -0.3213  0.0833 -1.0912
  869MOL0     H17255   0.667   9.784   8.499  0.0479  0.1188 -1.5004
  869MOL0     H17256   0.681  10.028   8.488  1.1200 -1.9465  1.8558
  869MOL0     H17257   0.819  10.009   8.375  0.5340  1.1409 -1.1092
  869MOL0     H17258   0.626  10.040   8.228 -2.5584 -0.5408 -1.1102
  869MOL0     H17259   0.690   9.876   8.213 -3.3950 -1.1290 -0.5573
  869MOL0     H17260   0.464   9.855   8.212  1.8682 -0.4112 -0.6253
  869MOL0     H17261   0.501   9.807   8.370  2.2388  0.3875  1.1641
  869MOL0     H17262   0.469  10.098   8.401 -1.4412  0.8043 -0.3772
  869MOL0     H17263   0.341  10.054   8.284 -3.3693  0.0064  2.4527
  869MOL0     H17264   0.388   9.958   8.566 -0.0410 -0.4782 -0.5884
  869MOL0     H17265   0.269   9.877   8.469 -0.9217  0.2802  2.4131
  869MOL0     H17266   0.322  10.262   8.552  0.4678 -0.9379  1.6851
  869MOL0     H17267   0.115  10.467   8.437 -1.6440 -0.8316 -0.9618
  869MOL0     H17268  -0.032  10.430   8.521 -0.4671 -1.2768 -1.9831
  869MOL0     H17269   0.235  10.506   8.633  0.7361  0.3963  1.8652
  869MOL0     H17270   0.111  10.436   8.734 -1.8268  1.2868  1.1991
  869MOL0     H17271   0.077  10.677   8.555 -0.0548 -1.1114 -0.3844
  869MOL0     H17272   0.119  10.702   8.711 -0.7279  3.1186 -2.7002
  869MOL0     H17273  -0.142  10.550   8.649 -1.7200  0.8322  0.8457
  869MOL0     H17274  -0.128  10.724   8.676 -0.0431 -0.2152 -2.5385
  869MOL0     H17275  -0.129  10.486   9.046 -0.6936 -1.5530  0.6690
  869MOL0     H17276  -0.387  10.431   9.275 -1.3228 -0.9042 -0.9956
  869MOL0     H17277  -0.345  10.289   9.160 -0.9831 -0.6854  0.3143
  869MOL0     H17278  -0.221  10.391   9.238  0.3722 -5.1459  0.6332
  869MOL0     H17279  -0.887  10.478   8.946 -0.3441  2.7219  0.0250
  869MOL0     H17280  -1.104  10.394   9.036  0.4634  0.1690 -2.0800
  869MOL0     H17281  -1.291  10.527   9.186 -2.6132  0.2571  0.0681
  869MOL0     H17282  -1.347  10.359   9.164 -0.4980 -0.2648  1.0769
  869MOL0     H17283  -1.399  10.350   9.384  1.3817 -1.3769 -2.9862
  869MOL0     H17284  -1.359  10.518   9.424  0.9916  2.5479 -2.0207
  869MOL0     H17285  -1.557  10.425   9.210 -2.2306  1.2813  0.3760
  869MOL0     H17286  -1.525  10.585   9.250 -2.0645 -0.2428 -0.7502
  869MOL0     H17287  -1.646  10.366   9.442 -0.7937  0.8675  1.5433
  869MOL0     H17288  -1.613  10.530   9.491  1.3491 -1.4884  0.7524
  869MOL0     H17289  -1.839  10.487   9.416 -0.6707  2.2642  0.5343
  869MOL0     H17290  -1.797  10.489   9.248 -3.7706 -1.8741  2.6176
  869MOL0     H17291  -1.689  10.722   9.394 -0.7115  0.8903  1.4950
  869MOL0     H17292  -1.741  10.689   9.228 -0.6265  2.9745  0.4351
  869MOL0     H17293  -1.942  10.687   9.461  1.6181 -0.6329 -0.1325
  869MOL0     H17294  -1.960  10.687   9.282  4.5877 -2.1132 -2.1827
  869MOL0     H17295  -1.891  10.881   9.242 -1.7463 -0.0989  0.6038
  869MOL0     H17296  -1.832  10.926   9.406 -0.0188  0.7621 -0.3671
  869MOL0     H17297  -0.962  10.509   9.428 -0.6784  0.6779  0.4651
  869MOL0     H17298  -0.752  10.583   9.335  2.0442 -2.0479 -0.5891
  869MOL0     H17299  -0.552  10.578   8.828 -0.1314 -2.4721 -0.5696
  869MOL0     H17300  -0.361  10.657   8.737  1.8404  3.5421  1.7120
  869MOL0     H17301   1.131   9.847   8.221  2.9221 -3.9535 -1.8694
  869MOL0     H17302   1.353   9.923   8.137 -3.6654  1.6412 -0.0343
  869MOL0     H17303   1.769  10.094   7.979  0.9685  0.6967 -0.5813
  869MOL0     H17304   1.970  10.221   7.973 -0.8922  1.8028 -0.2381
  869MOL0     H17305   2.197  10.214   8.096  2.2559  1.0455  3.1440
  869MOL0     H17306   2.145  10.359   7.995  1.1790 -0.8055 -1.0146
  869MOL0     H17307   2.345  10.364   8.229 -1.5370  0.7024  1.6608
  869MOL0     H17308   2.302  10.494   8.116  1.4422 -1.0026  1.4978
  869MOL0     H17309   2.403  10.395   7.920 -1.6690 -5.0857 -1.3731
  869MOL0     H17310   2.406  10.236   7.992  0.5490 -0.5551 -2.8095
  869MOL0     H17311   2.597  10.302   8.124 -1.6452 -0.7579 -1.2964
  869MOL0     H17312   2.558  10.469   8.122 -0.7312 -1.2853  1.6971
  869MOL0     H17313   2.785  10.401   7.771  1.9065  0.4693  2.5253
  869MOL0     H17314   1.955  10.296   8.395  2.6126 -1.5399 -0.3833
  869MOL0     H17315   1.764  10.148   8.421  1.7832 -1.0676  0.5588
  870MOL0     O17316   7.515   1.826   1.173 -0.5243 -0.5718 -0.3179
  870MOL0     C17317   7.581   1.736   1.121 -0.2253  0.9215  0.2482
  870MOL0     O17318   7.539   1.657   1.012 -0.9239  0.6656  0.4934
  870MOL0     C17319   7.415   1.649   0.955  0.7302 -0.5826  1.1227
  870MOL0     C17320   7.295   1.694   1.009 -0.4060 -0.7622 -0.0176
  870MOL0     C17321   7.174   1.654   0.948 -0.4864  0.1043  0.8375
  870MOL0     C17322   7.172   1.595   0.820  0.3124 -0.1917  0.0422
  870MOL0     O17323   7.049   1.563   0.769 -0.0059 -0.3790 -0.6259
  870MOL0     C17324   7.030   1.583   0.631 -0.3839 -0.3121  0.4124
  870MOL0     C17325   6.882   1.632   0.615 -0.2479  0.0084  0.5182
  870MOL0     C17326   6.853   1.761   0.695 -0.6759 -1.0860 -0.0651
  870MOL0     C17327   6.715   1.814   0.670  0.3596 -0.8400  0.0257
  870MOL0     C17328   6.692   1.954   0.735 -0.6892  0.3230 -0.8148
  870MOL0     C17329   6.549   1.997   0.717 -0.2548  0.6517  0.0287
  870MOL0     C17330   6.522   2.144   0.768 -0.4568  0.1666  0.0618
  870MOL0     C17331   6.372   2.171   0.784 -0.0257 -1.2379  0.5947
  870MOL0     N17332   6.297   2.211   0.661 -0.6243 -0.3222 -0.5750
  870MOL0     C17333   6.180   2.151   0.620  0.0936 -0.6071  0.7915
  870MOL0     C17334   6.162   2.213   0.501 -0.8517 -0.0073  0.5666
  870MOL0     C17335   6.037   2.200   0.427 -0.1446 -0.0712  0.3087
  870MOL0     C17336   5.920   2.264   0.501 -0.2529  0.0476  0.2349
  870MOL0     C17337   5.782   2.251   0.433 -0.6121 -0.6945  0.2612
  870MOL0     C17338   5.675   2.357   0.473  0.1626  0.7307 -0.7812
  870MOL0     O17339   5.546   2.328   0.416  0.2108  0.6967 -0.3567
  870MOL0     C17340   5.498   2.425   0.332 -0.3166  0.1375  0.6632
  870MOL0     C17341   5.568   2.509   0.250  0.0463  0.2627 -0.8040
  870MOL0     C17342   5.500   2.585   0.156  0.8066  0.5673  0.1439
  870MOL0     C17343   5.583   2.676   0.061 -0.8989 -0.1102 -0.0160
  870MOL0     C17344   5.355   2.583   0.148 -0.0578  0.1067 -0.3179
  870MOL0     C17345   5.263   2.676   0.069  0.7932  0.9489  0.1860
  870MOL0     O17346   5.141   2.639   0.027 -0.2920  0.2604  0.1189
  870MOL0     C17347   5.062   2.737  -0.035 -0.5158  0.1041 -0.1542
  870MOL0     C17348   4.951   2.797   0.028 -0.3035  0.0945  0.2010
  870MOL0     C17349   4.877   2.897  -0.038 -0.2953  0.0144 -0.4378
  870MOL0     C17350   4.896   2.917  -0.179  1.1962 -0.4931 -1.0381
  870MOL0     O17351   4.808   2.998  -0.254 -0.2576 -0.0357 -0.1190
  870MOL0     C17352   4.695   3.070  -0.203  0.1703 -0.5734 -0.0428
  870MOL0     C17353   4.631   3.159  -0.308  0.0448 -0.7591 -1.2206
  870MOL0     C17354   4.561   3.074  -0.413 -0.1023  0.9783  0.3178
  870MOL0     C17355   4.608   3.124  -0.553  0.0551 -0.7499  0.0795
  870MOL0     C17356   4.754   3.079  -0.582  0.2885 -0.3458 -0.8905
  870MOL0     C17357   4.805   3.091  -0.724 -0.1072 -0.8161 -0.0387
  870MOL0     C17358   4.727   3.016  -0.829 -0.7212 -0.6318 -0.0232
  870MOL0     C17359   4.795   3.055  -0.964 -0.4856 -0.1583  0.5008
  870MOL0    Cl17360   4.681   3.004  -1.101 -0.5114 -0.1361 -0.0344
  870MOL0     C17361   5.000   2.849  -0.240  0.4506  0.7820  0.7438
  870MOL0     C17362   5.084   2.758  -0.173  0.1645  0.2571  0.8150
  870MOL0     O17363   5.305   2.786   0.054 -0.1018 -0.3195  0.4226
  870MOL0     C17364   5.285   2.505   0.241  0.0967  0.1207 -0.1986
  870MOL0     C17365   5.359   2.421   0.324 -0.0166  0.0189 -0.7962
  870MOL0     N17366   6.260   2.307   0.466 -0.1851  0.2372  0.1764
  870MOL0     N17367   6.330   2.316   0.578  0.3351  0.1190  0.3347
  870MOL0     C17368   7.298   1.564   0.760  0.0765  1.1398 -0.4955
  870MOL0     C17369   7.423   1.594   0.822 -0.5753 -0.6720 -0.0345
  870MOL0     C17370   7.722   1.728   1.168 -0.1813 -0.5356 -0.3926
  870MOL0     C17371   7.814   1.658   1.085 -0.4689  0.1346  0.9907
  870MOL0     C17372   7.947   1.646   1.116  0.1222 -0.1121  1.7502
  870MOL0     C17373   8.008   1.706   1.229  0.4555  0.6305 -0.1381
  870MOL0     O17374   8.140   1.719   1.256  0.6669  0.3287 -0.4811
  870MOL0     C17375   8.231   1.639   1.182  0.3604  0.3524 -0.2194
  870MOL0     C17376   8.375   1.689   1.207 -0.3249  0.1983 -0.6270
  870MOL0     C17377   8.406   1.720   1.359 -0.5788  0.1805  0.7906
  870MOL0     C17378   8.552   1.758   1.379  0.3144  0.3403 -1.1359
  870MOL0     C17379   8.565   1.765   1.527  0.4864  0.3855  0.4469
  870MOL0     C17380   8.594   1.776   1.640 -1.0081 -0.8192  1.0901
  870MOL0     C17381   7.917   1.770   1.318  0.4823 -0.1387 -0.7898
  870MOL0     C17382   7.774   1.781   1.288 -0.5498  0.5002 -0.8137
  870MOL0     H17383   7.293   1.762   1.093  4.0027  2.5914 -2.1800
  870MOL0     H17384   7.076   1.680   0.988 -2.0111 -1.8776 -1.3393
  870MOL0     H17385   7.090   1.661   0.585 -3.7344  2.4063  0.2459
  870MOL0     H17386   7.038   1.488   0.577 -2.8852 -0.2911 -0.1040
  870MOL0     H17387   6.865   1.634   0.507 -0.5277 -1.9060  0.4907
  870MOL0     H17388   6.803   1.564   0.650  0.0531 -0.5241  0.1733
  870MOL0     H17389   6.866   1.742   0.802  2.2534  1.7016  0.2572
  870MOL0     H17390   6.922   1.836   0.654  1.2602 -1.4136  2.3697
  870MOL0     H17391   6.710   1.825   0.561  2.1754 -1.7051 -0.1792
  870MOL0     H17392   6.636   1.743   0.696 -2.3443  1.0235 -2.4528
  870MOL0     H17393   6.705   1.956   0.843 -2.8673  0.5676 -0.5242
  870MOL0     H17394   6.766   2.027   0.702 -0.0667 -0.7225 -1.8395
  870MOL0     H17395   6.532   1.991   0.609  2.4308 -0.1518 -0.4190
  870MOL0     H17396   6.487   1.915   0.756  0.2039 -0.0340 -0.6351
  870MOL0     H17397   6.561   2.150   0.870 -1.9496  2.4297  0.5577
  870MOL0     H17398   6.586   2.204   0.702  1.1992 -1.4038  0.1290
  870MOL0     H17399   6.350   2.250   0.857  0.1118 -0.1418 -0.5119
  870MOL0     H17400   6.319   2.085   0.828 -1.2230  0.3822  2.5259
  870MOL0     H17401   6.120   2.080   0.676 -2.1020 -0.4884 -1.2408
  870MOL0     H17402   6.042   2.243   0.327  0.0258  1.2241  0.8525
  870MOL0     H17403   6.021   2.092   0.421  1.1994 -0.2756  0.0537
  870MOL0     H17404   5.945   2.371   0.503  1.9559 -0.3336 -1.6693
  870MOL0     H17405   5.914   2.228   0.604 -3.3895  1.0844  0.5276
  870MOL0     H17406   5.741   2.154   0.465 -0.1929 -0.4879  1.4589
  870MOL0     H17407   5.799   2.246   0.325 -1.2392 -0.2298  0.1371
  870MOL0     H17408   5.720   2.452   0.442  1.9185  1.0019  2.2028
  870MOL0     H17409   5.661   2.368   0.581 -2.1769 -0.3234 -0.9245
  870MOL0     H17410   5.677   2.513   0.246  0.2283 -2.4124 -0.4874
  870MOL0     H17411   5.678   2.630   0.031 -0.8557  0.9259 -1.5985
  870MOL0     H17412   5.526   2.712  -0.025 -0.4768 -0.2592 -0.3605
  870MOL0     H17413   5.608   2.769   0.111 -1.9058 -0.8084  1.8842
  870MOL0     H17414   4.931   2.756   0.126  0.0690 -1.4245 -0.3255
  870MOL0     H17415   4.786   2.939   0.002  0.0854  1.6411 -1.1910
  870MOL0     H17416   4.616   3.002  -0.168 -1.7428  1.2831 -0.5881
  870MOL0     H17417   4.722   3.141  -0.125  5.0105  1.5840 -3.1906
  870MOL0     H17418   4.558   3.225  -0.262 -1.7375 -3.8611  0.7751
  870MOL0     H17419   4.707   3.221  -0.357  1.4310  0.6416  2.4079
  870MOL0     H17420   4.455   3.101  -0.403 -0.2503  0.1499  1.0810
  870MOL0     H17421   4.580   2.966  -0.407 -0.8618  0.2827 -4.9475
  870MOL0     H17422   4.536   3.083  -0.624  0.3303 -0.9638 -0.0775
  870MOL0     H17423   4.592   3.231  -0.566  1.4556 -0.3276  1.5022
  870MOL0     H17424   4.762   2.978  -0.542 -0.1656  0.0112  0.1093
  870MOL0     H17425   4.818   3.142  -0.520 -1.4113  0.4528  0.0908
  870MOL0     H17426   4.819   3.197  -0.745  0.7516 -1.1393 -1.2067
  870MOL0     H17427   4.907   3.053  -0.724  0.3031  0.0886 -2.4779
  870MOL0     H17428   4.624   3.055  -0.823  0.3138  2.1556  2.5729
  870MOL0     H17429   4.732   2.908  -0.816  3.8820 -0.7759 -1.3109
  870MOL0     H17430   4.885   3.001  -0.994 -2.1912 -1.8898 -1.9246
  870MOL0     H17431   4.809   3.164  -0.958  2.3927 -0.2736 -1.9202
  870MOL0     H17432   5.013   2.849  -0.348  1.0316  0.1691  0.8039
  870MOL0     H17433   5.164   2.711  -0.228  0.2725  1.9288 -0.5657
  870MOL0     H17434   5.177   2.499   0.242  0.0923 -0.1141 -1.2268
  870MOL0     H17435   5.307   2.353   0.390  1.1467 -0.8497 -0.7525
  870MOL0     H17436   7.303   1.523   0.660  3.2692 -1.9036  0.7162
  870MOL0     H17437   7.514   1.602   0.762 -1.6977  0.5098 -1.6643
  870MOL0     H17438   7.796   1.619   0.985  4.1135 -2.4295  0.8963
  870MOL0     H17439   8.000   1.581   1.047 -2.3090 -1.2174  0.7781
  870MOL0     H17440   8.231   1.537   1.223  1.1577  0.4574  0.0592
  870MOL0     H17441   8.211   1.635   1.075  2.8677 -0.3428 -0.7288
  870MOL0     H17442   8.393   1.775   1.143  0.1821 -0.6388 -1.6284
  870MOL0     H17443   8.442   1.608   1.179  0.1068  1.1681 -2.5262
  870MOL0     H17444   8.381   1.622   1.400 -2.2843 -1.0476 -2.7845
  870MOL0     H17445   8.339   1.801   1.389 -2.9682 -0.6820 -1.7573
  870MOL0     H17446   8.571   1.857   1.336  2.5711  0.7938  0.7135
  870MOL0     H17447   8.622   1.679   1.351  0.8931  0.3553  0.1992
  870MOL0     H17448   8.630   1.773   1.741 -0.1017 -0.5851  0.7812
  870MOL0     H17449   7.946   1.823   1.409 -2.1398 -1.6956  1.1101
  870MOL0     H17450   7.703   1.839   1.346  0.7710  1.4469 -0.0885
  871MOL0     O17451  10.523   6.541   1.630  0.0760 -0.5159 -0.3192
  871MOL0     C17452  10.569   6.649   1.668  0.0351  0.1501  0.2538
  871MOL0     O17453  10.507   6.768   1.655  0.5729  0.1274  0.8447
  871MOL0     C17454  10.384   6.792   1.601 -0.4561  0.3370  0.3129
  871MOL0     C17455  10.295   6.693   1.545  0.1170 -0.4130 -0.0596
  871MOL0     C17456  10.161   6.723   1.533  0.2789 -0.0110  0.2068
  871MOL0     C17457  10.112   6.853   1.553 -0.4664  0.6257 -0.9709
  871MOL0     O17458   9.981   6.892   1.542  0.6247  0.2277  0.2346
  871MOL0     C17459   9.884   6.788   1.503 -0.4615  0.4167 -0.0427
  871MOL0     C17460   9.747   6.846   1.516  0.0440  0.6601 -1.1785
  871MOL0     C17461   9.718   6.866   1.667  0.4225  0.3592 -0.2907
  871MOL0     C17462   9.568   6.901   1.673  0.5381  0.8307 -0.5955
  871MOL0     C17463   9.524   6.907   1.819 -0.5237 -0.3808 -0.0662
  871MOL0     C17464   9.380   6.943   1.840 -0.4587 -0.7203 -0.2402
  871MOL0     C17465   9.345   7.004   1.987  0.1978  0.0025  0.4458
  871MOL0     C17466   9.339   6.899   2.096  0.1328  0.5711 -0.9876
  871MOL0     N17467   9.219   6.820   2.104  0.2095 -0.4340  1.2764
  871MOL0     C17468   9.137   6.815   2.220  0.1572  0.3080  0.5877
  871MOL0     C17469   9.027   6.745   2.187 -0.1372  1.2535  0.0989
  871MOL0     C17470   8.919   6.723   2.277 -0.1084 -0.5320 -0.1871
  871MOL0     C17471   8.790   6.656   2.236 -0.0168  0.4542 -0.6610
  871MOL0     C17472   8.730   6.686   2.096 -0.4057  0.3624 -0.6396
  871MOL0     C17473   8.690   6.830   2.071  0.5605 -0.0862 -0.0948
  871MOL0     O17474   8.562   6.855   2.131  0.2504 -0.0077  0.2238
  871MOL0     C17475   8.515   6.981   2.114 -0.1623  0.1067  0.1116
  871MOL0     C17476   8.556   7.073   2.010  0.5131  0.1807  0.1846
  871MOL0     C17477   8.501   7.199   2.006  0.0872 -0.8257  0.6312
  871MOL0     C17478   8.532   7.281   1.885  0.3971  0.4386 -0.2564
  871MOL0     C17479   8.423   7.244   2.109  0.4029  0.2659 -0.3083
  871MOL0     C17480   8.375   7.397   2.125  0.1540  0.7811 -0.1729
  871MOL0     O17481   8.251   7.415   2.179 -0.2014  0.2048  0.7445
  871MOL0     C17482   8.197   7.542   2.187  0.4779  0.0093 -0.2053
  871MOL0     C17483   8.116   7.580   2.080  0.2573 -0.3365 -0.0696
  871MOL0     C17484   8.046   7.694   2.087 -0.7125  0.3725 -0.2098
  871MOL0     C17485   8.041   7.775   2.197  0.1908  0.1054  0.0559
  871MOL0     O17486   7.947   7.869   2.220 -0.2115 -0.4771  0.5851
  871MOL0     C17487   7.866   7.919   2.117 -0.0132  0.6148  0.1539
  871MOL0     C17488   7.755   8.007   2.155  0.7960 -0.5709 -0.2182
  871MOL0     C17489   7.650   8.045   2.049  1.0915 -0.3473  0.0572
  871MOL0     C17490   7.562   7.928   1.997 -0.0695 -1.0102 -0.9169
  871MOL0     C17491   7.510   7.948   1.851 -0.6671  0.6613 -0.7399
  871MOL0     C17492   7.389   8.041   1.842  0.1942  0.3997 -0.8592
  871MOL0     C17493   7.321   8.020   1.713 -1.2027 -0.5277  0.8896
  871MOL0     C17494   7.188   8.105   1.701  0.0680 -0.9931 -0.7165
  871MOL0    Cl17495   7.082   8.071   1.834  0.0235  0.0790 -0.3325
  871MOL0     C17496   8.134   7.742   2.295  0.0842 -0.3467 -0.4714
  871MOL0     C17497   8.216   7.629   2.296  0.5169 -0.4989 -0.2860
  871MOL0     O17498   8.453   7.487   2.086 -0.1393 -0.2267 -0.4013
  871MOL0     C17499   8.391   7.155   2.214  0.3942 -0.5667  0.6070
  871MOL0     C17500   8.424   7.027   2.207 -0.2905 -0.0367 -0.3179
  871MOL0     N17501   9.046   6.699   2.053 -0.5508  0.3812  0.0142
  871MOL0     N17502   9.156   6.754   2.007 -0.3154 -0.6909  0.2064
  871MOL0     C17503  10.198   6.961   1.581 -0.0637 -0.1318  0.4238
  871MOL0     C17504  10.327   6.920   1.612 -0.4199 -0.1126 -0.4416
  871MOL0     C17505  10.702   6.642   1.729  0.7902  0.7818 -0.3896
  871MOL0     C17506  10.762   6.762   1.776 -0.0354  0.2572 -0.0101
  871MOL0     C17507  10.876   6.759   1.854 -0.6449 -1.2452  0.6801
  871MOL0     C17508  10.957   6.637   1.862  0.7328  0.7010  0.4295
  871MOL0     O17509  11.076   6.638   1.931 -0.3087 -0.3463  0.2404
  871MOL0     C17510  11.150   6.524   1.957  0.2101  0.1023  0.1720
  871MOL0     C17511  11.286   6.554   2.031 -0.1185 -0.3782  1.9268
  871MOL0     C17512  11.396   6.431   2.035  0.0676 -0.7363  0.0082
  871MOL0     C17513  11.402   6.365   2.172 -0.6687  0.5111 -0.3314
  871MOL0     C17514  11.489   6.254   2.167  0.3064  0.8500 -0.2678
  871MOL0     C17515  11.581   6.182   2.152  0.3285 -0.3935 -0.3946
  871MOL0     C17516  10.911   6.528   1.790  0.6248  0.0262 -0.0641
  871MOL0     C17517  10.778   6.525   1.733  0.6294 -1.4767 -0.1674
  871MOL0     H17518  10.325   6.590   1.531  1.5338  0.1142 -1.1508
  871MOL0     H17519  10.103   6.635   1.508  2.4893 -2.2805  2.3201
  871MOL0     H17520   9.910   6.767   1.399  1.8339 -0.3387  0.6379
  871MOL0     H17521   9.881   6.692   1.554 -0.2720 -0.7325 -2.0985
  871MOL0     H17522   9.733   6.946   1.474 -0.4157  1.5783  1.0267
  871MOL0     H17523   9.671   6.774   1.483  0.6045 -1.5879  1.9282
  871MOL0     H17524   9.731   6.770   1.719 -0.1125 -0.2656 -1.2799
  871MOL0     H17525   9.794   6.929   1.714 -1.0572  3.4826 -1.7860
  871MOL0     H17526   9.545   6.994   1.620  0.5051  0.2304 -1.6566
  871MOL0     H17527   9.510   6.828   1.617 -0.0164 -0.3534  1.4222
  871MOL0     H17528   9.536   6.804   1.854  0.4515 -0.4952 -0.7050
  871MOL0     H17529   9.599   6.973   1.864  1.8101 -2.4783 -0.5824
  871MOL0     H17530   9.354   7.022   1.769  0.0177  2.1082  2.4899
  871MOL0     H17531   9.315   6.857   1.824 -0.0517 -0.7604 -1.8537
  871MOL0     H17532   9.425   7.074   2.007  3.4124 -2.7759 -1.5383
  871MOL0     H17533   9.252   7.062   1.986  0.7116  0.8269  0.1459
  871MOL0     H17534   9.354   6.963   2.183 -1.0807  3.3835 -2.7082
  871MOL0     H17535   9.413   6.819   2.088 -1.7727 -1.1275 -2.8824
  871MOL0     H17536   9.160   6.863   2.315  1.1434  1.4479 -0.1829
  871MOL0     H17537   8.966   6.673   2.362  4.7227  2.9137 -0.4236
  871MOL0     H17538   8.880   6.820   2.311 -4.4943 -1.0145 -3.0465
  871MOL0     H17539   8.712   6.666   2.311  0.1771  0.1884 -0.4211
  871MOL0     H17540   8.811   6.549   2.245  4.6512  1.3777  3.5777
  871MOL0     H17541   8.650   6.615   2.072  0.5636 -2.2677  3.0019
  871MOL0     H17542   8.809   6.653   2.028 -0.1468  3.5441 -2.0306
  871MOL0     H17543   8.688   6.839   1.962 -4.6068 -4.0186 -0.7240
  871MOL0     H17544   8.768   6.895   2.111 -0.4895  1.0486  0.1626
  871MOL0     H17545   8.614   7.027   1.930 -0.7608 -1.6997  0.2745
  871MOL0     H17546   8.441   7.334   1.857 -1.4463 -1.6293  1.4476
  871MOL0     H17547   8.616   7.343   1.919  0.8372 -0.6307  0.7051
  871MOL0     H17548   8.567   7.218   1.802  3.2449 -0.2639  1.3254
  871MOL0     H17549   8.095   7.506   2.003  2.2110 -1.1151  0.0886
  871MOL0     H17550   7.974   7.720   2.011 -4.2172  0.8388  2.9910
  871MOL0     H17551   7.928   7.979   2.051  1.0097  0.7975  1.2429
  871MOL0     H17552   7.812   7.834   2.075  1.7196  0.6678 -2.3720
  871MOL0     H17553   7.714   7.972   2.250  1.8747 -0.9310  0.1275
  871MOL0     H17554   7.800   8.102   2.184 -0.3463 -0.1818  0.3285
  871MOL0     H17555   7.705   8.082   1.962  1.9423 -0.4040  0.5568
  871MOL0     H17556   7.572   8.113   2.084  0.8517 -0.6954  0.2095
  871MOL0     H17557   7.617   7.834   1.992 -1.4932 -1.8905 -0.6957
  871MOL0     H17558   7.472   7.911   2.058  0.2340 -1.3629 -0.5675
  871MOL0     H17559   7.475   7.854   1.807 -2.5244  0.5204  0.9043
  871MOL0     H17560   7.593   7.982   1.788  1.6039 -2.0746  0.5214
  871MOL0     H17561   7.319   8.002   1.917  1.4619 -2.4276 -1.0196
  871MOL0     H17562   7.425   8.143   1.861 -0.1954  0.4709 -0.4892
  871MOL0     H17563   7.293   7.914   1.702 -1.5832 -0.7778  3.5315
  871MOL0     H17564   7.387   8.043   1.629 -0.7658 -2.0164  0.7947
  871MOL0     H17565   7.143   8.076   1.606  1.0652  0.0646 -1.5554
  871MOL0     H17566   7.210   8.213   1.703 -4.7167  0.2377 -1.7457
  871MOL0     H17567   8.130   7.807   2.382 -2.5448 -0.0438 -0.7483
  871MOL0     H17568   8.274   7.606   2.385 -3.7345 -0.1739  2.8646
  871MOL0     H17569   8.333   7.202   2.293  2.1546  1.5129  0.7517
  871MOL0     H17570   8.402   6.953   2.284 -2.2840 -0.0692 -0.8704
  871MOL0     H17571  10.183   7.069   1.590  1.5935 -0.0254  3.4328
  871MOL0     H17572  10.392   7.000   1.644 -0.2262 -0.3885 -0.1427
  871MOL0     H17573  10.707   6.853   1.752 -1.1188 -0.4334 -0.2431
  871MOL0     H17574  10.900   6.843   1.918  2.0609 -1.4325  0.0685
  871MOL0     H17575  11.085   6.453   2.009  0.2932  0.0651  0.2255
  871MOL0     H17576  11.186   6.471   1.868  3.5633 -0.9021  1.9691
  871MOL0     H17577  11.263   6.602   2.127  1.2921  4.4409  0.1797
  871MOL0     H17578  11.345   6.620   1.966  2.9512 -4.0970  0.5252
  871MOL0     H17579  11.493   6.471   2.006 -1.0786  1.0882 -1.5433
  871MOL0     H17580  11.373   6.353   1.962 -2.0676  1.2341 -1.5903
  871MOL0     H17581  11.300   6.331   2.195 -0.7291  0.1565 -1.1146
  871MOL0     H17582  11.429   6.434   2.252 -0.1160  0.0667 -0.1278
  871MOL0     H17583  11.665   6.116   2.157  3.6923  3.5362  0.2964
  871MOL0     H17584  10.966   6.435   1.779 -1.1936 -1.4386  2.1277
  871MOL0     H17585  10.744   6.433   1.688 -0.2496 -0.5432 -1.4725
  872MOL0     O17586   5.807  11.348   3.921 -0.9873 -0.0626  0.3598
  872MOL0     C17587   5.811  11.228   3.898  0.0784 -0.0266  0.5049
  872MOL0     O17588   5.716  11.161   3.824  0.1125 -0.5684  0.4749
  872MOL0     C17589   5.592  11.220   3.805  0.4537 -0.5591 -0.8383
  872MOL0     C17590   5.480  11.190   3.886  1.2669  0.1810  1.0691
  872MOL0     C17591   5.353  11.242   3.847  0.1532  0.1567 -0.8056
  872MOL0     C17592   5.336  11.321   3.732 -0.1206  0.5148  0.6837
  872MOL0     O17593   5.204  11.353   3.694 -0.3255  0.2468  0.3493
  872MOL0     C17594   5.188  11.433   3.570  0.2232 -0.1931 -0.1011
  872MOL0     C17595   5.042  11.469   3.537  0.2624 -0.5081 -0.1832
  872MOL0     C17596   4.971  11.551   3.648 -0.7352  0.7490  0.2240
  872MOL0     C17597   4.992  11.701   3.627  0.0252  0.3124 -0.7102
  872MOL0     C17598   4.926  11.782   3.747 -0.8521 -0.5466  0.2497
  872MOL0     C17599   4.923  11.932   3.730  0.2918 -0.2163  0.6144
  872MOL0     C17600   4.802  11.989   3.802 -0.5543 -0.0260 -0.2950
  872MOL0     C17601   4.774  11.928   3.943 -0.7715 -0.6872 -0.1836
  872MOL0     N17602   4.656  11.992   4.005  0.2039 -0.3044 -0.1940
  872MOL0     C17603   4.522  11.985   3.955 -0.3186 -0.5055  0.3203
  872MOL0     C17604   4.442  12.013   4.057  0.2041 -0.6529 -0.1633
  872MOL0     C17605   4.291  11.997   4.055 -0.4207  0.2672  0.1817
  872MOL0     C17606   4.217  12.120   4.016  0.2264  0.5671  0.6263
  872MOL0     C17607   4.065  12.088   4.020  0.3691  0.2592 -0.4223
  872MOL0     C17608   3.966  12.178   3.948  0.3125  0.2692 -0.0985
  872MOL0     O17609   3.941  12.113   3.820 -0.5435 -0.3422 -0.4863
  872MOL0     C17610   3.826  12.158   3.757  0.2718 -0.7204 -0.8185
  872MOL0     C17611   3.759  12.286   3.777  0.0359  0.1160  0.1606
  872MOL0     C17612   3.640  12.323   3.710  0.4349 -0.7778  0.3708
  872MOL0     C17613   3.591  12.468   3.723 -0.5096 -0.0682  1.1079
  872MOL0     C17614   3.594  12.241   3.606  0.0951  0.0872 -0.8280
  872MOL0     C17615   3.478  12.262   3.511 -0.1942 -0.7697  0.1202
  872MOL0     O17616   3.488  12.240   3.377 -0.1965 -0.2938  0.8669
  872MOL0     C17617   3.393  12.260   3.288  1.3369  0.1099  0.2076
  872MOL0     C17618   3.288  12.175   3.269 -0.7154  0.1296  0.5479
  872MOL0     C17619   3.190  12.202   3.173 -0.3708 -0.4939 -0.3418
  872MOL0     C17620   3.192  12.311   3.090 -0.5358  0.6684  0.0932
  872MOL0     O17621   3.085  12.329   3.007 -0.2953 -0.7058 -0.3848
  872MOL0     C17622   3.076  12.441   2.916  0.1955 -0.4656 -0.2803
  872MOL0     C17623   3.013  12.406   2.780  0.1216 -0.3369  0.1720
  872MOL0     C17624   2.878  12.338   2.793 -0.0547 -0.0562  0.2845
  872MOL0     C17625   2.816  12.319   2.658  0.3979  0.1409  0.0818
  872MOL0     C17626   2.681  12.261   2.655  0.5049 -0.0458  1.3391
  872MOL0     C17627   2.637  12.273   2.508  0.2399  0.2512 -0.4641
  872MOL0     C17628   2.495  12.229   2.490 -0.0913 -0.0242  0.1099
  872MOL0     C17629   2.440  12.280   2.363 -0.5516 -0.1350 -0.5588
  872MOL0    Cl17630   2.391  12.458   2.374  0.0793 -0.3663  0.3595
  872MOL0     C17631   3.302  12.394   3.110 -0.1466 -0.8164  0.5972
  872MOL0     C17632   3.396  12.376   3.208  0.4897 -0.3475 -0.5131
  872MOL0     O17633   3.375  12.302   3.565 -0.0630  0.7431  0.4916
  872MOL0     C17634   3.666  12.122   3.585 -0.0157  0.3317 -0.0967
  872MOL0     C17635   3.778  12.079   3.660  0.2330 -0.1942 -0.1375
  872MOL0     N17636   4.525  12.053   4.159  0.2851 -0.4491 -1.0679
  872MOL0     N17637   4.651  12.037   4.129  0.2658 -0.2820  0.1719
  872MOL0     C17638   5.448  11.351   3.653 -0.5428 -0.0910 -0.4344
  872MOL0     C17639   5.574  11.307   3.694 -0.0127 -0.5761 -0.3854
  872MOL0     C17640   5.923  11.147   3.929 -0.3860  0.4985 -0.3685
  872MOL0     C17641   6.037  11.197   4.005  0.1649  0.4078  0.1922
  872MOL0     C17642   6.154  11.114   4.034 -0.2496 -0.9852 -0.3017
  872MOL0     C17643   6.157  10.980   3.991 -0.0866  0.2955  0.1549
  872MOL0     O17644   6.260  10.888   4.005 -0.5623  0.7217  0.2533
  872MOL0     C17645   6.369  10.931   4.092 -0.4021  0.0774  0.2703
  872MOL0     C17646   6.463  10.814   4.102 -0.1472 -0.8900 -0.4702
  872MOL0     C17647   6.391  10.687   4.155 -0.0968 -0.4105 -0.1934
  872MOL0     C17648   6.365  10.687   4.298 -0.1160 -0.6972  0.3956
  872MOL0     C17649   6.473  10.618   4.379  0.0783  1.2316 -0.3658
  872MOL0     C17650   6.558  10.563   4.445  0.1108 -0.4788  0.1551
  872MOL0     C17651   6.052  10.937   3.915  0.5641 -0.1336  0.3518
  872MOL0     C17652   5.939  11.013   3.882 -0.3202  0.1850 -0.2730
  872MOL0     H17653   5.483  11.122   3.970  1.6489  0.2538  1.1173
  872MOL0     H17654   5.258  11.230   3.899 -1.7636  0.8417 -3.8680
  872MOL0     H17655   5.244  11.527   3.574 -0.1525  0.1320 -1.7595
  872MOL0     H17656   5.234  11.385   3.483 -0.2851 -0.5270 -0.1927
  872MOL0     H17657   5.050  11.518   3.439  1.1311 -2.2749 -1.0647
  872MOL0     H17658   4.979  11.383   3.510  1.6675 -0.9614 -2.2644
  872MOL0     H17659   4.866  11.522   3.641  0.0283 -2.6543  1.2454
  872MOL0     H17660   4.992  11.505   3.744 -1.0266  0.7023  0.2688
  872MOL0     H17661   5.099  11.722   3.624 -0.4497  3.3256 -0.5168
  872MOL0     H17662   4.945  11.736   3.534 -0.7725  2.5699  0.4441
  872MOL0     H17663   4.822  11.748   3.743 -0.4290 -1.8247 -0.5599
  872MOL0     H17664   4.967  11.756   3.845  0.1827  1.9887  0.5701
  872MOL0     H17665   5.021  11.976   3.747  1.5650 -0.3460 -4.6279
  872MOL0     H17666   4.922  11.949   3.622  1.1292 -2.4208  0.1998
  872MOL0     H17667   4.802  12.098   3.809 -3.5083  0.2320 -2.3247
  872MOL0     H17668   4.709  11.986   3.744 -2.4730 -0.7646  2.5684
  872MOL0     H17669   4.861  11.933   4.008 -0.4682  1.6416 -0.6618
  872MOL0     H17670   4.737  11.825   3.942  0.3074 -1.1827  2.6115
  872MOL0     H17671   4.493  11.939   3.861  0.7722 -1.4277  0.4177
  872MOL0     H17672   4.268  11.909   3.994  2.6951  0.2809 -1.2287
  872MOL0     H17673   4.274  11.984   4.162  0.3519 -1.2161  0.1494
  872MOL0     H17674   4.256  12.136   3.915  3.5891 -1.5468  1.4050
  872MOL0     H17675   4.236  12.206   4.080  0.7400  1.5891 -0.8476
  872MOL0     H17676   4.035  12.089   4.126  1.3030 -0.8963 -0.1336
  872MOL0     H17677   4.055  11.986   3.982  5.5750 -0.7869  0.2640
  872MOL0     H17678   4.010  12.276   3.927 -1.2336  1.4223  1.7155
  872MOL0     H17679   3.877  12.190   4.011  0.2720  1.0008 -0.2772
  872MOL0     H17680   3.793  12.364   3.845  0.1193  0.4285 -0.2394
  872MOL0     H17681   3.497  12.465   3.781  0.6191  1.6568  3.1785
  872MOL0     H17682   3.659  12.531   3.780  1.1737 -2.3148  1.7473
  872MOL0     H17683   3.578  12.520   3.628 -2.6996 -2.0136  0.2234
  872MOL0     H17684   3.273  12.097   3.344 -1.6205 -0.8937 -0.6693
  872MOL0     H17685   3.094  12.152   3.166 -0.7805  0.2866 -0.3799
  872MOL0     H17686   3.027  12.532   2.951  0.7943 -0.1268 -0.3060
  872MOL0     H17687   3.177  12.479   2.900 -0.5001  2.1390  1.0099
  872MOL0     H17688   2.992  12.502   2.732  2.3640  0.7631  1.2143
  872MOL0     H17689   3.080  12.341   2.722 -1.2652 -2.7542  1.0941
  872MOL0     H17690   2.813  12.394   2.861  0.2039  0.7830 -0.1389
  872MOL0     H17691   2.878  12.238   2.836 -2.2039  0.2516  1.0968
  872MOL0     H17692   2.819  12.416   2.607  1.6492 -0.2518 -0.6284
  872MOL0     H17693   2.884  12.256   2.600  1.5343  1.1696  0.2455
  872MOL0     H17694   2.621  12.320   2.725 -0.3461  0.9903 -0.2019
  872MOL0     H17695   2.693  12.158   2.689  3.1408 -0.2944 -0.0554
  872MOL0     H17696   2.655  12.366   2.454  1.8545  0.2651  0.0516
  872MOL0     H17697   2.691  12.201   2.445  0.2168  1.9110 -2.4949
  872MOL0     H17698   2.425  12.263   2.567 -2.0016 -0.2428 -1.4503
  872MOL0     H17699   2.494  12.119   2.496  2.9874 -0.1460  0.1730
  872MOL0     H17700   2.354  12.217   2.339 -0.1941 -1.6830  1.9355
  872MOL0     H17701   2.508  12.263   2.278  1.4984  1.6400  0.6201
  872MOL0     H17702   3.296  12.480   3.043 -1.1304 -2.2049 -1.2021
  872MOL0     H17703   3.466  12.458   3.220  0.8484 -0.2935 -2.6717
  872MOL0     H17704   3.637  12.061   3.500  1.8862  0.6392 -1.0183
  872MOL0     H17705   3.835  11.990   3.634  1.3652  0.5782 -0.3897
  872MOL0     H17706   5.446  11.418   3.567  0.7425 -0.6228 -0.9062
  872MOL0     H17707   5.663  11.347   3.645  3.4040 -1.8863  4.0977
  872MOL0     H17708   6.033  11.302   4.032 -0.6984  0.0378  1.6731
  872MOL0     H17709   6.235  11.164   4.086 -2.1453  2.9436 -0.7755
  872MOL0     H17710   6.422  11.016   4.048 -1.2989  0.4058 -0.2023
  872MOL0     H17711   6.332  10.949   4.193  3.1842 -0.9769  1.9478
  872MOL0     H17712   6.549  10.846   4.162  1.6089 -2.0957 -2.1916
  872MOL0     H17713   6.491  10.788   3.999 -4.7687  0.1452 -2.2191
  872MOL0     H17714   6.451  10.601   4.123  2.3375  1.2688 -0.4772
  872MOL0     H17715   6.295  10.667   4.107 -0.7948 -1.1063  1.4544
  872MOL0     H17716   6.267  10.649   4.327 -0.2792 -0.1087  0.6198
  872MOL0     H17717   6.368  10.788   4.339  0.1465 -1.0046  1.1464
  872MOL0     H17718   6.633  10.520   4.509  1.2849  1.2999  0.0384
  872MOL0     H17719   6.050  10.842   3.864 -1.0093  0.0691 -0.0010
  872MOL0     H17720   5.868  10.966   3.816  0.6043 -4.3432  1.6065
  873MOL0     O17721   7.327  10.761   6.164  0.0960 -0.6318  0.0109
  873MOL0     C17722   7.356  10.657   6.222  0.0003  0.0809 -0.3075
  873MOL0     O17723   7.281  10.604   6.326  0.3320 -0.1149  0.4731
  873MOL0     C17724   7.145  10.633   6.339 -0.9534 -0.8606  1.6264
  873MOL0     C17725   7.084  10.694   6.447  0.3034 -0.2349 -0.0188
  873MOL0     C17726   6.942  10.722   6.457  0.5684  0.5090 -0.2718
  873MOL0     C17727   6.866  10.687   6.343  0.0966 -1.2282 -0.0951
  873MOL0     O17728   6.735  10.708   6.362  0.4572 -1.1545  0.1209
  873MOL0     C17729   6.649  10.705   6.252  0.4509  0.0212  0.0967
  873MOL0     C17730   6.513  10.766   6.279  1.0865 -0.0328  0.1155
  873MOL0     C17731   6.430  10.689   6.382  0.5084 -0.0753  0.5176
  873MOL0     C17732   6.287  10.750   6.371 -0.0116  0.0585 -0.0699
  873MOL0     C17733   6.190  10.692   6.467  0.1510 -0.0739  1.2264
  873MOL0     C17734   6.054  10.761   6.456 -0.5494  0.7350  0.7313
  873MOL0     C17735   5.972  10.709   6.569  0.3779  0.1736  1.1754
  873MOL0     C17736   5.821  10.749   6.572  0.6290  0.0753 -0.1929
  873MOL0     N17737   5.743  10.679   6.464  0.2847  0.1415  0.4506
  873MOL0     C17738   5.707  10.548   6.465  0.3934  0.7317 -0.3836
  873MOL0     C17739   5.661  10.527   6.343  0.0556  0.5324  0.1425
  873MOL0     C17740   5.626  10.398   6.258 -0.0671 -0.0792  0.5458
  873MOL0     C17741   5.490  10.352   6.284  0.3564  0.4544  0.2985
  873MOL0     C17742   5.451  10.243   6.185 -0.9294 -0.5844  0.1534
  873MOL0     C17743   5.312  10.195   6.203  0.5819  0.1748 -0.1972
  873MOL0     O17744   5.239  10.244   6.318 -0.2039  0.4153  0.1730
  873MOL0     C17745   5.102  10.212   6.335  0.3413 -0.1402 -0.2940
  873MOL0     C17746   5.041  10.245   6.458 -1.1122  0.9635  0.4764
  873MOL0     C17747   4.908  10.231   6.473  0.7670  0.2809  0.2943
  873MOL0     C17748   4.858  10.283   6.608  0.5880  0.1077 -0.6278
  873MOL0     C17749   4.821  10.186   6.365  0.7314  1.0329 -0.3116
  873MOL0     C17750   4.670  10.184   6.372  0.1061  0.6780  0.8485
  873MOL0     O17751   4.605  10.202   6.494 -0.0253  0.7642 -0.2715
  873MOL0     C17752   4.475  10.226   6.506  0.2674  0.4174  0.4176
  873MOL0     C17753   4.378  10.142   6.444  0.2398  0.6069 -0.2718
  873MOL0     C17754   4.236  10.173   6.456 -0.6691  0.2656 -0.2143
  873MOL0     C17755   4.196  10.294   6.518 -0.3420  0.9964 -0.0080
  873MOL0     O17756   4.065  10.319   6.508 -0.3252 -0.1082  0.4961
  873MOL0     C17757   4.012  10.434   6.588  0.2329  0.0291  0.0928
  873MOL0     C17758   3.866  10.436   6.578  1.1071  0.4489  0.2062
  873MOL0     C17759   3.797  10.572   6.612 -0.3418  0.3343  0.7832
  873MOL0     C17760   3.646  10.567   6.602  0.1002 -0.0832  0.1771
  873MOL0     C17761   3.593  10.681   6.516 -1.0285  0.2160  0.1145
  873MOL0     C17762   3.443  10.683   6.487  0.5879  0.7090 -0.7263
  873MOL0     C17763   3.344  10.645   6.602 -0.0124 -0.8347  0.0421
  873MOL0     C17764   3.207  10.604   6.563  0.6502  0.3418 -0.5933
  873MOL0    Cl17765   3.121  10.570   6.714 -0.1430 -0.0093  0.6442
  873MOL0     C17766   4.295  10.367   6.581  0.3902  0.0374  0.3606
  873MOL0     C17767   4.429  10.331   6.580 -0.3940 -0.4013  0.6814
  873MOL0     O17768   4.612  10.187   6.265 -0.8550  0.5184 -0.2347
  873MOL0     C17769   4.888  10.139   6.254 -0.2720  0.2270  0.5202
  873MOL0     C17770   5.023  10.160   6.233  0.1129 -0.2045 -0.7109
  873MOL0     N17771   5.662  10.651   6.270  0.0834 -0.0682 -0.4026
  873MOL0     N17772   5.712  10.734   6.344  0.0472 -0.6411  0.2355
  873MOL0     C17773   6.927  10.630   6.223 -0.3321 -0.5708 -0.4596
  873MOL0     C17774   7.061  10.604   6.232 -0.0862 -0.0292 -0.1843
  873MOL0     C17775   7.481  10.587   6.197 -0.3117 -0.0887  1.1359
  873MOL0     C17776   7.511  10.466   6.260  0.6668  0.0628  0.5807
  873MOL0     C17777   7.630  10.395   6.227  0.3693  0.1278 -0.3460
  873MOL0     C17778   7.721  10.458   6.141 -0.1395 -0.6374 -0.3218
  873MOL0     O17779   7.834  10.402   6.091 -0.0447 -0.4125  0.9433
  873MOL0     C17780   7.890  10.298   6.167  0.3910 -0.7265  0.1480
  873MOL0     C17781   8.040  10.289   6.128 -0.2988  1.4152  0.7942
  873MOL0     C17782   8.127  10.412   6.178  0.4940  0.3220  0.8627
  873MOL0     C17783   8.253  10.434   6.111  0.3016 -0.7677  0.9612
  873MOL0     C17784   8.343  10.318   6.122  0.3266  0.3390 -0.0533
  873MOL0     C17785   8.417  10.224   6.126  0.3968 -0.1788  0.6246
  873MOL0     C17786   7.689  10.579   6.078  0.0972  1.4601  0.4527
  873MOL0     C17787   7.576  10.640   6.106  0.5499 -0.7488  0.4080
  873MOL0     H17788   7.137  10.731   6.535 -1.1785  0.3321  0.6650
  873MOL0     H17789   6.879  10.752   6.540 -1.9659 -4.1724 -0.1568
  873MOL0     H17790   6.691  10.766   6.171 -1.5617 -1.1428 -1.9482
  873MOL0     H17791   6.637  10.610   6.199  1.6712 -0.8360  1.3082
  873MOL0     H17792   6.515  10.874   6.301 -1.2854 -0.5332  3.6963
  873MOL0     H17793   6.466  10.743   6.183  5.0236  1.6436 -2.4891
  873MOL0     H17794   6.443  10.583   6.361  1.7100 -0.3482  2.3554
  873MOL0     H17795   6.456  10.701   6.488 -0.4660 -0.1491  0.7748
  873MOL0     H17796   6.296  10.857   6.389  1.5845 -0.4013  2.2480
  873MOL0     H17797   6.243  10.730   6.273  1.5039  0.2909 -0.8170
  873MOL0     H17798   6.176  10.585   6.445  0.3142  0.2440 -0.5871
  873MOL0     H17799   6.224  10.697   6.571 -3.4325 -0.1283  2.5553
  873MOL0     H17800   6.068  10.869   6.470 -0.1619  0.7217  0.4700
  873MOL0     H17801   6.004  10.742   6.361 -0.7091  0.9124  0.7779
  873MOL0     H17802   5.978  10.599   6.576 -2.1598 -0.0217  1.0592
  873MOL0     H17803   6.021  10.752   6.657  2.3566 -1.2510  0.8556
  873MOL0     H17804   5.799  10.856   6.565  0.2016 -0.0114 -0.2152
  873MOL0     H17805   5.776  10.715   6.665 -2.9577  3.0381 -0.5937
  873MOL0     H17806   5.722  10.479   6.547  0.3861  0.1601 -0.8608
  873MOL0     H17807   5.656  10.413   6.154  1.8263 -1.1095  0.8975
  873MOL0     H17808   5.696  10.319   6.287 -0.3060 -0.8119 -0.7870
  873MOL0     H17809   5.426  10.441   6.285  1.4851  1.3312 -1.1533
  873MOL0     H17810   5.491  10.318   6.388  2.7174  1.5511  0.7270
  873MOL0     H17811   5.500  10.150   6.213 -1.5925 -1.1031 -0.3707
  873MOL0     H17812   5.476  10.278   6.084 -0.6529 -0.3000  0.3197
  873MOL0     H17813   5.303  10.086   6.196  0.6417  0.2547 -1.8417
  873MOL0     H17814   5.256  10.227   6.114  1.0230 -2.1035 -1.3548
  873MOL0     H17815   5.102  10.280   6.540 -0.3140 -0.3934  0.4926
  873MOL0     H17816   4.940  10.307   6.677  0.9323 -3.4329  0.3834
  873MOL0     H17817   4.794  10.371   6.597 -0.8768 -1.0230 -1.6589
  873MOL0     H17818   4.796  10.204   6.653 -2.6894  1.3314 -2.6284
  873MOL0     H17819   4.421  10.058   6.392  2.0001  1.0348  0.4238
  873MOL0     H17820   4.173  10.093   6.417  2.8696 -2.5976 -0.6881
  873MOL0     H17821   4.043  10.409   6.690  1.8295 -2.3351 -0.8513
  873MOL0     H17822   4.055  10.525   6.546 -1.9468  0.6099 -1.0191
  873MOL0     H17823   3.844  10.413   6.473 -2.5259  0.2752  0.8831
  873MOL0     H17824   3.821  10.358   6.640 -2.2608  2.8699  1.0491
  873MOL0     H17825   3.827  10.654   6.546 -2.5117 -0.4865 -1.3657
  873MOL0     H17826   3.822  10.608   6.712  1.1700 -0.6715  0.8071
  873MOL0     H17827   3.610  10.479   6.547 -0.5649 -0.3305  0.9867
  873MOL0     H17828   3.597  10.567   6.700 -0.8529 -0.8525 -0.2846
  873MOL0     H17829   3.645  10.675   6.420 -1.8412 -0.8177 -0.2706
  873MOL0     H17830   3.620  10.776   6.564  2.8402 -0.9890  0.7209
  873MOL0     H17831   3.412  10.780   6.446  1.6852  0.4120 -2.3617
  873MOL0     H17832   3.418  10.609   6.410  0.2782 -0.9986  0.9337
  873MOL0     H17833   3.350  10.726   6.675  3.9064 -2.1173  1.3685
  873MOL0     H17834   3.387  10.557   6.651 -0.3961 -1.0561 -0.0069
  873MOL0     H17835   3.209  10.519   6.495 -3.2577 -0.6883  0.3659
  873MOL0     H17836   3.154  10.686   6.512  0.3790  1.4391  1.3383
  873MOL0     H17837   4.270  10.461   6.630 -0.2168  0.5062 -0.8105
  873MOL0     H17838   4.502  10.392   6.632  0.2317 -0.2935 -0.3057
  873MOL0     H17839   4.829  10.083   6.182 -1.0400 -0.4158  1.6199
  873MOL0     H17840   5.067  10.143   6.135 -1.0011  3.4030 -1.9822
  873MOL0     H17841   6.878  10.608   6.129 -0.9093  2.4305 -0.9719
  873MOL0     H17842   7.096  10.566   6.137 -0.8136  1.2109 -0.9801
  873MOL0     H17843   7.446  10.422   6.335 -0.6916 -0.0951 -0.6359
  873MOL0     H17844   7.656  10.304   6.279  2.7811  0.7759 -0.2972
  873MOL0     H17845   7.869  10.304   6.275 -3.5309 -2.7630 -0.3148
  873MOL0     H17846   7.840  10.206   6.134 -1.4011  0.8703 -1.8324
  873MOL0     H17847   8.050  10.282   6.019  2.5882  2.5108  0.8947
  873MOL0     H17848   8.079  10.195   6.169 -0.8781 -1.4012 -4.1647
  873MOL0     H17849   8.137  10.412   6.287  2.7268  3.6164  0.7938
  873MOL0     H17850   8.076  10.506   6.153  4.5404  1.7466 -3.5491
  873MOL0     H17851   8.298  10.524   6.155  0.9202 -1.2961  1.4242
  873MOL0     H17852   8.241  10.454   6.004  2.1258  0.5620  0.9510
  873MOL0     H17853   8.473  10.133   6.139 -0.1104 -0.7998 -1.1374
  873MOL0     H17854   7.764  10.620   6.011  0.7225  0.6366  0.6241
  873MOL0     H17855   7.551  10.731   6.053  1.1426  0.1135  1.5701
  874MOL0     O17856   3.077   3.271   3.475 -0.6538  0.0210  0.2222
  874MOL0     C17857   3.136   3.269   3.366  0.2708  0.9041  0.2135
  874MOL0     O17858   3.077   3.248   3.243 -0.5214  0.1669  0.2433
  874MOL0     C17859   2.941   3.241   3.229  0.4675  0.2322  0.0715
  874MOL0     C17860   2.852   3.328   3.289  0.0232  0.6075  1.5752
  874MOL0     C17861   2.716   3.313   3.253  0.3500 -0.0358  0.0605
  874MOL0     C17862   2.659   3.200   3.199 -0.5278  0.1138  0.3256
  874MOL0     O17863   2.529   3.180   3.191  0.2256 -0.2894  0.2490
  874MOL0     C17864   2.476   3.098   3.093  0.6643 -0.0012 -0.0213
  874MOL0     C17865   2.319   3.111   3.095 -0.0433 -0.0361  0.2899
  874MOL0     C17866   2.277   3.258   3.070  0.1583 -0.5610 -0.1995
  874MOL0     C17867   2.166   3.270   2.963 -0.4229  0.2152  0.3514
  874MOL0     C17868   2.034   3.219   3.013 -1.2678  0.3002 -0.4917
  874MOL0     C17869   1.908   3.217   2.919  0.2948  0.2268 -0.6386
  874MOL0     C17870   1.888   3.362   2.859 -0.5211  0.2333  0.2469
  874MOL0     C17871   1.847   3.471   2.962  0.3226  0.3941  0.3749
  874MOL0     N17872   1.717   3.450   3.016  0.1135 -0.2829 -0.2692
  874MOL0     C17873   1.606   3.526   2.979 -0.0271  0.6635 -0.2917
  874MOL0     C17874   1.515   3.490   3.070 -0.0317 -0.5839  0.2648
  874MOL0     C17875   1.380   3.545   3.086  0.4088 -0.2542 -0.1058
  874MOL0     C17876   1.278   3.505   2.982  0.5985 -0.0985 -0.5562
  874MOL0     C17877   1.217   3.372   3.026  0.2294 -0.2426  0.8882
  874MOL0     C17878   1.127   3.304   2.917 -0.0170 -0.0654  0.4869
  874MOL0     O17879   1.157   3.326   2.783  0.5248 -0.3779  0.7855
  874MOL0     C17880   1.274   3.287   2.721 -0.1318 -0.3186  0.7072
  874MOL0     C17881   1.384   3.210   2.768 -0.1712  0.4206 -0.0850
  874MOL0     C17882   1.481   3.165   2.683 -1.3257 -0.8126  0.0096
  874MOL0     C17883   1.578   3.082   2.758  0.2275 -0.3476  0.1388
  874MOL0     C17884   1.493   3.221   2.553 -0.1439  0.0426  0.7402
  874MOL0     C17885   1.611   3.190   2.453 -0.6780 -0.1837 -0.1209
  874MOL0     O17886   1.587   3.245   2.326 -0.0284 -0.2170 -0.4721
  874MOL0     C17887   1.671   3.213   2.222  0.5027  0.0712  0.9302
  874MOL0     C17888   1.734   3.313   2.150  0.0764  0.1043  1.1397
  874MOL0     C17889   1.811   3.280   2.034 -0.8721 -0.1690  1.3628
  874MOL0     C17890   1.843   3.154   1.987  0.6356 -0.4174  1.0264
  874MOL0     O17891   1.912   3.142   1.874 -0.3344  0.7388 -0.4612
  874MOL0     C17892   1.899   3.017   1.798  0.8389  0.5075  0.6415
  874MOL0     C17893   1.954   3.032   1.658  0.6442 -0.1286  0.0793
  874MOL0     C17894   2.091   3.085   1.658 -0.5551  0.1273 -0.2688
  874MOL0     C17895   2.169   3.074   1.520  0.6334 -0.0847 -0.4275
  874MOL0     C17896   2.281   3.168   1.511  0.3581  0.2170  0.2310
  874MOL0     C17897   2.351   3.151   1.380  0.1290  0.2083  0.7957
  874MOL0     C17898   2.456   3.270   1.351  0.0932  0.3950 -0.4581
  874MOL0     C17899   2.375   3.404   1.321 -0.2457  0.1080  0.2317
  874MOL0    Cl17900   2.486   3.534   1.308 -0.4258  0.1265 -0.0696
  874MOL0     C17901   1.786   3.055   2.069  0.3730  0.3377  0.4451
  874MOL0     C17902   1.701   3.082   2.180  0.1828 -0.3258 -0.7179
  874MOL0     O17903   1.712   3.151   2.498 -0.1217 -0.1097  0.6076
  874MOL0     C17904   1.402   3.318   2.510 -0.4270  0.1425 -0.6620
  874MOL0     C17905   1.292   3.339   2.591  0.3312  0.0003 -0.5776
  874MOL0     N17906   1.561   3.380   3.144 -0.3237 -0.1930 -0.5166
  874MOL0     N17907   1.690   3.364   3.122  0.3606  0.5538  0.4371
  874MOL0     C17908   2.754   3.111   3.145  0.1293 -0.8620 -0.2355
  874MOL0     C17909   2.892   3.128   3.158  0.1876 -1.0119  0.7032
  874MOL0     C17910   3.275   3.279   3.369  0.4248 -0.2974  0.3131
  874MOL0     C17911   3.343   3.319   3.481  0.7905 -0.2684 -0.3514
  874MOL0     C17912   3.476   3.331   3.481  0.0368 -0.7271  0.2886
  874MOL0     C17913   3.552   3.282   3.372  0.3140  0.0579  0.7520
  874MOL0     O17914   3.691   3.305   3.380 -0.3490  0.3741  0.6665
  874MOL0     C17915   3.782   3.243   3.286  0.8751 -0.1052  0.6374
  874MOL0     C17916   3.929   3.218   3.333  0.1284 -0.1418  0.2834
  874MOL0     C17917   3.998   3.356   3.355  0.5187 -0.3945  0.1367
  874MOL0     C17918   4.014   3.388   3.507 -0.0630 -0.0855  0.3969
  874MOL0     C17919   4.097   3.301   3.580  0.5377 -0.2846  0.5446
  874MOL0     C17920   4.164   3.241   3.659  0.0876 -0.4073 -0.0170
  874MOL0     C17921   3.485   3.244   3.256 -1.0758 -0.4186 -0.3887
  874MOL0     C17922   3.344   3.241   3.254 -0.4397 -0.2245  0.4359
  874MOL0     H17923   2.891   3.420   3.332 -0.2331  0.8328  1.3290
  874MOL0     H17924   2.641   3.390   3.273 -1.4280 -0.9732 -2.4164
  874MOL0     H17925   2.503   3.119   2.989 -1.0879 -2.6922 -1.1273
  874MOL0     H17926   2.504   2.995   3.113 -0.0261 -0.0720  0.6340
  874MOL0     H17927   2.287   3.051   3.009 -2.2114  0.1471  0.9226
  874MOL0     H17928   2.275   3.070   3.187  1.0458 -0.5739  0.5943
  874MOL0     H17929   2.245   3.302   3.165 -0.2812  0.0752 -0.6372
  874MOL0     H17930   2.368   3.310   3.038 -0.4819 -0.7887 -2.5768
  874MOL0     H17931   2.167   3.372   2.922  1.8578  0.3172  0.5593
  874MOL0     H17932   2.199   3.198   2.887  2.2269 -0.4533  1.9988
  874MOL0     H17933   2.050   3.118   3.051  0.8197  1.2779  1.4920
  874MOL0     H17934   2.013   3.290   3.094  2.0123  1.6439 -0.6930
  874MOL0     H17935   1.921   3.138   2.844 -3.4060 -1.5650  0.3444
  874MOL0     H17936   1.815   3.194   2.972  0.7331 -0.8741 -0.3087
  874MOL0     H17937   1.982   3.381   2.806  0.0979  0.5892  1.4466
  874MOL0     H17938   1.816   3.372   2.777  0.6204 -0.5689 -0.9038
  874MOL0     H17939   1.834   3.569   2.915 -5.1381 -0.3174 -0.2550
  874MOL0     H17940   1.926   3.477   3.038  0.7415 -1.5619  0.1471
  874MOL0     H17941   1.599   3.610   2.910  0.1589  3.4145  2.8046
  874MOL0     H17942   1.339   3.518   3.184  0.9313  0.4041  0.3044
  874MOL0     H17943   1.396   3.653   3.094 -1.8265  0.0064  2.2760
  874MOL0     H17944   1.320   3.507   2.881 -2.2949  0.0742 -1.8584
  874MOL0     H17945   1.193   3.573   2.972  1.3310  1.2430  1.6238
  874MOL0     H17946   1.155   3.394   3.113  0.0658  0.2003  0.6681
  874MOL0     H17947   1.302   3.307   3.051  0.8478  0.2251  0.0715
  874MOL0     H17948   1.022   3.332   2.929  0.2146  0.4425  1.3856
  874MOL0     H17949   1.125   3.198   2.944 -0.6004 -0.0428  0.5437
  874MOL0     H17950   1.399   3.178   2.871 -1.0369  0.9734  0.2211
  874MOL0     H17951   1.650   3.133   2.823  0.8178 -1.2820  0.2490
  874MOL0     H17952   1.521   3.005   2.810 -1.7226  1.4884  0.8459
  874MOL0     H17953   1.636   3.033   2.679 -2.7962 -0.9488 -1.8741
  874MOL0     H17954   1.709   3.415   2.174  2.1946  1.9133 -3.2646
  874MOL0     H17955   1.858   3.358   1.976 -1.1393 -1.3590 -0.5538
  874MOL0     H17956   1.957   2.935   1.843  0.0138 -0.2179  0.4042
  874MOL0     H17957   1.793   2.991   1.792  1.2999 -1.3430 -0.1687
  874MOL0     H17958   1.957   2.934   1.608  3.2390 -0.3755  0.5426
  874MOL0     H17959   1.888   3.103   1.608  1.5997  2.0446  1.7757
  874MOL0     H17960   2.157   3.030   1.726  0.4333  0.3580 -1.0245
  874MOL0     H17961   2.093   3.190   1.689  0.5484  0.1699 -0.4471
  874MOL0     H17962   2.207   2.971   1.515 -0.6912 -0.6014 -0.4310
  874MOL0     H17963   2.100   3.084   1.435  1.5460  0.7777 -1.0807
  874MOL0     H17964   2.348   3.162   1.597 -0.1463  2.8789  0.8883
  874MOL0     H17965   2.242   3.269   1.497  1.7794  0.7168 -0.2922
  874MOL0     H17966   2.412   3.061   1.392 -1.2085 -0.7749  0.4840
  874MOL0     H17967   2.287   3.139   1.292  0.8696 -1.2244  0.4064
  874MOL0     H17968   2.520   3.238   1.269  1.7997  1.1110  0.5431
  874MOL0     H17969   2.506   3.292   1.445 -1.2975  1.6067  0.0536
  874MOL0     H17970   2.310   3.437   1.401  2.1970  2.2640  1.4817
  874MOL0     H17971   2.320   3.390   1.227 -3.2470 -1.1524  2.0452
  874MOL0     H17972   1.811   2.952   2.045  0.7458 -1.0038  5.3935
  874MOL0     H17973   1.668   2.996   2.238 -3.4106  0.1386 -1.8790
  874MOL0     H17974   1.421   3.373   2.418 -1.4185 -1.7956 -2.0769
  874MOL0     H17975   1.217   3.411   2.561  1.1553  0.6836 -1.0245
  874MOL0     H17976   2.722   3.031   3.080  0.7023 -1.9696  0.7927
  874MOL0     H17977   2.966   3.077   3.097  0.3046  1.5865 -1.4994
  874MOL0     H17978   3.289   3.342   3.572  3.7401 -2.6317  2.1800
  874MOL0     H17979   3.528   3.365   3.570 -0.9378 -0.2615  0.6910
  874MOL0     H17980   3.739   3.148   3.251  3.2357 -1.3418  0.8772
  874MOL0     H17981   3.790   3.312   3.201 -0.7797 -1.5832 -0.8086
  874MOL0     H17982   3.981   3.160   3.256  0.6175 -1.7929  1.7854
  874MOL0     H17983   3.939   3.161   3.426 -1.4019 -0.3821  0.3152
  874MOL0     H17984   3.941   3.426   3.293  2.2049 -1.7054 -3.1436
  874MOL0     H17985   4.097   3.362   3.309  0.6389  3.1672  0.5808
  874MOL0     H17986   3.915   3.389   3.554 -0.3559 -0.2780 -0.2023
  874MOL0     H17987   4.050   3.491   3.520 -0.0277  0.1635 -1.4680
  874MOL0     H17988   4.242   3.213   3.728 -0.9957  0.6773  1.7289
  874MOL0     H17989   3.528   3.219   3.160 -1.8843 -0.2022 -0.8079
  874MOL0     H17990   3.294   3.216   3.162  0.0283  0.2883  0.0368
  875MOL0     O17991   2.654   7.822   3.435  0.3370 -0.2868  0.5138
  875MOL0     C17992   2.745   7.893   3.474  1.0948 -0.4543 -0.2195
  875MOL0     O17993   2.730   8.025   3.517  0.2584 -0.4118  0.3531
  875MOL0     C17994   2.614   8.074   3.474  0.5371  0.5923 -0.1776
  875MOL0     C17995   2.592   8.139   3.349 -0.7643  0.1305  0.2793
  875MOL0     C17996   2.467   8.192   3.312 -0.2029 -0.4719 -0.5152
  875MOL0     C17997   2.362   8.185   3.401  0.1472  0.1962  0.2369
  875MOL0     O17998   2.235   8.231   3.382  0.2999  0.0534  0.1944
  875MOL0     C17999   2.194   8.275   3.251  0.4232 -0.6068 -0.1059
  875MOL0     C18000   2.051   8.258   3.234 -0.4771  0.4977 -0.8287
  875MOL0     C18001   1.979   8.351   3.336  0.4076 -0.2398 -1.2494
  875MOL0     C18002   1.833   8.347   3.299  0.0360 -0.7073  0.0008
  875MOL0     C18003   1.749   8.390   3.413 -0.9204 -1.3052  0.1292
  875MOL0     C18004   1.598   8.399   3.374 -0.1033  0.6519  0.3465
  875MOL0     C18005   1.510   8.411   3.502 -0.2913 -0.8263 -0.1173
  875MOL0     C18006   1.364   8.362   3.469  0.1584  0.3099 -1.0436
  875MOL0     N18007   1.270   8.427   3.560  0.5799 -0.4600 -0.8490
  875MOL0     C18008   1.254   8.384   3.691  0.6081 -0.4695  0.4717
  875MOL0     C18009   1.162   8.471   3.744 -0.2554  1.0492  0.1614
  875MOL0     C18010   1.109   8.469   3.888 -0.3471  0.0639  0.2118
  875MOL0     C18011   0.971   8.401   3.905 -1.3524 -0.5268  0.7706
  875MOL0     C18012   0.971   8.306   4.019 -0.5764 -0.5139  0.0083
  875MOL0     C18013   0.861   8.214   3.997  0.3594  0.3481 -0.2629
  875MOL0     O18014   0.838   8.143   4.126 -0.7622 -0.1424  0.7247
  875MOL0     C18015   0.702   8.141   4.154  0.2649 -0.0418 -0.4842
  875MOL0     C18016   0.604   8.113   4.056 -0.5789  0.3509  0.0918
  875MOL0     C18017   0.471   8.120   4.089 -0.6493 -0.8506  0.1431
  875MOL0     C18018   0.370   8.097   3.983  1.2002 -0.5366  0.5677
  875MOL0     C18019   0.425   8.147   4.222 -0.1192  0.1910  0.2921
  875MOL0     C18020   0.287   8.138   4.276 -0.4296 -0.1195  1.0407
  875MOL0     O18021   0.255   8.234   4.368 -0.0278 -0.2440 -0.6665
  875MOL0     C18022   0.124   8.243   4.392 -0.4177  0.8252 -0.3068
  875MOL0     C18023   0.079   8.225   4.527  0.0510  0.2847 -0.1135
  875MOL0     C18024  -0.061   8.237   4.552  0.4843  0.5130  0.5719
  875MOL0     C18025  -0.150   8.275   4.452 -0.0597 -0.0637  0.1269
  875MOL0     O18026  -0.272   8.316   4.494  0.6384 -0.2504 -0.3894
  875MOL0     C18027  -0.384   8.307   4.412 -0.0642  0.0382  0.8568
  875MOL0     C18028  -0.505   8.354   4.488 -0.4374 -0.2314  1.4309
  875MOL0     C18029  -0.627   8.327   4.413 -0.6622 -0.0579  0.2449
  875MOL0     C18030  -0.742   8.404   4.485  0.7095 -0.3008  0.4502
  875MOL0     C18031  -0.876   8.391   4.410  1.0765 -0.3622 -0.4818
  875MOL0     C18032  -0.941   8.246   4.397  0.4547 -0.6660  0.5307
  875MOL0     C18033  -1.084   8.263   4.333 -0.0816  0.2778  0.1365
  875MOL0     C18034  -1.158   8.128   4.318 -0.5921 -0.6848  0.2140
  875MOL0    Cl18035  -1.152   8.036   4.481  0.0676  0.0385 -0.3725
  875MOL0     C18036  -0.108   8.299   4.322  0.1708 -0.0525 -0.0386
  875MOL0     C18037   0.029   8.288   4.294 -0.2710  0.9952 -0.4547
  875MOL0     O18038   0.210   8.055   4.219  0.0990 -0.8173  0.1996
  875MOL0     C18039   0.522   8.170   4.316  0.1786 -0.0341 -0.2227
  875MOL0     C18040   0.663   8.158   4.286  0.2699  0.7713 -0.0361
  875MOL0     N18041   1.107   8.536   3.633 -0.1158 -0.4607 -0.0703
  875MOL0     N18042   1.165   8.519   3.522 -0.0866 -0.3535 -0.5892
  875MOL0     C18043   2.380   8.133   3.526 -0.1380 -0.1046 -0.9841
  875MOL0     C18044   2.506   8.074   3.564  0.6323  0.0081  0.2831
  875MOL0     C18045   2.874   7.844   3.471  0.4511  0.7523 -0.1112
  875MOL0     C18046   2.992   7.917   3.507 -0.3710  0.2808  0.0740
  875MOL0     C18047   3.125   7.871   3.482  0.1921  0.5951  0.2602
  875MOL0     C18048   3.142   7.739   3.457 -0.6085  0.8323 -0.6320
  875MOL0     O18049   3.277   7.697   3.452 -0.4337  0.3369 -0.7638
  875MOL0     C18050   3.310   7.585   3.375  0.7700 -0.4813  0.0881
  875MOL0     C18051   3.436   7.517   3.427 -0.4189  0.3070  0.0286
  875MOL0     C18052   3.565   7.602   3.388 -0.5694  0.1140 -0.3515
  875MOL0     C18053   3.687   7.525   3.429 -0.0313 -1.2466  0.8228
  875MOL0     C18054   3.758   7.474   3.319 -0.7001  0.4708 -0.0912
  875MOL0     C18055   3.814   7.444   3.221  1.0135  0.4276  0.0957
  875MOL0     C18056   3.031   7.659   3.424  0.3673  0.0132 -1.0115
  875MOL0     C18057   2.903   7.705   3.438 -0.8759 -0.1348  0.0303
  875MOL0     H18058   2.677   8.142   3.281 -0.0214 -0.2517  1.1566
  875MOL0     H18059   2.452   8.239   3.215 -1.5094 -1.4723 -0.8359
  875MOL0     H18060   2.202   8.383   3.237  0.2272 -0.4967  0.5881
  875MOL0     H18061   2.239   8.221   3.168 -1.5665 -2.0090 -0.3402
  875MOL0     H18062   2.010   8.279   3.135 -3.5222 -2.7536 -0.4677
  875MOL0     H18063   2.031   8.150   3.238 -2.0308  0.7819  1.1367
  875MOL0     H18064   1.988   8.326   3.442  2.3546  2.3358 -0.7169
  875MOL0     H18065   2.013   8.455   3.330  0.3026 -0.0965  0.3694
  875MOL0     H18066   1.808   8.409   3.213  0.2122 -0.4947  0.1028
  875MOL0     H18067   1.805   8.247   3.264  0.5779 -1.6236  2.0241
  875MOL0     H18068   1.773   8.328   3.500  1.2957  0.6533  1.0348
  875MOL0     H18069   1.785   8.492   3.428  2.4391 -2.0370 -1.9900
  875MOL0     H18070   1.578   8.485   3.310 -1.0274 -0.5636 -1.0542
  875MOL0     H18071   1.554   8.307   3.334 -2.6447  1.4807  1.0183
  875MOL0     H18072   1.556   8.362   3.588 -0.7682 -2.4153 -0.7313
  875MOL0     H18073   1.510   8.520   3.514 -1.3879 -0.6117 -1.6963
  875MOL0     H18074   1.361   8.255   3.488 -0.6897  0.4800 -0.1152
  875MOL0     H18075   1.331   8.366   3.365 -1.7867 -1.8129 -0.5771
  875MOL0     H18076   1.316   8.306   3.734  1.3612 -0.5181 -0.6700
  875MOL0     H18077   1.177   8.401   3.940  0.1904 -1.0527 -1.8471
  875MOL0     H18078   1.100   8.564   3.941  1.2704  0.4989 -0.2429
  875MOL0     H18079   0.949   8.352   3.809  0.9187  0.5559 -0.3762
  875MOL0     H18080   0.902   8.486   3.906  1.2570  1.9233 -2.6145
  875MOL0     H18081   0.966   8.366   4.110  2.0489  1.0419 -0.7593
  875MOL0     H18082   1.058   8.239   4.022  0.0186  0.0356 -2.7423
  875MOL0     H18083   0.888   8.149   3.913  0.2556 -0.8470  0.6137
  875MOL0     H18084   0.770   8.268   3.969 -0.6860  0.5610  3.1630
  875MOL0     H18085   0.625   8.095   3.951  1.8162  0.4863  0.4759
  875MOL0     H18086   0.287   8.167   3.996  1.6143 -0.0668  0.7233
  875MOL0     H18087   0.409   8.119   3.883  1.9755  2.4426  1.4110
  875MOL0     H18088   0.331   7.995   3.991 -1.4304  0.0889 -2.5227
  875MOL0     H18089   0.155   8.218   4.604  1.6839  0.2197 -1.6406
  875MOL0     H18090  -0.091   8.205   4.651 -2.7175  0.1891 -0.4190
  875MOL0     H18091  -0.358   8.358   4.319  2.7675  1.7347  2.4249
  875MOL0     H18092  -0.408   8.206   4.377 -1.6553  0.0194  1.9233
  875MOL0     H18093  -0.508   8.307   4.587 -1.1989 -0.2024  1.4331
  875MOL0     H18094  -0.497   8.463   4.499  0.1046  0.4611 -3.6399
  875MOL0     H18095  -0.640   8.219   4.407  0.1485 -0.2701  1.8989
  875MOL0     H18096  -0.626   8.368   4.311  0.9154 -1.0532 -0.1694
  875MOL0     H18097  -0.748   8.361   4.585 -0.5876 -1.1920  0.0261
  875MOL0     H18098  -0.726   8.511   4.496 -1.1673 -0.0815  1.5175
  875MOL0     H18099  -0.861   8.432   4.309 -0.9288  1.3495 -0.1506
  875MOL0     H18100  -0.937   8.469   4.455  2.9263 -2.2158  6.3679
  875MOL0     H18101  -0.879   8.180   4.337 -1.6977 -2.3575  0.0596
  875MOL0     H18102  -0.962   8.203   4.496  1.8884 -3.2004 -0.1795
  875MOL0     H18103  -1.076   8.305   4.232  1.7860 -0.7233 -0.1842
  875MOL0     H18104  -1.152   8.328   4.388  1.0233  0.9121  0.7740
  875MOL0     H18105  -1.110   8.068   4.241  0.3946 -0.0377  0.3017
  875MOL0     H18106  -1.263   8.147   4.291 -0.0178  1.0232 -1.0366
  875MOL0     H18107  -0.165   8.339   4.239  2.1767  0.8684 -1.0485
  875MOL0     H18108   0.071   8.315   4.198  0.5969 -4.9740 -2.1169
  875MOL0     H18109   0.490   8.178   4.419  1.0528 -0.0399  0.0573
  875MOL0     H18110   0.736   8.161   4.367  1.8955 -2.5330 -1.1693
  875MOL0     H18111   2.300   8.129   3.598 -0.1258  2.0533 -0.7893
  875MOL0     H18112   2.512   8.021   3.659  1.5141  1.3632  1.0169
  875MOL0     H18113   2.972   8.016   3.546  2.2231  0.1416  1.9643
  875MOL0     H18114   3.219   7.925   3.487 -0.4566  1.6478  2.5667
  875MOL0     H18115   3.237   7.505   3.387  0.6049 -0.1703  1.1980
  875MOL0     H18116   3.312   7.607   3.268 -1.1130 -0.9226 -0.0823
  875MOL0     H18117   3.442   7.417   3.385 -1.1923 -1.7464  4.2960
  875MOL0     H18118   3.434   7.504   3.536  0.0694  0.2646  0.0326
  875MOL0     H18119   3.565   7.699   3.437 -2.3764  0.2559 -0.5535
  875MOL0     H18120   3.565   7.614   3.280  0.3287  0.6794 -0.2939
  875MOL0     H18121   3.654   7.439   3.489  0.9416 -1.6684  0.7633
  875MOL0     H18122   3.750   7.588   3.492 -0.4338 -0.1697  0.1692
  875MOL0     H18123   3.871   7.441   3.130  3.6331  0.5922  1.6435
  875MOL0     H18124   3.046   7.553   3.406 -1.1575 -0.3520 -0.3223
  875MOL0     H18125   2.820   7.634   3.433 -0.6022 -0.4074 -0.8330
  876MOL0     O18126   6.000   8.455   9.507 -0.0783 -0.2500  0.5497
  876MOL0     C18127   6.070   8.356   9.497  0.1092  0.3747 -0.4831
  876MOL0     O18128   6.028   8.226   9.534  0.0563 -0.9657 -0.7570
  876MOL0     C18129   5.896   8.202   9.581 -0.7048 -0.5914  0.1604
  876MOL0     C18130   5.782   8.255   9.526  0.1276 -0.4044  0.6367
  876MOL0     C18131   5.658   8.227   9.582 -0.5612  0.1673  0.8226
  876MOL0     C18132   5.644   8.122   9.676  0.4142  0.2815  0.4304
  876MOL0     O18133   5.532   8.069   9.729  0.2925  0.6066 -0.4632
  876MOL0     C18134   5.408   8.094   9.662 -0.2420 -0.7077  0.1453
  876MOL0     C18135   5.305   8.011   9.739  0.0520  0.6897 -0.5379
  876MOL0     C18136   5.310   7.860   9.707  0.3233 -0.2096  0.7527
  876MOL0     C18137   5.210   7.778   9.793  0.9142  0.1165 -0.2431
  876MOL0     C18138   5.201   7.640   9.744  0.1012  0.6422  0.6542
  876MOL0     C18139   5.093   7.544   9.811  0.4366 -0.1589  0.2881
  876MOL0     C18140   4.950   7.541   9.743 -0.3595 -0.1748  0.7261
  876MOL0     C18141   4.879   7.414   9.759 -0.5107  0.4638 -0.8555
  876MOL0     N18142   4.757   7.439   9.689  0.4596  0.9775 -0.1128
  876MOL0     C18143   4.736   7.419   9.554 -0.6359  0.3001 -0.7555
  876MOL0     C18144   4.597   7.420   9.536  0.3081  0.2803 -1.1275
  876MOL0     C18145   4.529   7.395   9.406 -0.3289 -0.0366 -0.2794
  876MOL0     C18146   4.525   7.534   9.325 -0.1568  0.0165 -0.0045
  876MOL0     C18147   4.456   7.519   9.185 -0.1279  0.6433 -0.1271
  876MOL0     C18148   4.308   7.474   9.191  0.5470 -0.1482 -0.6503
  876MOL0     O18149   4.249   7.526   9.074  0.5011  0.1130  0.6785
  876MOL0     C18150   4.115   7.498   9.049  0.0107 -0.2378 -0.5026
  876MOL0     C18151   4.071   7.582   8.950 -0.9684 -0.2216 -0.4531
  876MOL0     C18152   3.935   7.582   8.910 -0.9536 -0.2009  0.3031
  876MOL0     C18153   3.905   7.679   8.808  0.9133  0.6402 -0.3434
  876MOL0     C18154   3.846   7.480   8.964  0.2272 -0.8007 -0.3702
  876MOL0     C18155   3.693   7.482   8.943  0.7184 -0.3667 -0.2040
  876MOL0     O18156   3.614   7.410   9.031 -0.5060  0.4282 -0.0012
  876MOL0     C18157   3.494   7.360   8.978  0.4909  0.5443  0.0057
  876MOL0     C18158   3.398   7.325   9.073  0.0078  0.3520 -0.0282
  876MOL0     C18159   3.284   7.262   9.031  0.4941  0.0589 -0.4373
  876MOL0     C18160   3.267   7.227   8.899  0.8409  0.1615 -0.0302
  876MOL0     O18161   3.138   7.175   8.873 -0.0730  0.4156 -0.1838
  876MOL0     C18162   3.129   7.092   8.761 -0.7566  0.3498 -0.5757
  876MOL0     C18163   2.984   7.063   8.728  0.5002  0.4687  0.2717
  876MOL0     C18164   2.917   6.975   8.835 -0.8237 -0.5810  0.5127
  876MOL0     C18165   2.790   6.908   8.786  0.6285  0.5632 -0.2296
  876MOL0     C18166   2.730   6.804   8.890  0.2080  0.6050 -1.1122
  876MOL0     C18167   2.586   6.755   8.865  0.1357 -0.5443 -0.2847
  876MOL0     C18168   2.505   6.726   8.983  0.1608 -0.3017 -0.5059
  876MOL0     C18169   2.539   6.588   9.043  0.4601 -0.1922 -0.0830
  876MOL0    Cl18170   2.461   6.564   9.203  0.1990 -0.3212  0.3931
  876MOL0     C18171   3.368   7.236   8.809 -0.0963  0.8706 -0.3877
  876MOL0     C18172   3.474   7.314   8.848 -0.6905  0.8587  0.1125
  876MOL0     O18173   3.652   7.537   8.839 -0.1254  0.9406  0.7523
  876MOL0     C18174   3.897   7.390   9.054 -0.3166 -0.3501 -1.1832
  876MOL0     C18175   4.032   7.397   9.101  0.1944  0.5665  0.5407
  876MOL0     N18176   4.552   7.468   9.654  0.3863 -0.9340 -0.3931
  876MOL0     N18177   4.637   7.475   9.747 -0.1099 -0.0767  0.5539
  876MOL0     C18178   5.763   8.088   9.741 -0.5462  0.2422  1.1091
  876MOL0     C18179   5.886   8.129   9.698  0.4080 -0.2052 -0.1171
  876MOL0     C18180   6.204   8.374   9.445  0.6766 -0.5217 -0.3373
  876MOL0     C18181   6.298   8.267   9.454  0.5026 -0.1102 -0.6581
  876MOL0     C18182   6.427   8.294   9.436 -0.6037 -0.6368  0.0400
  876MOL0     C18183   6.481   8.422   9.396  0.2531  0.1063 -0.4194
  876MOL0     O18184   6.615   8.439   9.386  0.0329  0.0075  0.0086
  876MOL0     C18185   6.666   8.566   9.387  0.2368 -0.4790 -1.3822
  876MOL0     C18186   6.809   8.567   9.390 -0.1882 -0.0807 -0.4137
  876MOL0     C18187   6.870   8.537   9.532 -0.1779  1.0501 -0.5356
  876MOL0     C18188   7.027   8.519   9.537 -0.2412  0.2132  0.9942
  876MOL0     C18189   7.087   8.476   9.665  0.0204 -0.2896 -0.3555
  876MOL0     C18190   7.152   8.422   9.756  0.4561  0.2179 -0.0118
  876MOL0     C18191   6.384   8.526   9.382  0.1950  0.0432 -0.0641
  876MOL0     C18192   6.250   8.502   9.404  0.0103 -0.4968  0.6476
  876MOL0     H18193   5.803   8.325   9.446 -2.2466 -0.3890 -0.0345
  876MOL0     H18194   5.563   8.268   9.551 -1.6548 -1.9136  1.2791
  876MOL0     H18195   5.372   8.195   9.683  0.8901 -0.5033  1.2167
  876MOL0     H18196   5.412   8.078   9.554 -1.1365  0.2879 -0.0501
  876MOL0     H18197   5.338   8.028   9.842 -0.9618  2.7431 -0.5174
  876MOL0     H18198   5.204   8.043   9.714  0.1865 -0.0439 -2.2069
  876MOL0     H18199   5.277   7.853   9.603  1.0717  2.9152  0.2238
  876MOL0     H18200   5.411   7.824   9.727  0.4500  0.4624  1.3577
  876MOL0     H18201   5.236   7.766   9.898 -0.0042  0.1381 -0.0073
  876MOL0     H18202   5.112   7.826   9.793  0.3531 -0.9887 -0.5955
  876MOL0     H18203   5.200   7.637   9.635  1.1035  1.2288  0.6207
  876MOL0     H18204   5.296   7.593   9.769  0.6585  1.3671 -0.0386
  876MOL0     H18205   5.126   7.441   9.821 -1.0843 -0.5629  1.4382
  876MOL0     H18206   5.070   7.577   9.913 -1.4294  4.4596 -1.3402
  876MOL0     H18207   4.894   7.625   9.785  0.3035 -0.3350  2.0014
  876MOL0     H18208   4.962   7.554   9.635  1.0578  3.0005  1.1405
  876MOL0     H18209   4.855   7.404   9.865  0.7406  0.7399 -0.5340
  876MOL0     H18210   4.940   7.330   9.724  1.1563  0.5136  1.7276
  876MOL0     H18211   4.815   7.389   9.486 -1.0010 -2.2917 -0.1381
  876MOL0     H18212   4.591   7.334   9.341  2.0597  0.3223  1.5046
  876MOL0     H18213   4.428   7.357   9.421 -0.7828  1.8667  2.2639
  876MOL0     H18214   4.621   7.577   9.296 -0.0379  0.3664  0.8555
  876MOL0     H18215   4.473   7.613   9.380 -0.4197  2.2196 -3.1961
  876MOL0     H18216   4.516   7.448   9.129  1.9077  2.2711 -0.1264
  876MOL0     H18217   4.474   7.618   9.142  2.5638  1.6994  3.0098
  876MOL0     H18218   4.246   7.514   9.272 -1.5324 -0.4602 -2.0073
  876MOL0     H18219   4.296   7.366   9.199 -1.2658  0.1434  1.8494
  876MOL0     H18220   4.132   7.659   8.904  2.5438 -1.8619  1.0826
  876MOL0     H18221   3.923   7.642   8.707  3.3161  3.9767 -1.3205
  876MOL0     H18222   3.803   7.716   8.824 -0.0221 -1.2972 -1.4594
  876MOL0     H18223   3.970   7.768   8.807 -1.6689  2.6758  0.1729
  876MOL0     H18224   3.403   7.343   9.180  2.3541 -2.3314  0.4438
  876MOL0     H18225   3.209   7.255   9.109  0.0559  1.0278 -0.7562
  876MOL0     H18226   3.169   7.147   8.676  0.6971  0.8768  0.4105
  876MOL0     H18227   3.181   6.996   8.767 -2.3913 -0.4819  3.2818
  876MOL0     H18228   2.918   7.144   8.697  1.5522  1.6045  0.9312
  876MOL0     H18229   2.992   6.998   8.640  0.4966 -1.6838  1.7854
  876MOL0     H18230   2.876   7.047   8.907 -1.2397  1.1796 -1.3784
  876MOL0     H18231   2.985   6.914   8.894 -1.2003 -2.1211 -0.5534
  876MOL0     H18232   2.713   6.985   8.774 -0.7024 -0.4571  1.3803
  876MOL0     H18233   2.797   6.851   8.694 -3.1758 -2.3767  1.0368
  876MOL0     H18234   2.738   6.837   8.994  0.2515 -2.4508 -0.0550
  876MOL0     H18235   2.796   6.716   8.885 -1.1120 -0.4299 -0.8722
  876MOL0     H18236   2.541   6.837   8.807  0.9579 -0.7065 -1.1755
  876MOL0     H18237   2.585   6.668   8.799 -1.6992 -1.3718  0.7786
  876MOL0     H18238   2.399   6.741   8.960 -0.2228 -1.4024  0.4351
  876MOL0     H18239   2.538   6.796   9.060  0.1997 -0.2838 -0.5395
  876MOL0     H18240   2.646   6.578   9.065  0.7864 -2.1336 -2.0731
  876MOL0     H18241   2.517   6.500   8.980 -0.4974 -0.4884  0.6442
  876MOL0     H18242   3.371   7.199   8.707  1.4739  1.6671 -0.6652
  876MOL0     H18243   3.550   7.323   8.770 -0.8177  0.0140 -0.1143
  876MOL0     H18244   3.824   7.322   9.096 -1.3575  0.3097 -1.8552
  876MOL0     H18245   4.056   7.334   9.185  3.5004  0.3102 -0.4542
  876MOL0     H18246   5.749   8.022   9.826 -1.7385 -1.5092 -0.3760
  876MOL0     H18247   5.973   8.097   9.754  2.4871  3.3903 -0.9710
  876MOL0     H18248   6.272   8.170   9.496 -0.0976  0.4066  0.1869
  876MOL0     H18249   6.501   8.217   9.454 -1.2481 -1.2872 -0.0973
  876MOL0     H18250   6.619   8.610   9.299  2.6565 -0.2714 -2.6556
  876MOL0     H18251   6.629   8.611   9.479  1.0490 -1.0371 -0.7708
  876MOL0     H18252   6.851   8.665   9.367  1.1158 -0.4914  0.1435
  876MOL0     H18253   6.839   8.497   9.312 -0.8506 -1.0512  0.1631
  876MOL0     H18254   6.818   8.453   9.578 -0.9160  2.1619  0.7668
  876MOL0     H18255   6.836   8.615   9.601 -0.8403 -0.0525  0.4121
  876MOL0     H18256   7.088   8.606   9.510  1.9504 -1.0733  1.5719
  876MOL0     H18257   7.044   8.447   9.457 -0.4264  0.8902  0.3414
  876MOL0     H18258   7.210   8.385   9.838  0.2459  2.0671  1.0282
  876MOL0     H18259   6.403   8.628   9.352 -1.0982 -0.0890 -1.4449
  876MOL0     H18260   6.189   8.591   9.391  2.7528  1.5957  1.2654
  877MOL0     O18261   6.672   3.130   5.174 -0.5459 -0.7937  0.5624
  877MOL0     C18262   6.762   3.210   5.209  0.0255 -0.0002 -0.0177
  877MOL0     O18263   6.739   3.345   5.221  0.0082 -0.3495 -0.6588
  877MOL0     C18264   6.616   3.399   5.193  0.0555 -0.1365 -0.2995
  877MOL0     C18265   6.494   3.338   5.217 -0.2554 -0.8267  0.5340
  877MOL0     C18266   6.375   3.396   5.187  0.0575  0.4753 -0.0644
  877MOL0     C18267   6.366   3.521   5.124  1.0307 -0.4779 -0.6737
  877MOL0     O18268   6.244   3.566   5.089  0.5893  0.7786 -0.3441
  877MOL0     C18269   6.231   3.697   5.020  0.1164  0.0884 -0.2636
  877MOL0     C18270   6.086   3.749   5.021  0.2593 -0.4695  0.8863
  877MOL0     C18271   5.987   3.630   5.009 -0.6113  0.7457  0.4935
  877MOL0     C18272   5.846   3.687   4.995  0.5166  0.3080 -0.8144
  877MOL0     C18273   5.735   3.586   4.984  0.2651  0.7177  0.5271
  877MOL0     C18274   5.745   3.490   4.861 -0.4390  0.7974  0.3407
  877MOL0     C18275   5.619   3.388   4.881 -0.0864  0.2705  0.3275
  877MOL0     C18276   5.646   3.280   4.780 -0.2221 -0.0775 -0.8560
  877MOL0     N18277   5.542   3.177   4.798  0.8604  0.1033  0.2094
  877MOL0     C18278   5.551   3.055   4.862  0.2703 -0.0789 -0.0230
  877MOL0     C18279   5.439   2.987   4.826  0.4387 -0.0092 -0.9429
  877MOL0     C18280   5.389   2.869   4.896  0.3586  0.4871 -0.0213
  877MOL0     C18281   5.266   2.901   4.984  0.1025 -0.5596 -0.1450
  877MOL0     C18282   5.310   2.970   5.115  0.2043  0.3240  0.5833
  877MOL0     C18283   5.367   2.882   5.217 -0.3147  0.1750 -0.5872
  877MOL0     O18284   5.510   2.856   5.190  0.5408 -0.0134  0.4580
  877MOL0     C18285   5.592   2.809   5.288 -0.8764  0.3594  0.4749
  877MOL0     C18286   5.559   2.803   5.425 -0.1610  0.2181  0.4268
  877MOL0     C18287   5.663   2.767   5.517 -0.1878 -0.6670 -0.0673
  877MOL0     C18288   5.605   2.769   5.659  0.3970 -0.7496  0.8403
  877MOL0     C18289   5.800   2.738   5.478  0.9078 -0.1551 -0.2146
  877MOL0     C18290   5.914   2.684   5.567  0.2814  0.1609 -0.4600
  877MOL0     O18291   6.023   2.639   5.507 -0.5587 -0.0042 -0.0804
  877MOL0     C18292   6.125   2.578   5.566 -0.9444  0.0256 -0.4425
  877MOL0     C18293   6.229   2.565   5.480 -0.2386  0.9961  0.4207
  877MOL0     C18294   6.340   2.487   5.516 -0.3179 -0.8854 -0.0036
  877MOL0     C18295   6.348   2.420   5.639 -0.5256 -0.5018 -0.3259
  877MOL0     O18296   6.466   2.357   5.649 -0.2488  0.3280 -0.2787
  877MOL0     C18297   6.473   2.287   5.767 -0.5201  0.3518  0.5743
  877MOL0     C18298   6.603   2.210   5.752 -0.3215  0.2943 -0.5018
  877MOL0     C18299   6.619   2.097   5.855  0.2671 -0.1870 -0.3128
  877MOL0     C18300   6.751   2.032   5.850  0.1556  0.2831 -1.4381
  877MOL0     C18301   6.775   1.954   5.985 -0.0149 -0.5365  0.5332
  877MOL0     C18302   6.677   1.835   6.006  0.2719 -0.5228  0.4212
  877MOL0     C18303   6.733   1.721   6.090  1.2263  0.1630 -0.4988
  877MOL0     C18304   6.628   1.604   6.113 -0.5482 -0.2646  0.4198
  877MOL0    Cl18305   6.502   1.678   6.212 -0.4413  0.0981 -0.0954
  877MOL0     C18306   6.241   2.431   5.725 -0.5437 -0.2018  0.5752
  877MOL0     C18307   6.126   2.505   5.688 -0.3341  0.4112 -0.4779
  877MOL0     O18308   5.902   2.699   5.688 -0.5604  0.5265 -0.8379
  877MOL0     C18309   5.820   2.732   5.336 -0.7400 -0.4391  0.5212
  877MOL0     C18310   5.725   2.771   5.247 -0.5315  0.3433 -0.4889
  877MOL0     N18311   5.366   3.058   4.736 -1.4632  0.1569 -1.5423
  877MOL0     N18312   5.435   3.168   4.716  0.6362 -0.2021  0.4792
  877MOL0     C18313   6.492   3.566   5.080 -0.4934 -0.0522  0.0412
  877MOL0     C18314   6.613   3.509   5.127  0.2670 -0.1863 -0.3357
  877MOL0     C18315   6.900   3.168   5.221 -0.0277 -0.0045 -0.4587
  877MOL0     C18316   7.007   3.260   5.254  0.4204 -0.4616  0.1766
  877MOL0     C18317   7.142   3.209   5.262  0.5915  0.9582 -0.0530
  877MOL0     C18318   7.171   3.075   5.228  0.2558 -0.8458  0.6308
  877MOL0     O18319   7.290   3.015   5.233 -0.1299  0.0263  0.5558
  877MOL0     C18320   7.408   3.109   5.257  0.4151 -1.1764  1.0655
  877MOL0     C18321   7.531   3.035   5.220 -0.3976 -0.1013 -0.4913
  877MOL0     C18322   7.544   2.900   5.292  0.2120 -0.4890 -0.2469
  877MOL0     C18323   7.624   2.803   5.206  0.2280 -0.1311 -1.1434
  877MOL0     C18324   7.766   2.825   5.226 -0.5888 -0.2682 -0.2012
  877MOL0     C18325   7.879   2.864   5.257  0.7648 -0.4111  0.5084
  877MOL0     C18326   7.071   2.990   5.203 -0.8806  0.4161  0.0077
  877MOL0     C18327   6.938   3.029   5.202 -0.1582 -0.6942 -0.4364
  877MOL0     H18328   6.483   3.256   5.286 -0.4662 -2.3691 -1.2658
  877MOL0     H18329   6.288   3.342   5.221  0.0862  2.5178  3.6966
  877MOL0     H18330   6.283   3.774   5.078  1.5282  1.0582 -2.6567
  877MOL0     H18331   6.268   3.690   4.917  1.2023  2.5148 -0.0960
  877MOL0     H18332   6.063   3.787   5.121  0.6897 -1.7652  1.4959
  877MOL0     H18333   6.065   3.823   4.942  3.0107  0.0276  0.5485
  877MOL0     H18334   6.019   3.571   4.922  1.7847  0.8607  1.2267
  877MOL0     H18335   5.995   3.565   5.096  1.4287  1.6348  1.0308
  877MOL0     H18336   5.824   3.758   5.075  0.0767  2.9442 -3.1114
  877MOL0     H18337   5.841   3.752   4.907 -1.7989  1.6729  0.2110
  877MOL0     H18338   5.711   3.532   5.077 -1.1484  0.0789 -0.1685
  877MOL0     H18339   5.640   3.631   4.954  0.2520 -1.2016 -2.7329
  877MOL0     H18340   5.740   3.535   4.761  2.0743  1.9659  0.6346
  877MOL0     H18341   5.840   3.439   4.882 -1.1516  0.5458  3.3182
  877MOL0     H18342   5.616   3.361   4.987 -4.5846  0.3020  0.4132
  877MOL0     H18343   5.533   3.451   4.855  0.2103  0.7918  0.5781
  877MOL0     H18344   5.745   3.240   4.803 -0.1095  1.3131  1.3451
  877MOL0     H18345   5.644   3.328   4.681  0.4915 -2.1787 -1.9389
  877MOL0     H18346   5.620   3.025   4.940 -0.6305 -2.3705 -0.0357
  877MOL0     H18347   5.370   2.794   4.818  1.2512  0.7981 -0.5514
  877MOL0     H18348   5.468   2.822   4.954 -2.5086 -1.3773  2.7098
  877MOL0     H18349   5.211   2.809   5.004  2.0778 -2.0411 -1.1685
  877MOL0     H18350   5.202   2.967   4.925 -0.2215 -0.6845  0.0638
  877MOL0     H18351   5.217   3.013   5.153  0.3181 -1.5820  3.2419
  877MOL0     H18352   5.373   3.056   5.089  1.1534 -0.3387  0.6412
  877MOL0     H18353   5.309   2.789   5.222  1.1166 -0.7773 -0.9049
  877MOL0     H18354   5.358   2.943   5.307  0.7158 -1.2571  0.5334
  877MOL0     H18355   5.461   2.832   5.461  0.6466  2.4626  1.0184
  877MOL0     H18356   5.645   2.860   5.704 -0.8166  0.9559 -1.3631
  877MOL0     H18357   5.496   2.761   5.657  0.4611 -1.7815 -1.4396
  877MOL0     H18358   5.635   2.683   5.720 -2.9200  0.7761  5.1928
  877MOL0     H18359   6.218   2.612   5.383  2.2498  0.3757 -0.2225
  877MOL0     H18360   6.424   2.470   5.449 -1.2960 -1.4442 -1.1398
  877MOL0     H18361   6.480   2.356   5.852 -1.6042 -1.1697  1.9537
  877MOL0     H18362   6.397   2.213   5.790 -0.6669  0.0433 -0.8113
  877MOL0     H18363   6.598   2.156   5.657  1.7945 -1.1794  0.1618
  877MOL0     H18364   6.687   2.280   5.745  0.3700 -0.5994 -1.3723
  877MOL0     H18365   6.543   2.022   5.830  0.6078 -0.7513  0.3388
  877MOL0     H18366   6.609   2.142   5.954 -0.4858  0.4422 -0.6664
  877MOL0     H18367   6.763   1.971   5.760  3.0407 -0.8110 -0.4315
  877MOL0     H18368   6.819   2.117   5.848 -0.5724  0.9865  0.8807
  877MOL0     H18369   6.762   2.013   6.077 -1.6214  0.0352 -0.0185
  877MOL0     H18370   6.876   1.912   5.974  1.2474  2.6817 -1.8365
  877MOL0     H18371   6.588   1.873   6.056 -0.6966  0.4759 -1.9351
  877MOL0     H18372   6.664   1.796   5.904  1.5452  2.9999 -1.2406
  877MOL0     H18373   6.756   1.766   6.187  1.1292 -0.0104 -0.3942
  877MOL0     H18374   6.824   1.673   6.053  1.6756 -1.0337  1.9368
  877MOL0     H18375   6.673   1.518   6.162  0.3202 -0.0346  0.0429
  877MOL0     H18376   6.586   1.578   6.016  0.5122  1.6710 -0.6266
  877MOL0     H18377   6.247   2.386   5.824 -0.3808  1.7778  1.5333
  877MOL0     H18378   6.046   2.520   5.760 -0.0806  2.1779 -0.5105
  877MOL0     H18379   5.910   2.706   5.281  0.9279  0.8124  2.4904
  877MOL0     H18380   5.741   2.770   5.140  0.1583  2.5088 -0.4576
  877MOL0     H18381   6.492   3.658   5.022 -1.0309 -0.2548 -0.2939
  877MOL0     H18382   6.707   3.552   5.092  0.5062  0.9111  1.4960
  877MOL0     H18383   6.986   3.367   5.251  1.2038 -0.2967  0.4467
  877MOL0     H18384   7.224   3.271   5.295 -0.3778  1.3220  1.8333
  877MOL0     H18385   7.403   3.199   5.195  2.7607 -2.3749 -1.0765
  877MOL0     H18386   7.413   3.141   5.361 -1.2862 -3.2133  1.8457
  877MOL0     H18387   7.619   3.099   5.233  0.6308 -1.4246 -0.7018
  877MOL0     H18388   7.519   3.032   5.111  1.1008  2.9482 -0.8450
  877MOL0     H18389   7.447   2.850   5.301  1.1298 -2.0870  1.5641
  877MOL0     H18390   7.579   2.921   5.394 -1.1454  1.7195 -0.1825
  877MOL0     H18391   7.599   2.820   5.100  2.7786  1.5840 -1.5623
  877MOL0     H18392   7.599   2.706   5.250 -1.9231 -0.2853 -2.5264
  877MOL0     H18393   7.964   2.927   5.273  0.0258  1.9669 -3.3610
  877MOL0     H18394   7.094   2.887   5.178  0.2571  0.9177 -1.1260
  877MOL0     H18395   6.850   2.970   5.177 -1.6459  1.3473 -0.3158
  878MOL0     O18396   7.504   0.661   1.526  0.2419 -0.0253 -0.1683
  878MOL0     C18397   7.623   0.690   1.557  0.9731  0.4083 -0.2964
  878MOL0     O18398   7.661   0.811   1.606 -0.0348 -0.2135 -0.3978
  878MOL0     C18399   7.563   0.905   1.593  0.2369  0.0363 -0.3919
  878MOL0     C18400   7.465   0.921   1.695 -0.5262 -0.4111  1.1027
  878MOL0     C18401   7.349   0.997   1.675 -1.0700  0.1514  0.6557
  878MOL0     C18402   7.326   1.061   1.549 -1.2721  0.4547 -0.1330
  878MOL0     O18403   7.206   1.126   1.509 -0.5365  0.5278 -0.3737
  878MOL0     C18404   7.101   1.146   1.606 -0.6560 -0.0693 -0.0488
  878MOL0     C18405   6.980   1.183   1.525  0.3718  0.7218 -0.2325
  878MOL0     C18406   6.868   1.227   1.622 -0.0968  0.1471 -0.6600
  878MOL0     C18407   6.749   1.282   1.535  0.6838  0.3497  0.7285
  878MOL0     C18408   6.652   1.366   1.617  0.3820 -0.3697 -0.0908
  878MOL0     C18409   6.546   1.428   1.516  0.3189 -0.4256  0.2013
  878MOL0     C18410   6.429   1.488   1.593  0.5736 -0.9065  0.0955
  878MOL0     C18411   6.317   1.544   1.495 -0.2796 -0.1947  0.4561
  878MOL0     N18412   6.189   1.557   1.557  0.7620  1.0722 -0.8526
  878MOL0     C18413   6.159   1.562   1.693  0.2585  0.4639 -0.3413
  878MOL0     C18414   6.027   1.532   1.705 -0.3509  0.4331 -0.2452
  878MOL0     C18415   5.934   1.545   1.833  0.6653 -0.3935 -0.2887
  878MOL0     C18416   5.853   1.411   1.862 -0.0262  0.6117  0.2021
  878MOL0     C18417   5.904   1.327   1.977  0.6641  0.6371  0.6899
  878MOL0     C18418   6.042   1.279   1.951 -0.1207  0.9680 -0.3150
  878MOL0     O18419   6.079   1.181   2.040  0.7586 -0.1886 -0.5262
  878MOL0     C18420   6.208   1.177   2.080  0.6444 -0.4539  0.0283
  878MOL0     C18421   6.248   1.115   2.199  0.9414 -0.6495  0.3945
  878MOL0     C18422   6.383   1.097   2.242 -0.2067  0.2868  0.0280
  878MOL0     C18423   6.397   1.032   2.373 -0.6791  0.0309 -0.1504
  878MOL0     C18424   6.486   1.143   2.154  0.6420  0.7461  0.1663
  878MOL0     C18425   6.638   1.128   2.170  0.7725 -0.2734  0.3067
  878MOL0     O18426   6.712   1.173   2.066  0.7770 -1.0826 -0.1408
  878MOL0     C18427   6.846   1.133   2.056 -0.7951 -0.4327 -0.4110
  878MOL0     C18428   6.937   1.210   1.986  0.6252 -0.5643 -0.7115
  878MOL0     C18429   7.069   1.177   1.980 -0.5090  0.1035  0.6117
  878MOL0     C18430   7.115   1.052   2.042  0.2344  0.3270 -0.1221
  878MOL0     O18431   7.251   1.028   2.023  0.4467 -0.0168 -0.1578
  878MOL0     C18432   7.312   0.922   2.089 -0.1627  0.1564 -0.4154
  878MOL0     C18433   7.379   0.983   2.217  0.5581  0.0718 -0.4628
  878MOL0     C18434   7.470   1.098   2.186 -0.1284  0.6885  1.0886
  878MOL0     C18435   7.589   1.111   2.284  0.3176  0.1003  0.7239
  878MOL0     C18436   7.685   0.986   2.260 -0.7068  0.2508 -0.0682
  878MOL0     C18437   7.801   1.005   2.352  0.3656  0.4218  0.0006
  878MOL0     C18438   7.914   0.900   2.320  0.2988  0.1062  0.3123
  878MOL0     C18439   8.016   0.877   2.425  0.1980 -0.6416  0.3652
  878MOL0    Cl18440   7.954   0.802   2.573 -0.4446 -0.0431 -0.5871
  878MOL0     C18441   7.022   0.965   2.103 -0.1125 -0.4091  0.6865
  878MOL0     C18442   6.891   1.013   2.108 -0.0761 -0.2762 -0.3325
  878MOL0     O18443   6.677   1.110   2.283  0.5872 -0.1853  0.2704
  878MOL0     C18444   6.439   1.197   2.029 -0.4689 -0.7669  0.1378
  878MOL0     C18445   6.307   1.213   1.993  0.2057  0.4054  0.6556
  878MOL0     N18446   5.995   1.484   1.578  0.4380 -0.6333 -0.2289
  878MOL0     N18447   6.088   1.500   1.487 -0.4138  0.3794 -0.1516
  878MOL0     C18448   7.419   1.038   1.448  1.8964 -0.0965 -0.2752
  878MOL0     C18449   7.535   0.958   1.465 -0.1790 -0.4147 -0.8482
  878MOL0     C18450   7.714   0.576   1.568 -0.3088 -0.0260  0.2910
  878MOL0     C18451   7.679   0.445   1.538 -0.1598 -0.1554 -0.1135
  878MOL0     C18452   7.779   0.348   1.558  0.5439  0.0508 -0.2561
  878MOL0     C18453   7.913   0.377   1.606  0.4184 -0.7441  0.3124
  878MOL0     O18454   8.016   0.294   1.635  0.9897 -0.1440 -0.2654
  878MOL0     C18455   8.003   0.163   1.588 -0.5166 -0.0907 -0.2137
  878MOL0     C18456   8.057   0.141   1.449 -0.4360  0.0826  0.6876
  878MOL0     C18457   8.065  -0.003   1.408  0.3206  0.2367  0.1074
  878MOL0     C18458   8.106  -0.002   1.259  0.1452  0.0420  0.6783
  878MOL0     C18459   8.162  -0.126   1.200  0.4305  0.2854  0.2771
  878MOL0     C18460   8.210  -0.220   1.135  0.1045  0.4237  0.3897
  878MOL0     C18461   7.950   0.503   1.630  0.4934  0.8199  0.4157
  878MOL0     C18462   7.850   0.599   1.621  0.6387  0.0947 -0.3219
  878MOL0     H18463   7.484   0.870   1.789 -0.0764 -1.6061  0.3839
  878MOL0     H18464   7.272   1.003   1.751 -0.4992 -1.6231  1.4313
  878MOL0     H18465   7.071   1.063   1.671  0.0622 -0.4509 -0.1989
  878MOL0     H18466   7.127   1.231   1.669  0.6198 -1.3426  1.2074
  878MOL0     H18467   7.007   1.262   1.455  0.8875  0.0953 -0.7537
  878MOL0     H18468   6.952   1.093   1.470  0.7523  0.3113  0.2321
  878MOL0     H18469   6.842   1.151   1.696  0.0218  1.5919  0.9189
  878MOL0     H18470   6.917   1.312   1.671 -0.0495  0.2646 -0.9099
  878MOL0     H18471   6.771   1.342   1.447 -2.9919  1.2590  0.2311
  878MOL0     H18472   6.702   1.198   1.483 -0.9107  0.9471  1.1165
  878MOL0     H18473   6.607   1.295   1.687  0.9611 -1.4712 -0.8064
  878MOL0     H18474   6.706   1.446   1.669 -0.8766  0.4374  0.0162
  878MOL0     H18475   6.581   1.508   1.449 -1.4301  0.1712 -0.0508
  878MOL0     H18476   6.519   1.346   1.448  3.7873 -2.2825  0.8310
  878MOL0     H18477   6.379   1.418   1.661 -2.4640  2.4040  1.6170
  878MOL0     H18478   6.462   1.573   1.654  0.9270 -0.1494 -1.1192
  878MOL0     H18479   6.315   1.477   1.408 -2.0448  0.4931 -0.0825
  878MOL0     H18480   6.343   1.646   1.466 -1.9958  0.0200 -0.4691
  878MOL0     H18481   6.228   1.604   1.764  0.3550 -0.2854  0.0159
  878MOL0     H18482   5.985   1.580   1.923 -0.4504  1.7135 -0.4126
  878MOL0     H18483   5.870   1.631   1.810 -0.1162 -0.2987  2.0705
  878MOL0     H18484   5.855   1.346   1.774 -1.1399  1.4541 -0.4637
  878MOL0     H18485   5.752   1.449   1.880  0.9781  5.0596 -1.9832
  878MOL0     H18486   5.837   1.244   2.004 -1.4097  1.3918 -1.7395
  878MOL0     H18487   5.902   1.399   2.059  0.3575  2.3736 -0.7856
  878MOL0     H18488   6.109   1.365   1.941 -0.1613  0.9111 -1.1508
  878MOL0     H18489   6.052   1.229   1.854  0.2277 -0.6557  0.5189
  878MOL0     H18490   6.169   1.082   2.266  1.9849  2.1256  3.2769
  878MOL0     H18491   6.455   0.940   2.366  0.6710  0.9207 -1.5473
  878MOL0     H18492   6.471   1.091   2.427 -2.1096 -0.7722  2.8887
  878MOL0     H18493   6.308   1.023   2.435  1.4995  1.6615  3.5774
  878MOL0     H18494   6.893   1.303   1.951 -2.6017 -0.8801  1.9918
  878MOL0     H18495   7.135   1.246   1.928  0.5288 -0.5956  0.9790
  878MOL0     H18496   7.257   0.828   2.105 -0.8634  0.9222  2.0886
  878MOL0     H18497   7.394   0.898   2.021 -0.6470  2.1278 -1.7724
  878MOL0     H18498   7.306   1.022   2.289  1.9926 -1.2417  1.8213
  878MOL0     H18499   7.423   0.895   2.265 -0.8381 -0.0914  0.5968
  878MOL0     H18500   7.414   1.188   2.211  1.7672  1.5727  2.4301
  878MOL0     H18501   7.499   1.096   2.080  1.3101  1.0406  1.4519
  878MOL0     H18502   7.655   1.197   2.267 -0.8295  0.5309 -2.3177
  878MOL0     H18503   7.546   1.110   2.384 -1.6562  0.8610 -0.0624
  878MOL0     H18504   7.713   1.000   2.155  1.7790 -0.4195  0.4383
  878MOL0     H18505   7.645   0.886   2.281  1.1620 -1.0056 -2.0479
  878MOL0     H18506   7.840   1.105   2.334  1.2994  0.0303 -0.2048
  878MOL0     H18507   7.766   0.991   2.455  2.3372 -0.7713  0.5657
  878MOL0     H18508   7.965   0.924   2.226  1.3114 -2.4280  0.1241
  878MOL0     H18509   7.880   0.800   2.291  2.9778 -0.3719 -1.5394
  878MOL0     H18510   8.052   0.976   2.453 -0.2270 -0.7234  1.1921
  878MOL0     H18511   8.099   0.815   2.388  2.6288  2.5882 -0.0306
  878MOL0     H18512   7.051   0.867   2.138  1.8484 -0.0561  0.1580
  878MOL0     H18513   6.813   0.949   2.150 -0.6153  0.3193 -0.4100
  878MOL0     H18514   6.511   1.226   1.953  1.2668 -1.7664  1.3079
  878MOL0     H18515   6.284   1.244   1.892 -2.9192  0.8618  1.3978
  878MOL0     H18516   7.381   1.055   1.348 -0.6923 -0.0282  0.6272
  878MOL0     H18517   7.603   0.936   1.382 -0.0106  1.1727 -1.1714
  878MOL0     H18518   7.587   0.400   1.501  2.0404 -4.8772 -0.5621
  878MOL0     H18519   7.761   0.250   1.515 -1.1957  0.3725 -0.3248
  878MOL0     H18520   8.069   0.102   1.651 -1.0704 -1.9832 -1.3707
  878MOL0     H18521   7.901   0.123   1.591  0.0758 -1.6760  0.1023
  878MOL0     H18522   8.148   0.200   1.437 -1.4501  1.7044  0.6184
  878MOL0     H18523   7.978   0.179   1.383 -1.0426 -1.2140  0.6458
  878MOL0     H18524   7.976  -0.065   1.418  0.6690 -1.0148 -3.1784
  878MOL0     H18525   8.145  -0.055   1.463  1.8854  2.0236 -0.3632
  878MOL0     H18526   8.182   0.072   1.233 -0.0055 -1.0369 -3.6735
  878MOL0     H18527   8.007   0.018   1.215  0.3894  1.0439  0.5706
  878MOL0     H18528   8.263  -0.297   1.083  0.5642  0.8407  0.2360
  878MOL0     H18529   8.050   0.523   1.665  0.1385  3.0391  0.2710
  878MOL0     H18530   7.882   0.700   1.645  3.0876  0.7127 -4.9409
  879MOL0     O18531   8.141  10.319   8.312  0.6763 -0.3384  0.3572
  879MOL0     C18532   8.082  10.317   8.416  1.2591 -0.0198 -1.3023
  879MOL0     O18533   8.122  10.253   8.528 -0.2567  0.2614  0.0312
  879MOL0     C18534   8.236  10.179   8.527  0.3255  0.1185  1.1794
  879MOL0     C18535   8.364  10.235   8.547 -0.6862  0.6647 -0.1700
  879MOL0     C18536   8.481  10.146   8.546 -0.6206 -0.9169 -0.0120
  879MOL0     C18537   8.469  10.010   8.530  0.9643 -0.1272  1.9246
  879MOL0     O18538   8.566   9.925   8.518 -1.2892  0.5790 -0.1871
  879MOL0     C18539   8.700   9.975   8.504 -0.2245  1.3162  0.6819
  879MOL0     C18540   8.804   9.862   8.495  0.7486 -0.1444  0.1032
  879MOL0     C18541   8.792   9.768   8.614 -0.0662 -0.6279  0.2271
  879MOL0     C18542   8.864   9.642   8.596  0.5415 -0.1813 -0.5374
  879MOL0     C18543   9.013   9.651   8.628 -0.4352  0.0994 -0.3626
  879MOL0     C18544   9.088   9.517   8.632  0.3293 -0.3802 -0.4343
  879MOL0     C18545   9.015   9.420   8.727 -0.2315 -0.2309 -0.3429
  879MOL0     C18546   9.096   9.300   8.782 -0.1722  0.5826  0.0088
  879MOL0     N18547   9.069   9.183   8.689 -0.1390 -0.2241 -0.4452
  879MOL0     C18548   9.090   9.197   8.557 -1.0133  0.7195  0.2668
  879MOL0     C18549   9.035   9.088   8.502  0.2904  0.9219  0.0682
  879MOL0     C18550   9.022   9.043   8.357  0.9268  1.1135  0.1397
  879MOL0     C18551   8.888   9.083   8.296  0.3610 -0.0531 -0.3689
  879MOL0     C18552   8.871   9.240   8.281 -0.4903 -0.6590  0.5661
  879MOL0     C18553   8.735   9.269   8.222 -0.0130 -0.2788 -0.3205
  879MOL0     O18554   8.702   9.404   8.260  0.1162 -0.4931  0.1970
  879MOL0     C18555   8.576   9.453   8.220 -0.3023  0.2721 -0.8772
  879MOL0     C18556   8.557   9.487   8.087  0.5086 -1.2495 -0.0437
  879MOL0     C18557   8.435   9.544   8.032 -0.1559 -0.0961 -0.7005
  879MOL0     C18558   8.436   9.585   7.880  0.5639 -0.2287 -1.1583
  879MOL0     C18559   8.333   9.567   8.131  0.1913 -0.3459 -0.0257
  879MOL0     C18560   8.199   9.618   8.096  1.0027 -0.3268  0.1465
  879MOL0     O18561   8.150   9.582   7.976 -0.6588  1.1814 -0.0432
  879MOL0     C18562   8.015   9.602   7.937  0.7545  0.1763  0.3992
  879MOL0     C18563   7.999   9.699   7.835 -0.4714  0.5484 -0.6373
  879MOL0     C18564   7.870   9.759   7.814  0.3342 -0.4407  0.5195
  879MOL0     C18565   7.759   9.706   7.875  0.9219  0.6890 -0.3269
  879MOL0     O18566   7.626   9.753   7.863  0.0013 -0.2255  0.3080
  879MOL0     C18567   7.591   9.806   7.737  0.8673 -0.1491 -0.2264
  879MOL0     C18568   7.449   9.877   7.740  0.5012  0.4306 -0.3989
  879MOL0     C18569   7.420   9.971   7.626  0.0543  1.1460  0.6495
  879MOL0     C18570   7.438   9.915   7.483 -0.4693  0.9387 -0.0052
  879MOL0     C18571   7.452  10.013   7.375 -0.6445  0.2291  0.9178
  879MOL0     C18572   7.384   9.957   7.253 -0.4276  0.2644 -0.0122
  879MOL0     C18573   7.421  10.045   7.133 -0.1391 -0.1127  0.0655
  879MOL0     C18574   7.400   9.968   7.004 -0.9143  0.0593 -0.4351
  879MOL0    Cl18575   7.413  10.080   6.859  0.1622  0.1730  0.1602
  879MOL0     C18576   7.774   9.598   7.972  0.5226  0.5568  0.1515
  879MOL0     C18577   7.907   9.545   8.000  0.6280 -0.3379 -0.6409
  879MOL0     O18578   8.143   9.698   8.173  0.4057 -0.3202 -0.4808
  879MOL0     C18579   8.362   9.534   8.267  0.3522  0.4993  0.5479
  879MOL0     C18580   8.477   9.481   8.317  0.3538  0.3702 -0.0223
  879MOL0     N18581   8.977   8.999   8.593  0.4120 -0.2873  0.2161
  879MOL0     N18582   8.991   9.066   8.707  0.4249 -0.5671  0.1777
  879MOL0     C18583   8.337   9.957   8.524 -0.1133  1.3373  0.9590
  879MOL0     C18584   8.219  10.042   8.519  0.0444  0.2791  0.3917
  879MOL0     C18585   7.948  10.381   8.431  0.3972  0.2402 -0.4996
  879MOL0     C18586   7.888  10.449   8.326  0.4691  0.2358  0.7214
  879MOL0     C18587   7.758  10.501   8.342 -0.1547  0.5741  0.4650
  879MOL0     C18588   7.691  10.487   8.465 -0.0152 -0.1973 -0.3145
  879MOL0     O18589   7.560  10.518   8.473 -0.2783  0.2665 -0.3299
  879MOL0     C18590   7.496  10.541   8.599  0.2671 -0.1130 -0.1647
  879MOL0     C18591   7.355  10.611   8.586 -0.5696 -1.5139  0.4898
  879MOL0     C18592   7.347  10.757   8.535  1.0032 -0.1182  0.2214
  879MOL0     C18593   7.197  10.813   8.514  0.1232  0.2391 -0.0669
  879MOL0     C18594   7.117  10.730   8.418  0.4044 -0.4827 -0.0565
  879MOL0     C18595   7.041  10.655   8.357 -0.9823 -0.7639 -0.2008
  879MOL0     C18596   7.768  10.440   8.571  0.3577 -0.4361  0.0668
  879MOL0     C18597   7.890  10.395   8.558 -1.3288  0.2304 -0.8075
  879MOL0     H18598   8.380  10.342   8.547 -0.6934  0.6885 -1.5684
  879MOL0     H18599   8.574  10.201   8.553 -1.3744  0.2758  0.8800
  879MOL0     H18600   8.699  10.039   8.415 -5.7393 -1.8649 -2.0898
  879MOL0     H18601   8.726  10.031   8.594  0.7955 -0.3456  1.4780
  879MOL0     H18602   8.780   9.800   8.409 -0.6538  1.5731 -0.8098
  879MOL0     H18603   8.898   9.917   8.483  0.6835  0.3018  1.4704
  879MOL0     H18604   8.832   9.817   8.704 -0.4225  0.9689 -0.4537
  879MOL0     H18605   8.688   9.747   8.640  0.0305 -2.1780 -0.5367
  879MOL0     H18606   8.820   9.572   8.668  2.5849 -0.0448  0.9241
  879MOL0     H18607   8.846   9.607   8.493 -1.8735  2.1550 -1.0159
  879MOL0     H18608   9.061   9.706   8.547  0.2667  1.7455  1.1078
  879MOL0     H18609   9.031   9.695   8.726  2.1716 -1.0662 -0.2124
  879MOL0     H18610   9.082   9.482   8.529  0.9074 -0.5871 -0.3988
  879MOL0     H18611   9.192   9.532   8.661  0.8861  0.8283 -2.7886
  879MOL0     H18612   8.972   9.471   8.814  1.1739  3.7189 -1.7567
  879MOL0     H18613   8.931   9.368   8.679  1.8864 -4.2232 -0.1885
  879MOL0     H18614   9.058   9.266   8.879 -0.3146 -1.4922 -0.7201
  879MOL0     H18615   9.204   9.316   8.786  0.2231 -1.5267 -0.7976
  879MOL0     H18616   9.138   9.280   8.507  1.2970 -0.7042 -0.0672
  879MOL0     H18617   9.113   9.074   8.305  3.0395 -1.7757  1.8443
  879MOL0     H18618   9.031   8.934   8.361  2.1694  1.0948 -1.6837
  879MOL0     H18619   8.811   9.045   8.363 -0.1309  0.1408 -0.8173
  879MOL0     H18620   8.877   9.033   8.200 -0.1904 -2.4712  0.8609
  879MOL0     H18621   8.954   9.281   8.223  1.0963 -3.6952  0.4805
  879MOL0     H18622   8.870   9.288   8.380 -0.7750  1.3286 -0.3552
  879MOL0     H18623   8.662   9.193   8.252  0.4005 -0.6616 -0.2716
  879MOL0     H18624   8.742   9.263   8.113 -3.9567 -0.4839 -0.6906
  879MOL0     H18625   8.635   9.460   8.016 -0.1676 -2.3553 -0.3977
  879MOL0     H18626   8.518   9.540   7.823 -0.8898 -0.4149 -3.1890
  879MOL0     H18627   8.344   9.551   7.833 -0.8590  1.4926  0.2442
  879MOL0     H18628   8.440   9.694   7.868 -0.4034 -0.1833 -1.1402
  879MOL0     H18629   8.089   9.750   7.801  0.0766 -0.0904 -0.1925
  879MOL0     H18630   7.860   9.843   7.746  0.3482 -1.0949 -0.3178
  879MOL0     H18631   7.658   9.886   7.705 -0.8722  1.9622  1.0365
  879MOL0     H18632   7.578   9.726   7.664 -2.1004  1.9479 -2.2535
  879MOL0     H18633   7.373   9.798   7.746 -0.7801  1.7010  0.8509
  879MOL0     H18634   7.433   9.939   7.829 -1.1722  0.5538 -0.7382
  879MOL0     H18635   7.479  10.063   7.639 -0.0607  1.4395 -0.7500
  879MOL0     H18636   7.314   9.995   7.636 -0.3856 -0.4617  0.1270
  879MOL0     H18637   7.528   9.852   7.488 -0.3192  1.2439  1.4392
  879MOL0     H18638   7.355   9.848   7.457 -0.0486 -0.0388  1.0476
  879MOL0     H18639   7.551  10.051   7.345 -2.8894  4.9123 -1.7940
  879MOL0     H18640   7.396  10.104   7.399 -3.2781 -1.2832  0.8198
  879MOL0     H18641   7.411   9.852   7.238 -1.1094 -0.3794  2.8391
  879MOL0     H18642   7.277   9.951   7.273  0.1243 -0.9923  3.0490
  879MOL0     H18643   7.521  10.087   7.138  0.3580 -0.9412 -2.0181
  879MOL0     H18644   7.361  10.136   7.129  2.0461  1.5809  2.5803
  879MOL0     H18645   7.298   9.927   7.005 -0.5971 -0.7400  0.4102
  879MOL0     H18646   7.482   9.896   6.998 -0.1159  0.8831  0.2936
  879MOL0     H18647   7.680   9.566   8.016  1.7792 -1.8199  1.3055
  879MOL0     H18648   7.914   9.471   8.079 -3.4447 -2.0733 -1.6326
  879MOL0     H18649   8.291   9.556   8.346 -0.8391 -0.2542 -0.2740
  879MOL0     H18650   8.493   9.464   8.423  0.4857  1.2206  0.0968
  879MOL0     H18651   8.330   9.850   8.503 -2.6252  1.3566  1.3494
  879MOL0     H18652   8.122  10.007   8.486 -0.5420  1.6392  0.6408
  879MOL0     H18653   7.933  10.456   8.227  0.2736  3.4212  0.7572
  879MOL0     H18654   7.699  10.536   8.257  0.9514 -1.6646 -1.3406
  879MOL0     H18655   7.480  10.453   8.663 -2.7158 -0.3515 -1.0543
  879MOL0     H18656   7.562  10.602   8.660  1.1851 -3.4529  2.5057
  879MOL0     H18657   7.320  10.619   8.690  0.8949 -0.6305  0.9505
  879MOL0     H18658   7.284  10.548   8.531 -1.9022 -0.4696  0.9520
  879MOL0     H18659   7.381  10.762   8.431 -1.6844 -0.2266 -0.7602
  879MOL0     H18660   7.398  10.828   8.600  0.5259  0.5528 -0.1238
  879MOL0     H18661   7.205  10.917   8.483  1.4325  0.3436  0.5498
  879MOL0     H18662   7.135  10.803   8.603 -2.4526 -1.1173 -1.8843
  879MOL0     H18663   6.966  10.591   8.317 -1.9070  0.0937  0.1237
  879MOL0     H18664   7.727  10.442   8.672 -1.0909 -2.9353 -0.3951
  879MOL0     H18665   7.935  10.367   8.653 -0.2743 -1.2746 -1.7015
  880MOL0     O18666   2.369   0.947  10.660 -0.5359 -0.6985  0.5853
  880MOL0     C18667   2.381   1.061  10.618 -0.2860 -0.3196  0.1130
  880MOL0     O18668   2.277   1.152  10.581  0.0948  0.6668  0.3979
  880MOL0     C18669   2.139   1.115  10.608 -1.2770  0.0964 -0.0256
  880MOL0     C18670   2.042   1.213  10.581 -0.4780  0.8127 -0.0195
  880MOL0     C18671   1.902   1.194  10.611 -0.4034  0.1601 -0.3611
  880MOL0     C18672   1.853   1.070  10.670 -0.1356 -0.6263  0.2202
  880MOL0     O18673   1.715   1.058  10.687  0.0824 -1.4045  0.0293
  880MOL0     C18674   1.675   1.045  10.824 -0.4888 -0.4645 -0.2811
  880MOL0     C18675   1.635   1.189  10.866 -0.5842 -0.3667 -0.3679
  880MOL0     C18676   1.554   1.208  10.984  0.0756 -0.4868  0.1102
  880MOL0     C18677   1.532   1.361  11.015  0.2055 -0.3195 -0.7635
  880MOL0     C18678   1.437   1.365  11.132  0.0233  0.0954  0.5536
  880MOL0     C18679   1.423   1.517  11.165 -0.9758 -0.3727  0.2662
  880MOL0     C18680   1.274   1.560  11.217 -0.8164 -0.0258  0.4469
  880MOL0     C18681   1.263   1.525  11.362 -0.9050 -0.0804 -0.1772
  880MOL0     N18682   1.132   1.551  11.405 -0.1629  0.3922  0.0977
  880MOL0     C18683   1.092   1.672  11.459  0.2552 -0.1469  0.3417
  880MOL0     C18684   0.964   1.652  11.494 -0.6796 -0.2013 -0.0732
  880MOL0     C18685   0.875   1.748  11.561  0.2108 -0.2060  0.2450
  880MOL0     C18686   0.735   1.710  11.555 -0.0748  0.1437 -0.0577
  880MOL0     C18687   0.645   1.776  11.658  0.2096  0.0625 -0.0943
  880MOL0     C18688   0.500   1.745  11.623 -0.4227  0.0358 -0.7247
  880MOL0     O18689   0.401   1.771  11.721  0.7785  0.1520 -0.0504
  880MOL0     C18690   0.267   1.750  11.691  0.3972  0.9436 -0.2388
  880MOL0     C18691   0.209   1.731  11.566 -0.1131  1.4624  0.4039
  880MOL0     C18692   0.067   1.722  11.553 -0.8395  0.1048  0.1630
  880MOL0     C18693   0.011   1.711  11.423  0.3025 -0.2986  0.3250
  880MOL0     C18694  -0.015   1.721  11.663 -0.1965  0.6115 -0.3461
  880MOL0     C18695  -0.165   1.705  11.661 -0.1449  0.2233  0.7404
  880MOL0     O18696  -0.212   1.581  11.684  0.6506 -0.0596  0.0684
  880MOL0     C18697  -0.349   1.555  11.683  1.0971  0.5839  0.5917
  880MOL0     C18698  -0.429   1.632  11.585  0.1814  0.2201 -0.4951
  880MOL0     C18699  -0.571   1.611  11.577  0.0262  0.1721 -0.2863
  880MOL0     C18700  -0.623   1.514  11.658  0.4713  0.2557 -0.6777
  880MOL0     O18701  -0.754   1.497  11.654  0.6068 -0.6642  0.2746
  880MOL0     C18702  -0.815   1.582  11.755  0.3665 -0.5018  0.0437
  880MOL0     C18703  -0.971   1.598  11.734  0.5682 -0.5120  0.6280
  880MOL0     C18704  -1.005   1.665  11.596  0.4053 -0.0129 -1.1398
  880MOL0     C18705  -0.959   1.807  11.597  0.6291 -0.1960  0.1005
  880MOL0     C18706  -1.002   1.885  11.472  0.3015  0.0686 -0.2287
  880MOL0     C18707  -0.948   1.834  11.344 -1.3279  0.4147 -1.0929
  880MOL0     C18708  -0.927   1.927  11.229 -0.5623  0.6662  0.5255
  880MOL0     C18709  -1.058   1.988  11.180  0.0071 -0.1198  0.2591
  880MOL0    Cl18710  -1.037   2.099  11.042  0.3130 -0.5621  0.1061
  880MOL0     C18711  -0.545   1.433  11.745  0.0997 -0.1173 -0.6012
  880MOL0     C18712  -0.407   1.459  11.756 -0.1762 -0.3959  0.0452
  880MOL0     O18713  -0.222   1.812  11.650  0.1698 -0.0044  0.1921
  880MOL0     C18714   0.048   1.739  11.784  0.0240 -0.4493 -0.8418
  880MOL0     C18715   0.186   1.753  11.805  0.6037 -0.4095  0.4236
  880MOL0     N18716   0.941   1.513  11.469 -0.1235  0.2522  0.1676
  880MOL0     N18717   1.046   1.454  11.415 -0.0475  0.8242  0.2594
  880MOL0     C18718   1.950   0.969  10.679  0.6335 -0.6935  0.7202
  880MOL0     C18719   2.087   0.990  10.657  0.0483 -1.8652  0.2845
  880MOL0     C18720   2.520   1.105  10.589 -0.1265 -0.9694 -0.3508
  880MOL0     C18721   2.624   1.012  10.614 -0.2742  0.2043  1.5582
  880MOL0     C18722   2.750   1.051  10.598  0.0675  0.2479  1.0233
  880MOL0     C18723   2.776   1.181  10.557  0.6744 -0.1118 -1.1315
  880MOL0     O18724   2.904   1.231  10.539  0.0330 -0.8366  0.3169
  880MOL0     C18725   3.004   1.138  10.497  0.2814 -0.4941 -0.2377
  880MOL0     C18726   2.977   1.055  10.365 -0.7123 -0.5888 -0.2318
  880MOL0     C18727   3.085   0.942  10.346  0.3276  0.1612 -0.1233
  880MOL0     C18728   3.218   0.989  10.285 -0.0964 -0.2706  0.1679
  880MOL0     C18729   3.264   0.877  10.188  1.1019  0.4368 -0.8259
  880MOL0     C18730   3.286   0.786  10.110  0.2065  0.5306  0.4194
  880MOL0     C18731   2.679   1.268  10.521 -0.2439  0.0259 -0.1888
  880MOL0     C18732   2.544   1.233  10.537 -0.3516  0.4029  0.2888
  880MOL0     H18733   2.076   1.306  10.537  2.6520 -0.9848 -1.7512
  880MOL0     H18734   1.819   1.262  10.596 -2.9141 -2.3627  1.2847
  880MOL0     H18735   1.586   0.982  10.837  1.1132 -2.9428 -0.7784
  880MOL0     H18736   1.747   0.998  10.891 -0.5539 -1.6678 -1.0147
  880MOL0     H18737   1.733   1.230  10.891 -0.7567  0.4026 -0.9375
  880MOL0     H18738   1.588   1.239  10.781 -1.5045 -1.9877 -0.8736
  880MOL0     H18739   1.462   1.155  10.957 -1.3036  2.0455 -0.4240
  880MOL0     H18740   1.587   1.152  11.072  3.1601  1.9005  0.6495
  880MOL0     H18741   1.625   1.416  11.029  0.8202 -1.8789  2.0185
  880MOL0     H18742   1.481   1.405  10.929  3.0345  2.5688 -1.1709
  880MOL0     H18743   1.336   1.329  11.109  0.4856 -1.3146  0.6363
  880MOL0     H18744   1.477   1.312  11.219 -2.6421 -3.9622 -0.3742
  880MOL0     H18745   1.504   1.537  11.237  0.4574  1.2192 -1.6494
  880MOL0     H18746   1.441   1.574  11.073 -1.1042  0.0443  0.4990
  880MOL0     H18747   1.259   1.667  11.204  1.8482  0.3423 -0.0435
  880MOL0     H18748   1.192   1.521  11.156  0.8220  1.9827 -3.3390
  880MOL0     H18749   1.340   1.573  11.424  0.9041 -2.3803 -0.4929
  880MOL0     H18750   1.278   1.417  11.370  1.2259  0.1520 -0.2896
  880MOL0     H18751   1.144   1.768  11.455 -0.9894  0.5111 -1.2532
  880MOL0     H18752   0.906   1.752  11.666 -2.6211  2.9885  1.1399
  880MOL0     H18753   0.893   1.852  11.532 -0.7272  0.3814  1.6442
  880MOL0     H18754   0.721   1.603  11.566 -1.6326  0.2536 -0.7629
  880MOL0     H18755   0.700   1.735  11.454  1.0702 -1.7118 -0.9747
  880MOL0     H18756   0.647   1.884  11.674  0.3278 -0.3378  3.4728
  880MOL0     H18757   0.673   1.737  11.756 -0.3678 -0.3003 -0.0645
  880MOL0     H18758   0.495   1.640  11.593  1.2914 -0.1870 -0.3331
  880MOL0     H18759   0.473   1.810  11.539 -0.9778  1.1571  0.2997
  880MOL0     H18760   0.268   1.722  11.475 -2.4577 -0.3849 -1.0546
  880MOL0     H18761   0.071   1.662  11.346 -0.3103 -1.3938  0.5216
  880MOL0     H18762  -0.075   1.645  11.430  1.0557 -1.3564 -0.0695
  880MOL0     H18763  -0.029   1.805  11.385  2.2059  0.6484  0.5104
  880MOL0     H18764  -0.381   1.711  11.527  0.2938  0.9440  0.5502
  880MOL0     H18765  -0.629   1.663  11.502  1.0031  2.1915  0.2689
  880MOL0     H18766  -0.789   1.548  11.856 -0.5046 -2.4502 -0.3303
  880MOL0     H18767  -0.776   1.684  11.754 -0.4484 -0.1193  2.0857
  880MOL0     H18768  -1.024   1.503  11.750 -0.2333 -0.0597  0.7243
  880MOL0     H18769  -1.002   1.660  11.819 -0.8976  2.5833 -1.9443
  880MOL0     H18770  -1.114   1.670  11.595  0.4002  1.3188  0.7811
  880MOL0     H18771  -0.957   1.604  11.518  2.2846 -1.0207  0.6841
  880MOL0     H18772  -0.993   1.850  11.691  0.8348  2.6167 -1.0315
  880MOL0     H18773  -0.850   1.814  11.594  0.7266 -1.5415 -1.6426
  880MOL0     H18774  -0.945   1.976  11.491 -0.2446  0.3637  0.0186
  880MOL0     H18775  -1.111   1.892  11.465  0.3416 -0.0752 -1.2269
  880MOL0     H18776  -0.852   1.791  11.373 -1.9045 -0.7457 -0.8289
  880MOL0     H18777  -0.988   1.738  11.309 -0.5285  0.1753 -1.3680
  880MOL0     H18778  -0.888   1.876  11.140 -1.5061 -2.6608  1.8338
  880MOL0     H18779  -0.858   2.006  11.258  0.1187  0.2771  0.0036
  880MOL0     H18780  -1.102   2.042  11.264  1.5066  0.0939  0.9537
  880MOL0     H18781  -1.119   1.906  11.140  0.4816  0.3885 -1.6187
  880MOL0     H18782  -0.588   1.349  11.798  1.3074  0.0434  0.6950
  880MOL0     H18783  -0.344   1.399  11.821 -2.3171 -2.1161  0.6435
  880MOL0     H18784  -0.013   1.730  11.873  2.8040  0.5529  1.3436
  880MOL0     H18785   0.226   1.782  11.901 -0.7942 -0.3423  1.0181
  880MOL0     H18786   1.913   0.871  10.709 -0.7728 -0.3453  0.1898
  880MOL0     H18787   2.154   0.905  10.671 -1.0685 -2.9409 -0.6310
  880MOL0     H18788   2.601   0.910  10.641 -0.2521 -1.0191 -2.3582
  880MOL0     H18789   2.832   0.980  10.604 -0.5662 -1.0084 -2.4919
  880MOL0     H18790   3.098   1.193  10.490 -0.4026  0.8543  0.7429
  880MOL0     H18791   3.020   1.072  10.583  3.6306  0.7402  0.2094
  880MOL0     H18792   2.962   1.116  10.276 -2.0221 -1.6660 -0.7735
  880MOL0     H18793   2.879   1.008  10.370 -2.0949  1.9624 -1.4888
  880MOL0     H18794   3.048   0.865  10.277 -1.8387 -0.1060  1.2523
  880MOL0     H18795   3.104   0.899  10.445 -0.0926  2.3329  0.9450
  880MOL0     H18796   3.292   1.005  10.365  0.3423 -3.1303  0.4407
  880MOL0     H18797   3.208   1.085  10.233  0.8288  0.3672  1.1108
  880MOL0     H18798   3.297   0.695  10.056 -4.7072 -1.2531  1.9116
  880MOL0     H18799   2.692   1.371  10.490 -2.3306  0.1165 -0.9177
  880MOL0     H18800   2.458   1.294  10.512 -1.3453 -0.6626  0.9924
  881MOL0     O18801   6.100   6.577  11.150 -0.2701 -0.4170 -0.1030
  881MOL0     C18802   6.088   6.694  11.100 -0.3427  0.5500  0.4408
  881MOL0     O18803   5.976   6.759  11.052 -0.2660  0.6200  0.2994
  881MOL0     C18804   5.858   6.690  11.039  0.1848 -0.6061  0.2919
  881MOL0     C18805   5.833   6.570  10.984 -0.1782  0.4534  0.4087
  881MOL0     C18806   5.715   6.506  10.969  0.3798 -0.2584 -0.7274
  881MOL0     C18807   5.591   6.569  10.995  0.5555 -0.5795  0.1919
  881MOL0     O18808   5.470   6.494  10.982  0.6942  0.1514  0.0171
  881MOL0     C18809   5.342   6.568  10.983 -0.5779 -0.7832 -0.5191
  881MOL0     C18810   5.298   6.595  10.840 -0.1917  0.7654 -0.2403
  881MOL0     C18811   5.159   6.650  10.841 -0.0085  0.7572  1.2271
  881MOL0     C18812   5.104   6.689  10.701 -0.0644 -0.5018 -0.1483
  881MOL0     C18813   4.958   6.713  10.721 -0.0365 -0.2610  0.0711
  881MOL0     C18814   4.880   6.688  10.590  0.2994  0.8914  0.2434
  881MOL0     C18815   4.733   6.715  10.616  0.0610 -0.1428 -0.6146
  881MOL0     C18816   4.636   6.713  10.493  0.1520  0.0140  0.1504
  881MOL0     N18817   4.495   6.760  10.516  0.4975  0.3332 -0.7430
  881MOL0     C18818   4.386   6.684  10.526  0.9922 -0.1960  0.6639
  881MOL0     C18819   4.282   6.772  10.560 -0.4762 -0.1903  0.2026
  881MOL0     C18820   4.136   6.754  10.566  0.4498  0.5367 -0.1587
  881MOL0     C18821   4.053   6.820  10.446  0.4954  1.4257 -0.5318
  881MOL0     C18822   4.024   6.968  10.474  0.1186 -0.6816  0.0016
  881MOL0     C18823   3.902   6.996  10.562  0.1463  0.1006 -0.5235
  881MOL0     O18824   3.787   6.966  10.483 -0.5696  0.0929 -0.0172
  881MOL0     C18825   3.704   6.872  10.521  0.0449  0.1864  0.1032
  881MOL0     C18826   3.627   6.885  10.642  0.2139 -0.2069  0.1873
  881MOL0     C18827   3.521   6.798  10.670  1.2985  0.9920 -0.4128
  881MOL0     C18828   3.433   6.821  10.792 -0.2179  0.2848 -0.5998
  881MOL0     C18829   3.492   6.683  10.589 -0.9075 -0.7686 -0.6051
  881MOL0     C18830   3.385   6.591  10.626  0.1149  0.5652 -0.2300
  881MOL0     O18831   3.379   6.540  10.756 -0.5149 -0.4190 -0.6590
  881MOL0     C18832   3.279   6.453  10.785 -0.0014  0.7818  0.2398
  881MOL0     C18833   3.169   6.495  10.856  0.1253  0.6936  1.1033
  881MOL0     C18834   3.068   6.400  10.882 -0.1693 -0.4638  0.7674
  881MOL0     C18835   3.077   6.265  10.838 -0.5384 -0.5531 -0.6199
  881MOL0     O18836   2.978   6.186  10.872  0.1651  0.3303 -0.3015
  881MOL0     C18837   3.013   6.053  10.892  0.1179 -0.2386 -0.0643
  881MOL0     C18838   2.944   6.008  11.023  0.8743  0.0200 -0.4335
  881MOL0     C18839   2.785   6.017  11.029  0.7616 -0.1144  0.1573
  881MOL0     C18840   2.738   5.971  11.165  0.6236 -0.5148  0.1574
  881MOL0     C18841   2.584   5.956  11.189  0.8651 -0.1245  0.7667
  881MOL0     C18842   2.528   5.920  11.328  0.2482 -1.1003 -0.0142
  881MOL0     C18843   2.578   5.790  11.380  0.2996 -0.0801 -0.3867
  881MOL0     C18844   2.556   5.778  11.541 -0.2948 -0.4981 -0.2769
  881MOL0    Cl18845   2.377   5.799  11.562  0.4797 -0.1451 -0.1453
  881MOL0     C18846   3.183   6.225  10.762  0.2787 -0.0922  0.6565
  881MOL0     C18847   3.296   6.316  10.738  0.8816 -1.2537 -0.3818
  881MOL0     O18848   3.314   6.560  10.533  0.0783 -0.6148  0.1408
  881MOL0     C18849   3.566   6.677  10.467  0.3414  0.5004 -1.1086
  881MOL0     C18850   3.667   6.766  10.437 -0.1209  0.2386  0.1078
  881MOL0     N18851   4.341   6.896  10.579 -1.0964  0.4389 -0.4601
  881MOL0     N18852   4.471   6.887  10.566  0.6066 -0.1357 -0.2837
  881MOL0     C18853   5.607   6.695  11.049 -0.0618 -0.5373 -0.2613
  881MOL0     C18854   5.738   6.754  11.065  0.4248  0.2049  0.9785
  881MOL0     C18855   6.208   6.774  11.087  0.0388  0.0661  0.3833
  881MOL0     C18856   6.214   6.878  10.988 -0.8791  0.0770  0.0820
  881MOL0     C18857   6.331   6.957  10.979 -0.1911  0.7983  0.0550
  881MOL0     C18858   6.437   6.936  11.061 -0.5497 -0.5145 -1.0509
  881MOL0     O18859   6.555   7.005  11.039  0.0556  0.2340 -0.2687
  881MOL0     C18860   6.641   7.037  11.151  0.6017 -0.0690  0.9693
  881MOL0     C18861   6.764   6.944  11.148 -0.1076 -0.1965 -1.6812
  881MOL0     C18862   6.843   6.960  11.283  0.5060 -0.0026 -0.9063
  881MOL0     C18863   6.950   6.848  11.313 -0.1242 -0.9697  0.5340
  881MOL0     C18864   6.891   6.713  11.297 -0.1277 -0.6296  0.0023
  881MOL0     C18865   6.839   6.600  11.293 -0.4888  0.1537 -0.5775
  881MOL0     C18866   6.436   6.830  11.155  0.6217  0.9754  0.2175
  881MOL0     C18867   6.318   6.753  11.173  0.8957 -0.1107  0.4327
  881MOL0     H18868   5.921   6.507  10.973 -1.1890 -0.6630 -2.3288
  881MOL0     H18869   5.708   6.399  10.951  2.2627 -1.0886  2.6971
  881MOL0     H18870   5.270   6.508  11.039 -0.5384 -1.1468 -0.8588
  881MOL0     H18871   5.342   6.663  11.038 -0.4075 -0.4032 -1.1664
  881MOL0     H18872   5.373   6.661  10.795  1.5402 -2.9543 -3.4201
  881MOL0     H18873   5.297   6.504  10.778 -2.9819 -0.3397  1.2671
  881MOL0     H18874   5.103   6.573  10.895  1.0492 -0.2387  0.9271
  881MOL0     H18875   5.155   6.744  10.898  1.2552  3.3375 -2.5834
  881MOL0     H18876   5.162   6.764  10.647 -2.1928  0.0444 -1.8166
  881MOL0     H18877   5.112   6.602  10.635  1.0544 -0.9998  0.6240
  881MOL0     H18878   4.917   6.669  10.812 -1.1200  0.1776 -0.1835
  881MOL0     H18879   4.948   6.822  10.730 -0.8420 -0.4506  1.8267
  881MOL0     H18880   4.901   6.760  10.510  0.3045  2.2965  1.4814
  881MOL0     H18881   4.895   6.585  10.556 -3.5244  0.4873 -0.6627
  881MOL0     H18882   4.706   6.643  10.694 -1.8442  1.8928  0.7246
  881MOL0     H18883   4.724   6.816  10.656 -1.1489 -0.7534  0.7085
  881MOL0     H18884   4.638   6.616  10.441 -0.4646 -0.0046  0.1607
  881MOL0     H18885   4.678   6.785  10.422  1.6263 -0.6519  0.3006
  881MOL0     H18886   4.359   6.583  10.498 -0.9820  0.4323  0.0938
  881MOL0     H18887   4.093   6.653  10.563 -1.2991  1.2432 -3.6328
  881MOL0     H18888   4.101   6.805  10.657 -0.2243  0.3014 -0.2864
  881MOL0     H18889   3.967   6.760  10.415 -1.2573  2.6254  1.6723
  881MOL0     H18890   4.131   6.814  10.370  1.8815 -2.1771  0.9873
  881MOL0     H18891   4.025   7.013  10.374  1.2548 -2.5438 -0.8801
  881MOL0     H18892   4.115   7.004  10.524 -0.9897  1.2192  0.7262
  881MOL0     H18893   3.901   7.103  10.580  1.8310 -0.0793  0.9721
  881MOL0     H18894   3.907   6.937  10.654 -1.4973 -2.6520 -2.0692
  881MOL0     H18895   3.630   6.976  10.700 -1.6797  0.5764 -0.8831
  881MOL0     H18896   3.420   6.929  10.803  1.6025  0.8297 -2.9091
  881MOL0     H18897   3.331   6.782  10.788 -0.3850  0.1962  2.2521
  881MOL0     H18898   3.483   6.779  10.880  0.2891  2.0387 -0.0199
  881MOL0     H18899   3.170   6.600  10.886  0.9170  0.8248  0.6314
  881MOL0     H18900   2.990   6.436  10.948  2.0708 -1.5771  4.2685
  881MOL0     H18901   2.972   5.990  10.812 -0.4535 -0.3676  0.3201
  881MOL0     H18902   3.117   6.034  10.919 -0.6956 -1.8078  2.2787
  881MOL0     H18903   2.956   5.901  11.038 -3.1788 -0.3614  1.3978
  881MOL0     H18904   2.982   6.062  11.110  2.2186  0.2598 -1.1414
  881MOL0     H18905   2.739   5.972  10.941  2.8150 -2.0667 -0.0166
  881MOL0     H18906   2.753   6.121  11.019  1.5695  0.0064 -1.3847
  881MOL0     H18907   2.783   5.874  11.190 -0.4491 -0.7371  1.3387
  881MOL0     H18908   2.785   6.041  11.234  2.8831 -1.6967 -0.0769
  881MOL0     H18909   2.557   5.880  11.115  2.3475 -1.2723  1.3642
  881MOL0     H18910   2.543   6.056  11.172  0.5964  0.0577  2.3721
  881MOL0     H18911   2.560   5.990  11.405 -0.1511 -1.9511  0.9363
  881MOL0     H18912   2.419   5.925  11.328  0.2704  0.0434  1.4367
  881MOL0     H18913   2.686   5.789  11.367  0.6776 -0.7197  2.1390
  881MOL0     H18914   2.530   5.716  11.315 -0.6759 -0.1518  0.3773
  881MOL0     H18915   2.609   5.851  11.603 -0.2483  0.2829 -1.2183
  881MOL0     H18916   2.578   5.676  11.575  0.1956  0.5333  2.9110
  881MOL0     H18917   3.184   6.129  10.711 -0.9647  0.6035 -0.7789
  881MOL0     H18918   3.391   6.283  10.697  0.4962 -0.9647 -1.5659
  881MOL0     H18919   3.558   6.594  10.398  1.6101 -0.2416 -0.4014
  881MOL0     H18920   3.708   6.751  10.337 -0.4025  3.8810 -0.7067
  881MOL0     H18921   5.530   6.766  11.078  1.4400  1.1564 -0.2760
  881MOL0     H18922   5.750   6.851  11.111 -0.9638  1.1655 -0.5771
  881MOL0     H18923   6.130   6.896  10.921 -0.0199  0.9578 -0.7848
  881MOL0     H18924   6.337   7.029  10.898  0.1884  0.1377 -0.5189
  881MOL0     H18925   6.677   7.140  11.155  0.9203 -0.1841  1.0792
  881MOL0     H18926   6.583   7.021  11.242  1.5574 -1.8565  1.3141
  881MOL0     H18927   6.827   6.963  11.060 -0.8330  0.4821 -2.0699
  881MOL0     H18928   6.725   6.842  11.148  1.7053 -1.0844  2.1210
  881MOL0     H18929   6.769   6.948  11.363 -1.6311 -1.8254 -3.0309
  881MOL0     H18930   6.884   7.060  11.301  0.2368 -0.0408 -0.0458
  881MOL0     H18931   6.984   6.861  11.416  0.3739 -2.1088  0.5355
  881MOL0     H18932   7.038   6.873  11.253 -1.4282  1.6879 -0.4158
  881MOL0     H18933   6.802   6.500  11.288  0.6014 -0.4781  2.1026
  881MOL0     H18934   6.521   6.800  11.216  0.5581 -1.0863 -0.6192
  881MOL0     H18935   6.309   6.674  11.247  2.1598  0.5371  1.3000
  882MOL0     O18936   8.141   8.147   5.671  0.0717 -0.0888 -0.1166
  882MOL0     C18937   8.206   8.093   5.579 -0.6954  0.1906 -0.6548
  882MOL0     O18938   8.160   8.063   5.455 -0.4573  0.0490 -0.6450
  882MOL0     C18939   8.024   8.063   5.427 -0.3318 -0.2942  0.1949
  882MOL0     C18940   7.951   7.952   5.450  0.7462 -0.3934 -0.1398
  882MOL0     C18941   7.809   7.962   5.425 -0.2039  0.0954  1.0934
  882MOL0     C18942   7.751   8.076   5.363 -0.5040 -0.1983 -0.2100
  882MOL0     O18943   7.614   8.080   5.332 -0.4909  0.6707 -0.5277
  882MOL0     C18944   7.537   8.190   5.375  0.0132  0.5981 -0.2446
  882MOL0     C18945   7.519   8.192   5.526  0.1594  0.8179 -0.9661
  882MOL0     C18946   7.398   8.274   5.579 -0.0536  0.1739  0.0611
  882MOL0     C18947   7.372   8.244   5.727  0.9328  0.2891 -0.3392
  882MOL0     C18948   7.230   8.309   5.771 -0.6809 -0.4357  0.4488
  882MOL0     C18949   7.185   8.270   5.910  0.0936  0.2348 -0.1830
  882MOL0     C18950   7.078   8.360   5.977 -0.1260 -0.0033  1.1831
  882MOL0     C18951   7.054   8.320   6.129  0.6912 -0.6558  0.5928
  882MOL0     N18952   6.926   8.371   6.181  0.0436  0.5955 -0.4712
  882MOL0     C18953   6.880   8.504   6.193 -0.2576  0.2015 -0.6367
  882MOL0     C18954   6.752   8.491   6.240  0.3114 -0.0503 -0.2990
  882MOL0     C18955   6.654   8.603   6.258 -0.5359  0.3971  1.3957
  882MOL0     C18956   6.609   8.660   6.116 -0.1220 -0.4060  0.3812
  882MOL0     C18957   6.497   8.582   6.063  0.2331  0.3144  0.2022
  882MOL0     C18958   6.448   8.615   5.920  0.4026  1.0483 -0.8752
  882MOL0     O18959   6.349   8.517   5.883  0.1274  0.8230 -0.0976
  882MOL0     C18960   6.353   8.428   5.778  0.2561  0.7412  0.0442
  882MOL0     C18961   6.416   8.444   5.652  0.7335 -0.1006  0.8045
  882MOL0     C18962   6.410   8.343   5.553 -0.2253 -0.3269  1.0756
  882MOL0     C18963   6.498   8.374   5.434  0.2335 -1.0668 -0.2769
  882MOL0     C18964   6.334   8.226   5.578 -0.5229 -0.2017  0.3134
  882MOL0     C18965   6.333   8.113   5.474  0.0710 -0.1538 -1.9729
  882MOL0     O18966   6.282   7.992   5.521  0.1252  0.2136 -0.3332
  882MOL0     C18967   6.220   7.905   5.438  0.3009  0.6748 -0.2459
  882MOL0     C18968   6.099   7.844   5.497  0.3900 -0.8263  0.2566
  882MOL0     C18969   6.019   7.751   5.427  0.3970  0.8951 -0.0546
  882MOL0     C18970   6.054   7.708   5.299 -0.1632 -0.4014 -0.4724
  882MOL0     O18971   5.980   7.619   5.227  0.0381 -0.2272  0.0996
  882MOL0     C18972   5.859   7.678   5.181  0.0216 -0.3701  0.6872
  882MOL0     C18973   5.780   7.578   5.088  0.6174 -0.0636  0.3740
  882MOL0     C18974   5.745   7.449   5.174  0.2580 -0.6372 -0.5037
  882MOL0     C18975   5.600   7.446   5.223 -0.0269  0.3898  1.1578
  882MOL0     C18976   5.552   7.301   5.222  0.3302  0.1030 -0.0829
  882MOL0     C18977   5.409   7.300   5.291 -0.3771  0.7333  0.4140
  882MOL0     C18978   5.312   7.392   5.211  0.1916 -0.6355 -0.3401
  882MOL0     C18979   5.167   7.357   5.220  0.3931  0.6395  0.1494
  882MOL0    Cl18980   5.069   7.473   5.137  0.3152 -0.2699  0.1535
  882MOL0     C18981   6.167   7.762   5.237 -0.2485  0.1869  0.7478
  882MOL0     C18982   6.258   7.860   5.307 -0.4190  0.7791  0.8917
  882MOL0     O18983   6.377   8.131   5.365  0.6528  0.9827 -0.2619
  882MOL0     C18984   6.266   8.219   5.697  0.5043 -0.6152 -0.4610
  882MOL0     C18985   6.273   8.322   5.794  0.3658 -0.1400 -0.2189
  882MOL0     N18986   6.727   8.356   6.257 -0.0543 -0.2982  0.1183
  882MOL0     N18987   6.828   8.289   6.220  0.0866 -0.5368  0.0234
  882MOL0     C18988   7.836   8.184   5.342  0.7778  0.8119 -0.2737
  882MOL0     C18989   7.970   8.178   5.363 -0.2281  0.3421 -0.2297
  882MOL0     C18990   8.349   8.084   5.601 -0.4756  0.0249  0.0229
  882MOL0     C18991   8.420   7.998   5.520 -0.7445  0.4653 -0.7454
  882MOL0     C18992   8.559   7.998   5.538 -0.1447 -0.3637 -0.2748
  882MOL0     C18993   8.631   8.075   5.629  0.1162 -0.5055  0.9119
  882MOL0     O18994   8.764   8.063   5.612  0.4884  0.2831 -0.6119
  882MOL0     C18995   8.846   8.117   5.718 -1.1192 -0.5490  0.5904
  882MOL0     C18996   8.983   8.051   5.724  0.0994 -0.2015 -0.7309
  882MOL0     C18997   9.015   7.982   5.593  0.0031  0.1152 -0.8141
  882MOL0     C18998   9.161   7.960   5.574 -0.2924  0.3077  0.1079
  882MOL0     C18999   9.222   7.875   5.677  1.4467  0.3145 -0.3455
  882MOL0     C19000   9.277   7.812   5.771  0.4463 -1.0907 -0.4134
  882MOL0     C19001   8.554   8.152   5.715  0.1744  0.4938 -0.1333
  882MOL0     C19002   8.413   8.153   5.705  0.4986  0.3160  0.5852
  882MOL0     H19003   7.998   7.859   5.483  0.3316 -1.1788 -1.6871
  882MOL0     H19004   7.744   7.881   5.460  0.5609  0.5008  3.6473
  882MOL0     H19005   7.573   8.281   5.327  1.6168  0.6201  0.9399
  882MOL0     H19006   7.438   8.166   5.335 -0.0961  1.7850 -0.7558
  882MOL0     H19007   7.510   8.089   5.564  0.5713  0.0033 -2.9313
  882MOL0     H19008   7.618   8.216   5.564  0.2923 -2.6734  1.4226
  882MOL0     H19009   7.406   8.382   5.560 -2.6099  0.3275 -0.5478
  882MOL0     H19010   7.305   8.252   5.525 -1.8480  2.7745  1.8324
  882MOL0     H19011   7.375   8.136   5.746  2.4202 -0.1750 -2.7444
  882MOL0     H19012   7.450   8.296   5.785 -0.1127  2.4695 -0.7831
  882MOL0     H19013   7.245   8.417   5.768 -2.2560 -0.2070 -0.6880
  882MOL0     H19014   7.163   8.269   5.694  1.5330 -3.4179 -0.0913
  882MOL0     H19015   7.144   8.169   5.918 -0.5426  0.6289  2.6214
  882MOL0     H19016   7.275   8.282   5.970  0.8097  1.8616 -1.4818
  882MOL0     H19017   7.104   8.467   5.979 -1.4819  0.3701  0.4176
  882MOL0     H19018   6.987   8.352   5.916  2.1822  1.9727 -2.9650
  882MOL0     H19019   7.137   8.344   6.196  0.4621 -1.0803  1.0329
  882MOL0     H19020   7.053   8.211   6.127 -0.4052 -0.6697  0.7959
  882MOL0     H19021   6.923   8.598   6.158 -1.6851  1.8280  1.7037
  882MOL0     H19022   6.567   8.568   6.314 -0.6977 -1.4530  0.1030
  882MOL0     H19023   6.707   8.678   6.317 -1.0730  2.0494 -0.1522
  882MOL0     H19024   6.692   8.658   6.044 -0.8168 -1.4718 -0.4192
  882MOL0     H19025   6.585   8.765   6.135  1.2586  0.3725 -1.7668
  882MOL0     H19026   6.408   8.591   6.126 -2.6623  1.5882 -3.6989
  882MOL0     H19027   6.535   8.479   6.067  2.0053  0.8427 -1.5314
  882MOL0     H19028   6.538   8.602   5.860  0.4697  1.5943 -0.8926
  882MOL0     H19029   6.420   8.720   5.912  1.1940  1.3474 -0.0215
  882MOL0     H19030   6.479   8.532   5.646 -1.2519  1.3721 -4.3074
  882MOL0     H19031   6.581   8.439   5.464 -1.0146 -0.1381  1.3732
  882MOL0     H19032   6.556   8.287   5.402  0.4081 -1.3485  0.7646
  882MOL0     H19033   6.452   8.415   5.345  0.6044 -0.2800 -0.1135
  882MOL0     H19034   6.073   7.891   5.592  3.2438  1.2299  0.1495
  882MOL0     H19035   5.929   7.704   5.466  2.4060 -3.1342  0.2539
  882MOL0     H19036   5.798   7.721   5.261 -0.8795  3.2103 -1.7018
  882MOL0     H19037   5.887   7.760   5.115 -0.1476 -2.0854 -1.6188
  882MOL0     H19038   5.688   7.620   5.048 -0.4313  0.0524  2.7491
  882MOL0     H19039   5.852   7.548   5.011 -0.0536  1.1521 -0.7664
  882MOL0     H19040   5.809   7.455   5.262 -2.3029  1.1582  1.3974
  882MOL0     H19041   5.767   7.355   5.122 -1.3924 -1.0830 -0.4729
  882MOL0     H19042   5.581   7.494   5.319 -0.9148  1.1443  0.6266
  882MOL0     H19043   5.541   7.500   5.148 -1.6421 -2.3858  0.3037
  882MOL0     H19044   5.628   7.242   5.274  2.4487  1.3621 -1.5670
  882MOL0     H19045   5.541   7.267   5.118  0.1041  0.5496 -0.2087
  882MOL0     H19046   5.371   7.197   5.292 -0.4479  0.5455 -3.9831
  882MOL0     H19047   5.422   7.338   5.393  4.5905  2.1158 -0.4806
  882MOL0     H19048   5.338   7.399   5.105 -2.5257 -1.0904 -1.1135
  882MOL0     H19049   5.315   7.494   5.249  3.1045  0.0652 -2.1326
  882MOL0     H19050   5.145   7.346   5.327  0.3291 -2.8389 -0.1050
  882MOL0     H19051   5.158   7.258   5.176  1.2267  0.3846  0.5291
  882MOL0     H19052   6.199   7.719   5.143 -0.7949  0.7361  0.3027
  882MOL0     H19053   6.351   7.883   5.256  0.3935  1.3372  2.5605
  882MOL0     H19054   6.213   8.126   5.711 -0.0782 -1.1276 -4.6808
  882MOL0     H19055   6.222   8.312   5.890  0.0387 -1.4349 -0.4981
  882MOL0     H19056   7.788   8.275   5.307  1.6639  1.4726  0.2084
  882MOL0     H19057   8.034   8.265   5.350 -0.5696  1.6015  4.3925
  882MOL0     H19058   8.373   7.944   5.438  2.9305 -2.7212 -1.0423
  882MOL0     H19059   8.624   7.940   5.472 -0.9213  2.0796 -3.4045
  882MOL0     H19060   8.852   8.220   5.680  0.3780 -0.8264 -0.0012
  882MOL0     H19061   8.795   8.116   5.814 -0.1451 -2.6134  1.1361
  882MOL0     H19062   8.985   7.990   5.814 -1.7084  0.4118 -0.2259
  882MOL0     H19063   9.048   8.138   5.735 -1.3432  0.6079  3.5657
  882MOL0     H19064   8.977   8.048   5.514 -0.2024 -0.8605 -1.5486
  882MOL0     H19065   8.962   7.887   5.581 -0.6791  0.4082 -0.1894
  882MOL0     H19066   9.214   8.056   5.568 -2.4409  1.4707 -1.2105
  882MOL0     H19067   9.181   7.904   5.483  0.2361 -0.6897  0.8124
  882MOL0     H19068   9.322   7.758   5.851 -1.9975 -0.6987  1.3285
  882MOL0     H19069   8.604   8.209   5.792 -0.8542 -1.8829  2.4909
  882MOL0     H19070   8.360   8.234   5.752 -0.4469  2.0171 -3.0418
  883MOL0     O19071   3.311   1.533   4.067 -0.0167  0.3392 -0.5032
  883MOL0     C19072   3.293   1.443   3.979  0.5306 -0.6462  0.0216
  883MOL0     O19073   3.371   1.419   3.877  0.3114  0.3215 -0.4184
  883MOL0     C19074   3.504   1.424   3.905 -0.3173 -0.4999 -0.5418
  883MOL0     C19075   3.580   1.507   3.820  0.7027  0.8891  0.3331
  883MOL0     C19076   3.716   1.510   3.835 -0.9080 -0.0398 -0.4902
  883MOL0     C19077   3.783   1.438   3.933  0.5839 -0.7655  0.0389
  883MOL0     O19078   3.912   1.455   3.961 -0.2707 -0.1274 -0.0222
  883MOL0     C19079   3.995   1.403   3.851  0.3235  0.4881 -0.3561
  883MOL0     C19080   4.127   1.338   3.905  1.2169 -1.1487  0.0166
  883MOL0     C19081   4.098   1.220   3.995  0.3907  0.0325  0.4978
  883MOL0     C19082   4.226   1.144   4.027 -0.2800  0.0175  0.8066
  883MOL0     C19083   4.335   1.232   4.098  0.8949  0.0522 -0.5172
  883MOL0     C19084   4.441   1.152   4.172 -0.0078  0.1983  0.2985
  883MOL0     C19085   4.519   1.059   4.084  0.0129  1.6437 -0.3484
  883MOL0     C19086   4.636   0.983   4.150  0.8027  0.7128 -0.5134
  883MOL0     N19087   4.743   1.068   4.191 -0.2998 -0.1011  1.1014
  883MOL0     C19088   4.820   1.049   4.303 -0.4899 -0.2653  0.0544
  883MOL0     C19089   4.933   1.121   4.277  0.8053  0.7919 -0.9513
  883MOL0     C19090   5.053   1.136   4.374  0.1915 -0.7720  0.0567
  883MOL0     C19091   5.022   1.188   4.516  0.0620 -0.0806  0.2235
  883MOL0     C19092   4.996   1.342   4.528 -0.1032  0.0770 -0.7599
  883MOL0     C19093   4.851   1.388   4.490 -0.4770  0.4476  0.1871
  883MOL0     O19094   4.870   1.516   4.430 -0.3471 -0.6380  0.0252
  883MOL0     C19095   4.764   1.568   4.362  0.4655  0.0858  0.3538
  883MOL0     C19096   4.727   1.695   4.375  0.3852  0.1754 -0.3168
  883MOL0     C19097   4.626   1.757   4.301  0.3168  0.9286  0.0268
  883MOL0     C19098   4.597   1.895   4.341 -0.1703  0.7891 -0.0272
  883MOL0     C19099   4.571   1.685   4.194 -0.6131  0.7256  0.5305
  883MOL0     C19100   4.468   1.736   4.096  0.4476 -0.8258 -0.1536
  883MOL0     O19101   4.433   1.652   4.010  0.5930  0.1369  0.8928
  883MOL0     C19102   4.333   1.690   3.921 -0.7326 -0.6286  0.8131
  883MOL0     C19103   4.357   1.695   3.784 -0.3587  0.3116 -0.7012
  883MOL0     C19104   4.253   1.708   3.694 -0.0742 -1.1719 -0.3931
  883MOL0     C19105   4.119   1.731   3.734 -0.4615 -0.5498  0.6647
  883MOL0     O19106   4.008   1.749   3.647 -0.7681 -0.7756 -0.6569
  883MOL0     C19107   4.041   1.698   3.518 -0.1011  0.2873 -0.8790
  883MOL0     C19108   3.927   1.663   3.433 -0.3862 -0.8195  0.4848
  883MOL0     C19109   3.855   1.545   3.486 -0.0330 -0.1261  0.0135
  883MOL0     C19110   3.818   1.446   3.377  0.2424  0.3286 -0.3399
  883MOL0     C19111   3.744   1.318   3.436  0.3823  0.2864  0.2056
  883MOL0     C19112   3.759   1.190   3.361 -0.0331  0.2806 -0.3378
  883MOL0     C19113   3.896   1.109   3.389  0.3489  0.1512  0.3857
  883MOL0     C19114   3.885   0.982   3.321  0.3394 -1.5390 -0.6281
  883MOL0    Cl19115   4.043   0.895   3.348 -0.1787  0.4122 -0.3831
  883MOL0     C19116   4.103   1.738   3.868 -0.5215  0.3133 -0.1597
  883MOL0     C19117   4.202   1.703   3.962 -0.2829  0.4068  0.5403
  883MOL0     O19118   4.412   1.850   4.117  0.1943  0.3221  0.2789
  883MOL0     C19119   4.621   1.560   4.166  0.2018 -0.7338 -0.0939
  883MOL0     C19120   4.702   1.493   4.259 -0.7308 -0.7269  0.1888
  883MOL0     N19121   4.930   1.168   4.152  0.3355 -0.8831  0.4358
  883MOL0     N19122   4.813   1.140   4.095  0.1695 -0.2870 -0.5506
  883MOL0     C19123   3.710   1.359   4.022 -0.2729  0.3337 -0.0107
  883MOL0     C19124   3.571   1.349   4.000  0.9151 -0.5342 -1.3504
  883MOL0     C19125   3.174   1.369   3.990 -0.3709  0.6908  0.2137
  883MOL0     C19126   3.149   1.276   3.890 -0.5343  0.6135  0.1129
  883MOL0     C19127   3.026   1.206   3.888 -0.6469 -0.4991  0.3061
  883MOL0     C19128   2.934   1.223   3.992  0.2623 -0.3549 -0.4833
  883MOL0     O19129   2.815   1.147   3.992 -1.2046  0.2323 -0.1298
  883MOL0     C19130   2.760   1.093   3.872 -0.2845  0.1036 -0.6115
  883MOL0     C19131   2.622   1.043   3.916 -0.0725  0.1783 -0.0405
  883MOL0     C19132   2.529   0.983   3.806  0.6184  0.4232 -0.9430
  883MOL0     C19133   2.581   0.863   3.728 -0.4024  0.0848 -0.7829
  883MOL0     C19134   2.478   0.797   3.648  0.5369 -0.0904  0.5472
  883MOL0     C19135   2.388   0.754   3.572  0.5512  0.0047 -0.2047
  883MOL0     C19136   2.961   1.323   4.092 -0.4259  0.0995 -0.5785
  883MOL0     C19137   3.084   1.388   4.096  0.5232  0.4345 -1.0170
  883MOL0     H19138   3.527   1.558   3.740  2.2644 -0.2917 -1.5227
  883MOL0     H19139   3.773   1.571   3.765 -1.9808  1.8655  0.2311
  883MOL0     H19140   3.943   1.323   3.797  0.1766  0.9730 -0.9389
  883MOL0     H19141   4.015   1.481   3.778 -0.6503  0.2710 -0.8823
  883MOL0     H19142   4.186   1.299   3.821  1.1010 -2.7046  0.6219
  883MOL0     H19143   4.178   1.415   3.963 -1.4094  1.1192 -0.4901
  883MOL0     H19144   4.051   1.246   4.090 -3.3927 -2.0291 -0.6182
  883MOL0     H19145   4.024   1.155   3.947 -1.7067  1.8933  1.0392
  883MOL0     H19146   4.200   1.054   4.083 -2.8391  0.6382  0.7615
  883MOL0     H19147   4.259   1.109   3.929 -1.1104 -0.5066  0.7066
  883MOL0     H19148   4.378   1.296   4.021  1.3873 -2.0140 -2.0323
  883MOL0     H19149   4.281   1.289   4.175 -0.3938  1.2707 -2.2500
  883MOL0     H19150   4.509   1.228   4.210  1.5204 -2.6036  3.7644
  883MOL0     H19151   4.399   1.094   4.254 -1.5026 -2.2704 -2.0177
  883MOL0     H19152   4.446   0.985   4.051 -0.2232  2.1262 -0.9237
  883MOL0     H19153   4.557   1.104   3.992  0.5602 -1.1993 -1.6198
  883MOL0     H19154   4.669   0.902   4.084  2.0815  0.4985  0.3410
  883MOL0     H19155   4.598   0.942   4.244  1.6523  2.8045  0.7956
  883MOL0     H19156   4.819   0.979   4.386  3.1641  0.6932  1.1331
  883MOL0     H19157   5.106   1.040   4.382  4.1087  1.2881  3.2836
  883MOL0     H19158   5.122   1.204   4.324  1.2117 -2.8472 -1.5165
  883MOL0     H19159   5.102   1.159   4.585 -0.9528 -0.2470  1.3600
  883MOL0     H19160   4.934   1.128   4.541  0.5531 -2.1426 -2.4501
  883MOL0     H19161   5.065   1.405   4.471  0.8509  0.4946  0.7860
  883MOL0     H19162   5.017   1.373   4.631  0.9948  0.4215 -1.0651
  883MOL0     H19163   4.804   1.389   4.589 -0.6089 -1.5887  0.1973
  883MOL0     H19164   4.804   1.312   4.426  0.6487 -0.7224  0.7142
  883MOL0     H19165   4.785   1.730   4.460  1.1682 -1.6165 -0.0734
  883MOL0     H19166   4.495   1.890   4.378 -0.9859  3.4880 -1.6062
  883MOL0     H19167   4.665   1.924   4.421  0.5892 -1.3782  0.1805
  883MOL0     H19168   4.606   1.970   4.261 -0.3825  3.4041  2.2774
  883MOL0     H19169   4.458   1.676   3.749  0.3614 -2.2127  2.3423
  883MOL0     H19170   4.285   1.711   3.590  3.5818  1.8066  0.6159
  883MOL0     H19171   4.088   1.775   3.456 -0.9921  2.6643  1.2630
  883MOL0     H19172   4.094   1.602   3.522 -1.3424 -0.3767  1.6311
  883MOL0     H19173   3.863   1.749   3.414 -0.0253 -0.4740  0.8006
  883MOL0     H19174   3.971   1.655   3.333  0.5818  1.8995  0.6106
  883MOL0     H19175   3.758   1.573   3.527 -0.0494  1.2138 -0.8752
  883MOL0     H19176   3.909   1.489   3.563 -1.1726 -1.6174 -0.2285
  883MOL0     H19177   3.744   1.490   3.309 -2.1452 -1.7801  0.7050
  883MOL0     H19178   3.909   1.410   3.329 -1.2869 -0.3081 -2.9930
  883MOL0     H19179   3.640   1.347   3.453 -0.7263 -3.4012  0.7358
  883MOL0     H19180   3.771   1.294   3.540 -4.2944 -1.9486  1.1907
  883MOL0     H19181   3.684   1.122   3.403 -1.2156  2.6844  1.6275
  883MOL0     H19182   3.755   1.207   3.253  0.8543  0.2174 -0.3886
  883MOL0     H19183   3.899   1.075   3.493 -0.6061  1.2561  0.7902
  883MOL0     H19184   3.991   1.162   3.379  0.2991  0.5323  1.6853
  883MOL0     H19185   3.875   1.004   3.214  0.8528  0.8036 -0.2495
  883MOL0     H19186   3.805   0.914   3.353  0.0249 -0.0501  2.0139
  883MOL0     H19187   4.006   1.764   3.908  0.5066  0.6362  2.2736
  883MOL0     H19188   4.184   1.702   4.069 -0.4039  3.0171  0.6121
  883MOL0     H19189   4.586   1.502   4.082 -2.3652 -1.7695  1.5499
  883MOL0     H19190   4.721   1.388   4.235 -1.3455 -0.3902 -2.0581
  883MOL0     H19191   3.752   1.298   4.102 -1.1237 -1.1612 -0.6616
  883MOL0     H19192   3.511   1.309   4.081 -0.4793  2.5704 -0.7238
  883MOL0     H19193   3.214   1.247   3.808  1.4931  0.2747  1.7532
  883MOL0     H19194   3.015   1.146   3.798  1.0888 -0.3759 -0.0385
  883MOL0     H19195   2.738   1.175   3.804  0.2373 -0.4027 -1.4145
  883MOL0     H19196   2.815   1.007   3.831 -0.2406 -0.8771  1.3673
  883MOL0     H19197   2.563   1.118   3.970  0.5603  0.8963 -0.3386
  883MOL0     H19198   2.645   0.960   3.984  0.4617  2.0059  2.1430
  883MOL0     H19199   2.504   1.056   3.729 -0.5367  1.2288  0.1552
  883MOL0     H19200   2.440   0.958   3.866  0.8024 -0.4523 -1.0234
  883MOL0     H19201   2.606   0.787   3.803  0.0092  0.0431 -0.9552
  883MOL0     H19202   2.676   0.890   3.679  0.1715 -1.4820 -0.5894
  883MOL0     H19203   2.320   0.727   3.494  0.1249  2.7798 -0.9201
  883MOL0     H19204   2.884   1.329   4.169 -1.0023 -0.5034 -1.0866
  883MOL0     H19205   3.105   1.460   4.175  0.9742 -0.6343 -0.1430
  884MOL0     O19206   3.896   5.188   7.703  0.0269  0.2571 -0.5571
  884MOL0     C19207   3.996   5.148   7.642  0.8321 -0.6094  0.7764
  884MOL0     O19208   4.010   5.033   7.570  0.6290 -0.2051 -0.0947
  884MOL0     C19209   3.896   4.967   7.534  0.1591 -0.0574  0.4233
  884MOL0     C19210   3.870   4.964   7.400  1.2032 -0.0856  0.8212
  884MOL0     C19211   3.769   4.879   7.343 -0.2701 -0.2779 -0.1729
  884MOL0     C19212   3.705   4.779   7.426  0.2074  0.0736  0.0108
  884MOL0     O19213   3.619   4.684   7.377  0.1415 -0.3894  0.4639
  884MOL0     C19214   3.585   4.691   7.237  0.0069 -0.8371 -0.3655
  884MOL0     C19215   3.495   4.578   7.198  0.1419  0.3837  0.6862
  884MOL0     C19216   3.352   4.591   7.261 -0.4020  0.6718  0.2541
  884MOL0     C19217   3.329   4.467   7.360 -0.0452  0.1959 -0.3534
  884MOL0     C19218   3.181   4.455   7.409 -0.3858 -0.6266  0.1211
  884MOL0     C19219   3.153   4.316   7.460 -0.0212 -1.4291  1.0776
  884MOL0     C19220   3.198   4.287   7.602  0.1278 -0.4215  0.8585
  884MOL0     C19221   3.151   4.158   7.669  0.2906  0.8579  1.0201
  884MOL0     N19222   3.180   4.145   7.818 -0.7332 -0.2228  0.1708
  884MOL0     C19223   3.114   4.222   7.911  0.3082  0.3612  0.5879
  884MOL0     C19224   3.200   4.213   8.017 -0.3538 -0.1577 -1.0414
  884MOL0     C19225   3.178   4.268   8.154 -0.9933 -0.4652  0.2350
  884MOL0     C19226   3.085   4.191   8.243 -0.3150  1.3523 -0.3122
  884MOL0     C19227   3.136   4.042   8.272  0.0674 -0.4137  0.0824
  884MOL0     C19228   3.057   3.972   8.387 -1.2491  0.1464 -0.1136
  884MOL0     O19229   2.919   3.971   8.340 -0.2875 -0.2403 -0.1862
  884MOL0     C19230   2.819   3.959   8.423  0.1090 -0.3290 -0.2935
  884MOL0     C19231   2.825   3.923   8.557  0.2657  0.0019 -1.4226
  884MOL0     C19232   2.710   3.912   8.635  0.0713  0.7218 -0.4550
  884MOL0     C19233   2.731   3.895   8.785 -0.7506  0.4746 -0.3441
  884MOL0     C19234   2.584   3.931   8.584 -0.0167 -0.1082  0.6997
  884MOL0     C19235   2.447   3.881   8.633  0.0055 -0.0814 -0.2829
  884MOL0     O19236   2.337   3.931   8.559 -0.3985  0.1494  0.3238
  884MOL0     C19237   2.209   3.874   8.585 -0.4821  0.1041  0.4263
  884MOL0     C19238   2.176   3.730   8.575  0.3856  0.5315  0.3316
  884MOL0     C19239   2.045   3.683   8.617 -0.5291 -0.2736  0.1060
  884MOL0     C19240   1.953   3.784   8.658  0.6677 -0.6337 -0.6683
  884MOL0     O19241   1.819   3.740   8.686 -0.2212 -0.5118  0.3458
  884MOL0     C19242   1.726   3.837   8.735 -0.4598  0.1705 -0.2894
  884MOL0     C19243   1.605   3.773   8.812 -0.4665  0.9702  0.0379
  884MOL0     C19244   1.526   3.650   8.750  0.1615 -0.0281 -0.0266
  884MOL0     C19245   1.404   3.628   8.851 -0.1619  1.3751 -0.1247
  884MOL0     C19246   1.295   3.523   8.799 -0.4986 -0.4989  0.5877
  884MOL0     C19247   1.188   3.592   8.711  0.3204  0.2936 -0.3039
  884MOL0     C19248   1.076   3.496   8.663 -0.2721  0.2911 -0.1553
  884MOL0     C19249   1.017   3.548   8.534  0.1503 -0.4748  0.6242
  884MOL0    Cl19250   0.896   3.419   8.498  0.2886  0.6014 -0.1018
  884MOL0     C19251   1.985   3.919   8.654 -0.2090  0.0537 -0.3174
  884MOL0     C19252   2.113   3.965   8.625 -0.3336 -0.3925 -0.0740
  884MOL0     O19253   2.434   3.815   8.734  0.0155  0.3293  0.6124
  884MOL0     C19254   2.575   3.980   8.445 -1.4078 -0.0261 -0.4191
  884MOL0     C19255   2.691   4.000   8.375 -0.1091  0.0001  0.1893
  884MOL0     N19256   3.307   4.141   7.983 -0.2737 -0.5993 -0.4367
  884MOL0     N19257   3.300   4.105   7.867  0.6862  0.1294 -0.0836
  884MOL0     C19258   3.726   4.790   7.558  1.2421 -0.1155 -0.0893
  884MOL0     C19259   3.816   4.880   7.616 -0.5090  0.7887 -0.1821
  884MOL0     C19260   4.112   5.244   7.657 -0.0370 -0.1739  0.3429
  884MOL0     C19261   4.238   5.197   7.609  0.4499 -0.0352 -0.0625
  884MOL0     C19262   4.352   5.267   7.628 -0.0714 -0.4558 -0.1102
  884MOL0     C19263   4.356   5.394   7.689  0.8692  0.8345  0.1008
  884MOL0     O19264   4.464   5.475   7.708  0.1249 -0.1462 -0.3201
  884MOL0     C19265   4.575   5.475   7.619 -0.6967 -0.6479  0.5987
  884MOL0     C19266   4.624   5.622   7.604  0.3654  1.0106 -0.1972
  884MOL0     C19267   4.744   5.642   7.499 -0.8010 -0.1845  0.7430
  884MOL0     C19268   4.816   5.774   7.510 -0.0915 -0.5535 -0.5019
  884MOL0     C19269   4.902   5.770   7.631  0.1886  0.4622 -0.1771
  884MOL0     C19270   4.983   5.779   7.721 -0.0442 -0.0508  0.2822
  884MOL0     C19271   4.227   5.442   7.725  0.1710 -0.4135  0.7647
  884MOL0     C19272   4.105   5.371   7.712  0.2135  0.0836  0.2628
  884MOL0     H19273   3.920   5.037   7.337 -2.4371  0.8300 -1.2552
  884MOL0     H19274   3.761   4.872   7.235  0.7365 -0.0268 -0.2714
  884MOL0     H19275   3.543   4.789   7.213 -1.6634 -1.9275 -2.2247
  884MOL0     H19276   3.682   4.692   7.186 -0.9596 -3.8784 -2.5443
  884MOL0     H19277   3.485   4.585   7.089  0.0269  0.4912  0.7035
  884MOL0     H19278   3.540   4.480   7.216  0.7024  0.1637 -1.6334
  884MOL0     H19279   3.353   4.680   7.324  1.6499 -0.3284  1.7761
  884MOL0     H19280   3.272   4.581   7.188  1.6446  0.9673 -2.1908
  884MOL0     H19281   3.356   4.378   7.304  0.6371 -0.0294  0.3201
  884MOL0     H19282   3.400   4.475   7.443 -1.5270 -2.0761  1.2274
  884MOL0     H19283   3.166   4.534   7.484  0.1426  0.1930 -0.6211
  884MOL0     H19284   3.124   4.473   7.318 -1.2008  2.3999  1.1089
  884MOL0     H19285   3.044   4.316   7.471 -0.2225 -0.7773 -0.6232
  884MOL0     H19286   3.182   4.246   7.381 -3.4910  0.9555 -2.6890
  884MOL0     H19287   3.307   4.288   7.610  0.0354  1.6528  3.3052
  884MOL0     H19288   3.158   4.367   7.665 -0.0322  0.8557 -0.7978
  884MOL0     H19289   3.194   4.076   7.611 -1.9539 -0.9250  1.7099
  884MOL0     H19290   3.044   4.145   7.654  0.2274  2.1258  0.2863
  884MOL0     H19291   3.017   4.269   7.900  0.6595  0.7856 -1.1070
  884MOL0     H19292   3.273   4.271   8.207  0.1680  1.0250 -1.7528
  884MOL0     H19293   3.150   4.374   8.158 -3.0412 -0.9589  0.0888
  884MOL0     H19294   2.992   4.184   8.187 -0.2705  1.4564 -0.3996
  884MOL0     H19295   3.077   4.248   8.336  1.1691  0.7212  0.2419
  884MOL0     H19296   3.238   4.050   8.310 -0.7375 -0.7752  2.5352
  884MOL0     H19297   3.121   3.983   8.181 -3.5418  1.2667 -0.5864
  884MOL0     H19298   3.065   4.039   8.473  0.5443  0.0783 -0.1915
  884MOL0     H19299   3.101   3.875   8.414  1.0105  1.9396  3.3450
  884MOL0     H19300   2.924   3.896   8.592  0.4281 -2.1572 -3.2885
  884MOL0     H19301   2.674   3.971   8.838 -0.2031  1.3706 -0.9990
  884MOL0     H19302   2.694   3.799   8.823 -1.3939  0.5059 -0.8688
  884MOL0     H19303   2.833   3.903   8.825 -1.4610 -1.8285  2.1701
  884MOL0     H19304   2.258   3.676   8.530  0.5077  1.2957 -0.4009
  884MOL0     H19305   2.018   3.578   8.616  2.1785 -1.0956  1.6993
  884MOL0     H19306   1.778   3.908   8.800  2.3344 -0.7993 -1.2862
  884MOL0     H19307   1.694   3.899   8.651  2.2364  1.9948 -0.1067
  884MOL0     H19308   1.639   3.742   8.911  2.4709 -0.2467 -1.2139
  884MOL0     H19309   1.528   3.849   8.821 -1.0143  0.3294  1.0092
  884MOL0     H19310   1.589   3.561   8.747 -0.9442 -0.8259 -0.4025
  884MOL0     H19311   1.485   3.670   8.651  0.8778  2.7133  0.1379
  884MOL0     H19312   1.455   3.588   8.939  1.0507  0.4708 -1.1972
  884MOL0     H19313   1.352   3.723   8.867 -0.3115  1.2422  0.1741
  884MOL0     H19314   1.252   3.461   8.878 -1.7939 -2.7456 -1.7270
  884MOL0     H19315   1.346   3.441   8.747  1.3062 -0.4063  2.1109
  884MOL0     H19316   1.144   3.678   8.762 -2.0435  0.3659 -2.3007
  884MOL0     H19317   1.227   3.636   8.619 -2.6798  1.2778 -1.2204
  884MOL0     H19318   0.998   3.478   8.738  1.9410  1.6490  2.6710
  884MOL0     H19319   1.115   3.395   8.652  1.2463  0.4784  2.6143
  884MOL0     H19320   1.081   3.569   8.448  0.4390  0.9556  1.1640
  884MOL0     H19321   0.965   3.642   8.551 -0.5242 -0.6874 -0.1536
  884MOL0     H19322   1.914   3.995   8.684  0.4469 -0.2860  2.3497
  884MOL0     H19323   2.135   4.071   8.631  2.3754 -0.5397 -3.6538
  884MOL0     H19324   2.481   4.008   8.399 -0.9190  1.8711 -0.3380
  884MOL0     H19325   2.692   4.034   8.272 -1.6521 -0.6590 -0.0640
  884MOL0     H19326   3.678   4.722   7.627 -0.5134  1.9372  0.8412
  884MOL0     H19327   3.833   4.866   7.722 -2.9331 -3.7311 -0.1903
  884MOL0     H19328   4.255   5.111   7.545  1.2433  0.3993 -0.4530
  884MOL0     H19329   4.443   5.224   7.586 -1.3351 -2.1624 -1.2105
  884MOL0     H19330   4.663   5.425   7.662  0.7227  0.9969 -0.2471
  884MOL0     H19331   4.539   5.427   7.528 -0.8703 -3.2958  1.9552
  884MOL0     H19332   4.658   5.660   7.700 -1.2957 -1.3133  1.4304
  884MOL0     H19333   4.541   5.685   7.569  0.7545  1.0858 -1.0203
  884MOL0     H19334   4.698   5.652   7.400  4.1986 -2.9261 -2.2578
  884MOL0     H19335   4.808   5.553   7.508  0.6667  0.5767 -1.4874
  884MOL0     H19336   4.742   5.855   7.511 -0.1918 -0.5981 -1.8257
  884MOL0     H19337   4.888   5.785   7.429  1.2832 -0.2738  0.7262
  884MOL0     H19338   5.040   5.797   7.809 -1.2725 -3.4732  1.9303
  884MOL0     H19339   4.233   5.548   7.748  0.8686 -0.1122 -0.6904
  884MOL0     H19340   4.010   5.416   7.738 -0.1736 -0.3780 -0.3303
  885MOL0     O19341   9.183  10.832  11.297  0.8007 -0.6432  0.1497
  885MOL0     C19342   9.130  10.872  11.188  0.4384  1.1772  0.5481
  885MOL0     O19343   9.204  10.918  11.078  0.4136 -0.0974  0.3058
  885MOL0     C19344   9.342  10.919  11.089 -0.2206 -0.4295  1.3237
  885MOL0     C19345   9.415  10.801  11.130 -0.8872  0.0658 -0.5128
  885MOL0     C19346   9.549  10.808  11.143 -0.1220 -0.6426 -0.1605
  885MOL0     C19347   9.623  10.920  11.103  0.7311  0.2758  0.7663
  885MOL0     O19348   9.758  10.929  11.123  1.0080 -0.2116 -0.2126
  885MOL0     C19349   9.838  10.800  11.119 -0.2135  0.2405  0.1702
  885MOL0     C19350   9.977  10.826  11.086 -0.4022 -0.8029  0.1831
  885MOL0     C19351   9.997  10.902  10.957 -0.2838  0.0382  0.3853
  885MOL0     C19352   9.962  10.836  10.823  0.2904 -0.3171  0.1164
  885MOL0     C19353  10.000  10.921  10.696 -0.0184  0.2237 -0.4503
  885MOL0     C19354   9.949  10.878  10.553 -0.0817  0.3715  0.3216
  885MOL0     C19355   9.949  10.990  10.443  0.4006  0.2160  0.4481
  885MOL0     C19356   9.816  11.063  10.425 -0.1860 -0.0648 -0.3620
  885MOL0     N19357   9.827  11.159  10.321 -0.6678 -0.9161 -0.1699
  885MOL0     C19358   9.835  11.134  10.186  0.4994  0.5137 -0.5405
  885MOL0     C19359   9.823  11.252  10.125 -0.0264  1.1006  0.3058
  885MOL0     C19360   9.807  11.261   9.974 -0.1928  0.5751  0.3763
  885MOL0     C19361   9.669  11.318   9.926  0.4235  0.2531  0.0609
  885MOL0     C19362   9.544  11.263   9.990  0.7548 -0.2460 -0.1421
  885MOL0     C19363   9.494  11.135   9.927  0.3711 -0.1853 -0.4276
  885MOL0     O19364   9.450  11.150   9.799  0.7551  0.0203 -0.0918
  885MOL0     C19365   9.322  11.182   9.766  0.5650  0.1394  0.2109
  885MOL0     C19366   9.224  11.222   9.853 -0.0842  0.1844  0.3913
  885MOL0     C19367   9.093  11.248   9.807  0.0686  0.4507  0.1321
  885MOL0     C19368   9.004  11.325   9.902  0.6062  0.1300  0.1170
  885MOL0     C19369   9.062  11.232   9.667  0.2048 -0.3503 -1.1569
  885MOL0     C19370   8.918  11.232   9.608  0.1642  1.1202  0.5740
  885MOL0     O19371   8.907  11.288   9.485  0.1934  0.8326  0.1937
  885MOL0     C19372   8.787  11.270   9.417  0.4766  0.3929 -0.4043
  885MOL0     C19373   8.798  11.213   9.291  0.0787 -0.2525 -0.2632
  885MOL0     C19374   8.683  11.192   9.213  0.2170 -0.2264  0.6848
  885MOL0     C19375   8.556  11.218   9.255  0.2760 -1.1648 -0.4632
  885MOL0     O19376   8.453  11.206   9.165 -0.3776  1.6057  0.4121
  885MOL0     C19377   8.383  11.086   9.197 -0.2375  0.1692  0.6251
  885MOL0     C19378   8.326  11.015   9.078 -0.0234 -0.5808  0.1707
  885MOL0     C19379   8.434  10.968   8.983  0.5822 -0.1376 -0.3319
  885MOL0     C19380   8.449  10.812   8.986  0.0720 -0.0835  0.6397
  885MOL0     C19381   8.569  10.773   8.900 -0.0421  0.4640  0.5975
  885MOL0     C19382   8.594  10.624   8.911  0.2458 -0.7568  0.2863
  885MOL0     C19383   8.746  10.605   8.886 -0.6456  0.2946  0.7607
  885MOL0     C19384   8.780  10.459   8.897  0.3638 -0.3202 -0.8532
  885MOL0    Cl19385   8.747  10.368   8.753 -0.0133 -0.2374 -0.2214
  885MOL0     C19386   8.541  11.247   9.392 -0.2929  0.6520 -0.4101
  885MOL0     C19387   8.656  11.279   9.473  0.3141 -0.4887  0.0382
  885MOL0     O19388   8.829  11.176   9.672 -0.1028 -0.8605 -0.1437
  885MOL0     C19389   9.164  11.196   9.583  0.4340  0.2081 -0.0060
  885MOL0     C19390   9.301  11.179   9.623 -0.4090 -0.0271 -0.4877
  885MOL0     N19391   9.823  11.355  10.222  0.0680 -0.0950 -0.4494
  885MOL0     N19392   9.828  11.294  10.339  0.6718 -0.0969  0.2560
  885MOL0     C19393   9.548  11.033  11.058  0.4698 -0.3958 -0.3809
  885MOL0     C19394   9.409  11.038  11.059  0.1085 -0.5136  0.1702
  885MOL0     C19395   8.985  10.864  11.175 -0.4463 -0.3042  0.1783
  885MOL0     C19396   8.922  10.892  11.052 -0.4024 -0.1655 -0.3077
  885MOL0     C19397   8.783  10.902  11.051  0.7107  0.2538  0.5298
  885MOL0     C19398   8.702  10.879  11.153  0.5559 -0.5881 -0.6670
  885MOL0     O19399   8.575  10.927  11.139  0.0587 -0.3443  0.1029
  885MOL0     C19400   8.474  10.916  11.245 -0.1213 -0.2693 -0.2693
  885MOL0     C19401   8.426  10.772  11.262 -0.2445 -0.4510 -0.0870
  885MOL0     C19402   8.330  10.721  11.151  0.4210  0.3079 -0.3214
  885MOL0     C19403   8.179  10.748  11.187 -0.4485  0.0727  0.2228
  885MOL0     C19404   8.147  10.895  11.199 -0.6570 -0.6925  1.0836
  885MOL0     C19405   8.104  11.007  11.208 -0.8187  0.2285 -0.2471
  885MOL0     C19406   8.767  10.850  11.275  1.4384 -0.6665  0.7858
  885MOL0     C19407   8.904  10.844  11.282 -0.0414  0.8138 -1.1070
  885MOL0     H19408   9.362  10.711  11.161 -2.2668  0.9554 -0.2029
  885MOL0     H19409   9.614  10.725  11.170  0.3621 -0.5965 -1.1711
  885MOL0     H19410   9.839  10.750  11.216  4.5435 -1.1521 -0.3778
  885MOL0     H19411   9.798  10.739  11.038  0.9508  1.4976 -1.4151
  885MOL0     H19412  10.015  10.880  11.173 -1.7550 -1.8796  1.4977
  885MOL0     H19413  10.022  10.726  11.079 -1.7707 -1.3840 -0.7505
  885MOL0     H19414   9.946  10.998  10.950  1.0316  0.7144 -0.2311
  885MOL0     H19415  10.103  10.926  10.946 -0.2428 -0.1776  0.3023
  885MOL0     H19416  10.012  10.738  10.826  0.0616 -0.3996  1.8896
  885MOL0     H19417   9.854  10.819  10.824  0.2552 -0.0904  0.3105
  885MOL0     H19418   9.971  11.025  10.714  2.3198  0.3081  4.8407
  885MOL0     H19419  10.109  10.917  10.692  0.0668 -0.3651  1.3526
  885MOL0     H19420  10.013  10.796  10.518 -0.7542  0.0619 -0.1917
  885MOL0     H19421   9.851  10.843  10.585 -0.4699  0.0406 -1.1427
  885MOL0     H19422  10.025  11.062  10.476 -0.3557  0.2516  2.1894
  885MOL0     H19423   9.981  10.955  10.344 -1.8667 -0.9914  0.0933
  885MOL0     H19424   9.786  11.112  10.518  0.3131  0.5249 -0.5022
  885MOL0     H19425   9.735  10.994  10.403 -0.9570  0.8265 -0.4128
  885MOL0     H19426   9.816  11.042  10.131 -1.0302  1.3949 -1.5865
  885MOL0     H19427   9.883  11.331   9.936  0.1883 -0.5542 -1.0202
  885MOL0     H19428   9.824  11.163   9.929 -1.9107  0.1189  0.6294
  885MOL0     H19429   9.656  11.305   9.818 -1.9164 -0.1239  0.3348
  885MOL0     H19430   9.664  11.424   9.951 -0.3581  0.6847 -1.7781
  885MOL0     H19431   9.461  11.334   9.987 -0.7513 -1.9018  0.1734
  885MOL0     H19432   9.564  11.245  10.096  1.3213 -2.3464 -0.5498
  885MOL0     H19433   9.412  11.099   9.991 -0.7023  1.2164 -0.9734
  885MOL0     H19434   9.572  11.059   9.936  1.5494  1.1731  1.2641
  885MOL0     H19435   9.240  11.241   9.959  0.2850  0.3638  0.3024
  885MOL0     H19436   9.056  11.396   9.968 -2.1975  0.9641  1.6250
  885MOL0     H19437   8.928  11.368   9.836  0.4855  0.9263  0.7514
  885MOL0     H19438   8.950  11.247   9.958 -1.1221 -0.0093 -1.6325
  885MOL0     H19439   8.897  11.214   9.247 -0.9153  0.1947 -2.6132
  885MOL0     H19440   8.691  11.187   9.105 -1.1680 -0.7368  0.5860
  885MOL0     H19441   8.453  11.018   9.248 -1.7899 -0.2359  2.3263
  885MOL0     H19442   8.296  11.110   9.259 -1.0383 -2.2426  0.5381
  885MOL0     H19443   8.260  10.937   9.116 -3.9920  2.0731 -0.6257
  885MOL0     H19444   8.261  11.091   9.033  0.4215 -0.4811 -0.3011
  885MOL0     H19445   8.525  11.016   9.018 -0.5892  0.6533  1.7898
  885MOL0     H19446   8.416  11.002   8.880  1.8718  1.2114 -0.1479
  885MOL0     H19447   8.462  10.769   9.086  2.4799 -4.7866 -1.3744
  885MOL0     H19448   8.363  10.763   8.940 -0.0323  1.2779 -0.6830
  885MOL0     H19449   8.656  10.836   8.917 -0.2854  0.8328  0.4728
  885MOL0     H19450   8.548  10.778   8.793 -1.3982  2.2824  0.9011
  885MOL0     H19451   8.557  10.579   9.004 -0.7858 -0.5198  0.0099
  885MOL0     H19452   8.541  10.573   8.830 -0.8647  2.8688 -1.4843
  885MOL0     H19453   8.812  10.663   8.950  0.0596  1.8610 -1.2562
  885MOL0     H19454   8.779  10.626   8.783 -0.8675  1.4632  0.9210
  885MOL0     H19455   8.723  10.415   8.980 -0.0780  1.3411 -0.2315
  885MOL0     H19456   8.886  10.458   8.925  0.2757  0.5322 -0.4428
  885MOL0     H19457   8.440  11.268   9.423 -0.2513 -0.3020  0.4337
  885MOL0     H19458   8.631  11.323   9.569 -1.1552  1.7599 -1.2927
  885MOL0     H19459   9.140  11.163   9.482 -1.0633  0.0548  0.3759
  885MOL0     H19460   9.384  11.156   9.557 -0.1195 -1.9448  0.4959
  885MOL0     H19461   9.609  11.116  11.023  0.5301 -0.0727  0.4707
  885MOL0     H19462   9.352  11.126  11.029 -2.3555 -1.5870  1.3847
  885MOL0     H19463   8.984  10.889  10.963 -1.8460 -1.3564 -1.3211
  885MOL0     H19464   8.727  10.932  10.964  0.1903 -0.7332  0.5059
  885MOL0     H19465   8.506  10.950  11.343  0.1417 -1.7624  0.1879
  885MOL0     H19466   8.391  10.983  11.219 -0.1297 -0.9222 -2.1195
  885MOL0     H19467   8.365  10.765  11.353 -3.9019 -1.2858 -2.4088
  885MOL0     H19468   8.512  10.705  11.273 -0.6245 -0.9237  0.0484
  885MOL0     H19469   8.347  10.613  11.140 -0.1265  0.4708 -4.1649
  885MOL0     H19470   8.346  10.759  11.050  3.7081 -2.5816 -1.0698
  885MOL0     H19471   8.154  10.695  11.280  1.2476 -2.1913 -0.5250
  885MOL0     H19472   8.123  10.701  11.106  4.7752 -0.8602 -3.2793
  885MOL0     H19473   8.067  11.105  11.227 -0.6225  0.3406 -0.4424
  885MOL0     H19474   8.719  10.837  11.371  2.1367  0.6317  1.3342
  885MOL0     H19475   8.952  10.832  11.378  0.4391 -0.3092 -1.4748
  886MOL0     O19476   5.494   6.876   6.621 -0.3347  0.5326 -0.2848
  886MOL0     C19477   5.524   6.853   6.739  0.4257  0.4515  0.2684
  886MOL0     O19478   5.436   6.840   6.839  0.2259 -0.0458 -0.3783
  886MOL0     C19479   5.300   6.817   6.821 -0.2806 -0.3229 -0.0848
  886MOL0     C19480   5.235   6.764   6.705  0.6239  0.1085  0.0261
  886MOL0     C19481   5.094   6.758   6.696 -0.0878 -0.0363 -0.1932
  886MOL0     C19482   5.019   6.784   6.802 -0.2039 -0.3059  0.0014
  886MOL0     O19483   4.883   6.770   6.788  0.0977  0.0058 -0.1598
  886MOL0     C19484   4.797   6.751   6.903  0.5636  0.0847  0.9606
  886MOL0     C19485   4.679   6.664   6.863  0.2948 -0.7436  0.4249
  886MOL0     C19486   4.584   6.650   6.977  0.3962 -0.1643 -0.3973
  886MOL0     C19487   4.469   6.562   6.916 -0.0968 -0.5918 -0.2319
  886MOL0     C19488   4.357   6.568   7.020  0.6229  0.0079 -0.2219
  886MOL0     C19489   4.240   6.486   6.968  0.1307  0.0094  0.2837
  886MOL0     C19490   4.137   6.426   7.074  0.1285  0.0671 -0.2179
  886MOL0     C19491   4.009   6.361   7.007  0.1065 -0.4459  0.0116
  886MOL0     N19492   3.948   6.261   7.091  0.2444  0.6172  0.3966
  886MOL0     C19493   3.860   6.293   7.195 -0.8628  0.2818  0.4722
  886MOL0     C19494   3.821   6.169   7.245  0.4414 -0.2178 -0.2119
  886MOL0     C19495   3.725   6.151   7.364 -0.3164 -0.4308 -0.1213
  886MOL0     C19496   3.642   6.024   7.349 -0.2471 -1.0852 -1.0706
  886MOL0     C19497   3.726   5.903   7.392 -0.3553  0.4687 -0.6692
  886MOL0     C19498   3.636   5.783   7.374  0.0926 -0.4152  0.8716
  886MOL0     O19499   3.505   5.804   7.435  0.6572 -0.1109  0.4837
  886MOL0     C19500   3.387   5.747   7.384 -0.0417 -0.6368 -0.2082
  886MOL0     C19501   3.377   5.638   7.290 -0.0730 -0.1173 -0.2715
  886MOL0     C19502   3.258   5.585   7.257 -0.0919 -0.5558  0.2444
  886MOL0     C19503   3.244   5.471   7.161  1.1856 -1.2216  0.1077
  886MOL0     C19504   3.134   5.638   7.312  0.0117  0.5902 -0.1391
  886MOL0     C19505   2.995   5.586   7.299  0.1446 -0.3331 -0.3959
  886MOL0     O19506   2.897   5.675   7.335  0.0574 -0.1689  0.6124
  886MOL0     C19507   2.760   5.642   7.323 -0.0909  1.8125 -0.0075
  886MOL0     C19508   2.701   5.606   7.197 -0.4068 -0.1746 -0.1704
  886MOL0     C19509   2.566   5.586   7.183  0.4125  0.1968  0.0328
  886MOL0     C19510   2.484   5.613   7.285  0.0068  0.2500  0.3431
  886MOL0     O19511   2.350   5.596   7.258 -1.1427  0.2999 -0.2428
  886MOL0     C19512   2.266   5.597   7.372 -0.9891  0.8468 -0.3825
  886MOL0     C19513   2.121   5.579   7.336  0.5812  1.0248  0.5496
  886MOL0     C19514   2.077   5.696   7.257  0.5774 -0.2607  0.7769
  886MOL0     C19515   2.052   5.821   7.353  0.3816 -0.8068 -0.1382
  886MOL0     C19516   2.041   5.945   7.266 -0.5598  0.7310 -0.1726
  886MOL0     C19517   2.027   6.080   7.344 -0.2673 -0.0794 -0.2865
  886MOL0     C19518   1.971   6.186   7.249  0.8325 -0.7086  0.0905
  886MOL0     C19519   1.935   6.316   7.314 -0.2135 -0.3482 -0.0070
  886MOL0    Cl19520   1.810   6.265   7.426  0.3170 -0.0773  0.1876
  886MOL0     C19521   2.538   5.634   7.414  0.2065  0.1719 -0.1703
  886MOL0     C19522   2.678   5.653   7.433 -0.3667 -0.4410 -0.3473
  886MOL0     O19523   2.972   5.485   7.238 -0.1400  0.5033  0.1031
  886MOL0     C19524   3.150   5.744   7.402  1.1396  0.6554 -0.0892
  886MOL0     C19525   3.268   5.797   7.434 -0.6311 -0.1345 -0.2158
  886MOL0     N19526   3.895   6.068   7.171  0.0326 -0.0194 -0.2574
  886MOL0     N19527   3.964   6.128   7.081 -0.0959  0.6357 -0.6811
  886MOL0     C19528   5.082   6.820   6.926  0.5636 -0.1962  0.1320
  886MOL0     C19529   5.223   6.833   6.932  0.2788 -0.2349  0.2227
  886MOL0     C19530   5.662   6.845   6.779  0.2008  0.2189 -0.6896
  886MOL0     C19531   5.711   6.781   6.904  0.0149  0.4341 -0.1086
  886MOL0     C19532   5.842   6.765   6.936  0.3170 -0.1796  1.0654
  886MOL0     C19533   5.942   6.818   6.855 -0.5789 -0.0597 -0.3715
  886MOL0     O19534   6.069   6.806   6.897  0.1221  0.6212  0.3296
  886MOL0     C19535   6.177   6.849   6.812  0.3103  0.1960  1.0394
  886MOL0     C19536   6.310   6.818   6.889  0.0638 -1.1930 -0.0925
  886MOL0     C19537   6.360   6.677   6.911  0.1798  0.1417 -0.2228
  886MOL0     C19538   6.288   6.598   7.025  0.4201  1.0922 -0.7944
  886MOL0     C19539   6.349   6.462   7.025  0.3197  0.4692  0.8685
  886MOL0     C19540   6.390   6.346   6.999  0.1443  0.3872 -0.4397
  886MOL0     C19541   5.902   6.888   6.738  0.0758 -0.8179  0.7010
  886MOL0     C19542   5.766   6.886   6.697 -0.6692  0.4608 -0.2678
  886MOL0     H19543   5.286   6.730   6.615  1.1903  1.7100 -0.2821
  886MOL0     H19544   5.043   6.728   6.604  0.7349 -2.2866  0.0200
  886MOL0     H19545   4.854   6.713   6.989  3.4750 -3.4703 -2.1897
  886MOL0     H19546   4.757   6.851   6.922 -1.4032  0.5996 -4.3202
  886MOL0     H19547   4.634   6.701   6.770  2.9184 -0.9422 -0.9966
  886MOL0     H19548   4.725   6.568   6.839 -0.3673 -0.7091 -1.1174
  886MOL0     H19549   4.639   6.615   7.065 -0.2886  0.6668  0.3913
  886MOL0     H19550   4.548   6.749   7.006 -0.6068  0.6694 -4.0141
  886MOL0     H19551   4.442   6.609   6.822 -1.4061 -0.5754  0.1366
  886MOL0     H19552   4.508   6.460   6.907 -1.9629 -1.3312 -0.2975
  886MOL0     H19553   4.397   6.524   7.112 -0.6261  1.0177  0.8393
  886MOL0     H19554   4.333   6.671   7.047  0.1347 -0.7214  2.3889
  886MOL0     H19555   4.178   6.554   6.909  0.5364 -1.2503 -1.6932
  886MOL0     H19556   4.267   6.410   6.894  1.6804 -1.5311  2.3468
  886MOL0     H19557   4.177   6.344   7.135 -2.2187 -1.7308 -0.9499
  886MOL0     H19558   4.109   6.506   7.143  5.0356  0.6627  1.5410
  886MOL0     H19559   4.031   6.324   6.906 -0.5033  2.4230 -1.2703
  886MOL0     H19560   3.936   6.440   6.992  1.2259  0.4391 -0.9910
  886MOL0     H19561   3.821   6.390   7.223  1.4980  1.0433  1.3894
  886MOL0     H19562   3.770   6.153   7.463  0.4572  3.0099 -0.3995
  886MOL0     H19563   3.657   6.235   7.346  1.4054  0.8932 -0.8049
  886MOL0     H19564   3.599   6.008   7.249 -3.1198 -2.5434  0.2883
  886MOL0     H19565   3.555   6.036   7.414 -1.0164 -2.2210 -1.8416
  886MOL0     H19566   3.755   5.905   7.498  1.1181 -0.8770 -1.0027
  886MOL0     H19567   3.821   5.908   7.338  0.4849  1.2994  0.7997
  886MOL0     H19568   3.691   5.700   7.419 -0.0341 -1.4597 -0.8083
  886MOL0     H19569   3.628   5.753   7.269  1.6211 -0.5548  0.7799
  886MOL0     H19570   3.462   5.578   7.261  0.1199  0.1109 -0.1763
  886MOL0     H19571   3.221   5.376   7.211 -1.2019 -0.9008 -0.2644
  886MOL0     H19572   3.163   5.501   7.093  0.9384 -2.5064 -0.2090
  886MOL0     H19573   3.327   5.454   7.092 -2.4923 -1.1179 -4.9510
  886MOL0     H19574   2.774   5.583   7.121 -0.3227 -2.7016  0.5761
  886MOL0     H19575   2.522   5.560   7.087  1.0964  0.2291 -0.2916
  886MOL0     H19576   2.293   5.514   7.439 -2.0272 -1.2990 -2.4631
  886MOL0     H19577   2.276   5.690   7.428 -2.5854 -0.4366  2.2107
  886MOL0     H19578   2.110   5.488   7.278  1.9722  0.1104  1.6463
  886MOL0     H19579   2.056   5.576   7.424  0.7859 -0.2725  0.6672
  886MOL0     H19580   1.979   5.680   7.210  1.2164  3.3664 -2.2357
  886MOL0     H19581   2.145   5.707   7.173 -1.7957 -2.3043 -1.6225
  886MOL0     H19582   1.953   5.823   7.399  0.7245 -1.0992  0.6258
  886MOL0     H19583   2.128   5.847   7.427 -3.6472  4.5393  2.8122
  886MOL0     H19584   1.949   5.943   7.208  0.0331 -1.4162 -1.1485
  886MOL0     H19585   2.126   5.936   7.198 -0.4352  0.0280  0.0629
  886MOL0     H19586   1.959   6.059   7.427  0.8446  1.5253  1.1124
  886MOL0     H19587   2.118   6.105   7.401  1.4557 -0.5792 -2.6436
  886MOL0     H19588   1.881   6.141   7.207  0.2410  0.5414 -0.0358
  886MOL0     H19589   2.041   6.218   7.171 -0.8711 -2.7169 -2.4137
  886MOL0     H19590   1.913   6.402   7.250 -0.4607 -0.0739  0.4405
  886MOL0     H19591   2.028   6.350   7.361 -1.2895  2.4923  0.2904
  886MOL0     H19592   2.482   5.655   7.504  3.3416 -0.2067  2.0468
  886MOL0     H19593   2.712   5.667   7.535 -0.4099 -1.5657 -0.1668
  886MOL0     H19594   3.071   5.789   7.462 -0.9954 -0.8018 -1.7006
  886MOL0     H19595   3.259   5.880   7.503 -2.6144 -0.5879  0.1255
  886MOL0     H19596   5.023   6.852   7.011 -0.2048 -2.7383  0.6518
  886MOL0     H19597   5.279   6.864   7.019 -0.6723  0.3937  0.6314
  886MOL0     H19598   5.638   6.744   6.975 -0.8447 -0.3704 -1.3621
  886MOL0     H19599   5.848   6.708   7.029 -1.8295 -0.0054  1.3447
  886MOL0     H19600   6.165   6.789   6.722 -3.4384  2.1396  0.0229
  886MOL0     H19601   6.168   6.956   6.789 -1.2992 -0.4689 -1.9128
  886MOL0     H19602   6.297   6.873   6.982 -0.4762 -1.0547 -0.2498
  886MOL0     H19603   6.383   6.874   6.830 -0.6979 -0.4039 -0.2949
  886MOL0     H19604   6.466   6.679   6.941  0.5377 -2.1453 -1.1570
  886MOL0     H19605   6.360   6.632   6.811 -0.6842  1.2152 -0.7223
  886MOL0     H19606   6.188   6.593   6.981  0.3920 -1.2715 -0.6084
  886MOL0     H19607   6.281   6.646   7.123 -1.3082  0.9602 -0.8124
  886MOL0     H19608   6.436   6.253   6.975 -0.3393  0.4712 -1.7811
  886MOL0     H19609   5.967   6.936   6.665 -3.8698  0.0387 -2.5878
  886MOL0     H19610   5.750   6.942   6.605  1.7697  1.7600 -0.0058
  887MOL0     O19611   6.351   9.237   8.218  0.2147  0.4706  0.0534
  887MOL0     C19612   6.338   9.155   8.314 -0.2587 -0.0390  0.2170
  887MOL0     O19613   6.412   9.152   8.426 -0.4124  0.1102 -0.5163
  887MOL0     C19614   6.514   9.231   8.457 -0.8026 -0.2721  0.3312
  887MOL0     C19615   6.530   9.360   8.405 -0.4048 -0.5706 -0.6272
  887MOL0     C19616   6.645   9.436   8.440  0.7479 -0.2526  0.4524
  887MOL0     C19617   6.733   9.386   8.532  0.2441 -0.1525 -0.6852
  887MOL0     O19618   6.841   9.470   8.553  0.0684 -0.0635 -0.5479
  887MOL0     C19619   6.924   9.432   8.661 -0.0907 -0.5600  0.5788
  887MOL0     C19620   6.857   9.445   8.795  0.2207  0.0975  0.2998
  887MOL0     C19621   6.803   9.579   8.812 -0.2600 -0.3927  0.2600
  887MOL0     C19622   6.779   9.619   8.963  0.9476  0.7067 -0.2723
  887MOL0     C19623   6.711   9.747   8.977 -0.2583  1.3442  0.2572
  887MOL0     C19624   6.718   9.785   9.128  0.1456  0.0825  0.5704
  887MOL0     C19625   6.678   9.935   9.138 -0.9638  0.4796 -0.6813
  887MOL0     C19626   6.551   9.971   9.076 -0.0399  0.1689 -0.0260
  887MOL0     N19627   6.533  10.118   9.089  0.6388 -0.0086 -0.3824
  887MOL0     C19628   6.437  10.185   9.172  0.5180  0.2592 -0.4653
  887MOL0     C19629   6.453  10.313   9.136 -0.7684  0.3020  0.0732
  887MOL0     C19630   6.386  10.432   9.204 -0.9317 -0.0212 -0.1287
  887MOL0     C19631   6.237  10.406   9.210 -0.5955 -0.1222  0.4753
  887MOL0     C19632   6.164  10.402   9.072  0.3100  0.4290  0.2415
  887MOL0     C19633   6.012  10.371   9.082  0.2629 -0.2974  0.0104
  887MOL0     O19634   6.007  10.248   9.155  0.1739  0.2405 -0.8980
  887MOL0     C19635   5.883  10.208   9.205 -0.7055  0.3652 -0.2378
  887MOL0     C19636   5.893  10.116   9.309 -0.0234  0.2869  0.6820
  887MOL0     C19637   5.776  10.079   9.386 -0.2991 -0.0911  0.4068
  887MOL0     C19638   5.790   9.997   9.509 -0.4234 -0.2549  0.0988
  887MOL0     C19639   5.648  10.120   9.329  0.9282  0.5027  0.0357
  887MOL0     C19640   5.515  10.082   9.387  1.0191  0.4139  0.0950
  887MOL0     O19641   5.398  10.143   9.333 -0.3642 -0.9648 -0.5202
  887MOL0     C19642   5.280  10.086   9.359 -0.1432  0.0897 -0.0743
  887MOL0     C19643   5.242   9.950   9.363  0.0744  0.0423  1.0016
  887MOL0     C19644   5.114   9.907   9.367  0.2224 -0.8179 -0.3163
  887MOL0     C19645   5.013  10.002   9.385 -0.1023 -0.6374  1.0292
  887MOL0     O19646   4.895   9.934   9.392 -0.8358 -0.1688  0.4855
  887MOL0     C19647   4.777  10.006   9.395  0.3421  0.7283  0.2848
  887MOL0     C19648   4.663   9.916   9.436  0.1948  0.0103  0.1103
  887MOL0     C19649   4.575   9.851   9.328 -0.0328 -0.2249  0.2726
  887MOL0     C19650   4.633   9.715   9.281  0.3549 -0.3321  0.9758
  887MOL0     C19651   4.696   9.719   9.138  0.7383 -0.0675 -0.2396
  887MOL0     C19652   4.580   9.711   9.027  0.1205 -0.1350 -0.1883
  887MOL0     C19653   4.652   9.692   8.889 -0.1567 -0.2729 -0.0852
  887MOL0     C19654   4.544   9.649   8.788 -0.5359 -0.2044  0.9452
  887MOL0    Cl19655   4.474   9.492   8.831 -0.0754 -0.3001 -0.1071
  887MOL0     C19656   5.037  10.139   9.382 -0.1330  0.8986 -0.2880
  887MOL0     C19657   5.169  10.171   9.354 -0.6153  0.3384 -0.1670
  887MOL0     O19658   5.505  10.016   9.494 -0.3838  0.2251  0.2990
  887MOL0     C19659   5.641  10.204   9.216 -0.8334 -0.0047 -0.3515
  887MOL0     C19660   5.763  10.247   9.157 -0.6794 -0.9208 -0.2532
  887MOL0     N19661   6.546  10.325   9.036 -0.1099  0.1655  0.1626
  887MOL0     N19662   6.601  10.209   9.009  0.5909  0.3247  1.1249
  887MOL0     C19663   6.712   9.261   8.592 -0.1002 -0.0932 -0.3066
  887MOL0     C19664   6.601   9.185   8.552 -0.1041 -0.5306  0.7190
  887MOL0     C19665   6.224   9.063   8.302 -0.3394  0.9168 -0.7565
  887MOL0     C19666   6.218   8.939   8.363 -0.0625  0.9277  0.4175
  887MOL0     C19667   6.115   8.852   8.331  0.7828 -0.0210  0.3173
  887MOL0     C19668   6.015   8.883   8.237 -1.0063 -0.1295  0.0669
  887MOL0     O19669   5.904   8.815   8.201 -0.1634 -0.4107  0.0621
  887MOL0     C19670   5.882   8.682   8.240  0.1539  0.6020 -1.1005
  887MOL0     C19671   5.784   8.613   8.152  1.1579 -0.1532 -1.0086
  887MOL0     C19672   5.714   8.491   8.225 -0.2106 -0.2380  0.1802
  887MOL0     C19673   5.604   8.431   8.144 -0.2657 -0.5019  0.8509
  887MOL0     C19674   5.504   8.359   8.225  0.6631  0.6183 -0.2788
  887MOL0     C19675   5.427   8.298   8.293 -0.5372 -0.6057 -0.0895
  887MOL0     C19676   6.017   9.015   8.196 -0.0029 -0.0996  0.2280
  887MOL0     C19677   6.116   9.101   8.230 -0.6091 -0.3504  0.1453
  887MOL0     H19678   6.465   9.408   8.333  1.1913 -0.9997 -2.4228
  887MOL0     H19679   6.645   9.538   8.404 -2.1027  0.9062  3.2228
  887MOL0     H19680   6.967   9.332   8.648  1.2365  0.2413 -1.9569
  887MOL0     H19681   6.999   9.511   8.656 -0.4316 -0.2953 -1.7260
  887MOL0     H19682   6.786   9.362   8.806 -0.6922  0.7136 -0.7333
  887MOL0     H19683   6.941   9.427   8.863  1.5671  1.0265 -1.0631
  887MOL0     H19684   6.873   9.644   8.759 -0.6924 -1.3447 -1.5948
  887MOL0     H19685   6.713   9.594   8.751  0.8962  1.2173 -1.1739
  887MOL0     H19686   6.715   9.539   9.003  2.2707 -1.2782 -1.9171
  887MOL0     H19687   6.870   9.623   9.023  0.4555  1.8001  0.4373
  887MOL0     H19688   6.775   9.820   8.926  0.1692 -0.2124 -1.5639
  887MOL0     H19689   6.613   9.739   8.929  0.9981 -0.2319 -2.2625
  887MOL0     H19690   6.651   9.728   9.194 -0.0412  1.4883  1.6398
  887MOL0     H19691   6.819   9.769   9.166 -0.0832 -0.9875  0.7546
  887MOL0     H19692   6.648   9.949   9.242 -1.7489  1.4376 -1.0339
  887MOL0     H19693   6.763   9.996   9.106  0.3874 -1.5523 -1.2352
  887MOL0     H19694   6.473   9.919   9.132  0.5013 -1.5329 -0.7831
  887MOL0     H19695   6.542   9.946   8.970  1.4980  0.0913 -0.1605
  887MOL0     H19696   6.367  10.144   9.245  0.5641  0.1073 -0.5074
  887MOL0     H19697   6.439  10.461   9.296  0.9724  0.8366 -1.4357
  887MOL0     H19698   6.404  10.517   9.137  0.3667  1.3370  1.8144
  887MOL0     H19699   6.187  10.486   9.266  0.6095  0.9392  0.0838
  887MOL0     H19700   6.216  10.316   9.268  2.8806 -0.1373  1.9820
  887MOL0     H19701   6.198  10.331   8.997 -0.3164 -1.1056  1.3730
  887MOL0     H19702   6.176  10.503   9.030 -1.1955  1.1010  1.3345
  887MOL0     H19703   5.979  10.365   8.977  1.2354 -0.8163 -0.2790
  887MOL0     H19704   5.949  10.447   9.128 -2.1531 -1.8345 -0.5896
  887MOL0     H19705   5.992  10.095   9.348 -1.2468  0.4278  4.3199
  887MOL0     H19706   5.756   9.895   9.490  3.5237 -1.4685 -1.6396
  887MOL0     H19707   5.896   9.993   9.539  0.2814 -0.6590 -2.2310
  887MOL0     H19708   5.722  10.046   9.579 -0.9287 -1.1758  0.2649
  887MOL0     H19709   5.319   9.875   9.351  1.1856  1.3860 -0.8853
  887MOL0     H19710   5.095   9.801   9.366  2.4350 -1.2618 -0.8424
  887MOL0     H19711   4.785  10.075   9.480 -0.5744  0.2665  0.7582
  887MOL0     H19712   4.751  10.055   9.300 -2.1349 -0.2536  0.4054
  887MOL0     H19713   4.707   9.838   9.499  0.1226 -0.0090  0.1361
  887MOL0     H19714   4.599   9.979   9.499  1.7701  1.8199  0.0355
  887MOL0     H19715   4.574   9.921   9.244  1.0919  0.4532  0.8062
  887MOL0     H19716   4.470   9.837   9.359 -1.4623  2.2701 -2.9366
  887MOL0     H19717   4.705   9.682   9.355  0.4245 -2.1042  0.1608
  887MOL0     H19718   4.551   9.643   9.274  0.0411  0.0979 -0.0293
  887MOL0     H19719   4.761   9.632   9.128 -0.9263 -1.2747 -1.2408
  887MOL0     H19720   4.750   9.813   9.123 -0.4013  0.4582 -1.2424
  887MOL0     H19721   4.503   9.637   9.047  1.0641 -1.1731 -0.3040
  887MOL0     H19722   4.532   9.809   9.035 -3.5097 -1.7505 -0.4140
  887MOL0     H19723   4.730   9.615   8.897 -2.5649 -2.6350  2.8962
  887MOL0     H19724   4.696   9.786   8.855 -0.3266 -0.5515 -1.0940
  887MOL0     H19725   4.574   9.632   8.684 -1.4960  0.5900  0.5292
  887MOL0     H19726   4.472   9.730   8.789 -1.8016 -1.2545 -0.9749
  887MOL0     H19727   4.954  10.209   9.389 -0.0755  0.8511  1.0532
  887MOL0     H19728   5.199  10.276   9.352 -1.0587  0.4587 -0.8627
  887MOL0     H19729   5.548  10.235   9.169 -1.0560  0.2171  0.2369
  887MOL0     H19730   5.754  10.335   9.095 -1.6862  0.0284  1.1830
  887MOL0     H19731   6.785   9.223   8.662  0.7958 -0.3796 -1.3711
  887MOL0     H19732   6.574   9.091   8.600  0.8964 -1.2435 -0.0754
  887MOL0     H19733   6.280   8.896   8.442  0.2118 -4.5309 -2.2646
  887MOL0     H19734   6.107   8.758   8.386  1.4492 -0.7058 -0.7065
  887MOL0     H19735   5.974   8.624   8.233  0.9687  1.7284 -0.0927
  887MOL0     H19736   5.830   8.685   8.337  1.3957  2.7429 -0.4327
  887MOL0     H19737   5.832   8.582   8.058  1.9108 -0.9805 -0.3651
  887MOL0     H19738   5.703   8.681   8.122 -0.0554 -0.5175  1.2611
  887MOL0     H19739   5.679   8.504   8.327  2.6077 -0.0982  1.2237
  887MOL0     H19740   5.795   8.419   8.239 -1.3393 -2.1086 -2.0888
  887MOL0     H19741   5.648   8.365   8.069 -2.0307  3.6517 -4.5158
  887MOL0     H19742   5.554   8.491   8.068  1.9199  0.2140 -0.0919
  887MOL0     H19743   5.349   8.247   8.345  0.1940 -0.7874  0.8539
  887MOL0     H19744   5.927   9.060   8.153  1.1606  4.7101  2.1531
  887MOL0     H19745   6.104   9.202   8.193 -1.0133 -0.9784 -1.5114
  888MOL0     O19746   4.629   9.320   3.106  0.4864  0.3134  0.4191
  888MOL0     C19747   4.627   9.265   3.221 -0.2753 -0.7319 -0.3492
  888MOL0     O19748   4.519   9.232   3.290  0.3570  0.5967  0.6213
  888MOL0     C19749   4.395   9.279   3.241  0.2986  0.0122 -0.5464
  888MOL0     C19750   4.328   9.198   3.150  0.7915  0.5615 -0.0797
  888MOL0     C19751   4.202   9.243   3.110 -0.3564 -0.1904 -0.6411
  888MOL0     C19752   4.149   9.369   3.152  0.2444  0.1766 -0.5758
  888MOL0     O19753   4.020   9.390   3.111 -0.0995 -0.7080  0.6907
  888MOL0     C19754   3.957   9.506   3.156  0.6102 -0.7336 -0.3739
  888MOL0     C19755   3.814   9.519   3.098 -0.5642  0.6472 -0.1053
  888MOL0     C19756   3.731   9.639   3.145  0.0660 -0.4417  0.1101
  888MOL0     C19757   3.770   9.775   3.090 -0.8158 -0.4321 -1.1813
  888MOL0     C19758   3.679   9.887   3.147 -0.3681  0.7822 -0.1145
  888MOL0     C19759   3.715  10.032   3.107 -0.3580 -0.6460  0.1242
  888MOL0     C19760   3.619  10.138   3.148  0.6000 -0.7474 -0.1460
  888MOL0     C19761   3.576  10.128   3.289 -0.2023 -0.0718  0.7075
  888MOL0     N19762   3.666  10.194   3.386  1.0779  0.3559  0.6758
  888MOL0     C19763   3.765  10.140   3.452  0.1846  0.9343  0.1903
  888MOL0     C19764   3.793  10.220   3.557  0.5197 -1.2674  0.9804
  888MOL0     C19765   3.894  10.188   3.660  0.3510 -0.0445 -0.3893
  888MOL0     C19766   4.003  10.288   3.635  0.3255 -0.9361  0.6346
  888MOL0     C19767   4.131  10.235   3.694  0.1196  0.0306 -0.4002
  888MOL0     C19768   4.253  10.334   3.661  0.9985  0.7842  0.8817
  888MOL0     O19769   4.235  10.437   3.767 -0.0703  0.1333  0.2285
  888MOL0     C19770   4.290  10.419   3.891  0.3044  0.0595  1.0244
  888MOL0     C19771   4.361  10.305   3.927 -0.4465 -0.0311  0.5366
  888MOL0     C19772   4.412  10.292   4.056  0.0246 -0.0941 -0.3547
  888MOL0     C19773   4.470  10.163   4.093 -0.4761 -0.3531 -0.2812
  888MOL0     C19774   4.399  10.400   4.152 -0.8547 -0.5378 -0.1059
  888MOL0     C19775   4.462  10.405   4.282  0.0834 -1.2596 -0.4459
  888MOL0     O19776   4.408  10.500   4.376 -0.2109  0.0808 -0.4401
  888MOL0     C19777   4.434  10.491   4.509 -0.3210  0.6413  1.2780
  888MOL0     C19778   4.489  10.606   4.566 -0.7128 -0.2299 -0.5758
  888MOL0     C19779   4.508  10.605   4.710 -0.4825 -0.5524  0.9282
  888MOL0     C19780   4.468  10.493   4.783 -0.1509  0.4165  0.3420
  888MOL0     O19781   4.480  10.516   4.915 -0.2729 -0.5562 -0.2993
  888MOL0     C19782   4.523  10.410   4.995 -0.0356 -0.7060 -0.3327
  888MOL0     C19783   4.564  10.461   5.135 -0.4998 -0.8582 -1.0936
  888MOL0     C19784   4.453  10.510   5.233 -0.4627 -1.2634 -0.0246
  888MOL0     C19785   4.389  10.388   5.287  0.1691  0.0518 -0.0330
  888MOL0     C19786   4.477  10.337   5.407  0.6183  0.8751  0.0641
  888MOL0     C19787   4.404  10.229   5.477 -0.3012  0.2012  0.0645
  888MOL0     C19788   4.499  10.194   5.605 -0.0692 -0.3783 -0.5170
  888MOL0     C19789   4.418  10.118   5.709  0.0910  0.2505 -0.4508
  888MOL0    Cl19790   4.545  10.087   5.833 -0.2225 -0.4532  0.0334
  888MOL0     C19791   4.402  10.384   4.720  0.0109  0.0249  0.4368
  888MOL0     C19792   4.384  10.385   4.581 -0.5114  0.0960  0.5127
  888MOL0     O19793   4.560  10.335   4.304  0.0160 -0.6885 -0.2187
  888MOL0     C19794   4.323  10.510   4.113 -0.4525  0.0143  0.1946
  888MOL0     C19795   4.264  10.515   3.988 -0.1805 -0.7753  0.1251
  888MOL0     N19796   3.709  10.330   3.550  0.0701 -0.5934  0.0162
  888MOL0     N19797   3.637  10.315   3.445 -1.1022 -0.4717 -0.0924
  888MOL0     C19798   4.229   9.451   3.231 -0.4945  0.2307  0.1487
  888MOL0     C19799   4.352   9.405   3.277 -0.0686 -0.7566  0.0744
  888MOL0     C19800   4.746   9.192   3.277  0.5780  0.4198 -0.2888
  888MOL0     C19801   4.730   9.089   3.372 -0.1326 -0.4906 -0.2486
  888MOL0     C19802   4.832   9.027   3.422  0.2221 -0.1170  0.1323
  888MOL0     C19803   4.960   9.045   3.379 -0.6125  0.0394  0.8197
  888MOL0     O19804   5.073   8.978   3.420 -0.1638 -0.3272 -1.0921
  888MOL0     C19805   5.062   8.847   3.482  1.1875  0.2867 -0.9107
  888MOL0     C19806   5.047   8.736   3.375  0.3183  0.4052 -0.9789
  888MOL0     C19807   4.977   8.769   3.245 -0.6242  0.3140  0.0747
  888MOL0     C19808   4.999   8.654   3.155  0.1297  1.2810  1.0072
  888MOL0     C19809   4.913   8.537   3.168 -0.3943 -1.2919  0.2184
  888MOL0     C19810   4.831   8.460   3.200 -0.0469 -0.5040 -0.1584
  888MOL0     C19811   4.979   9.140   3.276  0.0682  0.0400  0.3071
  888MOL0     C19812   4.873   9.215   3.233 -0.2120 -0.0715  0.4585
  888MOL0     H19813   4.372   9.102   3.126 -0.6186  0.1988 -1.3670
  888MOL0     H19814   4.156   9.180   3.035  2.4158 -2.7732 -0.4143
  888MOL0     H19815   3.941   9.483   3.262 -0.2664 -0.3070 -0.4025
  888MOL0     H19816   4.018   9.588   3.116  1.2515 -2.3800 -3.0252
  888MOL0     H19817   3.828   9.507   2.990 -0.1116  1.6056 -0.1551
  888MOL0     H19818   3.757   9.428   3.120 -1.2958  0.8782 -0.9946
  888MOL0     H19819   3.629   9.612   3.116  0.5966 -1.9117 -0.4803
  888MOL0     H19820   3.728   9.641   3.254 -0.7135 -0.1869  0.0879
  888MOL0     H19821   3.870   9.801   3.126 -1.7027 -0.0047  1.1234
  888MOL0     H19822   3.775   9.765   2.981 -1.3250  0.1840 -1.2620
  888MOL0     H19823   3.574   9.859   3.131 -0.3331 -2.5861  3.7060
  888MOL0     H19824   3.695   9.877   3.255 -2.2887 -0.8304  0.0841
  888MOL0     H19825   3.812  10.056   3.150 -0.8635 -0.7140  1.3385
  888MOL0     H19826   3.715  10.029   2.997  0.4429 -0.3461  0.1128
  888MOL0     H19827   3.673  10.230   3.124 -0.7151 -0.3045 -1.5204
  888MOL0     H19828   3.524  10.132   3.095  0.3412  1.0008  0.0483
  888MOL0     H19829   3.562  10.027   3.329  0.2877 -0.3134  0.2886
  888MOL0     H19830   3.476  10.171   3.296 -0.5777 -0.6673 -0.7716
  888MOL0     H19831   3.795  10.037   3.438  1.2865  1.3666 -0.8447
  888MOL0     H19832   3.862  10.201   3.763  1.8386  0.1266  0.0728
  888MOL0     H19833   3.930  10.086   3.642 -0.1917 -0.3037 -0.0082
  888MOL0     H19834   3.985  10.385   3.683  0.6279  0.2588 -1.5202
  888MOL0     H19835   4.010  10.311   3.528 -0.6286  1.5900  1.0560
  888MOL0     H19836   4.159  10.138   3.653  2.2014  0.2224  0.4622
  888MOL0     H19837   4.122  10.226   3.803  0.8724  0.8189 -0.2616
  888MOL0     H19838   4.236  10.377   3.562  0.4431 -0.2509  0.5114
  888MOL0     H19839   4.350  10.283   3.667  0.9840  0.0289 -3.0023
  888MOL0     H19840   4.386  10.224   3.859 -3.1646 -0.0047 -0.6237
  888MOL0     H19841   4.577  10.184   4.100 -0.8661  1.4267  1.0740
  888MOL0     H19842   4.435  10.134   4.193  1.9100  0.4912  0.8742
  888MOL0     H19843   4.435  10.089   4.021  0.2508  0.6967 -1.7453
  888MOL0     H19844   4.525  10.700   4.524  0.8384  0.7070  2.5222
  888MOL0     H19845   4.552  10.688   4.764  0.2083  0.3265 -0.9334
  888MOL0     H19846   4.443  10.337   5.010 -1.7520  1.0651 -0.3627
  888MOL0     H19847   4.610  10.362   4.951  1.6072 -0.3047  2.2509
  888MOL0     H19848   4.636  10.396   5.185  0.0738  0.4684 -0.1388
  888MOL0     H19849   4.620  10.551   5.111  0.1775 -1.3375 -1.3502
  888MOL0     H19850   4.375  10.567   5.181 -1.9101 -1.3482  1.9121
  888MOL0     H19851   4.501  10.579   5.302 -1.1428  1.2122 -1.8869
  888MOL0     H19852   4.291  10.415   5.327 -0.4339 -1.0133 -0.7257
  888MOL0     H19853   4.375  10.300   5.223 -1.1555 -0.6860  1.2082
  888MOL0     H19854   4.490  10.417   5.481 -1.8348 -0.3783  1.9806
  888MOL0     H19855   4.579  10.315   5.374  0.6677 -0.4721  1.0551
  888MOL0     H19856   4.304  10.266   5.501 -1.0379 -0.3282 -1.9393
  888MOL0     H19857   4.400  10.140   5.413 -0.0681 -1.7458  2.5920
  888MOL0     H19858   4.538  10.285   5.652  0.7004  0.0140 -1.8647
  888MOL0     H19859   4.586  10.136   5.573 -0.0126 -1.5754  1.6498
  888MOL0     H19860   4.374  10.025   5.671 -2.3386  1.8455 -1.8086
  888MOL0     H19861   4.331  10.172   5.748 -0.7958 -0.8604 -0.8188
  888MOL0     H19862   4.372  10.300   4.781  2.4683 -0.8191  0.6166
  888MOL0     H19863   4.351  10.290   4.539  0.3271 -0.3011  0.7466
  888MOL0     H19864   4.317  10.592   4.183  2.1311 -1.0317  1.8034
  888MOL0     H19865   4.210  10.608   3.972  0.9554  0.7540  3.9596
  888MOL0     H19866   4.190   9.543   3.272  2.4882  1.0871  1.3190
  888MOL0     H19867   4.413   9.460   3.348  0.4052  0.5007 -1.2738
  888MOL0     H19868   4.639   9.081   3.431 -0.8817 -0.4879 -1.3703
  888MOL0     H19869   4.811   8.950   3.495  1.7438 -2.1323 -1.4545
  888MOL0     H19870   5.150   8.829   3.545  0.3956  0.5075  0.2956
  888MOL0     H19871   4.980   8.847   3.555 -0.3839  0.5455 -2.6286
  888MOL0     H19872   4.993   8.651   3.418  0.6382  1.9120  2.7980
  888MOL0     H19873   5.146   8.697   3.353 -0.9378 -2.1465 -2.5664
  888MOL0     H19874   5.028   8.852   3.195  2.3622 -1.1784  0.3949
  888MOL0     H19875   4.871   8.789   3.263 -1.1620  0.4036 -2.7621
  888MOL0     H19876   5.103   8.622   3.152 -0.4631 -0.9100  1.6872
  888MOL0     H19877   4.996   8.692   3.053 -0.4116 -1.6282 -0.1477
  888MOL0     H19878   4.753   8.393   3.228 -2.5380  2.3521  0.2173
  888MOL0     H19879   5.073   9.139   3.222  0.6449 -0.2969  1.2836
  888MOL0     H19880   4.884   9.294   3.159 -2.2904  1.0109  1.2102
  889MOL0     O19881  11.239   5.327  10.260 -0.2365 -0.1566 -0.2534
  889MOL0     C19882  11.289   5.311  10.374 -0.0287 -0.4322  0.5937
  889MOL0     O19883  11.293   5.418  10.463  0.3812 -0.3828 -0.2928
  889MOL0     C19884  11.206   5.521  10.443 -0.0365 -0.5016  0.6180
  889MOL0     C19885  11.255   5.651  10.418  0.7351 -0.2282  1.0862
  889MOL0     C19886  11.163   5.752  10.404  0.0678 -1.4981  0.2406
  889MOL0     C19887  11.025   5.736  10.399  0.9390  1.1672  0.1643
  889MOL0     O19888  10.939   5.841  10.387  0.1222 -0.4893 -0.6593
  889MOL0     C19889  10.855   5.846  10.269 -1.0468  0.0478 -0.0691
  889MOL0     C19890  10.815   5.989  10.225  0.3420  0.3706 -0.8463
  889MOL0     C19891  10.791   6.108  10.327  1.0729  1.2107  0.1212
  889MOL0     C19892  10.780   6.233  10.247 -1.0375 -0.2103  0.7451
  889MOL0     C19893  10.635   6.252  10.195 -1.4653 -0.5950  0.0202
  889MOL0     C19894  10.617   6.388  10.136  0.0227 -0.3918 -0.1066
  889MOL0     C19895  10.681   6.417   9.999  0.9359  0.3719 -0.1145
  889MOL0     C19896  10.637   6.322   9.872  0.2227 -0.0184 -0.1126
  889MOL0     N19897  10.735   6.215   9.835 -0.2820  0.0557  0.3928
  889MOL0     C19898  10.736   6.097   9.880 -0.1950 -0.3041 -0.2933
  889MOL0     C19899  10.852   6.037   9.825  0.4297 -0.8015 -0.3255
  889MOL0     C19900  10.875   5.891   9.824  0.8040  0.2491 -0.0535
  889MOL0     C19901  10.772   5.813   9.737 -0.1103  0.4708  0.1237
  889MOL0     C19902  10.787   5.810   9.582  0.0801 -0.4381 -0.7173
  889MOL0     C19903  10.928   5.770   9.543  1.1545  0.2175  0.2375
  889MOL0     O19904  11.010   5.887   9.550  0.0626 -0.9166 -0.2785
  889MOL0     C19905  11.145   5.872   9.565  0.0923  0.0865 -0.5605
  889MOL0     C19906  11.213   5.992   9.588 -0.6035  0.4115 -0.4339
  889MOL0     C19907  11.355   5.999   9.609  0.0075  1.0169 -0.1728
  889MOL0     C19908  11.403   6.143   9.614  0.2610  1.1402 -1.1946
  889MOL0     C19909  11.430   5.871   9.609  0.6434  0.4945  0.5934
  889MOL0     C19910  11.568   5.858   9.652 -0.1459  0.3574  0.1840
  889MOL0     O19911  11.624   5.735   9.643  0.4501  0.1723 -0.7030
  889MOL0     C19912  11.763   5.717   9.661  0.8107 -0.5668  0.0103
  889MOL0     C19913  11.829   5.754   9.781 -1.0306 -1.1154 -0.3611
  889MOL0     C19914  11.963   5.719   9.797 -0.0310 -1.1133  0.1050
  889MOL0     C19915  12.039   5.662   9.696  0.0888  0.3448  0.5123
  889MOL0     O19916  12.176   5.655   9.721 -0.7443 -0.0501  0.4301
  889MOL0     C19917  12.269   5.627   9.620  0.4609  0.6313 -0.0487
  889MOL0     C19918  12.289   5.481   9.604  0.0718  0.3231 -0.2228
  889MOL0     C19919  12.345   5.429   9.737 -0.5182 -0.7422 -0.4687
  889MOL0     C19920  12.348   5.278   9.746 -0.2528 -0.2303 -0.2782
  889MOL0     C19921  12.452   5.211   9.657  0.1573  0.0709 -0.3960
  889MOL0     C19922  12.592   5.222   9.714 -1.2208 -0.2807  0.4988
  889MOL0     C19923  12.690   5.128   9.631 -0.1170 -0.6310  0.4579
  889MOL0     C19924  12.693   5.165   9.484 -0.0643 -0.5483 -0.4337
  889MOL0    Cl19925  12.714   5.340   9.462 -0.3522 -0.0660  0.0971
  889MOL0     C19926  11.974   5.631   9.574 -0.2388 -0.5604 -0.2881
  889MOL0     C19927  11.838   5.652   9.561 -0.0848 -0.0743  0.2732
  889MOL0     O19928  11.631   5.955   9.697  0.3925 -0.1933  0.0600
  889MOL0     C19929  11.357   5.751   9.582 -0.5557  0.0143 -0.3426
  889MOL0     C19930  11.215   5.752   9.558 -0.1742  0.9181 -0.0538
  889MOL0     N19931  10.931   6.139   9.767 -0.1998 -0.7254  0.3499
  889MOL0     N19932  10.850   6.245   9.781  0.0374 -0.0207 -0.2931
  889MOL0     C19933  10.976   5.602  10.420 -0.2937  0.2273 -0.3060
  889MOL0     C19934  11.066   5.499  10.444  0.2536 -1.3078  0.7181
  889MOL0     C19935  11.379   5.202  10.394 -1.2297  0.6875  0.0378
  889MOL0     C19936  11.397   5.098  10.294  0.1787 -0.2041  0.6310
  889MOL0     C19937  11.486   4.997  10.321 -0.1943  0.2015  0.0166
  889MOL0     C19938  11.563   4.983  10.436  0.5082 -1.6743 -1.2903
  889MOL0     O19939  11.650   4.884  10.463 -0.0857 -0.5087 -0.1419
  889MOL0     C19940  11.634   4.770  10.385 -0.3796  0.2877 -0.3409
  889MOL0     C19941  11.716   4.644  10.442 -0.7148 -0.0187 -0.3247
  889MOL0     C19942  11.869   4.652  10.435 -0.0772  0.2906 -0.0712
  889MOL0     C19943  11.934   4.530  10.515 -0.7749  0.1218 -0.0902
  889MOL0     C19944  11.905   4.387  10.471  0.3070 -1.4722 -0.3131
  889MOL0     C19945  11.872   4.272  10.455 -0.3215  0.2335  0.0120
  889MOL0     C19946  11.565   5.094  10.524  1.2090 -0.8161  0.2167
  889MOL0     C19947  11.485   5.206  10.494  1.0646 -0.5274 -0.5439
  889MOL0     H19948  11.359   5.679  10.403 -0.3751  3.5407 -1.1377
  889MOL0     H19949  11.196   5.855  10.393 -0.3212 -1.1420  2.0509
  889MOL0     H19950  10.893   5.812  10.173 -0.3711 -0.0759  0.2413
  889MOL0     H19951  10.768   5.783  10.293 -0.5363  0.2542  2.7042
  889MOL0     H19952  10.908   6.010  10.171  2.5034 -0.7595  2.1585
  889MOL0     H19953  10.729   5.978  10.158 -1.9019 -3.3914  2.1519
  889MOL0     H19954  10.704   6.082  10.388  1.5898  1.5164  0.9987
  889MOL0     H19955  10.874   6.108  10.397 -1.6490  1.6600  3.6358
  889MOL0     H19956  10.801   6.321  10.309  1.0009  1.1897 -1.7632
  889MOL0     H19957  10.843   6.230  10.158 -3.8153  3.2411 -1.6120
  889MOL0     H19958  10.613   6.164  10.133 -1.2526 -3.4917  3.6644
  889MOL0     H19959  10.571   6.234  10.282 -0.2633 -2.6204  0.5562
  889MOL0     H19960  10.510   6.409  10.131  0.1708  0.9496  1.4020
  889MOL0     H19961  10.656   6.464  10.205 -2.1734  1.4879 -0.7994
  889MOL0     H19962  10.645   6.518   9.974  2.6751  1.4694  1.5312
  889MOL0     H19963  10.789   6.430  10.013  0.3524  3.4983  2.9638
  889MOL0     H19964  10.633   6.385   9.782 -0.9021 -2.0080 -1.5484
  889MOL0     H19965  10.540   6.272   9.881 -1.1935  2.8231  1.5854
  889MOL0     H19966  10.651   6.063   9.939  0.9591 -1.3805  0.7859
  889MOL0     H19967  10.983   5.888   9.807  0.8272 -0.1549  0.1624
  889MOL0     H19968  10.876   5.848   9.925 -1.2839  0.0909 -0.0557
  889MOL0     H19969  10.674   5.858   9.759 -0.8976 -0.7099 -0.8383
  889MOL0     H19970  10.768   5.713   9.780 -0.5279  0.5937  0.3844
  889MOL0     H19971  10.759   5.908   9.544 -2.5444 -1.2451 -1.0455
  889MOL0     H19972  10.716   5.733   9.551 -1.6959  0.1511  1.6256
  889MOL0     H19973  10.913   5.741   9.439 -3.9086 -2.5186  1.4260
  889MOL0     H19974  10.956   5.682   9.603 -0.4543 -1.3985 -1.2498
  889MOL0     H19975  11.148   6.078   9.575 -0.7512  0.3216 -0.2963
  889MOL0     H19976  11.324   6.217   9.631  1.1581  1.2482  4.0742
  889MOL0     H19977  11.462   6.154   9.705 -3.1057 -1.6739  1.5921
  889MOL0     H19978  11.455   6.151   9.518 -0.2833 -2.5704 -1.9420
  889MOL0     H19979  11.784   5.817   9.857  1.1033 -1.2506  1.1175
  889MOL0     H19980  12.015   5.760   9.883 -1.1216 -2.1926  1.3340
  889MOL0     H19981  12.246   5.678   9.526  3.4551  0.4801 -0.9710
  889MOL0     H19982  12.365   5.674   9.644 -0.1438  2.0671 -0.3417
  889MOL0     H19983  12.195   5.434   9.572  1.1531 -0.9652 -1.6792
  889MOL0     H19984  12.352   5.455   9.518 -0.3358  2.3517 -1.1881
  889MOL0     H19985  12.281   5.460   9.821  2.6691 -0.0694  1.9273
  889MOL0     H19986  12.439   5.479   9.764 -0.1042 -2.1919  0.9632
  889MOL0     H19987  12.355   5.248   9.851  2.3167 -3.0561 -1.0999
  889MOL0     H19988  12.254   5.245   9.700 -0.0656 -2.0557  0.5574
  889MOL0     H19989  12.441   5.269   9.565  3.7707  1.3841 -0.1679
  889MOL0     H19990  12.431   5.107   9.634  0.1777 -0.5404  2.0454
  889MOL0     H19991  12.626   5.325   9.724 -1.6742 -0.0653 -0.1355
  889MOL0     H19992  12.592   5.193   9.819 -2.1877  2.3095  1.2895
  889MOL0     H19993  12.668   5.022   9.645 -0.1531 -0.5824  0.7822
  889MOL0     H19994  12.794   5.148   9.659 -0.2656 -0.5527  0.9533
  889MOL0     H19995  12.600   5.124   9.445  0.0013 -0.6460 -0.4863
  889MOL0     H19996  12.780   5.112   9.445  1.6852  1.7434  0.1110
  889MOL0     H19997  12.044   5.586   9.505  0.8797  0.6029  0.0461
  889MOL0     H19998  11.794   5.627   9.465  0.7915  1.2084 -0.4956
  889MOL0     H19999  11.413   5.659   9.582  0.7225  0.7318  1.7634
  889MOL0     H20000  11.180   5.649   9.550 -0.7082  0.9944  1.1524
  889MOL0     H20001  10.869   5.583  10.421 -0.0980 -0.9952  1.0066
  889MOL0     H20002  11.024   5.399  10.449 -2.3436 -0.2801  0.7569
  889MOL0     H20003  11.326   5.117  10.214  1.7251 -0.0958 -0.7772
  889MOL0     H20004  11.485   4.913  10.253  0.3171  0.3227 -0.1426
  889MOL0     H20005  11.531   4.735  10.396 -0.3741  0.5656  0.7978
  889MOL0     H20006  11.659   4.799  10.283 -1.0679  2.6391  0.0956
  889MOL0     H20007  11.685   4.547  10.401 -0.3264 -0.1829 -0.2409
  889MOL0     H20008  11.680   4.648  10.545 -0.2688  1.4659 -0.2085
  889MOL0     H20009  11.902   4.746  10.480 -1.4249  1.8491 -2.1587
  889MOL0     H20010  11.907   4.632  10.335  1.4070  0.4199  0.4453
  889MOL0     H20011  11.923   4.547  10.622  0.7502  2.8750 -0.2864
  889MOL0     H20012  12.042   4.542  10.512 -0.5696 -1.0843  1.3960
  889MOL0     H20013  11.835   4.171  10.451 -2.1010  0.5319  3.9470
  889MOL0     H20014  11.638   5.093  10.605 -0.7820  0.0435  2.1244
  889MOL0     H20015  11.492   5.299  10.549 -0.7026 -0.7109  0.0757
  890MOL0     O20016   0.548  11.143   7.672 -0.5243  0.0594 -0.0625
  890MOL0     C20017   0.597  11.039   7.720 -0.1194  0.7013 -0.1331
  890MOL0     O20018   0.548  10.972   7.834  0.0758 -0.3360  0.0289
  890MOL0     C20019   0.432  11.014   7.889 -0.0837  0.7620 -0.3942
  890MOL0     C20020   0.319  10.996   7.810  0.6217 -0.1202  0.0406
  890MOL0     C20021   0.192  11.042   7.854  0.0552  0.0090  0.1221
  890MOL0     C20022   0.166  11.091   7.983 -0.7404 -0.3081  0.4033
  890MOL0     O20023   0.046  11.130   8.032  0.2432  0.1282 -0.1360
  890MOL0     C20024  -0.060  11.028   8.020 -0.2443  0.5771  0.2541
  890MOL0     C20025  -0.177  11.103   7.964  0.2898  0.8327 -0.8194
  890MOL0     C20026  -0.311  11.043   8.012 -0.3728 -0.7178 -0.4530
  890MOL0     C20027  -0.314  10.890   8.002 -0.5947 -1.1214 -0.0785
  890MOL0     C20028  -0.443  10.807   8.031 -0.7493 -0.4175  0.3874
  890MOL0     C20029  -0.572  10.893   8.009  0.2748 -0.0924 -0.1512
  890MOL0     C20030  -0.697  10.803   8.019 -0.1253  0.6866 -0.9047
  890MOL0     C20031  -0.832  10.878   8.006 -0.1505 -0.3408  0.1190
  890MOL0     N20032  -0.843  10.997   8.101 -0.1262  0.3785 -0.5041
  890MOL0     C20033  -0.832  11.128   8.074  0.0224 -0.7465  0.3204
  890MOL0     C20034  -0.842  11.202   8.192 -0.2650  0.2424 -0.3022
  890MOL0     C20035  -0.837  11.356   8.218  0.0361  0.4092  0.3076
  890MOL0     C20036  -0.952  11.452   8.167 -0.5574 -0.0195  0.1214
  890MOL0     C20037  -1.087  11.400   8.236 -1.3043  0.3518 -0.7603
  890MOL0     C20038  -1.197  11.478   8.163 -0.7354  0.2690 -0.7656
  890MOL0     O20039  -1.323  11.425   8.209  0.3969  0.6677 -0.2804
  890MOL0     C20040  -1.435  11.480   8.149  0.1708 -0.1552 -0.0420
  890MOL0     C20041  -1.555  11.472   8.225 -1.1475  0.2402  0.1831
  890MOL0     C20042  -1.676  11.512   8.168  0.1268 -0.3975  0.0308
  890MOL0     C20043  -1.794  11.486   8.257  0.2130  1.0559 -0.3907
  890MOL0     C20044  -1.675  11.588   8.046  0.4787 -0.4564  0.7169
  890MOL0     C20045  -1.799  11.640   7.983 -0.6549 -0.5767 -0.3033
  890MOL0     O20046  -1.900  11.682   8.058 -0.0987 -0.0450  0.1235
  890MOL0     C20047  -2.009  11.730   7.992  0.4485  0.3900  0.2577
  890MOL0     C20048  -2.133  11.651   8.010 -0.4889 -1.0067 -0.6930
  890MOL0     C20049  -2.251  11.689   7.950  0.7423 -0.0919  0.5470
  890MOL0     C20050  -2.251  11.798   7.860 -0.2412  0.2606  0.1922
  890MOL0     O20051  -2.363  11.845   7.800  0.5729 -0.4591 -0.0950
  890MOL0     C20052  -2.480  11.758   7.786  0.4926  0.6412 -0.7158
  890MOL0     C20053  -2.589  11.824   7.704 -0.1128 -0.1159  0.1262
  890MOL0     C20054  -2.640  11.955   7.770 -0.4804 -0.1632 -0.2554
  890MOL0     C20055  -2.741  12.036   7.684  0.3656  0.2513 -0.0197
  890MOL0     C20056  -2.785  12.163   7.756 -0.0193 -1.0696 -0.1623
  890MOL0     C20057  -2.940  12.180   7.740 -1.5338  0.1432  0.0834
  890MOL0     C20058  -3.001  12.302   7.811  0.3706  0.6914 -0.2315
  890MOL0     C20059  -3.019  12.286   7.962 -0.0531  0.0304  0.2455
  890MOL0    Cl20060  -3.084  12.427   8.025  0.2481 -0.0133 -0.1823
  890MOL0     C20061  -2.136  11.874   7.844 -0.2832 -0.0067 -0.2996
  890MOL0     C20062  -2.011  11.842   7.908 -1.1338 -0.1211  0.6096
  890MOL0     O20063  -1.796  11.655   7.864 -0.1263 -0.5953 -0.0616
  890MOL0     C20064  -1.555  11.592   7.966 -0.2891 -1.0177 -0.0189
  890MOL0     C20065  -1.433  11.539   8.013  0.1190 -0.3810  0.0731
  890MOL0     N20066  -0.854  11.108   8.291 -0.5362  0.5121  0.5458
  890MOL0     N20067  -0.867  10.989   8.239  0.4256  0.4051 -0.8218
  890MOL0     C20068   0.292  11.122   8.055  0.3664  0.5806  0.0916
  890MOL0     C20069   0.417  11.080   8.013 -0.2329 -0.1819  0.3187
  890MOL0     C20070   0.738  11.003   7.673  0.4506 -1.2603 -0.4534
  890MOL0     C20071   0.807  11.069   7.561 -0.4880  0.6402  0.6791
  890MOL0     C20072   0.924  11.012   7.519 -0.2210  0.4893 -0.1034
  890MOL0     C20073   0.995  10.911   7.585  0.2543  0.8973 -0.1151
  890MOL0     O20074   1.116  10.861   7.549  0.4983 -0.6129 -0.0664
  890MOL0     C20075   1.202  10.909   7.438  1.2367  0.7733 -0.0716
  890MOL0     C20076   1.307  11.008   7.493 -0.0277 -0.2730  0.0169
  890MOL0     C20077   1.428  11.044   7.400  0.5267  0.5787  0.6607
  890MOL0     C20078   1.559  11.087   7.474  0.0170 -0.3062  0.6496
  890MOL0     C20079   1.601  10.984   7.570 -0.1097 -0.6424  0.1360
  890MOL0     C20080   1.612  10.885   7.640 -0.1077 -0.9968 -0.5571
  890MOL0     C20081   0.933  10.853   7.698 -0.1297 -0.7652  0.7163
  890MOL0     C20082   0.809  10.902   7.742 -0.9005  0.3457 -0.7536
  890MOL0     H20083   0.327  10.938   7.718 -0.2743 -0.9663  0.4742
  890MOL0     H20084   0.110  11.018   7.787  0.7431  0.8303 -1.0512
  890MOL0     H20085  -0.039  10.939   7.959  1.3551  0.9732  0.1736
  890MOL0     H20086  -0.091  11.002   8.121 -1.5554  1.7527  0.1822
  890MOL0     H20087  -0.185  11.208   7.996  1.8704  0.4550  0.9447
  890MOL0     H20088  -0.170  11.099   7.855 -1.5211 -2.3815 -0.9378
  890MOL0     H20089  -0.327  11.068   8.117  1.0383 -3.6653  0.5454
  890MOL0     H20090  -0.388  11.081   7.943  0.6860 -1.8390 -2.3175
  890MOL0     H20091  -0.280  10.851   7.905  1.6544  0.2213  0.1010
  890MOL0     H20092  -0.238  10.854   8.072  1.6094 -1.0789 -2.2903
  890MOL0     H20093  -0.448  10.718   7.967  1.0744 -1.3665  1.5048
  890MOL0     H20094  -0.447  10.767   8.133 -1.1587 -1.1414  0.0981
  890MOL0     H20095  -0.586  10.974   8.080 -1.5693  0.2286 -0.8099
  890MOL0     H20096  -0.576  10.943   7.912 -2.5573 -1.5880 -0.9310
  890MOL0     H20097  -0.697  10.729   7.939 -1.6411  0.2589 -0.5440
  890MOL0     H20098  -0.696  10.759   8.120  2.5632  1.3386 -0.5731
  890MOL0     H20099  -0.905  10.801   8.032 -0.7880 -1.1876 -3.6212
  890MOL0     H20100  -0.854  10.912   7.905 -1.1458 -1.8261 -0.1977
  890MOL0     H20101  -0.813  11.182   7.982  2.5934 -1.5159  0.3215
  890MOL0     H20102  -0.843  11.373   8.326  2.8203  0.8250  0.4741
  890MOL0     H20103  -0.736  11.391   8.191  1.3016 -2.8673  0.3979
  890MOL0     H20104  -0.952  11.461   8.058  1.8902 -2.0695 -0.1524
  890MOL0     H20105  -0.919  11.550   8.202  1.0611  0.1741 -1.7637
  890MOL0     H20106  -1.091  11.404   8.345 -2.0575 -0.7777 -0.7287
  890MOL0     H20107  -1.109  11.294   8.220  3.3508 -1.0250  0.4704
  890MOL0     H20108  -1.184  11.471   8.055 -0.1359 -1.3469 -0.6129
  890MOL0     H20109  -1.202  11.587   8.173  1.1505  0.4669 -1.7125
  890MOL0     H20110  -1.556  11.442   8.330  1.2789  3.2404  1.2117
  890MOL0     H20111  -1.842  11.388   8.246 -0.2041  1.3020 -0.7380
  890MOL0     H20112  -1.772  11.509   8.362  0.4573  2.1069 -0.6615
  890MOL0     H20113  -1.869  11.563   8.237  0.0517  1.7942  2.6256
  890MOL0     H20114  -2.128  11.575   8.086 -0.1735  0.6015  0.9697
  890MOL0     H20115  -2.342  11.637   7.978  1.3087  0.5109  3.9715
  890MOL0     H20116  -2.436  11.669   7.740  1.0888  0.1910  0.6790
  890MOL0     H20117  -2.527  11.734   7.882  1.4750  3.2740  0.5237
  890MOL0     H20118  -2.545  11.870   7.616 -0.7714  1.5910  0.6507
  890MOL0     H20119  -2.667  11.749   7.685  1.5264 -2.0035  0.4628
  890MOL0     H20120  -2.551  12.017   7.783 -0.8293  1.0665 -3.1763
  890MOL0     H20121  -2.695  11.930   7.862 -2.4702  0.3573 -1.2568
  890MOL0     H20122  -2.696  12.064   7.588  1.7857  2.9848  1.3215
  890MOL0     H20123  -2.829  11.974   7.667  0.9188 -0.5133 -0.1546
  890MOL0     H20124  -2.727  12.248   7.720 -0.2966  0.2738  2.3435
  890MOL0     H20125  -2.773  12.153   7.864 -0.4791  0.7168  0.0883
  890MOL0     H20126  -2.961  12.200   7.634  0.5330 -0.4941 -0.5112
  890MOL0     H20127  -3.002  12.099   7.781  0.0919 -1.1663  0.0994
  890MOL0     H20128  -3.099  12.325   7.770  1.4497  1.8442 -2.3237
  890MOL0     H20129  -2.933  12.387   7.793  0.8416 -0.0884 -2.4068
  890MOL0     H20130  -2.916  12.276   7.998  0.7247 -1.4764 -2.0979
  890MOL0     H20131  -3.092  12.208   7.987 -1.7914  0.2932 -3.2966
  890MOL0     H20132  -2.152  11.957   7.775  3.5098 -0.5556 -2.1237
  890MOL0     H20133  -1.922  11.903   7.896 -1.7829  0.4196 -2.1407
  890MOL0     H20134  -1.558  11.647   7.872 -4.8364 -0.8367 -0.0197
  890MOL0     H20135  -1.348  11.541   7.945 -0.4232  0.5177 -0.5937
  890MOL0     H20136   0.287  11.181   8.145 -0.8661  4.3544 -2.2167
  890MOL0     H20137   0.510  11.104   8.065  0.6010 -3.6848  0.7551
  890MOL0     H20138   0.764  11.145   7.497  0.0986 -0.9082 -1.6930
  890MOL0     H20139   0.976  11.051   7.432  3.7593 -0.7497  1.5054
  890MOL0     H20140   1.235  10.814   7.395  0.5636  0.0302  0.9918
  890MOL0     H20141   1.149  10.948   7.351  1.6803  2.2002  0.2811
  890MOL0     H20142   1.341  10.975   7.591 -0.9578  1.3426  0.9272
  890MOL0     H20143   1.256  11.103   7.512  0.2764 -0.1507  0.2112
  890MOL0     H20144   1.390  11.115   7.326 -1.5964 -1.2462 -0.1215
  890MOL0     H20145   1.462  10.954   7.347 -0.6407  1.5233 -1.8772
  890MOL0     H20146   1.540  11.183   7.523 -0.0509  0.0772 -0.1114
  890MOL0     H20147   1.643  11.109   7.407 -0.8690  1.8878  0.2015
  890MOL0     H20148   1.638  10.804   7.706 -3.2232 -0.9030  0.9621
  890MOL0     H20149   0.973  10.763   7.744 -1.6350 -2.3918 -0.9792
  890MOL0     H20150   0.760  10.841   7.818 -1.6970 -1.1551 -2.4039
  891MOL0     O20151   7.108   1.991   6.197 -0.7038 -0.0958 -0.1028
  891MOL0     C20152   7.160   1.981   6.309 -0.3795  1.2372  0.1726
  891MOL0     O20153   7.095   1.974   6.425  0.0937  0.7384 -0.5400
  891MOL0     C20154   6.959   1.990   6.453 -0.0165 -0.1278  0.1136
  891MOL0     C20155   6.855   2.005   6.363  0.1224  0.5015  0.0577
  891MOL0     C20156   6.723   1.992   6.398  0.4820  0.1321 -0.7259
  891MOL0     C20157   6.695   1.961   6.536 -0.3270 -0.7589 -0.2522
  891MOL0     O20158   6.566   1.966   6.580  0.4595 -0.3656 -0.8830
  891MOL0     C20159   6.484   1.865   6.530  0.4653 -0.4908 -0.7380
  891MOL0     C20160   6.383   1.917   6.426 -0.2138  0.5662 -0.2927
  891MOL0     C20161   6.282   2.029   6.476 -0.1776 -0.9800  0.1070
  891MOL0     C20162   6.179   2.068   6.366 -0.7725  0.3487 -0.5124
  891MOL0     C20163   6.082   2.185   6.401  0.2214 -0.1205  0.2805
  891MOL0     C20164   5.977   2.146   6.507 -0.1574 -0.6810 -0.1183
  891MOL0     C20165   5.848   2.233   6.514 -0.3650  0.3389  0.4117
  891MOL0     C20166   5.871   2.377   6.566  1.3295 -0.0385 -0.2340
  891MOL0     N20167   5.743   2.444   6.610 -0.2036  0.0207  0.7038
  891MOL0     C20168   5.664   2.425   6.726  0.3350 -0.0401 -0.3597
  891MOL0     C20169   5.559   2.506   6.694  0.8295 -0.2734  0.3036
  891MOL0     C20170   5.429   2.529   6.760  0.6194 -0.1800 -0.0568
  891MOL0     C20171   5.391   2.684   6.769  0.2964  1.3520 -0.1443
  891MOL0     C20172   5.278   2.689   6.871  0.0964  0.1139 -0.2095
  891MOL0     C20173   5.139   2.634   6.809 -0.2022 -1.0163  0.7559
  891MOL0     O20174   5.047   2.673   6.909  0.2340 -0.0144 -0.6154
  891MOL0     C20175   4.912   2.631   6.895 -1.0693  0.0699 -0.2476
  891MOL0     C20176   4.827   2.648   7.010  0.0855  0.6593 -0.5448
  891MOL0     C20177   4.685   2.628   7.005 -0.0781 -0.0168 -0.6857
  891MOL0     C20178   4.594   2.660   7.126  1.0507  0.1466 -0.9791
  891MOL0     C20179   4.632   2.575   6.885 -0.0710 -0.1515 -0.0618
  891MOL0     C20180   4.491   2.544   6.878 -0.4348 -0.3229 -0.3051
  891MOL0     O20181   4.459   2.421   6.862 -0.3952  0.2716  0.1055
  891MOL0     C20182   4.330   2.381   6.877  0.7925  0.1200  0.1409
  891MOL0     C20183   4.251   2.386   6.991 -0.4172 -0.2011  0.1304
  891MOL0     C20184   4.120   2.343   7.001  0.3615  0.5877  0.1345
  891MOL0     C20185   4.058   2.280   6.894 -0.0165 -0.9339  0.7176
  891MOL0     O20186   3.928   2.236   6.915  0.1846 -0.2411  0.5563
  891MOL0     C20187   3.831   2.221   6.812 -0.1384 -0.0768 -0.3878
  891MOL0     C20188   3.696   2.206   6.878  0.1203  0.4659  0.1583
  891MOL0     C20189   3.634   2.069   6.845  0.3923  0.3197  0.1961
  891MOL0     C20190   3.475   2.077   6.841 -0.1217 -0.2554 -0.3904
  891MOL0     C20191   3.420   2.114   6.985  0.3112  0.7147  0.6717
  891MOL0     C20192   3.263   2.113   6.985  0.2843  0.0250  0.1333
  891MOL0     C20193   3.219   2.244   6.923 -0.3802  0.0962 -0.4296
  891MOL0     C20194   3.075   2.276   6.930  0.0496 -0.8896 -0.0923
  891MOL0    Cl20195   3.008   2.180   6.799  0.4930  0.4274  0.4447
  891MOL0     C20196   4.133   2.268   6.775  0.0033  0.4133 -1.0878
  891MOL0     C20197   4.265   2.322   6.770  0.0627 -0.4158  0.6198
  891MOL0     O20198   4.408   2.635   6.891  0.0155 -0.3372  0.6167
  891MOL0     C20199   4.718   2.540   6.781  0.1838 -0.1738  0.3421
  891MOL0     C20200   4.852   2.574   6.783  0.8794 -0.4704  0.9622
  891MOL0     N20201   5.578   2.587   6.585 -0.7208  0.3562  0.1353
  891MOL0     N20202   5.684   2.538   6.531 -0.0062 -0.7085 -0.2670
  891MOL0     C20203   6.794   1.972   6.630  0.1477 -0.9422  0.2285
  891MOL0     C20204   6.926   1.994   6.591  0.0156 -0.0256 -0.1761
  891MOL0     C20205   7.305   1.960   6.302 -0.1688  0.1929 -0.4202
  891MOL0     C20206   7.371   1.877   6.394  0.9796  0.5714  0.0875
  891MOL0     C20207   7.502   1.833   6.373  0.2408  0.3317  0.2231
  891MOL0     C20208   7.578   1.881   6.260  0.4774  0.5632  0.6981
  891MOL0     O20209   7.700   1.855   6.214 -0.0717  0.4530  0.0933
  891MOL0     C20210   7.788   1.767   6.285  0.7098 -0.1439  1.0141
  891MOL0     C20211   7.940   1.766   6.228 -0.1739  0.7138  0.5151
  891MOL0     C20212   7.947   1.707   6.089  0.1711  1.0336 -0.1779
  891MOL0     C20213   8.068   1.738   6.006  0.7302 -0.2537 -0.1484
  891MOL0     C20214   8.118   1.629   5.926 -0.2437 -0.6592  0.6565
  891MOL0     C20215   8.153   1.522   5.874  0.3041 -0.1828 -0.9166
  891MOL0     C20216   7.514   1.988   6.181 -0.4214  1.0152  0.4143
  891MOL0     C20217   7.387   2.023   6.211  0.8111 -0.4989  0.3247
  891MOL0     H20218   6.875   2.012   6.256  1.4681 -0.7806  0.1978
  891MOL0     H20219   6.637   1.982   6.333 -0.9355 -1.7667  1.3220
  891MOL0     H20220   6.543   1.788   6.481  2.6478 -0.2227  1.2869
  891MOL0     H20221   6.421   1.821   6.608  0.1439  0.7378 -0.2631
  891MOL0     H20222   6.424   1.939   6.327 -1.1957 -3.0003 -1.6599
  891MOL0     H20223   6.319   1.829   6.409 -0.5395  0.6177  0.6395
  891MOL0     H20224   6.234   1.994   6.568 -0.7118 -2.6196 -0.7527
  891MOL0     H20225   6.344   2.118   6.489  0.0679 -0.9210 -1.3024
  891MOL0     H20226   6.234   2.087   6.273  0.1662  1.7386  0.2958
  891MOL0     H20227   6.124   1.975   6.350 -0.4005  0.1803 -0.8374
  891MOL0     H20228   6.141   2.267   6.443 -0.5160  1.3203 -1.3474
  891MOL0     H20229   6.026   2.212   6.311 -1.6330 -0.9204  1.1461
  891MOL0     H20230   5.940   2.046   6.482  0.1829 -1.7981  3.2729
  891MOL0     H20231   6.018   2.136   6.609  0.9768 -1.2524 -0.6109
  891MOL0     H20232   5.794   2.235   6.419 -0.5462 -3.4608  0.2711
  891MOL0     H20233   5.771   2.182   6.573 -1.6707  0.0179 -1.4607
  891MOL0     H20234   5.912   2.441   6.487 -1.3272  0.6774 -1.1424
  891MOL0     H20235   5.936   2.372   6.654 -0.2751 -2.6838  0.9275
  891MOL0     H20236   5.680   2.363   6.814  1.6778  1.3220  0.4036
  891MOL0     H20237   5.345   2.474   6.717 -0.0523 -0.2110  1.2334
  891MOL0     H20238   5.436   2.483   6.860  1.8037  1.0863  0.4734
  891MOL0     H20239   5.351   2.714   6.672 -2.3694 -1.1590  0.0129
  891MOL0     H20240   5.479   2.740   6.802  0.3897  0.1506  1.7899
  891MOL0     H20241   5.270   2.797   6.884  2.5509  0.5371 -1.5201
  891MOL0     H20242   5.311   2.632   6.958 -1.5977  0.7005  0.8568
  891MOL0     H20243   5.153   2.525   6.802 -0.0628 -0.9082 -1.2455
  891MOL0     H20244   5.107   2.664   6.708 -0.9105 -0.1839  1.2183
  891MOL0     H20245   4.859   2.694   7.103 -3.5800  2.1660  0.1621
  891MOL0     H20246   4.525   2.576   7.137 -0.4575  1.2235 -1.8054
  891MOL0     H20247   4.658   2.665   7.215  0.2899 -1.1314 -0.3385
  891MOL0     H20248   4.541   2.754   7.105  0.2406 -0.5026 -1.9051
  891MOL0     H20249   4.309   2.442   7.064  0.5344  0.4663 -1.0799
  891MOL0     H20250   4.050   2.362   7.082 -0.7229 -4.5451  0.7551
  891MOL0     H20251   3.821   2.313   6.753 -2.6684  0.1014  0.2202
  891MOL0     H20252   3.859   2.132   6.755  0.1208  0.0217 -0.4157
  891MOL0     H20253   3.688   2.218   6.987 -2.6380  4.1848 -0.2382
  891MOL0     H20254   3.629   2.286   6.843  0.8249  1.7439  1.5647
  891MOL0     H20255   3.665   1.995   6.919 -1.9027 -0.2877  0.6152
  891MOL0     H20256   3.667   2.031   6.748 -1.1596 -3.4663  0.9770
  891MOL0     H20257   3.442   2.138   6.756  0.1699  1.0658  0.4151
  891MOL0     H20258   3.427   1.980   6.824 -2.5592  0.6437  0.9046
  891MOL0     H20259   3.456   2.212   7.019 -1.8452  0.7786  3.1163
  891MOL0     H20260   3.446   2.039   7.061  2.7223  1.4532  0.6699
  891MOL0     H20261   3.229   2.030   6.922  1.5238  0.3753 -1.0351
  891MOL0     H20262   3.233   2.092   7.088  1.9183  1.5232  0.9660
  891MOL0     H20263   3.257   2.257   6.821  0.2295 -2.2376 -0.5771
  891MOL0     H20264   3.276   2.317   6.981 -0.9361 -0.1213  0.4078
  891MOL0     H20265   3.051   2.382   6.914 -0.6015 -0.5016  2.9013
  891MOL0     H20266   3.053   2.243   7.032  1.1797 -1.6100 -0.0605
  891MOL0     H20267   4.087   2.223   6.687  0.1977  0.8619 -1.4246
  891MOL0     H20268   4.322   2.311   6.678 -3.0417  1.5641 -1.7414
  891MOL0     H20269   4.680   2.496   6.690 -0.7607  1.5678 -0.1481
  891MOL0     H20270   4.904   2.541   6.694  1.6873  2.5039  0.2218
  891MOL0     H20271   6.767   1.970   6.735  0.1143 -0.8088  0.2221
  891MOL0     H20272   7.011   2.000   6.658 -0.0414 -1.7053  0.1070
  891MOL0     H20273   7.315   1.849   6.484  2.7783  0.9868  1.3894
  891MOL0     H20274   7.561   1.766   6.435  1.3560  1.8199  0.8430
  891MOL0     H20275   7.773   1.814   6.383 -2.8405  0.2946  0.4024
  891MOL0     H20276   7.736   1.670   6.291 -0.5942  0.5400  1.2006
  891MOL0     H20277   8.002   1.705   6.296  1.3718 -2.3961 -3.2911
  891MOL0     H20278   7.961   1.872   6.217 -0.5878  0.6132 -1.5836
  891MOL0     H20279   7.861   1.745   6.031 -0.5550 -1.7401 -1.0671
  891MOL0     H20280   7.936   1.599   6.104  0.5543  0.9377 -0.5841
  891MOL0     H20281   8.150   1.774   6.069 -1.1222 -1.2084  2.9916
  891MOL0     H20282   8.032   1.807   5.930 -0.4033 -1.4189 -0.7064
  891MOL0     H20283   8.191   1.430   5.834  2.3335 -0.4841  1.4701
  891MOL0     H20284   7.571   2.040   6.105  0.5816 -1.4487 -0.6117
  891MOL0     H20285   7.349   2.104   6.150  0.8871 -1.2088 -0.6828
  892MOL0     O20286   0.610   0.727   4.966  0.3315 -1.2675  0.2225
  892MOL0     C20287   0.599   0.636   5.049  0.1576 -0.1432  0.2182
  892MOL0     O20288   0.492   0.617   5.134  0.2635 -0.6250 -0.3647
  892MOL0     C20289   0.369   0.670   5.111  0.1149  0.5554 -0.2138
  892MOL0     C20290   0.309   0.696   4.990 -0.0217  0.6712 -0.2290
  892MOL0     C20291   0.176   0.737   4.973 -0.7100  0.7437  0.1554
  892MOL0     C20292   0.102   0.766   5.082  0.0325 -0.3624  0.4152
  892MOL0     O20293  -0.033   0.797   5.057 -0.8443 -0.2863  0.0782
  892MOL0     C20294  -0.110   0.874   5.155 -1.2541  0.3005  0.3854
  892MOL0     C20295  -0.255   0.893   5.106 -0.3949 -0.5624 -0.3442
  892MOL0     C20296  -0.311   0.988   5.221 -0.4391  0.2360  0.7664
  892MOL0     C20297  -0.453   1.025   5.180 -0.0284 -1.2941 -0.4276
  892MOL0     C20298  -0.537   1.102   5.288  0.0501  0.5132  0.7598
  892MOL0     C20299  -0.649   1.177   5.215 -0.5218  0.8549  0.6521
  892MOL0     C20300  -0.720   1.283   5.301  0.2494  0.2606  1.2588
  892MOL0     C20301  -0.839   1.219   5.385  0.1458  0.2219  0.1947
  892MOL0     N20302  -0.923   1.317   5.453 -0.0757  0.2074  0.8237
  892MOL0     C20303  -1.026   1.378   5.399 -0.1010 -0.8517 -0.0604
  892MOL0     C20304  -1.093   1.425   5.507  0.0025  0.3161 -0.1164
  892MOL0     C20305  -1.225   1.506   5.492  0.1674  0.7402 -0.1241
  892MOL0     C20306  -1.358   1.421   5.521  0.0711 -0.3486  0.6242
  892MOL0     C20307  -1.354   1.377   5.667 -1.2314  0.5647  0.0247
  892MOL0     C20308  -1.492   1.382   5.731 -0.3853 -0.3983  0.3945
  892MOL0     O20309  -1.513   1.521   5.771 -0.3364 -0.5411 -0.4586
  892MOL0     C20310  -1.632   1.563   5.834  0.5110  0.5964 -1.1605
  892MOL0     C20311  -1.644   1.590   5.972  0.7337 -0.0674  0.4658
  892MOL0     C20312  -1.768   1.618   6.042 -0.3206  0.1249 -1.0564
  892MOL0     C20313  -1.777   1.642   6.192 -0.4440  0.5285  0.1511
  892MOL0     C20314  -1.891   1.629   5.963  0.5752  0.2358  0.6555
  892MOL0     C20315  -2.032   1.670   6.014  1.3605 -0.1290  1.1573
  892MOL0     O20316  -2.124   1.693   5.914  0.8187  0.8834 -0.6409
  892MOL0     C20317  -2.261   1.715   5.933  0.0557  0.4532 -0.1972
  892MOL0     C20318  -2.335   1.703   6.052  0.1454  0.9680  0.0563
  892MOL0     C20319  -2.473   1.705   6.061  0.3112  0.7932  0.2455
  892MOL0     C20320  -2.548   1.728   5.953  0.3400 -0.2610 -0.6189
  892MOL0     O20321  -2.680   1.752   5.983  0.0700  0.4043  0.4506
  892MOL0     C20322  -2.776   1.729   5.876  0.6844  0.3890 -0.1511
  892MOL0     C20323  -2.834   1.861   5.843 -0.4288  0.7333  0.6222
  892MOL0     C20324  -2.946   1.844   5.734  0.5803  0.0225 -0.3654
  892MOL0     C20325  -2.987   1.987   5.697  0.2014 -0.0943 -0.6812
  892MOL0     C20326  -3.113   1.984   5.605  0.3740 -0.0621 -0.2424
  892MOL0     C20327  -3.122   2.119   5.533  0.0397  0.8090 -0.4908
  892MOL0     C20328  -3.231   2.108   5.428 -0.6597 -0.3375  0.0478
  892MOL0     C20329  -3.240   2.238   5.346  0.0541 -0.0798  0.0994
  892MOL0    Cl20330  -3.218   2.193   5.174 -0.0543 -0.2689  0.2650
  892MOL0     C20331  -2.488   1.708   5.823 -0.2011  0.0320 -1.1817
  892MOL0     C20332  -2.346   1.711   5.820 -0.8920 -0.5073  0.9359
  892MOL0     O20333  -2.055   1.691   6.131 -0.3076 -0.2511 -0.7377
  892MOL0     C20334  -1.876   1.589   5.824  0.6376  0.0106  0.1174
  892MOL0     C20335  -1.753   1.563   5.766  0.0755 -0.4476  0.4195
  892MOL0     N20336  -1.012   1.398   5.618 -0.2868 -0.0052 -0.2837
  892MOL0     N20337  -0.908   1.333   5.582  0.2026 -0.1818  0.5768
  892MOL0     C20338   0.163   0.750   5.204  0.7597 -0.7800 -0.0977
  892MOL0     C20339   0.295   0.706   5.224  0.1550  0.4405  0.4146
  892MOL0     C20340   0.717   0.546   5.072  0.3638  0.3040 -0.6864
  892MOL0     C20341   0.698   0.428   5.145 -0.1437  0.4881 -0.4285
  892MOL0     C20342   0.801   0.333   5.147  0.1870  0.4298  0.4137
  892MOL0     C20343   0.927   0.347   5.080  0.2526  0.1610 -0.9923
  892MOL0     O20344   1.029   0.242   5.080 -0.1022  0.4339  0.1045
  892MOL0     C20345   1.126   0.246   4.977  0.0365 -0.3676 -0.4210
  892MOL0     C20346   1.201   0.116   4.963 -0.6381  0.4150  0.6765
  892MOL0     C20347   1.303   0.148   4.859  0.2234 -0.3727  0.7925
  892MOL0     C20348   1.380   0.031   4.819  0.4199  1.0971  0.6003
  892MOL0     C20349   1.496   0.073   4.735 -1.1860  1.1068  0.1478
  892MOL0     C20350   1.600   0.092   4.669  0.1344 -0.1773  0.0655
  892MOL0     C20351   0.940   0.472   5.017  0.3164 -0.1678 -0.6210
  892MOL0     C20352   0.843   0.566   5.010 -0.6610 -1.2125 -0.7328
  892MOL0     H20353   0.377   0.703   4.905  2.2342  0.1226  1.4479
  892MOL0     H20354   0.143   0.769   4.875 -2.0049  1.6343  0.8497
  892MOL0     H20355  -0.105   0.825   5.253 -1.3018 -1.0663 -0.2700
  892MOL0     H20356  -0.054   0.967   5.170 -2.8825  1.4001 -0.0965
  892MOL0     H20357  -0.256   0.942   5.008 -0.2161 -0.7249 -0.4269
  892MOL0     H20358  -0.299   0.793   5.101  1.9681 -1.6536 -0.7102
  892MOL0     H20359  -0.324   0.927   5.311  1.1269 -2.5769 -0.7560
  892MOL0     H20360  -0.256   1.078   5.249  3.0597 -1.8612  1.1990
  892MOL0     H20361  -0.428   1.083   5.090  3.2733 -0.8289  0.6615
  892MOL0     H20362  -0.505   0.941   5.133 -0.6491  0.9027 -4.0581
  892MOL0     H20363  -0.583   1.043   5.368  0.7678  0.8967  1.4768
  892MOL0     H20364  -0.479   1.177   5.342  1.2175 -0.6956  1.2627
  892MOL0     H20365  -0.587   1.230   5.142  0.0876 -1.2879 -0.4844
  892MOL0     H20366  -0.719   1.104   5.173 -2.2515  2.1708  1.1141
  892MOL0     H20367  -0.641   1.346   5.344  0.9888  2.1841 -2.4689
  892MOL0     H20368  -0.758   1.356   5.229 -1.1547 -0.1010  1.5974
  892MOL0     H20369  -0.797   1.154   5.462 -0.5201  0.7784  1.0530
  892MOL0     H20370  -0.906   1.161   5.321 -2.5846  2.7155  0.5718
  892MOL0     H20371  -1.062   1.390   5.298  0.4289  3.1082  0.0534
  892MOL0     H20372  -1.218   1.586   5.567  0.3262  1.2951 -0.7258
  892MOL0     H20373  -1.233   1.554   5.394 -0.3718 -0.7270 -0.8328
  892MOL0     H20374  -1.364   1.332   5.457  0.9696  0.9870 -1.4471
  892MOL0     H20375  -1.447   1.483   5.502  0.2840 -0.1254  0.3532
  892MOL0     H20376  -1.285   1.434   5.728  1.0264  0.5282 -2.3306
  892MOL0     H20377  -1.314   1.276   5.677 -1.2905  0.5168 -0.2156
  892MOL0     H20378  -1.492   1.330   5.828 -1.3305 -0.6416  0.2681
  892MOL0     H20379  -1.577   1.334   5.681  1.2296 -3.4742  0.3696
  892MOL0     H20380  -1.560   1.593   6.042 -0.9857 -1.8753  2.7508
  892MOL0     H20381  -1.845   1.578   6.248  0.7992  0.7868  2.0329
  892MOL0     H20382  -1.680   1.637   6.243 -0.7369  4.7452  1.4935
  892MOL0     H20383  -1.799   1.748   6.210 -0.5628  0.6168 -0.4873
  892MOL0     H20384  -2.280   1.681   6.143  3.0496 -0.0988 -1.8237
  892MOL0     H20385  -2.515   1.708   6.162 -0.4666  3.8446 -0.0712
  892MOL0     H20386  -2.740   1.672   5.790  1.3268 -1.0931  1.0540
  892MOL0     H20387  -2.859   1.669   5.912  0.1740 -0.3521 -2.4469
  892MOL0     H20388  -2.893   1.892   5.930 -1.9812 -3.5407  1.3478
  892MOL0     H20389  -2.765   1.944   5.825 -1.6646  1.3360 -1.6893
  892MOL0     H20390  -3.036   1.793   5.772  1.1466 -0.4618  0.3480
  892MOL0     H20391  -2.912   1.784   5.649  0.7837 -1.3336  0.6402
  892MOL0     H20392  -3.016   2.042   5.788  1.8891 -2.1806  1.2249
  892MOL0     H20393  -2.897   2.022   5.647  2.2420 -2.8492  0.7894
  892MOL0     H20394  -3.201   1.976   5.668  1.4739  0.4099  1.4173
  892MOL0     H20395  -3.112   1.903   5.532  0.2714 -1.1076  0.8923
  892MOL0     H20396  -3.152   2.207   5.592 -1.9906  0.5935 -1.1149
  892MOL0     H20397  -3.022   2.142   5.497  0.7240  2.8055  2.3805
  892MOL0     H20398  -3.320   2.106   5.492 -1.5005  1.5470 -0.9996
  892MOL0     H20399  -3.227   2.018   5.366 -3.6110  0.4271 -1.4262
  892MOL0     H20400  -3.157   2.303   5.376  0.9521 -0.2458 -1.9061
  892MOL0     H20401  -3.332   2.298   5.353  0.5724  0.5162  3.0725
  892MOL0     H20402  -2.540   1.711   5.728  0.7642 -0.7326 -1.7437
  892MOL0     H20403  -2.296   1.704   5.724  0.6924 -1.3967  1.7848
  892MOL0     H20404  -1.967   1.599   5.765 -1.5305 -1.7839  2.8924
  892MOL0     H20405  -1.747   1.530   5.663 -1.6091 -1.6955  0.6813
  892MOL0     H20406   0.119   0.752   5.303  1.5186 -3.8279  0.4231
  892MOL0     H20407   0.340   0.701   5.323  1.2125  0.3762 -0.0570
  892MOL0     H20408   0.607   0.405   5.199 -0.4510  3.0368  0.2365
  892MOL0     H20409   0.775   0.235   5.187  2.4295 -0.5916 -0.4636
  892MOL0     H20410   1.089   0.269   4.877  2.1131 -1.2363 -1.4460
  892MOL0     H20411   1.195   0.326   5.007 -0.8175  0.2972 -0.1621
  892MOL0     H20412   1.132   0.038   4.930  0.8795 -0.8056  0.2647
  892MOL0     H20413   1.235   0.085   5.062 -0.3085 -1.0153  0.1433
  892MOL0     H20414   1.375   0.221   4.898  0.2094 -1.0128  2.0573
  892MOL0     H20415   1.256   0.181   4.766  1.1907 -1.5032 -0.1177
  892MOL0     H20416   1.318  -0.042   4.766  1.5034  0.1053  0.6366
  892MOL0     H20417   1.425  -0.023   4.904  0.2916  0.9381  0.5676
  892MOL0     H20418   1.691   0.104   4.614  0.2223 -0.5015  0.1350
  892MOL0     H20419   1.034   0.491   4.967  0.7755 -0.9566 -0.0840
  892MOL0     H20420   0.870   0.658   4.958  2.0488 -0.2550  2.0410
  893MOL0     O20421   1.859   4.779   7.723 -0.3607  0.2235 -0.3202
  893MOL0     C20422   1.862   4.739   7.605 -0.9233 -0.4108 -0.7457
  893MOL0     O20423   1.910   4.813   7.499 -0.4796  0.2426 -0.1484
  893MOL0     C20424   1.944   4.948   7.523  0.2552  0.7501 -0.2286
  893MOL0     C20425   1.846   5.041   7.533  0.8131  0.1773 -0.3195
  893MOL0     C20426   1.875   5.175   7.565  0.4287 -0.7190  0.0522
  893MOL0     C20427   2.000   5.205   7.621  0.3897 -0.2572  0.3488
  893MOL0     O20428   2.025   5.340   7.644 -0.4644  0.0004 -0.4981
  893MOL0     C20429   2.152   5.378   7.715 -0.5352  1.1004  0.6609
  893MOL0     C20430   2.141   5.532   7.729  0.5667  0.2339 -1.0087
  893MOL0     C20431   2.242   5.607   7.819 -0.0894  0.5350 -0.1485
  893MOL0     C20432   2.239   5.569   7.974 -0.3461 -0.9673 -0.2882
  893MOL0     C20433   2.298   5.678   8.068  0.2053 -0.2574  0.2037
  893MOL0     C20434   2.258   5.660   8.215 -0.3509  0.0467 -0.2675
  893MOL0     C20435   2.290   5.520   8.273  0.7929 -0.1496  0.5856
  893MOL0     C20436   2.202   5.471   8.390  0.8051 -0.2203  0.6238
  893MOL0     N20437   2.196   5.579   8.498  0.3481 -0.4234 -0.3139
  893MOL0     C20438   2.308   5.638   8.549  0.0565  0.3411 -1.0045
  893MOL0     C20439   2.259   5.740   8.631 -0.7070  0.9789  1.2391
  893MOL0     C20440   2.323   5.819   8.733 -0.2830  0.9343  0.6590
  893MOL0     C20441   2.393   5.947   8.689  0.5070 -0.6054  0.0792
  893MOL0     C20442   2.514   5.934   8.599  0.2961  0.2576  0.4783
  893MOL0     C20443   2.582   6.073   8.592 -0.3968 -1.0347  0.1686
  893MOL0     O20444   2.698   6.062   8.504 -0.5912 -1.1064  0.4988
  893MOL0     C20445   2.804   6.149   8.498 -0.6869 -0.0052 -0.2706
  893MOL0     C20446   2.900   6.138   8.393  0.0753  0.0322  0.1083
  893MOL0     C20447   3.002   6.232   8.369 -0.7231 -0.5204 -0.2395
  893MOL0     C20448   3.080   6.223   8.242 -0.5232 -0.3592  0.0734
  893MOL0     C20449   3.023   6.336   8.463 -0.0399 -0.2886 -0.0336
  893MOL0     C20450   3.147   6.430   8.473  1.3856 -0.3870  0.0048
  893MOL0     O20451   3.144   6.518   8.571  0.3049 -0.4833 -0.0244
  893MOL0     C20452   3.253   6.607   8.572 -0.3780 -0.8475 -0.1847
  893MOL0     C20453   3.227   6.740   8.532  0.3826 -0.5641 -0.5136
  893MOL0     C20454   3.335   6.834   8.526  1.4433 -0.5500  0.3684
  893MOL0     C20455   3.466   6.800   8.555  0.3994 -0.0695  0.1774
  893MOL0     O20456   3.565   6.897   8.539  0.0621 -0.1631  0.2800
  893MOL0     C20457   3.701   6.868   8.496  1.2335  0.8000  0.2291
  893MOL0     C20458   3.802   6.963   8.552 -0.2134 -0.5366  0.3429
  893MOL0     C20459   3.764   7.115   8.524 -0.1472 -0.6525 -0.1345
  893MOL0     C20460   3.862   7.213   8.595 -0.2007 -0.3484  0.2829
  893MOL0     C20461   4.011   7.200   8.535 -0.0137  0.1498  0.1982
  893MOL0     C20462   4.106   7.314   8.545 -0.6139  0.1652 -0.3988
  893MOL0     C20463   4.157   7.332   8.694 -0.7200  0.5868 -0.3671
  893MOL0     C20464   4.237   7.461   8.711  0.1974 -0.0064 -0.6752
  893MOL0    Cl20465   4.360   7.492   8.585 -0.0636  0.3325  0.2008
  893MOL0     C20466   3.482   6.663   8.590 -1.4501 -0.5014  0.6623
  893MOL0     C20467   3.383   6.570   8.605  0.1732 -0.7960 -0.7315
  893MOL0     O20468   3.235   6.427   8.384 -0.4746  0.4740  0.0553
  893MOL0     C20469   2.932   6.343   8.570 -1.1009  0.2070  0.3012
  893MOL0     C20470   2.828   6.250   8.586  1.1827 -0.2055  0.7587
  893MOL0     N20471   2.123   5.730   8.633  0.3355 -0.3568 -0.6555
  893MOL0     N20472   2.080   5.634   8.559 -0.3795  0.7538  0.1213
  893MOL0     C20473   2.093   5.107   7.629  1.0299  0.3236  0.2830
  893MOL0     C20474   2.077   4.978   7.573  0.2999  0.1596 -0.3251
  893MOL0     C20475   1.793   4.615   7.571  0.3918  1.1735 -0.6028
  893MOL0     C20476   1.751   4.582   7.442 -0.3566 -0.1353  0.1442
  893MOL0     C20477   1.668   4.474   7.412 -0.5879 -0.6547  0.6049
  893MOL0     C20478   1.617   4.394   7.518 -1.2103  1.3620 -0.5830
  893MOL0     O20479   1.516   4.307   7.494  0.4329  0.0268 -0.3662
  893MOL0     C20480   1.495   4.196   7.584  0.2120  0.4081  0.1214
  893MOL0     C20481   1.463   4.071   7.489 -0.8090 -0.4210 -0.7669
  893MOL0     C20482   1.480   3.946   7.579  0.3151  0.6393 -0.2843
  893MOL0     C20483   1.458   3.817   7.494  0.3783  0.3690 -0.1491
  893MOL0     C20484   1.333   3.822   7.422  0.4577  0.0644 -0.2856
  893MOL0     C20485   1.222   3.827   7.371  0.3208  0.8007  1.4768
  893MOL0     C20486   1.675   4.412   7.644  0.0819  0.1022  0.3633
  893MOL0     C20487   1.766   4.519   7.674  0.5665  1.1865 -0.1895
  893MOL0     H20488   1.746   5.011   7.503 -0.5299  1.5594  2.3841
  893MOL0     H20489   1.801   5.254   7.558  1.5808  0.4469  0.7256
  893MOL0     H20490   2.169   5.322   7.807 -2.3892 -2.3558 -0.8960
  893MOL0     H20491   2.231   5.337   7.652 -1.0888 -1.6142  1.5876
  893MOL0     H20492   2.134   5.574   7.629 -0.9182  0.6052 -0.7735
  893MOL0     H20493   2.042   5.556   7.768  1.1663  2.6876 -0.8331
  893MOL0     H20494   2.347   5.590   7.793 -0.6489 -2.9790 -0.6201
  893MOL0     H20495   2.231   5.713   7.795 -0.8082  0.5116  0.0724
  893MOL0     H20496   2.138   5.569   8.015 -0.8787  2.5541 -1.2620
  893MOL0     H20497   2.273   5.465   7.983  0.4811 -0.5904  1.2980
  893MOL0     H20498   2.407   5.686   8.070  0.3362 -0.9476  4.6414
  893MOL0     H20499   2.254   5.770   8.028  2.1670 -0.3517 -2.4325
  893MOL0     H20500   2.316   5.726   8.280  1.1436 -1.5293  0.0728
  893MOL0     H20501   2.156   5.698   8.223  1.0378  3.9477  1.3020
  893MOL0     H20502   2.273   5.440   8.200 -0.8848 -1.3724  2.2124
  893MOL0     H20503   2.395   5.525   8.300  0.4838 -0.6545  1.9574
  893MOL0     H20504   2.252   5.382   8.432  1.1063 -0.5420 -0.3879
  893MOL0     H20505   2.104   5.435   8.359  0.4791 -0.8025  2.2292
  893MOL0     H20506   2.412   5.611   8.532  0.9095  1.8103  1.3851
  893MOL0     H20507   2.246   5.841   8.807 -1.0708  0.4652  0.0031
  893MOL0     H20508   2.388   5.754   8.793 -1.2449  0.4438  1.1952
  893MOL0     H20509   2.425   6.000   8.780  4.7091 -0.9998 -0.9730
  893MOL0     H20510   2.316   6.010   8.643 -0.3471  0.5259  2.7892
  893MOL0     H20511   2.492   5.911   8.495  1.1078  0.4624  0.2617
  893MOL0     H20512   2.569   5.849   8.641 -4.0327 -3.7181 -0.8590
  893MOL0     H20513   2.608   6.107   8.692 -2.0588  2.1953 -0.3604
  893MOL0     H20514   2.507   6.141   8.551 -0.4238 -1.9658 -1.3988
  893MOL0     H20515   2.884   6.057   8.323  0.6436  0.5476 -0.6304
  893MOL0     H20516   3.188   6.222   8.260 -0.5320 -2.3641  0.2262
  893MOL0     H20517   3.063   6.131   8.184  1.0032  0.4744 -1.8044
  893MOL0     H20518   3.044   6.307   8.181  0.7142  1.2987  1.5387
  893MOL0     H20519   3.127   6.776   8.514  0.0188 -1.2800  0.0173
  893MOL0     H20520   3.323   6.932   8.480  0.4441 -1.0246 -0.4235
  893MOL0     H20521   3.722   6.769   8.537  2.6104  0.6313 -0.7974
  893MOL0     H20522   3.692   6.862   8.388  1.0066  1.2021  0.2221
  893MOL0     H20523   3.812   6.941   8.659 -2.5411  2.3439  1.2891
  893MOL0     H20524   3.896   6.943   8.499  1.2089  2.5855  1.4233
  893MOL0     H20525   3.663   7.125   8.565 -0.3022 -0.1371 -0.6225
  893MOL0     H20526   3.774   7.133   8.416 -0.8869 -2.5072 -0.5486
  893MOL0     H20527   3.814   7.309   8.572 -0.4890 -0.8219 -1.1529
  893MOL0     H20528   3.850   7.191   8.702 -1.9875  0.8198  0.3765
  893MOL0     H20529   4.002   7.184   8.427 -2.8905  1.1686  0.1789
  893MOL0     H20530   4.050   7.104   8.570 -1.8199 -1.3846 -1.6945
  893MOL0     H20531   4.198   7.294   8.489  0.0509 -3.3156  1.6236
  893MOL0     H20532   4.074   7.414   8.513  0.3991  0.2870 -1.0975
  893MOL0     H20533   4.222   7.251   8.728 -2.3650 -0.3601  0.6988
  893MOL0     H20534   4.075   7.323   8.767 -1.3515 -0.3263 -1.1507
  893MOL0     H20535   4.289   7.465   8.807 -1.1051 -1.5341  0.1268
  893MOL0     H20536   4.169   7.547   8.713  0.4630  0.1969 -0.2755
  893MOL0     H20537   3.581   6.632   8.622 -1.6837  0.8077  2.7724
  893MOL0     H20538   3.394   6.467   8.638  3.6655  0.4086  2.4793
  893MOL0     H20539   2.963   6.401   8.656  0.4672 -1.1954  0.7446
  893MOL0     H20540   2.758   6.266   8.668  0.0032 -0.9509 -0.0847
  893MOL0     H20541   2.185   5.143   7.675  1.2175  0.2744 -0.0493
  893MOL0     H20542   2.153   4.901   7.572 -0.8866 -1.1215  1.5099
  893MOL0     H20543   1.770   4.657   7.366 -2.6087 -2.1327 -2.6171
  893MOL0     H20544   1.626   4.466   7.312  0.5751 -1.5250  0.1676
  893MOL0     H20545   1.593   4.167   7.623  0.7791  0.1508 -1.4055
  893MOL0     H20546   1.422   4.212   7.664 -0.1687  1.2778 -0.3934
  893MOL0     H20547   1.543   4.064   7.415  1.4578 -0.4863  1.5507
  893MOL0     H20548   1.363   4.082   7.447 -0.9191  0.7324 -0.2429
  893MOL0     H20549   1.399   3.955   7.652  0.3272  1.9182 -0.4102
  893MOL0     H20550   1.575   3.936   7.632  0.7504 -1.3691 -1.3636
  893MOL0     H20551   1.465   3.730   7.560 -0.3820 -1.3703 -2.2050
  893MOL0     H20552   1.540   3.812   7.421  1.8067 -0.8954  1.4730
  893MOL0     H20553   1.127   3.844   7.325 -1.5715 -0.3053  4.6629
  893MOL0     H20554   1.649   4.353   7.731  0.2263 -1.6718 -0.7445
  893MOL0     H20555   1.802   4.537   7.775 -0.1412  0.6587  0.1667
  894MOL0     O20556   4.559  11.153   1.413 -0.2227 -0.7671  0.7036
  894MOL0     C20557   4.631  11.234   1.343 -0.0963 -0.0790 -0.3033
  894MOL0     O20558   4.597  11.349   1.281  0.1147  0.0292  0.0631
  894MOL0     C20559   4.464  11.386   1.303  0.1253  0.1266  0.4204
  894MOL0     C20560   4.444  11.476   1.406 -0.8871  0.3866  0.5466
  894MOL0     C20561   4.315  11.516   1.437  0.4979 -0.2450 -0.1708
  894MOL0     C20562   4.208  11.484   1.360  0.2927  0.2167  0.5822
  894MOL0     O20563   4.094  11.544   1.409  0.2624 -0.3225  0.2288
  894MOL0     C20564   3.986  11.549   1.320  0.4389 -0.8366 -0.4856
  894MOL0     C20565   3.873  11.639   1.373 -0.6785 -1.1792  0.7061
  894MOL0     C20566   3.735  11.568   1.383 -0.4868  0.2020  0.0459
  894MOL0     C20567   3.666  11.552   1.243 -0.0131 -1.1048  0.1585
  894MOL0     C20568   3.552  11.457   1.233 -0.8543 -0.5530  0.3186
  894MOL0     C20569   3.427  11.506   1.305 -0.4625  0.0623 -0.0281
  894MOL0     C20570   3.329  11.534   1.194  0.9922 -0.0079 -0.4289
  894MOL0     C20571   3.217  11.622   1.247  0.3887 -0.5647  0.0538
  894MOL0     N20572   3.117  11.649   1.142 -0.3778  0.4972 -0.7403
  894MOL0     C20573   3.131  11.747   1.044 -0.2638  0.7193 -0.4350
  894MOL0     C20574   3.014  11.748   0.975  0.8662 -0.4703  0.7796
  894MOL0     C20575   2.976  11.831   0.860  0.0099 -0.8404  0.0222
  894MOL0     C20576   2.949  11.750   0.728  0.1227 -0.3641  1.5202
  894MOL0     C20577   2.846  11.638   0.733  0.9501  0.8429 -0.4844
  894MOL0     C20578   2.713  11.687   0.776  0.4752  0.5564 -0.2126
  894MOL0     O20579   2.602  11.611   0.742  0.0267  0.1974  0.1556
  894MOL0     C20580   2.476  11.667   0.753  0.1012  0.4459 -0.0402
  894MOL0     C20581   2.448  11.793   0.792 -0.8561  0.2637 -0.1770
  894MOL0     C20582   2.319  11.838   0.811 -1.2605  0.0424  0.3490
  894MOL0     C20583   2.297  11.974   0.880 -0.9230  0.8407  0.7168
  894MOL0     C20584   2.215  11.756   0.772 -0.1432  0.6014  0.0890
  894MOL0     C20585   2.071  11.793   0.793 -0.1057 -0.1593 -0.0520
  894MOL0     O20586   1.993  11.690   0.828 -0.3052  0.3928 -0.0863
  894MOL0     C20587   1.872  11.724   0.890 -0.5470  1.1131 -0.3405
  894MOL0     C20588   1.864  11.731   1.027 -0.0854  0.5919 -0.2085
  894MOL0     C20589   1.746  11.758   1.095  0.3638  0.5395  0.6266
  894MOL0     C20590   1.624  11.778   1.019  0.1087 -0.3508  0.0939
  894MOL0     O20591   1.496  11.795   1.059 -0.7785  0.1567  0.6230
  894MOL0     C20592   1.467  11.785   1.195  0.5103 -0.1197 -0.0044
  894MOL0     C20593   1.503  11.916   1.270  0.7316  0.3132  0.2096
  894MOL0     C20594   1.427  12.051   1.224 -0.4135  0.7310  0.0971
  894MOL0     C20595   1.276  12.032   1.197 -1.0153  0.3923  0.3082
  894MOL0     C20596   1.218  12.136   1.116 -0.8381  0.0331  0.5715
  894MOL0     C20597   1.206  12.264   1.201 -0.0399 -0.1614 -0.2251
  894MOL0     C20598   1.125  12.367   1.124  0.4414  0.2386 -0.4296
  894MOL0     C20599   1.069  12.472   1.222  0.3983  0.9276  0.2190
  894MOL0    Cl20600   0.987  12.600   1.123 -0.0436 -0.1437  0.5015
  894MOL0     C20601   1.642  11.778   0.881  0.0454  0.3490 -0.3087
  894MOL0     C20602   1.760  11.749   0.817 -0.1926 -0.9569 -0.4442
  894MOL0     O20603   2.024  11.898   0.756  0.3297 -0.9428 -0.0823
  894MOL0     C20604   2.242  11.626   0.719 -0.7312  0.3107  0.7647
  894MOL0     C20605   2.370  11.582   0.721  0.2102  0.4616 -0.1146
  894MOL0     N20606   2.927  11.644   1.025 -0.8092 -0.5630 -0.4842
  894MOL0     N20607   3.001  11.581   1.110  0.1978  0.1537 -0.1278
  894MOL0     C20608   4.224  11.393   1.256  0.8760 -0.4243  0.3139
  894MOL0     C20609   4.352  11.349   1.225 -0.0482  0.0804 -0.6592
  894MOL0     C20610   4.777  11.195   1.369  1.1249 -0.0784  0.9898
  894MOL0     C20611   4.815  11.100   1.467 -0.2636 -0.3904 -0.0277
  894MOL0     C20612   4.939  11.052   1.480  0.4785  0.4424  0.0834
  894MOL0     C20613   5.036  11.099   1.385  0.7911 -0.0365 -0.4107
  894MOL0     O20614   5.164  11.050   1.399  0.8581  0.7807  0.0550
  894MOL0     C20615   5.189  10.938   1.313  0.8433 -0.9436  0.6021
  894MOL0     C20616   5.293  10.977   1.216  0.2279 -0.2098 -0.0253
  894MOL0     C20617   5.425  11.016   1.281 -0.5900  0.2470  0.2676
  894MOL0     C20618   5.532  11.055   1.182  0.3463  0.4302 -1.0352
  894MOL0     C20619   5.666  11.018   1.231  0.3270  0.5156  0.2137
  894MOL0     C20620   5.785  10.984   1.252  0.8230  0.1742  0.0496
  894MOL0     C20621   4.999  11.184   1.283 -0.2908  0.0927  0.2180
  894MOL0     C20622   4.869  11.240   1.277  0.0592 -0.0316 -0.1312
  894MOL0     H20623   4.530  11.512   1.462 -1.7953 -2.5360  4.2318
  894MOL0     H20624   4.298  11.583   1.520  0.7369  0.5503 -0.7450
  894MOL0     H20625   4.015  11.584   1.221 -1.9172  1.7466 -0.3898
  894MOL0     H20626   3.951  11.446   1.309  1.5571 -1.5730  2.0907
  894MOL0     H20627   3.899  11.665   1.476 -1.7348 -2.0164  1.2103
  894MOL0     H20628   3.863  11.731   1.316  1.7961 -1.1032  0.3111
  894MOL0     H20629   3.752  11.473   1.435  2.0382 -0.5481 -1.9026
  894MOL0     H20630   3.677  11.628   1.453 -0.0028  0.5419  0.1601
  894MOL0     H20631   3.644  11.647   1.194 -1.2465 -1.5633 -0.2113
  894MOL0     H20632   3.741  11.501   1.182  0.8514  1.0065 -0.6070
  894MOL0     H20633   3.532  11.444   1.126 -1.7967  0.7401  0.3098
  894MOL0     H20634   3.566  11.366   1.293 -0.2091 -0.2006  0.7108
  894MOL0     H20635   3.379  11.427   1.364 -2.1369  1.1434  0.1129
  894MOL0     H20636   3.449  11.593   1.368 -0.4977  0.0983 -0.0664
  894MOL0     H20637   3.381  11.594   1.119  0.9533  0.2891 -0.2184
  894MOL0     H20638   3.287  11.440   1.156 -1.5366  1.1909 -0.8090
  894MOL0     H20639   3.256  11.717   1.285 -1.2666  0.5115 -0.8100
  894MOL0     H20640   3.169  11.584   1.337  0.5555  4.3748  2.5382
  894MOL0     H20641   3.204  11.825   1.023  0.8527  0.5924  2.4162
  894MOL0     H20642   2.895  11.902   0.881 -1.0248 -1.6346 -1.1874
  894MOL0     H20643   3.067  11.891   0.851  0.1421 -1.1802 -0.9812
  894MOL0     H20644   3.047  11.715   0.694  0.6636  1.1537  1.4873
  894MOL0     H20645   2.924  11.830   0.659  2.1219 -0.6861  0.3519
  894MOL0     H20646   2.885  11.555   0.792  2.5618  0.4671 -2.0214
  894MOL0     H20647   2.837  11.600   0.631 -2.9569 -4.7300  1.4420
  894MOL0     H20648   2.704  11.793   0.752 -1.0121  0.7359  0.9724
  894MOL0     H20649   2.727  11.693   0.885  3.8437  1.1972 -0.5721
  894MOL0     H20650   2.519  11.873   0.813 -1.1799  0.6791 -0.6203
  894MOL0     H20651   2.282  12.059   0.813 -1.6281  0.0211 -0.2058
  894MOL0     H20652   2.219  11.981   0.956 -0.5960  1.0897  1.0352
  894MOL0     H20653   2.391  11.996   0.931  1.4427 -3.4662 -1.2099
  894MOL0     H20654   1.952  11.704   1.084  0.4365  0.5347 -1.0260
  894MOL0     H20655   1.740  11.753   1.203  0.9360 -0.0515  0.6322
  894MOL0     H20656   1.361  11.758   1.196  0.7114 -1.3429 -2.6704
  894MOL0     H20657   1.513  11.697   1.242 -0.8851  0.2470  2.1726
  894MOL0     H20658   1.478  11.903   1.376  0.1567 -2.8649 -0.2030
  894MOL0     H20659   1.610  11.933   1.256  1.0738 -2.1382 -0.5794
  894MOL0     H20660   1.475  12.104   1.142 -1.8131  0.5717 -0.8482
  894MOL0     H20661   1.442  12.113   1.313 -0.4883 -1.4839  1.7457
  894MOL0     H20662   1.257  11.936   1.148 -1.7160 -1.2438  3.4948
  894MOL0     H20663   1.222  12.018   1.291 -1.9889 -2.0186 -0.5346
  894MOL0     H20664   1.129  12.099   1.064  0.0186 -1.1608 -0.1165
  894MOL0     H20665   1.289  12.164   1.038  1.0163 -1.7024  1.5571
  894MOL0     H20666   1.146  12.243   1.290 -0.5128  0.8728 -0.2814
  894MOL0     H20667   1.301  12.311   1.229  0.4939 -0.9683 -0.6567
  894MOL0     H20668   1.045  12.318   1.067  1.2172 -4.0386  1.6707
  894MOL0     H20669   1.186  12.419   1.050  0.0751  0.2043 -0.7586
  894MOL0     H20670   1.150  12.520   1.277  1.2229 -0.9116  0.6703
  894MOL0     H20671   0.997  12.433   1.295  1.7841  2.0316  2.2780
  894MOL0     H20672   1.564  11.796   0.808 -0.5974 -2.6603 -0.5206
  894MOL0     H20673   1.784  11.757   0.711 -0.6638  1.8478 -0.4145
  894MOL0     H20674   2.160  11.567   0.678  0.8282 -3.3020  2.3939
  894MOL0     H20675   2.402  11.486   0.683  1.0378  0.8509 -0.4314
  894MOL0     H20676   4.132  11.356   1.212  1.4059 -3.3755  1.4900
  894MOL0     H20677   4.358  11.287   1.136 -4.1576 -0.2780 -0.8904
  894MOL0     H20678   4.736  11.054   1.526 -1.7582  0.6875 -1.1181
  894MOL0     H20679   4.971  10.977   1.552 -0.3585 -1.6312 -1.5968
  894MOL0     H20680   5.217  10.854   1.378 -0.4125 -0.2876  2.0476
  894MOL0     H20681   5.096  10.920   1.258  1.0783  0.8936 -0.4845
  894MOL0     H20682   5.259  11.074   1.178 -1.7865 -0.5963  0.6972
  894MOL0     H20683   5.299  10.902   1.137 -1.5987 -1.3810  0.8863
  894MOL0     H20684   5.450  10.924   1.335  1.9785 -0.5552 -2.0748
  894MOL0     H20685   5.401  11.102   1.344 -0.6332  0.2293  0.2764
  894MOL0     H20686   5.524  11.164   1.173 -2.3851  0.2473 -1.5766
  894MOL0     H20687   5.525  10.997   1.090  2.8326 -2.8468  0.6434
  894MOL0     H20688   5.876  10.948   1.297 -0.6388 -2.0570  1.4559
  894MOL0     H20689   5.068  11.206   1.202 -0.0568  0.2204  0.4543
  894MOL0     H20690   4.833  11.303   1.196 -3.4522  2.0226  2.7410
  895MOL0     O20691   2.714   4.023   1.555  0.2383  0.4724  0.3928
  895MOL0     C20692   2.620   4.019   1.477 -0.5350  0.5117  0.3266
  895MOL0     O20693   2.500   3.950   1.493  0.0835  0.0710 -0.1651
  895MOL0     C20694   2.492   3.852   1.586 -0.2320  0.3593 -0.2984
  895MOL0     C20695   2.541   3.725   1.549 -0.0612  0.0195 -0.2768
  895MOL0     C20696   2.526   3.613   1.630 -1.4409 -0.3368  0.3675
  895MOL0     C20697   2.464   3.627   1.752 -0.1090  0.0667  0.1104
  895MOL0     O20698   2.440   3.513   1.818  0.0680  0.4335 -0.0533
  895MOL0     C20699   2.356   3.423   1.755 -0.7359  1.0304 -0.3321
  895MOL0     C20700   2.298   3.352   1.874 -0.4438  0.9285 -0.0787
  895MOL0     C20701   2.200   3.446   1.956 -0.2855 -0.6206  0.1365
  895MOL0     C20702   2.186   3.390   2.094 -0.1024  0.3778  0.2088
  895MOL0     C20703   2.094   3.482   2.176  0.2215 -0.0836  1.0858
  895MOL0     C20704   2.110   3.456   2.329  0.5687  0.3301 -0.1239
  895MOL0     C20705   2.074   3.310   2.369  0.1399 -0.3558 -0.8640
  895MOL0     C20706   2.077   3.295   2.528  0.1307  0.3291  0.1200
  895MOL0     N20707   2.214   3.301   2.585  0.5027 -0.5586 -0.1380
  895MOL0     C20708   2.273   3.404   2.660  0.9148 -0.2645  0.0607
  895MOL0     C20709   2.407   3.374   2.660  0.6110 -0.2224 -0.0751
  895MOL0     C20710   2.520   3.451   2.720 -0.3318  0.1135 -0.4879
  895MOL0     C20711   2.655   3.388   2.701 -0.3074  0.1869  0.1876
  895MOL0     C20712   2.667   3.276   2.810 -1.1223 -0.6844 -0.0538
  895MOL0     C20713   2.790   3.197   2.771 -0.0545 -0.5120  0.1004
  895MOL0     O20714   2.902   3.273   2.803 -0.2632 -0.1492 -0.3494
  895MOL0     C20715   3.015   3.207   2.787  0.0267  0.2421 -0.5232
  895MOL0     C20716   3.041   3.108   2.695  0.1612 -0.0293 -0.1460
  895MOL0     C20717   3.166   3.048   2.696 -0.6835  0.4747 -0.2949
  895MOL0     C20718   3.185   2.948   2.591  0.2348 -0.4736 -0.4058
  895MOL0     C20719   3.266   3.077   2.793  0.1870  0.0000 -0.8995
  895MOL0     C20720   3.405   3.019   2.808 -0.4039 -0.5876 -0.0805
  895MOL0     O20721   3.483   3.052   2.913 -0.1384  0.5533 -0.0911
  895MOL0     C20722   3.606   2.993   2.927 -0.4008 -0.2693 -0.3389
  895MOL0     C20723   3.713   3.083   2.943  0.6231  0.4594  0.6336
  895MOL0     C20724   3.845   3.039   2.952  0.1364 -0.0390 -0.9154
  895MOL0     C20725   3.866   2.892   2.947  0.1550  0.3097 -1.1589
  895MOL0     O20726   3.990   2.835   2.972  0.1318 -0.7127 -0.1225
  895MOL0     C20727   4.099   2.925   2.962 -0.8400  1.1985  0.7091
  895MOL0     C20728   4.236   2.854   2.963 -0.1989  0.0330 -0.1337
  895MOL0     C20729   4.291   2.823   3.102  0.2143  0.5969 -1.1544
  895MOL0     C20730   4.287   2.940   3.209  0.2681 -0.0201  0.4916
  895MOL0     C20731   4.352   3.067   3.155  0.3441 -0.5542  0.7517
  895MOL0     C20732   4.359   3.181   3.261 -0.6367  0.9235  0.3490
  895MOL0     C20733   4.427   3.159   3.396 -0.1568 -0.1540  0.1271
  895MOL0     C20734   4.450   3.294   3.474 -0.0348  0.4375  0.1356
  895MOL0    Cl20735   4.550   3.276   3.621  0.2679 -0.3596  0.3730
  895MOL0     C20736   3.752   2.801   2.935 -0.0535 -0.4541  0.8775
  895MOL0     C20737   3.627   2.856   2.925  0.4312 -0.2919 -0.9576
  895MOL0     O20738   3.448   2.961   2.710 -0.0097  0.1137  0.1514
  895MOL0     C20739   3.238   3.178   2.887  0.1043  0.8397 -0.0084
  895MOL0     C20740   3.112   3.242   2.881  0.1358  0.1314  0.1378
  895MOL0     N20741   2.420   3.254   2.594  0.2178 -0.1210 -0.1436
  895MOL0     N20742   2.306   3.209   2.556  0.4828 -0.0482  1.0072
  895MOL0     C20743   2.410   3.750   1.793 -0.3472  0.6981  0.2533
  895MOL0     C20744   2.432   3.863   1.710  0.4589 -0.0933 -1.0092
  895MOL0     C20745   2.646   4.088   1.345 -0.4810 -0.0729 -1.1340
  895MOL0     C20746   2.545   4.126   1.255 -0.6187 -0.1799 -0.9851
  895MOL0     C20747   2.580   4.195   1.134 -0.2266 -0.4734 -0.7784
  895MOL0     C20748   2.718   4.224   1.109  0.2039  0.2215 -0.6189
  895MOL0     O20749   2.760   4.319   1.016  1.4535 -0.6420 -0.8114
  895MOL0     C20750   2.717   4.446   1.048  0.3175 -0.6593  0.1814
  895MOL0     C20751   2.734   4.527   0.916 -0.2551  0.7885 -0.2717
  895MOL0     C20752   2.737   4.679   0.936 -1.5101 -0.2974  0.2412
  895MOL0     C20753   2.611   4.733   1.016  0.3873  0.1082  0.2450
  895MOL0     C20754   2.489   4.709   0.930 -0.1753 -0.4553 -0.0451
  895MOL0     C20755   2.394   4.711   0.853  0.0468 -0.2809  0.0615
  895MOL0     C20756   2.807   4.175   1.196 -0.2952 -0.4504 -0.6661
  895MOL0     C20757   2.776   4.108   1.312 -0.1007  0.0127  0.9801
  895MOL0     H20758   2.592   3.722   1.453  2.3980  0.4738  0.9222
  895MOL0     H20759   2.571   3.522   1.590 -0.4339 -0.9185  2.6640
  895MOL0     H20760   2.269   3.465   1.704 -0.9038 -0.6895 -1.5409
  895MOL0     H20761   2.411   3.361   1.684  2.0117  3.5082 -0.5838
  895MOL0     H20762   2.242   3.262   1.849 -0.2971  1.0161 -0.7342
  895MOL0     H20763   2.378   3.311   1.937 -1.3810 -0.6421  0.1456
  895MOL0     H20764   2.240   3.548   1.957 -0.8844 -0.3498 -1.2012
  895MOL0     H20765   2.098   3.447   1.918 -1.2152 -3.1107  2.3341
  895MOL0     H20766   2.140   3.293   2.074 -0.2245  0.2040  1.2988
  895MOL0     H20767   2.288   3.385   2.133 -0.0976  1.2230  0.3357
  895MOL0     H20768   2.120   3.588   2.167  2.0152 -0.5372  0.5548
  895MOL0     H20769   1.988   3.471   2.152  0.3845 -0.6127  0.6024
  895MOL0     H20770   2.207   3.482   2.372  0.3920  1.5891 -0.4371
  895MOL0     H20771   2.030   3.513   2.377  0.0929 -0.3377 -0.1063
  895MOL0     H20772   1.971   3.287   2.340 -0.0080  0.3950 -0.9520
  895MOL0     H20773   2.134   3.234   2.318 -0.9930 -1.1391 -1.0871
  895MOL0     H20774   2.043   3.196   2.560  1.4839  0.1416  1.0423
  895MOL0     H20775   2.016   3.372   2.576 -1.1697 -1.6765  1.8723
  895MOL0     H20776   2.232   3.499   2.692  0.0558 -0.4964 -0.3116
  895MOL0     H20777   2.525   3.553   2.680 -0.4200  0.5339  0.5501
  895MOL0     H20778   2.496   3.463   2.826 -1.4987  0.3444 -0.7681
  895MOL0     H20779   2.735   3.456   2.733 -0.9396 -0.1191  2.6183
  895MOL0     H20780   2.670   3.357   2.598  0.1199  1.4308 -0.1445
  895MOL0     H20781   2.580   3.210   2.799 -0.0030 -1.9392 -1.8448
  895MOL0     H20782   2.666   3.316   2.912 -2.4138 -0.4149 -0.1477
  895MOL0     H20783   2.781   3.173   2.665 -2.6605 -0.9481  0.3563
  895MOL0     H20784   2.788   3.105   2.830 -1.2407 -0.4987  0.0950
  895MOL0     H20785   2.964   3.101   2.619 -1.8000  2.5414  1.4604
  895MOL0     H20786   3.262   2.980   2.520 -1.4773  1.2693 -1.5825
  895MOL0     H20787   3.213   2.865   2.656  0.1117 -0.9647 -0.9634
  895MOL0     H20788   3.092   2.941   2.533 -0.7441 -1.7820  1.2186
  895MOL0     H20789   3.676   3.185   2.937 -3.1641 -0.8125 -2.3265
  895MOL0     H20790   3.927   3.109   2.963  0.0726 -0.1298  0.2568
  895MOL0     H20791   4.089   2.979   2.867  1.8324 -0.7540 -0.8211
  895MOL0     H20792   4.099   2.994   3.047  2.5550  0.9162  1.0925
  895MOL0     H20793   4.243   2.755   2.917 -1.9724 -0.4522  0.5404
  895MOL0     H20794   4.308   2.919   2.913 -1.1476  0.4927 -0.9325
  895MOL0     H20795   4.398   2.807   3.090 -0.0405 -0.5979 -1.9297
  895MOL0     H20796   4.247   2.729   3.136  0.1079  1.4835  1.3728
  895MOL0     H20797   4.184   2.965   3.235  0.6300 -1.3800  3.6589
  895MOL0     H20798   4.341   2.902   3.296  1.7971 -1.1797 -0.8829
  895MOL0     H20799   4.300   3.109   3.068 -0.2791 -1.4759  0.6684
  895MOL0     H20800   4.454   3.050   3.119  1.0919 -0.0479  2.5227
  895MOL0     H20801   4.396   3.272   3.213 -1.0390 -0.2942 -2.4883
  895MOL0     H20802   4.255   3.196   3.291 -0.3449  1.2760  1.1959
  895MOL0     H20803   4.517   3.102   3.372 -1.6403 -1.8873 -1.6179
  895MOL0     H20804   4.363   3.099   3.461 -0.5375  1.0656  0.9133
  895MOL0     H20805   4.359   3.335   3.518 -1.9343  0.1632 -3.2426
  895MOL0     H20806   4.489   3.366   3.402  0.3659 -2.8972 -3.3167
  895MOL0     H20807   3.767   2.695   2.919 -0.6127 -0.1270 -2.9142
  895MOL0     H20808   3.539   2.793   2.917 -2.5947  3.5505 -0.8591
  895MOL0     H20809   3.308   3.214   2.961  1.6353 -1.6886 -0.0907
  895MOL0     H20810   3.089   3.330   2.941 -2.4707 -0.6239  0.3515
  895MOL0     H20811   2.362   3.770   1.888  0.0586  2.1806  0.1719
  895MOL0     H20812   2.381   3.953   1.742 -3.5264 -1.3565 -3.1934
  895MOL0     H20813   2.443   4.103   1.281 -0.9711 -0.1575 -2.2569
  895MOL0     H20814   2.503   4.220   1.062 -2.3713 -1.9900  0.8303
  895MOL0     H20815   2.613   4.456   1.081  0.7695 -0.7617  1.7617
  895MOL0     H20816   2.772   4.502   1.125 -1.1219  1.7630 -0.4103
  895MOL0     H20817   2.655   4.485   0.854  0.8933 -2.8074  0.4587
  895MOL0     H20818   2.824   4.510   0.856 -1.5855 -1.2479 -1.7998
  895MOL0     H20819   2.729   4.732   0.841  0.8128 -0.6854 -0.2289
  895MOL0     H20820   2.832   4.707   0.982 -1.0590 -0.9340 -0.2687
  895MOL0     H20821   2.626   4.839   1.037  3.8711 -0.1474 -0.3880
  895MOL0     H20822   2.595   4.677   1.109 -0.6097  0.7958  0.4978
  895MOL0     H20823   2.307   4.710   0.790 -0.1909 -1.1981  0.3996
  895MOL0     H20824   2.910   4.191   1.163  0.0510 -3.4068 -1.3461
  895MOL0     H20825   2.853   4.084   1.384 -3.3696 -1.4847  4.3327
  896MOL0     O20826   2.769   6.852   3.151 -0.2760  0.5948  0.0761
  896MOL0     C20827   2.787   6.916   3.049 -0.5452 -0.1532  0.8251
  896MOL0     O20828   2.719   6.910   2.936  0.8542 -0.2751  0.0858
  896MOL0     C20829   2.602   6.837   2.934  0.5462 -1.0295  0.3575
  896MOL0     C20830   2.481   6.907   2.923 -0.0735 -1.1455 -0.0843
  896MOL0     C20831   2.354   6.839   2.921 -0.7442 -0.9230 -0.0090
  896MOL0     C20832   2.354   6.691   2.946  0.1885 -0.0577  0.9977
  896MOL0     O20833   2.231   6.618   2.963 -0.7011 -0.1898  0.1439
  896MOL0     C20834   2.106   6.690   2.971 -0.1456  0.4024  0.1216
  896MOL0     C20835   1.986   6.593   2.985  0.2243 -0.0737  0.5551
  896MOL0     C20836   1.868   6.658   3.060  0.6879 -0.2588 -0.6027
  896MOL0     C20837   1.755   6.557   3.097  0.0054  1.1502 -0.2543
  896MOL0     C20838   1.624   6.610   3.149 -0.4558  0.2275  0.2427
  896MOL0     C20839   1.538   6.667   3.035  0.9143  0.2639 -0.0996
  896MOL0     C20840   1.394   6.690   3.075 -0.6444 -0.5219 -0.7760
  896MOL0     C20841   1.315   6.727   2.955  0.3018  0.0774  0.7766
  896MOL0     N20842   1.341   6.868   2.915 -0.0242  0.1528  0.1147
  896MOL0     C20843   1.405   6.906   2.796  0.4916 -0.0498 -1.0602
  896MOL0     C20844   1.375   7.038   2.793 -0.0069 -0.2804 -0.0055
  896MOL0     C20845   1.399   7.140   2.687  0.1165  0.1040  0.7612
  896MOL0     C20846   1.299   7.152   2.563 -0.5545 -0.3425  0.1245
  896MOL0     C20847   1.148   7.157   2.596 -0.0358 -0.0446  0.4023
  896MOL0     C20848   1.083   7.016   2.622 -0.2042  0.5155  0.2121
  896MOL0     O20849   0.939   7.028   2.612  0.0982  0.4673  0.8211
  896MOL0     C20850   0.867   6.919   2.561  0.0727  0.8153  0.0203
  896MOL0     C20851   0.755   6.934   2.483  0.2047 -0.3084 -1.2669
  896MOL0     C20852   0.664   6.831   2.449  0.3135  0.2405 -0.7591
  896MOL0     C20853   0.542   6.862   2.355 -0.2739  0.1489 -0.7426
  896MOL0     C20854   0.703   6.700   2.492 -0.1418 -0.0074  0.1393
  896MOL0     C20855   0.608   6.584   2.480  0.2451 -0.1403  0.0998
  896MOL0     O20856   0.477   6.604   2.495 -0.1053  0.2507  0.8602
  896MOL0     C20857   0.383   6.510   2.471  0.8003  0.5256  0.4927
  896MOL0     C20858   0.256   6.553   2.505 -0.2708  0.5109  0.3070
  896MOL0     C20859   0.145   6.468   2.511  0.3733  0.4117 -0.2592
  896MOL0     C20860   0.163   6.331   2.495  0.5721 -0.4289 -0.8145
  896MOL0     O20861   0.054   6.242   2.500 -0.4463 -0.4138 -0.6498
  896MOL0     C20862  -0.074   6.306   2.497 -0.4308 -0.4963  0.5773
  896MOL0     C20863  -0.194   6.214   2.501 -0.4009 -0.5969 -0.3795
  896MOL0     C20864  -0.313   6.297   2.458  0.0476 -0.3045  0.7759
  896MOL0     C20865  -0.456   6.242   2.481 -0.8361 -0.2558  0.8633
  896MOL0     C20866  -0.479   6.093   2.441  0.0429 -0.4795 -0.4367
  896MOL0     C20867  -0.615   6.034   2.474  0.2750  0.1535 -0.0793
  896MOL0     C20868  -0.733   6.086   2.391  0.2962 -0.3575 -0.3571
  896MOL0     C20869  -0.863   6.011   2.430 -1.3257  0.4805  0.1197
  896MOL0    Cl20870  -0.941   6.094   2.574 -0.6171  0.1694  0.4131
  896MOL0     C20871   0.283   6.284   2.451 -0.2294  0.3226 -0.2198
  896MOL0     C20872   0.398   6.370   2.445  0.7274  0.1610 -0.0603
  896MOL0     O20873   0.666   6.471   2.470 -0.5024 -0.5589  0.1916
  896MOL0     C20874   0.821   6.685   2.563 -0.3953 -0.3596 -0.9389
  896MOL0     C20875   0.905   6.788   2.595 -0.3415  0.6279  0.2885
  896MOL0     N20876   1.301   7.068   2.906 -0.2554  0.2004  0.2534
  896MOL0     N20877   1.287   6.974   2.986  0.0845  0.5657 -0.5295
  896MOL0     C20878   2.482   6.626   2.951  0.1208  0.1300  0.1097
  896MOL0     C20879   2.600   6.699   2.945  0.5896  0.0736 -0.2299
  896MOL0     C20880   2.907   7.001   3.039  0.4526  1.4595 -0.2291
  896MOL0     C20881   3.012   6.978   3.130 -0.5678  0.0787 -0.6858
  896MOL0     C20882   3.129   7.047   3.118  0.3014 -0.5973 -0.2655
  896MOL0     C20883   3.146   7.143   3.014  0.6009 -0.3366 -0.1955
  896MOL0     O20884   3.258   7.222   2.991 -0.4627  0.1007 -0.7191
  896MOL0     C20885   3.256   7.364   2.981 -0.3456 -0.0082 -0.0191
  896MOL0     C20886   3.389   7.411   2.906 -0.2758 -0.4141 -0.5986
  896MOL0     C20887   3.423   7.553   2.920 -0.6777 -1.3381 -0.1341
  896MOL0     C20888   3.569   7.575   2.863 -0.1641 -0.2886  0.3374
  896MOL0     C20889   3.554   7.668   2.749  0.4489 -0.2306  1.0230
  896MOL0     C20890   3.553   7.757   2.665 -0.5929  0.7596 -0.2949
  896MOL0     C20891   3.047   7.154   2.916  0.5150  1.0471  0.4067
  896MOL0     C20892   2.931   7.081   2.928  0.8775 -0.0478 -0.2991
  896MOL0     H20893   2.477   7.015   2.906 -1.2092 -1.1476  0.1298
  896MOL0     H20894   2.259   6.889   2.901  0.4735  1.5247 -0.0436
  896MOL0     H20895   2.115   6.754   3.060  0.7871  0.7001 -0.1803
  896MOL0     H20896   2.082   6.740   2.877 -1.7413 -0.9224 -0.2278
  896MOL0     H20897   1.950   6.551   2.890 -3.6521  0.9069  1.3992
  896MOL0     H20898   2.022   6.518   3.055 -0.2895  0.2517  1.1787
  896MOL0     H20899   1.902   6.690   3.159 -1.2285 -1.0996  0.3888
  896MOL0     H20900   1.825   6.739   3.000 -1.0576 -0.1080  0.7733
  896MOL0     H20901   1.733   6.491   3.012 -1.8778  0.5918  0.6241
  896MOL0     H20902   1.804   6.491   3.168 -1.6817 -2.1572 -1.9294
  896MOL0     H20903   1.573   6.523   3.191 -0.9392 -0.1154 -1.0065
  896MOL0     H20904   1.630   6.689   3.225  1.5320 -2.5684  3.2670
  896MOL0     H20905   1.586   6.756   2.992  1.3078 -0.0187 -0.2493
  896MOL0     H20906   1.544   6.594   2.954  1.9075  1.4249 -1.1354
  896MOL0     H20907   1.349   6.596   3.109 -1.4619 -0.4846 -1.7101
  896MOL0     H20908   1.397   6.757   3.162  0.4818  0.2763 -1.4068
  896MOL0     H20909   1.206   6.717   2.953  0.0053  2.7183 -0.9526
  896MOL0     H20910   1.344   6.666   2.869 -0.5074  1.1707 -0.3163
  896MOL0     H20911   1.455   6.838   2.728 -1.6761 -1.0404 -1.7456
  896MOL0     H20912   1.403   7.241   2.729 -0.6651 -0.3366  1.9368
  896MOL0     H20913   1.500   7.126   2.648 -0.7477 -1.0288 -1.2373
  896MOL0     H20914   1.316   7.071   2.491  2.2180 -0.3088  0.6180
  896MOL0     H20915   1.321   7.243   2.507 -0.7071 -0.4114 -0.0505
  896MOL0     H20916   1.105   7.211   2.511  3.3221 -0.0186 -1.4566
  896MOL0     H20917   1.147   7.212   2.690  1.4559 -0.2091  0.5336
  896MOL0     H20918   1.110   6.992   2.725  0.7959  2.3862  0.4423
  896MOL0     H20919   1.139   6.952   2.553  2.3634  2.8546 -0.0886
  896MOL0     H20920   0.745   7.034   2.443 -0.8335 -0.0985 -0.5048
  896MOL0     H20921   0.539   6.971   2.346  0.4465  0.4891  2.1815
  896MOL0     H20922   0.586   6.826   2.261  2.7709 -0.4978  0.7867
  896MOL0     H20923   0.448   6.817   2.387  1.9641 -3.3967  1.5498
  896MOL0     H20924   0.236   6.657   2.531 -0.3402  0.3263  1.0255
  896MOL0     H20925   0.057   6.518   2.551 -1.5603 -2.5912 -0.3846
  896MOL0     H20926  -0.082   6.371   2.584  2.5432 -2.9580  2.9497
  896MOL0     H20927  -0.069   6.359   2.402  2.1101  1.0149  1.4379
  896MOL0     H20928  -0.180   6.127   2.436 -0.0654 -0.4951 -0.4421
  896MOL0     H20929  -0.213   6.191   2.607  1.1216 -0.0558  0.0326
  896MOL0     H20930  -0.301   6.323   2.353  0.2324  0.9618  1.0935
  896MOL0     H20931  -0.300   6.389   2.516  2.2722  0.1543 -0.3629
  896MOL0     H20932  -0.487   6.262   2.584 -1.2966  1.7749  0.3647
  896MOL0     H20933  -0.522   6.302   2.418 -0.9144 -0.9842  0.2438
  896MOL0     H20934  -0.407   6.037   2.502  0.6313  0.7548  0.0391
  896MOL0     H20935  -0.459   6.077   2.335  0.1112 -2.2871 -0.1850
  896MOL0     H20936  -0.600   5.927   2.457 -2.7290 -0.3668 -0.0735
  896MOL0     H20937  -0.642   6.040   2.580 -1.9928  0.6036 -0.6323
  896MOL0     H20938  -0.706   6.065   2.287  2.2470 -0.5594  0.1356
  896MOL0     H20939  -0.741   6.195   2.406 -1.0338 -0.7768  2.8627
  896MOL0     H20940  -0.847   5.905   2.453  0.1222  1.0264  1.8396
  896MOL0     H20941  -0.931   6.021   2.345 -0.5918 -0.9560 -0.6710
  896MOL0     H20942   0.307   6.181   2.423  0.3551  0.3892  0.0125
  896MOL0     H20943   0.497   6.333   2.421  1.7305  0.3040  3.3532
  896MOL0     H20944   0.856   6.585   2.587  1.6709  0.8673  1.6284
  896MOL0     H20945   1.003   6.772   2.640 -0.7792  0.2215  1.1216
  896MOL0     H20946   2.484   6.520   2.970 -3.5802  0.1449  1.2191
  896MOL0     H20947   2.696   6.649   2.953 -1.1395 -3.3203  1.4359
  896MOL0     H20948   3.012   6.906   3.211  1.8606 -0.2925 -0.9352
  896MOL0     H20949   3.204   7.034   3.195 -0.0519  0.0072  0.1859
  896MOL0     H20950   3.166   7.409   2.938 -2.0822  0.4022  3.5958
  896MOL0     H20951   3.262   7.401   3.084  0.9470  1.0014 -0.4325
  896MOL0     H20952   3.377   7.400   2.798  0.7431  2.3135 -1.0827
  896MOL0     H20953   3.468   7.342   2.938 -1.6659 -2.3238 -1.1303
  896MOL0     H20954   3.431   7.581   3.026  3.3517  0.9069 -0.8148
  896MOL0     H20955   3.353   7.621   2.871  2.0626  2.2030  0.4031
  896MOL0     H20956   3.607   7.475   2.838  0.3346  0.5871 -2.8082
  896MOL0     H20957   3.634   7.626   2.935 -1.3594  1.3639  0.2843
  896MOL0     H20958   3.562   7.845   2.605  0.7628  1.7354  1.2538
  896MOL0     H20959   3.058   7.220   2.831 -0.7683 -2.2362 -2.5641
  896MOL0     H20960   2.865   7.090   2.842  2.2556  4.7379 -1.1542
  897MOL0     O20961   9.146   8.249   2.043 -0.3679  0.2057 -0.3457
  897MOL0     C20962   9.054   8.200   1.975  0.1133 -0.3789  0.2508
  897MOL0     O20963   8.929   8.170   2.019 -0.5866  0.1876 -0.8486
  897MOL0     C20964   8.885   8.223   2.141 -0.5998  0.5464  0.1470
  897MOL0     C20965   8.944   8.328   2.210 -0.0581  1.3155 -0.1582
  897MOL0     C20966   8.894   8.360   2.334  0.0292  0.2284 -0.6152
  897MOL0     C20967   8.787   8.293   2.400  0.5561  0.2919  0.2519
  897MOL0     O20968   8.735   8.353   2.517 -0.1327 -0.0515  0.0408
  897MOL0     C20969   8.675   8.257   2.604  0.4694  0.0771 -0.5462
  897MOL0     C20970   8.681   8.312   2.751  0.0046  0.7925 -0.1179
  897MOL0     C20971   8.578   8.435   2.784  0.9856 -0.1167  0.8968
  897MOL0     C20972   8.609   8.476   2.928  0.0000 -0.5111  0.5385
  897MOL0     C20973   8.497   8.568   2.970  0.0173 -0.4756  0.4654
  897MOL0     C20974   8.372   8.487   3.020 -0.5176 -0.7806  0.8236
  897MOL0     C20975   8.259   8.579   3.069 -0.4243  0.3059  0.1673
  897MOL0     C20976   8.113   8.522   3.083 -0.0957 -1.3546 -0.1597
  897MOL0     N20977   8.016   8.637   3.082 -0.5274 -0.0327 -0.0029
  897MOL0     C20978   8.000   8.718   2.979  0.4461  0.3134  0.1790
  897MOL0     C20979   7.878   8.779   2.996  0.1511  0.1812 -0.8242
  897MOL0     C20980   7.804   8.880   2.912 -0.0777  0.0225  0.0564
  897MOL0     C20981   7.757   8.812   2.786 -0.0740  0.2275 -1.1123
  897MOL0     C20982   7.648   8.711   2.819  1.0441  0.6676  0.1708
  897MOL0     C20983   7.583   8.639   2.698  0.4143  0.2712  0.1638
  897MOL0     O20984   7.492   8.538   2.743 -0.2877  0.5616  0.4370
  897MOL0     C20985   7.393   8.494   2.658  0.1304 -0.6185 -0.0638
  897MOL0     C20986   7.284   8.434   2.722  0.0377  0.3072  0.0389
  897MOL0     C20987   7.172   8.387   2.645 -0.2183 -0.0376  0.1774
  897MOL0     C20988   7.051   8.349   2.728 -0.6153  0.5214 -0.4955
  897MOL0     C20989   7.169   8.407   2.507 -0.4074 -0.3943 -0.3573
  897MOL0     C20990   7.051   8.382   2.417 -0.0826 -0.8355  0.5513
  897MOL0     O20991   7.063   8.420   2.282 -0.4127  1.1305 -0.3736
  897MOL0     C20992   6.961   8.382   2.198 -0.5426 -0.0441 -0.6907
  897MOL0     C20993   6.840   8.452   2.195 -0.0393 -0.8061  0.6432
  897MOL0     C20994   6.735   8.412   2.107 -0.8950  0.2434  1.0362
  897MOL0     C20995   6.753   8.288   2.036  0.5542  0.6419 -0.1253
  897MOL0     O20996   6.661   8.265   1.940 -0.2994  0.2969  0.3410
  897MOL0     C20997   6.696   8.213   1.811  0.3319  0.0412 -0.2451
  897MOL0     C20998   6.566   8.184   1.735 -0.1175 -0.4617  0.0423
  897MOL0     C20999   6.577   8.148   1.584 -0.3657 -0.4942  0.3637
  897MOL0     C21000   6.445   8.099   1.535  0.4252 -0.4826  0.3760
  897MOL0     C21001   6.444   8.038   1.396 -0.1474  0.0213  0.0748
  897MOL0     C21002   6.311   7.996   1.346  1.6992 -1.1199  0.6921
  897MOL0     C21003   6.216   8.120   1.319 -0.2585 -0.4558  0.5616
  897MOL0     C21004   6.277   8.224   1.230  0.3900 -0.1380  0.7988
  897MOL0    Cl21005   6.352   8.142   1.088 -0.1543  0.7009  0.0408
  897MOL0     C21006   6.867   8.214   2.050 -0.2016 -0.2076 -0.3968
  897MOL0     C21007   6.974   8.264   2.129 -0.4894  0.4080  1.0136
  897MOL0     O21008   6.955   8.318   2.459  0.8207 -0.2298  0.5530
  897MOL0     C21009   7.279   8.472   2.449  0.3531  0.1563 -0.9811
  897MOL0     C21010   7.394   8.511   2.518 -0.5794  1.2237 -0.1434
  897MOL0     N21011   7.821   8.735   3.113 -0.5218 -0.8518 -0.6886
  897MOL0     N21012   7.906   8.642   3.161  0.7200 -0.7086 -0.5439
  897MOL0     C21013   8.725   8.186   2.323  0.5391 -0.4069 -0.1964
  897MOL0     C21014   8.785   8.149   2.199  0.3376  0.2889  0.0729
  897MOL0     C21015   9.095   8.144   1.836  1.1500 -0.1970  0.3644
  897MOL0     C21016   9.032   8.026   1.788 -0.3119  0.3200 -0.9166
  897MOL0     C21017   9.074   7.964   1.668  0.5733 -0.0588 -0.3778
  897MOL0     C21018   9.165   8.026   1.592 -0.0296  0.1085  0.6640
  897MOL0     O21019   9.191   7.971   1.466 -0.3695  0.8258 -0.1271
  897MOL0     C21020   9.335   7.982   1.428  1.2228  0.7231  0.2579
  897MOL0     C21021   9.340   8.091   1.324  0.2413 -1.0797  0.3078
  897MOL0     C21022   9.455   8.073   1.227 -0.5285 -0.1752  0.0553
  897MOL0     C21023   9.516   8.213   1.184  0.6097 -0.5375  0.1540
  897MOL0     C21024   9.637   8.196   1.104 -0.6885 -0.5784  0.3503
  897MOL0     C21025   9.740   8.185   1.032  0.5692 -1.1840 -0.2250
  897MOL0     C21026   9.229   8.149   1.640  0.3571 -0.5050 -0.4152
  897MOL0     C21027   9.198   8.199   1.765 -0.7193  0.0592  0.0106
  897MOL0     H21028   9.024   8.396   2.184 -0.8572  2.7110  0.8868
  897MOL0     H21029   8.924   8.454   2.379 -1.1819  1.6829 -2.6527
  897MOL0     H21030   8.569   8.240   2.583 -1.0364  2.6928  3.7712
  897MOL0     H21031   8.733   8.165   2.592 -0.1888 -0.2251 -1.6174
  897MOL0     H21032   8.662   8.220   2.807 -1.1198  1.4624  0.6386
  897MOL0     H21033   8.782   8.343   2.778  0.0340  1.6834 -1.1672
  897MOL0     H21034   8.587   8.521   2.715  0.8547 -0.9020 -0.1211
  897MOL0     H21035   8.476   8.399   2.774  1.3395 -0.7017 -1.0411
  897MOL0     H21036   8.616   8.381   2.982  1.1477 -1.5872 -1.3813
  897MOL0     H21037   8.707   8.523   2.941  1.8982 -4.2089  0.8482
  897MOL0     H21038   8.548   8.616   3.054 -0.8930  1.2194  0.0915
  897MOL0     H21039   8.466   8.639   2.893 -0.8826 -2.2213 -0.8427
  897MOL0     H21040   8.331   8.424   2.941  0.2688  0.4675 -0.6512
  897MOL0     H21041   8.406   8.415   3.095 -2.4746 -2.7211 -0.0663
  897MOL0     H21042   8.292   8.621   3.164  3.4064 -1.8921  0.0007
  897MOL0     H21043   8.260   8.662   2.998 -2.9736 -0.1923 -0.5772
  897MOL0     H21044   8.095   8.461   3.171 -1.8072 -0.8100 -0.0873
  897MOL0     H21045   8.082   8.454   3.004 -3.0404  0.3452 -0.6231
  897MOL0     H21046   8.068   8.730   2.896  0.9964 -0.0231  0.5797
  897MOL0     H21047   7.729   8.940   2.965 -1.6067 -1.8642  0.1641
  897MOL0     H21048   7.866   8.961   2.873 -1.5608  1.0261 -0.3062
  897MOL0     H21049   7.839   8.760   2.735  0.1774 -0.2297 -0.2667
  897MOL0     H21050   7.712   8.882   2.715  2.6843  1.7583 -1.5087
  897MOL0     H21051   7.563   8.764   2.863  1.0408  0.8696 -0.0750
  897MOL0     H21052   7.691   8.637   2.887  2.8815  0.4789 -1.1287
  897MOL0     H21053   7.660   8.601   2.631  0.7455 -1.7509  1.6069
  897MOL0     H21054   7.528   8.717   2.645 -0.7172 -0.4294  0.2736
  897MOL0     H21055   7.274   8.426   2.830  1.1496  0.7795  0.1893
  897MOL0     H21056   7.015   8.250   2.699  0.7186  0.0094 -0.4484
  897MOL0     H21057   7.069   8.349   2.836 -1.1735  0.7175 -0.3951
  897MOL0     H21058   6.974   8.427   2.722 -3.3345 -2.1019 -3.1870
  897MOL0     H21059   6.827   8.536   2.262 -2.2948  0.0998 -0.8313
  897MOL0     H21060   6.647   8.473   2.086 -1.9134 -0.5100  2.8442
  897MOL0     H21061   6.756   8.285   1.755  1.6261 -0.6978  0.1665
  897MOL0     H21062   6.742   8.114   1.822 -1.6884 -0.8728  0.7248
  897MOL0     H21063   6.504   8.109   1.785 -2.7579  1.1520 -0.6095
  897MOL0     H21064   6.507   8.276   1.738 -1.8300 -1.5188  0.5565
  897MOL0     H21065   6.647   8.066   1.565  3.6315  2.3544  1.4378
  897MOL0     H21066   6.620   8.231   1.526 -2.1046 -0.4340 -0.9227
  897MOL0     H21067   6.400   8.023   1.600 -3.0253 -0.3132 -1.5949
  897MOL0     H21068   6.375   8.183   1.532 -1.5435 -2.0635 -1.5703
  897MOL0     H21069   6.510   7.951   1.394  1.0572  0.9302 -1.3022
  897MOL0     H21070   6.490   8.113   1.331 -1.5446  2.3670  1.6305
  897MOL0     H21071   6.311   7.946   1.249  1.4590 -1.2406  0.7552
  897MOL0     H21072   6.264   7.928   1.417 -1.8303  0.9359  0.5536
  897MOL0     H21073   6.195   8.163   1.418 -1.4240  0.6026 -0.1145
  897MOL0     H21074   6.116   8.099   1.279  1.4293 -1.6420 -3.5901
  897MOL0     H21075   6.359   8.271   1.285  0.7212  0.4993 -0.2013
  897MOL0     H21076   6.201   8.294   1.194  0.3269 -0.7078 -0.2297
  897MOL0     H21077   6.881   8.119   2.000  4.2234  0.1929 -0.3362
  897MOL0     H21078   7.062   8.202   2.141 -1.4426 -1.1505  0.2505
  897MOL0     H21079   7.269   8.480   2.341 -2.9095 -1.1777 -0.9096
  897MOL0     H21080   7.475   8.554   2.461  2.0622 -1.0952  1.6084
  897MOL0     H21081   8.631   8.143   2.355  1.1164 -1.4533  0.1481
  897MOL0     H21082   8.749   8.062   2.145  4.8191 -1.3605 -0.6740
  897MOL0     H21083   8.960   7.971   1.848  1.7324 -2.7331 -0.9989
  897MOL0     H21084   9.022   7.880   1.624  0.2878  0.7373 -1.6076
  897MOL0     H21085   9.402   7.999   1.513  2.2413 -0.7514 -0.2186
  897MOL0     H21086   9.371   7.884   1.395 -1.3484  0.3392 -1.7082
  897MOL0     H21087   9.356   8.183   1.382 -2.1852 -0.4381  0.0578
  897MOL0     H21088   9.247   8.108   1.268  0.9796  2.4780 -0.0764
  897MOL0     H21089   9.419   8.008   1.147  3.2024 -3.6436  0.8440
  897MOL0     H21090   9.541   8.019   1.269  0.9768  1.0877 -1.2544
  897MOL0     H21091   9.535   8.281   1.269  0.4347 -0.6671  0.2970
  897MOL0     H21092   9.438   8.264   1.127  1.3809 -0.1504 -0.5789
  897MOL0     H21093   9.828   8.189   0.970 -1.9553  1.9377 -4.1458
  897MOL0     H21094   9.307   8.199   1.585  1.1911 -0.9873  0.3114
  897MOL0     H21095   9.269   8.270   1.807  0.6981 -2.2102  1.7170
  898MOL0     O21096   7.315   7.289   4.964  0.0202 -1.1589  0.2849
  898MOL0     C21097   7.373   7.184   4.979 -0.7064  0.9989 -0.2862
  898MOL0     O21098   7.321   7.056   4.963  0.1353 -0.0156 -0.2099
  898MOL0     C21099   7.182   7.042   4.952 -0.1863 -2.0369  1.1873
  898MOL0     C21100   7.127   7.048   4.821  0.8250  0.0499 -0.3430
  898MOL0     C21101   6.985   7.027   4.806  0.8060 -0.1083  0.6194
  898MOL0     C21102   6.903   7.002   4.915 -0.6911  0.0601  0.1146
  898MOL0     O21103   6.768   6.989   4.896  0.4360  0.1165  0.1794
  898MOL0     C21104   6.690   7.109   4.884  0.0276 -0.2257  0.6938
  898MOL0     C21105   6.677   7.177   5.025 -0.3285  0.2832  0.0350
  898MOL0     C21106   6.601   7.075   5.124  0.3141  0.4932 -0.6015
  898MOL0     C21107   6.461   7.023   5.086  0.3129 -0.0522  1.0259
  898MOL0     C21108   6.368   6.974   5.197  0.7915 -0.2759  0.4932
  898MOL0     C21109   6.230   6.927   5.139  0.6945  0.0709  0.5451
  898MOL0     C21110   6.243   6.783   5.070  0.4817 -0.7796  1.1218
  898MOL0     C21111   6.111   6.714   5.043 -0.2522 -0.1717  0.2865
  898MOL0     N21112   6.040   6.774   4.935  0.4167 -0.8193  0.0907
  898MOL0     C21113   5.960   6.887   4.943  0.1913 -0.1085 -0.8183
  898MOL0     C21114   5.921   6.921   4.817  0.1983  0.1817 -0.4849
  898MOL0     C21115   5.853   7.040   4.770  0.4902 -0.3161  0.1519
  898MOL0     C21116   5.711   6.996   4.711  0.0247 -1.5127  0.3897
  898MOL0     C21117   5.623   6.907   4.798  1.1363 -0.3826 -0.0718
  898MOL0     C21118   5.586   6.947   4.932 -0.1844  0.0968 -0.4408
  898MOL0     O21119   5.541   7.080   4.919  0.4866 -0.2165  0.1326
  898MOL0     C21120   5.406   7.103   4.905  0.4484 -0.1909  0.8035
  898MOL0     C21121   5.370   7.210   4.809 -0.0767  1.1390  0.4958
  898MOL0     C21122   5.240   7.246   4.781 -0.3992 -0.8004 -0.1066
  898MOL0     C21123   5.206   7.369   4.686 -0.4725 -0.2925  0.5298
  898MOL0     C21124   5.135   7.171   4.841  0.1370 -0.5537  0.0867
  898MOL0     C21125   4.984   7.195   4.817  0.2350  0.0259  0.8839
  898MOL0     O21126   4.893   7.133   4.899 -0.1311 -0.2089 -0.1763
  898MOL0     C21127   4.768   7.183   4.908 -0.4340  0.1512  0.6543
  898MOL0     C21128   4.728   7.278   5.001  0.5129 -0.2231  0.2713
  898MOL0     C21129   4.583   7.316   5.003 -0.0990 -0.2261 -0.0445
  898MOL0     C21130   4.493   7.250   4.926 -0.1418  0.2437  0.0312
  898MOL0     O21131   4.366   7.296   4.950 -0.8287 -0.2983 -0.2827
  898MOL0     C21132   4.276   7.306   4.838  0.3246 -0.6899  0.0968
  898MOL0     C21133   4.154   7.221   4.876  0.0139  0.5346  0.1196
  898MOL0     C21134   4.038   7.211   4.767 -0.0582 -0.5359 -0.0052
  898MOL0     C21135   3.955   7.337   4.752 -1.8775  0.9260  0.2938
  898MOL0     C21136   3.840   7.328   4.657  0.4825 -1.2557  0.4250
  898MOL0     C21137   3.786   7.476   4.660  0.9459  0.6581 -0.0655
  898MOL0     C21138   3.665   7.494   4.568 -0.2188 -0.5197 -0.3137
  898MOL0     C21139   3.674   7.606   4.465  0.0800  0.0288  0.8957
  898MOL0    Cl21140   3.537   7.592   4.353 -0.1753  0.3421 -0.0015
  898MOL0     C21141   4.536   7.153   4.837  0.0015  0.3993  0.7800
  898MOL0     C21142   4.673   7.124   4.825 -0.3378 -0.3572 -0.1998
  898MOL0     O21143   4.950   7.262   4.717  0.1078 -0.1194 -0.2539
  898MOL0     C21144   5.169   7.074   4.942 -0.7981  0.5062  0.3661
  898MOL0     C21145   5.302   7.042   4.973 -0.3622  0.7509 -0.7028
  898MOL0     N21146   5.975   6.822   4.740  0.7296 -0.0746  0.2907
  898MOL0     N21147   6.048   6.735   4.807 -0.1133 -0.3956 -0.0233
  898MOL0     C21148   6.963   6.986   5.032  0.9093 -0.0860 -0.3736
  898MOL0     C21149   7.102   6.995   5.054  0.9539 -0.4626  0.3855
  898MOL0     C21150   7.512   7.191   5.027  0.5346 -0.7278 -0.8975
  898MOL0     C21151   7.605   7.096   4.980  0.0956  1.2901  0.3414
  898MOL0     C21152   7.735   7.107   5.024  0.0794  1.0132 -0.3433
  898MOL0     C21153   7.784   7.222   5.093  0.3966 -0.1556  0.4438
  898MOL0     O21154   7.906   7.242   5.142 -0.1109  0.1147 -0.0881
  898MOL0     C21155   8.005   7.138   5.128 -0.4023  0.9478  0.2906
  898MOL0     C21156   8.146   7.171   5.175  0.0694  0.1542  0.4623
  898MOL0     C21157   8.225   7.230   5.059 -0.2679  0.3920 -0.6175
  898MOL0     C21158   8.348   7.286   5.108  0.7894  0.4537 -0.4377
  898MOL0     C21159   8.445   7.188   5.165  0.3821  0.5701  0.5095
  898MOL0     C21160   8.533   7.116   5.211 -0.3770 -0.0220 -0.0963
  898MOL0     C21161   7.697   7.323   5.124  0.8790 -0.7213 -0.1359
  898MOL0     C21162   7.561   7.303   5.098  0.6637  0.0685  0.6733
  898MOL0     H21163   7.177   7.063   4.725  1.3409  2.9848  0.2792
  898MOL0     H21164   6.925   7.043   4.717 -0.1157  0.1686  1.2795
  898MOL0     H21165   6.746   7.180   4.822 -0.1813 -0.9908 -0.3883
  898MOL0     H21166   6.596   7.077   4.838  1.9019 -5.8454 -0.0002
  898MOL0     H21167   6.776   7.196   5.067  0.1428 -2.1677  0.1957
  898MOL0     H21168   6.626   7.273   5.017 -1.7659 -0.5029 -0.7232
  898MOL0     H21169   6.668   6.990   5.137  0.4710  0.5666 -0.9216
  898MOL0     H21170   6.595   7.127   5.220 -4.5234  1.9443 -1.4358
  898MOL0     H21171   6.407   7.099   5.028  1.1695 -0.5094 -0.4191
  898MOL0     H21172   6.472   6.937   5.019  3.5363  1.4703 -0.5957
  898MOL0     H21173   6.414   6.892   5.252  2.2031 -1.6669 -2.5082
  898MOL0     H21174   6.348   7.052   5.271  0.7058 -1.0084  1.2441
  898MOL0     H21175   6.146   6.927   5.208 -0.7501 -0.2551 -1.1299
  898MOL0     H21176   6.209   6.999   5.059  2.0294 -0.8152 -0.6433
  898MOL0     H21177   6.299   6.798   4.978 -1.9658  2.6357 -0.0153
  898MOL0     H21178   6.287   6.708   5.137  0.0325 -1.8196  0.2791
  898MOL0     H21179   6.056   6.709   5.137 -0.1570  0.6296  0.3974
  898MOL0     H21180   6.134   6.614   5.005  1.3536  0.7178 -1.2566
  898MOL0     H21181   5.937   6.949   5.029 -1.3278 -1.3704 -0.2637
  898MOL0     H21182   5.828   7.105   4.854  1.0739  1.0844 -0.7320
  898MOL0     H21183   5.914   7.100   4.702 -0.3585  1.0323  0.5446
  898MOL0     H21184   5.738   6.942   4.620 -0.9005  2.2019 -2.3504
  898MOL0     H21185   5.664   7.087   4.674  0.7018 -0.3330  2.2510
  898MOL0     H21186   5.663   6.805   4.808  1.4070 -0.2713 -0.0034
  898MOL0     H21187   5.527   6.891   4.749  0.5115  2.0108  0.2743
  898MOL0     H21188   5.686   6.948   4.977 -0.1947 -0.1480 -0.4087
  898MOL0     H21189   5.513   6.881   4.980  1.5003 -0.3842  1.6018
  898MOL0     H21190   5.452   7.255   4.755  2.1911 -1.1756  1.8109
  898MOL0     H21191   5.142   7.441   4.737  0.4233 -1.2223  3.1584
  898MOL0     H21192   5.297   7.424   4.660  0.0636 -0.9139  1.0618
  898MOL0     H21193   5.181   7.328   4.588  0.3234  0.8702 -0.1933
  898MOL0     H21194   4.792   7.328   5.073  1.5261  0.7664 -1.2601
  898MOL0     H21195   4.538   7.387   5.072  0.2355 -2.0394  2.1979
  898MOL0     H21196   4.240   7.409   4.826 -3.0330 -1.5757  1.2526
  898MOL0     H21197   4.321   7.264   4.748  0.5838 -4.9924  1.9638
  898MOL0     H21198   4.184   7.117   4.896 -1.3135  0.2551  0.7623
  898MOL0     H21199   4.126   7.258   4.975  1.4851 -3.1652  2.1139
  898MOL0     H21200   3.962   7.132   4.780 -1.2109  0.9595  3.3546
  898MOL0     H21201   4.065   7.191   4.663 -3.0683 -1.3503 -0.7342
  898MOL0     H21202   3.928   7.375   4.852 -1.9505  4.3159 -0.8735
  898MOL0     H21203   4.014   7.418   4.709 -1.1080 -0.9790 -2.4448
  898MOL0     H21204   3.764   7.257   4.692  1.8656 -2.0794  1.8758
  898MOL0     H21205   3.873   7.296   4.558  0.0833 -1.0760  0.2300
  898MOL0     H21206   3.762   7.504   4.763 -1.3272 -2.8177  0.4971
  898MOL0     H21207   3.856   7.549   4.617 -1.8801  2.2734 -2.3332
  898MOL0     H21208   3.575   7.522   4.625  1.0554  0.0866  1.4883
  898MOL0     H21209   3.670   7.405   4.505  0.7585 -0.0248 -0.9639
  898MOL0     H21210   3.769   7.622   4.412  0.8985  0.1159  2.3387
  898MOL0     H21211   3.660   7.701   4.518 -0.2682  0.2035  0.5006
  898MOL0     H21212   4.458   7.104   4.781  0.4414 -1.5546  1.7791
  898MOL0     H21213   4.704   7.045   4.756 -1.9004 -1.9841  0.8805
  898MOL0     H21214   5.104   7.016   5.007 -0.6281 -0.1884 -0.0725
  898MOL0     H21215   5.304   6.952   5.034 -0.7531  0.8575 -0.5262
  898MOL0     H21216   6.902   6.955   5.116  1.7671 -0.4028  0.1429
  898MOL0     H21217   7.142   6.976   5.154 -0.5476  3.0365  1.8114
  898MOL0     H21218   7.586   7.023   4.903  1.7258  0.9449  0.2336
  898MOL0     H21219   7.796   7.019   5.006 -2.1835 -1.3430  2.5343
  898MOL0     H21220   7.981   7.043   5.178  2.9080 -1.2344 -1.8966
  898MOL0     H21221   8.012   7.118   5.021 -1.2205  1.6895  0.0809
  898MOL0     H21222   8.194   7.082   5.217 -0.8808  0.2130  1.7316
  898MOL0     H21223   8.129   7.244   5.255 -2.6790 -0.0428  0.1671
  898MOL0     H21224   8.162   7.301   5.005  1.0601  1.0079 -1.4119
  898MOL0     H21225   8.252   7.150   4.989  1.8279  1.4549 -1.0981
  898MOL0     H21226   8.309   7.353   5.185 -0.3801 -1.8123  1.0382
  898MOL0     H21227   8.404   7.333   5.027  3.4068 -0.9298  0.4674
  898MOL0     H21228   8.597   7.041   5.254 -0.6175 -0.8183 -1.0810
  898MOL0     H21229   7.722   7.414   5.177 -2.2374  0.6388 -0.8260
  898MOL0     H21230   7.496   7.388   5.117  0.1741  0.3622 -1.8985
  899MOL0     O21231   9.952   6.885   3.399 -0.0961  0.4288  0.3801
  899MOL0     C21232   9.912   6.894   3.285  0.2841  0.4879 -0.1039
  899MOL0     O21233   9.982   6.869   3.176  0.2580  0.5649  0.8365
  899MOL0     C21234  10.118   6.843   3.171  0.0519 -0.5116 -0.5444
  899MOL0     C21235  10.172   6.838   3.046 -0.0764 -0.2037  0.4912
  899MOL0     C21236  10.303   6.819   3.012 -0.8870  0.5164  0.3664
  899MOL0     C21237  10.393   6.791   3.112 -0.2858 -1.3367 -0.4241
  899MOL0     O21238  10.522   6.761   3.066 -0.0338  0.2004  0.8885
  899MOL0     C21239  10.625   6.792   3.164 -0.4834  0.1507  0.3414
  899MOL0     C21240  10.749   6.743   3.101 -0.4766  0.2553  0.0654
  899MOL0     C21241  10.879   6.790   3.160  0.0974  0.1966  0.0218
  899MOL0     C21242  10.914   6.753   3.309 -0.9875  0.6560 -0.7127
  899MOL0     C21243  11.050   6.808   3.354  0.1659  0.6753  0.0137
  899MOL0     C21244  11.172   6.705   3.347 -1.4389 -0.0482  0.3194
  899MOL0     C21245  11.301   6.759   3.414 -0.3807 -0.2391 -0.4793
  899MOL0     C21246  11.410   6.656   3.418 -0.1602 -0.3715 -0.8004
  899MOL0     N21247  11.537   6.729   3.441 -0.0271  0.2682 -0.7486
  899MOL0     C21248  11.592   6.733   3.568  0.0747  1.1039 -0.3473
  899MOL0     C21249  11.700   6.812   3.553  0.1710  0.7760 -0.0707
  899MOL0     C21250  11.785   6.860   3.667  0.3747 -0.1581  0.3320
  899MOL0     C21251  11.887   6.744   3.689  0.7065  0.2520  0.3778
  899MOL0     C21252  12.006   6.791   3.770 -1.3200  0.9514  0.1801
  899MOL0     C21253  12.085   6.915   3.714  0.5932 -0.1229  0.2110
  899MOL0     O21254  12.225   6.910   3.750  0.1511 -0.2799  0.1942
  899MOL0     C21255  12.311   7.004   3.715 -0.0056  0.0194  0.0512
  899MOL0     C21256  12.273   7.109   3.633  0.4813 -0.4952 -0.0962
  899MOL0     C21257  12.348   7.227   3.608  0.7316  0.0922 -0.1779
  899MOL0     C21258  12.278   7.334   3.519 -0.1563  0.2698 -0.1584
  899MOL0     C21259  12.482   7.230   3.649  0.1692 -0.3907 -0.8917
  899MOL0     C21260  12.579   7.332   3.615 -0.1564 -0.1453  0.1258
  899MOL0     O21261  12.690   7.344   3.699  0.3015 -0.3194 -0.5126
  899MOL0     C21262  12.807   7.406   3.651 -1.0571  0.1596  0.2038
  899MOL0     C21263  12.913   7.327   3.601  0.6516 -0.6547 -0.8246
  899MOL0     C21264  13.035   7.385   3.562 -0.3349  0.0993 -0.2059
  899MOL0     C21265  13.063   7.520   3.588  0.2230  0.1487 -0.4907
  899MOL0     O21266  13.191   7.573   3.584  1.1673 -0.0562  0.3847
  899MOL0     C21267  13.286   7.529   3.489  0.7876  0.3175 -0.3949
  899MOL0     C21268  13.384   7.643   3.466 -0.3869  0.4270 -0.1039
  899MOL0     C21269  13.474   7.606   3.345 -0.0196  0.0415 -0.3978
  899MOL0     C21270  13.568   7.723   3.305 -0.5685  0.3062  0.1913
  899MOL0     C21271  13.654   7.691   3.182  0.5526 -0.0926 -0.4387
  899MOL0     C21272  13.785   7.763   3.174  0.7877  0.0636  0.0781
  899MOL0     C21273  13.865   7.712   3.057  0.3953  0.1479 -0.2229
  899MOL0     C21274  14.003   7.785   3.056  0.9442  0.7540 -0.4792
  899MOL0    Cl21275  13.969   7.952   3.001 -0.1176  0.0216 -0.6139
  899MOL0     C21276  12.966   7.595   3.650 -0.0156 -0.1202  1.0147
  899MOL0     C21277  12.836   7.542   3.666  0.1383 -0.0223  0.7348
  899MOL0     O21278  12.576   7.387   3.504  0.1454 -0.3556  0.2827
  899MOL0     C21279  12.528   7.124   3.735  0.8948 -0.2511 -0.2208
  899MOL0     C21280  12.441   7.019   3.761 -0.3928  0.8142 -1.1109
  899MOL0     N21281  11.717   6.850   3.420  0.3309  0.6279  0.5648
  899MOL0     N21282  11.615   6.801   3.352 -0.1812  0.3542  0.8162
  899MOL0     C21283  10.346   6.790   3.245  0.1881  0.8077 -0.7280
  899MOL0     C21284  10.213   6.820   3.267  0.2679 -0.2417 -0.1338
  899MOL0     C21285   9.772   6.938   3.266  0.1383 -0.4195  0.0178
  899MOL0     C21286   9.681   6.938   3.378  0.7158  0.3620 -0.0312
  899MOL0     C21287   9.542   6.957   3.344 -0.1496  0.4130 -1.0286
  899MOL0     C21288   9.500   6.993   3.217  0.4082 -1.3197  0.1545
  899MOL0     O21289   9.366   7.025   3.194  0.8842  0.4731 -0.6008
  899MOL0     C21290   9.285   6.907   3.167 -0.1436 -0.7031  0.4471
  899MOL0     C21291   9.163   6.957   3.077  0.3371 -0.8200 -0.4082
  899MOL0     C21292   9.050   6.847   3.085 -0.0204 -0.3964  0.3178
  899MOL0     C21293   8.924   6.888   3.004  0.4735 -0.5312  0.1565
  899MOL0     C21294   8.837   6.978   3.089 -0.1138 -0.3458 -0.9035
  899MOL0     C21295   8.802   7.054   3.173 -0.4431 -0.2812  0.4117
  899MOL0     C21296   9.597   6.986   3.112  0.2389 -0.2534  0.2159
  899MOL0     C21297   9.726   6.959   3.139 -0.0323 -0.1895 -0.1546
  899MOL0     H21298  10.115   6.840   2.953  1.6787 -1.3624 -0.6599
  899MOL0     H21299  10.351   6.813   2.915  2.4933 -1.3671  1.9665
  899MOL0     H21300  10.630   6.901   3.171 -1.8025  0.4057 -1.7086
  899MOL0     H21301  10.612   6.748   3.263  1.4273  0.8385  0.9333
  899MOL0     H21302  10.755   6.634   3.108  0.7683  0.3372  0.5718
  899MOL0     H21303  10.753   6.775   2.997 -0.0716 -2.1470 -0.7216
  899MOL0     H21304  10.963   6.761   3.096 -0.8098 -1.5661 -0.4285
  899MOL0     H21305  10.883   6.899   3.151  0.0944  0.3162  1.3510
  899MOL0     H21306  10.841   6.785   3.383  2.9018  1.5214  3.1762
  899MOL0     H21307  10.922   6.644   3.298  0.8180  0.6423  0.3353
  899MOL0     H21308  11.079   6.895   3.293 -0.1226  2.2813  2.0487
  899MOL0     H21309  11.038   6.852   3.453  2.0357  0.3961  0.4110
  899MOL0     H21310  11.143   6.612   3.396  0.4392 -1.8809 -1.8340
  899MOL0     H21311  11.198   6.687   3.242  3.2214  0.2320  1.1872
  899MOL0     H21312  11.345   6.843   3.359  0.9510  0.3173  1.3193
  899MOL0     H21313  11.281   6.797   3.514  1.4906  1.1975 -0.5917
  899MOL0     H21314  11.424   6.590   3.332  1.8122 -1.2923  0.1667
  899MOL0     H21315  11.386   6.581   3.494  2.3023 -0.0968  0.3408
  899MOL0     H21316  11.552   6.685   3.656  0.0072 -0.0306 -0.9723
  899MOL0     H21317  11.830   6.950   3.625 -1.7197 -0.0091 -1.7914
  899MOL0     H21318  11.724   6.884   3.754  2.5827 -0.2395  2.0006
  899MOL0     H21319  11.918   6.707   3.591 -3.0280  2.5419 -1.9070
  899MOL0     H21320  11.839   6.663   3.744  0.0156  0.1667 -0.3365
  899MOL0     H21321  12.079   6.710   3.768  0.8556  2.8542 -1.0307
  899MOL0     H21322  11.980   6.811   3.875 -0.7279 -2.3990  1.0941
  899MOL0     H21323  12.033   6.993   3.769  1.8696  1.0805 -0.2089
  899MOL0     H21324  12.076   6.921   3.605  1.4640  0.1508  0.1423
  899MOL0     H21325  12.171   7.116   3.599  0.5768  2.5231 -0.0589
  899MOL0     H21326  12.310   7.432   3.556  2.2550 -0.9317  1.1227
  899MOL0     H21327  12.306   7.315   3.415 -0.9288  0.6226 -0.4403
  899MOL0     H21328  12.171   7.318   3.537  0.5126 -0.6845  3.7097
  899MOL0     H21329  12.883   7.222   3.596  1.4785 -0.9651  0.3533
  899MOL0     H21330  13.119   7.329   3.524  1.1035  3.0084 -1.5987
  899MOL0     H21331  13.328   7.435   3.524 -0.9373 -0.5234 -0.4814
  899MOL0     H21332  13.242   7.499   3.393  1.8931 -2.2308 -0.1690
  899MOL0     H21333  13.333   7.736   3.441 -1.0000  0.4844  1.3027
  899MOL0     H21334  13.442   7.643   3.558  1.2875  1.1437 -1.1132
  899MOL0     H21335  13.416   7.578   3.257 -0.7369  0.3998 -0.0435
  899MOL0     H21336  13.536   7.521   3.376  0.3298  0.5429  0.3148
  899MOL0     H21337  13.507   7.813   3.292 -1.1155  0.0329  0.7973
  899MOL0     H21338  13.646   7.737   3.380  2.1323  1.5565 -2.6110
  899MOL0     H21339  13.592   7.721   3.096  0.8159  2.2573  0.1313
  899MOL0     H21340  13.672   7.583   3.176 -1.7277 -0.5954  0.5380
  899MOL0     H21341  13.776   7.871   3.192 -2.4592  0.1234 -1.3232
  899MOL0     H21342  13.837   7.731   3.265  2.6281 -0.1236 -0.9943
  899MOL0     H21343  13.820   7.737   2.960 -0.0876 -0.8077 -0.2566
  899MOL0     H21344  13.874   7.604   3.067 -0.0779  0.1114 -0.1467
  899MOL0     H21345  14.062   7.739   2.976 -0.6997  0.5156 -1.5799
  899MOL0     H21346  14.041   7.782   3.159 -1.6274 -3.2851  0.5734
  899MOL0     H21347  12.978   7.700   3.673 -0.7754  0.1319  0.3368
  899MOL0     H21348  12.769   7.620   3.701  0.6239  1.1644 -0.8939
  899MOL0     H21349  12.632   7.133   3.766  0.8530  0.1824 -0.2008
  899MOL0     H21350  12.462   6.930   3.820  1.0839  3.1073  2.0490
  899MOL0     H21351  10.412   6.763   3.326  0.1954 -2.7974 -1.7619
  899MOL0     H21352  10.186   6.820   3.373 -0.8207 -0.8733 -0.3948
  899MOL0     H21353   9.726   6.919   3.475  1.8659  1.6905 -0.2687
  899MOL0     H21354   9.473   6.950   3.427  2.6503  0.9258  1.5227
  899MOL0     H21355   9.350   6.838   3.112 -2.0484 -0.0207 -2.8776
  899MOL0     H21356   9.256   6.852   3.257  0.1837 -1.7779 -0.0915
  899MOL0     H21357   9.196   6.979   2.975 -0.3129  2.3478 -0.0381
  899MOL0     H21358   9.118   7.049   3.114  1.2792  0.4159 -2.1653
  899MOL0     H21359   9.026   6.823   3.189  0.0486  1.0859  0.7075
  899MOL0     H21360   9.087   6.754   3.040  4.4519  0.2196  2.1822
  899MOL0     H21361   8.858   6.805   2.981  0.1936  0.1573 -1.7216
  899MOL0     H21362   8.955   6.933   2.909 -1.8866 -0.5410 -0.6821
  899MOL0     H21363   8.768   7.132   3.238  1.7188  2.1597 -1.2216
  899MOL0     H21364   9.559   6.999   3.011 -1.0145 -0.1079  0.6891
  899MOL0     H21365   9.787   6.953   3.049 -2.4066  2.7215 -2.1871
  900MOL0     O21366   3.397   8.007   8.955 -0.0174  0.2344 -0.9316
  900MOL0     C21367   3.460   7.954   8.861  0.8584  0.1417  0.0998
  900MOL0     O21368   3.417   7.842   8.787  0.2225 -0.2387 -0.4267
  900MOL0     C21369   3.284   7.806   8.777 -0.3099 -0.2207  0.4903
  900MOL0     C21370   3.170   7.883   8.797 -0.7834 -0.8341  1.4909
  900MOL0     C21371   3.046   7.830   8.765  0.1263 -0.1097  0.5937
  900MOL0     C21372   3.029   7.700   8.729 -2.0719 -0.0404 -0.2238
  900MOL0     O21373   2.915   7.647   8.687 -0.0059 -1.3320 -0.4176
  900MOL0     C21374   2.868   7.530   8.743  0.3107 -0.4903 -0.0615
  900MOL0     C21375   2.835   7.524   8.897 -0.1248  0.1361  0.1432
  900MOL0     C21376   2.757   7.396   8.945 -0.1682  0.0023  0.4803
  900MOL0     C21377   2.644   7.343   8.862  0.2023 -0.2427  0.2000
  900MOL0     C21378   2.580   7.220   8.919 -1.2050  0.2260 -0.4269
  900MOL0     C21379   2.457   7.183   8.833 -0.2232 -0.4027 -0.2082
  900MOL0     C21380   2.359   7.089   8.901  0.7669 -0.2417 -0.5153
  900MOL0     C21381   2.221   7.073   8.831 -0.7456  0.6837  0.0898
  900MOL0     N21382   2.150   7.201   8.832 -0.0942  0.0810 -0.3934
  900MOL0     C21383   2.060   7.224   8.933  0.0617 -0.6125 -0.0463
  900MOL0     C21384   2.028   7.356   8.906 -1.1026 -0.0737 -1.0242
  900MOL0     C21385   1.937   7.436   8.984 -0.0964 -0.0093  0.2191
  900MOL0     C21386   1.809   7.451   8.900 -0.2748  0.0378  0.5649
  900MOL0     C21387   1.708   7.533   8.977 -0.0412  0.5727  0.4103
  900MOL0     C21388   1.602   7.576   8.887  0.2006  0.1759  0.3835
  900MOL0     O21389   1.506   7.622   8.971  0.7163 -0.0296 -0.3358
  900MOL0     C21390   1.406   7.692   8.915  0.1277 -0.3425  0.5396
  900MOL0     C21391   1.403   7.760   8.792 -0.3027  0.1158 -0.9271
  900MOL0     C21392   1.287   7.827   8.750  0.4229  0.0609  0.1113
  900MOL0     C21393   1.290   7.888   8.613  0.2883 -0.1628 -0.4951
  900MOL0     C21394   1.173   7.829   8.835  0.3779 -0.3152  0.6202
  900MOL0     C21395   1.045   7.888   8.790  0.1649 -0.5752 -0.0111
  900MOL0     O21396   1.041   7.994   8.703 -0.4137 -0.2493 -0.0921
  900MOL0     C21397   0.917   8.040   8.662 -0.0118  0.0538  0.5802
  900MOL0     C21398   0.835   8.125   8.739  0.1694  0.5642 -0.2903
  900MOL0     C21399   0.720   8.174   8.687 -0.0372  0.3125  0.0706
  900MOL0     C21400   0.675   8.133   8.562  0.2082  0.1893  0.1131
  900MOL0     O21401   0.555   8.175   8.508 -0.2513 -0.7947  0.6253
  900MOL0     C21402   0.452   8.232   8.591 -0.3933  0.5831  0.5638
  900MOL0     C21403   0.344   8.287   8.498  0.0290 -0.3529  0.3005
  900MOL0     C21404   0.229   8.356   8.580 -0.3480  0.1204 -0.5020
  900MOL0     C21405   0.111   8.382   8.478  0.4126 -0.0416 -0.6623
  900MOL0     C21406   0.007   8.481   8.536  0.5502  0.0693  0.4807
  900MOL0     C21407  -0.137   8.429   8.508  0.7777 -0.7689  0.2042
  900MOL0     C21408  -0.249   8.529   8.542  0.0628  0.2486  0.8724
  900MOL0     C21409  -0.395   8.495   8.516 -0.5331  0.3968  0.2295
  900MOL0    Cl21410  -0.502   8.638   8.519  0.0497 -0.0023  0.2276
  900MOL0     C21411   0.759   8.063   8.475  0.2514  0.4033 -0.8382
  900MOL0     C21412   0.878   8.011   8.531 -0.4005 -0.4256 -0.5606
  900MOL0     O21413   0.950   7.830   8.847  0.2695 -0.9356 -0.4699
  900MOL0     C21414   1.174   7.758   8.960  0.2752 -0.4652  1.3181
  900MOL0     C21415   1.291   7.687   8.997  0.2134  0.6912  0.1863
  900MOL0     N21416   2.093   7.399   8.794  0.2095  0.2982 -0.7160
  900MOL0     N21417   2.169   7.308   8.752 -0.1497 -0.2843 -0.3971
  900MOL0     C21418   3.139   7.615   8.719  0.8565  0.0969 -0.5246
  900MOL0     C21419   3.271   7.670   8.744  0.9663  1.1867 -0.4447
  900MOL0     C21420   3.576   8.027   8.821 -0.7378 -0.5794  0.8817
  900MOL0     C21421   3.673   7.959   8.751 -0.1278 -0.1365 -0.1009
  900MOL0     C21422   3.794   8.025   8.712 -0.2568 -0.2457  0.1058
  900MOL0     C21423   3.813   8.165   8.739  0.1896  0.7936 -0.1173
  900MOL0     O21424   3.927   8.233   8.712 -0.4739 -0.6553  0.3786
  900MOL0     C21425   4.057   8.165   8.705  0.0427 -0.8600 -0.4103
  900MOL0     C21426   4.100   8.116   8.849 -0.4687  1.2598  1.0520
  900MOL0     C21427   4.244   8.065   8.853  0.2952 -0.4294 -0.1445
  900MOL0     C21428   4.239   7.917   8.821  0.9502  0.0358 -0.0491
  900MOL0     C21429   4.367   7.844   8.841 -0.3274  0.6840  0.9465
  900MOL0     C21430   4.482   7.796   8.851  0.4642  0.8973 -0.8334
  900MOL0     C21431   3.707   8.231   8.802 -0.3523 -0.1110 -0.0411
  900MOL0     C21432   3.586   8.165   8.838  0.4887  0.3871 -1.3001
  900MOL0     H21433   3.177   7.990   8.816 -2.2328 -0.5344  0.5508
  900MOL0     H21434   2.955   7.887   8.751  0.9644  0.9774 -0.6838
  900MOL0     H21435   2.770   7.524   8.695 -0.1578  1.5555  0.5510
  900MOL0     H21436   2.926   7.439   8.726  0.4315 -0.7717  1.6135
  900MOL0     H21437   2.928   7.544   8.950 -0.0393  0.9409 -0.2980
  900MOL0     H21438   2.780   7.616   8.916 -0.4514 -0.0727  0.2214
  900MOL0     H21439   2.835   7.320   8.939  1.7832  1.8105  1.3367
  900MOL0     H21440   2.736   7.422   9.049 -2.4400  2.3845 -0.4577
  900MOL0     H21441   2.569   7.422   8.857  1.8206  1.4777  1.6133
  900MOL0     H21442   2.683   7.323   8.762  0.8944 -0.2648  0.4697
  900MOL0     H21443   2.657   7.143   8.931 -0.5754  1.1948  2.1735
  900MOL0     H21444   2.541   7.239   9.019 -0.6416  2.4104 -0.5733
  900MOL0     H21445   2.393   7.269   8.812  0.5657  0.0178 -0.9143
  900MOL0     H21446   2.481   7.141   8.736 -0.7066  0.5956 -0.7764
  900MOL0     H21447   2.408   6.993   8.916  0.6619 -0.1085  0.7402
  900MOL0     H21448   2.340   7.131   9.000 -1.7675 -1.8634 -0.2329
  900MOL0     H21449   2.156   7.001   8.880  0.2159 -0.6675 -0.5593
  900MOL0     H21450   2.241   7.037   8.729  0.5585 -0.9582  0.8781
  900MOL0     H21451   2.020   7.176   9.021 -1.6267  3.6318  1.8020
  900MOL0     H21452   1.915   7.389   9.081  0.0380  0.0315  0.2701
  900MOL0     H21453   1.989   7.532   8.999  6.0870 -2.9394  0.5346
  900MOL0     H21454   1.775   7.349   8.882  1.3917 -0.5200  0.3495
  900MOL0     H21455   1.843   7.495   8.805  0.7684  1.4503  1.5328
  900MOL0     H21456   1.763   7.608   9.034 -0.3200  1.1437 -0.0539
  900MOL0     H21457   1.672   7.470   9.059  2.3555 -1.3137  0.1256
  900MOL0     H21458   1.563   7.496   8.822  2.6607  1.2237 -2.6286
  900MOL0     H21459   1.652   7.650   8.823 -0.8603 -0.5741 -1.4035
  900MOL0     H21460   1.486   7.772   8.723 -0.7210 -2.0325 -1.8995
  900MOL0     H21461   1.279   7.997   8.622  0.0441 -0.0925 -1.5670
  900MOL0     H21462   1.380   7.859   8.559  1.8096 -0.1860  1.9156
  900MOL0     H21463   1.203   7.845   8.563 -0.7564 -0.8597  1.7597
  900MOL0     H21464   0.864   8.151   8.840  0.4267  0.5634 -0.3643
  900MOL0     H21465   0.665   8.241   8.753  0.7339 -0.3489  1.4404
  900MOL0     H21466   0.418   8.150   8.654  0.3427  0.4989  0.8536
  900MOL0     H21467   0.488   8.320   8.645  0.3020  0.5534  0.1577
  900MOL0     H21468   0.382   8.357   8.422 -2.6994  0.0970 -0.7505
  900MOL0     H21469   0.304   8.201   8.444 -0.6745 -1.2353  2.1750
  900MOL0     H21470   0.266   8.450   8.621  1.4188 -1.0796  0.7397
  900MOL0     H21471   0.189   8.293   8.660  0.8574 -1.3256 -0.9998
  900MOL0     H21472   0.150   8.425   8.385  5.4269  1.1374  1.6463
  900MOL0     H21473   0.069   8.284   8.453  0.8979 -0.6351  0.7413
  900MOL0     H21474   0.012   8.585   8.504 -1.1384 -0.1554 -0.5998
  900MOL0     H21475   0.022   8.480   8.644 -0.4126 -0.0946  0.6216
  900MOL0     H21476  -0.146   8.416   8.399 -2.5406  2.4019 -0.0862
  900MOL0     H21477  -0.167   8.332   8.548 -3.7805 -0.4504 -1.8068
  900MOL0     H21478  -0.221   8.623   8.495 -1.6596 -0.3576 -1.5477
  900MOL0     H21479  -0.248   8.539   8.651 -2.3898  0.6064  0.9300
  900MOL0     H21480  -0.425   8.421   8.591  0.3429  3.4727  3.9200
  900MOL0     H21481  -0.393   8.451   8.416 -1.8260 -1.9305  1.1593
  900MOL0     H21482   0.716   8.030   8.381 -0.9388 -3.4919  0.8820
  900MOL0     H21483   0.936   7.939   8.475  1.0895  0.1186  0.2250
  900MOL0     H21484   1.095   7.756   9.035  0.8812  2.7837  2.1953
  900MOL0     H21485   1.310   7.631   9.088  0.6128  0.6912  0.1047
  900MOL0     H21486   3.146   7.509   8.699  0.9602  0.0017 -0.0087
  900MOL0     H21487   3.364   7.614   8.743 -0.5897 -1.7786  2.7102
  900MOL0     H21488   3.657   7.860   8.710  0.8022 -0.9946  1.5133
  900MOL0     H21489   3.869   7.960   8.670 -0.4177 -0.5161  0.2362
  900MOL0     H21490   4.072   8.089   8.627  0.4818 -1.2058  0.0012
  900MOL0     H21491   4.134   8.240   8.685 -0.3233 -0.2408  0.4656
  900MOL0     H21492   4.027   8.038   8.873 -1.1759  1.2823 -0.8678
  900MOL0     H21493   4.094   8.197   8.923  3.5529  1.3153  1.4959
  900MOL0     H21494   4.281   8.072   8.956  1.2579 -2.7552 -0.2507
  900MOL0     H21495   4.314   8.122   8.792 -0.1844  2.0715  1.4927
  900MOL0     H21496   4.190   7.896   8.726  2.1681 -4.6318  0.0982
  900MOL0     H21497   4.159   7.876   8.883  0.7794 -1.2457 -1.0891
  900MOL0     H21498   4.577   7.746   8.858  0.0728  0.3032  0.4734
  900MOL0     H21499   3.719   8.336   8.825 -0.5174 -0.1895  0.4303
  900MOL0     H21500   3.508   8.226   8.882  0.7004 -0.1933 -0.0764
  901MOL0     O21501   7.396   9.024   2.382 -0.1982  0.1124  0.0810
  901MOL0     C21502   7.484   8.947   2.349  0.1004  0.4568 -0.0520
  901MOL0     O21503   7.460   8.817   2.301  0.3285 -0.5383  0.4374
  901MOL0     C21504   7.327   8.799   2.254  0.3719  0.6414  1.5108
  901MOL0     C21505   7.209   8.829   2.326  0.3578  0.5261  0.1782
  901MOL0     C21506   7.086   8.800   2.262 -0.1916  0.0906 -0.1352
  901MOL0     C21507   7.079   8.756   2.133  0.2991 -0.1048  0.2073
  901MOL0     O21508   6.955   8.739   2.086 -0.4589 -0.7138 -0.1656
  901MOL0     C21509   6.934   8.802   1.957  0.7826  1.1389 -0.2225
  901MOL0     C21510   6.842   8.705   1.882  0.9676 -0.5607 -0.7662
  901MOL0     C21511   6.695   8.737   1.923 -0.3556  0.2757  0.1682
  901MOL0     C21512   6.603   8.640   1.847  0.4182 -0.5249 -0.6798
  901MOL0     C21513   6.461   8.639   1.894  0.7976 -0.0663  0.6043
  901MOL0     C21514   6.375   8.765   1.866  0.5635  0.0739  0.0862
  901MOL0     C21515   6.226   8.725   1.874 -0.0626 -0.3479  1.3479
  901MOL0     C21516   6.141   8.849   1.841  1.3698  0.7877 -0.0921
  901MOL0     N21517   6.003   8.821   1.896 -0.3706  0.8885  0.1796
  901MOL0     C21518   5.942   8.898   1.990  0.7775  0.3211 -0.4653
  901MOL0     C21519   5.811   8.850   2.003  0.3592  0.4240 -0.2017
  901MOL0     C21520   5.702   8.894   2.089 -0.0057 -1.1987 -0.1774
  901MOL0     C21521   5.612   8.985   2.000  0.0436 -0.8091  0.2772
  901MOL0     C21522   5.478   9.038   2.053  0.0234 -0.4165 -0.0783
  901MOL0     C21523   5.380   9.100   1.954  0.0965  0.9174  0.4920
  901MOL0     O21524   5.265   9.165   2.018  0.0223  0.1556 -0.3154
  901MOL0     C21525   5.298   9.279   2.078 -0.7767  0.1809 -0.7645
  901MOL0     C21526   5.278   9.281   2.225 -0.6423 -0.4579  0.9820
  901MOL0     C21527   5.293   9.400   2.295  0.7774 -0.3292 -0.2556
  901MOL0     C21528   5.302   9.394   2.444  0.1435 -0.6629 -0.0702
  901MOL0     C21529   5.310   9.526   2.228 -0.4118  0.2325 -0.1748
  901MOL0     C21530   5.302   9.657   2.292  0.5216 -0.0968 -0.4600
  901MOL0     O21531   5.178   9.679   2.354  0.2941 -0.4706  0.1604
  901MOL0     C21532   5.159   9.772   2.457 -0.1446 -0.6902 -0.4382
  901MOL0     C21533   5.034   9.790   2.507  0.9903 -0.6059 -1.1197
  901MOL0     C21534   5.003   9.872   2.613  0.5050 -0.2772 -0.5783
  901MOL0     C21535   5.098   9.952   2.675  0.6457 -0.6827 -0.2200
  901MOL0     O21536   5.059  10.040   2.776  0.0533 -0.1768 -0.2923
  901MOL0     C21537   5.126  10.166   2.781 -0.1447  0.1418  0.1010
  901MOL0     C21538   5.050  10.246   2.884 -0.2909 -0.0509 -1.3724
  901MOL0     C21539   5.112  10.381   2.906  0.1634  0.0184  0.2904
  901MOL0     C21540   5.002  10.469   2.975  0.6354  0.4462 -0.1355
  901MOL0     C21541   5.069  10.604   3.001 -0.1321 -0.6862  0.2291
  901MOL0     C21542   4.977  10.729   3.040  0.2021  0.1954 -0.5074
  901MOL0     C21543   5.053  10.862   3.044 -0.2422 -0.1758 -0.1738
  901MOL0     C21544   4.971  10.984   2.998  0.2361  0.8763 -0.8190
  901MOL0    Cl21545   4.889  10.957   2.847  0.4194 -0.0919 -0.3383
  901MOL0     C21546   5.219   9.939   2.622  0.1986 -0.1027  0.2336
  901MOL0     C21547   5.258   9.849   2.521 -0.2916 -0.0330  0.0716
  901MOL0     O21548   5.381   9.744   2.265 -0.0337 -0.1649 -0.3475
  901MOL0     C21549   5.332   9.522   2.085  0.3931  0.3270 -0.4125
  901MOL0     C21550   5.327   9.403   2.017 -0.0819 -0.7749  0.5515
  901MOL0     N21551   5.809   8.733   1.933 -0.0941  0.4382  0.3107
  901MOL0     N21552   5.916   8.720   1.869 -0.1350  0.6568  0.1466
  901MOL0     C21553   7.201   8.724   2.064  1.3551 -0.0603  0.5825
  901MOL0     C21554   7.322   8.758   2.120 -0.5901 -0.2273  0.2331
  901MOL0     C21555   7.620   8.970   2.400  0.6922  0.1755 -0.1173
  901MOL0     C21556   7.714   8.870   2.404 -0.3150 -0.2159 -0.5604
  901MOL0     C21557   7.837   8.890   2.459  0.0300  0.4237 -0.6282
  901MOL0     C21558   7.872   9.005   2.533  0.7609 -0.1549 -0.5774
  901MOL0     O21559   7.991   9.003   2.598 -0.3580  0.3281  0.1593
  901MOL0     C21560   8.056   9.129   2.629 -0.1685 -0.1695 -1.0196
  901MOL0     C21561   8.181   9.104   2.704  0.3950 -0.2735 -0.5482
  901MOL0     C21562   8.161   9.050   2.841 -0.7832 -0.4762 -0.3233
  901MOL0     C21563   8.293   9.016   2.919 -0.2709 -1.0720 -0.2467
  901MOL0     C21564   8.392   8.929   2.842  0.2618  0.4699  0.5935
  901MOL0     C21565   8.464   8.866   2.767 -1.7546  0.5919 -0.1594
  901MOL0     C21566   7.783   9.110   2.526 -0.3726  0.4657 -0.3965
  901MOL0     C21567   7.662   9.091   2.454 -0.6580 -0.9776  0.6646
  901MOL0     H21568   7.194   8.887   2.416 -1.3108  2.8456 -1.4495
  901MOL0     H21569   6.989   8.822   2.305  0.5550 -0.7692  2.1144
  901MOL0     H21570   6.889   8.901   1.964  0.5463  0.9079  2.5857
  901MOL0     H21571   7.021   8.812   1.891  0.5576 -0.8592 -0.8843
  901MOL0     H21572   6.869   8.729   1.779  2.6491  2.9929  0.3697
  901MOL0     H21573   6.855   8.599   1.906  1.0825 -0.9065 -2.2471
  901MOL0     H21574   6.694   8.730   2.032 -1.9701 -1.7470  0.0686
  901MOL0     H21575   6.670   8.836   1.884 -0.7222  0.1731  0.1444
  901MOL0     H21576   6.609   8.647   1.738 -4.6309  1.2112 -1.0960
  901MOL0     H21577   6.632   8.536   1.868 -3.4713 -1.2106  2.4711
  901MOL0     H21578   6.431   8.560   1.825 -1.1173  1.2547 -0.1610
  901MOL0     H21579   6.460   8.618   2.001  2.8572  1.1138  0.9039
  901MOL0     H21580   6.408   8.846   1.933  0.6780  0.7094 -0.7258
  901MOL0     H21581   6.398   8.802   1.766  2.8504 -1.4453 -0.0118
  901MOL0     H21582   6.209   8.640   1.807  0.5379  0.3357  0.3016
  901MOL0     H21583   6.200   8.684   1.972 -3.9646  0.3464  0.7762
  901MOL0     H21584   6.129   8.863   1.733 -1.7177  0.6682  0.1524
  901MOL0     H21585   6.188   8.940   1.880 -0.8920  1.5453  1.0144
  901MOL0     H21586   5.981   8.983   2.045  0.2056 -0.7353  1.6888
  901MOL0     H21587   5.649   8.808   2.130  0.4560 -0.1701  2.8273
  901MOL0     H21588   5.735   8.958   2.172 -0.8161  0.6319 -1.2139
  901MOL0     H21589   5.591   8.927   1.909  0.8398 -1.5487  0.5583
  901MOL0     H21590   5.682   9.063   1.969  0.8942 -1.6852 -0.0356
  901MOL0     H21591   5.490   9.107   2.136  1.3083 -1.4719  0.6604
  901MOL0     H21592   5.411   8.962   2.093 -1.9594  2.1380  1.7090
  901MOL0     H21593   5.346   9.023   1.884  3.7662 -1.6560  1.2647
  901MOL0     H21594   5.437   9.169   1.891  2.9800 -2.0604 -0.4714
  901MOL0     H21595   5.275   9.181   2.266  3.9103 -0.2117  2.4586
  901MOL0     H21596   5.295   9.292   2.482  1.3732 -0.4181  0.8823
  901MOL0     H21597   5.402   9.430   2.470 -0.2163 -0.5505  1.2430
  901MOL0     H21598   5.230   9.462   2.492  0.2076  2.6539 -4.1463
  901MOL0     H21599   4.941   9.748   2.470  0.0004  1.7077 -1.4342
  901MOL0     H21600   4.903   9.889   2.652  1.9222  5.4287  1.4555
  901MOL0     H21601   5.231  10.154   2.808 -0.5335  0.4685  1.8733
  901MOL0     H21602   5.119  10.206   2.679 -1.2125  0.5080  0.2982
  901MOL0     H21603   4.945  10.261   2.857 -0.7766  1.8351  1.1900
  901MOL0     H21604   5.042  10.198   2.982  0.3962 -1.7396 -2.1033
  901MOL0     H21605   5.134  10.427   2.809 -3.4154  1.8213  0.1833
  901MOL0     H21606   5.204  10.374   2.965  0.3467 -0.0769 -0.0018
  901MOL0     H21607   4.913  10.489   2.915 -0.0957 -0.2769  0.6787
  901MOL0     H21608   4.978  10.419   3.069  0.8478  0.0966 -0.2624
  901MOL0     H21609   5.130  10.641   2.917  0.6482  0.6167  1.3208
  901MOL0     H21610   5.136  10.591   3.086 -0.7035 -4.5839  0.2399
  901MOL0     H21611   4.897  10.729   2.965 -2.0424 -0.8069  1.7468
  901MOL0     H21612   4.934  10.716   3.139  0.3044 -0.0118 -0.4901
  901MOL0     H21613   5.138  10.852   2.976 -1.2233  0.1349 -1.5079
  901MOL0     H21614   5.090  10.868   3.147  0.6883 -1.1155 -0.4402
  901MOL0     H21615   5.029  11.075   3.017  0.2434  0.2943  2.7719
  901MOL0     H21616   4.896  10.996   3.077 -0.5056  0.3885 -1.4358
  901MOL0     H21617   5.309   9.985   2.660  0.5698 -1.4134  1.0157
  901MOL0     H21618   5.364   9.848   2.502 -0.3830  0.2689 -0.4805
  901MOL0     H21619   5.335   9.620   2.037 -2.2880 -0.0630 -1.5503
  901MOL0     H21620   5.335   9.424   1.911 -0.7972  2.6130  1.0449
  901MOL0     H21621   7.184   8.663   1.976 -2.2600 -1.2942  1.9364
  901MOL0     H21622   7.412   8.742   2.061 -0.5492 -1.8506  0.6782
  901MOL0     H21623   7.692   8.772   2.363 -0.5102  1.7174 -5.8621
  901MOL0     H21624   7.912   8.813   2.449  0.0903  0.4009 -0.0009
  901MOL0     H21625   8.087   9.187   2.542 -2.4065 -0.4298 -2.0521
  901MOL0     H21626   7.982   9.189   2.682  0.1504  1.2478 -2.1339
  901MOL0     H21627   8.222   9.203   2.726 -0.9746  0.4179 -0.9988
  901MOL0     H21628   8.256   9.047   2.648  0.2009  0.0597 -1.1570
  901MOL0     H21629   8.104   8.957   2.835 -0.2057 -0.8313 -0.4693
  901MOL0     H21630   8.101   9.116   2.903 -1.3080 -2.4197  1.3470
  901MOL0     H21631   8.263   8.976   3.017  0.5464  0.9454  0.8976
  901MOL0     H21632   8.348   9.105   2.950  0.4155 -1.3412 -0.6849
  901MOL0     H21633   8.525   8.807   2.702 -1.7530  0.6312 -0.1938
  901MOL0     H21634   7.802   9.211   2.560  1.3414 -0.6419  2.2667
  901MOL0     H21635   7.593   9.175   2.449  2.2748  1.5645  0.2490
  902MOL0     O21636   4.916   6.821  10.057  0.2069  0.7152  0.0304
  902MOL0     C21637   5.008   6.893  10.024 -0.5607  0.0333 -0.0459
  902MOL0     O21638   5.003   6.984   9.921 -0.9683 -0.6155  1.0952
  902MOL0     C21639   4.886   6.987   9.855  0.0135 -0.3940 -0.0247
  902MOL0     C21640   4.840   6.880   9.771  0.3723 -0.2773  0.1670
  902MOL0     C21641   4.727   6.894   9.691 -1.1772 -0.2609  0.2041
  902MOL0     C21642   4.665   7.016   9.676  1.0619 -0.3026  0.1409
  902MOL0     O21643   4.557   7.034   9.585 -0.0772  0.1023 -0.1940
  902MOL0     C21644   4.450   6.940   9.600 -0.0229 -0.9777 -0.5349
  902MOL0     C21645   4.318   6.994   9.549 -1.1714  0.2864  0.0860
  902MOL0     C21646   4.195   6.909   9.589 -0.0757 -0.1988 -0.8492
  902MOL0     C21647   4.170   6.889   9.740  0.1719 -0.6043 -0.5784
  902MOL0     C21648   4.035   6.820   9.759  0.9305 -0.1105 -0.3355
  902MOL0     C21649   3.995   6.803   9.906  0.7306  0.5288  0.2518
  902MOL0     C21650   3.881   6.707   9.923 -0.5924 -0.6423 -0.4165
  902MOL0     C21651   3.741   6.772   9.876  0.0269 -0.8411  0.0473
  902MOL0     N21652   3.613   6.701   9.904 -0.2328  0.3212  0.0144
  902MOL0     C21653   3.562   6.704  10.030 -0.4820  1.1396 -0.3351
  902MOL0     C21654   3.444   6.634  10.024  0.2981  0.1829  0.1430
  902MOL0     C21655   3.344   6.594  10.127 -0.1024 -0.3232  0.2657
  902MOL0     C21656   3.193   6.609  10.087 -0.0495 -0.2101 -0.2588
  902MOL0     C21657   3.100   6.554  10.199 -0.2420 -0.8553  0.1378
  902MOL0     C21658   2.953   6.573  10.156 -0.5560  0.3034  0.3487
  902MOL0     O21659   2.906   6.703  10.196  0.1097 -0.1557  0.4152
  902MOL0     C21660   2.778   6.741  10.178 -0.8676  0.2233 -0.9838
  902MOL0     C21661   2.681   6.661  10.119 -0.2940 -0.5101 -0.1873
  902MOL0     C21662   2.546   6.696  10.098 -0.4010  0.1139 -0.6524
  902MOL0     C21663   2.451   6.599  10.046 -0.0167 -0.3714 -0.0515
  902MOL0     C21664   2.512   6.830  10.144 -0.5364  1.1368 -0.0931
  902MOL0     C21665   2.381   6.879  10.142 -0.7869 -0.1973 -0.2559
  902MOL0     O21666   2.367   7.018  10.127  0.3268  0.3966 -0.3442
  902MOL0     C21667   2.242   7.073  10.127  0.5820  0.4714 -0.3929
  902MOL0     C21668   2.135   7.021  10.052 -0.6283 -0.0913 -0.8530
  902MOL0     C21669   2.011   7.084  10.065  0.0543  0.4470 -0.2327
  902MOL0     C21670   1.990   7.204  10.140  1.0234 -0.6439  0.1512
  902MOL0     O21671   1.865   7.263  10.133 -0.1299 -0.4394  0.3156
  902MOL0     C21672   1.839   7.368  10.236  0.0166 -1.0077  0.0619
  902MOL0     C21673   1.696   7.421  10.218 -0.4980 -0.5316 -0.2358
  902MOL0     C21674   1.602   7.305  10.235 -0.3253  0.2213 -0.4673
  902MOL0     C21675   1.454   7.343  10.231  0.3470  0.6625 -0.2315
  902MOL0     C21676   1.365   7.216  10.196  0.0097 -0.1618 -0.7763
  902MOL0     C21677   1.213   7.251  10.221 -0.8138 -0.7051 -0.0718
  902MOL0     C21678   1.177   7.248  10.375 -0.4076  0.4146  0.4115
  902MOL0     C21679   1.031   7.202  10.389  0.7152 -0.4423  0.8684
  902MOL0    Cl21680   0.920   7.309  10.302 -0.4233  0.1255 -0.4207
  902MOL0     C21681   2.107   7.262  10.206 -0.4371  0.3915 -0.0032
  902MOL0     C21682   2.227   7.189  10.204 -0.5359  0.0522 -0.1451
  902MOL0     O21683   2.292   6.805  10.182 -0.9977  0.1403 -0.3390
  902MOL0     C21684   2.616   6.913  10.201 -0.0021 -0.2013  1.2511
  902MOL0     C21685   2.744   6.874  10.215 -0.8090  1.3917  0.9954
  902MOL0     N21686   3.435   6.592   9.896 -0.7172  0.3777  0.2559
  902MOL0     N21687   3.536   6.623   9.822 -0.2908 -0.0199  0.1114
  902MOL0     C21688   4.705   7.119   9.755 -0.4749 -0.8512 -0.5666
  902MOL0     C21689   4.819   7.109   9.835  0.2195 -0.0102  0.4254
  902MOL0     C21690   5.118   6.905  10.125 -0.4751  0.2508  1.0121
  902MOL0     C21691   5.130   6.810  10.231 -0.0662  0.4661  0.2278
  902MOL0     C21692   5.213   6.836  10.340 -0.0698  0.2062  0.1850
  902MOL0     C21693   5.305   6.947  10.340 -0.0096  1.1755  0.2192
  902MOL0     O21694   5.395   6.949  10.440  0.1935 -0.2152 -0.1089
  902MOL0     C21695   5.516   7.016  10.430  0.1118  0.0473  0.8016
  902MOL0     C21696   5.605   6.976  10.548 -0.4632 -0.4726  0.8068
  902MOL0     C21697   5.546   7.027  10.681 -0.7396  0.3693  0.4570
  902MOL0     C21698   5.621   6.969  10.806 -0.5403 -0.1902 -0.4778
  902MOL0     C21699   5.753   7.032  10.821  0.8837  0.1046 -0.1873
  902MOL0     C21700   5.861   7.096  10.833  0.6711 -0.6990 -0.6764
  902MOL0     C21701   5.294   7.033  10.236  0.1871  1.8583 -0.2912
  902MOL0     C21702   5.211   7.009  10.119  0.6228 -0.6047 -0.5033
  902MOL0     H21703   4.885   6.784   9.793  2.0209  0.7125  1.3485
  902MOL0     H21704   4.697   6.809   9.631 -2.2315  1.3468 -1.6927
  902MOL0     H21705   4.477   6.855   9.537 -0.4719  0.0234 -2.1233
  902MOL0     H21706   4.445   6.902   9.703  3.9394 -1.7050 -0.4627
  902MOL0     H21707   4.308   7.098   9.580  0.9266  0.7740 -0.7214
  902MOL0     H21708   4.324   7.005   9.440  2.7037  0.4040  0.1962
  902MOL0     H21709   4.106   6.947   9.538 -0.1621 -1.1943 -1.4539
  902MOL0     H21710   4.202   6.809   9.546  1.5303  0.8659 -3.2633
  902MOL0     H21711   4.247   6.830   9.791 -0.3985 -1.5959 -0.8474
  902MOL0     H21712   4.176   6.985   9.792 -0.7160 -0.4973 -0.6496
  902MOL0     H21713   3.962   6.889   9.715  1.1926 -0.0804 -0.7324
  902MOL0     H21714   4.031   6.723   9.707 -1.1039  1.8394 -4.2201
  902MOL0     H21715   4.080   6.775   9.969 -0.6378 -0.7525  1.6194
  902MOL0     H21716   3.972   6.900   9.951 -2.6525 -0.7782  1.6238
  902MOL0     H21717   3.890   6.616   9.863 -2.7859 -0.0638 -1.7022
  902MOL0     H21718   3.879   6.687  10.031 -1.8717 -0.0637 -0.3203
  902MOL0     H21719   3.742   6.792   9.769 -0.6411 -0.2594  0.1403
  902MOL0     H21720   3.729   6.870   9.924 -0.0987  1.1309 -3.7110
  902MOL0     H21721   3.590   6.748  10.125 -2.4905 -0.6749  1.2003
  902MOL0     H21722   3.359   6.487  10.143  0.6060 -0.2610  0.0361
  902MOL0     H21723   3.366   6.648  10.219 -0.8377 -1.9092  1.4122
  902MOL0     H21724   3.180   6.539  10.004 -0.2334 -2.8257  1.8291
  902MOL0     H21725   3.161   6.705  10.046 -0.4328 -1.1446 -2.2939
  902MOL0     H21726   3.122   6.605  10.293  0.3552 -1.4596  0.3339
  902MOL0     H21727   3.124   6.447  10.204 -0.0149 -0.8133 -0.0487
  902MOL0     H21728   2.887   6.495  10.195 -1.9795  1.8626  1.2458
  902MOL0     H21729   2.941   6.561  10.048  0.1213  1.1770  0.1675
  902MOL0     H21730   2.712   6.558  10.107  1.6185 -0.1603  1.2039
  902MOL0     H21731   2.509   6.507  10.032  0.8090 -0.1440  1.5695
  902MOL0     H21732   2.375   6.587  10.124  1.3958  1.2782  1.6900
  902MOL0     H21733   2.401   6.633   9.955 -0.8126 -1.7193 -0.1550
  902MOL0     H21734   2.131   6.921  10.009 -1.6343 -0.5976  0.3509
  902MOL0     H21735   1.917   7.041  10.030 -1.3588  2.4600  0.8997
  902MOL0     H21736   1.856   7.331  10.338  1.3358  0.0267  0.2475
  902MOL0     H21737   1.906   7.454  10.228  2.8431 -3.2461 -3.9940
  902MOL0     H21738   1.693   7.485  10.306  5.2946 -1.7608  1.2383
  902MOL0     H21739   1.688   7.469  10.120 -2.4745 -1.4745 -0.5965
  902MOL0     H21740   1.616   7.245  10.326  1.0959 -0.3650 -1.0508
  902MOL0     H21741   1.619   7.247  10.144 -0.2379 -2.6438  1.2400
  902MOL0     H21742   1.414   7.380  10.326  2.1766  3.2062 -0.3553
  902MOL0     H21743   1.438   7.422  10.156 -1.3706 -0.2876 -0.9386
  902MOL0     H21744   1.397   7.128  10.252  1.1287  2.9858  4.1929
  902MOL0     H21745   1.367   7.193  10.089  0.8402 -0.2025 -0.7541
  902MOL0     H21746   1.183   7.351  10.188 -1.3376 -0.5991  0.6903
  902MOL0     H21747   1.153   7.186  10.157 -1.6320 -0.8718  0.8388
  902MOL0     H21748   1.186   7.343  10.429 -2.1738  1.9932 -1.8754
  902MOL0     H21749   1.228   7.164  10.425 -0.2900  1.5086  2.2311
  902MOL0     H21750   1.000   7.196  10.493 -0.3552 -0.0510  0.5825
  902MOL0     H21751   1.022   7.106  10.337 -2.2159  0.6663 -0.8950
  902MOL0     H21752   2.114   7.358  10.257 -0.1877 -0.0116  0.7437
  902MOL0     H21753   2.313   7.228  10.258 -0.9639 -1.1734  1.4951
  902MOL0     H21754   2.603   7.017  10.231  0.9264  0.3420 -0.1335
  902MOL0     H21755   2.820   6.944  10.249 -0.5880  0.8688  1.5922
  902MOL0     H21756   4.649   7.212   9.750  3.3845  1.6323 -1.5659
  902MOL0     H21757   4.853   7.191   9.898 -0.0296  1.5794 -1.4082
  902MOL0     H21758   5.069   6.720  10.232 -0.3850  0.6769 -0.0179
  902MOL0     H21759   5.202   6.766  10.423 -0.8382  0.4733  0.3241
  902MOL0     H21760   5.549   6.998  10.327 -0.6414 -1.8615  0.8468
  902MOL0     H21761   5.488   7.119  10.450 -2.3073  0.1381 -2.3195
  902MOL0     H21762   5.708   7.012  10.536  0.3547 -2.9726 -0.4180
  902MOL0     H21763   5.621   6.868  10.556  2.5554 -0.0513  2.0171
  902MOL0     H21764   5.452   6.973  10.695  0.6570 -2.4148 -0.0855
  902MOL0     H21765   5.523   7.134  10.679 -1.6594  0.1665 -1.0922
  902MOL0     H21766   5.640   6.868  10.769 -3.2853  0.0555 -2.9676
  902MOL0     H21767   5.566   6.973  10.900  0.0968 -2.1968  0.0235
  902MOL0     H21768   5.957   7.144  10.842  1.0331 -1.5546  0.1524
  902MOL0     H21769   5.366   7.114  10.248 -0.0995  1.9433  1.0437
  902MOL0     H21770   5.214   7.084  10.040  2.0767 -0.1294 -0.0295
  903MOL0     O21771   4.784   8.537   9.542 -0.4844  0.5037  1.1419
  903MOL0     C21772   4.791   8.592   9.434  1.0202  0.2057 -0.1591
  903MOL0     O21773   4.721   8.563   9.324  0.0137 -0.2982 -0.1920
  903MOL0     C21774   4.660   8.441   9.305  0.7913  0.7408 -0.1474
  903MOL0     C21775   4.673   8.373   9.183  0.5113 -0.1041 -0.0381
  903MOL0     C21776   4.601   8.254   9.148  0.0382 -0.2820  0.0400
  903MOL0     C21777   4.518   8.195   9.245 -0.4781 -0.4518 -1.0815
  903MOL0     O21778   4.456   8.079   9.202  0.7319  0.4109 -0.2277
  903MOL0     C21779   4.335   8.033   9.276 -0.4421 -0.6648 -0.3897
  903MOL0     C21780   4.304   7.882   9.244 -0.6121 -0.1025  0.2083
  903MOL0     C21781   4.165   7.833   9.294  0.2013  0.1406 -0.2471
  903MOL0     C21782   4.052   7.904   9.216  1.0375  0.3531  0.2748
  903MOL0     C21783   3.921   7.837   9.245 -0.2809  0.4705  0.5281
  903MOL0     C21784   3.798   7.877   9.164  0.5146 -0.2627 -0.0841
  903MOL0     C21785   3.674   7.790   9.192  0.3500  0.0224 -1.0664
  903MOL0     C21786   3.552   7.878   9.253  0.5657  0.0526  0.7420
  903MOL0     N21787   3.437   7.794   9.291  0.0016  0.5426 -0.3255
  903MOL0     C21788   3.347   7.741   9.203 -0.5143 -0.0104 -0.7141
  903MOL0     C21789   3.264   7.661   9.285 -0.2514  1.2005  0.0274
  903MOL0     C21790   3.140   7.589   9.238 -0.3164  0.7906 -0.1267
  903MOL0     C21791   3.019   7.679   9.230 -0.4001  0.9213 -0.3028
  903MOL0     C21792   3.024   7.764   9.104  0.5709  0.5519 -0.8142
  903MOL0     C21793   2.907   7.856   9.089 -0.3029  0.3457  0.2865
  903MOL0     O21794   2.783   7.789   9.081 -0.1362  0.4558  0.1533
  903MOL0     C21795   2.673   7.867   9.052 -0.5650  0.0224  0.5067
  903MOL0     C21796   2.631   7.887   8.919 -0.4177 -1.1183 -0.1761
  903MOL0     C21797   2.520   7.973   8.884 -0.7485 -0.1713 -0.9550
  903MOL0     C21798   2.490   7.991   8.742 -0.2682 -0.8280  0.5485
  903MOL0     C21799   2.457   8.045   8.991 -0.5466  0.3827 -0.2073
  903MOL0     C21800   2.349   8.143   8.970 -0.2300 -0.7412  0.7527
  903MOL0     O21801   2.319   8.192   8.853 -0.4289 -0.0653  0.4488
  903MOL0     C21802   2.252   8.320   8.845 -1.0228 -0.0222  0.0104
  903MOL0     C21803   2.118   8.309   8.825 -0.6324 -0.4535  0.6356
  903MOL0     C21804   2.037   8.429   8.810 -0.7569  0.5065 -0.8020
  903MOL0     C21805   2.100   8.554   8.812  0.2978  1.0881 -0.1368
  903MOL0     O21806   2.014   8.659   8.794 -0.0686  0.7518 -0.4893
  903MOL0     C21807   2.051   8.788   8.833 -0.4035 -0.1657 -0.0065
  903MOL0     C21808   1.938   8.884   8.833 -0.1336  0.1939  0.4238
  903MOL0     C21809   1.984   9.020   8.894  0.6057 -0.3916 -0.2142
  903MOL0     C21810   1.865   9.119   8.885  0.4922  0.0851  0.2902
  903MOL0     C21811   1.887   9.243   8.969  0.2102  0.7491 -0.6517
  903MOL0     C21812   1.801   9.351   8.910 -0.0118  0.0038 -1.1545
  903MOL0     C21813   1.799   9.482   8.980 -0.4394 -0.8546  0.0401
  903MOL0     C21814   1.758   9.482   9.124  0.1286 -0.5886  0.6076
  903MOL0    Cl21815   1.639   9.357   9.160 -0.0967  0.2213  0.0815
  903MOL0     C21816   2.234   8.566   8.847  0.6550 -0.7462 -0.7476
  903MOL0     C21817   2.314   8.450   8.865  0.5939 -0.9335 -0.0108
  903MOL0     O21818   2.289   8.171   9.072 -0.0780 -0.1066  0.8865
  903MOL0     C21819   2.498   8.020   9.119 -1.1010 -0.6362  0.2934
  903MOL0     C21820   2.594   7.924   9.149 -0.6605  0.8030 -1.4755
  903MOL0     N21821   3.304   7.673   9.413 -0.1447  0.2856  0.4283
  903MOL0     N21822   3.404   7.752   9.421 -0.6207  0.4370  0.2702
  903MOL0     C21823   4.504   8.257   9.370  0.3197 -1.6898 -0.3646
  903MOL0     C21824   4.571   8.382   9.397 -0.1369 -0.0300  0.3159
  903MOL0     C21825   4.900   8.697   9.423  0.5566  0.2181 -0.4283
  903MOL0     C21826   4.928   8.777   9.305  0.0162 -0.2113  0.0633
  903MOL0     C21827   5.046   8.853   9.294 -0.7086  0.5954 -0.3347
  903MOL0     C21828   5.139   8.851   9.392  0.2744 -0.7276  0.0200
  903MOL0     O21829   5.244   8.935   9.369 -0.2097  0.3093 -0.0581
  903MOL0     C21830   5.364   8.923   9.444  0.1935 -0.4870 -0.2384
  903MOL0     C21831   5.472   8.958   9.340  0.8561 -0.0447  0.2390
  903MOL0     C21832   5.468   9.105   9.302  0.1566 -0.0315 -0.4026
  903MOL0     C21833   5.597   9.146   9.225  1.1181  0.7015  0.1949
  903MOL0     C21834   5.706   9.175   9.312 -0.1194  0.2055  0.4543
  903MOL0     C21835   5.797   9.204   9.386  0.0145 -0.0872  0.5872
  903MOL0     C21836   5.114   8.777   9.511  0.5687 -1.3199  0.8982
  903MOL0     C21837   4.998   8.704   9.529  1.2267 -1.1708  0.3893
  903MOL0     H21838   4.737   8.405   9.101  0.7225 -0.8108 -0.1563
  903MOL0     H21839   4.613   8.207   9.051 -0.1065  1.0915 -0.6712
  903MOL0     H21840   4.343   8.039   9.385 -1.0457 -1.6259 -0.2807
  903MOL0     H21841   4.248   8.093   9.249 -0.1983 -0.2328 -0.2226
  903MOL0     H21842   4.320   7.867   9.138  2.3673 -0.9576  0.7133
  903MOL0     H21843   4.382   7.819   9.288 -0.9199 -1.3715 -1.0002
  903MOL0     H21844   4.147   7.726   9.283 -1.1473  0.1215  1.6613
  903MOL0     H21845   4.157   7.849   9.402  0.1463 -1.9451  0.1022
  903MOL0     H21846   4.048   8.011   9.239 -0.7181 -0.0264  1.9551
  903MOL0     H21847   4.071   7.905   9.109 -1.3140 -2.0184 -0.2445
  903MOL0     H21848   3.951   7.735   9.221  3.4825  1.1312  1.7198
  903MOL0     H21849   3.896   7.857   9.349 -1.0148  2.2239  0.0562
  903MOL0     H21850   3.769   7.983   9.171 -0.3371 -0.5107  0.2135
  903MOL0     H21851   3.828   7.867   9.060  0.9945 -2.9294  0.2565
  903MOL0     H21852   3.637   7.740   9.102 -1.2099  0.6003 -0.7720
  903MOL0     H21853   3.688   7.706   9.261  0.3407  1.3972  0.6866
  903MOL0     H21854   3.522   7.967   9.198  0.4142  0.5151  1.5509
  903MOL0     H21855   3.594   7.908   9.350  1.4066 -0.3400  0.5091
  903MOL0     H21856   3.345   7.766   9.097 -1.1872  0.4822 -0.5874
  903MOL0     H21857   3.152   7.541   9.141 -2.3843  0.7970 -0.4398
  903MOL0     H21858   3.126   7.508   9.311 -1.2896  2.7163  1.9781
  903MOL0     H21859   3.011   7.742   9.319 -1.5193  0.8667 -0.3554
  903MOL0     H21860   2.923   7.627   9.238  1.0176 -2.0133 -1.0273
  903MOL0     H21861   3.047   7.705   9.015  2.4057 -0.2152  0.1193
  903MOL0     H21862   3.115   7.824   9.106  1.6987 -0.7304 -4.9219
  903MOL0     H21863   2.915   7.923   9.003 -1.5813  1.0818  0.7060
  903MOL0     H21864   2.897   7.920   9.178  0.5997  0.6956  0.1480
  903MOL0     H21865   2.691   7.829   8.849  0.4839 -0.8636  0.3722
  903MOL0     H21866   2.556   8.072   8.707 -1.2723  1.0448  2.7537
  903MOL0     H21867   2.505   7.899   8.685 -0.2065 -1.1346  1.0615
  903MOL0     H21868   2.392   8.031   8.716  0.3208 -0.6920 -1.6799
  903MOL0     H21869   2.073   8.211   8.827 -0.6035 -0.4604  0.9230
  903MOL0     H21870   1.931   8.419   8.788 -0.4387  0.8272 -2.7085
  903MOL0     H21871   2.082   8.799   8.938  1.5939  3.1061 -0.7939
  903MOL0     H21872   2.128   8.827   8.766  0.3929 -1.5787  0.0535
  903MOL0     H21873   1.910   8.915   8.731  0.2416  2.3461  0.9291
  903MOL0     H21874   1.860   8.847   8.901  1.1298 -1.3171  1.1304
  903MOL0     H21875   2.068   9.064   8.839  0.4409 -0.6808 -0.6971
  903MOL0     H21876   2.016   9.001   8.997 -0.1062 -1.8974 -0.2546
  903MOL0     H21877   1.853   9.131   8.777  0.2214 -1.7614  0.0873
  903MOL0     H21878   1.770   9.080   8.923  0.1431  2.0667  1.6659
  903MOL0     H21879   1.993   9.266   8.983 -0.1059  1.5833  0.5997
  903MOL0     H21880   1.841   9.223   9.066 -0.0302 -0.7291 -1.0448
  903MOL0     H21881   1.831   9.366   8.806  2.4558 -1.0759 -0.6645
  903MOL0     H21882   1.698   9.313   8.912 -1.1911  2.9245  1.8899
  903MOL0     H21883   1.719   9.540   8.931 -1.4141 -1.7518  0.5392
  903MOL0     H21884   1.899   9.524   8.970 -0.1191 -1.9186 -1.6355
  903MOL0     H21885   1.718   9.582   9.142  0.8093 -0.5277  1.8378
  903MOL0     H21886   1.843   9.460   9.189 -0.8778 -1.8286  1.5782
  903MOL0     H21887   2.296   8.654   8.859  0.0537 -0.0774 -2.3965
  903MOL0     H21888   2.422   8.455   8.873  0.7496 -0.7469 -1.8295
  903MOL0     H21889   2.455   8.058   9.211 -0.9440  1.8036 -0.5865
  903MOL0     H21890   2.607   7.910   9.255  2.2212  0.8453 -1.7626
  903MOL0     H21891   4.438   8.210   9.443 -0.2513 -0.3182  0.0354
  903MOL0     H21892   4.561   8.420   9.498  0.1353 -0.4501  0.5048
  903MOL0     H21893   4.851   8.781   9.228  0.3906  0.6477 -0.2893
  903MOL0     H21894   5.051   8.923   9.212  1.6127 -1.3713 -2.0040
  903MOL0     H21895   5.385   8.992   9.526  0.9104 -1.1706  0.1636
  903MOL0     H21896   5.380   8.820   9.478  0.3325 -0.5872 -0.6087
  903MOL0     H21897   5.456   8.890   9.256 -0.6156 -0.7865  1.0837
  903MOL0     H21898   5.571   8.940   9.383  0.3004  2.0012  2.6301
  903MOL0     H21899   5.451   9.166   9.391 -2.9108 -0.4332 -0.6285
  903MOL0     H21900   5.383   9.111   9.234 -0.3787 -1.9671  0.0284
  903MOL0     H21901   5.577   9.238   9.170  1.4597  0.5211 -0.2298
  903MOL0     H21902   5.614   9.069   9.150  0.6356  2.3288 -1.6554
  903MOL0     H21903   5.873   9.234   9.456  0.8968  0.9627 -0.7695
  903MOL0     H21904   5.187   8.763   9.590  3.2697 -2.8959 -1.7037
  903MOL0     H21905   4.992   8.645   9.620  2.2803 -2.2302 -0.1889
  904MOL0     O21906   3.041   0.446   7.487  0.2813  0.5206  0.0673
  904MOL0     C21907   3.126   0.355   7.491 -0.5711  0.5558 -0.1734
  904MOL0     O21908   3.109   0.231   7.446 -0.3213  0.1086 -0.8028
  904MOL0     C21909   2.986   0.198   7.392 -1.5120 -0.5356 -0.3669
  904MOL0     C21910   2.973   0.163   7.252 -0.0771 -0.0405  0.0188
  904MOL0     C21911   2.852   0.112   7.194 -0.5156 -0.1449 -0.0255
  904MOL0     C21912   2.742   0.092   7.281  0.0662  0.0191 -0.3940
  904MOL0     O21913   2.636   0.022   7.223  0.1243 -0.7745 -0.6161
  904MOL0     C21914   2.511   0.066   7.258  0.4514  0.3841  0.3169
  904MOL0     C21915   2.421   0.004   7.158  0.8475  0.0652  0.7518
  904MOL0     C21916   2.274   0.033   7.202 -0.5119  0.0151  0.5431
  904MOL0     C21917   2.184  -0.049   7.119 -0.6019  0.2147  0.3768
  904MOL0     C21918   2.041  -0.024   7.164  0.1080  0.4193 -0.6036
  904MOL0     C21919   1.953  -0.139   7.127  1.4435  0.3456 -0.2306
  904MOL0     C21920   1.812  -0.112   7.184  0.6375 -0.5438 -0.4070
  904MOL0     C21921   1.725   0.005   7.112 -1.0969  0.6178 -0.7468
  904MOL0     N21922   1.593   0.016   7.173  0.3299  0.2454 -0.4278
  904MOL0     C21923   1.566   0.047   7.302 -0.1087 -0.3662 -1.0544
  904MOL0     C21924   1.430   0.057   7.301 -0.4096 -0.1321 -0.7843
  904MOL0     C21925   1.348   0.067   7.427  0.8075 -0.7391 -0.1389
  904MOL0     C21926   1.284   0.201   7.449  0.5178  0.1966  0.3230
  904MOL0     C21927   1.204   0.218   7.584  0.0740  0.0865  0.3333
  904MOL0     C21928   1.172   0.369   7.611  0.7519  0.4746  0.5917
  904MOL0     O21929   1.066   0.411   7.528  0.3613  1.0845 -0.4762
  904MOL0     C21930   0.944   0.452   7.586 -0.4026  0.2352 -0.6551
  904MOL0     C21931   0.879   0.562   7.529  0.3413  0.2377  0.3676
  904MOL0     C21932   0.763   0.606   7.582 -0.4577  0.3566  0.4250
  904MOL0     C21933   0.704   0.730   7.522  0.8479 -0.0435  0.5023
  904MOL0     C21934   0.701   0.547   7.695  0.1219  0.1638 -0.3030
  904MOL0     C21935   0.566   0.603   7.750  0.3371 -0.7597 -0.4327
  904MOL0     O21936   0.553   0.596   7.884 -0.6164  0.8009 -0.6144
  904MOL0     C21937   0.430   0.610   7.940 -0.2920  0.5077 -0.0573
  904MOL0     C21938   0.330   0.517   7.914  1.3954  0.6522 -0.5503
  904MOL0     C21939   0.202   0.538   7.966  0.0731  0.4563  1.0876
  904MOL0     C21940   0.174   0.648   8.038 -0.2582  0.4499  0.0067
  904MOL0     O21941   0.043   0.669   8.076 -0.7660  0.3601  0.4484
  904MOL0     C21942   0.001   0.804   8.113  0.4145 -0.7169 -0.1843
  904MOL0     C21943  -0.147   0.803   8.109  0.6773  0.0439  0.1711
  904MOL0     C21944  -0.204   0.934   8.151 -0.4976 -0.4946 -0.1634
  904MOL0     C21945  -0.360   0.950   8.133  0.2563 -0.7758  0.5519
  904MOL0     C21946  -0.395   1.101   8.129  0.4854  0.9670 -0.6242
  904MOL0     C21947  -0.545   1.126   8.151  0.2748  0.7464 -0.2237
  904MOL0     C21948  -0.601   1.256   8.090 -0.8301 -1.0173  0.1382
  904MOL0     C21949  -0.685   1.321   8.196  0.9511  0.0642 -0.0961
  904MOL0    Cl21950  -0.692   1.498   8.150  0.1773  0.2014 -0.3405
  904MOL0     C21951   0.278   0.732   8.084 -0.6054  0.1604  0.4462
  904MOL0     C21952   0.403   0.712   8.026 -0.2351 -0.4151 -0.2939
  904MOL0     O21953   0.475   0.620   7.671 -0.4175  0.2777  0.7656
  904MOL0     C21954   0.767   0.433   7.751  0.0563  0.2105 -0.0323
  904MOL0     C21955   0.878   0.377   7.687 -0.4519 -0.6656 -0.2626
  904MOL0     N21956   1.378   0.041   7.174  0.2002  0.1155 -0.8891
  904MOL0     N21957   1.473   0.026   7.097 -0.8472 -0.3399  0.1931
  904MOL0     C21958   2.759   0.136   7.418  0.4297  0.7779 -0.0275
  904MOL0     C21959   2.877   0.181   7.471 -0.2402 -0.4889  0.0131
  904MOL0     C21960   3.259   0.356   7.557 -1.2483  0.9209  0.3622
  904MOL0     C21961   3.358   0.257   7.539  0.6644 -0.5443 -0.3502
  904MOL0     C21962   3.472   0.266   7.615 -1.2524  0.0421 -0.2171
  904MOL0     C21963   3.505   0.380   7.692  0.2681  0.2168  0.3389
  904MOL0     O21964   3.621   0.395   7.762  0.7780  0.4205  0.1904
  904MOL0     C21965   3.707   0.287   7.799 -0.2457  0.7448 -0.0507
  904MOL0     C21966   3.847   0.346   7.801  0.2233  0.9050 -0.1140
  904MOL0     C21967   3.910   0.422   7.682 -0.5569 -0.2472  0.2266
  904MOL0     C21968   4.056   0.463   7.725 -0.4092  0.4857  0.6407
  904MOL0     C21969   4.121   0.559   7.637  0.3214 -0.1186 -0.3287
  904MOL0     C21970   4.192   0.639   7.587  0.0075 -0.3168 -0.6197
  904MOL0     C21971   3.414   0.489   7.697  0.3046  0.4565  0.0279
  904MOL0     C21972   3.291   0.469   7.634 -1.1181  0.3098 -0.7240
  904MOL0     H21973   3.056   0.194   7.189 -1.7009 -0.0472 -2.2280
  904MOL0     H21974   2.850   0.095   7.087 -2.6078 -1.7958  0.2090
  904MOL0     H21975   2.481   0.030   7.356  1.4303 -0.0854  0.4547
  904MOL0     H21976   2.507   0.175   7.248  2.4876  0.9555  3.9744
  904MOL0     H21977   2.439   0.035   7.055  0.4539 -1.6056  0.1548
  904MOL0     H21978   2.437  -0.104   7.167  2.9506  0.3298  0.7681
  904MOL0     H21979   2.264  -0.002   7.305 -3.2128 -2.4131 -0.4197
  904MOL0     H21980   2.247   0.139   7.198 -0.3160  0.0570  0.3142
  904MOL0     H21981   2.198  -0.021   7.014 -1.6991 -0.8855 -0.0767
  904MOL0     H21982   2.207  -0.156   7.116 -0.4957  0.2577 -1.5464
  904MOL0     H21983   2.039  -0.014   7.273 -3.4767 -1.7748 -0.2930
  904MOL0     H21984   2.008   0.074   7.129 -0.7231  1.0341  1.6970
  904MOL0     H21985   1.945  -0.157   7.019 -4.3413  0.2554 -0.0756
  904MOL0     H21986   1.977  -0.233   7.176 -0.6177  1.8430  4.1781
  904MOL0     H21987   1.749  -0.201   7.183  0.1730 -0.2180 -1.0345
  904MOL0     H21988   1.821  -0.070   7.284 -2.4094  0.1641 -0.3326
  904MOL0     H21989   1.707  -0.030   7.010 -0.9881  1.3405 -1.0231
  904MOL0     H21990   1.787   0.096   7.109 -0.0355 -0.0995 -3.2106
  904MOL0     H21991   1.625   0.044   7.394  0.1870  1.1730 -1.1621
  904MOL0     H21992   1.269  -0.008   7.424 -0.3079  0.4091 -0.2132
  904MOL0     H21993   1.415   0.048   7.512  1.4912  3.5526  0.5194
  904MOL0     H21994   1.212   0.202   7.367 -0.1587 -4.0661  0.6356
  904MOL0     H21995   1.355   0.284   7.438  0.5057  0.0365 -1.3180
  904MOL0     H21996   1.272   0.182   7.663  1.4573  2.5468  0.3625
  904MOL0     H21997   1.116   0.153   7.580 -0.3112  0.6645 -3.3088
  904MOL0     H21998   1.267   0.422   7.604  0.9146  0.0524 -0.5735
  904MOL0     H21999   1.144   0.373   7.716 -0.4221  0.7379  0.2902
  904MOL0     H22000   0.935   0.600   7.445  0.6143 -1.1947 -0.1223
  904MOL0     H22001   0.788   0.788   7.481 -0.1817  1.3533  0.3101
  904MOL0     H22002   0.646   0.683   7.442  0.2128 -1.1127  1.5656
  904MOL0     H22003   0.643   0.792   7.588 -0.6017  0.8184 -1.5538
  904MOL0     H22004   0.340   0.439   7.839  3.3513  1.0040 -0.7008
  904MOL0     H22005   0.135   0.456   7.942  0.2357  0.8117 -0.7339
  904MOL0     H22006   0.036   0.828   8.214 -0.9268 -0.8925  0.3407
  904MOL0     H22007   0.032   0.883   8.045  1.0198 -1.4413 -0.7679
  904MOL0     H22008  -0.178   0.785   8.005 -1.2496  2.7340  0.1733
  904MOL0     H22009  -0.186   0.716   8.163  1.6578  1.0233  2.5889
  904MOL0     H22010  -0.160   1.010   8.085 -2.2695  0.3424 -0.4456
  904MOL0     H22011  -0.172   0.970   8.249  0.5312 -0.2158 -0.5880
  904MOL0     H22012  -0.389   0.906   8.037  0.6092  4.0955 -2.1006
  904MOL0     H22013  -0.393   0.893   8.221  1.7410  0.3641  1.9059
  904MOL0     H22014  -0.370   1.139   8.030 -1.0461  0.8386 -1.0923
  904MOL0     H22015  -0.339   1.162   8.201  2.5323 -3.0250  1.5119
  904MOL0     H22016  -0.590   1.040   8.100 -4.3179  1.4524  2.1676
  904MOL0     H22017  -0.566   1.132   8.258 -2.7474  3.0336 -0.8295
  904MOL0     H22018  -0.666   1.242   8.003  1.4057  3.3766 -2.6090
  904MOL0     H22019  -0.515   1.320   8.064 -0.6304 -0.9389  0.9652
  904MOL0     H22020  -0.652   1.321   8.300 -0.6521  0.3023  0.4379
  904MOL0     H22021  -0.785   1.278   8.196  1.4584 -1.1900  1.3834
  904MOL0     H22022   0.281   0.816   8.152 -1.3760 -1.6789  2.8657
  904MOL0     H22023   0.480   0.787   8.041 -3.0025  2.4588  0.7655
  904MOL0     H22024   0.723   0.393   7.841 -1.4069  2.4246  0.3220
  904MOL0     H22025   0.928   0.284   7.715 -1.8394 -1.2246  0.4775
  904MOL0     H22026   2.671   0.121   7.480 -1.2892 -2.3076 -2.8407
  904MOL0     H22027   2.879   0.191   7.579 -1.4507 -1.6284  0.1697
  904MOL0     H22028   3.332   0.168   7.482  0.6368 -0.6308 -0.2040
  904MOL0     H22029   3.535   0.178   7.614  2.6683  2.5568  1.6673
  904MOL0     H22030   3.686   0.246   7.898  1.3874 -2.1956 -0.8231
  904MOL0     H22031   3.692   0.210   7.723 -1.1680  1.1849 -0.3323
  904MOL0     H22032   3.907   0.254   7.810 -1.4433 -0.4862 -2.2448
  904MOL0     H22033   3.857   0.401   7.895 -1.4231  1.5721 -0.3135
  904MOL0     H22034   3.848   0.512   7.678  0.3497  0.5671  2.4942
  904MOL0     H22035   3.908   0.366   7.588  2.9452  1.5495 -1.1193
  904MOL0     H22036   4.112   0.369   7.727 -0.6532  0.3436  0.7951
  904MOL0     H22037   4.058   0.498   7.829  1.7618 -0.3238  0.9297
  904MOL0     H22038   4.255   0.722   7.565  0.6700  0.4612  3.3667
  904MOL0     H22039   3.442   0.572   7.761 -0.0217  1.1318 -0.6919
  904MOL0     H22040   3.222   0.553   7.642 -0.2583  0.9818 -0.1302
  905MOL0     O22041   4.536   8.490  10.258  0.1454  0.1469 -0.1615
  905MOL0     C22042   4.562   8.590  10.315 -0.6862  0.3661 -0.4976
  905MOL0     O22043   4.564   8.610  10.450  0.4984  0.1740  0.3310
  905MOL0     C22044   4.511   8.511  10.532 -1.3810 -0.5670 -0.4635
  905MOL0     C22045   4.588   8.466  10.638 -0.1216  0.2543  0.0689
  905MOL0     C22046   4.542   8.366  10.716  0.0290  0.2983 -0.6169
  905MOL0     C22047   4.416   8.308  10.682  0.0251 -0.5004 -0.1148
  905MOL0     O22048   4.363   8.205  10.757  0.7660  0.6465 -0.3743
  905MOL0     C22049   4.368   8.218  10.898  0.1720  0.8318 -2.1090
  905MOL0     C22050   4.307   8.104  10.980  0.3182  0.8150 -0.0929
  905MOL0     C22051   4.149   8.096  10.978 -0.8814 -0.6806  0.1451
  905MOL0     C22052   4.094   8.011  11.095  1.1706 -0.0782 -0.3764
  905MOL0     C22053   3.935   8.033  11.080 -0.2571  0.0341 -1.0188
  905MOL0     C22054   3.860   7.939  11.179  0.2395  0.7178 -0.1350
  905MOL0     C22055   3.709   7.958  11.143 -0.3543  0.4145  0.3399
  905MOL0     C22056   3.610   7.894  11.240  0.6607 -0.2044  0.3466
  905MOL0     N22057   3.465   7.937  11.221  0.7452 -0.2118  0.5236
  905MOL0     C22058   3.394   8.040  11.273 -0.0382 -0.5488 -0.4465
  905MOL0     C22059   3.266   8.032  11.227  0.1399 -0.2647 -0.1444
  905MOL0     C22060   3.168   8.154  11.230 -0.1962  0.5254  1.1012
  905MOL0     C22061   3.043   8.140  11.309  0.9324  0.6346  0.1919
  905MOL0     C22062   2.942   8.053  11.237  0.5552  0.2629 -0.7370
  905MOL0     C22063   2.801   8.059  11.312 -0.2291 -0.7997  0.4339
  905MOL0     O22064   2.821   8.036  11.453  0.4946  0.7079  0.2762
  905MOL0     C22065   2.710   7.968  11.506 -0.3315 -0.0585  0.1416
  905MOL0     C22066   2.702   7.826  11.530 -0.7407  0.5014  0.7140
  905MOL0     C22067   2.585   7.755  11.573 -0.2201 -0.8396 -0.3170
  905MOL0     C22068   2.595   7.601  11.571  0.0961  0.4665  0.3613
  905MOL0     C22069   2.469   7.833  11.594 -0.0779  0.3626 -0.4346
  905MOL0     C22070   2.348   7.761  11.631  0.5657  0.1718  1.2705
  905MOL0     O22071   2.313   7.638  11.584 -0.3402  0.3816  0.4098
  905MOL0     C22072   2.199   7.571  11.619 -0.4383 -0.2629 -0.1109
  905MOL0     C22073   2.135   7.482  11.528 -0.4071  0.2694  0.2903
  905MOL0     C22074   2.020   7.414  11.556 -0.5931 -0.2973 -0.0834
  905MOL0     C22075   1.970   7.433  11.689 -0.4684 -0.9242  0.2390
  905MOL0     O22076   1.872   7.347  11.733  0.2386 -0.2024  0.6250
  905MOL0     C22077   1.766   7.386  11.830 -0.1243 -0.2579  0.5132
  905MOL0     C22078   1.643   7.309  11.795  0.1060 -0.1039  0.7809
  905MOL0     C22079   1.593   7.342  11.658  0.2897 -0.8004  1.0758
  905MOL0     C22080   1.489   7.252  11.606 -0.1071  0.8062  0.4849
  905MOL0     C22081   1.427   7.304  11.483  0.1395  0.0435 -0.0674
  905MOL0     C22082   1.332   7.205  11.406 -0.0914  0.1020 -0.3354
  905MOL0     C22083   1.202   7.168  11.480  0.0835 -0.5462  0.1227
  905MOL0     C22084   1.101   7.097  11.394  1.2915  1.0745  0.7159
  905MOL0    Cl22085   1.036   7.207  11.265  0.2488 -0.0421 -0.8126
  905MOL0     C22086   2.027   7.528  11.775  0.2360  0.4816 -0.1134
  905MOL0     C22087   2.149   7.584  11.748 -0.4908  0.3724  0.0480
  905MOL0     O22088   2.273   7.836  11.696 -0.0038 -1.0939 -0.2067
  905MOL0     C22089   2.479   7.973  11.583 -0.2357 -0.1524 -0.4625
  905MOL0     C22090   2.598   8.036  11.540  0.7188  0.3187  0.6504
  905MOL0     N22091   3.270   7.925  11.139  0.0773 -0.2956 -0.2378
  905MOL0     N22092   3.386   7.868  11.140  0.2878 -0.4318 -0.0567
  905MOL0     C22093   4.343   8.361  10.575 -0.0416  0.8045 -0.2585
  905MOL0     C22094   4.391   8.465  10.495  0.4035  0.4894  0.0039
  905MOL0     C22095   4.597   8.711  10.240 -0.1253 -1.3687 -0.0934
  905MOL0     C22096   4.656   8.826  10.305  0.6092 -0.9883 -1.0064
  905MOL0     C22097   4.692   8.940  10.228  0.3702 -0.4079 -0.3028
  905MOL0     C22098   4.681   8.942  10.091  0.4372  0.2541 -0.2311
  905MOL0     O22099   4.720   9.043  10.012 -0.4974  0.2057 -0.1657
  905MOL0     C22100   4.743   9.173  10.060 -0.0528  0.7223  0.4008
  905MOL0     C22101   4.609   9.248  10.076 -0.2827 -0.2957  0.5601
  905MOL0     C22102   4.600   9.397  10.048 -0.0687  0.0394  0.1204
  905MOL0     C22103   4.681   9.468  10.163 -0.0594 -0.5862 -0.4194
  905MOL0     C22104   4.716   9.601  10.113  0.5812  1.3967  0.5245
  905MOL0     C22105   4.718   9.710  10.059  0.1306 -0.8159  0.3430
  905MOL0     C22106   4.625   8.834  10.029 -0.1661  0.3735  0.1252
  905MOL0     C22107   4.585   8.723  10.104 -0.2736  0.3644  0.4605
  905MOL0     H22108   4.680   8.522  10.657  0.5645 -1.0136  0.5798
  905MOL0     H22109   4.603   8.323  10.796 -0.1989 -2.5204 -1.8230
  905MOL0     H22110   4.476   8.221  10.912  0.4202 -0.2320 -3.5853
  905MOL0     H22111   4.322   8.314  10.925  2.1393  0.9311  1.3279
  905MOL0     H22112   4.333   8.006  10.938  0.4260  1.3671 -1.3367
  905MOL0     H22113   4.350   8.110  11.081  0.5906 -0.0043 -0.1515
  905MOL0     H22114   4.095   8.191  10.972 -0.2624 -0.3867 -1.1525
  905MOL0     H22115   4.124   8.041  10.886 -2.1048 -0.8848  0.5779
  905MOL0     H22116   4.134   7.909  11.084 -0.4871 -0.9522  1.0462
  905MOL0     H22117   4.114   8.044  11.197 -3.6555 -1.4179  1.2783
  905MOL0     H22118   3.900   8.136  11.095 -1.8831 -0.3209 -2.1268
  905MOL0     H22119   3.903   8.013  10.978  0.6842 -2.2870 -0.9147
  905MOL0     H22120   3.892   7.836  11.160 -2.1339 -0.5204  1.9473
  905MOL0     H22121   3.878   7.974  11.281  0.5925  4.6679 -1.3838
  905MOL0     H22122   3.686   8.065  11.140  1.5792  0.8858 -2.5398
  905MOL0     H22123   3.700   7.913  11.043  2.6552  0.8899 -0.2456
  905MOL0     H22124   3.629   7.914  11.346 -3.4468 -0.2858  1.2587
  905MOL0     H22125   3.611   7.786  11.222  0.5804 -0.2082  0.3646
  905MOL0     H22126   3.434   8.124  11.329 -2.7064  1.2529 -1.0495
  905MOL0     H22127   3.221   8.235  11.281 -2.5300  2.1102  1.1895
  905MOL0     H22128   3.147   8.180  11.126  0.6027 -1.7475  0.3024
  905MOL0     H22129   3.004   8.241  11.321  0.6362  0.9979 -2.9469
  905MOL0     H22130   3.056   8.100  11.410 -0.7515  3.4752  1.6193
  905MOL0     H22131   2.954   7.944  11.238 -1.6349 -0.0696 -2.3675
  905MOL0     H22132   2.939   8.085  11.133  0.7010  0.9803 -0.5240
  905MOL0     H22133   2.742   7.986  11.255 -0.0908 -1.0070  0.5531
  905MOL0     H22134   2.760   8.160  11.302 -0.0515 -0.7703 -0.0579
  905MOL0     H22135   2.788   7.765  11.505  0.0087  2.8047 -2.9778
  905MOL0     H22136   2.542   7.548  11.650 -1.4493 -1.4595 -1.8254
  905MOL0     H22137   2.570   7.558  11.474  1.4879  2.9375 -1.2175
  905MOL0     H22138   2.699   7.573  11.587  0.8793  1.8627 -1.8460
  905MOL0     H22139   2.183   7.484  11.431 -1.0816 -1.8650 -0.1286
  905MOL0     H22140   1.968   7.356  11.481  1.3657 -0.3181 -1.5087
  905MOL0     H22141   1.786   7.343  11.929  0.2645 -1.7079 -0.1568
  905MOL0     H22142   1.735   7.490  11.832 -2.0734 -0.7638 -0.7291
  905MOL0     H22143   1.686   7.209  11.781 -0.1179 -0.0501 -0.4046
  905MOL0     H22144   1.566   7.309  11.873 -1.1104 -0.7491 -0.3887
  905MOL0     H22145   1.671   7.359  11.584 -1.5313  1.4799 -0.4588
  905MOL0     H22146   1.546   7.440  11.675  0.7416 -0.5051  0.6438
  905MOL0     H22147   1.549   7.165  11.581  0.7476  1.8523 -1.3416
  905MOL0     H22148   1.414   7.229  11.682  0.5605  2.1568  1.6112
  905MOL0     H22149   1.507   7.322  11.411 -0.2106  1.2563 -0.1780
  905MOL0     H22150   1.370   7.394  11.505 -1.6959 -1.4968  1.9590
  905MOL0     H22151   1.299   7.251  11.312 -0.7949 -2.5239 -1.4665
  905MOL0     H22152   1.389   7.116  11.380 -0.1131  0.3986 -1.4594
  905MOL0     H22153   1.164   7.255  11.533 -1.6226  0.3182 -2.3325
  905MOL0     H22154   1.240   7.099  11.556  3.0398  2.0043  1.1619
  905MOL0     H22155   1.020   7.056  11.453  0.9085  0.3060 -0.3049
  905MOL0     H22156   1.139   7.007  11.345 -3.4395 -0.2049 -1.0940
  905MOL0     H22157   1.984   7.528  11.874 -1.6521  0.5316 -0.8987
  905MOL0     H22158   2.206   7.650  11.812 -0.5714  2.2654 -1.7338
  905MOL0     H22159   2.392   8.035  11.602 -2.8970 -3.5292 -0.6435
  905MOL0     H22160   2.601   8.145  11.537  0.2403  0.3216 -0.1607
  905MOL0     H22161   4.249   8.308  10.556  0.6400 -1.2835  1.6615
  905MOL0     H22162   4.332   8.513  10.418  1.6891  2.7749  0.3589
  905MOL0     H22163   4.670   8.845  10.411  3.0813  2.1257 -1.7161
  905MOL0     H22164   4.732   9.032  10.269  0.1624  2.4291 -5.5561
  905MOL0     H22165   4.811   9.179  10.146 -2.1912 -1.3588  2.3971
  905MOL0     H22166   4.803   9.214   9.978 -2.3946 -2.5301 -3.2159
  905MOL0     H22167   4.567   9.227  10.174 -3.4124  1.1787 -0.3266
  905MOL0     H22168   4.536   9.227   9.998  0.6212  3.3986 -1.5527
  905MOL0     H22169   4.495   9.426  10.047  0.5502  2.6007 -0.8883
  905MOL0     H22170   4.642   9.421   9.950  0.7759 -1.0717  0.1982
  905MOL0     H22171   4.771   9.409  10.184  0.6261 -0.1517 -1.9681
  905MOL0     H22172   4.619   9.483  10.251  1.5557  1.9333  0.3858
  905MOL0     H22173   4.718   9.801  10.002 -5.4074 -0.5737  0.2079
  905MOL0     H22174   4.631   8.818   9.922 -2.1558  0.8866 -0.0935
  905MOL0     H22175   4.558   8.634  10.050  2.0283 -1.3773  1.9583
  906MOL0     O22176   5.924  10.849   2.013  0.1822 -0.1543 -0.7678
  906MOL0     C22177   5.992  10.858   1.914  0.0417 -0.0811  0.1062
  906MOL0     O22178   5.941  10.867   1.790 -0.5766  0.8421 -0.0078
  906MOL0     C22179   5.836  10.797   1.752 -0.2037  0.5261 -0.1512
  906MOL0     C22180   5.772  10.851   1.640  0.3395  0.1597 -0.3697
  906MOL0     C22181   5.660  10.786   1.584  0.2816  0.0447  0.4160
  906MOL0     C22182   5.611  10.677   1.649  0.7848  0.5205  0.1601
  906MOL0     O22183   5.502  10.614   1.584 -0.1052 -0.4466 -0.4042
  906MOL0     C22184   5.440  10.494   1.646  0.0379  0.1830  0.1562
  906MOL0     C22185   5.320  10.458   1.557  0.1071 -0.2532  0.4212
  906MOL0     C22186   5.276  10.313   1.580  0.6174 -0.4011 -0.0133
  906MOL0     C22187   5.164  10.287   1.474  0.2946 -0.1349  0.4610
  906MOL0     C22188   5.072  10.170   1.503 -0.0680 -0.2687  0.2284
  906MOL0     C22189   4.957  10.201   1.602 -0.7131  0.7782 -0.1167
  906MOL0     C22190   4.917  10.053   1.632 -0.0126 -0.0405 -0.4192
  906MOL0     C22191   4.769  10.045   1.658  0.1499  0.5717 -0.2510
  906MOL0     N22192   4.735  10.104   1.790  0.3576  0.8439  0.4189
  906MOL0     C22193   4.714  10.234   1.826  0.2064  0.2139  0.1505
  906MOL0     C22194   4.702  10.223   1.959  0.2676  0.2056  0.0572
  906MOL0     C22195   4.682  10.335   2.056  0.4305 -0.3145  0.0665
  906MOL0     C22196   4.555  10.311   2.138 -0.8531 -0.7562  0.3020
  906MOL0     C22197   4.526  10.413   2.245  1.0682  0.6564 -0.9832
  906MOL0     C22198   4.651  10.445   2.329  0.1752 -0.7787  0.0090
  906MOL0     O22199   4.706  10.563   2.271 -0.2709 -0.3094  0.0828
  906MOL0     C22200   4.803  10.626   2.344 -0.5366 -0.5093  0.5030
  906MOL0     C22201   4.888  10.712   2.268 -0.1153 -1.1469  0.6623
  906MOL0     C22202   4.985  10.799   2.325  0.3039 -0.2629  0.6422
  906MOL0     C22203   5.063  10.888   2.229  0.4412  0.1517  0.0774
  906MOL0     C22204   5.001  10.796   2.465 -0.6871 -0.0218  0.7657
  906MOL0     C22205   5.101  10.889   2.528  0.0617  0.4814 -0.6492
  906MOL0     O22206   5.185  10.833   2.627 -0.2099  0.2733 -0.0770
  906MOL0     C22207   5.286  10.906   2.693  0.6216  0.5558  0.9290
  906MOL0     C22208   5.413  10.846   2.729  0.8520  0.9676  0.1883
  906MOL0     C22209   5.503  10.923   2.809 -0.6942  0.0670 -0.9565
  906MOL0     C22210   5.473  11.056   2.845  0.3182  0.3195 -0.3024
  906MOL0     O22211   5.549  11.143   2.921  0.1355  0.2762  0.4226
  906MOL0     C22212   5.687  11.102   2.952  0.3128  0.2621 -0.1674
  906MOL0     C22213   5.765  11.225   3.015  0.1859  0.2562 -0.3856
  906MOL0     C22214   5.914  11.194   3.003  0.3601 -0.0133 -0.3501
  906MOL0     C22215   5.993  11.295   2.925 -0.3613  0.1834 -0.0896
  906MOL0     C22216   6.145  11.278   2.947  0.2612  0.2166 -0.4297
  906MOL0     C22217   6.205  11.411   2.899  0.1552  0.1603 -1.0527
  906MOL0     C22218   6.211  11.423   2.745  0.3263  0.1467  0.5471
  906MOL0     C22219   6.247  11.563   2.709 -0.9232 -0.2380  0.4172
  906MOL0    Cl22220   6.387  11.626   2.799  0.1411 -0.3329 -0.4404
  906MOL0     C22221   5.345  11.101   2.820  0.0058  0.1419 -0.0051
  906MOL0     C22222   5.254  11.031   2.740 -0.0459 -0.5296 -0.0855
  906MOL0     O22223   5.097  11.006   2.493  0.1188 -0.0891  0.2911
  906MOL0     C22224   4.921  10.708   2.538 -0.0638 -0.7985  0.7033
  906MOL0     C22225   4.827  10.622   2.480 -0.3453 -0.4211  0.2080
  906MOL0     N22226   4.722  10.094   2.006 -0.4842  0.8890 -0.2583
  906MOL0     N22227   4.734  10.027   1.898 -0.1242  1.3582  0.1257
  906MOL0     C22228   5.670  10.633   1.772  0.2101 -0.3018 -0.1899
  906MOL0     C22229   5.785  10.690   1.817 -0.5878  0.8492 -0.2214
  906MOL0     C22230   6.145  10.879   1.927  0.6770 -0.2595 -0.3202
  906MOL0     C22231   6.222  10.925   1.821  0.9713  0.1445 -0.0947
  906MOL0     C22232   6.363  10.939   1.841 -0.1477  0.5127  0.5020
  906MOL0     C22233   6.428  10.916   1.960  0.4803 -0.4417  0.0384
  906MOL0     O22234   6.568  10.932   1.970  0.3137 -0.1671 -0.6589
  906MOL0     C22235   6.639  10.862   2.072  0.2033 -1.0531  0.2763
  906MOL0     C22236   6.758  10.800   1.985 -0.6136 -0.3778 -0.0290
  906MOL0     C22237   6.718  10.661   1.920  0.2137  0.1040 -0.1911
  906MOL0     C22238   6.834  10.622   1.827  0.6125 -0.2249 -0.2718
  906MOL0     C22239   6.819  10.710   1.710  0.4895  0.6503  0.0888
  906MOL0     C22240   6.803  10.780   1.612  0.3666 -0.3731 -0.2483
  906MOL0     C22241   6.349  10.869   2.065 -1.0685 -0.1799  0.2245
  906MOL0     C22242   6.207  10.844   2.049 -0.1307  0.1026  0.0266
  906MOL0     H22243   5.823  10.931   1.586  1.6245 -1.3641 -1.4895
  906MOL0     H22244   5.617  10.820   1.490  1.1637 -2.9257 -1.2008
  906MOL0     H22245   5.509  10.409   1.638 -0.3440 -0.2378  1.2074
  906MOL0     H22246   5.416  10.508   1.751  1.9255 -2.2501  1.0108
  906MOL0     H22247   5.239  10.530   1.570  0.0309 -0.1802 -0.4147
  906MOL0     H22248   5.361  10.465   1.456 -0.9908  3.1553  0.0931
  906MOL0     H22249   5.369  10.256   1.575  1.0688 -0.0090  2.6583
  906MOL0     H22250   5.245  10.307   1.685 -0.6203  0.8985 -0.2661
  906MOL0     H22251   5.101  10.376   1.472  0.8642  0.5920  4.9363
  906MOL0     H22252   5.210  10.270   1.377 -0.7691 -0.0592 -0.0696
  906MOL0     H22253   5.034  10.123   1.412  1.8961  1.2783 -1.4923
  906MOL0     H22254   5.136  10.097   1.555 -2.1128  0.0366  3.4409
  906MOL0     H22255   4.993  10.249   1.693  2.1546  0.9471 -1.2329
  906MOL0     H22256   4.881  10.261   1.550  0.1679  0.7223 -1.5321
  906MOL0     H22257   4.927   9.979   1.552 -2.2112 -0.2355 -0.5711
  906MOL0     H22258   4.971  10.023   1.723  2.1584 -0.7027 -1.8602
  906MOL0     H22259   4.740   9.940   1.652  0.9411  0.2827  0.7603
  906MOL0     H22260   4.715  10.112   1.591 -2.8373  1.8754  3.1494
  906MOL0     H22261   4.689  10.326   1.774  4.0793  2.8272  2.4280
  906MOL0     H22262   4.767  10.337   2.125  0.1814  1.9806  0.3803
  906MOL0     H22263   4.672  10.435   2.013 -1.8487  0.1746  1.5556
  906MOL0     H22264   4.548  10.210   2.181 -0.4963 -1.0006 -0.2087
  906MOL0     H22265   4.470  10.314   2.070  0.9948 -2.3173 -2.2524
  906MOL0     H22266   4.445  10.366   2.303  1.7821  2.3418  1.5456
  906MOL0     H22267   4.472  10.500   2.207 -3.1476 -1.0478  0.4886
  906MOL0     H22268   4.714  10.356   2.323 -0.0074 -0.8235 -2.0087
  906MOL0     H22269   4.616  10.463   2.431  1.1621 -1.1267  0.4261
  906MOL0     H22270   4.865  10.709   2.162  0.1140 -0.6390  0.5962
  906MOL0     H22271   5.165  10.850   2.231  1.1208  1.6565 -2.1770
  906MOL0     H22272   5.031  10.881   2.125 -2.2711  4.3201  0.3805
  906MOL0     H22273   5.067  10.995   2.253 -1.5806  0.5458 -1.1090
  906MOL0     H22274   5.440  10.746   2.695 -1.4678  0.8724 -1.6555
  906MOL0     H22275   5.597  10.875   2.836 -1.8501 -1.5760  0.3655
  906MOL0     H22276   5.681  11.030   3.035 -1.6056 -0.4113 -0.8449
  906MOL0     H22277   5.737  11.062   2.864  2.0570 -0.0394  0.8958
  906MOL0     H22278   5.749  11.323   2.969  0.0454  0.1089 -0.6591
  906MOL0     H22279   5.736  11.233   3.120 -0.5834  1.2095 -0.6554
  906MOL0     H22280   5.923  11.099   2.949 -0.0672  0.0103 -0.4696
  906MOL0     H22281   5.950  11.179   3.105 -3.3270  0.4031  1.2012
  906MOL0     H22282   5.970  11.273   2.821 -0.2933 -2.1800  0.3449
  906MOL0     H22283   5.956  11.398   2.937  2.1781  1.3519 -1.3811
  906MOL0     H22284   6.191  11.191   2.899  3.4259  1.1050  0.7212
  906MOL0     H22285   6.160  11.267   3.054  1.2628  0.7383 -0.5035
  906MOL0     H22286   6.149  11.488   2.953  1.9151  1.3147 -0.7620
  906MOL0     H22287   6.308  11.414   2.937 -0.4677  0.1770  0.7436
  906MOL0     H22288   6.108  11.406   2.712  0.7757  0.0807 -0.8737
  906MOL0     H22289   6.282  11.357   2.696  1.1570  2.2244 -1.2152
  906MOL0     H22290   6.165  11.633   2.724  0.4828  1.0091  3.0574
  906MOL0     H22291   6.278  11.563   2.604 -1.3723 -1.6096  0.2650
  906MOL0     H22292   5.320  11.201   2.854  3.0253  1.5103 -1.4929
  906MOL0     H22293   5.160  11.078   2.713 -0.9826 -2.9662 -1.3213
  906MOL0     H22294   4.931  10.692   2.645 -2.6096 -2.5831  0.7529
  906MOL0     H22295   4.773  10.569   2.558  2.4703 -0.2114  2.4577
  906MOL0     H22296   5.632  10.548   1.828  1.3470 -1.9159 -1.7354
  906MOL0     H22297   5.836  10.649   1.904 -1.2411 -1.7141 -0.9762
  906MOL0     H22298   6.171  10.941   1.727  0.8942  1.5552  0.1666
  906MOL0     H22299   6.417  10.977   1.755  0.5840 -0.6393  0.4198
  906MOL0     H22300   6.678  10.942   2.136  1.4627  0.9801 -2.7914
  906MOL0     H22301   6.582  10.786   2.127  0.2711  0.7190  3.0217
  906MOL0     H22302   6.848  10.790   2.046 -2.2319 -1.7040  2.2854
  906MOL0     H22303   6.785  10.878   1.913  1.7032 -0.8509  0.2789
  906MOL0     H22304   6.619  10.666   1.873 -0.7427 -3.8312  1.0535
  906MOL0     H22305   6.706  10.582   1.995 -0.7212 -0.9986 -1.4565
  906MOL0     H22306   6.836  10.517   1.794 -3.9701 -0.3867 -0.6480
  906MOL0     H22307   6.929  10.645   1.876  1.2518 -0.3751 -1.4077
  906MOL0     H22308   6.776  10.845   1.532 -3.8082 -0.2845  0.9781
  906MOL0     H22309   6.387  10.863   2.167 -2.2494 -0.1979  0.6829
  906MOL0     H22310   6.159  10.784   2.126  0.6063  0.2265  0.5867
  907MOL0     O22311   0.184   0.351   3.595  0.8938  0.3020 -0.0883
  907MOL0     C22312   0.188   0.320   3.474  0.2931 -0.2310 -0.1871
  907MOL0     O22313   0.082   0.291   3.395 -0.2502  0.5132 -0.3170
  907MOL0     C22314  -0.038   0.268   3.460  0.0975 -0.6252  0.8533
  907MOL0     C22315  -0.052   0.165   3.552 -0.0462  0.6171 -1.1494
  907MOL0     C22316  -0.175   0.151   3.610  1.0149  0.2349 -0.3827
  907MOL0     C22317  -0.287   0.221   3.573  0.4180 -0.2475  0.0634
  907MOL0     O22318  -0.406   0.189   3.636 -0.6193  0.0469  0.1503
  907MOL0     C22319  -0.524   0.266   3.615 -0.1710 -0.8785  0.2242
  907MOL0     C22320  -0.633   0.209   3.704 -0.0290  0.6846  0.8475
  907MOL0     C22321  -0.688   0.065   3.659  0.0863 -0.2370  0.2626
  907MOL0     C22322  -0.765   0.001   3.775 -0.4239  0.0166  0.9484
  907MOL0     C22323  -0.918   0.035   3.772  0.3353  0.4036 -0.2902
  907MOL0     C22324  -1.003  -0.057   3.868  0.2306 -0.0708  0.2688
  907MOL0     C22325  -1.141   0.009   3.896  0.5046 -0.3562  0.4817
  907MOL0     C22326  -1.232  -0.086   3.973  0.1759 -1.0771 -0.4205
  907MOL0     N22327  -1.291  -0.184   3.887 -0.2711  0.3258 -0.4731
  907MOL0     C22328  -1.236  -0.306   3.849 -0.3519 -0.8251 -0.5049
  907MOL0     C22329  -1.329  -0.366   3.778 -0.5141 -1.0662  0.1332
  907MOL0     C22330  -1.320  -0.501   3.708  0.4542 -1.1988 -0.1519
  907MOL0     C22331  -1.430  -0.594   3.762 -0.3201  0.3508  0.2837
  907MOL0     C22332  -1.566  -0.589   3.693 -0.2702 -0.5961  0.2930
  907MOL0     C22333  -1.659  -0.700   3.742 -0.7611  0.0536  0.3523
  907MOL0     O22334  -1.664  -0.683   3.883  0.3763 -0.1528  0.2570
  907MOL0     C22335  -1.784  -0.727   3.936  0.5631  0.3085 -0.0910
  907MOL0     C22336  -1.814  -0.677   4.067  0.0261  0.2178 -0.4779
  907MOL0     C22337  -1.924  -0.722   4.131 -0.4161 -0.8096 -1.1919
  907MOL0     C22338  -1.952  -0.652   4.260  0.3490  0.1300 -0.4693
  907MOL0     C22339  -2.018  -0.816   4.071  0.1267 -0.3761 -0.3414
  907MOL0     C22340  -2.148  -0.853   4.128  0.0950  0.8171 -0.1956
  907MOL0     O22341  -2.205  -0.956   4.057  0.5730  0.1363 -0.6195
  907MOL0     C22342  -2.337  -0.977   4.086  0.2211  0.0138 -1.4232
  907MOL0     C22343  -2.438  -0.914   4.022  0.7906  0.0800  1.1361
  907MOL0     C22344  -2.574  -0.948   4.050 -1.3793 -1.2945 -0.0734
  907MOL0     C22345  -2.611  -1.054   4.130 -0.8491  0.2971  0.5078
  907MOL0     O22346  -2.742  -1.081   4.113 -1.0658 -0.8320  0.1975
  907MOL0     C22347  -2.791  -1.160   4.216 -0.3989 -0.1773 -0.1006
  907MOL0     C22348  -2.940  -1.184   4.212  0.3970 -0.8527  0.0546
  907MOL0     C22349  -3.015  -1.052   4.228  0.2635 -0.5272 -0.4760
  907MOL0     C22350  -3.161  -1.063   4.252  0.2563  0.2901 -0.1462
  907MOL0     C22351  -3.194  -0.927   4.313 -0.7235 -0.1114  0.7626
  907MOL0     C22352  -3.334  -0.930   4.375  0.2125 -0.3025  0.0574
  907MOL0     C22353  -3.433  -0.920   4.261  0.3877  0.6777 -0.7226
  907MOL0     C22354  -3.573  -0.887   4.303  0.3477  0.5585  0.0433
  907MOL0    Cl22355  -3.568  -0.731   4.364  0.1256 -0.4800  0.0700
  907MOL0     C22356  -2.513  -1.111   4.217 -0.8375 -0.3803  0.6222
  907MOL0     C22357  -2.374  -1.075   4.183 -0.2145  0.9297 -0.6633
  907MOL0     O22358  -2.208  -0.780   4.214 -0.7375  0.1475  0.5884
  907MOL0     C22359  -1.987  -0.860   3.937 -0.9538  0.3793  0.8562
  907MOL0     C22360  -1.870  -0.821   3.872  0.0094 -0.2220  0.5673
  907MOL0     N22361  -1.434  -0.272   3.762  0.4040 -0.5674  1.1009
  907MOL0     N22362  -1.411  -0.169   3.825 -0.5312 -0.2388 -0.4081
  907MOL0     C22363  -0.272   0.317   3.480 -0.1160  0.1138  0.0718
  907MOL0     C22364  -0.149   0.342   3.426  0.6133 -0.6414  0.4333
  907MOL0     C22365   0.321   0.320   3.406 -0.5405  1.1114  0.2464
  907MOL0     C22366   0.328   0.273   3.270  0.1406 -0.1357  0.0706
  907MOL0     C22367   0.453   0.275   3.199  0.6643  0.6374 -0.6942
  907MOL0     C22368   0.566   0.332   3.265 -0.6904 -0.6897  1.2099
  907MOL0     O22369   0.682   0.323   3.195 -0.1241 -0.6051 -0.0975
  907MOL0     C22370   0.758   0.441   3.167 -0.2412 -0.3900 -0.0407
  907MOL0     C22371   0.692   0.547   3.087 -0.0379 -0.7076 -0.4686
  907MOL0     C22372   0.749   0.684   3.078  0.3334  0.8743  0.6934
  907MOL0     C22373   0.746   0.763   3.211 -0.4612 -0.2363  0.3848
  907MOL0     C22374   0.630   0.752   3.289  0.6447  0.3978 -0.0113
  907MOL0     C22375   0.520   0.748   3.350 -1.1775 -0.4402  0.5211
  907MOL0     C22376   0.557   0.376   3.390 -0.2342 -0.8366 -0.5788
  907MOL0     C22377   0.439   0.364   3.461  0.1900 -0.0427 -0.9362
  907MOL0     H22378   0.029   0.110   3.600  1.3088  1.0969 -2.7689
  907MOL0     H22379  -0.188   0.087   3.697  0.3463  2.0516  0.9113
  907MOL0     H22380  -0.505   0.372   3.635  3.5355 -1.2266 -0.7657
  907MOL0     H22381  -0.563   0.268   3.513 -2.3809  2.2115  0.9738
  907MOL0     H22382  -0.600   0.190   3.807 -1.4485 -3.7760  0.7184
  907MOL0     H22383  -0.710   0.286   3.709 -2.9178 -1.7541 -1.7313
  907MOL0     H22384  -0.742   0.079   3.565  0.9674  1.2037 -0.0574
  907MOL0     H22385  -0.601   0.008   3.627  0.0901 -0.5711  0.8509
  907MOL0     H22386  -0.750  -0.108   3.770  3.2272  0.4459 -0.9961
  907MOL0     H22387  -0.711   0.020   3.868 -0.5621  2.0716  0.6371
  907MOL0     H22388  -0.933   0.142   3.787 -2.7299 -0.2117  2.1502
  907MOL0     H22389  -0.962   0.007   3.675 -0.4933 -0.5678  0.3444
  907MOL0     H22390  -1.011  -0.158   3.827  0.7584  0.4108 -1.0953
  907MOL0     H22391  -0.947  -0.069   3.960 -1.2624  0.1900  1.2493
  907MOL0     H22392  -1.118   0.101   3.952  0.5102  0.6785 -1.1359
  907MOL0     H22393  -1.186   0.034   3.800  1.0577 -2.2725 -0.3022
  907MOL0     H22394  -1.310  -0.025   4.019 -0.4227 -2.7106  0.8242
  907MOL0     H22395  -1.164  -0.130   4.046 -0.2546 -0.4941  0.3481
  907MOL0     H22396  -1.143  -0.352   3.881 -1.8656 -2.8528  1.3435
  907MOL0     H22397  -1.337  -0.491   3.600 -0.6392  0.4937  0.1380
  907MOL0     H22398  -1.224  -0.551   3.723  1.1133 -0.3307 -1.2424
  907MOL0     H22399  -1.449  -0.563   3.865  0.0648  2.3136 -0.1784
  907MOL0     H22400  -1.397  -0.698   3.761  1.3971  0.7717  2.7237
  907MOL0     H22401  -1.550  -0.591   3.585  1.8343 -0.2254  0.5563
  907MOL0     H22402  -1.609  -0.489   3.708  2.7221  0.8710 -0.1316
  907MOL0     H22403  -1.626  -0.802   3.718 -0.1943  0.4600 -0.6450
  907MOL0     H22404  -1.757  -0.678   3.699 -0.4816 -1.5736 -1.2504
  907MOL0     H22405  -1.750  -0.595   4.099  1.3418 -0.7858 -0.4294
  907MOL0     H22406  -1.859  -0.622   4.309 -0.0176 -1.0749  1.0447
  907MOL0     H22407  -2.019  -0.567   4.246 -0.6291 -0.9622 -2.8775
  907MOL0     H22408  -1.997  -0.720   4.332  1.4062  0.1351  0.2211
  907MOL0     H22409  -2.431  -0.823   3.963 -4.1415  0.3941  0.6221
  907MOL0     H22410  -2.647  -0.890   3.996 -0.1669  4.4726  3.6463
  907MOL0     H22411  -2.745  -1.258   4.200 -2.8290 -1.3460 -0.4427
  907MOL0     H22412  -2.769  -1.110   4.311  2.0469  3.4974 -2.3664
  907MOL0     H22413  -2.969  -1.240   4.122 -1.1025  1.3469 -0.9157
  907MOL0     H22414  -2.978  -1.243   4.296 -1.5272 -0.6895 -0.6497
  907MOL0     H22415  -3.006  -0.998   4.132  1.1726 -0.8807 -0.6022
  907MOL0     H22416  -2.959  -0.998   4.305 -0.2995 -2.5503  1.4386
  907MOL0     H22417  -3.221  -1.075   4.161  0.4529 -2.2031 -0.0216
  907MOL0     H22418  -3.182  -1.149   4.317 -1.0635  0.8863  0.2504
  907MOL0     H22419  -3.185  -0.837   4.252  1.3188  0.8186  2.3284
  907MOL0     H22420  -3.131  -0.909   4.400 -2.2829  0.4272  1.8066
  907MOL0     H22421  -3.341  -1.028   4.424  2.8787 -0.4455  0.3012
  907MOL0     H22422  -3.335  -0.857   4.456 -1.8735 -0.8046  0.5394
  907MOL0     H22423  -3.436  -1.015   4.207  2.9129  1.0090 -1.5710
  907MOL0     H22424  -3.394  -0.850   4.186  2.1846 -1.5381 -1.9978
  907MOL0     H22425  -3.620  -0.953   4.377  0.1669  2.2200  1.4822
  907MOL0     H22426  -3.639  -0.891   4.216 -1.4530  1.3825  1.2987
  907MOL0     H22427  -2.531  -1.185   4.295 -1.7817  1.4443  2.2380
  907MOL0     H22428  -2.300  -1.130   4.240 -1.4148 -1.4147 -1.2427
  907MOL0     H22429  -2.051  -0.932   3.886 -0.5369 -1.1263  2.3572
  907MOL0     H22430  -1.843  -0.848   3.771  2.0766  0.6802  0.8265
  907MOL0     H22431  -0.352   0.389   3.469 -1.3548 -0.7954  2.3739
  907MOL0     H22432  -0.144   0.417   3.347 -1.0283 -1.3161 -0.3666
  907MOL0     H22433   0.237   0.230   3.227 -1.7192  1.6872  1.9305
  907MOL0     H22434   0.479   0.227   3.105  0.3221 -0.9898  0.0060
  907MOL0     H22435   0.802   0.486   3.257 -1.7738  1.3847 -0.0998
  907MOL0     H22436   0.848   0.415   3.111  0.2118  0.9558  0.0112
  907MOL0     H22437   0.595   0.556   3.136 -1.1297 -3.5091 -1.9130
  907MOL0     H22438   0.664   0.503   2.991  1.0208 -0.9516 -0.6738
  907MOL0     H22439   0.698   0.739   2.998 -1.3536  0.0888  1.1952
  907MOL0     H22440   0.853   0.693   3.045 -0.4716  2.1318 -1.7555
  907MOL0     H22441   0.768   0.862   3.170 -0.6876 -0.3434 -0.0098
  907MOL0     H22442   0.833   0.746   3.274 -0.2548  1.4966  0.6059
  907MOL0     H22443   0.435   0.730   3.413 -0.1059 -1.3765  1.7615
  907MOL0     H22444   0.649   0.403   3.441 -1.2963 -0.2371  1.0955
  907MOL0     H22445   0.434   0.391   3.566  0.4876 -0.7433 -0.7366
  908MOL0     O22446   5.421   2.213   0.951  1.2727  0.2313 -0.8602
  908MOL0     C22447   5.507   2.297   0.931 -0.5603 -0.1718 -0.4699
  908MOL0     O22448   5.483   2.423   0.875  0.4305 -0.3650  0.3585
  908MOL0     C22449   5.355   2.457   0.842 -0.0373  0.4022  0.3813
  908MOL0     C22450   5.283   2.390   0.747  0.4353 -0.1266 -0.6746
  908MOL0     C22451   5.147   2.424   0.726 -0.7685  0.0429 -0.2733
  908MOL0     C22452   5.075   2.514   0.809 -0.0971 -0.8797  0.1043
  908MOL0     O22453   4.951   2.553   0.766  0.3564 -1.0587  0.5423
  908MOL0     C22454   4.867   2.641   0.838  0.5061  0.0637  0.4556
  908MOL0     C22455   4.737   2.641   0.766 -0.7199 -0.1208  1.2224
  908MOL0     C22456   4.651   2.518   0.801 -0.3792 -0.0013  0.2322
  908MOL0     C22457   4.506   2.519   0.748  0.3219 -0.7205  0.2401
  908MOL0     C22458   4.419   2.447   0.854  0.6587  0.5154 -0.2423
  908MOL0     C22459   4.283   2.422   0.801  0.2092 -0.6077  1.5140
  908MOL0     C22460   4.202   2.359   0.910  0.9304  0.2832 -0.2477
  908MOL0     C22461   4.058   2.363   0.856 -0.4698  0.1440  0.2263
  908MOL0     N22462   3.963   2.322   0.957 -0.1698  0.5545 -0.5171
  908MOL0     C22463   3.980   2.209   1.039  0.3508 -0.4466  0.1201
  908MOL0     C22464   3.867   2.207   1.108 -0.5851 -0.7301 -0.5605
  908MOL0     C22465   3.845   2.108   1.225 -0.2451 -0.3837  0.3991
  908MOL0     C22466   3.729   2.008   1.197 -0.6165 -1.0662 -0.0942
  908MOL0     C22467   3.596   2.084   1.172 -0.2703  0.7826  0.8614
  908MOL0     C22468   3.472   1.995   1.157  0.0258 -0.2593 -0.1614
  908MOL0     O22469   3.347   2.057   1.132  0.9383  0.3691  1.2500
  908MOL0     C22470   3.278   2.105   1.238 -0.0675  0.4941 -0.1201
  908MOL0     C22471   3.211   2.025   1.332  0.0115  0.0970 -0.9625
  908MOL0     C22472   3.145   2.066   1.446 -0.7133 -0.8797  0.5533
  908MOL0     C22473   3.045   1.974   1.517 -0.3889 -1.0312  0.1543
  908MOL0     C22474   3.147   2.207   1.473 -0.0874  0.0483  0.0435
  908MOL0     C22475   3.098   2.264   1.601 -0.2407  0.4980 -0.1666
  908MOL0     O22476   3.104   2.183   1.711 -0.1402 -0.0857  0.7276
  908MOL0     C22477   3.027   2.231   1.812  0.2429  0.9514  0.5617
  908MOL0     C22478   2.892   2.201   1.828 -0.3722 -0.4060 -1.1448
  908MOL0     C22479   2.836   2.228   1.955  0.9289 -1.3973 -0.7069
  908MOL0     C22480   2.909   2.295   2.060  0.2015  0.1280  0.6373
  908MOL0     O22481   2.862   2.318   2.181  0.0859 -0.0632 -1.4119
  908MOL0     C22482   2.894   2.227   2.286 -0.2083  0.5573 -0.1870
  908MOL0     C22483   2.792   2.108   2.307 -0.2401 -1.2969  0.1222
  908MOL0     C22484   2.651   2.165   2.329 -0.4285 -0.0098 -0.8146
  908MOL0     C22485   2.553   2.051   2.355  0.2821 -0.8922  0.2668
  908MOL0     C22486   2.416   2.098   2.401  0.3203  0.1404 -0.3190
  908MOL0     C22487   2.317   1.980   2.393  0.9066  0.2629  0.4319
  908MOL0     C22488   2.197   2.005   2.480 -0.1720  0.0733 -0.9110
  908MOL0     C22489   2.104   1.880   2.488 -0.2293 -0.6496  0.3610
  908MOL0    Cl22490   1.967   1.923   2.586 -0.2791 -0.3567 -0.0310
  908MOL0     C22491   3.034   2.347   2.027 -0.0665 -0.7829  0.3855
  908MOL0     C22492   3.096   2.317   1.902 -0.2447 -0.5478 -0.2165
  908MOL0     O22493   3.081   2.386   1.598 -0.4533  0.2612  0.4961
  908MOL0     C22494   3.222   2.290   1.387  0.8404  0.5388  0.6971
  908MOL0     C22495   3.279   2.242   1.269 -0.0674  0.3050  0.1700
  908MOL0     N22496   3.789   2.321   1.085 -0.3861  0.5820 -0.4612
  908MOL0     N22497   3.857   2.391   1.000  0.5561  0.1361  0.8197
  908MOL0     C22498   5.158   2.583   0.907  0.1389  0.6093 -0.8863
  908MOL0     C22499   5.295   2.558   0.926 -0.1005  0.2621 -0.5067
  908MOL0     C22500   5.647   2.258   0.967  0.7123 -0.0088  0.5632
  908MOL0     C22501   5.682   2.135   1.034  0.0257  0.6750  0.1271
  908MOL0     C22502   5.815   2.108   1.060 -0.0422  0.3518 -0.0307
  908MOL0     C22503   5.918   2.189   1.018  0.8981  0.3016  0.3388
  908MOL0     O22504   6.037   2.137   1.062  0.4669 -0.5568 -0.4878
  908MOL0     C22505   6.149   2.222   1.089  1.3843  0.1716 -0.9316
  908MOL0     C22506   6.123   2.328   1.195  0.4747  0.0563  0.0576
  908MOL0     C22507   6.128   2.289   1.342  0.2169  0.0897 -0.4123
  908MOL0     C22508   6.135   2.414   1.443  0.3463  0.5202  0.2524
  908MOL0     C22509   6.266   2.474   1.422 -0.3558  0.4194  0.2407
  908MOL0     C22510   6.356   2.551   1.404 -0.8314  0.4371  0.2613
  908MOL0     C22511   5.886   2.303   0.955 -0.0893  0.4963 -0.3607
  908MOL0     C22512   5.751   2.342   0.922  0.3165 -0.8334 -0.0820
  908MOL0     H22513   5.323   2.310   0.685  3.3107  1.4352 -1.0028
  908MOL0     H22514   5.091   2.377   0.646  1.3074 -0.8624 -1.2628
  908MOL0     H22515   4.859   2.606   0.942  1.0050 -2.1927 -0.2114
  908MOL0     H22516   4.897   2.746   0.846 -0.9157  0.4560  1.0836
  908MOL0     H22517   4.686   2.731   0.799 -0.8105  0.1314  0.4285
  908MOL0     H22518   4.751   2.654   0.658  1.3262  0.9186  1.5664
  908MOL0     H22519   4.700   2.425   0.768 -1.4125 -0.1028 -1.0993
  908MOL0     H22520   4.650   2.516   0.911  2.1568 -1.1695  0.3236
  908MOL0     H22521   4.480   2.623   0.728  0.9822 -0.7267 -0.7304
  908MOL0     H22522   4.489   2.468   0.652  0.1232 -0.9400  0.3904
  908MOL0     H22523   4.456   2.349   0.884 -2.1516 -0.3029  0.8217
  908MOL0     H22524   4.416   2.503   0.948 -0.5587 -1.1903  0.7953
  908MOL0     H22525   4.241   2.517   0.768  0.6782 -0.4536  1.3561
  908MOL0     H22526   4.278   2.367   0.707 -1.3858 -0.7867  1.6668
  908MOL0     H22527   4.235   2.255   0.918 -0.4814 -0.2480 -1.0483
  908MOL0     H22528   4.206   2.418   1.002 -2.8652 -0.5386  0.5983
  908MOL0     H22529   4.046   2.298   0.769  0.1503  0.1954  0.1041
  908MOL0     H22530   4.032   2.465   0.828 -3.1741 -0.4958  0.0410
  908MOL0     H22531   4.070   2.152   1.062 -0.8218 -1.3468  2.7478
  908MOL0     H22532   3.939   2.056   1.243 -0.5741 -0.3175  2.4603
  908MOL0     H22533   3.824   2.165   1.316  0.8022  0.4722  0.1207
  908MOL0     H22534   3.716   1.933   1.276 -2.0766 -0.0789  0.6558
  908MOL0     H22535   3.755   1.954   1.106  0.2319  1.3775 -1.3891
  908MOL0     H22536   3.599   2.148   1.083  1.8594  0.6883  0.8217
  908MOL0     H22537   3.574   2.157   1.250  0.1368 -0.8230  2.5543
  908MOL0     H22538   3.465   1.931   1.246  0.5866  2.4926  1.9978
  908MOL0     H22539   3.495   1.929   1.073  1.6358  1.1566 -0.8822
  908MOL0     H22540   3.205   1.921   1.305  2.1493 -0.6949  1.2340
  908MOL0     H22541   3.049   1.967   1.626 -4.3564 -1.5411  0.4398
  908MOL0     H22542   2.954   2.031   1.496  1.7077  2.5957  0.1660
  908MOL0     H22543   3.042   1.869   1.488 -2.7483 -0.7897 -0.7276
  908MOL0     H22544   2.829   2.143   1.761 -1.9466 -0.1942  0.0707
  908MOL0     H22545   2.733   2.200   1.976  0.8629  1.0772  3.3709
  908MOL0     H22546   2.994   2.185   2.279  0.1185  0.4756  3.1182
  908MOL0     H22547   2.896   2.281   2.382  0.0725 -0.4014  0.3610
  908MOL0     H22548   2.791   2.039   2.223  1.7598  0.2468 -1.2425
  908MOL0     H22549   2.823   2.041   2.388  1.9857 -0.2276  0.2304
  908MOL0     H22550   2.624   2.216   2.236  0.2813  0.2469 -0.8857
  908MOL0     H22551   2.645   2.244   2.404 -0.7000  1.3495 -2.2209
  908MOL0     H22552   2.539   1.999   2.260  1.5847  0.0265 -0.4696
  908MOL0     H22553   2.594   1.979   2.427  1.8490 -0.7368 -0.4423
  908MOL0     H22554   2.381   2.183   2.342 -1.2904  2.0089  3.0570
  908MOL0     H22555   2.428   2.138   2.502  1.1381 -2.1234  0.5420
  908MOL0     H22556   2.287   1.963   2.289 -0.9514  1.4219  0.7264
  908MOL0     H22557   2.369   1.896   2.440  0.8569 -0.4938 -0.8218
  908MOL0     H22558   2.138   2.091   2.448 -0.5061  0.5017  0.7577
  908MOL0     H22559   2.226   2.035   2.581  0.2080  1.2402 -1.3509
  908MOL0     H22560   2.169   1.808   2.538  2.0023  1.3212  0.4553
  908MOL0     H22561   2.070   1.837   2.393  1.9590 -2.2809  0.2374
  908MOL0     H22562   3.092   2.400   2.102  0.2490 -0.7334  0.1110
  908MOL0     H22563   3.201   2.344   1.897 -0.6447  1.9806  2.1676
  908MOL0     H22564   3.215   2.396   1.407  1.2420  0.2925  2.2954
  908MOL0     H22565   3.302   2.318   1.195 -1.4038 -0.5581 -1.1805
  908MOL0     H22566   5.109   2.654   0.972  1.3905  0.6804  0.0190
  908MOL0     H22567   5.355   2.627   0.984  0.2894  0.9215 -1.6658
  908MOL0     H22568   5.599   2.073   1.066  0.8397 -0.2544  0.5047
  908MOL0     H22569   5.838   2.021   1.121  0.2907  1.4247  1.4327
  908MOL0     H22570   6.234   2.157   1.112  1.7770  1.2103  0.7897
  908MOL0     H22571   6.173   2.275   0.997 -0.4820 -1.8157 -2.6804
  908MOL0     H22572   6.026   2.373   1.169  1.7611  1.9826 -1.7416
  908MOL0     H22573   6.207   2.394   1.174  0.4839  0.4277  1.1819
  908MOL0     H22574   6.214   2.222   1.350 -2.6871 -4.4131 -2.5961
  908MOL0     H22575   6.041   2.226   1.363  0.8934 -0.9226 -0.5551
  908MOL0     H22576   6.124   2.387   1.549 -1.9569 -0.1081 -0.1075
  908MOL0     H22577   6.056   2.484   1.414  0.1186 -0.1226 -0.7345
  908MOL0     H22578   6.441   2.615   1.391 -0.8713  0.2913 -0.7785
  908MOL0     H22579   5.967   2.374   0.937  0.2032  0.1581 -0.3820
  908MOL0     H22580   5.719   2.432   0.869  0.0745 -0.3678  0.8387
  909MOL0     O22581   5.375   7.164   7.874 -0.4654 -0.3783  0.3103
  909MOL0     C22582   5.380   7.041   7.878  1.1543 -0.0491 -0.3785
  909MOL0     O22583   5.490   6.967   7.867  0.3329  0.4233  0.1572
  909MOL0     C22584   5.612   7.032   7.865  0.4426  0.1681  0.0712
  909MOL0     C22585   5.654   7.105   7.748  0.5266 -1.0112  0.3780
  909MOL0     C22586   5.781   7.159   7.744 -0.6177  0.7969  0.6278
  909MOL0     C22587   5.873   7.148   7.842 -0.0961 -0.4754  0.4733
  909MOL0     O22588   5.984   7.216   7.826 -0.5122  0.1638  0.6516
  909MOL0     C22589   6.095   7.135   7.795  0.2676 -0.0707  0.4829
  909MOL0     C22590   6.221   7.216   7.759 -0.3021  0.7638 -0.3654
  909MOL0     C22591   6.292   7.166   7.637 -0.4733  1.0538  0.5534
  909MOL0     C22592   6.420   7.238   7.603  0.0068 -0.5064 -0.3245
  909MOL0     C22593   6.389   7.323   7.473  0.1835 -0.6452 -0.3462
  909MOL0     C22594   6.517   7.392   7.424  0.9892  0.5771 -0.4047
  909MOL0     C22595   6.516   7.432   7.279  0.0302 -0.2696  0.2605
  909MOL0     C22596   6.636   7.516   7.244 -0.5252  0.5150  0.1009
  909MOL0     N22597   6.634   7.560   7.109  0.3882 -0.9027  1.0514
  909MOL0     C22598   6.565   7.667   7.046 -1.1542  0.0204 -0.0095
  909MOL0     C22599   6.610   7.668   6.922 -0.5378  0.3690  0.0768
  909MOL0     C22600   6.574   7.757   6.812 -0.3214  0.1142 -1.4309
  909MOL0     C22601   6.422   7.768   6.804  0.5373  0.2351  0.7074
  909MOL0     C22602   6.396   7.832   6.665 -0.7477  0.1085  0.9122
  909MOL0     C22603   6.252   7.873   6.652  0.4191 -0.8108  0.2622
  909MOL0     O22604   6.163   7.763   6.647  0.6991 -0.3896 -0.0128
  909MOL0     C22605   6.027   7.777   6.650  0.1923  0.1985  0.6485
  909MOL0     C22606   5.956   7.899   6.620 -0.6811  0.4467 -0.4554
  909MOL0     C22607   5.816   7.889   6.609 -0.2822 -0.7163 -0.3124
  909MOL0     C22608   5.752   8.008   6.554 -0.6585  0.7379  0.8122
  909MOL0     C22609   5.744   7.772   6.633 -1.0078  0.8771 -0.1187
  909MOL0     C22610   5.599   7.748   6.633  0.0118  0.0775  0.3837
  909MOL0     O22611   5.526   7.868   6.612 -0.1813  0.2612 -0.0227
  909MOL0     C22612   5.399   7.869   6.556  0.2277  0.1807 -0.6636
  909MOL0     C22613   5.386   7.863   6.419 -0.7089 -0.7179  0.0872
  909MOL0     C22614   5.256   7.872   6.365  0.5593 -0.2375  0.1435
  909MOL0     C22615   5.137   7.885   6.444  0.7375 -0.3167  0.7902
  909MOL0     O22616   5.017   7.900   6.366 -0.9213  0.8081 -1.2827
  909MOL0     C22617   4.903   7.882   6.448  1.0737 -1.1795 -0.1442
  909MOL0     C22618   4.781   7.906   6.354  0.0801 -0.6818 -0.4351
  909MOL0     C22619   4.643   7.908   6.424  0.7192  0.8819  0.1620
  909MOL0     C22620   4.532   7.913   6.318  0.1367  0.0627  0.0831
  909MOL0     C22621   4.398   7.888   6.387 -0.9054  0.1788 -1.1910
  909MOL0     C22622   4.285   7.829   6.310  0.3250  0.6428  0.5239
  909MOL0     C22623   4.239   7.932   6.217  0.2094  0.1239  0.6706
  909MOL0     C22624   4.126   7.889   6.127  0.1930  0.0639 -0.5924
  909MOL0    Cl22625   3.991   7.842   6.230 -0.0930  0.3720 -0.0290
  909MOL0     C22626   5.150   7.898   6.582 -0.1614 -0.1523 -0.0006
  909MOL0     C22627   5.281   7.888   6.637 -0.1741  0.4108  0.9662
  909MOL0     O22628   5.550   7.637   6.655  0.5691 -0.0235  0.3662
  909MOL0     C22629   5.822   7.654   6.659  0.2710 -0.0657 -0.1723
  909MOL0     C22630   5.957   7.658   6.669  0.8639  0.6499  0.6421
  909MOL0     N22631   6.715   7.576   6.917 -0.3342 -0.7413 -0.5452
  909MOL0     N22632   6.725   7.506   7.026 -0.0602  0.3451  0.6541
  909MOL0     C22633   5.839   7.077   7.952 -0.3265  0.3376  0.0273
  909MOL0     C22634   5.712   7.016   7.965  0.6632  0.5255  0.5491
  909MOL0     C22635   5.251   6.975   7.897 -0.2378 -0.2797  0.1493
  909MOL0     C22636   5.130   7.044   7.879  0.8677 -0.1094  0.2740
  909MOL0     C22637   5.013   6.967   7.872 -0.0218 -0.1537  1.0593
  909MOL0     C22638   5.009   6.833   7.899 -0.2645  0.3843  0.2745
  909MOL0     O22639   4.886   6.776   7.883  0.4658 -0.0264  0.3741
  909MOL0     C22640   4.882   6.634   7.855 -0.6460  0.7675  0.2133
  909MOL0     C22641   4.751   6.578   7.805  0.2581 -0.1340 -0.0685
  909MOL0     C22642   4.643   6.606   7.912 -1.0647 -0.3743  0.0344
  909MOL0     C22643   4.520   6.525   7.871  0.3426  0.2119  0.8798
  909MOL0     C22644   4.432   6.489   7.990  0.2121 -0.7751  0.2626
  909MOL0     C22645   4.362   6.455   8.087 -0.8064 -0.6186 -0.1830
  909MOL0     C22646   5.127   6.761   7.918 -0.0033 -0.7822  0.3550
  909MOL0     C22647   5.243   6.833   7.915 -0.3274 -1.8856  0.0465
  909MOL0     H22648   5.591   7.127   7.662  0.2252  1.1772  1.1069
  909MOL0     H22649   5.812   7.198   7.648  0.8464  1.9789  1.5328
  909MOL0     H22650   6.120   7.066   7.876  1.9685  0.7298  0.6871
  909MOL0     H22651   6.078   7.084   7.699  1.4659  0.2867  0.0559
  909MOL0     H22652   6.178   7.316   7.749  0.6555  1.2866  0.5566
  909MOL0     H22653   6.291   7.219   7.843 -1.1594  0.1384  0.3908
  909MOL0     H22654   6.320   7.061   7.656 -1.5645  0.9170  1.5582
  909MOL0     H22655   6.227   7.159   7.549 -0.5874  0.8896  0.6488
  909MOL0     H22656   6.462   7.306   7.678 -1.5207  0.0594  0.0648
  909MOL0     H22657   6.504   7.171   7.583  2.6264  2.2282  0.7335
  909MOL0     H22658   6.356   7.262   7.389 -1.6583  1.0821 -0.9468
  909MOL0     H22659   6.313   7.399   7.496  2.2704  1.4568 -0.0738
  909MOL0     H22660   6.520   7.477   7.493  5.8577  0.8376 -0.5787
  909MOL0     H22661   6.606   7.332   7.446  0.4243  0.8946  3.6249
  909MOL0     H22662   6.507   7.351   7.205 -0.8668  0.5434 -0.5511
  909MOL0     H22663   6.430   7.499   7.266  1.1561  1.1769  0.0988
  909MOL0     H22664   6.722   7.451   7.261 -1.2107 -0.1134  1.2100
  909MOL0     H22665   6.644   7.608   7.303 -0.2526  0.9402 -0.5870
  909MOL0     H22666   6.495   7.733   7.095 -1.4432 -0.8806  0.8248
  909MOL0     H22667   6.616   7.855   6.840 -0.5131 -0.8520  2.9376
  909MOL0     H22668   6.616   7.716   6.720  0.9163 -1.7578 -0.1089
  909MOL0     H22669   6.376   7.829   6.882  0.4923  2.4359 -0.9391
  909MOL0     H22670   6.376   7.669   6.802  2.5521 -0.7958  1.8270
  909MOL0     H22671   6.419   7.767   6.580 -0.5658 -0.8771  1.6974
  909MOL0     H22672   6.464   7.918   6.660 -1.7768  0.9306  0.7915
  909MOL0     H22673   6.235   7.929   6.560  2.0304  0.7938  0.8684
  909MOL0     H22674   6.227   7.933   6.740 -1.9371 -2.4480  0.7962
  909MOL0     H22675   6.009   7.992   6.602  1.3567  0.0742  2.8478
  909MOL0     H22676   5.823   8.089   6.533 -0.8429  0.9819  1.1017
  909MOL0     H22677   5.704   7.975   6.462  2.5773 -0.7554 -0.5147
  909MOL0     H22678   5.683   8.050   6.627  2.1997  2.3519  2.8251
  909MOL0     H22679   5.474   7.849   6.359 -0.4433 -3.2588  0.9606
  909MOL0     H22680   5.243   7.864   6.257 -1.9455 -0.9264  0.4366
  909MOL0     H22681   4.906   7.785   6.498 -0.4973  0.0166  2.4588
  909MOL0     H22682   4.893   7.951   6.532  2.3392 -0.0404 -0.8859
  909MOL0     H22683   4.788   8.009   6.318 -3.7474  1.4054  3.8180
  909MOL0     H22684   4.786   7.823   6.283 -1.4539 -1.9865  0.9135
  909MOL0     H22685   4.634   7.986   6.500  0.0604 -0.1922  1.2252
  909MOL0     H22686   4.638   7.813   6.479 -0.8036  1.2746  0.7338
  909MOL0     H22687   4.528   8.011   6.270  0.6806 -0.2935 -0.6938
  909MOL0     H22688   4.544   7.828   6.250 -0.2233 -0.1893  0.3305
  909MOL0     H22689   4.366   7.981   6.434 -0.4916  0.7267 -1.9676
  909MOL0     H22690   4.408   7.815   6.468 -0.6590  2.5830  1.0686
  909MOL0     H22691   4.322   7.741   6.257  0.7738  1.6125 -0.8477
  909MOL0     H22692   4.208   7.794   6.379 -1.0958 -1.2006 -1.8340
  909MOL0     H22693   4.318   7.959   6.147  1.7365  0.6252  2.4994
  909MOL0     H22694   4.207   8.018   6.276  1.2985 -0.1861  1.7608
  909MOL0     H22695   4.146   7.801   6.065  0.3946  0.3053 -0.8768
  909MOL0     H22696   4.085   7.966   6.060  1.6146  2.7256  1.4433
  909MOL0     H22697   5.061   7.925   6.637 -1.3173  1.1023 -2.3796
  909MOL0     H22698   5.283   7.900   6.745 -0.4298  0.9569  0.9176
  909MOL0     H22699   5.777   7.557   6.675  3.1234 -1.3795  0.5966
  909MOL0     H22700   6.013   7.571   6.700  1.6562  0.7643 -0.3822
  909MOL0     H22701   5.908   7.064   8.035 -0.7171 -0.0282  0.2996
  909MOL0     H22702   5.670   6.957   8.046 -1.6846 -2.7753 -2.8035
  909MOL0     H22703   5.128   7.146   7.841 -1.2106 -0.5889 -1.0580
  909MOL0     H22704   4.925   7.020   7.836  0.8352  1.0794  0.6799
  909MOL0     H22705   4.944   6.614   7.767 -0.0123 -0.8482  0.9801
  909MOL0     H22706   4.928   6.573   7.934  0.0445  0.0931 -0.6826
  909MOL0     H22707   4.762   6.470   7.794  1.4548 -0.1093  0.7724
  909MOL0     H22708   4.714   6.629   7.715 -1.4904 -0.6247  0.3380
  909MOL0     H22709   4.623   6.713   7.922 -0.4244 -0.2690  0.2633
  909MOL0     H22710   4.684   6.583   8.011 -0.3238  3.3769  0.7352
  909MOL0     H22711   4.542   6.430   7.822  0.7441  0.9184 -0.3450
  909MOL0     H22712   4.471   6.580   7.790  0.0631  1.2818  1.7526
  909MOL0     H22713   4.287   6.423   8.156 -1.6792 -1.5908 -1.5190
  909MOL0     H22714   5.132   6.653   7.921  4.3553 -0.8142 -0.4982
  909MOL0     H22715   5.332   6.774   7.935  0.0289 -1.2980  0.2215
  910MOL0     O22716   4.464   1.573   5.630  0.2240  0.0095  0.0724
  910MOL0     C22717   4.461   1.691   5.665 -0.1945 -0.7137  0.8373
  910MOL0     O22718   4.353   1.760   5.716 -0.0012  0.7335  0.3340
  910MOL0     C22719   4.238   1.688   5.707  0.3869  0.7253 -0.3061
  910MOL0     C22720   4.215   1.579   5.789  0.1876  0.0578 -0.4896
  910MOL0     C22721   4.095   1.510   5.791  0.2741 -1.8135  1.1541
  910MOL0     C22722   3.990   1.553   5.698  0.9456 -0.6431 -0.0698
  910MOL0     O22723   3.854   1.514   5.702 -0.7466 -0.7810 -0.3994
  910MOL0     C22724   3.818   1.403   5.786 -0.1996  0.1271  0.0300
  910MOL0     C22725   3.682   1.333   5.760  0.2840 -0.2493  0.5771
  910MOL0     C22726   3.560   1.430   5.781  0.3072  0.6322  0.6131
  910MOL0     C22727   3.438   1.353   5.740  0.0134  0.4771 -0.3086
  910MOL0     C22728   3.313   1.428   5.713  0.0296 -0.2536 -0.3548
  910MOL0     C22729   3.201   1.333   5.669 -0.5160  0.2241  0.2004
  910MOL0     C22730   3.065   1.412   5.661  0.0348  0.6443 -0.1464
  910MOL0     C22731   2.950   1.308   5.647  1.0134 -0.6135 -0.4141
  910MOL0     N22732   2.820   1.384   5.624 -0.2390  0.5933  0.7193
  910MOL0     C22733   2.799   1.513   5.576  0.5152  0.2457  0.5630
  910MOL0     C22734   2.662   1.527   5.595 -0.0545 -0.3196  0.6474
  910MOL0     C22735   2.585   1.653   5.564 -0.1987 -0.0535 -0.0990
  910MOL0     C22736   2.430   1.616   5.540  1.1857 -0.3801 -0.5328
  910MOL0     C22737   2.352   1.738   5.474  0.2788 -0.5287  0.0147
  910MOL0     C22738   2.202   1.711   5.445 -0.4724  0.6127 -0.4627
  910MOL0     O22739   2.150   1.824   5.372  0.6490  0.3678  0.6953
  910MOL0     C22740   2.021   1.814   5.332 -0.0008 -0.9887  0.4548
  910MOL0     C22741   1.941   1.936   5.321  0.6205  0.0312  0.2506
  910MOL0     C22742   1.803   1.934   5.284 -0.4097 -0.9104  0.0428
  910MOL0     C22743   1.740   2.071   5.264  0.5713 -0.0061 -0.4128
  910MOL0     C22744   1.740   1.808   5.262 -1.2160 -0.8378  0.9280
  910MOL0     C22745   1.598   1.794   5.217 -0.5288 -0.7074 -0.7187
  910MOL0     O22746   1.545   1.668   5.232 -0.4446  0.1683 -0.4170
  910MOL0     C22747   1.416   1.643   5.201 -1.1080 -0.0153 -0.8158
  910MOL0     C22748   1.310   1.703   5.265 -0.0357  0.2422  0.6386
  910MOL0     C22749   1.181   1.665   5.241  0.0299  0.1021 -0.0745
  910MOL0     C22750   1.150   1.566   5.147  0.0069  0.7776 -0.8747
  910MOL0     O22751   1.015   1.543   5.117 -0.2470 -0.2243  0.5338
  910MOL0     C22752   0.987   1.550   4.975  0.1592 -0.2513 -0.1819
  910MOL0     C22753   0.837   1.564   4.940  0.3600  1.3869 -0.1222
  910MOL0     C22754   0.790   1.695   4.993  0.7040 -0.7786  0.5116
  910MOL0     C22755   0.650   1.722   4.929 -0.7978  0.8621  0.0408
  910MOL0     C22756   0.530   1.623   4.965  0.0450  0.8223  0.3914
  910MOL0     C22757   0.402   1.671   4.904  0.5369  0.2977 -0.0594
  910MOL0     C22758   0.282   1.583   4.949 -0.6546  0.0173 -0.5892
  910MOL0     C22759   0.151   1.626   4.884  0.1411  0.0928  0.6596
  910MOL0    Cl22760   0.137   1.571   4.717 -0.0179  0.5840 -0.1959
  910MOL0     C22761   1.262   1.503   5.086 -0.1267  0.6564  0.2531
  910MOL0     C22762   1.392   1.543   5.114 -1.0531  1.0941 -0.3709
  910MOL0     O22763   1.546   1.889   5.158 -0.3932  0.6249  0.6383
  910MOL0     C22764   1.816   1.691   5.276 -0.0667 -0.6253  0.2491
  910MOL0     C22765   1.947   1.692   5.317  0.3348 -1.2005 -0.6013
  910MOL0     N22766   2.608   1.413   5.642  0.2012  0.7325 -0.4101
  910MOL0     N22767   2.701   1.328   5.659  0.0712  0.3630  0.9275
  910MOL0     C22768   4.016   1.664   5.622  0.3259  0.4378 -0.1197
  910MOL0     C22769   4.134   1.729   5.621 -0.3608  0.6776  0.9557
  910MOL0     C22770   4.587   1.773   5.641  0.1351  1.2292 -0.3190
  910MOL0     C22771   4.625   1.867   5.729 -0.3789 -0.9161  0.1692
  910MOL0     C22772   4.754   1.938   5.704 -0.4908 -0.0188  0.5970
  910MOL0     C22773   4.835   1.904   5.594 -0.4246  0.8439 -0.8279
  910MOL0     O22774   4.957   1.964   5.583  0.2712  0.5671  0.0498
  910MOL0     C22775   5.036   1.911   5.475 -0.9368  0.8120  0.2676
  910MOL0     C22776   5.191   1.939   5.518  0.2171  0.0296 -0.3469
  910MOL0     C22777   5.222   1.909   5.670 -0.0438 -0.0566  0.1350
  910MOL0     C22778   5.371   1.918   5.682 -0.2075  0.3073 -0.6997
  910MOL0     C22779   5.423   1.864   5.806  0.3783  0.1901 -0.4186
  910MOL0     C22780   5.490   1.824   5.900  0.1621  0.5568 -0.3373
  910MOL0     C22781   4.788   1.800   5.516 -0.8627  0.1007  0.7063
  910MOL0     C22782   4.671   1.732   5.537 -0.5629  0.8960 -0.4801
  910MOL0     H22783   4.286   1.547   5.865  0.1583 -0.9250 -0.8692
  910MOL0     H22784   4.085   1.432   5.866  1.1061 -3.6820 -0.5688
  910MOL0     H22785   3.901   1.332   5.790 -1.5159 -1.4083  1.5078
  910MOL0     H22786   3.815   1.435   5.891 -0.4803  1.4671 -0.3657
  910MOL0     H22787   3.690   1.286   5.662  1.3605  0.5398  0.2738
  910MOL0     H22788   3.678   1.251   5.833  1.6993 -0.5169  0.3922
  910MOL0     H22789   3.545   1.463   5.884 -0.2862  0.0487  0.7220
  910MOL0     H22790   3.570   1.516   5.714 -0.8893 -1.3778 -2.3702
  910MOL0     H22791   3.456   1.278   5.662 -0.3765  0.2087 -0.1442
  910MOL0     H22792   3.414   1.275   5.813 -1.7611 -0.9124 -2.2683
  910MOL0     H22793   3.278   1.475   5.806 -1.7568  0.5430 -1.3944
  910MOL0     H22794   3.329   1.513   5.647  0.6265  1.1008  1.4362
  910MOL0     H22795   3.222   1.291   5.570 -1.1176  2.0602 -0.7578
  910MOL0     H22796   3.195   1.251   5.741  3.1889  0.9268  1.4861
  910MOL0     H22797   3.047   1.460   5.757 -0.1638  2.4849 -1.0576
  910MOL0     H22798   3.071   1.492   5.587 -1.1787  1.6105  0.7626
  910MOL0     H22799   2.941   1.248   5.738 -1.0402  1.5431  0.9325
  910MOL0     H22800   2.975   1.238   5.567  2.3509 -0.7526  0.1028
  910MOL0     H22801   2.860   1.593   5.536  1.5472 -1.1354 -0.7456
  910MOL0     H22802   2.585   1.713   5.656  0.7504 -2.1440  1.3569
  910MOL0     H22803   2.619   1.714   5.480 -0.7225 -1.1273 -1.1036
  910MOL0     H22804   2.382   1.589   5.634 -1.2515 -2.1883 -2.1785
  910MOL0     H22805   2.431   1.525   5.480  3.8479 -2.3721  2.2404
  910MOL0     H22806   2.400   1.773   5.382 -0.3020  0.3500  0.0304
  910MOL0     H22807   2.355   1.827   5.539  0.2746 -0.5838  0.0910
  910MOL0     H22808   2.148   1.695   5.539  0.2705  1.6064  0.1475
  910MOL0     H22809   2.206   1.619   5.386  1.7899  0.3487 -0.0036
  910MOL0     H22810   1.992   2.031   5.311  1.3501 -0.2369  1.2472
  910MOL0     H22811   1.781   2.142   5.337 -1.6500  0.8839  0.0743
  910MOL0     H22812   1.747   2.109   5.162  0.0998  1.0776 -0.0639
  910MOL0     H22813   1.632   2.064   5.282  0.3972 -2.9602 -2.0041
  910MOL0     H22814   1.339   1.778   5.338  1.9362 -0.2616  0.4345
  910MOL0     H22815   1.100   1.717   5.291  0.6081  3.3486 -2.1691
  910MOL0     H22816   1.035   1.638   4.931 -0.3787  1.0236  1.6490
  910MOL0     H22817   1.030   1.462   4.927  1.3721  1.0697 -1.6441
  910MOL0     H22818   0.808   1.537   4.838 -1.6159  0.8825  0.5353
  910MOL0     H22819   0.791   1.481   4.993  0.0443  1.6391 -0.0012
  910MOL0     H22820   0.852   1.783   4.973 -1.3885  0.9744  1.3318
  910MOL0     H22821   0.790   1.687   5.102 -3.6279 -2.9191  0.5704
  910MOL0     H22822   0.621   1.819   4.969  0.5426  2.0047 -1.6336
  910MOL0     H22823   0.659   1.720   4.820  3.1865  2.5469  0.2044
  910MOL0     H22824   0.522   1.610   5.073  0.9428  0.4915  0.4249
  910MOL0     H22825   0.549   1.530   4.912 -0.4888  1.1279 -0.3538
  910MOL0     H22826   0.369   1.770   4.937 -2.9712 -0.0832 -1.9169
  910MOL0     H22827   0.401   1.691   4.797 -3.1496  1.9226  0.1053
  910MOL0     H22828   0.282   1.593   5.058  2.7955 -0.5997 -0.4103
  910MOL0     H22829   0.294   1.477   4.923 -2.4879 -0.6096  0.8529
  910MOL0     H22830   0.128   1.733   4.883  1.2960  0.3850 -1.7726
  910MOL0     H22831   0.073   1.576   4.943 -0.2743  0.9943  0.8842
  910MOL0     H22832   1.241   1.437   5.003 -0.7401  1.9729 -0.6811
  910MOL0     H22833   1.479   1.492   5.074  1.3085  3.0752  1.8509
  910MOL0     H22834   1.769   1.595   5.255 -1.9428  0.2855  0.0891
  910MOL0     H22835   1.996   1.596   5.316 -0.9424 -1.8813 -1.8935
  910MOL0     H22836   3.931   1.707   5.570  1.7653  3.0897 -0.4609
  910MOL0     H22837   4.129   1.811   5.551 -4.0618  0.6512  1.0094
  910MOL0     H22838   4.560   1.910   5.804 -0.8323 -2.8732  0.9624
  910MOL0     H22839   4.806   2.004   5.773 -0.3237  1.6323 -1.0277
  910MOL0     H22840   5.030   1.802   5.467  0.4698  0.7065  0.3623
  910MOL0     H22841   5.016   1.949   5.374 -0.6250  4.1361  1.3397
  910MOL0     H22842   5.199   2.048   5.511 -1.1062  0.3214  1.8071
  910MOL0     H22843   5.255   1.882   5.450 -0.1456 -0.6610 -0.1174
  910MOL0     H22844   5.181   1.810   5.690 -1.6981  0.3082 -1.1693
  910MOL0     H22845   5.165   1.985   5.726  1.2550  0.5196  0.7115
  910MOL0     H22846   5.400   2.023   5.673  0.7435  0.7312  4.3940
  910MOL0     H22847   5.420   1.858   5.605 -0.4729  1.1822 -1.5688
  910MOL0     H22848   5.555   1.790   5.978  1.6735  0.0748 -1.7534
  910MOL0     H22849   4.833   1.756   5.428 -2.6110 -1.6209  0.5728
  910MOL0     H22850   4.638   1.649   5.476  2.9108 -1.5390  0.6546
  911MOL0     O22851  10.683   5.604   0.168 -0.4327 -0.2136 -0.7019
  911MOL0     C22852  10.704   5.587   0.051  0.1089 -0.7424 -0.2794
  911MOL0     O22853  10.627   5.626  -0.053 -0.0442 -0.6537  0.4584
  911MOL0     C22854  10.519   5.703  -0.023  0.5214  0.6067 -0.3587
  911MOL0     C22855  10.413   5.681  -0.105 -0.4984  0.0958 -0.5312
  911MOL0     C22856  10.287   5.745  -0.085 -0.8383  0.8151 -0.8126
  911MOL0     C22857  10.274   5.833   0.014 -0.1417 -0.7166  0.7790
  911MOL0     O22858  10.149   5.884   0.033  0.3413  0.1110 -0.8712
  911MOL0     C22859  10.115   5.999   0.118 -0.4221  0.6241  0.6582
  911MOL0     C22860   9.970   6.033   0.104  0.0491 -1.6915 -0.3421
  911MOL0     C22861   9.925   6.025  -0.046  0.1375  0.0511  0.4264
  911MOL0     C22862   9.785   6.082  -0.050  0.2478  0.1619  0.9697
  911MOL0     C22863   9.742   6.092  -0.196 -0.0233 -0.3471 -0.4787
  911MOL0     C22864   9.619   6.165  -0.236 -0.3013  0.4243 -0.2823
  911MOL0     C22865   9.590   6.146  -0.387 -0.0651  0.2184  0.2618
  911MOL0     C22866   9.610   6.267  -0.475  0.3287 -0.4428  0.4620
  911MOL0     N22867   9.507   6.373  -0.453 -0.4052  0.1071  0.5213
  911MOL0     C22868   9.415   6.385  -0.346 -0.4892  0.1865  0.7129
  911MOL0     C22869   9.325   6.468  -0.398  0.1479  0.2131 -0.4905
  911MOL0     C22870   9.188   6.504  -0.329 -0.0993 -0.6711 -0.5525
  911MOL0     C22871   9.056   6.486  -0.410 -0.5395 -0.2837  0.0801
  911MOL0     C22872   8.924   6.532  -0.345  0.0483  0.2911 -0.4198
  911MOL0     C22873   8.884   6.459  -0.220  0.0693 -0.1218 -1.1363
  911MOL0     O22874   8.745   6.496  -0.194  0.4972 -0.1524  0.2744
  911MOL0     C22875   8.635   6.451  -0.261  0.0818  0.4439 -0.4553
  911MOL0     C22876   8.642   6.336  -0.338 -0.4373  0.2454  0.0533
  911MOL0     C22877   8.537   6.282  -0.409 -1.2583  0.4178 -0.7249
  911MOL0     C22878   8.564   6.166  -0.501  0.3722 -0.9253 -0.4781
  911MOL0     C22879   8.416   6.354  -0.414 -0.5950 -0.2023  0.2321
  911MOL0     C22880   8.304   6.324  -0.503  0.2620  0.2774 -0.2902
  911MOL0     O22881   8.177   6.351  -0.447  0.3630 -0.2380  0.0838
  911MOL0     C22882   8.052   6.317  -0.502 -0.7868  0.8043  0.3193
  911MOL0     C22883   7.984   6.398  -0.592 -0.4542  0.5251 -0.0509
  911MOL0     C22884   7.859   6.356  -0.642  0.4340  0.3251  0.3326
  911MOL0     C22885   7.798   6.234  -0.602  0.2287 -0.5007 -1.0780
  911MOL0     O22886   7.679   6.193  -0.651 -0.2600 -0.2955 -1.0967
  911MOL0     C22887   7.579   6.285  -0.706  0.7218  0.1861 -0.5317
  911MOL0     C22888   7.435   6.234  -0.706  0.7218 -0.0470 -0.1874
  911MOL0     C22889   7.348   6.318  -0.798  0.2563 -0.5226  0.5803
  911MOL0     C22890   7.205   6.256  -0.806 -0.3624  0.5787 -0.0019
  911MOL0     C22891   7.205   6.119  -0.890 -0.8551 -0.0301  0.5838
  911MOL0     C22892   7.265   6.110  -1.036  0.7350 -0.1165 -0.0012
  911MOL0     C22893   7.177   6.185  -1.131 -0.3079  0.3738  0.5520
  911MOL0     C22894   7.037   6.129  -1.166  0.1269 -0.0408  0.0424
  911MOL0    Cl22895   6.908   6.180  -1.049  0.1069  0.3444  0.5239
  911MOL0     C22896   7.860   6.159  -0.506  0.0111  0.5742  0.7888
  911MOL0     C22897   7.995   6.190  -0.465  0.1988  0.0765 -0.1167
  911MOL0     O22898   8.324   6.274  -0.614  0.1326  0.3223  0.3480
  911MOL0     C22899   8.410   6.464  -0.339  0.3652 -0.5094 -1.3467
  911MOL0     C22900   8.515   6.518  -0.269 -0.7285  0.7426  0.1303
  911MOL0     N22901   9.354   6.500  -0.533  0.4076 -0.7004  0.2472
  911MOL0     N22902   9.458   6.436  -0.565 -0.1391 -0.9247 -0.1787
  911MOL0     C22903  10.383   5.873   0.089  0.0798 -0.2495  0.6649
  911MOL0     C22904  10.506   5.812   0.072 -0.3513  0.1583 -0.1417
  911MOL0     C22905  10.819   5.507   0.010 -0.1229 -0.1513  0.2474
  911MOL0     C22906  10.915   5.483   0.108 -0.0132 -0.4366  0.1126
  911MOL0     C22907  11.023   5.398   0.078 -0.7084  0.3340 -1.0079
  911MOL0     C22908  11.049   5.344  -0.045  0.0364 -0.0656 -0.1842
  911MOL0     O22909  11.157   5.268  -0.071 -0.0475  0.0159  0.5496
  911MOL0     C22910  11.230   5.291  -0.195 -0.4552  0.5523 -0.3936
  911MOL0     C22911  11.356   5.199  -0.190 -0.6982 -0.3201  0.1397
  911MOL0     C22912  11.329   5.048  -0.205  0.0583  0.7473 -1.2075
  911MOL0     C22913  11.458   4.969  -0.221 -0.1050  0.3171 -0.0238
  911MOL0     C22914  11.541   4.967  -0.103  0.1676 -0.8451 -1.2000
  911MOL0     C22915  11.605   4.970   0.006 -0.4629 -0.0686  1.0812
  911MOL0     C22916  10.966   5.383  -0.151 -0.8280  0.0361  0.4595
  911MOL0     C22917  10.853   5.459  -0.121  0.5629 -0.0989 -1.1011
  911MOL0     H22918  10.430   5.614  -0.189 -2.5993 -1.3697  0.1123
  911MOL0     H22919  10.208   5.727  -0.158  1.1373 -1.0569 -2.6503
  911MOL0     H22920  10.140   5.982   0.223 -1.2394  2.6370  1.2401
  911MOL0     H22921  10.168   6.086   0.076  0.4493 -1.1031 -2.1149
  911MOL0     H22922   9.909   5.965   0.164 -1.2031  1.1940  1.8992
  911MOL0     H22923   9.956   6.133   0.144  1.8678 -1.0108 -1.3185
  911MOL0     H22924   9.997   6.085  -0.100 -1.1583  2.2112  0.9728
  911MOL0     H22925   9.930   5.922  -0.082 -0.0033  0.8520 -2.0056
  911MOL0     H22926   9.715   6.017   0.005 -1.6297  1.2374 -0.0280
  911MOL0     H22927   9.767   6.179  -0.001 -2.7220 -1.0635  2.5920
  911MOL0     H22928   9.825   6.139  -0.250 -0.1282  3.1016  2.0163
  911MOL0     H22929   9.731   5.991  -0.236  1.6661 -0.6638 -0.2085
  911MOL0     H22930   9.530   6.124  -0.185  0.6557 -0.8081  0.4510
  911MOL0     H22931   9.615   6.272  -0.214 -0.2141  0.2926  0.3992
  911MOL0     H22932   9.645   6.058  -0.422 -0.1410 -1.7041  4.3314
  911MOL0     H22933   9.484   6.126  -0.398 -0.2740 -0.3529  2.7373
  911MOL0     H22934   9.626   6.242  -0.580 -0.3745  1.1067 -0.0481
  911MOL0     H22935   9.703   6.314  -0.442  1.2013 -1.5950 -0.3056
  911MOL0     H22936   9.401   6.335  -0.251 -1.3333 -0.6919  0.1422
  911MOL0     H22937   9.164   6.453  -0.235 -2.1299  0.8652 -0.1504
  911MOL0     H22938   9.207   6.606  -0.294 -2.6131 -0.3450  0.0524
  911MOL0     H22939   9.060   6.381  -0.441  1.6952 -0.1688 -0.2168
  911MOL0     H22940   9.061   6.548  -0.500 -0.9513  0.8671  0.8326
  911MOL0     H22941   8.843   6.523  -0.417 -1.4896  0.8542  1.1566
  911MOL0     H22942   8.931   6.640  -0.324 -1.8060  0.4408 -0.4440
  911MOL0     H22943   8.948   6.476  -0.132 -1.3961  0.2192 -0.1046
  911MOL0     H22944   8.885   6.350  -0.224 -4.5043 -0.4010 -0.0192
  911MOL0     H22945   8.738   6.297  -0.367  0.3877  2.3384 -0.2085
  911MOL0     H22946   8.480   6.096  -0.502 -0.0577 -0.4135 -1.6449
  911MOL0     H22947   8.590   6.201  -0.601  3.4722  1.6092  1.0283
  911MOL0     H22948   8.655   6.109  -0.478 -0.5499 -2.7311 -1.1279
  911MOL0     H22949   8.039   6.489  -0.614 -0.7430  1.0772  1.3890
  911MOL0     H22950   7.807   6.427  -0.706 -2.1481  0.5453  2.5017
  911MOL0     H22951   7.581   6.381  -0.653 -0.3584 -0.8511  1.5174
  911MOL0     H22952   7.609   6.319  -0.806  2.0053  0.0999 -0.1935
  911MOL0     H22953   7.444   6.129  -0.734 -2.0552 -0.5085  0.3000
  911MOL0     H22954   7.396   6.228  -0.603 -0.0889  0.1257 -0.4727
  911MOL0     H22955   7.399   6.313  -0.894  3.3050 -1.7780  2.1155
  911MOL0     H22956   7.336   6.425  -0.776 -3.2509 -0.5684 -0.4962
  911MOL0     H22957   7.182   6.239  -0.700  1.6016  3.0453  0.9343
  911MOL0     H22958   7.133   6.325  -0.852 -1.7468 -1.3796 -0.9162
  911MOL0     H22959   7.106   6.075  -0.904 -0.4397 -1.0217  0.6678
  911MOL0     H22960   7.270   6.053  -0.833 -0.0222  0.5810  0.3649
  911MOL0     H22961   7.370   6.141  -1.039  0.5978  0.2976 -0.9126
  911MOL0     H22962   7.272   6.011  -1.081  0.0999  0.0028 -0.3783
  911MOL0     H22963   7.226   6.197  -1.229 -1.7405 -1.7954 -0.5255
  911MOL0     H22964   7.167   6.286  -1.093 -0.1007 -0.2845  2.4582
  911MOL0     H22965   7.035   6.021  -1.180 -2.1321 -0.1636  0.8520
  911MOL0     H22966   7.009   6.175  -1.262 -0.6764  1.3762  0.9167
  911MOL0     H22967   7.812   6.065  -0.480 -0.3722  0.2260 -1.0016
  911MOL0     H22968   8.062   6.135  -0.399 -0.8366  0.2249  1.1033
  911MOL0     H22969   8.318   6.521  -0.334 -0.1125 -1.2980  3.0087
  911MOL0     H22970   8.510   6.609  -0.209 -0.5665 -1.5270  3.9364
  911MOL0     H22971  10.386   5.959   0.155  0.0400  2.2697 -2.3577
  911MOL0     H22972  10.596   5.848   0.120  1.6398 -0.2703 -3.2749
  911MOL0     H22973  10.912   5.521   0.210  0.8633  0.0753 -0.0423
  911MOL0     H22974  11.070   5.348   0.162 -1.0933  0.2979 -0.8094
  911MOL0     H22975  11.180   5.283  -0.292 -2.3061  3.3272  0.2022
  911MOL0     H22976  11.271   5.393  -0.193  1.0646 -0.0363  1.6490
  911MOL0     H22977  11.390   5.209  -0.086  1.8261 -1.8646 -0.4655
  911MOL0     H22978  11.433   5.236  -0.258 -0.0679 -1.3395  0.2767
  911MOL0     H22979  11.266   5.034  -0.294 -2.7415 -0.3869  0.7911
  911MOL0     H22980  11.268   5.009  -0.122  1.4349 -3.5249 -1.9505
  911MOL0     H22981  11.514   5.018  -0.301  1.9682  0.2374  1.3107
  911MOL0     H22982  11.426   4.871  -0.257 -2.6549  0.2375  2.1310
  911MOL0     H22983  11.668   4.967   0.093  0.5445 -2.3613  0.3663
  911MOL0     H22984  10.998   5.374  -0.254  0.3462 -1.8630  0.9454
  911MOL0     H22985  10.797   5.492  -0.208  0.1033 -0.2267 -0.8513
  912MOL0     O22986   1.957   5.359   5.898  0.1286 -0.9340  0.1768
  912MOL0     C22987   1.935   5.278   5.982  0.6213  0.5050  0.1561
  912MOL0     O22988   1.833   5.194   5.975  0.1048  0.3472  0.1812
  912MOL0     C22989   1.741   5.205   5.880  0.4251  1.0994 -0.6511
  912MOL0     C22990   1.657   5.322   5.892 -0.8545  0.1816  0.0835
  912MOL0     C22991   1.562   5.339   5.790  0.6859 -1.2599  0.4922
  912MOL0     C22992   1.548   5.255   5.680  0.3360  0.1258  0.9219
  912MOL0     O22993   1.446   5.260   5.586 -0.8615 -0.2820 -0.2856
  912MOL0     C22994   1.436   5.383   5.522 -0.1673 -1.1239 -0.2094
  912MOL0     C22995   1.527   5.377   5.402 -0.6247 -0.1974  0.1151
  912MOL0     C22996   1.498   5.258   5.310 -0.1239 -0.4066 -0.1562
  912MOL0     C22997   1.586   5.270   5.184 -0.6530 -0.0831  0.2344
  912MOL0     C22998   1.551   5.176   5.067 -0.8518  0.2475 -1.3876
  912MOL0     C22999   1.431   5.218   4.986  0.0912  0.1813 -0.4327
  912MOL0     C23000   1.408   5.120   4.880 -0.3613 -0.4597 -0.0926
  912MOL0     C23001   1.320   5.157   4.757  0.4802 -0.4718 -0.7159
  912MOL0     N23002   1.177   5.192   4.782  0.1816 -0.3571 -0.0093
  912MOL0     C23003   1.072   5.100   4.792 -0.2955 -0.6311 -0.6520
  912MOL0     C23004   0.977   5.180   4.846  1.1601 -0.1510 -0.5112
  912MOL0     C23005   0.843   5.120   4.868  0.5067  0.4579  0.5830
  912MOL0     C23006   0.735   5.166   4.755  0.3093 -0.6252  0.4553
  912MOL0     C23007   0.604   5.082   4.765 -0.2138  0.4043  0.2274
  912MOL0     C23008   0.506   5.152   4.860 -0.6591 -1.0241 -0.1033
  912MOL0     O23009   0.473   5.284   4.797 -0.0571 -0.0924 -0.3072
  912MOL0     C23010   0.377   5.291   4.698 -1.2999  0.8191 -0.2797
  912MOL0     C23011   0.364   5.399   4.620  0.2063  0.2283 -0.1503
  912MOL0     C23012   0.257   5.419   4.528 -0.4817  0.1844  0.1716
  912MOL0     C23013   0.258   5.550   4.457  0.5942 -0.1928 -0.5925
  912MOL0     C23014   0.152   5.326   4.510  0.4629 -0.0205 -0.7019
  912MOL0     C23015   0.052   5.339   4.409 -0.2475 -0.3179  0.2027
  912MOL0     O23016   0.083   5.314   4.280 -0.0383  0.2085  0.4680
  912MOL0     C23017  -0.009   5.358   4.190 -0.8447  0.3653 -0.3139
  912MOL0     C23018   0.006   5.481   4.127  0.9922 -0.7383 -0.0423
  912MOL0     C23019  -0.109   5.532   4.050  0.2081  0.0517 -0.5338
  912MOL0     C23020  -0.223   5.455   4.039 -0.1022 -0.6335  0.4807
  912MOL0     O23021  -0.326   5.516   3.978  0.0554 -0.4504  0.3244
  912MOL0     C23022  -0.425   5.434   3.915 -0.4389 -0.0100 -0.6928
  912MOL0     C23023  -0.495   5.526   3.809  0.4084 -0.1678 -0.6165
  912MOL0     C23024  -0.621   5.584   3.872  0.3297  0.4018  0.2650
  912MOL0     C23025  -0.681   5.708   3.794 -0.4510 -1.1120 -0.2068
  912MOL0     C23026  -0.815   5.765   3.842  0.0560 -0.2797 -0.2593
  912MOL0     C23027  -0.811   5.826   3.980  0.2329 -0.2825  0.5086
  912MOL0     C23028  -0.952   5.851   4.032  0.1457 -0.5748 -0.4244
  912MOL0     C23029  -0.954   5.881   4.171  0.1809  0.4985  0.0998
  912MOL0    Cl23030  -0.904   6.050   4.179  0.0926  0.3162  0.4142
  912MOL0     C23031  -0.219   5.324   4.089  0.4925  0.1993  0.3637
  912MOL0     C23032  -0.116   5.278   4.171  0.4027 -0.8566  0.0415
  912MOL0     O23033  -0.057   5.381   4.452 -0.3747  0.4899 -0.0924
  912MOL0     C23034   0.177   5.206   4.589  0.0870 -0.0031  0.1082
  912MOL0     C23035   0.281   5.192   4.688  0.2150 -0.8249 -0.1289
  912MOL0     N23036   1.006   5.310   4.850 -0.1182 -0.2571 -0.7090
  912MOL0     N23037   1.131   5.310   4.829 -0.3990  0.0677 -0.1528
  912MOL0     C23038   1.628   5.141   5.669  0.0921 -0.1592  0.0106
  912MOL0     C23039   1.725   5.120   5.771  0.2263 -0.5947 -0.6453
  912MOL0     C23040   2.026   5.266   6.098 -0.0443  0.1571 -0.2937
  912MOL0     C23041   2.150   5.329   6.098  0.7592 -0.0442 -0.1880
  912MOL0     C23042   2.248   5.302   6.195  1.4824 -0.7872 -0.3634
  912MOL0     C23043   2.207   5.240   6.316  0.4660 -0.2990  0.5381
  912MOL0     O23044   2.296   5.219   6.421  0.3482 -0.4805  0.1626
  912MOL0     C23045   2.423   5.161   6.398 -0.1849  0.5661  0.1707
  912MOL0     C23046   2.494   5.108   6.522 -0.7352  1.1543  0.6728
  912MOL0     C23047   2.650   5.111   6.508 -0.2502  0.8536  0.0673
  912MOL0     C23048   2.718   5.037   6.627  0.3933  0.3114 -0.0920
  912MOL0     C23049   2.857   5.070   6.633  0.9317 -0.1249 -0.3372
  912MOL0     C23050   2.978   5.095   6.647  1.1418 -0.3405 -1.0261
  912MOL0     C23051   2.081   5.183   6.315 -0.4447 -0.4536 -0.4282
  912MOL0     C23052   1.993   5.196   6.213  0.0142  0.0961  0.8552
  912MOL0     H23053   1.673   5.389   5.976  0.6240 -0.5553  0.4232
  912MOL0     H23054   1.494   5.423   5.790  2.7088  0.4934 -0.2967
  912MOL0     H23055   1.336   5.397   5.479  0.1530  0.7234 -0.4452
  912MOL0     H23056   1.464   5.470   5.583 -3.1849 -1.0446  1.2902
  912MOL0     H23057   1.523   5.472   5.348  1.3431  0.2246  0.6274
  912MOL0     H23058   1.628   5.369   5.443  0.0552  2.1073 -0.9306
  912MOL0     H23059   1.521   5.169   5.368  0.9848  1.0357  1.7250
  912MOL0     H23060   1.392   5.262   5.284 -0.6303  2.4996  1.9405
  912MOL0     H23061   1.584   5.369   5.137  0.3803 -0.8411 -1.4873
  912MOL0     H23062   1.688   5.256   5.222 -0.1894 -1.1438 -1.2994
  912MOL0     H23063   1.636   5.168   4.998  0.3833  0.7911  0.0078
  912MOL0     H23064   1.534   5.078   5.111  0.0462  0.2445 -1.0246
  912MOL0     H23065   1.343   5.207   5.050  2.9950  1.2401  4.1932
  912MOL0     H23066   1.444   5.322   4.954  3.3273  0.6590  1.9259
  912MOL0     H23067   1.497   5.088   4.825  0.3132  0.3825  0.4971
  912MOL0     H23068   1.363   5.031   4.924  0.1212 -0.0184  1.3242
  912MOL0     H23069   1.318   5.063   4.702 -2.1930 -1.4173  0.8158
  912MOL0     H23070   1.366   5.240   4.701 -3.3630  0.7406 -2.3900
  912MOL0     H23071   1.067   4.992   4.777  2.8805 -0.8358 -0.9893
  912MOL0     H23072   0.847   5.012   4.848  0.8910  0.9035 -2.1905
  912MOL0     H23073   0.805   5.144   4.968 -0.0825 -1.4073  0.8502
  912MOL0     H23074   0.782   5.146   4.658  0.9817 -1.1836  0.8818
  912MOL0     H23075   0.723   5.274   4.761  1.7355 -0.3791 -0.6484
  912MOL0     H23076   0.620   4.981   4.802  1.6567  0.2143 -0.9589
  912MOL0     H23077   0.562   5.065   4.665  1.5078  1.0429 -0.6429
  912MOL0     H23078   0.562   5.172   4.952  0.2845  0.2721 -0.9321
  912MOL0     H23079   0.421   5.086   4.879  0.5238 -2.6948 -0.3623
  912MOL0     H23080   0.436   5.476   4.644  1.5761 -1.2441  0.6071
  912MOL0     H23081   0.189   5.547   4.373  1.8939  0.1103 -1.6967
  912MOL0     H23082   0.209   5.627   4.519 -0.8024 -1.8580  0.4636
  912MOL0     H23083   0.350   5.578   4.406  0.4890 -0.4992 -0.9478
  912MOL0     H23084   0.095   5.543   4.133  0.4347  0.5196 -2.7871
  912MOL0     H23085  -0.095   5.629   4.003  2.7303  0.0646  0.1262
  912MOL0     H23086  -0.399   5.338   3.869 -1.5344 -0.6527 -0.0003
  912MOL0     H23087  -0.491   5.392   3.992  1.0276 -1.2714 -0.0698
  912MOL0     H23088  -0.432   5.605   3.765  0.8004  2.1980  3.6261
  912MOL0     H23089  -0.529   5.451   3.737 -0.2145 -0.4179 -0.0679
  912MOL0     H23090  -0.594   5.607   3.976 -1.9631  3.6702  0.2801
  912MOL0     H23091  -0.705   5.513   3.869  0.4785  0.0045  2.8543
  912MOL0     H23092  -0.610   5.791   3.800 -1.1756 -0.5062  0.3600
  912MOL0     H23093  -0.688   5.677   3.690 -1.4909 -1.0582 -0.1714
  912MOL0     H23094  -0.885   5.681   3.848  1.8564 -1.7037  2.3113
  912MOL0     H23095  -0.835   5.847   3.773  0.4592 -1.7291 -2.1905
  912MOL0     H23096  -0.763   5.757   4.050 -1.0096 -0.6749  0.9983
  912MOL0     H23097  -0.766   5.925   3.974 -4.1970  1.9764  0.6669
  912MOL0     H23098  -1.009   5.758   4.022  0.2318 -1.3807  4.4127
  912MOL0     H23099  -1.001   5.933   3.978  0.6664  0.3228  0.4417
  912MOL0     H23100  -0.893   5.811   4.229  2.4764  2.3125  0.0586
  912MOL0     H23101  -1.051   5.889   4.220  0.8738  2.2561  1.3203
  912MOL0     H23102  -0.311   5.267   4.084  0.5573 -0.0437  1.5297
  912MOL0     H23103  -0.120   5.185   4.227  0.5403 -0.6913  0.3241
  912MOL0     H23104   0.105   5.125   4.593  2.0251 -1.8236 -0.3577
  912MOL0     H23105   0.267   5.097   4.738 -1.6893 -0.4948  0.0494
  912MOL0     H23106   1.615   5.070   5.588  1.3602  0.1388 -0.4907
  912MOL0     H23107   1.782   5.028   5.771  0.8501 -0.4202  3.8002
  912MOL0     H23108   2.185   5.370   6.004  0.5199 -2.5105 -1.4505
  912MOL0     H23109   2.351   5.336   6.194  1.1079  0.8871  3.1405
  912MOL0     H23110   2.407   5.072   6.337 -1.3216 -0.3877  1.7751
  912MOL0     H23111   2.491   5.234   6.353  0.3493  1.3423  2.1139
  912MOL0     H23112   2.463   5.006   6.547 -0.0258 -0.2687 -3.4380
  912MOL0     H23113   2.465   5.174   6.604 -5.2755  1.1867 -0.7046
  912MOL0     H23114   2.677   5.217   6.499 -0.6060  1.1138  1.7273
  912MOL0     H23115   2.689   5.062   6.419  0.5096  0.9662  0.3298
  912MOL0     H23116   2.711   4.928   6.620  2.6783  0.1886 -1.3768
  912MOL0     H23117   2.663   5.065   6.718  0.5277 -2.3483  0.9077
  912MOL0     H23118   3.081   5.113   6.671  0.8229 -0.4864  0.5611
  912MOL0     H23119   2.059   5.118   6.399 -2.0742 -0.5390 -0.8896
  912MOL0     H23120   1.899   5.142   6.208  0.0617  0.0263  0.6928
  913MOL0     O23121   9.369   9.156  11.030 -0.1646  0.0946  0.7899
  913MOL0     C23122   9.432   9.180  10.929 -0.2263  0.4996 -0.1814
  913MOL0     O23123   9.381   9.201  10.804  0.0984 -0.3456 -0.6787
  913MOL0     C23124   9.250   9.224  10.772  0.7236 -0.9057  0.6933
  913MOL0     C23125   9.206   9.189  10.643 -0.2565  0.5381 -0.7893
  913MOL0     C23126   9.075   9.204  10.605 -0.0023  0.3449 -0.5565
  913MOL0     C23127   8.983   9.270  10.689 -0.3548  0.3527  0.7023
  913MOL0     O23128   8.852   9.284  10.641  0.1586  0.0421  1.1096
  913MOL0     C23129   8.756   9.345  10.731 -0.1214 -0.3767 -0.5599
  913MOL0     C23130   8.617   9.343  10.675 -0.1742 -0.1121  0.1776
  913MOL0     C23131   8.605   9.425  10.553 -0.1237  0.0875  0.1204
  913MOL0     C23132   8.472   9.411  10.486 -0.4536  0.9938 -0.3191
  913MOL0     C23133   8.456   9.524  10.386 -0.4443  0.3610  0.3504
  913MOL0     C23134   8.310   9.563  10.364  0.0747  0.9923  0.8225
  913MOL0     C23135   8.270   9.679  10.274 -0.6629 -0.3574  0.4600
  913MOL0     C23136   8.124   9.665  10.229  0.5334 -0.8996  1.1003
  913MOL0     N23137   8.039   9.672  10.343 -0.1050 -0.3675 -0.2893
  913MOL0     C23138   7.919   9.602  10.364  0.1082 -0.2144  0.5129
  913MOL0     C23139   7.864   9.654  10.477 -0.1333 -0.2559  0.1107
  913MOL0     C23140   7.727   9.632  10.528  0.9888  0.9277 -0.7757
  913MOL0     C23141   7.675   9.749  10.620  0.2146  0.8208 -0.5069
  913MOL0     C23142   7.542   9.706  10.678  0.1008  0.0154  0.2085
  913MOL0     C23143   7.416   9.761  10.599  0.0443  0.8223  0.5852
  913MOL0     O23144   7.293   9.736  10.672 -0.2836 -0.8075  0.3943
  913MOL0     C23145   7.244   9.607  10.680 -0.3535 -0.5615  0.9288
  913MOL0     C23146   7.216   9.524  10.572  0.2163  0.1684 -0.6658
  913MOL0     C23147   7.161   9.393  10.581 -0.4376  0.6467 -0.0936
  913MOL0     C23148   7.155   9.294  10.459  0.1634  0.2058 -0.3478
  913MOL0     C23149   7.129   9.345  10.713  0.7063 -1.1253  0.2663
  913MOL0     C23150   7.061   9.214  10.751 -0.5137  0.3321 -0.1650
  913MOL0     O23151   7.030   9.192  10.879 -0.1274 -0.5338 -0.4991
  913MOL0     C23152   6.955   9.079  10.918  0.4199 -0.6410  0.0083
  913MOL0     C23153   6.826   9.056  10.881  0.2645  0.1897 -0.7008
  913MOL0     C23154   6.772   8.924  10.908  0.2320  0.0879 -0.3574
  913MOL0     C23155   6.837   8.821  10.976  0.6594 -0.0616 -0.4574
  913MOL0     O23156   6.790   8.700  11.018  0.1524  0.1145 -0.4855
  913MOL0     C23157   6.654   8.671  10.982  0.5863 -0.1679  0.4508
  913MOL0     C23158   6.609   8.528  11.025  0.1135 -0.5520  0.3663
  913MOL0     C23159   6.465   8.499  10.979  0.4752  0.5501  0.1072
  913MOL0     C23160   6.463   8.417  10.851 -0.9543 -0.3307  0.4445
  913MOL0     C23161   6.524   8.279  10.852 -0.2737  0.7361  0.0383
  913MOL0     C23162   6.490   8.198  10.975  0.1672  0.0024  0.3825
  913MOL0     C23163   6.531   8.053  10.948 -0.2085  1.0701 -0.2184
  913MOL0     C23164   6.449   7.958  11.037 -0.1540  0.5868  0.2186
  913MOL0    Cl23165   6.493   7.984  11.210  0.1627  0.1100 -0.7219
  913MOL0     C23166   6.966   8.848  11.004 -0.5833  0.3178  0.1829
  913MOL0     C23167   7.026   8.973  10.978  0.1399  0.5402 -0.3958
  913MOL0     O23168   7.041   9.129  10.663  0.2166 -0.7281  0.6746
  913MOL0     C23169   7.148   9.440  10.814 -1.0755  0.8963  0.3447
  913MOL0     C23170   7.216   9.559  10.801  0.3363  0.1446 -0.5182
  913MOL0     N23171   7.961   9.752  10.524  0.5145 -0.4840 -0.0802
  913MOL0     N23172   8.054   9.759  10.442  0.3053  0.3407  0.3366
  913MOL0     C23173   9.036   9.332  10.802 -0.1728 -0.7214 -0.4235
  913MOL0     C23174   9.164   9.303  10.840 -0.8330 -0.1008 -0.3138
  913MOL0     C23175   9.578   9.183  10.951  0.0952  0.2200  0.1820
  913MOL0     C23176   9.650   9.134  11.070  0.0740  0.3671 -0.7481
  913MOL0     C23177   9.790   9.133  11.087  0.2156  0.7752 -0.1675
  913MOL0     C23178   9.873   9.167  10.978 -0.1118  0.1090  0.2395
  913MOL0     O23179  10.008   9.163  10.991  0.0298  0.6565  0.7507
  913MOL0     C23180  10.077   9.099  10.874 -0.5249  0.0258 -0.1315
  913MOL0     C23181  10.218   9.074  10.925 -0.1424 -0.5453 -0.0232
  913MOL0     C23182  10.297   9.203  10.952  0.7775  0.6157 -0.8387
  913MOL0     C23183  10.420   9.162  11.049  0.1602 -1.4423 -0.4883
  913MOL0     C23184  10.482   9.283  11.100  0.4698 -0.6188  0.1531
  913MOL0     C23185  10.537   9.384  11.150 -0.3792  0.8017 -0.3128
  913MOL0     C23186   9.811   9.210  10.852  0.3741  0.3621 -0.8141
  913MOL0     C23187   9.669   9.210  10.840  0.1770  0.3873 -0.3422
  913MOL0     H23188   9.271   9.122  10.588 -1.1865 -0.7057 -0.4055
  913MOL0     H23189   9.042   9.161  10.511 -0.4663  2.8197 -1.5882
  913MOL0     H23190   8.768   9.277  10.815  1.2858  0.9364  0.3706
  913MOL0     H23191   8.778   9.448  10.762 -1.7643  0.3101 -1.5400
  913MOL0     H23192   8.579   9.243  10.649  0.3638 -0.5355  0.9750
  913MOL0     H23193   8.550   9.370  10.757 -1.8536 -1.8963 -0.5392
  913MOL0     H23194   8.627   9.526  10.588 -0.6578 -0.0119  0.7586
  913MOL0     H23195   8.683   9.403  10.478  2.5008  0.1561  2.6597
  913MOL0     H23196   8.463   9.317  10.431 -1.1785  0.5646  0.5121
  913MOL0     H23197   8.399   9.420  10.566 -0.0861  1.7447 -0.0590
  913MOL0     H23198   8.514   9.613  10.415  1.8695 -0.5041 -1.3365
  913MOL0     H23199   8.498   9.489  10.292  1.3873  3.1009  0.0235
  913MOL0     H23200   8.263   9.472  10.327  1.8741  0.1519  0.4945
  913MOL0     H23201   8.263   9.586  10.460 -2.7317  2.2642 -0.7286
  913MOL0     H23202   8.289   9.772  10.328 -1.4460  0.0859 -0.0065
  913MOL0     H23203   8.338   9.677  10.188  1.1010 -0.0046  1.7883
  913MOL0     H23204   8.109   9.569  10.180 -0.1884  1.5823 -4.3399
  913MOL0     H23205   8.090   9.742  10.158 -1.6062 -2.3409  0.4787
  913MOL0     H23206   7.871   9.543  10.286 -0.0245  0.6830 -0.0979
  913MOL0     H23207   7.653   9.620  10.448  0.4304  2.7973 -0.5922
  913MOL0     H23208   7.729   9.537  10.583 -0.7376  0.5310 -1.3139
  913MOL0     H23209   7.662   9.850  10.578  1.6054  0.7213 -1.2413
  913MOL0     H23210   7.747   9.760  10.702 -2.1803  1.3844  1.6302
  913MOL0     H23211   7.538   9.729  10.784  1.5684 -3.4432  1.1684
  913MOL0     H23212   7.537   9.597  10.688  1.3204 -0.4465 -2.9384
  913MOL0     H23213   7.421   9.708  10.503  0.2606 -0.7212  1.4152
  913MOL0     H23214   7.433   9.867  10.583  3.6808  0.3325  0.3187
  913MOL0     H23215   7.235   9.558  10.471 -2.8322 -0.2309 -1.4713
  913MOL0     H23216   7.055   9.287  10.415 -0.0978  0.4678  0.1915
  913MOL0     H23217   7.226   9.335  10.388  1.1330  1.5874  1.3290
  913MOL0     H23218   7.190   9.196  10.491 -0.5364 -0.8236 -2.5300
  913MOL0     H23219   6.764   9.126  10.825 -1.6772 -0.9697 -0.1080
  913MOL0     H23220   6.680   8.895  10.860  0.5208 -1.4888 -0.0064
  913MOL0     H23221   6.597   8.744  11.040  1.5833  1.4695 -0.5494
  913MOL0     H23222   6.638   8.687  10.875  0.6689 -1.3830  0.2367
  913MOL0     H23223   6.680   8.451  10.994 -1.8902 -1.3258 -2.8355
  913MOL0     H23224   6.618   8.522  11.134  0.2242  0.0332  0.3945
  913MOL0     H23225   6.417   8.595  10.958  0.0899  0.5678  0.9984
  913MOL0     H23226   6.410   8.448  11.059  1.9455 -1.7109 -0.2410
  913MOL0     H23227   6.357   8.409  10.823 -0.8021  1.4117 -0.7676
  913MOL0     H23228   6.499   8.480  10.770 -1.6900 -0.6416 -0.1386
  913MOL0     H23229   6.630   8.287  10.829 -0.1590 -0.2072  0.2119
  913MOL0     H23230   6.485   8.221  10.768  4.4146 -1.0575 -1.2046
  913MOL0     H23231   6.535   8.245  11.063  0.1078 -0.8200  0.8672
  913MOL0     H23232   6.381   8.203  10.980 -0.0242  2.7606 -2.8552
  913MOL0     H23233   6.638   8.037  10.961 -0.0931  2.4712  0.7957
  913MOL0     H23234   6.518   8.035  10.841 -0.2195  1.1342 -0.2284
  913MOL0     H23235   6.461   7.851  11.014 -0.6583  0.2976  1.2155
  913MOL0     H23236   6.344   7.971  11.007  0.2749  0.2432 -1.5807
  913MOL0     H23237   7.020   8.773  11.061  0.8688  0.7640 -0.5545
  913MOL0     H23238   7.129   8.987  11.009  0.9432 -0.6763 -2.3322
  913MOL0     H23239   7.131   9.416  10.918  0.3780  0.8506  0.5933
  913MOL0     H23240   7.233   9.624  10.886  1.0143  1.5570 -1.6681
  913MOL0     H23241   8.973   9.406  10.850 -0.0737 -0.3914 -0.7950
  913MOL0     H23242   9.204   9.340  10.934  3.2894 -2.8531 -0.6998
  913MOL0     H23243   9.589   9.126  11.160 -1.2505  1.5479 -1.5019
  913MOL0     H23244   9.840   9.101  11.178 -1.6819  0.7300  0.8975
  913MOL0     H23245  10.024   9.011  10.837  0.7603 -0.6217 -0.5014
  913MOL0     H23246  10.092   9.165  10.788 -0.0475  0.3699  0.2056
  913MOL0     H23247  10.269   9.020  10.844 -1.2257 -2.1105  0.2914
  913MOL0     H23248  10.207   9.015  11.017 -2.4122  1.6669  1.2339
  913MOL0     H23249  10.238   9.278  11.004 -0.8186 -1.1882  0.0556
  913MOL0     H23250  10.330   9.245  10.856  0.0542  0.5769 -1.1143
  913MOL0     H23251  10.483   9.098  10.987  1.4757  0.0008 -0.6992
  913MOL0     H23252  10.377   9.104  11.131 -0.6191 -0.7302 -0.3789
  913MOL0     H23253  10.597   9.448  11.210 -0.2713  0.0055  0.4552
  913MOL0     H23254   9.874   9.242  10.770  0.9866  0.1523 -0.4301
  913MOL0     H23255   9.619   9.244  10.750  2.6676  1.3707 -1.4510
  914MOL0     O23256  10.189   6.824   6.637 -0.5440 -1.1943  0.5406
  914MOL0     C23257  10.078   6.877   6.615  0.4691  1.1002  0.4656
  914MOL0     O23258  10.041   7.005   6.642 -0.4284 -0.8241 -0.7148
  914MOL0     C23259  10.137   7.105   6.644 -0.3745 -0.7527 -1.1183
  914MOL0     C23260  10.229   7.112   6.543 -0.2799  0.1869  0.1280
  914MOL0     C23261  10.327   7.200   6.546 -0.2725  0.0154  0.3285
  914MOL0     C23262  10.342   7.281   6.661 -0.1910  0.5165 -0.3799
  914MOL0     O23263  10.441   7.379   6.658 -0.5369 -0.1868  0.3586
  914MOL0     C23264  10.513   7.380   6.788 -0.2037  0.8053 -0.0109
  914MOL0     C23265  10.643   7.453   6.770 -0.6604  0.0196  0.2170
  914MOL0     C23266  10.734   7.389   6.659 -0.1782  0.1604 -0.3203
  914MOL0     C23267  10.876   7.459   6.645 -0.5910  0.4304  0.0547
  914MOL0     C23268  10.976   7.373   6.559  1.5856 -0.8325  0.9067
  914MOL0     C23269  11.009   7.241   6.630 -0.9528  0.9108  0.0115
  914MOL0     C23270  11.146   7.183   6.570  0.1301  0.8129  0.0459
  914MOL0     C23271  11.275   7.267   6.589  0.1938  0.3621 -0.5668
  914MOL0     N23272  11.310   7.317   6.723  0.2462 -1.0461  0.3449
  914MOL0     C23273  11.294   7.234   6.830 -0.5083  0.7131 -0.4281
  914MOL0     C23274  11.289   7.325   6.936 -0.1511  0.4317 -0.2732
  914MOL0     C23275  11.261   7.282   7.081  0.1008 -0.1182 -0.5252
  914MOL0     C23276  11.111   7.305   7.109 -0.1864 -0.2870 -0.0981
  914MOL0     C23277  11.053   7.438   7.049  0.0256  0.1856 -0.0269
  914MOL0     C23278  10.916   7.473   7.108  0.4213  0.0922  0.9615
  914MOL0     O23279  10.849   7.344   7.102 -0.3251  0.3906 -0.1082
  914MOL0     C23280  10.708   7.346   7.125  0.7303 -0.2237  0.2696
  914MOL0     C23281  10.638   7.451   7.182 -0.0284 -0.9434 -0.2111
  914MOL0     C23282  10.500   7.457   7.204 -0.4800 -0.0198  0.2676
  914MOL0     C23283  10.454   7.572   7.285  0.0189  0.3263 -0.2464
  914MOL0     C23284  10.421   7.348   7.156 -0.1140 -0.1751 -0.4221
  914MOL0     C23285  10.268   7.338   7.166 -0.2146 -1.7848 -0.2385
  914MOL0     O23286  10.204   7.230   7.119  0.3453  0.0124  0.8132
  914MOL0     C23287  10.064   7.227   7.115 -0.1511  0.1384  0.3452
  914MOL0     C23288   9.997   7.118   7.174  0.2725 -0.3713 -0.2087
  914MOL0     C23289   9.863   7.080   7.147 -0.2850 -0.4049  1.0761
  914MOL0     C23290   9.794   7.161   7.051  0.4589  0.4398 -0.1416
  914MOL0     O23291   9.667   7.133   7.024  0.4193  0.0396 -0.0580
  914MOL0     C23292   9.621   6.998   7.005 -0.1743 -0.5749 -0.1286
  914MOL0     C23293   9.551   6.995   6.873 -0.4101 -1.1460  0.8918
  914MOL0     C23294   9.400   7.016   6.902  0.4428  0.1416  0.4994
  914MOL0     C23295   9.312   6.949   6.786 -0.1489 -0.2152 -0.6654
  914MOL0     C23296   9.170   6.923   6.833  0.0642 -0.5513  0.9407
  914MOL0     C23297   9.083   6.883   6.715  0.0691 -0.3845 -0.5964
  914MOL0     C23298   8.932   6.871   6.759 -0.5154 -0.2349 -0.9401
  914MOL0     C23299   8.849   6.830   6.649  0.0963 -0.1168  0.5602
  914MOL0    Cl23300   8.664   6.818   6.679 -0.2047  0.0895  0.0494
  914MOL0     C23301   9.856   7.275   7.006  0.4663 -0.7154  0.6699
  914MOL0     C23302   9.989   7.313   7.043 -0.0710 -0.0496 -0.3465
  914MOL0     O23303  10.207   7.438   7.209 -0.2967 -0.1204  0.5690
  914MOL0     C23304  10.485   7.242   7.094 -0.0104 -0.3553  0.3224
  914MOL0     C23305  10.627   7.240   7.094  0.1487  0.2123 -0.8618
  914MOL0     N23306  11.306   7.456   6.887  0.0080 -1.1019  0.4084
  914MOL0     N23307  11.311   7.446   6.761  0.2823 -0.2329 -0.3438
  914MOL0     C23308  10.259   7.264   6.771  0.4927 -0.4305 -0.0011
  914MOL0     C23309  10.147   7.182   6.758  0.8058  0.1020  0.2170
  914MOL0     C23310   9.963   6.785   6.578  0.6535 -0.1005 -0.1762
  914MOL0     C23311   9.833   6.831   6.579 -0.8604  0.2317  0.5267
  914MOL0     C23312   9.738   6.747   6.527  0.8371  0.1238 -0.8528
  914MOL0     C23313   9.755   6.619   6.487  0.3007 -0.7671 -0.2003
  914MOL0     O23314   9.652   6.550   6.438  0.0403 -0.6943  0.4526
  914MOL0     C23315   9.651   6.546   6.288  0.0796 -0.1296 -0.0455
  914MOL0     C23316   9.631   6.399   6.242 -0.1497  0.4864  0.6894
  914MOL0     C23317   9.625   6.391   6.084  0.1822  0.0634 -1.0455
  914MOL0     C23318   9.747   6.455   6.013  0.0773  0.0431 -0.6251
  914MOL0     C23319   9.868   6.409   6.068  0.2793  0.3703  1.1874
  914MOL0     C23320   9.969   6.350   6.094  0.2467  0.3478  0.2940
  914MOL0     C23321   9.881   6.568   6.493  0.5889 -0.4129 -0.0537
  914MOL0     C23322   9.986   6.651   6.535  0.0128 -0.6877 -0.5107
  914MOL0     H23323  10.212   7.055   6.451  1.8024 -0.9203  0.3722
  914MOL0     H23324  10.390   7.218   6.459 -0.8701 -1.0886 -0.3700
  914MOL0     H23325  10.466   7.432   6.872 -2.0713  2.8964 -2.2136
  914MOL0     H23326  10.531   7.278   6.823  1.2138  1.4213  1.1727
  914MOL0     H23327  10.622   7.558   6.744 -2.4849 -1.0876 -3.4691
  914MOL0     H23328  10.701   7.449   6.862 -2.1903 -0.5776  1.1837
  914MOL0     H23329  10.741   7.283   6.687  2.5061  0.4795  0.4790
  914MOL0     H23330  10.684   7.407   6.563  0.6460 -2.3458 -1.3116
  914MOL0     H23331  10.858   7.557   6.600  1.4361  0.8747  0.1125
  914MOL0     H23332  10.915   7.467   6.746  1.5955  1.4377 -0.8023
  914MOL0     H23333  10.933   7.337   6.466  3.6237  0.4018 -0.6089
  914MOL0     H23334  11.056   7.442   6.529  1.3857 -0.7111  0.6509
  914MOL0     H23335  11.027   7.248   6.737  0.1688 -1.6909  0.0502
  914MOL0     H23336  10.933   7.164   6.617  1.1868 -1.1865 -0.7306
  914MOL0     H23337  11.173   7.088   6.617  1.7689  1.8468  1.3411
  914MOL0     H23338  11.130   7.163   6.464 -2.8350  0.4891  0.4799
  914MOL0     H23339  11.274   7.342   6.510  0.7369 -1.4102 -2.3406
  914MOL0     H23340  11.352   7.193   6.566  0.0114 -0.3368  0.8918
  914MOL0     H23341  11.282   7.128   6.810 -1.9369  0.7862 -0.0978
  914MOL0     H23342  11.299   7.180   7.086  1.5014  0.4185  3.7122
  914MOL0     H23343  11.321   7.343   7.150  0.3490 -3.0493  2.1037
  914MOL0     H23344  11.094   7.298   7.217 -0.2976 -1.9609 -0.1879
  914MOL0     H23345  11.059   7.215   7.076 -0.4629 -0.4129  0.6500
  914MOL0     H23346  11.043   7.423   6.941 -0.3860  2.1122 -0.2808
  914MOL0     H23347  11.127   7.519   7.058 -1.0101  1.4584 -2.0984
  914MOL0     H23348  10.867   7.547   7.045  0.7426 -1.2931 -1.0067
  914MOL0     H23349  10.923   7.506   7.212 -0.9883  1.0949  0.7685
  914MOL0     H23350  10.689   7.541   7.215 -0.1331 -0.3328 -1.6389
  914MOL0     H23351  10.389   7.633   7.221 -2.1969 -0.7537  0.8530
  914MOL0     H23352  10.405   7.539   7.378  4.8693 -1.6577  1.9951
  914MOL0     H23353  10.542   7.630   7.315  1.5501 -1.3553 -1.2776
  914MOL0     H23354  10.072   7.056   7.223  2.6252  1.6708 -1.0062
  914MOL0     H23355   9.817   6.985   7.172  0.2595 -0.7037  0.9602
  914MOL0     H23356   9.700   6.923   6.995  1.1889  1.0751 -3.4794
  914MOL0     H23357   9.552   6.987   7.089  2.3615  1.3927  2.4103
  914MOL0     H23358   9.595   7.065   6.803 -1.6981  0.2004  1.3809
  914MOL0     H23359   9.557   6.897   6.824 -1.0963 -2.2151  2.8107
  914MOL0     H23360   9.383   7.122   6.921  1.0965  0.9931 -3.0674
  914MOL0     H23361   9.380   6.961   6.995  1.1063  1.4964  1.4775
  914MOL0     H23362   9.317   7.013   6.697 -2.9537  2.1040  0.6573
  914MOL0     H23363   9.352   6.854   6.749  0.4750 -0.4634  0.6185
  914MOL0     H23364   9.133   7.017   6.876  2.5966  1.8022 -1.6153
  914MOL0     H23365   9.163   6.852   6.916 -1.6408 -1.7368 -0.1524
  914MOL0     H23366   9.095   6.947   6.627 -0.7920  0.4158 -0.1548
  914MOL0     H23367   9.131   6.792   6.680  1.2367 -0.0816  0.1644
  914MOL0     H23368   8.889   6.965   6.795 -1.3522 -1.5382  1.7772
  914MOL0     H23369   8.915   6.797   6.838 -3.8506  0.7239 -0.5884
  914MOL0     H23370   8.884   6.732   6.615  1.4578  0.3061  0.6663
  914MOL0     H23371   8.877   6.897   6.567  0.8900 -1.4913 -0.3365
  914MOL0     H23372   9.787   7.337   6.949 -1.8143 -3.7758 -0.2303
  914MOL0     H23373  10.043   7.401   7.010  0.0508  0.9376  2.2157
  914MOL0     H23374  10.433   7.154   7.057  2.5808 -1.8453 -0.0896
  914MOL0     H23375  10.685   7.156   7.056  0.4443 -0.0389  0.1261
  914MOL0     H23376  10.272   7.303   6.872 -0.2697  1.8220 -0.6995
  914MOL0     H23377  10.081   7.151   6.838  0.8436 -0.5394  0.0024
  914MOL0     H23378   9.814   6.930   6.619 -0.7903 -0.1355  1.4962
  914MOL0     H23379   9.635   6.782   6.530  0.5647 -0.7089 -0.4116
  914MOL0     H23380   9.571   6.609   6.248 -1.2832 -1.0293  1.1191
  914MOL0     H23381   9.741   6.589   6.246  1.3170 -2.8695 -0.4130
  914MOL0     H23382   9.555   6.355   6.308  0.1289 -0.8146  0.1813
  914MOL0     H23383   9.716   6.340   6.277 -0.1365  1.3379  2.1699
  914MOL0     H23384   9.542   6.454   6.052  0.2903  0.2903 -0.8762
  914MOL0     H23385   9.604   6.287   6.055  2.4142 -0.6340 -0.3450
  914MOL0     H23386   9.745   6.564   6.016  0.1702  0.0299  0.4770
  914MOL0     H23387   9.738   6.424   5.909  1.3645 -3.0896  0.0787
  914MOL0     H23388  10.062   6.305   6.122  0.5659  1.0740  0.4462
  914MOL0     H23389   9.898   6.479   6.433 -3.1757 -1.2450 -0.1256
  914MOL0     H23390  10.089   6.619   6.523  0.9243  1.7457  0.1254
  915MOL0     O23391   7.538   5.158   5.951  0.0508  0.2486  0.5509
  915MOL0     C23392   7.518   5.041   6.002 -1.1711  0.1259 -0.1796
  915MOL0     O23393   7.411   5.001   6.076 -0.6742  0.2368 -0.6156
  915MOL0     C23394   7.317   5.090   6.106  0.7996 -0.1758  0.0759
  915MOL0     C23395   7.282   5.087   6.238 -0.1940  0.2793  0.8760
  915MOL0     C23396   7.197   5.173   6.296  0.4918  0.0832 -0.0050
  915MOL0     C23397   7.136   5.269   6.215 -0.1189 -0.5400  0.1788
  915MOL0     O23398   7.052   5.365   6.260 -0.6529  0.5288 -0.3483
  915MOL0     C23399   7.058   5.381   6.402 -0.9973  0.0793 -1.0218
  915MOL0     C23400   6.979   5.510   6.439  0.2562 -0.8355  0.7472
  915MOL0     C23401   6.828   5.483   6.439  0.9155  0.5167 -0.0996
  915MOL0     C23402   6.758   5.610   6.471  0.7827 -0.9209  0.2181
  915MOL0     C23403   6.618   5.605   6.408  0.4467  0.8572  0.3612
  915MOL0     C23404   6.545   5.737   6.429 -0.0066 -0.1467  0.0276
  915MOL0     C23405   6.514   5.770   6.574 -0.0556  1.1136  0.2211
  915MOL0     C23406   6.408   5.875   6.597 -0.0763 -0.4688 -0.0122
  915MOL0     N23407   6.381   5.901   6.738 -0.4304  0.8531  0.6587
  915MOL0     C23408   6.361   5.801   6.837 -0.0760  0.3426  0.6391
  915MOL0     C23409   6.294   5.857   6.941 -0.4611 -0.8150 -0.2616
  915MOL0     C23410   6.237   5.805   7.069 -0.1085  0.3252 -0.2068
  915MOL0     C23411   6.091   5.760   7.055 -0.6447 -0.1007  0.3623
  915MOL0     C23412   6.081   5.641   6.944  0.6744 -0.2671 -0.0247
  915MOL0     C23413   5.941   5.574   6.937  0.1399 -0.7768  0.1012
  915MOL0     O23414   5.835   5.664   6.906 -0.8218  0.5688 -0.0550
  915MOL0     C23415   5.707   5.618   6.899  0.3330 -1.0519 -0.5156
  915MOL0     C23416   5.667   5.485   6.878 -0.2934  0.6005 -0.4313
  915MOL0     C23417   5.532   5.442   6.874  0.0476  0.1294 -0.3195
  915MOL0     C23418   5.508   5.296   6.862 -0.8726  0.8707 -0.3221
  915MOL0     C23419   5.430   5.541   6.875  0.5615 -0.2430  0.0911
  915MOL0     C23420   5.286   5.518   6.843 -0.3469  0.3526 -0.9555
  915MOL0     O23421   5.197   5.618   6.886 -0.2551  0.0674 -0.9915
  915MOL0     C23422   5.068   5.617   6.850  1.1779 -0.3438 -0.2240
  915MOL0     C23423   4.968   5.601   6.947  0.2354 -0.8689  0.3648
  915MOL0     C23424   4.837   5.624   6.921  0.8030  0.0869  0.7879
  915MOL0     C23425   4.795   5.656   6.790 -0.4737 -0.5983  0.6501
  915MOL0     O23426   4.665   5.657   6.748  0.6388 -0.2800 -0.0712
  915MOL0     C23427   4.551   5.624   6.830  0.2039 -0.3677  0.0069
  915MOL0     C23428   4.557   5.471   6.840  0.6969 -0.4168  0.2501
  915MOL0     C23429   4.432   5.428   6.912  0.3049 -0.3312  0.8490
  915MOL0     C23430   4.356   5.309   6.842 -0.2639 -0.1806  0.6572
  915MOL0     C23431   4.231   5.267   6.924  0.0099 -0.2290  0.1509
  915MOL0     C23432   4.172   5.142   6.857 -0.1464 -0.0234  0.2633
  915MOL0     C23433   4.036   5.117   6.925  0.3039 -0.3441 -0.4062
  915MOL0     C23434   3.988   4.997   6.864  0.7171  0.1502 -0.2174
  915MOL0    Cl23435   3.839   4.930   6.947  0.1378 -0.4018 -0.0878
  915MOL0     C23436   4.891   5.688   6.689  0.3154  0.7991 -0.3901
  915MOL0     C23437   5.028   5.664   6.719  0.2489 -0.4988 -0.0580
  915MOL0     O23438   5.255   5.422   6.783  0.0794  1.2697  0.4678
  915MOL0     C23439   5.467   5.674   6.910 -0.1698 -0.3019  0.9625
  915MOL0     C23440   5.603   5.710   6.920 -0.7346 -1.0240 -0.1339
  915MOL0     N23441   6.285   5.996   6.910  1.0203 -0.1260 -0.3331
  915MOL0     N23442   6.342   6.023   6.788 -0.9900 -0.5227  0.1542
  915MOL0     C23443   7.170   5.277   6.075 -0.4730  0.2970  0.3364
  915MOL0     C23444   7.251   5.182   6.023  1.1537 -0.0838  0.7715
  915MOL0     C23445   7.630   4.944   5.992  0.3164  0.8609 -0.6334
  915MOL0     C23446   7.729   4.968   5.905 -0.5937 -0.3885  0.5798
  915MOL0     C23447   7.841   4.874   5.890  0.3370 -0.6135 -1.2872
  915MOL0     C23448   7.849   4.754   5.962  1.4334 -0.0046  0.4626
  915MOL0     O23449   7.939   4.658   5.952 -0.6268  0.3865  0.0912
  915MOL0     C23450   8.074   4.697   5.940  0.4837  0.4476 -0.3792
  915MOL0     C23451   8.107   4.811   6.038 -0.8691 -0.4935 -0.2317
  915MOL0     C23452   8.255   4.834   6.003  0.4242 -0.4337  0.0227
  915MOL0     C23453   8.330   4.937   6.085 -0.1157  0.4612  0.0992
  915MOL0     C23454   8.480   4.931   6.068 -0.3092  0.5091 -0.5438
  915MOL0     C23455   8.604   4.925   6.054  0.7890 -0.0988  0.2151
  915MOL0     C23456   7.736   4.729   6.040 -0.5466 -0.0380 -0.6292
  915MOL0     C23457   7.631   4.823   6.059 -0.1767  0.6212  0.0864
  915MOL0     H23458   7.338   5.011   6.292 -0.7671  0.5198  1.8365
  915MOL0     H23459   7.182   5.166   6.404 -1.8951  0.5571 -0.2550
  915MOL0     H23460   7.024   5.294   6.459  2.3803 -1.0573 -0.5251
  915MOL0     H23461   7.162   5.393   6.432 -0.3993 -2.2035 -1.9649
  915MOL0     H23462   7.011   5.559   6.531  0.5806  1.3824 -0.4739
  915MOL0     H23463   7.005   5.583   6.363 -0.4430 -1.7385 -0.3959
  915MOL0     H23464   6.803   5.451   6.337  0.4542  3.2471 -0.9227
  915MOL0     H23465   6.790   5.403   6.502  0.4367  0.4716 -0.4425
  915MOL0     H23466   6.744   5.629   6.578  0.2366  0.1928 -0.0409
  915MOL0     H23467   6.811   5.695   6.428  0.1196 -1.3214 -1.4704
  915MOL0     H23468   6.644   5.588   6.303 -0.6585 -0.7038  0.3033
  915MOL0     H23469   6.563   5.513   6.429 -0.9772  0.8512 -2.7717
  915MOL0     H23470   6.613   5.815   6.393 -0.9574  0.3065 -0.8384
  915MOL0     H23471   6.452   5.741   6.371 -0.4761  1.6793  0.8182
  915MOL0     H23472   6.479   5.683   6.631  0.0042 -0.2323 -1.7016
  915MOL0     H23473   6.601   5.810   6.628 -0.6952  0.9376  1.4121
  915MOL0     H23474   6.315   5.830   6.562 -0.7328 -2.2628  3.6304
  915MOL0     H23475   6.444   5.969   6.554 -1.2150 -1.0113 -2.3001
  915MOL0     H23476   6.386   5.695   6.834 -1.2341  0.0610  0.4020
  915MOL0     H23477   6.300   5.729   7.116 -0.1346  1.6855  2.1644
  915MOL0     H23478   6.227   5.880   7.147 -0.3790 -0.2653  0.3425
  915MOL0     H23479   6.037   5.845   7.011 -2.3280  0.0553  2.5749
  915MOL0     H23480   6.038   5.730   7.145 -3.8454 -1.4854 -1.7758
  915MOL0     H23481   6.146   5.556   6.970 -0.9346 -1.9247 -1.1322
  915MOL0     H23482   6.104   5.680   6.845 -1.7330  1.3176 -0.0483
  915MOL0     H23483   5.929   5.525   7.034 -0.6564 -0.7031  0.0481
  915MOL0     H23484   5.958   5.496   6.862 -0.4226 -0.1387 -0.7085
  915MOL0     H23485   5.743   5.409   6.864 -0.7441  0.3063 -1.3403
  915MOL0     H23486   5.526   5.260   6.761  1.6293  0.3289  0.2552
  915MOL0     H23487   5.575   5.250   6.936  2.7386  4.6925 -0.8255
  915MOL0     H23488   5.405   5.276   6.894 -1.7282  2.7657 -1.6568
  915MOL0     H23489   4.996   5.578   7.050 -1.9299  0.0994  1.2356
  915MOL0     H23490   4.770   5.615   7.006  0.6721 -1.2846  0.5561
  915MOL0     H23491   4.557   5.674   6.927 -0.4616  3.8538 -1.9036
  915MOL0     H23492   4.455   5.647   6.783 -0.0393  2.1997  1.5686
  915MOL0     H23493   4.555   5.434   6.737  1.3906  0.4380 -0.0803
  915MOL0     H23494   4.641   5.434   6.899 -2.0068 -2.8136  2.9459
  915MOL0     H23495   4.361   5.511   6.913  1.3359  0.8285 -2.9743
  915MOL0     H23496   4.452   5.404   7.016  2.9924  0.5756  0.6116
  915MOL0     H23497   4.316   5.342   6.745 -1.9701  1.8615  1.9655
  915MOL0     H23498   4.424   5.225   6.825 -0.0431 -0.0576  0.9238
  915MOL0     H23499   4.154   5.344   6.910 -0.0252 -0.2585  0.1854
  915MOL0     H23500   4.242   5.258   7.032 -3.0585  0.5575  0.6122
  915MOL0     H23501   4.168   5.170   6.751 -1.9504 -0.9922  0.0480
  915MOL0     H23502   4.240   5.057   6.869 -0.0244 -0.7112 -3.8125
  915MOL0     H23503   3.970   5.199   6.897  0.9093  0.0888 -0.5901
  915MOL0     H23504   4.055   5.102   7.032 -0.8329  0.5157 -0.0709
  915MOL0     H23505   4.060   4.914   6.871  0.1468 -0.7633 -3.6027
  915MOL0     H23506   3.979   5.013   6.757  3.2637 -1.7075 -0.7975
  915MOL0     H23507   4.854   5.710   6.590 -2.5146 -1.5907 -0.0143
  915MOL0     H23508   5.102   5.680   6.641 -0.4500 -3.9303 -1.5918
  915MOL0     H23509   5.390   5.750   6.902 -1.1205 -1.3490 -0.2325
  915MOL0     H23510   5.631   5.807   6.960  0.0748 -1.0272 -0.6487
  915MOL0     H23511   7.128   5.361   6.021 -0.1565  0.4132  0.2690
  915MOL0     H23512   7.270   5.185   5.916  1.4491  1.1784  0.8504
  915MOL0     H23513   7.721   5.048   5.832  0.1636 -1.4274 -0.6859
  915MOL0     H23514   7.919   4.891   5.817  0.2215  2.5583 -0.7988
  915MOL0     H23515   8.138   4.613   5.970 -0.4174 -1.2186 -2.7893
  915MOL0     H23516   8.101   4.731   5.839 -0.1774 -0.5912 -0.9250
  915MOL0     H23517   8.083   4.771   6.137 -2.2868 -0.1153 -0.4081
  915MOL0     H23518   8.048   4.900   6.016  1.8473  1.3752 -0.4781
  915MOL0     H23519   8.261   4.867   5.899 -2.4212  0.9981  0.2116
  915MOL0     H23520   8.306   4.740   6.028 -0.3752 -0.2916  2.5262
  915MOL0     H23521   8.294   4.928   6.188 -2.2494  0.1772 -0.6000
  915MOL0     H23522   8.288   5.037   6.066  1.6586  1.7696  2.5524
  915MOL0     H23523   8.710   4.939   6.053  0.5328  2.0814 -0.1311
  915MOL0     H23524   7.732   4.631   6.086 -2.3489  2.1687  4.7731
  915MOL0     H23525   7.560   4.790   6.134  2.0867 -1.4293  1.4633
  916MOL0     O23526   5.607   7.822   5.401 -0.3701  0.1197  0.0281
  916MOL0     C23527   5.566   7.888   5.494  1.2470 -0.4682 -0.2981
  916MOL0     O23528   5.582   8.019   5.512  0.2069 -0.4936 -0.9073
  916MOL0     C23529   5.677   8.084   5.434 -0.4541 -0.3399 -0.8042
  916MOL0     C23530   5.649   8.184   5.345 -0.6136  0.8099 -0.7043
  916MOL0     C23531   5.746   8.232   5.258 -0.9663  0.2996 -1.4614
  916MOL0     C23532   5.874   8.184   5.268  0.2411  1.4415  0.4470
  916MOL0     O23533   5.969   8.235   5.177 -0.3303  0.5065 -0.3726
  916MOL0     C23534   6.107   8.229   5.211 -1.1668 -0.4499 -0.3664
  916MOL0     C23535   6.189   8.324   5.124  0.0629  0.3117  0.5584
  916MOL0     C23536   6.159   8.470   5.154 -0.1347  0.9173  0.2019
  916MOL0     C23537   6.227   8.551   5.045 -0.0713  0.3695  0.0710
  916MOL0     C23538   6.186   8.696   5.041  0.1842  0.3710 -0.3154
  916MOL0     C23539   6.227   8.772   4.926 -1.3313  0.1306 -0.1898
  916MOL0     C23540   6.152   8.906   4.910  0.5948  0.1898  0.4772
  916MOL0     C23541   6.198   9.012   5.011  0.4905 -0.8461  0.3266
  916MOL0     N23542   6.335   9.072   4.999 -0.7365 -0.3787 -1.6099
  916MOL0     C23543   6.400   9.118   4.884 -0.4792 -0.8649 -0.9189
  916MOL0     C23544   6.521   9.171   4.935 -0.5007 -0.3043  0.1595
  916MOL0     C23545   6.638   9.225   4.857  0.0401 -0.5332 -0.3274
  916MOL0     C23546   6.703   9.128   4.771 -0.2550  0.1289  0.4441
  916MOL0     C23547   6.736   8.995   4.838 -0.7483 -0.0873  0.7917
  916MOL0     C23548   6.839   8.925   4.752 -0.1105 -0.8219 -0.2235
  916MOL0     O23549   6.979   8.978   4.752  0.5545  0.1965 -0.1350
  916MOL0     C23550   7.080   8.911   4.686  0.5611 -0.1496  0.1781
  916MOL0     C23551   7.050   8.795   4.598  0.4125 -0.4548  0.0202
  916MOL0     C23552   7.151   8.747   4.517  1.1280 -0.0498 -0.9960
  916MOL0     C23553   7.109   8.642   4.425  0.4426  0.2671  0.3834
  916MOL0     C23554   7.282   8.795   4.536 -0.3562  0.1294 -0.2985
  916MOL0     C23555   7.403   8.754   4.459  0.5080 -0.6060 -0.1051
  916MOL0     O23556   7.524   8.751   4.524 -0.4680 -0.1222  0.1940
  916MOL0     C23557   7.614   8.645   4.511  0.6351  0.3204  0.5877
  916MOL0     C23558   7.566   8.507   4.500 -0.1740 -0.3831  0.2170
  916MOL0     C23559   7.663   8.408   4.495  0.4061 -0.0245  0.3323
  916MOL0     C23560   7.801   8.434   4.498 -0.8284 -0.1613  0.1923
  916MOL0     O23561   7.878   8.314   4.507 -0.8573  0.3787 -0.3580
  916MOL0     C23562   8.013   8.319   4.530 -0.2859 -0.1131 -0.1055
  916MOL0     C23563   8.076   8.179   4.559 -0.1385 -0.2473 -0.6037
  916MOL0     C23564   8.081   8.093   4.430  0.2939 -0.7243  0.1681
  916MOL0     C23565   8.102   7.945   4.463  0.5907 -0.1570 -0.1923
  916MOL0     C23566   8.135   7.864   4.340 -0.2118 -1.0395  1.3371
  916MOL0     C23567   8.281   7.871   4.283 -0.5330  0.0572 -0.9465
  916MOL0     C23568   8.352   7.734   4.291  0.3197  0.4357 -0.9893
  916MOL0     C23569   8.363   7.691   4.437 -0.2181 -0.2049 -0.1886
  916MOL0    Cl23570   8.451   7.533   4.428  0.1833  0.1362  0.1043
  916MOL0     C23571   7.842   8.566   4.524 -0.1021  0.6396  0.2378
  916MOL0     C23572   7.751   8.664   4.527  0.0015 -0.1419 -0.3452
  916MOL0     O23573   7.378   8.705   4.348 -0.3262  0.1454  0.1927
  916MOL0     C23574   7.312   8.890   4.637 -0.5080  0.2295 -0.2731
  916MOL0     C23575   7.211   8.942   4.713  0.2026  0.1209  0.9511
  916MOL0     N23576   6.513   9.169   5.076  0.6168 -0.1665  0.2101
  916MOL0     N23577   6.400   9.112   5.116 -0.0004  0.2270  0.2032
  916MOL0     C23578   5.903   8.081   5.367 -0.8466 -1.0910  0.8585
  916MOL0     C23579   5.799   8.029   5.451  0.0487 -0.2119  0.0549
  916MOL0     C23580   5.469   7.825   5.588  0.8968 -1.0635 -0.5114
  916MOL0     C23581   5.422   7.893   5.704 -0.0442  0.3360  1.0207
  916MOL0     C23582   5.331   7.826   5.782  0.9801  0.0275 -0.3969
  916MOL0     C23583   5.284   7.697   5.760 -0.5415  0.5562 -0.3247
  916MOL0     O23584   5.197   7.625   5.841 -0.6889 -0.1606 -0.0850
  916MOL0     C23585   5.130   7.678   5.960  0.2205  0.1819  0.3062
  916MOL0     C23586   5.013   7.757   5.903 -0.0265  0.7488  0.0271
  916MOL0     C23587   4.916   7.811   6.020 -0.3852  0.5277  0.1987
  916MOL0     C23588   4.790   7.891   5.984 -0.0476 -0.4857 -0.3109
  916MOL0     C23589   4.700   7.804   5.908  0.4903  0.0634 -0.6385
  916MOL0     C23590   4.622   7.728   5.850 -0.0901 -0.2337  0.5189
  916MOL0     C23591   5.329   7.630   5.652  0.2950 -0.0443 -0.8221
  916MOL0     C23592   5.418   7.697   5.565  0.4231  1.2880 -0.0638
  916MOL0     H23593   5.549   8.227   5.337 -0.0069  2.2139 -0.9818
  916MOL0     H23594   5.724   8.299   5.175 -2.8503  1.1951 -0.2843
  916MOL0     H23595   6.120   8.257   5.316 -3.5890 -0.5225  0.0119
  916MOL0     H23596   6.150   8.133   5.179 -0.6776  0.5994 -3.1217
  916MOL0     H23597   6.296   8.299   5.132 -0.3288 -1.8582 -0.2384
  916MOL0     H23598   6.149   8.296   5.026 -1.3684  3.1121  0.2350
  916MOL0     H23599   6.053   8.493   5.169 -0.2904  0.3320  0.0246
  916MOL0     H23600   6.212   8.484   5.249 -0.7155 -1.5546  0.9742
  916MOL0     H23601   6.336   8.548   5.054 -0.1319  1.7197  1.7282
  916MOL0     H23602   6.204   8.510   4.946  1.3683  0.6292 -0.4031
  916MOL0     H23603   6.077   8.689   5.047  0.3424 -0.7759  2.1726
  916MOL0     H23604   6.235   8.738   5.129  0.3246 -1.9515  0.8058
  916MOL0     H23605   6.333   8.797   4.939 -0.3600 -0.8976 -4.4895
  916MOL0     H23606   6.219   8.723   4.828 -0.6522 -1.6508  0.5923
  916MOL0     H23607   6.164   8.940   4.806  0.2228 -1.6385 -0.2008
  916MOL0     H23608   6.047   8.882   4.923  0.5679  0.7520  1.3678
  916MOL0     H23609   6.177   8.972   5.111  0.6000  0.1073  0.7359
  916MOL0     H23610   6.145   9.108   5.005  0.0890 -1.1356 -1.4886
  916MOL0     H23611   6.366   9.112   4.781 -0.7928  0.4602 -0.9114
  916MOL0     H23612   6.608   9.306   4.790 -2.6687 -1.1223  0.0496
  916MOL0     H23613   6.716   9.263   4.924 -1.5072  0.9508  0.7113
  916MOL0     H23614   6.794   9.179   4.738  0.6167  0.2419  2.7718
  916MOL0     H23615   6.642   9.103   4.684  0.1118  0.2302  0.1544
  916MOL0     H23616   6.645   8.935   4.830  0.2673 -1.4297 -2.2346
  916MOL0     H23617   6.769   8.999   4.942  0.8075 -0.7568  0.3461
  916MOL0     H23618   6.791   8.924   4.653 -2.9191 -1.2794  1.0425
  916MOL0     H23619   6.840   8.818   4.774 -0.9345 -0.7649  0.1230
  916MOL0     H23620   6.951   8.759   4.573  1.2951  0.0031 -5.4999
  916MOL0     H23621   7.037   8.575   4.472 -0.1924  1.6627  1.4681
  916MOL0     H23622   7.064   8.667   4.328  5.7869 -1.5428 -3.0054
  916MOL0     H23623   7.195   8.584   4.391  0.6568  1.2574 -0.8880
  916MOL0     H23624   7.464   8.490   4.467 -0.4529  3.1856 -1.2438
  916MOL0     H23625   7.620   8.309   4.485 -2.6114  0.9449  2.2793
  916MOL0     H23626   8.044   8.359   4.433 -1.5751 -1.0898 -0.9450
  916MOL0     H23627   8.035   8.380   4.619 -0.6269 -3.9357  2.8632
  916MOL0     H23628   8.178   8.185   4.599 -0.3119 -1.8977  0.1865
  916MOL0     H23629   8.023   8.139   4.646  1.4752  0.4783  0.7931
  916MOL0     H23630   8.154   8.140   4.364  0.4879  1.3477  1.7460
  916MOL0     H23631   7.989   8.101   4.371  1.0821  3.3175 -0.8240
  916MOL0     H23632   8.176   7.935   4.543  1.3712  1.7118 -0.6227
  916MOL0     H23633   8.008   7.901   4.496  0.1363 -0.6974 -2.0983
  916MOL0     H23634   8.072   7.902   4.259  1.4733 -3.1028 -1.1162
  916MOL0     H23635   8.101   7.761   4.355 -3.5236 -0.9696 -3.1914
  916MOL0     H23636   8.273   7.914   4.182 -1.9929  0.7843 -0.5516
  916MOL0     H23637   8.339   7.931   4.354  0.9802 -2.9945  0.5747
  916MOL0     H23638   8.459   7.751   4.275  0.8674  1.2778  2.7510
  916MOL0     H23639   8.303   7.650   4.240 -2.0508  0.8072  0.5240
  916MOL0     H23640   8.266   7.671   4.483 -0.9278 -2.7919 -2.4966
  916MOL0     H23641   8.428   7.763   4.488 -1.1507  2.3745 -2.3963
  916MOL0     H23642   7.945   8.594   4.541 -0.2667  0.7127  1.1782
  916MOL0     H23643   7.781   8.767   4.544  0.3164  0.3597 -3.4556
  916MOL0     H23644   7.413   8.920   4.662 -1.0933  0.1902  2.4550
  916MOL0     H23645   7.229   9.015   4.791  0.4449  0.7010  0.3639
  916MOL0     H23646   6.005   8.045   5.377 -1.3032 -3.2327 -1.1788
  916MOL0     H23647   5.814   7.945   5.519  2.0066 -0.1469 -0.2180
  916MOL0     H23648   5.462   7.990   5.731  3.1775 -0.3178 -0.8536
  916MOL0     H23649   5.290   7.876   5.869 -1.2649 -1.4217 -0.5602
  916MOL0     H23650   5.098   7.596   6.024  0.1554 -0.3597 -0.4146
  916MOL0     H23651   5.197   7.743   6.017  1.0793  0.5190 -1.0340
  916MOL0     H23652   4.949   7.687   5.849 -0.7413  1.1348  0.3551
  916MOL0     H23653   5.049   7.843   5.845  2.2861 -1.5205 -2.1250
  916MOL0     H23654   4.967   7.878   6.090 -0.7210 -0.1372  1.0973
  916MOL0     H23655   4.885   7.731   6.088 -1.8943  0.1914 -0.8354
  916MOL0     H23656   4.815   7.986   5.935 -1.5679  0.6368  0.9720
  916MOL0     H23657   4.736   7.916   6.076 -1.6478  1.6446 -1.7252
  916MOL0     H23658   4.566   7.652   5.798 -1.5181  0.7106  0.6202
  916MOL0     H23659   5.299   7.526   5.650  0.8211 -0.4095  3.2273
  916MOL0     H23660   5.457   7.646   5.477 -1.2274  1.9638 -1.2421
  917MOL0     O23661   5.088   5.997   0.863  0.0337  0.1256 -0.6733
  917MOL0     C23662   5.095   6.056   0.761  0.2498 -0.4046  0.1282
  917MOL0     O23663   4.986   6.098   0.681  0.2440  0.5012 -0.4639
  917MOL0     C23664   4.870   6.036   0.716 -0.2392  0.2319 -0.6132
  917MOL0     C23665   4.840   5.908   0.673  0.4817 -0.4129  0.2409
  917MOL0     C23666   4.714   5.851   0.684 -0.3038  0.4815 -0.7994
  917MOL0     C23667   4.617   5.926   0.757  1.1977 -0.0293  0.4032
  917MOL0     O23668   4.488   5.880   0.793  0.7445  0.1633  0.7886
  917MOL0     C23669   4.436   5.774   0.716  0.2590 -0.5049 -0.4721
  917MOL0     C23670   4.284   5.785   0.688  0.8193  0.5783 -0.2381
  917MOL0     C23671   4.187   5.775   0.806  0.2068  0.1367  0.8787
  917MOL0     C23672   4.165   5.630   0.846  0.6107 -0.5107 -0.4907
  917MOL0     C23673   4.014   5.612   0.894  0.8686  0.5065  0.1079
  917MOL0     C23674   3.922   5.595   0.773  0.0295  0.6916  0.8676
  917MOL0     C23675   3.774   5.592   0.812  0.0383 -0.1311 -0.8513
  917MOL0     C23676   3.731   5.487   0.913  0.4474  0.2960  0.3519
  917MOL0     N23677   3.589   5.470   0.925  0.3317  0.2567  0.1558
  917MOL0     C23678   3.511   5.366   0.893 -0.7823  0.7862 -0.2959
  917MOL0     C23679   3.385   5.403   0.906 -0.0082  0.0050  0.6537
  917MOL0     C23680   3.256   5.323   0.889 -0.3948  0.0726 -0.6012
  917MOL0     C23681   3.144   5.385   0.974  0.1788 -0.3386  0.4486
  917MOL0     C23682   3.017   5.313   0.931  0.5704 -0.9084  0.3352
  917MOL0     C23683   2.892   5.385   0.958  0.3927 -0.3135 -0.1713
  917MOL0     O23684   2.786   5.292   0.934  0.6254 -0.5997  0.3570
  917MOL0     C23685   2.653   5.329   0.966 -0.0277 -0.3871  0.4393
  917MOL0     C23686   2.618   5.454   1.025 -0.4129  0.8313 -0.7039
  917MOL0     C23687   2.483   5.482   1.042  0.4495  0.1134  0.0966
  917MOL0     C23688   2.433   5.610   1.104 -0.0431  0.5057  0.0851
  917MOL0     C23689   2.382   5.389   1.003  0.2983  0.8941  0.6194
  917MOL0     C23690   2.234   5.416   1.016 -0.3876 -0.0054 -1.0314
  917MOL0     O23691   2.170   5.435   0.900 -0.4767  0.1867 -0.1487
  917MOL0     C23692   2.038   5.463   0.897  0.6466 -0.5064  0.9466
  917MOL0     C23693   1.999   5.590   0.912  0.1252 -0.5489 -0.3559
  917MOL0     C23694   1.863   5.624   0.901 -0.0809  0.4017  0.2732
  917MOL0     C23695   1.765   5.531   0.879 -0.1802 -0.5589  0.8545
  917MOL0     O23696   1.633   5.568   0.863 -0.0125 -0.1387 -0.2937
  917MOL0     C23697   1.535   5.469   0.865  0.5064 -0.4883 -0.4580
  917MOL0     C23698   1.396   5.529   0.844  0.3370  0.7163  0.2410
  917MOL0     C23699   1.382   5.580   0.700  1.3934 -0.2692  0.7836
  917MOL0     C23700   1.241   5.655   0.677  0.2708 -0.2640 -0.0577
  917MOL0     C23701   1.261   5.731   0.546 -0.5642 -0.7875  0.1876
  917MOL0     C23702   1.134   5.807   0.489  0.5102 -0.3719 -0.4696
  917MOL0     C23703   1.149   5.893   0.367 -0.0658 -0.2260  0.2610
  917MOL0     C23704   1.201   5.817   0.231  0.5460  0.2338  1.2138
  917MOL0    Cl23705   1.377   5.827   0.207  0.0529 -0.7490 -0.0637
  917MOL0     C23706   1.805   5.398   0.867 -0.7858 -0.1034  0.2872
  917MOL0     C23707   1.944   5.362   0.886 -0.1141  0.5266 -0.0736
  917MOL0     O23708   2.186   5.422   1.131  0.5665  0.0298 -0.2439
  917MOL0     C23709   2.422   5.271   0.948 -0.2421 -0.5669  0.4602
  917MOL0     C23710   2.553   5.234   0.935 -0.0881 -0.5259  0.0158
  917MOL0     N23711   3.387   5.539   0.943 -0.9106  0.7179 -0.0299
  917MOL0     N23712   3.514   5.579   0.956  0.9412 -0.8184 -0.1975
  917MOL0     C23713   4.646   6.054   0.809 -0.0286 -0.1080  0.0318
  917MOL0     C23714   4.770   6.107   0.780 -0.5475  0.0660  0.6012
  917MOL0     C23715   5.224   6.112   0.716 -0.7017  0.0516 -0.8291
  917MOL0     C23716   5.231   6.210   0.620  0.6560 -0.2551  0.1411
  917MOL0     C23717   5.352   6.282   0.577  0.2379  0.5919  0.1152
  917MOL0     C23718   5.482   6.236   0.616  0.7513  0.9234 -0.0044
  917MOL0     O23719   5.608   6.281   0.576  0.3878  0.7547  0.1318
  917MOL0     C23720   5.616   6.408   0.503  0.2176  0.2687 -0.5613
  917MOL0     C23721   5.756   6.429   0.443  0.0729 -1.0354  0.5057
  917MOL0     C23722   5.870   6.405   0.542 -0.1260  0.3562 -0.0704
  917MOL0     C23723   6.005   6.418   0.463 -0.0515 -0.1335  0.8234
  917MOL0     C23724   6.116   6.397   0.552 -0.4202  0.2663  0.4019
  917MOL0     C23725   6.201   6.362   0.633 -0.6697  0.1445  0.0167
  917MOL0     C23726   5.477   6.125   0.698 -0.6193  0.4037  0.0169
  917MOL0     C23727   5.354   6.068   0.754  0.9524 -0.7831 -0.0687
  917MOL0     H23728   4.912   5.844   0.623  0.1262  0.1085 -0.9772
  917MOL0     H23729   4.698   5.749   0.649 -3.2294 -0.1649  1.9345
  917MOL0     H23730   4.488   5.767   0.620  3.2128 -0.4097  1.0311
  917MOL0     H23731   4.449   5.676   0.761  2.7231  0.1323  0.3523
  917MOL0     H23732   4.275   5.886   0.646  2.2175 -0.0132 -2.0666
  917MOL0     H23733   4.256   5.709   0.615  1.6601 -0.0278  0.0589
  917MOL0     H23734   4.217   5.843   0.886 -1.2221  0.9611  0.7503
  917MOL0     H23735   4.095   5.814   0.760  1.8600  0.4324 -2.4683
  917MOL0     H23736   4.178   5.567   0.758 -0.7275 -0.6006 -0.6487
  917MOL0     H23737   4.230   5.611   0.932 -0.3906 -1.1667  0.1364
  917MOL0     H23738   4.012   5.522   0.956 -0.1262  0.2308 -0.3131
  917MOL0     H23739   3.982   5.698   0.954  0.0234 -1.3216  2.4246
  917MOL0     H23740   3.946   5.676   0.704 -0.1330  0.6361  0.7486
  917MOL0     H23741   3.948   5.500   0.724 -2.3565 -0.1277  1.0888
  917MOL0     H23742   3.734   5.685   0.854 -1.8857 -1.3945  0.2719
  917MOL0     H23743   3.721   5.561   0.722 -0.3983 -2.4785  0.1372
  917MOL0     H23744   3.766   5.510   1.014  1.4736  0.2824  0.0041
  917MOL0     H23745   3.782   5.394   0.887  1.0599  0.7310 -0.0214
  917MOL0     H23746   3.541   5.268   0.858 -2.8134 -1.0959  2.7569
  917MOL0     H23747   3.234   5.328   0.782 -1.3621  0.0923 -0.4088
  917MOL0     H23748   3.267   5.220   0.925  1.3359  0.3400 -0.2681
  917MOL0     H23749   3.139   5.488   0.938 -0.0497 -1.5114 -3.2167
  917MOL0     H23750   3.166   5.376   1.081  2.2571  0.2939  0.1198
  917MOL0     H23751   3.021   5.213   0.976  1.0537 -0.7536  0.6507
  917MOL0     H23752   3.021   5.303   0.823  2.1257  1.6940  0.0580
  917MOL0     H23753   2.891   5.485   0.914  2.7996  0.0112  0.3524
  917MOL0     H23754   2.895   5.395   1.067  2.2655 -3.4519  0.1962
  917MOL0     H23755   2.686   5.533   1.056 -2.1518  1.7244  1.0794
  917MOL0     H23756   2.508   5.649   1.174  2.0278 -0.8483 -1.2677
  917MOL0     H23757   2.398   5.684   1.031 -4.6191 -0.1809  1.2702
  917MOL0     H23758   2.349   5.592   1.172  1.3809  0.3315  1.8841
  917MOL0     H23759   2.077   5.662   0.932 -0.3060 -0.2851  0.4168
  917MOL0     H23760   1.832   5.726   0.921 -0.1640 -0.0726  2.9389
  917MOL0     H23761   1.556   5.402   0.780  2.3079  0.1384 -0.5610
  917MOL0     H23762   1.535   5.412   0.959 -1.6434 -1.3071 -0.9047
  917MOL0     H23763   1.319   5.455   0.870 -0.2758  2.5784  4.4355
  917MOL0     H23764   1.382   5.613   0.912 -2.1789  0.6363 -0.0761
  917MOL0     H23765   1.380   5.503   0.623  2.7332 -0.0415  0.4889
  917MOL0     H23766   1.469   5.645   0.683 -0.4627  1.9867 -0.8384
  917MOL0     H23767   1.162   5.581   0.668  0.3299 -0.4425  0.8586
  917MOL0     H23768   1.211   5.709   0.767 -0.5545  0.1694 -0.5733
  917MOL0     H23769   1.295   5.661   0.469  1.0087 -0.7757  0.8371
  917MOL0     H23770   1.342   5.802   0.562  2.0613 -2.7087 -3.1645
  917MOL0     H23771   1.055   5.732   0.488  0.6910 -0.6480  1.3270
  917MOL0     H23772   1.098   5.870   0.571 -0.3284 -2.5421  0.9166
  917MOL0     H23773   1.222   5.971   0.390 -2.4136  1.7025  1.5981
  917MOL0     H23774   1.056   5.947   0.348 -0.8518 -1.5527  0.2298
  917MOL0     H23775   1.168   5.874   0.143 -0.0377  1.5692  2.2483
  917MOL0     H23776   1.174   5.712   0.219 -0.6988  0.8201 -5.2644
  917MOL0     H23777   1.724   5.328   0.847 -2.6920  2.4557 -1.5772
  917MOL0     H23778   1.976   5.262   0.862 -0.7043  0.5217 -0.8703
  917MOL0     H23779   2.339   5.201   0.944 -0.2557 -0.5283 -0.0080
  917MOL0     H23780   2.581   5.138   0.895  0.9702 -0.1806 -0.0939
  917MOL0     H23781   4.569   6.117   0.853  0.8952  2.4218 -1.7374
  917MOL0     H23782   4.788   6.209   0.812 -1.1411  0.6372 -0.7772
  917MOL0     H23783   5.136   6.251   0.589  1.4847  1.0882 -0.7038
  917MOL0     H23784   5.348   6.360   0.502  0.8514 -1.7835 -2.5187
  917MOL0     H23785   5.545   6.412   0.420  1.1376  0.4728 -1.3668
  917MOL0     H23786   5.592   6.491   0.569  1.1152  1.5292 -1.7489
  917MOL0     H23787   5.771   6.529   0.401 -0.5716 -1.5447 -1.0192
  917MOL0     H23788   5.758   6.363   0.355  0.4006 -0.1295 -0.1835
  917MOL0     H23789   5.861   6.303   0.582 -3.3455 -0.7587 -3.0727
  917MOL0     H23790   5.866   6.481   0.621 -1.5056 -0.6134  0.8472
  917MOL0     H23791   6.008   6.523   0.433 -0.1733 -0.9192 -2.3308
  917MOL0     H23792   6.017   6.353   0.376  0.8620  0.1572  0.7258
  917MOL0     H23793   6.264   6.327   0.712  1.0268 -0.0504 -1.3496
  917MOL0     H23794   5.572   6.083   0.729 -0.3125  0.5205 -0.7401
  917MOL0     H23795   5.366   5.986   0.825  4.7077 -0.1937  0.2128
  918MOL0     O23796   1.566   6.234   7.856 -0.0563 -0.5574  0.5772
  918MOL0     C23797   1.495   6.205   7.758 -0.5773  0.5238  0.3788
  918MOL0     O23798   1.433   6.078   7.736 -0.3119 -0.2058 -0.1337
  918MOL0     C23799   1.418   5.991   7.835 -0.4265 -0.1493  0.4997
  918MOL0     C23800   1.419   6.022   7.975  0.3005 -0.0053  0.0357
  918MOL0     C23801   1.410   5.917   8.069  0.2351  0.1327 -0.5964
  918MOL0     C23802   1.411   5.787   8.022  0.9876  0.2697 -0.1003
  918MOL0     O23803   1.415   5.687   8.110 -0.4432 -0.0127  0.1150
  918MOL0     C23804   1.513   5.585   8.080 -0.4182  0.4986  1.0709
  918MOL0     C23805   1.503   5.499   8.201 -0.1523  0.4606 -0.4891
  918MOL0     C23806   1.359   5.465   8.251  0.6734 -0.6692 -0.1813
  918MOL0     C23807   1.358   5.428   8.397  0.2443 -0.4783 -0.3181
  918MOL0     C23808   1.219   5.432   8.467  0.1478 -0.5224  0.4125
  918MOL0     C23809   1.167   5.571   8.498 -0.9525 -0.0558 -0.2018
  918MOL0     C23810   1.030   5.561   8.536  0.0420 -0.0214  0.8317
  918MOL0     C23811   0.961   5.687   8.576 -0.2094 -0.1291  0.4731
  918MOL0     N23812   0.953   5.786   8.471  0.8067  0.1195 -0.0582
  918MOL0     C23813   1.046   5.881   8.429 -0.0408  0.8750  0.0036
  918MOL0     C23814   1.001   5.944   8.323 -0.7441  0.7756 -0.1959
  918MOL0     C23815   1.093   6.030   8.238  1.0506  0.0372  0.1872
  918MOL0     C23816   1.011   6.087   8.123  0.7826 -0.5839  0.0393
  918MOL0     C23817   1.105   6.169   8.041  0.0743 -0.8326  0.8070
  918MOL0     C23818   1.022   6.249   7.930 -0.5026 -0.1514 -0.5263
  918MOL0     O23819   0.915   6.312   7.996  0.3679  0.0598  0.3832
  918MOL0     C23820   0.807   6.335   7.916  0.2163 -1.1715 -0.3831
  918MOL0     C23821   0.689   6.274   7.948  0.6107  0.1768 -0.4570
  918MOL0     C23822   0.563   6.303   7.893 -0.4387  0.1524  0.2217
  918MOL0     C23823   0.445   6.231   7.955 -0.6321  0.7350  0.2218
  918MOL0     C23824   0.558   6.397   7.787  0.4983 -0.3941 -0.0676
  918MOL0     C23825   0.430   6.432   7.714  0.4618 -0.5753 -0.9705
  918MOL0     O23826   0.340   6.326   7.698  0.7148 -0.3823 -0.4267
  918MOL0     C23827   0.215   6.355   7.649  0.1365  0.4838 -0.7076
  918MOL0     C23828   0.191   6.389   7.512 -0.2685  0.2279  0.3507
  918MOL0     C23829   0.067   6.407   7.466  0.4816  0.3558  0.4614
  918MOL0     C23830  -0.050   6.398   7.544 -0.3478 -1.0941 -0.0297
  918MOL0     O23831  -0.177   6.421   7.493 -0.1770  0.2358  0.3848
  918MOL0     C23832  -0.186   6.497   7.374  0.4856 -0.4545  0.3550
  918MOL0     C23833  -0.336   6.531   7.348 -0.3850  0.0899  0.2211
  918MOL0     C23834  -0.413   6.404   7.295 -0.1586 -0.6609  0.0507
  918MOL0     C23835  -0.559   6.437   7.265  0.7311 -0.2641 -0.1562
  918MOL0     C23836  -0.638   6.482   7.387  0.4993 -0.5856 -0.4289
  918MOL0     C23837  -0.790   6.503   7.359  0.5963  0.1511 -1.0399
  918MOL0     C23838  -0.847   6.550   7.497 -0.1796  0.0282  0.6528
  918MOL0     C23839  -0.993   6.571   7.476  0.0016 -1.0137 -0.3040
  918MOL0    Cl23840  -1.096   6.428   7.460  0.0855 -0.1953 -0.0812
  918MOL0     C23841  -0.027   6.370   7.678 -0.0796 -0.5671  0.3491
  918MOL0     C23842   0.104   6.363   7.733  0.0534 -0.3500 -0.6073
  918MOL0     O23843   0.407   6.551   7.689 -0.1569  0.3966 -0.7098
  918MOL0     C23844   0.681   6.459   7.748  0.3864  0.4295  0.7679
  918MOL0     C23845   0.808   6.424   7.805  0.3690  0.8832  0.3304
  918MOL0     N23846   0.876   5.886   8.290 -0.6516 -0.6985  0.0921
  918MOL0     N23847   0.846   5.797   8.379 -0.0145  0.5368 -0.0694
  918MOL0     C23848   1.411   5.754   7.879 -0.8047  0.6099 -0.1360
  918MOL0     C23849   1.417   5.859   7.787  0.4933 -0.9612  0.3517
  918MOL0     C23850   1.483   6.310   7.653 -0.0418  0.4369 -0.4932
  918MOL0     C23851   1.459   6.273   7.525 -0.3417  0.3034 -0.5476
  918MOL0     C23852   1.445   6.369   7.423 -0.1260  0.0983 -1.0329
  918MOL0     C23853   1.456   6.503   7.448  0.6080 -0.2385 -0.2162
  918MOL0     O23854   1.433   6.608   7.362 -0.2507  0.5404  0.3693
  918MOL0     C23855   1.491   6.592   7.223  0.7781 -0.0516 -0.4307
  918MOL0     C23856   1.638   6.579   7.225  0.0282  0.1274  0.7983
  918MOL0     C23857   1.699   6.720   7.228 -0.5957 -0.6990  0.5194
  918MOL0     C23858   1.852   6.729   7.254  0.1859  0.5163  0.2809
  918MOL0     C23859   1.932   6.646   7.162  0.2574  0.7181  0.2223
  918MOL0     C23860   1.989   6.582   7.079  0.0838 -0.5491  1.1191
  918MOL0     C23861   1.477   6.547   7.582  0.1761  0.1944 -0.5894
  918MOL0     C23862   1.481   6.452   7.687  0.5588  0.8376  0.0711
  918MOL0     H23863   1.422   6.123   8.013 -0.4046  0.5031 -1.2292
  918MOL0     H23864   1.423   5.955   8.170  1.5627  3.5623 -1.8971
  918MOL0     H23865   1.483   5.531   7.989  0.7592  0.4796  0.6755
  918MOL0     H23866   1.618   5.615   8.068 -0.2062 -0.0002  1.6773
  918MOL0     H23867   1.563   5.411   8.178 -0.5917  0.3209 -1.1264
  918MOL0     H23868   1.548   5.554   8.285  0.1773  1.6611 -1.4225
  918MOL0     H23869   1.284   5.544   8.247  1.6812  0.3989  0.9184
  918MOL0     H23870   1.310   5.390   8.188 -3.2828  0.4450  1.2956
  918MOL0     H23871   1.404   5.329   8.408  4.7989  1.1422 -1.9910
  918MOL0     H23872   1.423   5.484   8.465  2.5466 -2.0703 -1.0880
  918MOL0     H23873   1.144   5.372   8.413  0.1207 -0.8007  0.7588
  918MOL0     H23874   1.230   5.394   8.569 -2.6642  2.8589  2.1844
  918MOL0     H23875   1.231   5.610   8.577 -2.5088 -0.1433  1.1392
  918MOL0     H23876   1.173   5.632   8.407 -2.3857  2.2278  1.1587
  918MOL0     H23877   0.990   5.506   8.450  0.2746 -1.8433  1.8330
  918MOL0     H23878   1.025   5.493   8.621 -1.3147 -1.6201 -0.4472
  918MOL0     H23879   1.018   5.734   8.656 -0.7845  0.4169  0.5748
  918MOL0     H23880   0.859   5.663   8.607 -0.3257  1.3025  1.2821
  918MOL0     H23881   1.143   5.885   8.478 -0.0817 -2.2289  0.5034
  918MOL0     H23882   1.134   6.112   8.298 -2.1492  3.4359 -1.7616
  918MOL0     H23883   1.174   5.972   8.195 -0.9847 -1.7781 -1.4639
  918MOL0     H23884   0.941   6.159   8.167  1.0352 -0.5010  0.3120
  918MOL0     H23885   0.949   6.009   8.078  2.2086 -3.5936  2.8874
  918MOL0     H23886   1.176   6.107   7.987 -1.0367 -1.3910 -0.0621
  918MOL0     H23887   1.157   6.245   8.100  0.7319 -1.4578  1.0479
  918MOL0     H23888   0.986   6.188   7.846 -0.7157 -0.7023 -0.0433
  918MOL0     H23889   1.090   6.314   7.875  1.3070 -1.0400  0.5715
  918MOL0     H23890   0.693   6.212   8.037  0.4118  0.5728 -0.1677
  918MOL0     H23891   0.467   6.237   8.062  2.3561 -0.1761 -0.2488
  918MOL0     H23892   0.349   6.282   7.946 -1.2690 -0.1343  1.6814
  918MOL0     H23893   0.439   6.135   7.902 -2.9581  1.9030 -1.8337
  918MOL0     H23894   0.264   6.376   7.432  0.0005  0.5607  0.5429
  918MOL0     H23895   0.052   6.423   7.360 -1.5540  0.7092  0.7547
  918MOL0     H23896  -0.130   6.590   7.379 -0.0309 -0.0969 -0.2870
  918MOL0     H23897  -0.143   6.442   7.290  0.0900  0.7815 -0.7019
  918MOL0     H23898  -0.369   6.580   7.440 -0.3445  3.1191 -1.2557
  918MOL0     H23899  -0.343   6.612   7.275 -3.4606  0.7410  1.0719
  918MOL0     H23900  -0.414   6.333   7.379  0.0942 -0.3262  0.3353
  918MOL0     H23901  -0.360   6.354   7.213 -0.5839 -1.6778  0.3692
  918MOL0     H23902  -0.574   6.514   7.189  2.0146  4.0117  3.4657
  918MOL0     H23903  -0.590   6.337   7.233  1.6658 -0.9310  0.9264
  918MOL0     H23904  -0.609   6.586   7.406  1.1396 -0.9600  0.7406
  918MOL0     H23905  -0.622   6.415   7.472  0.6680  1.9099  1.6268
  918MOL0     H23906  -0.803   6.577   7.279  1.0899 -0.1512 -1.4103
  918MOL0     H23907  -0.841   6.408   7.345  2.3588 -1.1018  0.4669
  918MOL0     H23908  -0.805   6.650   7.513 -2.2453  1.0190  0.2174
  918MOL0     H23909  -0.819   6.483   7.579  1.2924 -0.0969  0.0948
  918MOL0     H23910  -1.000   6.638   7.390  0.8500  1.2938  1.3408
  918MOL0     H23911  -1.035   6.617   7.566 -0.0660 -1.9517  0.1649
  918MOL0     H23912  -0.109   6.362   7.750 -1.5080  1.3828 -0.9451
  918MOL0     H23913   0.117   6.343   7.839 -0.7952 -2.9997 -0.9196
  918MOL0     H23914   0.682   6.540   7.675  0.9465  1.6754  2.1095
  918MOL0     H23915   0.908   6.453   7.774  1.9312 -2.0787  2.0910
  918MOL0     H23916   1.409   5.649   7.852 -1.0002 -0.2499  2.8790
  918MOL0     H23917   1.410   5.836   7.681  0.5601 -0.7636  0.3050
  918MOL0     H23918   1.449   6.167   7.503  0.0625  0.7531 -3.1577
  918MOL0     H23919   1.416   6.335   7.324 -0.1074  0.5002 -1.1808
  918MOL0     H23920   1.443   6.506   7.176  1.4478  1.5931 -4.5252
  918MOL0     H23921   1.469   6.672   7.152  0.5951  1.5023  1.2875
  918MOL0     H23922   1.685   6.538   7.134 -1.0154 -1.7919  1.0654
  918MOL0     H23923   1.665   6.516   7.310  1.2994 -1.2519 -0.5470
  918MOL0     H23924   1.652   6.780   7.306  1.2167  1.2274  0.2320
  918MOL0     H23925   1.686   6.781   7.138 -2.5879  1.6422  2.2631
  918MOL0     H23926   1.875   6.698   7.356  1.9766 -3.2462 -1.0956
  918MOL0     H23927   1.892   6.828   7.229  2.8202 -0.3201  0.8668
  918MOL0     H23928   2.042   6.516   7.014  0.6900  0.6923  0.3044
  918MOL0     H23929   1.486   6.654   7.596 -3.0181  0.3843  0.8630
  918MOL0     H23930   1.501   6.471   7.792  3.6321 -1.9191  0.1598
  919MOL0     O23931   9.638   5.124   2.311  0.3393 -0.1855  0.3227
  919MOL0     C23932   9.725   5.113   2.219 -0.0216 -0.4651 -0.4807
  919MOL0     O23933   9.692   5.122   2.082 -0.8982  1.1728 -1.0438
  919MOL0     C23934   9.559   5.125   2.047  0.4670  0.0299  0.4277
  919MOL0     C23935   9.518   5.036   1.948 -0.1274 -0.0581  0.0793
  919MOL0     C23936   9.390   5.058   1.884  0.3196  0.3295 -0.0199
  919MOL0     C23937   9.311   5.163   1.925  0.1144 -0.2199  0.2767
  919MOL0     O23938   9.180   5.184   1.897 -0.2195  0.0335  0.3817
  919MOL0     C23939   9.096   5.069   1.929 -0.3967  0.2605  0.2749
  919MOL0     C23940   8.951   5.109   1.928  0.6281 -0.2571 -0.3480
  919MOL0     C23941   8.904   5.156   1.798  0.4671 -0.5676  0.1432
  919MOL0     C23942   8.748   5.182   1.784  0.8350 -0.1293 -0.7499
  919MOL0     C23943   8.711   5.264   1.655 -0.2981  0.5799 -0.3810
  919MOL0     C23944   8.567   5.303   1.639  0.7400  1.1540 -0.3702
  919MOL0     C23945   8.487   5.178   1.601 -0.1276 -0.6036 -0.9408
  919MOL0     C23946   8.336   5.206   1.586  0.2339 -0.9611  0.5287
  919MOL0     N23947   8.262   5.089   1.545  1.1584 -0.4280  0.1115
  919MOL0     C23948   8.128   5.077   1.534 -0.7816  0.3172 -0.8166
  919MOL0     C23949   8.104   4.949   1.492  0.0526 -0.3053 -0.3415
  919MOL0     C23950   7.963   4.881   1.466 -0.2340 -0.5481 -1.0236
  919MOL0     C23951   7.855   4.979   1.438 -0.1540  0.4222  0.3017
  919MOL0     C23952   7.854   5.039   1.300  0.0628 -0.5093  0.4559
  919MOL0     C23953   7.747   5.139   1.271  0.4275  0.0804  0.6689
  919MOL0     O23954   7.625   5.066   1.263 -0.1160  0.4742 -0.0964
  919MOL0     C23955   7.515   5.129   1.219  0.1592  0.4179 -0.2608
  919MOL0     C23956   7.497   5.254   1.158 -0.5305 -0.7541  0.7292
  919MOL0     C23957   7.371   5.315   1.141  0.6932 -0.0488  0.3052
  919MOL0     C23958   7.367   5.453   1.080 -0.3054  0.1490  0.2025
  919MOL0     C23959   7.258   5.239   1.178 -0.0106 -0.5103 -0.3890
  919MOL0     C23960   7.117   5.289   1.163 -0.3085 -0.6346 -0.7499
  919MOL0     O23961   7.012   5.195   1.177  0.7590 -0.1025  0.0331
  919MOL0     C23962   6.886   5.241   1.157 -0.8767  0.5101  1.0499
  919MOL0     C23963   6.799   5.255   1.263  0.5885  0.1916  0.3228
  919MOL0     C23964   6.675   5.310   1.245  0.6209 -0.3432  0.5450
  919MOL0     C23965   6.624   5.340   1.120  0.2691 -0.7813  0.3742
  919MOL0     O23966   6.496   5.391   1.101 -0.3837  0.1188  0.7010
  919MOL0     C23967   6.407   5.387   1.206 -0.5980 -0.4220  1.0593
  919MOL0     C23968   6.267   5.445   1.158  0.1607  0.8697 -0.2621
  919MOL0     C23969   6.208   5.363   1.044 -0.7757 -0.5037 -0.3636
  919MOL0     C23970   6.131   5.230   1.095  0.4289 -0.2141  0.3918
  919MOL0     C23971   6.002   5.203   1.019 -0.3366  0.5720 -0.2785
  919MOL0     C23972   5.913   5.086   1.085 -0.0061  0.6831  0.4903
  919MOL0     C23973   5.984   4.947   1.062  1.0090 -0.3547  0.2806
  919MOL0     C23974   5.891   4.824   1.070  0.7005 -0.3480 -0.0101
  919MOL0    Cl23975   5.813   4.818   1.216  0.4096  0.3168 -0.1361
  919MOL0     C23976   6.705   5.315   1.010  0.5242 -0.7977  0.6292
  919MOL0     C23977   6.832   5.267   1.029 -0.1621  0.7156  0.9967
  919MOL0     O23978   7.101   5.410   1.159  0.0227  0.5447 -0.0362
  919MOL0     C23979   7.277   5.112   1.229  0.1361  0.1844 -0.1462
  919MOL0     C23980   7.405   5.056   1.244 -0.4196  0.2022  0.1843
  919MOL0     N23981   8.225   4.888   1.470  0.1854 -0.0354 -0.3478
  919MOL0     N23982   8.317   4.973   1.501 -0.0402  0.2321 -0.1270
  919MOL0     C23983   9.356   5.247   2.021  0.0320  0.2652 -0.3697
  919MOL0     C23984   9.474   5.226   2.084  0.2520  0.2063  0.7237
  919MOL0     C23985   9.872   5.111   2.258 -0.5133  1.0121  0.5579
  919MOL0     C23986   9.925   5.074   2.381 -0.8925  0.4278 -0.2242
  919MOL0     C23987  10.066   5.080   2.406  0.0579 -0.3489  0.4660
  919MOL0     C23988  10.154   5.129   2.314 -0.1938  0.6493 -0.1401
  919MOL0     O23989  10.279   5.119   2.354  0.1058 -0.8928  0.4363
  919MOL0     C23990  10.375   5.145   2.261 -0.4967 -0.4641  0.1308
  919MOL0     C23991  10.437   5.021   2.190 -0.0383 -0.0048 -0.5780
  919MOL0     C23992  10.467   4.898   2.289 -0.0779 -0.6913 -0.2741
  919MOL0     C23993  10.564   4.927   2.406 -0.0334  0.1220  1.0400
  919MOL0     C23994  10.701   4.955   2.363  0.0429  0.2139  0.3474
  919MOL0     C23995  10.800   4.994   2.310  0.0901  0.3652  0.2046
  919MOL0     C23996  10.104   5.150   2.182  0.5320  0.3221 -0.1011
  919MOL0     C23997   9.969   5.139   2.153 -0.3353  0.2056 -0.1736
  919MOL0     H23998   9.589   4.956   1.932 -0.5431 -0.9622  2.4099
  919MOL0     H23999   9.356   4.992   1.805  2.8825 -1.4887  0.2309
  919MOL0     H24000   9.098   4.988   1.854 -5.2412  1.9297 -2.0789
  919MOL0     H24001   9.126   5.029   2.026 -1.1828 -4.5350 -1.1630
  919MOL0     H24002   8.894   5.024   1.966  1.4260 -2.2286 -3.2663
  919MOL0     H24003   8.945   5.182   2.010 -0.0127 -0.3953 -0.2666
  919MOL0     H24004   8.953   5.249   1.768 -0.1667  0.2778  1.5686
  919MOL0     H24005   8.942   5.085   1.725  0.7523 -0.6172  0.3390
  919MOL0     H24006   8.699   5.086   1.763  0.3744  0.3140 -1.7575
  919MOL0     H24007   8.714   5.241   1.869  3.1458 -1.0102  0.9021
  919MOL0     H24008   8.771   5.355   1.661  0.2810  0.2046 -0.4776
  919MOL0     H24009   8.742   5.202   1.570 -0.7506  1.7156 -1.4006
  919MOL0     H24010   8.534   5.357   1.728 -1.3545  0.5895 -0.7414
  919MOL0     H24011   8.561   5.376   1.557 -3.3163  0.7870 -0.6380
  919MOL0     H24012   8.522   5.145   1.502 -1.5132 -0.9165 -1.3537
  919MOL0     H24013   8.499   5.093   1.668 -0.5230  1.8475  2.4675
  919MOL0     H24014   8.325   5.282   1.509  1.3966  0.7871  1.9864
  919MOL0     H24015   8.300   5.247   1.681  2.2793 -0.1764  1.0355
  919MOL0     H24016   8.047   5.145   1.557 -1.0765 -0.9467  2.3135
  919MOL0     H24017   7.972   4.819   1.376  0.4147  1.7532 -2.6490
  919MOL0     H24018   7.946   4.825   1.558 -0.8992 -1.2094 -1.5501
  919MOL0     H24019   7.862   5.061   1.509  2.4359  1.7770 -1.3447
  919MOL0     H24020   7.762   4.928   1.465  0.3551  0.4397  2.1903
  919MOL0     H24021   7.857   4.965   1.219 -1.0666  1.9365 -2.0132
  919MOL0     H24022   7.946   5.097   1.290 -0.4942  0.8039  2.4002
  919MOL0     H24023   7.763   5.196   1.179 -3.4543  2.1807  1.0644
  919MOL0     H24024   7.745   5.217   1.347  0.2181  0.6675  0.0732
  919MOL0     H24025   7.578   5.315   1.120 -1.0774 -2.6832 -4.2196
  919MOL0     H24026   7.466   5.499   1.069 -0.1303 -0.0743  0.8027
  919MOL0     H24027   7.315   5.452   0.984 -0.7155  0.1878  0.4209
  919MOL0     H24028   7.318   5.519   1.152 -0.2549 -0.9325  1.2621
  919MOL0     H24029   6.827   5.238   1.367 -0.1972 -1.6078  0.2616
  919MOL0     H24030   6.606   5.323   1.328 -0.2055 -0.8438 -0.0569
  919MOL0     H24031   6.386   5.285   1.240  0.0630 -1.6854 -1.9975
  919MOL0     H24032   6.447   5.450   1.286  1.4160  0.5393 -0.5920
  919MOL0     H24033   6.192   5.448   1.238 -2.6582  1.2753 -2.7740
  919MOL0     H24034   6.279   5.547   1.121  1.5156  2.0090  2.9345
  919MOL0     H24035   6.278   5.342   0.963 -1.7624  0.5905 -1.5326
  919MOL0     H24036   6.136   5.426   0.991 -1.4589 -1.2631 -0.3481
  919MOL0     H24037   6.209   5.153   1.088  0.7397 -0.0669  1.8900
  919MOL0     H24038   6.104   5.242   1.200  1.4195  0.0714  0.6262
  919MOL0     H24039   6.034   5.184   0.916 -1.1137  2.1617 -0.8443
  919MOL0     H24040   5.947   5.297   1.021 -0.5390  0.4942 -1.4435
  919MOL0     H24041   5.919   5.104   1.193  1.4708  4.4194 -0.0582
  919MOL0     H24042   5.809   5.083   1.053  0.2803  1.2583 -0.5591
  919MOL0     H24043   6.071   4.926   1.125  2.1781  1.2066 -0.7484
  919MOL0     H24044   6.009   4.962   0.957 -0.1106  1.4724  0.2264
  919MOL0     H24045   5.943   4.728   1.060  1.5083  0.1669 -0.9965
  919MOL0     H24046   5.823   4.834   0.984  0.0275  1.1723  0.6661
  919MOL0     H24047   6.663   5.334   0.912  1.4088  1.2089  0.5820
  919MOL0     H24048   6.894   5.271   0.940  0.1264 -1.1806  1.0749
  919MOL0     H24049   7.182   5.062   1.245 -0.6842  1.7456  0.1560
  919MOL0     H24050   7.412   4.956   1.286  1.4966  0.5644  0.8208
  919MOL0     H24051   9.294   5.326   2.064  1.2185  1.1787 -0.2952
  919MOL0     H24052   9.504   5.309   2.148  0.1808  0.5333  0.3391
  919MOL0     H24053   9.852   5.054   2.458 -1.8152 -0.7755 -1.3765
  919MOL0     H24054  10.086   5.046   2.507 -2.2860 -2.2191  0.3963
  919MOL0     H24055  10.349   5.215   2.181  1.2495 -1.9340 -1.8224
  919MOL0     H24056  10.454   5.195   2.318 -0.5263  2.4369 -2.1384
  919MOL0     H24057  10.527   5.059   2.143  0.8730 -0.8274  0.4389
  919MOL0     H24058  10.369   4.989   2.110 -1.0247  1.2470 -0.2814
  919MOL0     H24059  10.514   4.823   2.225  1.7403  0.0075  0.1992
  919MOL0     H24060  10.371   4.851   2.314 -0.5293 -0.4500 -1.4558
  919MOL0     H24061  10.565   4.839   2.471 -2.1997 -1.1105 -0.4776
  919MOL0     H24062  10.528   5.013   2.464 -0.4379  0.2687  0.5769
  919MOL0     H24063  10.894   5.026   2.271 -1.2069  2.3619 -1.4572
  919MOL0     H24064  10.171   5.183   2.104 -2.1577  0.8384 -2.3591
  919MOL0     H24065   9.937   5.165   2.052 -2.3180  2.2158  0.8641
  920MOL0     O24066   0.475   8.402   8.878  0.2882 -1.2160  0.5898
  920MOL0     C24067   0.556   8.493   8.900 -0.0433 -0.0434  0.5414
  920MOL0     O24068   0.536   8.619   8.858  0.2947  0.2317 -1.0118
  920MOL0     C24069   0.412   8.656   8.810 -0.5572  0.1406 -0.3318
  920MOL0     C24070   0.300   8.639   8.882  0.5364  0.7001 -0.5755
  920MOL0     C24071   0.187   8.706   8.848 -0.7307  0.9813 -0.0529
  920MOL0     C24072   0.166   8.769   8.730  0.6085 -0.5661  0.0115
  920MOL0     O24073   0.044   8.814   8.682  0.5745 -0.0042 -0.2391
  920MOL0     C24074  -0.078   8.802   8.757  0.6367 -0.4369  0.1603
  920MOL0     C24075  -0.195   8.886   8.700 -0.0380 -1.0281 -0.6295
  920MOL0     C24076  -0.323   8.865   8.782  0.0301 -0.2657 -0.7873
  920MOL0     C24077  -0.311   8.922   8.919 -0.1416  0.3814  0.4112
  920MOL0     C24078  -0.444   8.977   8.967  0.5514  0.3123 -1.0921
  920MOL0     C24079  -0.536   8.858   9.003 -0.3886 -0.6219  0.7375
  920MOL0     C24080  -0.668   8.898   9.066  0.6251  0.4703 -1.0055
  920MOL0     C24081  -0.651   8.966   9.197 -0.2083  0.1439  0.2623
  920MOL0     N24082  -0.768   8.983   9.284  0.8261 -0.3199 -0.6625
  920MOL0     C24083  -0.886   9.035   9.250  0.1106  0.0440  0.3613
  920MOL0     C24084  -0.973   9.023   9.357  0.2324  0.0348  0.1082
  920MOL0     C24085  -1.123   9.070   9.361 -0.6666 -1.2292 -0.7809
  920MOL0     C24086  -1.205   8.999   9.467  0.5736  1.0674  0.4206
  920MOL0     C24087  -1.348   9.057   9.482  0.1339 -0.4430  1.0361
  920MOL0     C24088  -1.438   8.972   9.576  0.6552 -0.1967  0.0808
  920MOL0     O24089  -1.561   9.049   9.593 -0.4630  0.4621 -0.4312
  920MOL0     C24090  -1.669   8.999   9.671 -0.4922 -0.5752 -0.6926
  920MOL0     C24091  -1.681   8.867   9.714  0.0927 -0.6253 -0.4810
  920MOL0     C24092  -1.796   8.835   9.788 -0.6600 -0.4657 -0.3060
  920MOL0     C24093  -1.789   8.696   9.842 -0.0667  0.5190  0.1078
  920MOL0     C24094  -1.899   8.932   9.816  0.3095 -0.3725 -0.9991
  920MOL0     C24095  -2.028   8.897   9.886  0.5544  0.3859 -0.2200
  920MOL0     O24096  -2.105   9.011   9.925 -0.2457 -0.1615 -0.3594
  920MOL0     C24097  -2.234   9.010   9.976  1.1341  0.5166  0.3845
  920MOL0     C24098  -2.318   8.895  10.000 -1.1145 -0.0869  0.0472
  920MOL0     C24099  -2.440   8.900  10.064  0.1203  0.3226 -0.5771
  920MOL0     C24100  -2.487   9.014  10.125  0.0013 -0.3877 -0.0173
  920MOL0     O24101  -2.604   9.001  10.189  0.1640 -0.7206  0.6649
  920MOL0     C24102  -2.624   9.088  10.303  0.1135 -0.2928 -0.7918
  920MOL0     C24103  -2.738   9.036  10.381  0.8193 -0.4753  0.1575
  920MOL0     C24104  -2.856   8.995  10.291  0.0078 -0.1028  0.2262
  920MOL0     C24105  -2.971   8.962  10.387  0.1455  0.2149  0.5230
  920MOL0     C24106  -3.063   8.853  10.321  0.0624  0.4735 -0.3997
  920MOL0     C24107  -3.148   8.909  10.206  0.5424 -0.1460 -0.5854
  920MOL0     C24108  -3.270   8.824  10.178 -0.4234 -0.5647  0.2996
  920MOL0     C24109  -3.343   8.884  10.058  0.2843 -0.0101  0.3092
  920MOL0    Cl24110  -3.485   8.775  10.012 -0.1427  0.4602 -0.3187
  920MOL0     C24111  -2.410   9.130  10.108 -0.2814  0.0346 -0.2559
  920MOL0     C24112  -2.288   9.131  10.034 -0.1449  0.7865 -0.1568
  920MOL0     O24113  -2.059   8.781   9.904  0.1978  0.2420 -0.2572
  920MOL0     C24114  -1.875   9.067   9.775 -0.0785 -0.0450  0.2302
  920MOL0     C24115  -1.767   9.097   9.705 -0.3516 -0.1883  0.6129
  920MOL0     N24116  -0.910   8.943   9.451 -0.1513  0.0862  0.5665
  920MOL0     N24117  -0.784   8.920   9.404 -0.5353  0.1719  0.1830
  920MOL0     C24118   0.277   8.771   8.645 -0.1554  0.2812 -0.2457
  920MOL0     C24119   0.405   8.730   8.689 -0.9880  0.8250 -0.0194
  920MOL0     C24120   0.691   8.449   8.930 -0.0480 -0.2599 -0.6698
  920MOL0     C24121   0.803   8.513   8.863  0.2527  0.4840  1.1627
  920MOL0     C24122   0.937   8.467   8.885  0.5085  0.4028  1.0025
  920MOL0     C24123   0.957   8.368   8.987 -0.2061 -0.1311  0.2549
  920MOL0     O24124   1.085   8.333   9.021  0.4014  0.8209  0.3337
  920MOL0     C24125   1.148   8.216   8.946  0.7358 -0.6590  0.1724
  920MOL0     C24126   1.261   8.166   9.035 -0.4664  0.3224 -0.3316
  920MOL0     C24127   1.219   8.138   9.177 -0.1303  0.2899 -0.7810
  920MOL0     C24128   1.318   8.031   9.228 -0.3823  0.4452  0.9178
  920MOL0     C24129   1.321   8.026   9.373 -0.5298 -0.4583  0.5618
  920MOL0     C24130   1.320   8.021   9.495  0.2089 -0.3155  0.6033
  920MOL0     C24131   0.857   8.309   9.054 -0.5308  0.1736 -0.1157
  920MOL0     C24132   0.727   8.351   9.029  0.0475  0.4234 -1.0184
  920MOL0     H24133   0.285   8.582   8.973 -3.0982  0.0736 -1.4058
  920MOL0     H24134   0.103   8.691   8.915 -0.5523 -0.8044 -0.1705
  920MOL0     H24135  -0.096   8.695   8.768  0.4012 -0.2787  1.4608
  920MOL0     H24136  -0.041   8.829   8.856  3.2620  0.7066 -1.0194
  920MOL0     H24137  -0.174   8.993   8.693  1.9293 -1.3336 -0.0618
  920MOL0     H24138  -0.222   8.845   8.602  0.5121  3.2281 -2.8169
  920MOL0     H24139  -0.406   8.918   8.735 -0.6994 -0.6481  0.0304
  920MOL0     H24140  -0.353   8.762   8.800  2.0584 -0.5404  1.5469
  920MOL0     H24141  -0.271   8.850   8.990  1.8184 -1.5309 -2.3897
  920MOL0     H24142  -0.240   9.005   8.908  3.4652 -2.3751  0.9950
  920MOL0     H24143  -0.420   9.037   9.055  1.9596  0.4417 -1.5508
  920MOL0     H24144  -0.489   9.037   8.888 -0.1357 -0.3572 -1.2305
  920MOL0     H24145  -0.564   8.814   8.906  0.8092 -1.0184  0.5576
  920MOL0     H24146  -0.481   8.789   9.067  2.6404  2.0812  1.2842
  920MOL0     H24147  -0.721   8.962   8.994 -1.9907 -0.3874  0.0256
  920MOL0     H24148  -0.735   8.815   9.091 -0.7103  1.7072 -0.2656
  920MOL0     H24149  -0.616   9.067   9.172 -1.6416  0.8598  1.0379
  920MOL0     H24150  -0.574   8.914   9.256 -1.1474 -0.8433  0.6587
  920MOL0     H24151  -0.905   9.084   9.155 -0.2208 -1.5454 -0.4335
  920MOL0     H24152  -1.119   9.175   9.390 -3.7150 -0.7417 -1.8019
  920MOL0     H24153  -1.181   9.056   9.269 -0.5161  2.8969 -1.7108
  920MOL0     H24154  -1.162   9.002   9.568 -0.9562  0.4018  1.1119
  920MOL0     H24155  -1.218   8.893   9.442  1.3994  0.9211  0.5670
  920MOL0     H24156  -1.403   9.064   9.388  1.3304  0.4537  0.3745
  920MOL0     H24157  -1.342   9.160   9.519  2.1927 -0.1880  0.0957
  920MOL0     H24158  -1.381   8.968   9.669 -0.2609  2.9932  0.9105
  920MOL0     H24159  -1.448   8.872   9.533 -1.1883  0.6459 -1.6290
  920MOL0     H24160  -1.599   8.801   9.685  1.2653  1.4925 -2.2460
  920MOL0     H24161  -1.862   8.631   9.793  2.0487 -0.5096 -1.8390
  920MOL0     H24162  -1.693   8.649   9.820 -0.3855 -0.1169  0.0387
  920MOL0     H24163  -1.801   8.687   9.950 -4.3223 -1.0181 -0.3212
  920MOL0     H24164  -2.285   8.803   9.953  2.7610  0.7751  0.7085
  920MOL0     H24165  -2.511   8.818  10.069 -0.7903  1.1297  0.0794
  920MOL0     H24166  -2.537   9.103  10.368  1.4947 -0.5351 -2.4770
  920MOL0     H24167  -2.673   9.182  10.275 -0.4005 -1.0036 -2.4189
  920MOL0     H24168  -2.699   8.958  10.446 -0.9079 -0.7485  0.9334
  920MOL0     H24169  -2.765   9.113  10.454 -2.0453 -0.0529 -1.1729
  920MOL0     H24170  -2.831   8.909  10.227 -4.3123 -0.9204 -0.6663
  920MOL0     H24171  -2.902   9.073  10.229  0.1195  1.2695  1.8222
  920MOL0     H24172  -2.924   8.910  10.472 -0.7441  1.4216  1.7985
  920MOL0     H24173  -3.031   9.048  10.417 -1.1160  0.0614 -1.4212
  920MOL0     H24174  -3.134   8.817  10.395  0.0823 -0.9369 -1.0282
  920MOL0     H24175  -3.003   8.770  10.283  0.3366 -0.6367  2.2683
  920MOL0     H24176  -3.186   9.003  10.246  3.5061  0.5834  0.8239
  920MOL0     H24177  -3.095   8.917  10.111 -1.6253  2.2228 -1.7078
  920MOL0     H24178  -3.331   8.805  10.267 -2.3600 -2.4131 -1.3389
  920MOL0     H24179  -3.227   8.726  10.152 -0.0334 -0.2176 -0.3905
  920MOL0     H24180  -3.274   8.871   9.974 -0.5948 -3.1220 -0.0621
  920MOL0     H24181  -3.388   8.982  10.079  3.5467  2.1466 -1.8695
  920MOL0     H24182  -2.441   9.226  10.147  1.9767  0.3871  0.8783
  920MOL0     H24183  -2.228   9.221  10.025 -0.0058  0.5406 -2.0261
  920MOL0     H24184  -1.935   9.151   9.805  2.5499  2.0214  0.0552
  920MOL0     H24185  -1.754   9.201   9.675  0.9109 -0.1849  1.0970
  920MOL0     H24186   0.258   8.814   8.547 -1.4833  2.2985  0.8117
  920MOL0     H24187   0.493   8.744   8.627  0.6538 -0.2115  1.9544
  920MOL0     H24188   0.768   8.582   8.788 -3.4271 -0.7231  1.5938
  920MOL0     H24189   1.021   8.507   8.828 -0.7991 -0.9614 -2.1137
  920MOL0     H24190   1.074   8.137   8.934  0.4382 -0.2785 -0.5345
  920MOL0     H24191   1.185   8.248   8.848 -2.5417  0.4955 -0.8324
  920MOL0     H24192   1.345   8.236   9.032  1.0737 -1.4860 -1.2608
  920MOL0     H24193   1.300   8.072   8.995  2.4886  0.9784  0.7645
  920MOL0     H24194   1.119   8.097   9.187  0.4857 -0.6804  2.9267
  920MOL0     H24195   1.220   8.224   9.245  0.3911 -0.3386  0.0293
  920MOL0     H24196   1.418   8.060   9.195 -1.0255 -0.6015 -2.2719
  920MOL0     H24197   1.298   7.930   9.193 -1.4556  0.8306  0.3565
  920MOL0     H24198   1.326   8.016   9.602  4.1671 -2.4590  0.5011
  920MOL0     H24199   0.870   8.226   9.122  1.8305 -0.7807 -1.6099
  920MOL0     H24200   0.650   8.296   9.082 -1.3291  2.7966 -0.4375
  921MOL0     O24201  11.275   9.228   2.750  0.0346  0.1005  0.4755
  921MOL0     C24202  11.270   9.349   2.720 -0.4785 -0.3174 -0.0417
  921MOL0     O24203  11.168   9.415   2.665 -0.2624  0.2715  0.3894
  921MOL0     C24204  11.039   9.372   2.653  0.0485 -0.4057 -0.3536
  921MOL0     C24205  10.999   9.302   2.537 -0.1679 -0.2144 -1.0345
  921MOL0     C24206  10.865   9.247   2.532 -0.1820 -0.9804 -1.0187
  921MOL0     C24207  10.773   9.261   2.634  0.1444 -0.9487 -0.2610
  921MOL0     O24208  10.642   9.213   2.617 -0.1987  0.0463  0.6393
  921MOL0     C24209  10.554   9.194   2.724  0.1201 -0.3479  0.3981
  921MOL0     C24210  10.432   9.285   2.693  0.3990 -0.5736  0.6306
  921MOL0     C24211  10.332   9.217   2.591  0.1526 -0.0606 -0.5404
  921MOL0     C24212  10.222   9.156   2.674  0.5527 -0.1077 -0.0110
  921MOL0     C24213  10.143   9.059   2.590 -0.0739  0.6022  0.5373
  921MOL0     C24214  10.007   9.002   2.628  0.6063  0.3615  0.8267
  921MOL0     C24215   9.918   9.092   2.718 -0.2491 -0.7972  0.2030
  921MOL0     C24216   9.777   9.054   2.750  0.8593 -0.1630  0.3070
  921MOL0     N24217   9.686   9.061   2.629 -0.7234  0.1199 -0.7085
  921MOL0     C24218   9.654   8.954   2.548 -0.0553  0.0923 -0.6579
  921MOL0     C24219   9.557   9.002   2.469 -1.1072  0.0602  0.3547
  921MOL0     C24220   9.505   8.940   2.349  0.1437  0.0677  0.2121
  921MOL0     C24221   9.341   8.930   2.373 -1.2650  0.8282 -0.3893
  921MOL0     C24222   9.289   8.805   2.304  0.7137 -0.2299 -0.3172
  921MOL0     C24223   9.145   8.771   2.343  0.1294  0.4117 -0.0517
  921MOL0     O24224   9.044   8.870   2.309 -0.0527 -0.5802 -0.3622
  921MOL0     C24225   8.920   8.810   2.312  0.0626  0.7964 -1.3043
  921MOL0     C24226   8.835   8.828   2.209 -0.0958  1.3330  0.6075
  921MOL0     C24227   8.701   8.788   2.216  0.2282 -0.0334 -0.8448
  921MOL0     C24228   8.606   8.828   2.102 -1.0016  0.7369  0.5331
  921MOL0     C24229   8.646   8.718   2.332 -0.9159  0.0508 -0.1156
  921MOL0     C24230   8.508   8.668   2.354  0.2716  0.2608 -0.2488
  921MOL0     O24231   8.467   8.653   2.482 -1.2473 -1.2788  0.5429
  921MOL0     C24232   8.362   8.578   2.530  1.2631 -1.0044  0.7248
  921MOL0     C24233   8.251   8.633   2.592 -0.0815 -0.2142  0.4463
  921MOL0     C24234   8.151   8.566   2.644  0.3015  0.4990 -0.1756
  921MOL0     C24235   8.136   8.429   2.635  0.3254  0.9886  0.5645
  921MOL0     O24236   8.037   8.367   2.705 -0.3682  0.2282  0.2256
  921MOL0     C24237   8.055   8.243   2.773  0.3369 -0.0472  0.0209
  921MOL0     C24238   7.924   8.190   2.835  0.3878  0.3118  0.1712
  921MOL0     C24239   7.823   8.298   2.896 -0.0048 -0.9979  0.4648
  921MOL0     C24240   7.722   8.224   2.985  0.1342 -0.1766 -0.8190
  921MOL0     C24241   7.638   8.328   3.058 -0.0928 -0.6414 -0.1687
  921MOL0     C24242   7.582   8.248   3.172  1.1950  0.4120  0.4582
  921MOL0     C24243   7.487   8.333   3.260 -0.5304 -0.3333 -0.1225
  921MOL0     C24244   7.362   8.382   3.189 -0.1132 -0.3011  0.6826
  921MOL0    Cl24245   7.261   8.263   3.109  0.2177  0.0921  0.1574
  921MOL0     C24246   8.248   8.373   2.563  0.0396  0.0884  0.9371
  921MOL0     C24247   8.357   8.446   2.508 -0.0116  0.0460  0.6614
  921MOL0     O24248   8.457   8.629   2.253  0.1879 -0.1973  0.0170
  921MOL0     C24249   8.742   8.695   2.428 -0.9049  1.1228  0.2108
  921MOL0     C24250   8.880   8.729   2.418  0.7465 -0.0559 -0.0915
  921MOL0     N24251   9.526   9.130   2.512  0.6010 -0.1254 -0.0956
  921MOL0     N24252   9.607   9.171   2.604 -0.1956 -0.5741 -0.7215
  921MOL0     C24253  10.815   9.337   2.746  0.4130  0.1237  0.1515
  921MOL0     C24254  10.942   9.391   2.758 -0.1582 -0.2735 -0.3425
  921MOL0     C24255  11.404   9.422   2.726 -0.2714  0.2816 -0.5463
  921MOL0     C24256  11.518   9.351   2.769  0.0603 -0.1046  0.3971
  921MOL0     C24257  11.644   9.424   2.750  0.2379  0.4796 -0.5906
  921MOL0     C24258  11.654   9.562   2.712  0.5205 -0.6795  0.9912
  921MOL0     O24259  11.761   9.638   2.720  0.1646 -0.6427 -0.0363
  921MOL0     C24260  11.893   9.582   2.756  0.0502 -0.3316 -0.5148
  921MOL0     C24261  11.994   9.673   2.706 -0.3450 -0.0829  0.2073
  921MOL0     C24262  12.007   9.675   2.551  0.2742 -0.0244  0.5212
  921MOL0     C24263  12.092   9.789   2.497 -0.3790  0.5444 -0.1871
  921MOL0     C24264  12.227   9.757   2.507 -0.0745 -0.1225  0.2651
  921MOL0     C24265  12.350   9.757   2.515  0.7477 -0.3885 -0.1337
  921MOL0     C24266  11.532   9.623   2.675 -0.2542 -0.0979  0.0452
  921MOL0     C24267  11.412   9.559   2.691  0.5791  0.4359  1.3505
  921MOL0     H24268  11.071   9.294   2.456 -0.7958  1.0976 -1.7614
  921MOL0     H24269  10.825   9.207   2.440 -0.5999 -1.3994 -0.6665
  921MOL0     H24270  10.518   9.091   2.715 -0.2894 -0.1014 -0.9936
  921MOL0     H24271  10.593   9.200   2.826  0.3140  0.4001  0.2811
  921MOL0     H24272  10.394   9.322   2.788  2.1746  1.5448  0.5909
  921MOL0     H24273  10.477   9.374   2.649  0.6110 -0.4519  1.0968
  921MOL0     H24274  10.295   9.294   2.523  0.3602  2.2834  1.8283
  921MOL0     H24275  10.381   9.149   2.521  0.6487  1.2671 -1.5187
  921MOL0     H24276  10.261   9.104   2.762 -0.4746 -0.6025  0.1731
  921MOL0     H24277  10.161   9.234   2.720 -1.0493 -1.3880  0.1426
  921MOL0     H24278  10.119   9.109   2.495  1.0444 -0.7796 -0.5232
  921MOL0     H24279  10.207   8.973   2.567  0.5090  1.3393 -0.6759
  921MOL0     H24280   9.948   8.978   2.539  2.6602  0.0637 -0.5111
  921MOL0     H24281  10.021   8.901   2.668  0.8167 -0.5462 -1.4213
  921MOL0     H24282   9.974   9.099   2.812  1.9444 -1.4551 -0.9917
  921MOL0     H24283   9.905   9.189   2.670  0.4904 -0.5371  0.5041
  921MOL0     H24284   9.734   9.123   2.823 -2.0887  1.1101 -2.3731
  921MOL0     H24285   9.777   8.946   2.771  1.6070 -0.5965 -1.6731
  921MOL0     H24286   9.700   8.855   2.540 -1.2978 -0.7264  1.6109
  921MOL0     H24287   9.531   9.006   2.266 -2.5641 -0.4343 -1.1658
  921MOL0     H24288   9.559   8.850   2.317  4.1494  2.9609 -2.1575
  921MOL0     H24289   9.302   9.026   2.338  0.5124  1.4820 -0.6888
  921MOL0     H24290   9.311   8.928   2.478 -1.4877 -0.2609 -0.4688
  921MOL0     H24291   9.360   8.725   2.323  2.3186  1.2971  0.3286
  921MOL0     H24292   9.289   8.819   2.195 -1.1663 -2.6470 -0.7250
  921MOL0     H24293   9.151   8.744   2.449  1.1770 -1.1626 -0.4861
  921MOL0     H24294   9.120   8.678   2.292 -0.7006  0.2736  0.5869
  921MOL0     H24295   8.855   8.877   2.114  1.6256 -0.0497  0.1928
  921MOL0     H24296   8.637   8.910   2.037 -1.6958 -0.5778 -1.5890
  921MOL0     H24297   8.603   8.742   2.033  1.8219 -0.0473  1.2538
  921MOL0     H24298   8.503   8.851   2.129 -1.5390  0.0188 -0.7796
  921MOL0     H24299   8.245   8.741   2.587 -2.9114 -0.3323 -0.9897
  921MOL0     H24300   8.074   8.623   2.695 -0.0214  1.8514 -2.0535
  921MOL0     H24301   8.085   8.169   2.699 -1.7979 -0.1721 -0.7642
  921MOL0     H24302   8.146   8.252   2.833  0.4246 -2.7819  0.4221
  921MOL0     H24303   7.867   8.125   2.767 -1.9680  2.8071 -0.4449
  921MOL0     H24304   7.963   8.124   2.913 -0.4377 -1.5473 -0.9222
  921MOL0     H24305   7.779   8.353   2.813  2.0996 -0.0326 -0.0911
  921MOL0     H24306   7.886   8.370   2.950  2.2715 -1.4530 -1.4141
  921MOL0     H24307   7.663   8.156   2.923  0.8897  0.2696 -2.0725
  921MOL0     H24308   7.788   8.167   3.050  2.3172  3.1161  0.1119
  921MOL0     H24309   7.565   8.373   2.990 -1.4961 -2.1717  0.2527
  921MOL0     H24310   7.698   8.407   3.105 -2.0788  1.5521 -1.1027
  921MOL0     H24311   7.514   8.168   3.141 -3.8906  3.3247  2.7170
  921MOL0     H24312   7.660   8.211   3.240  1.2400 -0.0715  0.1457
  921MOL0     H24313   7.538   8.425   3.289 -4.1852  0.9040  3.3273
  921MOL0     H24314   7.458   8.279   3.351  0.0714 -1.9075 -0.8268
  921MOL0     H24315   7.382   8.456   3.110 -2.8311 -0.3758 -0.1639
  921MOL0     H24316   7.317   8.449   3.263  2.2726  0.6741  1.3747
  921MOL0     H24317   8.249   8.270   2.527  1.2155  0.2641  0.4363
  921MOL0     H24318   8.434   8.384   2.463 -1.5464  0.4321 -2.7731
  921MOL0     H24319   8.699   8.635   2.507 -1.7535 -0.5288 -1.4175
  921MOL0     H24320   8.936   8.711   2.509  1.7024 -0.7187 -0.7877
  921MOL0     H24321  10.744   9.368   2.822  0.9385 -2.6354  1.9025
  921MOL0     H24322  10.974   9.452   2.842  0.8996 -0.9779 -0.2112
  921MOL0     H24323  11.518   9.248   2.804  0.9136  0.5821  2.5503
  921MOL0     H24324  11.729   9.373   2.795  0.7542  2.8753  1.3346
  921MOL0     H24325  11.894   9.593   2.865 -1.2015  0.2889 -0.5486
  921MOL0     H24326  11.922   9.479   2.733  0.8570 -0.2999  0.2699
  921MOL0     H24327  12.085   9.616   2.727 -2.1676 -3.8457 -1.1468
  921MOL0     H24328  11.995   9.771   2.755  1.8342  1.0736 -1.9074
  921MOL0     H24329  11.902   9.686   2.523 -0.8621 -1.9594  3.4760
  921MOL0     H24330  12.039   9.579   2.509 -1.4350 -0.4994  0.2100
  921MOL0     H24331  12.081   9.877   2.561  0.8921  0.2075  0.5248
  921MOL0     H24332  12.071   9.808   2.391  0.5172 -2.3084 -0.9590
  921MOL0     H24333  12.456   9.749   2.526  0.8224 -1.7376 -1.5047
  921MOL0     H24334  11.530   9.722   2.629  0.7084  1.4349  3.0331
  921MOL0     H24335  11.319   9.603   2.656  0.3688 -1.2251 -0.3336
  922MOL0     O24336   9.450   2.046   3.731 -0.1360  0.6318 -0.1790
  922MOL0     C24337   9.416   1.961   3.806  1.0305  0.3442  0.1787
  922MOL0     O24338   9.317   1.864   3.782  0.1969 -1.0332  0.7938
  922MOL0     C24339   9.231   1.900   3.681  0.4896  0.5789  0.6737
  922MOL0     C24340   9.124   1.991   3.709 -0.2868  0.1716  0.4153
  922MOL0     C24341   9.031   2.030   3.612  0.1833  0.7992  0.5482
  922MOL0     C24342   9.048   1.970   3.476  0.5069 -0.7437 -0.2850
  922MOL0     O24343   8.973   2.007   3.361  0.1013  0.8379 -0.1436
  922MOL0     C24344   8.870   2.102   3.381  0.7225  0.1409 -0.2795
  922MOL0     C24345   8.797   2.100   3.246  0.1618  0.1600 -0.1950
  922MOL0     C24346   8.668   2.183   3.242  0.4312  0.3730 -0.1755
  922MOL0     C24347   8.607   2.172   3.096 -0.1369  0.3463 -0.4840
  922MOL0     C24348   8.494   2.264   3.060 -0.1513 -0.9266  0.9578
  922MOL0     C24349   8.370   2.246   3.155 -0.2731 -0.0587  0.4473
  922MOL0     C24350   8.240   2.316   3.113  0.4325  0.1198 -0.1732
  922MOL0     C24351   8.265   2.468   3.120  0.1974 -0.2011  0.7703
  922MOL0     N24352   8.139   2.541   3.104 -0.3504  0.6873 -0.7933
  922MOL0     C24353   8.051   2.534   2.993 -0.0890 -0.2170 -0.1825
  922MOL0     C24354   7.961   2.628   3.017 -0.2936  0.5077  1.3935
  922MOL0     C24355   7.854   2.660   2.916 -0.6516  0.9356 -0.6518
  922MOL0     C24356   7.853   2.815   2.902 -1.0583  0.2787 -0.4200
  922MOL0     C24357   7.746   2.875   2.815  0.0736  0.6833 -0.4681
  922MOL0     C24358   7.615   2.897   2.883  0.5852 -0.0393  0.2156
  922MOL0     O24359   7.552   2.969   2.776  0.3556 -0.0425  0.3465
  922MOL0     C24360   7.430   3.028   2.819  0.7781  0.7512  0.3939
  922MOL0     C24361   7.363   3.005   2.936  0.1606  0.0927  0.6340
  922MOL0     C24362   7.249   3.077   2.986 -0.9264  0.3344 -0.8887
  922MOL0     C24363   7.214   3.052   3.127 -0.5151  0.6770  0.1000
  922MOL0     C24364   7.194   3.168   2.895  0.2079  0.3983 -0.2105
  922MOL0     C24365   7.077   3.249   2.934  0.0404  0.0694  0.4604
  922MOL0     O24366   7.057   3.365   2.856 -0.6584 -0.2055 -1.0998
  922MOL0     C24367   6.932   3.415   2.849 -0.2915 -0.6395 -0.7427
  922MOL0     C24368   6.883   3.524   2.934  0.5339  0.4853  0.2936
  922MOL0     C24369   6.750   3.572   2.916 -0.5023  0.3624 -0.3068
  922MOL0     C24370   6.672   3.514   2.819 -0.2129 -0.4584  0.3893
  922MOL0     O24371   6.554   3.574   2.794 -0.5473 -0.0667 -0.4533
  922MOL0     C24372   6.444   3.485   2.779 -0.1235  0.3471 -0.2188
  922MOL0     C24373   6.317   3.566   2.823 -0.8699  0.3178  0.3406
  922MOL0     C24374   6.186   3.489   2.793 -0.2339  0.7791  0.6520
  922MOL0     C24375   6.153   3.487   2.644 -0.2299 -0.1929  0.6927
  922MOL0     C24376   6.063   3.368   2.601 -0.2626  0.4621 -0.9033
  922MOL0     C24377   6.003   3.373   2.458  0.5519 -0.5471 -0.0058
  922MOL0     C24378   5.926   3.241   2.436  0.1425 -0.9040  0.1580
  922MOL0     C24379   5.873   3.235   2.298 -0.2487 -0.2953  0.4364
  922MOL0    Cl24380   5.779   3.084   2.249 -0.1126  0.6922 -0.0285
  922MOL0     C24381   6.719   3.411   2.744  0.5347  0.5824  0.3918
  922MOL0     C24382   6.849   3.362   2.748  0.5185  0.4506  0.2482
  922MOL0     O24383   6.992   3.197   3.004  0.8212 -0.0826  1.1469
  922MOL0     C24384   7.250   3.183   2.764 -0.0464 -0.0154 -0.0163
  922MOL0     C24385   7.365   3.117   2.730 -0.1964  1.5538 -0.4592
  922MOL0     N24386   7.984   2.686   3.142 -0.2022 -0.4136  0.5655
  922MOL0     N24387   8.098   2.644   3.189 -0.5035  0.0285 -0.0912
  922MOL0     C24388   9.148   1.866   3.455  0.6155 -0.9587 -0.4853
  922MOL0     C24389   9.236   1.837   3.557 -0.6713  0.2433 -0.4046
  922MOL0     C24390   9.503   1.928   3.917 -0.4724 -0.1003  0.1114
  922MOL0     C24391   9.620   2.012   3.946  0.7009  0.5952  0.6933
  922MOL0     C24392   9.705   1.983   4.053 -0.5822 -0.0210 -0.3404
  922MOL0     C24393   9.692   1.857   4.121  0.8973  0.0192  0.0272
  922MOL0     O24394   9.791   1.804   4.200  0.5586  0.3370  0.7926
  922MOL0     C24395   9.930   1.856   4.207  0.4017 -0.9095  0.3957
  922MOL0     C24396  10.024   1.766   4.274  1.0516 -0.2213  0.0746
  922MOL0     C24397  10.150   1.845   4.310  0.9520 -0.8572  0.0714
  922MOL0     C24398  10.255   1.776   4.395 -0.3375  0.0715  0.2337
  922MOL0     C24399  10.322   1.670   4.313 -0.3626 -0.9585  0.7008
  922MOL0     C24400  10.390   1.587   4.261  0.1531 -0.4942  0.4771
  922MOL0     C24401   9.573   1.788   4.102  0.7477 -0.3921  0.3144
  922MOL0     C24402   9.485   1.811   4.001  1.0537  0.3212 -0.2236
  922MOL0     H24403   9.127   2.032   3.809  0.7424 -0.1737  0.5342
  922MOL0     H24404   8.956   2.103   3.640  0.5212  0.4551  2.4710
  922MOL0     H24405   8.809   2.063   3.463  1.7578 -0.8132  0.0725
  922MOL0     H24406   8.904   2.203   3.402 -1.7766  0.7282  1.3764
  922MOL0     H24407   8.861   2.149   3.172 -1.2625  0.4412 -1.3020
  922MOL0     H24408   8.774   1.999   3.211  0.5132 -0.0453  0.1631
  922MOL0     H24409   8.589   2.150   3.310 -1.7214  2.5433 -1.4710
  922MOL0     H24410   8.685   2.290   3.256  3.2384  0.1122 -0.8734
  922MOL0     H24411   8.694   2.191   3.032 -2.1197  0.8763 -3.1771
  922MOL0     H24412   8.575   2.071   3.068  1.0781 -0.3686  0.5484
  922MOL0     H24413   8.532   2.366   3.059 -0.6313 -0.7282 -1.1132
  922MOL0     H24414   8.459   2.234   2.961 -0.7626  2.9703 -0.1729
  922MOL0     H24415   8.354   2.141   3.180  1.3483 -0.0997  1.4082
  922MOL0     H24416   8.408   2.296   3.244 -0.9289  0.0087  0.6955
  922MOL0     H24417   8.208   2.279   3.015  0.2856 -3.0658  0.9528
  922MOL0     H24418   8.161   2.289   3.183  0.3870  0.0260 -0.2592
  922MOL0     H24419   8.334   2.474   3.035 -0.5996 -1.0807  0.0374
  922MOL0     H24420   8.314   2.490   3.216  1.4127  1.5527 -0.1831
  922MOL0     H24421   8.047   2.459   2.914  1.4978  0.9157 -1.4275
  922MOL0     H24422   7.884   2.612   2.823  1.3061 -3.0848  1.7505
  922MOL0     H24423   7.756   2.618   2.944 -1.0081  1.9280 -0.3646
  922MOL0     H24424   7.948   2.848   2.859 -0.7797  0.5327  0.3654
  922MOL0     H24425   7.837   2.866   2.997 -0.9715  1.6244 -1.1129
  922MOL0     H24426   7.725   2.813   2.727 -2.4413 -0.0757  0.5818
  922MOL0     H24427   7.777   2.975   2.784 -0.5894  2.1116  3.0350
  922MOL0     H24428   7.625   2.964   2.969  1.6553 -1.4383  1.2606
  922MOL0     H24429   7.566   2.805   2.916  0.6437  0.2911  1.2591
  922MOL0     H24430   7.393   2.930   3.009  0.1472  1.6490  2.3063
  922MOL0     H24431   7.294   2.993   3.173 -1.4273 -0.0347  0.8433
  922MOL0     H24432   7.204   3.153   3.168  0.9394 -0.4326  3.5458
  922MOL0     H24433   7.119   2.998   3.137 -1.4424  2.4041  1.0499
  922MOL0     H24434   6.950   3.564   3.009  0.7718  1.0602 -0.2113
  922MOL0     H24435   6.713   3.655   2.976 -0.0596  1.4306 -1.4816
  922MOL0     H24436   6.432   3.441   2.680  3.6947 -1.7017  0.0154
  922MOL0     H24437   6.463   3.393   2.836  3.0483 -0.0160 -1.6295
  922MOL0     H24438   6.331   3.586   2.930 -0.9964  0.3393  0.3529
  922MOL0     H24439   6.311   3.661   2.771 -3.4113  0.0032 -0.0721
  922MOL0     H24440   6.102   3.524   2.854  1.1386  2.1270  1.8292
  922MOL0     H24441   6.201   3.386   2.828  3.2140 -0.0763 -2.7567
  922MOL0     H24442   6.103   3.579   2.611  0.9679 -0.7458 -3.0686
  922MOL0     H24443   6.243   3.488   2.582 -2.2991 -0.5771 -2.5592
  922MOL0     H24444   5.986   3.330   2.669 -0.2383 -1.3021 -1.8168
  922MOL0     H24445   6.133   3.284   2.595  2.0288  2.1409  0.7467
  922MOL0     H24446   5.932   3.456   2.456  1.6535  0.4163  0.1496
  922MOL0     H24447   6.079   3.401   2.384 -1.7520  2.9110 -1.3111
  922MOL0     H24448   5.848   3.248   2.512  0.1400 -1.4336  0.2105
  922MOL0     H24449   6.001   3.163   2.451  1.4033 -0.7941 -4.1681
  922MOL0     H24450   5.961   3.253   2.236  1.5313 -1.5197  2.4466
  922MOL0     H24451   5.798   3.314   2.287 -2.2357 -2.0439  0.5861
  922MOL0     H24452   6.665   3.371   2.659  1.8629  1.2996 -0.8104
  922MOL0     H24453   6.884   3.282   2.684  0.0994  0.4380  0.0311
  922MOL0     H24454   7.203   3.243   2.687 -0.8712  1.0948  1.2923
  922MOL0     H24455   7.428   3.128   2.643  0.7469 -1.5377 -0.2703
  922MOL0     H24456   9.138   1.810   3.362  0.1390  0.0662 -1.0708
  922MOL0     H24457   9.295   1.747   3.545 -1.5040 -1.3866  4.9153
  922MOL0     H24458   9.633   2.103   3.888 -2.9796  1.9894  1.7931
  922MOL0     H24459   9.797   2.040   4.064 -1.0725  0.5974  0.7129
  922MOL0     H24460   9.968   1.886   4.109  0.3261 -0.9843  0.3438
  922MOL0     H24461   9.917   1.938   4.277 -2.3998 -0.8488 -0.0844
  922MOL0     H24462  10.051   1.692   4.198  1.9055 -1.0493  1.1696
  922MOL0     H24463   9.979   1.711   4.357  0.7388 -3.0813 -1.8526
  922MOL0     H24464  10.118   1.937   4.360 -1.1695 -1.4162 -0.1728
  922MOL0     H24465  10.200   1.859   4.214  1.7911 -2.7028  0.1970
  922MOL0     H24466  10.212   1.732   4.485  1.5501 -3.8541 -0.5683
  922MOL0     H24467  10.336   1.839   4.431 -0.2360 -0.6501  1.2908
  922MOL0     H24468  10.462   1.531   4.204 -0.3658  0.1894 -0.9190
  922MOL0     H24469   9.563   1.697   4.161 -1.8008 -0.6514 -0.4036
  922MOL0     H24470   9.402   1.744   3.982  0.6748  0.4153  0.9975
  923MOL0     O24471   6.115   9.879  10.978 -0.1784  0.1344 -0.7532
  923MOL0     C24472   6.197   9.787  10.969 -0.1962  0.2320 -0.0710
  923MOL0     O24473   6.178   9.672  10.898  0.0625  0.0449 -0.1567
  923MOL0     C24474   6.053   9.649  10.829 -0.6208 -1.5241 -0.3203
  923MOL0     C24475   5.928   9.713  10.842  0.3696  0.5954  0.6142
  923MOL0     C24476   5.833   9.702  10.743 -0.2211 -0.3268  0.3733
  923MOL0     C24477   5.849   9.604  10.643 -0.0571  0.1543 -0.6598
  923MOL0     O24478   5.742   9.590  10.551  0.2668 -0.3323  0.2254
  923MOL0     C24479   5.785   9.570  10.416  0.9836 -0.1222 -0.1188
  923MOL0     C24480   5.672   9.599  10.327 -1.2261 -0.0040  0.2445
  923MOL0     C24481   5.542   9.508  10.338  0.3313 -0.7417 -0.5241
  923MOL0     C24482   5.452   9.518  10.465  0.0392  0.7400  0.6236
  923MOL0     C24483   5.315   9.449  10.437 -1.0801 -0.1569  0.4376
  923MOL0     C24484   5.204   9.469  10.531 -0.2844 -0.4463 -0.5127
  923MOL0     C24485   5.154   9.614  10.524 -0.4159 -0.1542  0.6728
  923MOL0     C24486   5.022   9.626  10.609  0.4385 -0.6706 -0.3547
  923MOL0     N24487   4.916   9.539  10.573 -0.2543  0.0545 -0.5141
  923MOL0     C24488   4.885   9.438  10.665 -0.9465 -0.0341  0.0126
  923MOL0     C24489   4.793   9.358  10.598  0.3990 -0.0010 -0.3934
  923MOL0     C24490   4.719   9.229  10.644 -0.6036 -0.8833  0.5267
  923MOL0     C24491   4.596   9.255  10.733  0.2465 -0.0639  0.0441
  923MOL0     C24492   4.484   9.340  10.683  0.0796 -0.9382  0.8135
  923MOL0     C24493   4.406   9.277  10.562  0.2981 -0.1353  0.4317
  923MOL0     O24494   4.375   9.138  10.586  0.4143  0.1738  0.5686
  923MOL0     C24495   4.317   9.078  10.472  0.0447 -0.6837  0.2398
  923MOL0     C24496   4.270   9.148  10.359 -0.5950 -0.2250 -0.0144
  923MOL0     C24497   4.222   9.068  10.251 -0.2337 -0.0408  0.0242
  923MOL0     C24498   4.194   9.144  10.126  0.2460  0.3747  0.0371
  923MOL0     C24499   4.207   8.925  10.258 -0.6465 -0.2015 -0.0810
  923MOL0     C24500   4.150   8.835  10.148 -1.0075  0.0451 -0.6725
  923MOL0     O24501   4.219   8.715  10.120  0.0419 -0.3580 -0.2951
  923MOL0     C24502   4.150   8.625  10.053 -0.4607 -0.1512  0.5625
  923MOL0     C24503   4.233   8.541   9.960  0.7592 -0.6303  1.4198
  923MOL0     C24504   4.165   8.442   9.886 -1.0860 -0.8544  0.0476
  923MOL0     C24505   4.024   8.422   9.902 -0.4152  0.2976 -0.9748
  923MOL0     O24506   3.974   8.318   9.825  0.3266 -0.5073  0.0046
  923MOL0     C24507   3.831   8.297   9.817  0.5653 -0.0763  0.1818
  923MOL0     C24508   3.811   8.208   9.699  1.0781  0.3950  0.1791
  923MOL0     C24509   3.761   8.071   9.732 -0.2320  0.0404  0.0488
  923MOL0     C24510   3.734   7.985   9.607 -0.2524 -0.8078 -0.7375
  923MOL0     C24511   3.690   7.843   9.639  0.2152 -0.4242 -0.1259
  923MOL0     C24512   3.561   7.823   9.722  0.7652 -0.6228  0.0344
  923MOL0     C24513   3.532   7.668   9.734 -0.4729 -0.2878 -0.0655
  923MOL0     C24514   3.423   7.637   9.832  0.7475 -0.6997 -0.0668
  923MOL0    Cl24515   3.458   7.476   9.898 -0.2908 -0.4482 -0.5025
  923MOL0     C24516   3.951   8.488  10.000  2.0372  0.6077  1.1054
  923MOL0     C24517   4.011   8.597  10.064 -0.4139  0.0062 -0.7004
  923MOL0     O24518   4.066   8.882  10.078  0.0963  0.1546  0.3637
  923MOL0     C24519   4.260   8.868  10.370  0.4804 -0.3145 -0.1744
  923MOL0     C24520   4.313   8.939  10.476  0.1054  0.4240  0.2210
  923MOL0     N24521   4.769   9.427  10.475 -0.1348 -0.4335 -0.0263
  923MOL0     N24522   4.855   9.523  10.456 -0.2419 -0.5136  0.3325
  923MOL0     C24523   5.969   9.535  10.632  1.5031 -0.5218  0.2841
  923MOL0     C24524   6.078   9.563  10.721 -0.3058  0.0868  0.2925
  923MOL0     C24525   6.316   9.792  11.055  0.0437 -0.3188 -0.0875
  923MOL0     C24526   6.374   9.669  11.095  0.2224 -0.2940  0.2049
  923MOL0     C24527   6.491   9.668  11.174  0.3899  0.0088  0.3674
  923MOL0     C24528   6.555   9.785  11.208  0.0433 -0.4064  0.4255
  923MOL0     O24529   6.668   9.771  11.273  0.4136 -0.5529  0.3081
  923MOL0     C24530   6.750   9.882  11.298 -0.0947 -0.4465 -0.2116
  923MOL0     C24531   6.833   9.910  11.171 -0.9210  0.3136  0.5912
  923MOL0     C24532   6.922  10.026  11.209  0.8317  0.3544  0.4010
  923MOL0     C24533   7.012  10.088  11.100  0.4428  0.2968  0.3527
  923MOL0     C24534   7.104   9.992  11.043  0.3117 -1.2599 -0.0116
  923MOL0     C24535   7.188   9.922  11.000 -0.1956  0.2396  0.3977
  923MOL0     C24536   6.499   9.905  11.168  0.1171  0.1828  0.0782
  923MOL0     C24537   6.380   9.915  11.101  0.3254 -1.0722  0.0875
  923MOL0     H24538   5.901   9.782  10.922  2.1750 -0.4482  2.1984
  923MOL0     H24539   5.735   9.749  10.750 -0.2603 -0.6274  3.0118
  923MOL0     H24540   5.868   9.629  10.376  0.6988 -1.7096 -3.3284
  923MOL0     H24541   5.816   9.466  10.403  1.2328 -0.1245  0.4482
  923MOL0     H24542   5.660   9.707  10.317  1.4503  0.5338  1.7339
  923MOL0     H24543   5.725   9.568  10.237 -2.3391  0.3634 -0.5560
  923MOL0     H24544   5.482   9.536  10.251  1.4263  1.1448 -0.7107
  923MOL0     H24545   5.572   9.405  10.316  0.3715 -0.7862 -0.2645
  923MOL0     H24546   5.495   9.459  10.546  3.1900  0.3694 -1.1675
  923MOL0     H24547   5.440   9.625  10.479  2.0128  1.2219 -0.8992
  923MOL0     H24548   5.281   9.471  10.335  1.9056 -1.0288 -0.8631
  923MOL0     H24549   5.352   9.346  10.438  3.1100  1.1607  2.0779
  923MOL0     H24550   5.129   9.391  10.517 -1.8129  0.6492  1.1376
  923MOL0     H24551   5.236   9.447  10.633 -1.8940 -0.9335 -0.0832
  923MOL0     H24552   5.222   9.693  10.554 -0.5896  0.9648 -1.6771
  923MOL0     H24553   5.138   9.655  10.424  1.9202  1.6693  0.9753
  923MOL0     H24554   4.966   9.719  10.595 -3.2190 -2.6289  0.1267
  923MOL0     H24555   5.045   9.604  10.714 -1.1530  0.0454  0.1746
  923MOL0     H24556   4.929   9.417  10.762  1.2498 -1.3587 -1.2043
  923MOL0     H24557   4.670   9.191  10.554 -2.1944 -0.4925  1.2080
  923MOL0     H24558   4.785   9.167  10.706 -0.4120  0.9490  2.2764
  923MOL0     H24559   4.636   9.288  10.829 -2.3411  3.3116  0.1386
  923MOL0     H24560   4.557   9.154  10.747 -0.1947 -0.3233 -2.5394
  923MOL0     H24561   4.516   9.440  10.653  1.4144 -0.8612  2.3908
  923MOL0     H24562   4.422   9.357  10.771 -1.0469 -0.4808 -0.0419
  923MOL0     H24563   4.480   9.283  10.481 -0.1204  0.5821  0.1008
  923MOL0     H24564   4.314   9.332  10.543  0.8443 -0.3830 -3.9080
  923MOL0     H24565   4.261   9.256  10.361  2.7239  0.2209 -2.2675
  923MOL0     H24566   4.257   9.091  10.054  0.0582 -1.2835  1.0470
  923MOL0     H24567   4.090   9.132  10.095 -0.2795  1.0622  1.4573
  923MOL0     H24568   4.226   9.248  10.139  2.9053 -0.4612  0.8734
  923MOL0     H24569   4.338   8.559   9.944  1.1860 -2.3530  2.0769
  923MOL0     H24570   4.221   8.385   9.812 -2.0471  0.6689 -1.9532
  923MOL0     H24571   3.811   8.249   9.913 -0.5132  1.3946  0.7413
  923MOL0     H24572   3.772   8.388   9.835 -1.1031 -1.9242  6.6143
  923MOL0     H24573   3.738   8.255   9.633 -0.7596 -0.8011  1.2865
  923MOL0     H24574   3.904   8.197   9.642  1.6856 -0.7201  1.3290
  923MOL0     H24575   3.672   8.065   9.795  1.3151  1.5794  2.5428
  923MOL0     H24576   3.836   8.024   9.796 -0.5405 -0.4911  0.0262
  923MOL0     H24577   3.658   8.023   9.539  1.7785  0.2147 -2.5770
  923MOL0     H24578   3.830   7.985   9.554 -0.4940  1.1389 -1.2439
  923MOL0     H24579   3.769   7.785   9.688 -0.1152  0.0516  0.9982
  923MOL0     H24580   3.674   7.796   9.542  0.2878 -2.6658  0.8696
  923MOL0     H24581   3.562   7.867   9.822  1.7457 -1.4734  0.4189
  923MOL0     H24582   3.478   7.872   9.671  0.5097 -0.5332  0.5262
  923MOL0     H24583   3.619   7.618   9.778 -0.8279  0.4076  1.5024
  923MOL0     H24584   3.509   7.623   9.637  1.6469  0.2111 -0.8707
  923MOL0     H24585   3.329   7.650   9.776  0.0297  0.5903  1.3549
  923MOL0     H24586   3.410   7.711   9.912  0.0166 -0.1523 -0.6747
  923MOL0     H24587   3.847   8.475  10.028  0.7031  0.7282 -3.0387
  923MOL0     H24588   3.947   8.653  10.132 -0.9867  0.7222 -1.8021
  923MOL0     H24589   4.274   8.761  10.378 -0.9486 -0.4776  0.4861
  923MOL0     H24590   4.345   8.889  10.567  0.5970  1.5171  0.6666
  923MOL0     H24591   5.978   9.466  10.549 -0.4103 -0.2795 -0.1705
  923MOL0     H24592   6.178   9.524  10.711 -0.2128  0.6781 -1.3318
  923MOL0     H24593   6.318   9.578  11.077 -0.5908  0.5256 -1.6265
  923MOL0     H24594   6.531   9.572  11.206 -0.8487 -0.4975  0.4517
  923MOL0     H24595   6.693   9.973  11.321 -2.7697 -0.8225 -4.2880
  923MOL0     H24596   6.813   9.853  11.383 -0.1871 -2.3917 -0.7668
  923MOL0     H24597   6.764   9.926  11.087 -2.1571  0.0047  1.5142
  923MOL0     H24598   6.897   9.824  11.150 -0.8528  0.4693  0.1573
  923MOL0     H24599   6.996   9.976  11.272 -0.2932 -1.6178  0.2203
  923MOL0     H24600   6.857  10.106  11.248 -3.3059 -1.9010 -1.1761
  923MOL0     H24601   7.073  10.167  11.145 -0.1405  1.4545 -0.8420
  923MOL0     H24602   6.954  10.139  11.023  0.8713 -0.8834 -0.7720
  923MOL0     H24603   7.273   9.863  10.974 -0.6776 -0.4039  0.2567
  923MOL0     H24604   6.532  10.008  11.181 -1.0088  0.2327  3.7753
  923MOL0     H24605   6.348  10.012  11.064  3.3876  0.3934  0.9458
  924MOL0     O24606  10.985  10.513   3.716  0.5233  0.3233 -0.9210
  924MOL0     C24607  10.921  10.558   3.808  0.2727 -0.5683 -0.1748
  924MOL0     O24608  10.962  10.655   3.895  0.4928  0.3541 -0.5686
  924MOL0     C24609  11.096  10.672   3.927  0.1705 -0.9189 -0.3063
  924MOL0     C24610  11.206  10.632   3.852  0.1046 -0.1394  0.6411
  924MOL0     C24611  11.341  10.672   3.895  0.0865 -0.7842 -1.1349
  924MOL0     C24612  11.356  10.760   4.001 -0.6778  0.3716 -0.3115
  924MOL0     O24613  11.478  10.799   4.048  0.3224 -0.4977 -0.3486
  924MOL0     C24614  11.596  10.751   3.978  0.4450 -0.2665 -0.6046
  924MOL0     C24615  11.717  10.821   4.021  0.2115  0.1396 -0.7248
  924MOL0     C24616  11.833  10.794   3.919  0.9852 -0.3967 -0.5451
  924MOL0     C24617  11.964  10.867   3.949  0.9329  0.9886  0.2335
  924MOL0     C24618  12.074  10.785   3.886  0.5760  0.0101  1.3159
  924MOL0     C24619  12.202  10.851   3.930 -0.8780 -0.5939  0.0969
  924MOL0     C24620  12.336  10.817   3.850  0.6589 -0.2313 -0.1631
  924MOL0     C24621  12.381  10.932   3.761 -0.1117  0.2458 -0.0771
  924MOL0     N24622  12.520  10.920   3.723  0.4015 -0.0343  0.1289
  924MOL0     C24623  12.628  10.878   3.799  0.9675 -0.1858  0.4483
  924MOL0     C24624  12.725  10.858   3.703 -0.0755 -0.4313  0.6063
  924MOL0     C24625  12.867  10.818   3.728  0.6521  0.9227  0.2396
  924MOL0     C24626  12.906  10.708   3.632 -0.0140 -0.2028  0.5526
  924MOL0     C24627  12.977  10.777   3.508  1.6520  0.7540  0.1260
  924MOL0     C24628  13.054  10.675   3.420 -0.0522 -0.3659  0.2459
  924MOL0     O24629  12.987  10.554   3.422 -0.2286  0.0663 -0.2132
  924MOL0     C24630  13.058  10.441   3.389 -0.0189 -0.1735 -1.0467
  924MOL0     C24631  13.196  10.431   3.371  0.2698 -0.1713  0.4567
  924MOL0     C24632  13.259  10.304   3.344  0.0244 -0.0158 -0.2805
  924MOL0     C24633  13.408  10.308   3.315 -0.1148 -0.2685 -0.6550
  924MOL0     C24634  13.178  10.193   3.343 -0.2814  0.3396  0.0655
  924MOL0     C24635  13.217  10.064   3.296 -0.7576 -0.6166 -0.0522
  924MOL0     O24636  13.125   9.991   3.221  0.5722  0.1428 -0.1270
  924MOL0     C24637  13.159   9.868   3.183 -0.5025 -0.2723 -0.0057
  924MOL0     C24638  13.202   9.837   3.046 -0.7449 -0.4621 -0.1965
  924MOL0     C24639  13.226   9.707   3.002  0.0585 -0.1334 -0.3645
  924MOL0     C24640  13.217   9.600   3.088 -0.0643  0.2493 -0.5942
  924MOL0     O24641  13.264   9.478   3.050  0.1838 -0.0288 -0.4123
  924MOL0     C24642  13.174   9.409   2.959 -0.8778 -0.1212 -0.3433
  924MOL0     C24643  13.041   9.377   3.030 -0.0454  0.4355  0.2170
  924MOL0     C24644  12.958   9.283   2.943 -0.5957  0.0765  0.0636
  924MOL0     C24645  12.820   9.249   2.997  0.4349 -0.4267 -0.0229
  924MOL0     C24646  12.753   9.142   2.924 -1.0965  0.4027  0.4439
  924MOL0     C24647  12.621   9.091   2.983 -0.6774 -0.6534 -0.0229
  924MOL0     C24648  12.497   9.175   2.964 -0.3193 -0.9599 -0.0998
  924MOL0     C24649  12.431   9.158   2.832 -1.2820  0.9320  0.6392
  924MOL0    Cl24650  12.274   9.243   2.832 -0.4754 -0.4298  0.3809
  924MOL0     C24651  13.188   9.624   3.224 -0.5028 -0.3559 -0.5184
  924MOL0     C24652  13.163   9.754   3.276  0.6758  0.2463  0.0527
  924MOL0     O24653  13.322  10.015   3.335  0.6239 -0.2327  0.4322
  924MOL0     C24654  13.038  10.201   3.369  0.4776  0.7402  0.6909
  924MOL0     C24655  12.984  10.327   3.391  0.2248  0.6668 -0.0703
  924MOL0     N24656  12.669  10.872   3.577 -0.1841 -0.5645 -0.8568
  924MOL0     N24657  12.545  10.911   3.587  0.1256  0.1388 -0.1143
  924MOL0     C24658  11.244  10.813   4.071 -0.7403  0.1186  1.1626
  924MOL0     C24659  11.118  10.758   4.034  0.3387 -0.7879 -0.3094
  924MOL0     C24660  10.781  10.520   3.825  0.7588  0.3299  0.1246
  924MOL0     C24661  10.741  10.392   3.789 -0.6192  0.4508 -0.6855
  924MOL0     C24662  10.609  10.354   3.806 -0.4441  0.2352  0.4166
  924MOL0     C24663  10.511  10.442   3.860  0.3519 -0.2121  0.3398
  924MOL0     O24664  10.380  10.398   3.882  1.0135 -0.2936 -0.1583
  924MOL0     C24665  10.275  10.472   3.953  0.6744  0.4724  0.4073
  924MOL0     C24666  10.156  10.359   3.967 -0.3280 -0.3352  0.5471
  924MOL0     C24667  10.019  10.420   4.014 -0.1574 -0.8410  0.0512
  924MOL0     C24668   9.887  10.349   3.982 -0.9317  0.9140 -0.1452
  924MOL0     C24669   9.879  10.210   4.032  0.1129 -0.6987  1.4447
  924MOL0     C24670   9.867  10.099   4.082 -0.1818 -0.4863 -0.4819
  924MOL0     C24671  10.552  10.570   3.882 -0.2303  0.9666 -0.0096
  924MOL0     C24672  10.687  10.610   3.875  0.2483  0.1776 -0.9855
  924MOL0     H24673  11.198  10.564   3.768 -3.3959  1.0642 -0.1419
  924MOL0     H24674  11.419  10.624   3.837  2.2149  2.0052 -0.7831
  924MOL0     H24675  11.623  10.647   4.000  1.5749 -0.2479 -1.7478
  924MOL0     H24676  11.590  10.750   3.868 -1.1179 -2.1253 -0.5658
  924MOL0     H24677  11.698  10.926   4.047  4.1340  0.3907  2.0036
  924MOL0     H24678  11.748  10.777   4.117  1.7142  3.4148  0.4524
  924MOL0     H24679  11.847  10.687   3.933  0.5732 -0.0930  3.2655
  924MOL0     H24680  11.802  10.818   3.817 -0.3947  1.7523  0.2926
  924MOL0     H24681  11.965  10.969   3.910  1.2482  0.3956 -1.3880
  924MOL0     H24682  11.977  10.862   4.058  1.5669 -0.8943  0.1110
  924MOL0     H24683  12.063  10.681   3.916 -1.6408 -0.5890 -1.2388
  924MOL0     H24684  12.055  10.788   3.778 -4.3765 -1.5882  1.9125
  924MOL0     H24685  12.186  10.959   3.929  3.7732  0.3727  2.1141
  924MOL0     H24686  12.214  10.834   4.037 -0.4183  2.5826  0.6368
  924MOL0     H24687  12.413  10.803   3.925  0.4550  1.0601  0.3185
  924MOL0     H24688  12.326  10.727   3.789 -3.6564  0.4465 -0.8116
  924MOL0     H24689  12.386  11.025   3.818 -2.2848  2.2566 -2.8676
  924MOL0     H24690  12.325  10.948   3.668 -1.8479 -2.8343  0.2909
  924MOL0     H24691  12.640  10.875   3.907 -1.0541  0.4253  0.7456
  924MOL0     H24692  12.932  10.905   3.721  1.2829  0.3871 -5.5092
  924MOL0     H24693  12.875  10.771   3.827 -1.3632 -1.7121 -0.7192
  924MOL0     H24694  12.816  10.653   3.603 -0.2198  0.1052  0.6070
  924MOL0     H24695  12.976  10.635   3.674  2.5497  1.8334  0.0798
  924MOL0     H24696  13.027  10.868   3.539  0.1275  0.9584  2.1714
  924MOL0     H24697  12.896  10.807   3.440  1.8332 -0.9843 -0.9233
  924MOL0     H24698  13.152  10.669   3.468 -0.8773  1.9009  2.3899
  924MOL0     H24699  13.076  10.724   3.324  2.5232  2.6496  2.1917
  924MOL0     H24700  13.259  10.519   3.378 -0.7063  0.9564 -3.0141
  924MOL0     H24701  13.442  10.410   3.296  3.7623 -1.5211 -1.3753
  924MOL0     H24702  13.474  10.278   3.397  0.0483  0.9395 -0.3352
  924MOL0     H24703  13.418  10.244   3.227  0.3926  3.2528 -3.3715
  924MOL0     H24704  13.214   9.917   2.974  2.8117  0.6991  1.4252
  924MOL0     H24705  13.255   9.700   2.898  0.5738 -0.5899 -0.1965
  924MOL0     H24706  13.154   9.477   2.875 -0.9971  0.0488 -0.1791
  924MOL0     H24707  13.219   9.315   2.928 -0.8217 -0.0170 -0.5844
  924MOL0     H24708  13.062   9.321   3.121 -0.9827  1.6676  1.2273
  924MOL0     H24709  12.992   9.475   3.039  2.2619  1.7992 -1.0869
  924MOL0     H24710  12.993   9.180   2.941 -5.1537 -1.7131 -2.0958
  924MOL0     H24711  12.958   9.321   2.841 -0.9913 -0.1217 -0.0125
  924MOL0     H24712  12.833   9.223   3.102  2.2048 -0.0370 -0.1219
  924MOL0     H24713  12.755   9.337   2.994  0.1498 -0.5399  1.8271
  924MOL0     H24714  12.831   9.065   2.933 -0.8727  0.5147 -0.3882
  924MOL0     H24715  12.733   9.169   2.820 -2.4162 -3.0203 -0.3304
  924MOL0     H24716  12.596   8.997   2.931  0.3244 -1.7654  1.4312
  924MOL0     H24717  12.632   9.071   3.090  0.5280 -1.0104 -0.2012
  924MOL0     H24718  12.529   9.279   2.970  1.0746 -1.2707 -1.5654
  924MOL0     H24719  12.428   9.154   3.047  0.5675  1.8464  1.4731
  924MOL0     H24720  12.422   9.051   2.815  1.2567  1.0165 -1.9991
  924MOL0     H24721  12.497   9.195   2.753 -1.2906 -1.0026 -0.3159
  924MOL0     H24722  13.180   9.545   3.297 -2.7332 -0.0433 -0.3654
  924MOL0     H24723  13.144   9.765   3.382 -0.7170 -1.1681 -0.0111
  924MOL0     H24724  12.980  10.109   3.375  2.4360 -0.4922  2.2188
  924MOL0     H24725  12.881  10.324   3.424 -0.0836 -2.4624 -0.9584
  924MOL0     H24726  11.261  10.894   4.140  0.5564  0.9084 -0.0230
  924MOL0     H24727  11.026  10.789   4.082 -1.0572 -4.2184 -0.4835
  924MOL0     H24728  10.814  10.315   3.767 -0.0924  0.3788  1.1247
  924MOL0     H24729  10.582  10.252   3.780  0.5079 -0.1635  0.9287
  924MOL0     H24730  10.294  10.511   4.053  0.9797 -1.5388  1.1831
  924MOL0     H24731  10.247  10.556   3.888 -0.4425 -0.2689 -0.1058
  924MOL0     H24732  10.193  10.275   4.026  0.5686  0.5790  1.3293
  924MOL0     H24733  10.142  10.321   3.865 -2.7430  1.3812  0.1418
  924MOL0     H24734  10.007  10.523   3.978 -0.7241 -0.6600  0.7504
  924MOL0     H24735  10.016  10.412   4.123  0.3418 -2.5971 -0.0358
  924MOL0     H24736   9.883  10.344   3.872 -1.2505  2.8047 -0.2383
  924MOL0     H24737   9.796  10.406   4.003 -1.6361 -0.4533  0.6555
  924MOL0     H24738   9.839  10.004   4.122 -0.5053 -0.2084 -0.0337
  924MOL0     H24739  10.480  10.621   3.945  0.9218  0.4692  1.7943
  924MOL0     H24740  10.721  10.708   3.907  0.9447 -0.6430  0.8967
  925MOL0     O24741   8.736   9.455   6.420  0.4891 -0.0973  0.0441
  925MOL0     C24742   8.763   9.360   6.341 -0.7551 -0.0431 -0.2310
  925MOL0     O24743   8.671   9.305   6.258 -0.5509  1.4288 -0.6561
  925MOL0     C24744   8.541   9.315   6.281 -0.5701  0.2115  0.6717
  925MOL0     C24745   8.461   9.197   6.292 -0.1095 -0.7250 -0.2139
  925MOL0     C24746   8.321   9.208   6.293 -0.5321  0.9501 -0.4799
  925MOL0     C24747   8.260   9.340   6.283  0.5288  0.6717 -0.0717
  925MOL0     O24748   8.120   9.339   6.276 -0.3794  0.1034  0.2937
  925MOL0     C24749   8.063   9.445   6.349 -1.1605  0.1057 -1.3905
  925MOL0     C24750   7.914   9.411   6.373 -0.5778  0.5193  0.1722
  925MOL0     C24751   7.846   9.408   6.240  0.4079 -0.0329 -0.0974
  925MOL0     C24752   7.796   9.539   6.191 -0.6580  0.2152  0.8003
  925MOL0     C24753   7.745   9.526   6.043  0.0845  0.0539 -0.1480
  925MOL0     C24754   7.615   9.446   6.027  0.7486 -0.6350 -0.4178
  925MOL0     C24755   7.486   9.478   6.120 -0.5521  0.1651  0.1065
  925MOL0     C24756   7.369   9.413   6.059 -0.1544  0.1115  0.6832
  925MOL0     N24757   7.257   9.396   6.155 -0.1353  0.2193 -0.1313
  925MOL0     C24758   7.180   9.496   6.206  0.5577  0.5307  0.8210
  925MOL0     C24759   7.101   9.426   6.301  0.3822  0.7484  0.2123
  925MOL0     C24760   6.982   9.490   6.368  0.2995  0.3547  0.3411
  925MOL0     C24761   6.858   9.495   6.283  0.5572  0.7467  0.3337
  925MOL0     C24762   6.747   9.547   6.365 -0.6773  0.2030 -0.3939
  925MOL0     C24763   6.696   9.443   6.467 -0.3063 -0.7528  0.0496
  925MOL0     O24764   6.567   9.487   6.513 -0.7967  0.2177  0.2619
  925MOL0     C24765   6.449   9.427   6.480 -0.4217 -0.6377 -0.5058
  925MOL0     C24766   6.444   9.329   6.392 -0.0780  0.6577 -0.2944
  925MOL0     C24767   6.316   9.277   6.350 -0.2801  0.4991  0.1361
  925MOL0     C24768   6.330   9.172   6.233 -1.1637  0.7418  0.0760
  925MOL0     C24769   6.195   9.331   6.405 -0.1791  0.1452 -0.4313
  925MOL0     C24770   6.056   9.293   6.361 -0.6240  0.3256  0.1390
  925MOL0     O24771   5.953   9.364   6.425  0.1831 -0.1774 -0.4978
  925MOL0     C24772   5.828   9.385   6.369 -0.3959 -0.3269 -0.0242
  925MOL0     C24773   5.769   9.323   6.251 -0.4332  0.5055  0.3020
  925MOL0     C24774   5.633   9.350   6.218  0.6377 -0.9388  0.1184
  925MOL0     C24775   5.547   9.432   6.298  0.0754 -0.3178 -0.2545
  925MOL0     O24776   5.417   9.436   6.252  0.1220  0.0399 -0.3902
  925MOL0     C24777   5.340   9.528   6.334  0.0901 -0.4985  0.8759
  925MOL0     C24778   5.207   9.544   6.256 -0.3883 -0.7899  0.3267
  925MOL0     C24779   5.228   9.650   6.150  0.5492  0.2291  0.0260
  925MOL0     C24780   5.081   9.702   6.116 -0.0757 -0.5038  0.3662
  925MOL0     C24781   5.085   9.833   6.030  0.4165 -1.2948  0.4063
  925MOL0     C24782   4.959   9.872   5.948  0.2351 -0.1365  0.9108
  925MOL0     C24783   4.899   9.766   5.853  0.1742  0.2211 -0.1659
  925MOL0     C24784   4.787   9.819   5.759 -0.9264  0.2242 -0.4648
  925MOL0    Cl24785   4.847   9.937   5.637  0.2446 -0.0359 -0.2631
  925MOL0     C24786   5.599   9.480   6.414 -0.2327  0.0667  0.0677
  925MOL0     C24787   5.733   9.454   6.447  0.1562 -0.2072 -0.4103
  925MOL0     O24788   6.048   9.208   6.273 -0.1656 -0.8823  0.2196
  925MOL0     C24789   6.212   9.440   6.496  0.5158  1.4771 -0.8794
  925MOL0     C24790   6.335   9.487   6.535 -0.6535 -0.0145 -1.1545
  925MOL0     N24791   7.125   9.287   6.285 -0.5639 -0.0904 -0.3113
  925MOL0     N24792   7.214   9.267   6.192  0.5559  0.5240  0.8279
  925MOL0     C24793   8.340   9.446   6.265 -0.7586  0.3676  0.2019
  925MOL0     C24794   8.478   9.436   6.267 -0.6876  0.1421 -0.4206
  925MOL0     C24795   8.907   9.330   6.326 -0.7786 -0.1414  0.3081
  925MOL0     C24796   9.014   9.405   6.381  0.1895  0.3311  0.2181
  925MOL0     C24797   9.144   9.349   6.374  0.9978 -0.3787  0.4950
  925MOL0     C24798   9.170   9.226   6.323 -0.5451 -0.3993  0.2917
  925MOL0     O24799   9.303   9.195   6.322  0.0166  0.2281 -0.3813
  925MOL0     C24800   9.354   9.064   6.295  0.1808 -0.3326  0.2271
  925MOL0     C24801   9.304   8.954   6.398  0.6835  0.4267  0.3422
  925MOL0     C24802   9.355   8.979   6.537  0.0872  0.1844  0.0180
  925MOL0     C24803   9.249   8.961   6.658 -0.1351 -0.2336  0.6508
  925MOL0     C24804   9.126   9.047   6.643 -0.8412 -0.4071  0.5424
  925MOL0     C24805   9.021   9.113   6.629 -0.5604  0.2158 -1.0265
  925MOL0     C24806   9.070   9.165   6.252 -0.4471  0.7660 -0.1139
  925MOL0     C24807   8.937   9.205   6.270 -0.1011  0.4371 -0.0447
  925MOL0     H24808   8.499   9.095   6.289  0.1499 -0.6217 -0.5596
  925MOL0     H24809   8.257   9.121   6.300  0.9354 -0.0262  1.4860
  925MOL0     H24810   8.120   9.461   6.442  1.1800 -2.7336 -2.2001
  925MOL0     H24811   8.072   9.530   6.281 -0.8938 -0.0042 -1.4914
  925MOL0     H24812   7.916   9.312   6.421 -0.9563  0.0369 -0.7744
  925MOL0     H24813   7.874   9.481   6.446 -0.2133 -0.5445  1.4235
  925MOL0     H24814   7.903   9.360   6.160 -1.7504  1.1919 -2.5192
  925MOL0     H24815   7.753   9.353   6.257  0.4513 -0.3193 -0.7609
  925MOL0     H24816   7.706   9.568   6.247 -0.6823  3.1742 -0.5554
  925MOL0     H24817   7.874   9.615   6.193 -1.6966  1.3158  0.7419
  925MOL0     H24818   7.715   9.628   6.019  0.9315  0.2648 -0.3367
  925MOL0     H24819   7.822   9.501   5.968  0.6735  1.4408 -0.0281
  925MOL0     H24820   7.586   9.462   5.923 -0.9495  0.7473  0.2140
  925MOL0     H24821   7.635   9.339   6.036  3.8127 -0.2993 -1.7996
  925MOL0     H24822   7.511   9.449   6.222 -0.6352  0.4883  0.2199
  925MOL0     H24823   7.472   9.587   6.124 -1.8740  0.0983 -1.4380
  925MOL0     H24824   7.390   9.311   6.026 -2.5118 -0.4328  0.6752
  925MOL0     H24825   7.335   9.470   5.972 -1.3473 -1.7701 -0.1409
  925MOL0     H24826   7.182   9.603   6.189 -2.2922  0.9640  2.5492
  925MOL0     H24827   6.960   9.437   6.461 -2.9292 -0.3298 -0.6809
  925MOL0     H24828   7.000   9.594   6.395  0.2363 -0.0319  1.9647
  925MOL0     H24829   6.844   9.397   6.237  0.4795  0.1507  1.5957
  925MOL0     H24830   6.880   9.566   6.203  2.3659 -1.0576 -0.8836
  925MOL0     H24831   6.661   9.575   6.304 -0.3361  1.3215 -0.3910
  925MOL0     H24832   6.770   9.641   6.415  0.0146  0.9156 -1.9783
  925MOL0     H24833   6.758   9.448   6.557 -0.0995  2.5761 -0.1612
  925MOL0     H24834   6.701   9.342   6.424 -1.0536  0.6064 -3.6047
  925MOL0     H24835   6.535   9.298   6.342  1.4150  0.7907  2.1951
  925MOL0     H24836   6.285   9.206   6.140 -0.4810 -1.0429 -0.9595
  925MOL0     H24837   6.435   9.154   6.208 -0.4292  1.7158  2.2530
  925MOL0     H24838   6.284   9.082   6.275  2.6969  0.4981  4.6121
  925MOL0     H24839   5.815   9.253   6.181 -0.9889 -0.9984  1.3909
  925MOL0     H24840   5.581   9.307   6.134  0.0490  0.1306 -0.0903
  925MOL0     H24841   5.324   9.476   6.429  3.5369 -1.6829  0.9578
  925MOL0     H24842   5.395   9.619   6.358 -1.4016  0.2647  1.5558
  925MOL0     H24843   5.190   9.445   6.213 -2.3369  0.1073 -1.1271
  925MOL0     H24844   5.124   9.573   6.321 -0.6726  1.4633 -0.9450
  925MOL0     H24845   5.287   9.601   6.073  1.4675 -1.6482  1.8375
  925MOL0     H24846   5.274   9.739   6.194  2.7368  0.1748 -1.9697
  925MOL0     H24847   5.021   9.617   6.079 -2.1041 -0.1508  2.5539
  925MOL0     H24848   5.036   9.736   6.210 -0.4478  0.4704 -0.1501
  925MOL0     H24849   5.160   9.812   5.953 -1.4036 -1.3349 -1.4466
  925MOL0     H24850   5.126   9.915   6.090  0.6706 -0.5531 -0.7519
  925MOL0     H24851   4.888   9.905   6.024  1.5485  2.0053  1.2937
  925MOL0     H24852   4.987   9.960   5.890 -3.2503  0.5987  0.1235
  925MOL0     H24853   4.866   9.690   5.924 -1.5725  1.1737  0.1096
  925MOL0     H24854   4.988   9.733   5.798 -0.0640  2.4901 -2.0725
  925MOL0     H24855   4.716   9.868   5.827 -0.9723 -2.5774  1.6757
  925MOL0     H24856   4.738   9.734   5.712  1.8207 -2.3748  1.0527
  925MOL0     H24857   5.555   9.550   6.484 -1.1733  0.5422 -0.9583
  925MOL0     H24858   5.769   9.507   6.535 -0.6865  3.3705 -2.0133
  925MOL0     H24859   6.130   9.478   6.557  0.9739 -0.2356  0.8897
  925MOL0     H24860   6.345   9.577   6.595 -1.3634 -0.1915 -0.7602
  925MOL0     H24861   8.289   9.537   6.236  0.1274  0.0212 -2.7670
  925MOL0     H24862   8.547   9.520   6.259  0.3306 -0.5796  0.4432
  925MOL0     H24863   9.008   9.505   6.423  0.5885  0.5470 -0.2237
  925MOL0     H24864   9.232   9.393   6.420  0.2418 -0.7216  2.3437
  925MOL0     H24865   9.340   9.031   6.191 -0.7893 -2.8090  1.0704
  925MOL0     H24866   9.459   9.082   6.319  0.1786 -1.3048  1.0291
  925MOL0     H24867   9.344   8.857   6.369  2.8206  1.1882  0.6250
  925MOL0     H24868   9.195   8.949   6.405  0.6238 -2.6211 -1.0265
  925MOL0     H24869   9.394   9.080   6.551 -2.6043  1.2004  0.7964
  925MOL0     H24870   9.441   8.913   6.551  1.0261  1.0880 -1.3150
  925MOL0     H24871   9.294   8.996   6.751 -1.7670  0.2562  1.2845
  925MOL0     H24872   9.234   8.853   6.674 -1.3219 -0.0397  0.9449
  925MOL0     H24873   8.926   9.161   6.619 -0.9493  0.2647  1.9688
  925MOL0     H24874   9.096   9.076   6.197  0.2290 -0.4192  2.0180
  925MOL0     H24875   8.857   9.151   6.222 -0.0338 -0.8751  1.2625
  926MOL0     O24876   6.027   8.286   6.332 -0.1983 -0.1539  0.3675
  926MOL0     C24877   6.087   8.393   6.301  0.2499 -0.1311  0.7643
  926MOL0     O24878   6.213   8.425   6.333 -0.1020  0.0334  0.0664
  926MOL0     C24879   6.299   8.326   6.335 -0.4568  0.8490  0.5503
  926MOL0     C24880   6.364   8.300   6.455 -0.8064 -0.2436 -0.0588
  926MOL0     C24881   6.457   8.199   6.473  0.0280 -0.3694  0.3375
  926MOL0     C24882   6.498   8.121   6.366  1.0646  0.3979  0.8758
  926MOL0     O24883   6.569   8.008   6.397 -0.1732 -0.0023 -0.4650
  926MOL0     C24884   6.596   7.911   6.301  0.8771  0.4823 -0.1905
  926MOL0     C24885   6.473   7.822   6.276 -0.2919  0.0157  0.5906
  926MOL0     C24886   6.503   7.670   6.246 -0.0583 -1.5503  0.2749
  926MOL0     C24887   6.383   7.576   6.210  0.8740 -0.5025  0.4855
  926MOL0     C24888   6.290   7.549   6.328 -0.2974  0.1499  0.6304
  926MOL0     C24889   6.171   7.466   6.281  0.5803 -0.6771 -0.4538
  926MOL0     C24890   6.076   7.426   6.395  0.5941  0.3198 -0.4531
  926MOL0     C24891   6.109   7.308   6.487  0.6427 -0.7023  0.0608
  926MOL0     N24892   6.003   7.306   6.589 -0.4169  0.0972 -0.7295
  926MOL0     C24893   5.870   7.278   6.564  0.1994  0.5816 -0.3767
  926MOL0     C24894   5.814   7.252   6.691  0.9237  0.3785  0.5093
  926MOL0     C24895   5.675   7.213   6.738 -0.4203  0.8231  0.1296
  926MOL0     C24896   5.590   7.347   6.773  0.1243 -0.1730 -0.1494
  926MOL0     C24897   5.450   7.316   6.819 -0.2479  0.2676 -1.0032
  926MOL0     C24898   5.364   7.440   6.840  0.3368  0.4970  0.6238
  926MOL0     O24899   5.278   7.407   6.947  1.0210 -0.0731 -0.2842
  926MOL0     C24900   5.154   7.439   6.906 -0.3642  0.1348  0.3291
  926MOL0     C24901   5.117   7.573   6.912  1.3921 -0.0199 -0.6897
  926MOL0     C24902   4.990   7.614   6.880  1.1249 -0.2220 -0.6213
  926MOL0     C24903   4.958   7.760   6.882  0.6377  0.7658 -0.0291
  926MOL0     C24904   4.897   7.514   6.838 -0.6393 -0.5636  0.4460
  926MOL0     C24905   4.760   7.533   6.807 -0.1901 -0.2407  1.0102
  926MOL0     O24906   4.724   7.445   6.704  0.0633 -0.1709  0.5141
  926MOL0     C24907   4.610   7.461   6.638 -0.8795 -0.3196  0.6239
  926MOL0     C24908   4.609   7.408   6.507 -0.1835 -0.2239  0.1787
  926MOL0     C24909   4.495   7.403   6.432 -0.1414  0.5581 -0.1790
  926MOL0     C24910   4.379   7.462   6.471 -0.3172  0.4396  0.3703
  926MOL0     O24911   4.267   7.464   6.396  0.2724  0.3695  0.1589
  926MOL0     C24912   4.271   7.465   6.253  0.1735 -0.1705  0.5614
  926MOL0     C24913   4.137   7.498   6.187  0.2455  0.6019 -1.7653
  926MOL0     C24914   4.020   7.399   6.242 -0.8875 -0.0292  0.4003
  926MOL0     C24915   4.052   7.251   6.244 -0.4101  0.1365 -0.1320
  926MOL0     C24916   3.948   7.167   6.312  0.5262 -0.7260 -0.1006
  926MOL0     C24917   3.844   7.135   6.209  0.2058  0.0127 -0.2718
  926MOL0     C24918   3.726   7.061   6.273 -0.2880  0.4035 -0.5242
  926MOL0     C24919   3.600   7.042   6.187 -0.4379 -0.4942  0.1279
  926MOL0    Cl24920   3.636   6.903   6.072 -0.6292  0.1661 -0.2699
  926MOL0     C24921   4.372   7.514   6.603  0.0277  0.9857 -0.5734
  926MOL0     C24922   4.487   7.505   6.690  0.3182 -0.9007 -0.1739
  926MOL0     O24923   4.694   7.630   6.842  0.2264 -0.4697 -0.0205
  926MOL0     C24924   4.938   7.376   6.828  0.0306 -0.4164 -0.4520
  926MOL0     C24925   5.062   7.334   6.866  0.6712 -0.4254  0.0650
  926MOL0     N24926   5.918   7.260   6.782 -0.1223  0.2343  0.4255
  926MOL0     N24927   6.032   7.299   6.724 -0.5931 -0.5113 -0.1702
  926MOL0     C24928   6.432   8.145   6.245 -0.0228  0.1262 -0.0975
  926MOL0     C24929   6.334   8.242   6.228 -0.7083 -0.9878 -1.2530
  926MOL0     C24930   6.007   8.494   6.230  0.6269  0.1893  0.3749
  926MOL0     C24931   6.066   8.592   6.150  0.6603 -0.7347  0.6229
  926MOL0     C24932   5.985   8.692   6.096  0.3712  0.2617  0.5603
  926MOL0     C24933   5.842   8.690   6.108  0.1766 -0.3117 -0.2607
  926MOL0     O24934   5.754   8.787   6.062  0.7437 -0.3380 -0.2512
  926MOL0     C24935   5.820   8.913   6.020 -0.0883 -0.4695  0.3920
  926MOL0     C24936   5.719   9.018   5.987 -0.2828  0.9139 -0.2553
  926MOL0     C24937   5.640   8.983   5.862 -0.7148 -0.5215  0.8272
  926MOL0     C24938   5.542   9.098   5.841 -0.6843  0.1441 -0.7467
  926MOL0     C24939   5.442   9.126   5.946 -0.2254 -1.1156  1.2624
  926MOL0     C24940   5.359   9.167   6.029 -0.4511 -0.3284 -0.1741
  926MOL0     C24941   5.793   8.587   6.192 -0.5098 -0.5327  0.6451
  926MOL0     C24942   5.863   8.482   6.237  0.0308 -0.4852  0.0275
  926MOL0     H24943   6.349   8.366   6.539  2.5382  0.0598  0.4453
  926MOL0     H24944   6.495   8.176   6.572 -1.6269 -1.0643  0.8515
  926MOL0     H24945   6.642   7.953   6.210  0.8850  0.2933 -0.2750
  926MOL0     H24946   6.668   7.846   6.351 -0.2215 -0.7908 -0.2326
  926MOL0     H24947   6.395   7.839   6.351 -2.6709 -1.2685 -1.4578
  926MOL0     H24948   6.424   7.843   6.180  0.1347 -3.6788 -0.5845
  926MOL0     H24949   6.573   7.674   6.163  0.9218 -0.1789  1.1279
  926MOL0     H24950   6.553   7.631   6.335  2.0354 -0.3400 -0.3150
  926MOL0     H24951   6.331   7.606   6.119  1.7687 -0.6859 -0.0941
  926MOL0     H24952   6.430   7.488   6.165  1.6102  0.4628 -0.6966
  926MOL0     H24953   6.342   7.495   6.408 -0.2702 -1.2921 -0.3245
  926MOL0     H24954   6.263   7.638   6.386 -1.7223 -1.0700  1.9192
  926MOL0     H24955   6.121   7.518   6.199 -0.2999 -0.5915  0.1271
  926MOL0     H24956   6.205   7.376   6.229 -2.2534 -2.3234  0.3315
  926MOL0     H24957   6.047   7.503   6.467  0.2319  0.9965 -1.2967
  926MOL0     H24958   5.989   7.403   6.332  0.2109 -0.8759  0.4919
  926MOL0     H24959   6.207   7.320   6.533  0.8526  2.6928 -1.0679
  926MOL0     H24960   6.103   7.221   6.420 -0.8070 -0.3123 -0.3476
  926MOL0     H24961   5.818   7.271   6.470  0.2792 -1.2411 -0.3100
  926MOL0     H24962   5.627   7.139   6.673  0.4020  1.3545 -1.1261
  926MOL0     H24963   5.685   7.158   6.832  1.7405  1.8786  0.5909
  926MOL0     H24964   5.578   7.405   6.681  0.8274 -0.3656 -0.3727
  926MOL0     H24965   5.633   7.405   6.855 -0.5510  0.9467 -0.5664
  926MOL0     H24966   5.464   7.273   6.919  0.1607 -3.1833 -2.4200
  926MOL0     H24967   5.400   7.244   6.753 -1.7898  1.6504 -1.4104
  926MOL0     H24968   5.302   7.455   6.751 -0.8372  1.9697  1.6385
  926MOL0     H24969   5.409   7.536   6.869 -0.8954  0.9361  1.1792
  926MOL0     H24970   5.183   7.655   6.940  1.0366  0.5363 -1.4521
  926MOL0     H24971   4.937   7.789   6.778 -0.5753  0.4652  0.1153
  926MOL0     H24972   4.870   7.783   6.943 -0.9123  2.2315 -2.6226
  926MOL0     H24973   5.035   7.816   6.935 -0.6348  0.3265  2.3916
  926MOL0     H24974   4.687   7.359   6.450  1.1098  1.7174  0.1620
  926MOL0     H24975   4.493   7.351   6.337 -2.3152 -1.1978  0.7528
  926MOL0     H24976   4.335   7.546   6.218 -2.4715  2.6852  1.8794
  926MOL0     H24977   4.309   7.371   6.211 -2.1252 -0.8211 -0.2708
  926MOL0     H24978   4.102   7.599   6.209 -0.8819  0.3164 -2.1585
  926MOL0     H24979   4.146   7.487   6.079  1.5155  2.0227 -1.8259
  926MOL0     H24980   3.938   7.423   6.174 -0.5792  0.1831  0.0998
  926MOL0     H24981   4.003   7.428   6.346  3.3768  0.7458  1.0587
  926MOL0     H24982   4.074   7.214   6.144  0.0072  0.1039 -0.0294
  926MOL0     H24983   4.137   7.240   6.312 -0.1334  3.7293  0.2662
  926MOL0     H24984   3.903   7.225   6.394 -0.9994  0.8098 -1.9249
  926MOL0     H24985   3.990   7.074   6.353  2.0582 -0.4552 -1.0018
  926MOL0     H24986   3.803   7.226   6.164 -0.6855  0.4116  1.2942
  926MOL0     H24987   3.896   7.075   6.134  2.0134  0.6959  0.3824
  926MOL0     H24988   3.685   7.126   6.351 -0.4688 -1.3009  0.8441
  926MOL0     H24989   3.768   6.966   6.305  3.7303  0.7292 -3.9209
  926MOL0     H24990   3.588   7.136   6.134  1.2741 -0.2063  0.1809
  926MOL0     H24991   3.513   7.017   6.248  1.2221  2.0234  3.9041
  926MOL0     H24992   4.275   7.555   6.630 -0.6277 -0.4636 -0.6372
  926MOL0     H24993   4.483   7.539   6.793  1.5122  1.0935 -0.7124
  926MOL0     H24994   4.869   7.298   6.797  0.8644 -1.0952 -0.6201
  926MOL0     H24995   5.097   7.232   6.872  2.4528  0.0602 -1.2261
  926MOL0     H24996   6.470   8.087   6.162 -0.1106  1.4627 -1.1014
  926MOL0     H24997   6.281   8.253   6.134 -0.3058  0.7220 -1.3240
  926MOL0     H24998   6.173   8.596   6.134  0.2631 -0.3462 -2.5784
  926MOL0     H24999   6.029   8.760   6.024 -0.5031 -1.3557 -1.6260
  926MOL0     H25000   5.884   8.946   6.103  1.6355 -1.4007 -0.5211
  926MOL0     H25001   5.884   8.896   5.933 -2.4596 -2.2551 -1.1372
  926MOL0     H25002   5.770   9.114   5.969  2.0669 -0.2903 -0.4222
  926MOL0     H25003   5.646   9.021   6.068 -0.2118  2.0038 -0.2092
  926MOL0     H25004   5.582   8.892   5.877  0.4745 -1.4198  0.1713
  926MOL0     H25005   5.700   8.975   5.772 -1.2354  2.0386  0.1693
  926MOL0     H25006   5.493   9.068   5.748 -0.3773  0.2605 -0.9473
  926MOL0     H25007   5.599   9.190   5.827 -0.5624  0.1619 -0.1409
  926MOL0     H25008   5.272   9.178   6.091  0.3677 -1.2990  1.2080
  926MOL0     H25009   5.687   8.584   6.214  0.0205 -1.0630  3.4950
  926MOL0     H25010   5.819   8.405   6.300  0.0799  1.7459  2.9899
  927MOL0     O25011   5.917   0.714   7.031 -0.4232  0.9306 -0.0636
  927MOL0     C25012   5.883   0.669   7.141 -0.0447 -0.5976 -0.6661
  927MOL0     O25013   5.964   0.602   7.229 -0.0438  0.3648  1.3107
  927MOL0     C25014   6.095   0.588   7.199 -0.1350  0.2564  0.1855
  927MOL0     C25015   6.190   0.616   7.297  0.2803  1.1285 -0.4422
  927MOL0     C25016   6.335   0.590   7.277  0.7816  0.3604  1.1641
  927MOL0     C25017   6.382   0.530   7.158 -0.7619  0.7228  1.0207
  927MOL0     O25018   6.511   0.494   7.124 -0.5291 -0.6393 -0.4161
  927MOL0     C25019   6.614   0.523   7.224  0.1386 -0.2030  0.0659
  927MOL0     C25020   6.759   0.499   7.173 -0.0419  0.0495  0.2289
  927MOL0     C25021   6.780   0.540   7.031  0.4882 -0.4081 -0.2839
  927MOL0     C25022   6.931   0.544   6.997  0.0947 -0.3978  0.0912
  927MOL0     C25023   6.937   0.586   6.849 -0.0190  0.5706  0.2824
  927MOL0     C25024   7.086   0.583   6.805 -0.3192 -0.2387  0.5267
  927MOL0     C25025   7.122   0.679   6.687 -0.7633 -0.6629 -0.3606
  927MOL0     C25026   7.274   0.674   6.637  0.0691 -0.4142 -0.3462
  927MOL0     N25027   7.304   0.805   6.571  0.3624  0.2805  0.1541
  927MOL0     C25028   7.273   0.825   6.438  0.5992 -0.4294 -0.1789
  927MOL0     C25029   7.294   0.960   6.426 -0.9470 -0.4088  1.1032
  927MOL0     C25030   7.301   1.044   6.299 -0.2461 -0.6481  0.4782
  927MOL0     C25031   7.160   1.081   6.258  0.7249 -0.5426 -0.4662
  927MOL0     C25032   7.093   1.183   6.353 -0.1674  0.2706 -0.0696
  927MOL0     C25033   6.949   1.216   6.309 -0.4982 -0.6555  0.0614
  927MOL0     O25034   6.871   1.103   6.292  0.3885  0.5605 -0.3915
  927MOL0     C25035   6.734   1.129   6.290  0.1712  0.1337  0.0079
  927MOL0     C25036   6.652   1.112   6.405 -0.4388  0.4073 -1.0912
  927MOL0     C25037   6.517   1.158   6.413 -0.5043 -0.3706 -0.7175
  927MOL0     C25038   6.445   1.119   6.541 -0.0592  0.4449 -0.2004
  927MOL0     C25039   6.458   1.232   6.298 -0.2017  0.9905 -0.2015
  927MOL0     C25040   6.322   1.292   6.296 -0.7563 -0.6955  0.5372
  927MOL0     O25041   6.252   1.288   6.413 -0.2731 -0.3424 -0.2288
  927MOL0     C25042   6.145   1.375   6.441 -0.6127  0.2015 -0.4908
  927MOL0     C25043   6.033   1.310   6.488 -0.5146  0.3603  0.8086
  927MOL0     C25044   5.919   1.388   6.530 -0.0541 -0.0884  0.1480
  927MOL0     C25045   5.936   1.529   6.544  0.8391 -0.6302  0.0831
  927MOL0     O25046   5.839   1.614   6.587 -0.1957 -0.0895  0.3322
  927MOL0     C25047   5.717   1.558   6.646  0.0667  0.6264 -0.1065
  927MOL0     C25048   5.653   1.682   6.702 -0.3780 -0.0621 -0.5572
  927MOL0     C25049   5.606   1.766   6.587  0.1342 -0.3965 -0.3215
  927MOL0     C25050   5.492   1.859   6.631 -0.3218  0.1851  0.8583
  927MOL0     C25051   5.525   1.957   6.726 -0.4949 -0.2062 -0.5698
  927MOL0     C25052   5.414   2.049   6.757  0.3738 -0.9577 -0.0227
  927MOL0     C25053   5.320   2.099   6.642  0.6947  0.3513 -0.3575
  927MOL0     C25054   5.196   2.186   6.689 -0.1376 -0.4762 -0.0162
  927MOL0    Cl25055   5.082   2.072   6.781  0.1026  0.4405 -0.0069
  927MOL0     C25056   6.058   1.590   6.499  0.4336 -0.2922  0.1653
  927MOL0     C25057   6.157   1.519   6.452  0.3896 -0.9035  0.4548
  927MOL0     O25058   6.295   1.357   6.199  0.4656 -0.2008 -0.0354
  927MOL0     C25059   6.540   1.241   6.186  0.1677 -0.4013  0.0034
  927MOL0     C25060   6.671   1.190   6.181  0.0297  0.1915  0.0182
  927MOL0     N25061   7.320   1.018   6.549  0.1269  0.1092  0.2851
  927MOL0     N25062   7.324   0.926   6.631 -0.4543  0.3504 -0.1183
  927MOL0     C25063   6.291   0.493   7.062 -0.2395  0.4924 -0.6167
  927MOL0     C25064   6.150   0.529   7.083  1.1005  0.2744 -0.1009
  927MOL0     C25065   5.738   0.678   7.184 -0.5746  0.3253 -0.4506
  927MOL0     C25066   5.650   0.740   7.104  0.1086  0.6818  1.0659
  927MOL0     C25067   5.508   0.744   7.142 -0.6648 -0.2049 -0.4080
  927MOL0     C25068   5.472   0.677   7.265  0.0808  0.8740 -0.1091
  927MOL0     O25069   5.343   0.661   7.293  0.5522 -0.2487 -0.4432
  927MOL0     C25070   5.296   0.575   7.403 -0.3539 -0.4677  0.7926
  927MOL0     C25071   5.139   0.566   7.395 -0.2957 -0.1783 -0.0513
  927MOL0     C25072   5.092   0.473   7.502 -0.1374  0.7900 -0.3445
  927MOL0     C25073   4.941   0.458   7.500  0.4305 -0.2159  0.1155
  927MOL0     C25074   4.906   0.340   7.586 -0.0373 -0.2281  0.3841
  927MOL0     C25075   4.879   0.237   7.655  0.3796  0.3519 -0.6611
  927MOL0     C25076   5.576   0.638   7.354 -0.1250  0.4793  0.0783
  927MOL0     C25077   5.701   0.626   7.309  0.4871  0.3524  0.8085
  927MOL0     H25078   6.146   0.657   7.387 -3.0827  2.9321 -2.6745
  927MOL0     H25079   6.415   0.625   7.341  1.3416  1.8571 -0.2754
  927MOL0     H25080   6.599   0.622   7.268  0.9937  0.3572 -0.8576
  927MOL0     H25081   6.597   0.453   7.306  0.4567  0.7516  0.9684
  927MOL0     H25082   6.834   0.548   7.237 -1.2324 -2.5962  4.0058
  927MOL0     H25083   6.790   0.395   7.185  1.8519  0.3725 -1.2901
  927MOL0     H25084   6.728   0.476   6.960  2.1761 -1.1402 -0.9018
  927MOL0     H25085   6.744   0.643   7.026 -0.2147 -0.6529 -0.4279
  927MOL0     H25086   6.980   0.615   7.065  0.6636 -2.2178  1.6666
  927MOL0     H25087   6.977   0.446   7.013  1.1366  0.0469 -0.0933
  927MOL0     H25088   6.876   0.523   6.783  1.1685  1.3467 -1.6567
  927MOL0     H25089   6.902   0.690   6.852  0.5825  0.8037 -0.4999
  927MOL0     H25090   7.142   0.618   6.892  1.0962 -0.9534 -0.0748
  927MOL0     H25091   7.107   0.476   6.791 -2.2907 -0.8349  1.6197
  927MOL0     H25092   7.053   0.655   6.605 -0.0654  0.0162 -1.1566
  927MOL0     H25093   7.089   0.780   6.710  0.9819 -0.1788  0.1290
  927MOL0     H25094   7.291   0.587   6.573 -1.6710 -1.5447  0.6563
  927MOL0     H25095   7.349   0.668   6.716  2.9406  1.0462 -2.7677
  927MOL0     H25096   7.240   0.762   6.356  2.9471 -1.0924 -0.6913
  927MOL0     H25097   7.358   1.133   6.328  0.6935 -0.8148 -0.7930
  927MOL0     H25098   7.350   0.994   6.215 -2.1497 -0.0417 -1.0692
  927MOL0     H25099   7.093   0.995   6.264 -5.1983  3.4055 -1.0146
  927MOL0     H25100   7.171   1.118   6.155 -1.5236  0.0314 -0.5553
  927MOL0     H25101   7.157   1.271   6.360  3.2570 -1.9336 -1.0040
  927MOL0     H25102   7.098   1.133   6.451  1.0177 -2.4206 -1.3943
  927MOL0     H25103   6.946   1.266   6.212  5.7302 -1.0235 -0.7598
  927MOL0     H25104   6.905   1.278   6.387  0.4400 -1.4906  1.2864
  927MOL0     H25105   6.693   1.064   6.492 -0.5269 -0.7520 -1.6702
  927MOL0     H25106   6.338   1.097   6.527 -0.0367 -0.8887  1.4069
  927MOL0     H25107   6.488   1.024   6.573  0.3617  0.3554 -1.0104
  927MOL0     H25108   6.461   1.187   6.624  2.1850 -1.9820  1.4855
  927MOL0     H25109   6.029   1.202   6.480  1.2037  0.3679 -0.7982
  927MOL0     H25110   5.824   1.337   6.531  0.6846 -1.5020  1.3002
  927MOL0     H25111   5.648   1.503   6.580 -3.5558  2.6371  1.6678
  927MOL0     H25112   5.738   1.486   6.726 -0.6342  2.1195  1.4888
  927MOL0     H25113   5.571   1.657   6.770  1.0227 -2.0527  0.4970
  927MOL0     H25114   5.722   1.745   6.759 -1.8705  0.7479  0.4016
  927MOL0     H25115   5.563   1.707   6.506 -3.3321  2.3045 -0.6887
  927MOL0     H25116   5.694   1.821   6.550  0.4617  0.6719  1.8981
  927MOL0     H25117   5.459   1.915   6.543  0.0499  1.2910  1.3930
  927MOL0     H25118   5.406   1.799   6.661  0.3176 -0.9711  0.4143
  927MOL0     H25119   5.602   2.024   6.686 -1.6731  1.6436  0.1072
  927MOL0     H25120   5.567   1.919   6.820  1.5636  2.5894 -0.2081
  927MOL0     H25121   5.349   2.005   6.833  0.0883  1.5778  1.3033
  927MOL0     H25122   5.453   2.140   6.804  0.2829  0.4884 -2.5719
  927MOL0     H25123   5.278   2.012   6.591  0.7686 -1.4791  2.4746
  927MOL0     H25124   5.374   2.157   6.567 -1.2862  0.8435 -1.4723
  927MOL0     H25125   5.136   2.233   6.611  1.2279 -1.4176 -1.7274
  927MOL0     H25126   5.237   2.260   6.759  0.4252  0.5197 -1.3452
  927MOL0     H25127   6.071   1.697   6.510 -1.9399 -0.0552  1.3703
  927MOL0     H25128   6.252   1.557   6.416  0.3346  0.4795  1.6820
  927MOL0     H25129   6.510   1.295   6.097  0.3375  2.7947  1.7372
  927MOL0     H25130   6.732   1.212   6.094  0.1153  1.2847  0.3345
  927MOL0     H25131   6.316   0.439   6.972 -0.7557  0.4212 -0.7218
  927MOL0     H25132   6.092   0.486   7.002 -0.2830  3.1962 -0.7977
  927MOL0     H25133   5.684   0.783   7.010  0.7071  0.8479  1.3514
  927MOL0     H25134   5.446   0.785   7.063  0.2238 -2.0485 -2.1461
  927MOL0     H25135   5.341   0.475   7.402 -2.6804 -1.6185  2.3373
  927MOL0     H25136   5.319   0.625   7.498 -4.9477  1.3386  1.2232
  927MOL0     H25137   5.107   0.542   7.293  1.4081  2.4768 -1.3384
  927MOL0     H25138   5.106   0.669   7.412  2.5883  0.8429 -0.1234
  927MOL0     H25139   5.117   0.507   7.603 -1.0351 -2.0886  0.9486
  927MOL0     H25140   5.134   0.374   7.485 -0.0922  0.8404 -0.5239
  927MOL0     H25141   4.910   0.445   7.396 -1.4490  0.7619  0.5039
  927MOL0     H25142   4.899   0.554   7.530 -0.7550  0.0153 -2.0287
  927MOL0     H25143   4.843   0.148   7.702  0.7225  0.1872 -0.7017
  927MOL0     H25144   5.561   0.604   7.456 -2.4239 -2.1080 -0.9967
  927MOL0     H25145   5.782   0.585   7.369  1.3296 -0.8811 -1.0919
  928MOL0     O25146   7.618   3.980   4.119 -0.1475 -0.7401  0.2406
  928MOL0     C25147   7.675   3.931   4.212  0.6494  0.2573 -0.9804
  928MOL0     O25148   7.618   3.896   4.331  0.0817  0.1358  0.3620
  928MOL0     C25149   7.483   3.896   4.339  0.1084 -0.0210 -0.2909
  928MOL0     C25150   7.421   3.769   4.315  0.0742 -0.0205 -0.2402
  928MOL0     C25151   7.283   3.760   4.329  0.9266  1.0580  0.7218
  928MOL0     C25152   7.205   3.878   4.346  0.3328 -0.6847 -0.2334
  928MOL0     O25153   7.070   3.869   4.374 -0.0413 -0.0396  0.2550
  928MOL0     C25154   6.992   3.984   4.412  0.3796  0.8091 -1.0705
  928MOL0     C25155   7.004   4.005   4.566 -0.4012 -0.8418  0.6032
  928MOL0     C25156   6.903   4.115   4.603  0.0776 -0.2973 -0.2292
  928MOL0     C25157   6.931   4.152   4.748  0.1925 -0.1263  0.2222
  928MOL0     C25158   6.814   4.211   4.814 -0.5365  0.3103 -0.0691
  928MOL0     C25159   6.784   4.349   4.759 -0.4683  0.2397 -0.4408
  928MOL0     C25160   6.676   4.406   4.847 -0.9012 -0.2488  0.4515
  928MOL0     C25161   6.612   4.529   4.776 -0.9190 -0.5345 -0.2197
  928MOL0     N25162   6.708   4.650   4.787 -0.5981 -1.0650 -0.1544
  928MOL0     C25163   6.778   4.683   4.903  0.4817  0.8052  0.9260
  928MOL0     C25164   6.865   4.776   4.859  0.0923 -0.6746  0.1098
  928MOL0     C25165   6.978   4.835   4.936 -0.2593 -0.0863  0.2075
  928MOL0     C25166   6.942   4.984   4.945  0.4614  0.3088 -0.7842
  928MOL0     C25167   7.035   5.048   5.051  0.5525 -0.5573 -0.2496
  928MOL0     C25168   6.992   5.202   5.058  0.0326  0.1485 -0.5610
  928MOL0     O25169   7.043   5.269   5.164 -0.1263 -1.0562 -0.5650
  928MOL0     C25170   7.171   5.321   5.161 -0.0507 -0.7363  0.6035
  928MOL0     C25171   7.262   5.292   5.064 -0.1838 -0.3496  0.1359
  928MOL0     C25172   7.389   5.364   5.055  0.0138  0.0684 -0.0888
  928MOL0     C25173   7.475   5.336   4.937 -0.1688 -0.2978  0.4750
  928MOL0     C25174   7.421   5.470   5.148  0.7194 -0.0813 -0.3868
  928MOL0     C25175   7.542   5.566   5.132 -0.2081  0.2479  1.2418
  928MOL0     O25176   7.582   5.637   5.245  0.0197  0.1542 -0.3472
  928MOL0     C25177   7.698   5.713   5.250  0.9835  0.1052  0.4204
  928MOL0     C25178   7.737   5.755   5.377  0.1677 -0.5426  0.2055
  928MOL0     C25179   7.847   5.849   5.396  0.0311 -0.5956  0.8571
  928MOL0     C25180   7.910   5.907   5.283 -0.0075 -0.3963  0.5447
  928MOL0     O25181   8.026   5.987   5.278  0.1877 -0.3588 -0.2463
  928MOL0     C25182   8.102   5.995   5.398  1.4551  0.2352  0.1156
  928MOL0     C25183   8.206   5.882   5.408 -0.1196  0.4377 -0.0996
  928MOL0     C25184   8.275   5.893   5.548  0.2177 -0.5397 -0.1400
  928MOL0     C25185   8.314   5.751   5.600  0.0219  0.3207  1.2597
  928MOL0     C25186   8.402   5.749   5.727 -0.2884 -0.5719  0.0706
  928MOL0     C25187   8.550   5.756   5.693  0.0877  0.3557  0.2898
  928MOL0     C25188   8.640   5.710   5.810 -0.5077 -0.7187 -0.6501
  928MOL0     C25189   8.794   5.713   5.761  0.1154  0.2503 -0.4929
  928MOL0    Cl25190   8.817   5.576   5.647  0.2821 -0.0005  0.0835
  928MOL0     C25191   7.860   5.870   5.157 -0.4609 -0.6038 -0.4148
  928MOL0     C25192   7.764   5.772   5.140  0.2837 -0.1485 -0.4985
  928MOL0     O25193   7.594   5.572   5.019  0.1303  0.3554 -0.1448
  928MOL0     C25194   7.320   5.497   5.252  0.0631  0.2551  0.4165
  928MOL0     C25195   7.204   5.416   5.258  0.2294  0.0522 -0.2530
  928MOL0     N25196   6.860   4.792   4.720  0.5441 -0.0370  0.3759
  928MOL0     N25197   6.764   4.717   4.680 -0.2324 -0.5406  0.1712
  928MOL0     C25198   7.272   4.005   4.351  0.0395 -0.0385  0.3610
  928MOL0     C25199   7.407   4.016   4.352  0.3295  0.5398 -0.0437
  928MOL0     C25200   7.825   3.922   4.205  0.5792  0.2305  0.4656
  928MOL0     C25201   7.899   3.997   4.105  0.6529 -0.0030 -0.4574
  928MOL0     C25202   8.038   3.993   4.113  0.4662 -0.2133  0.1299
  928MOL0     C25203   8.108   3.906   4.202  0.2155 -0.6919 -0.9002
  928MOL0     O25204   8.246   3.890   4.184  0.5402 -0.1510 -0.2314
  928MOL0     C25205   8.319   3.891   4.307  0.3044 -0.1851 -0.3359
  928MOL0     C25206   8.449   3.958   4.287  0.5790 -0.2236  0.2773
  928MOL0     C25207   8.507   4.018   4.414 -0.4726 -0.3468  0.1124
  928MOL0     C25208   8.656   4.050   4.383  0.2056  0.0134  0.4874
  928MOL0     C25209   8.695   4.150   4.484 -0.5149 -0.1692  1.2926
  928MOL0     C25210   8.736   4.225   4.570 -0.5898 -0.4502  0.3942
  928MOL0     C25211   8.035   3.823   4.286  0.2192  0.5707 -0.7436
  928MOL0     C25212   7.894   3.838   4.293  0.3593  0.2892 -0.2741
  928MOL0     H25213   7.479   3.678   4.303  0.7493  0.3340  0.2763
  928MOL0     H25214   7.238   3.662   4.317  0.6544  1.2221  0.3815
  928MOL0     H25215   7.000   4.078   4.357  0.8925  1.5660  0.2369
  928MOL0     H25216   6.891   3.944   4.406  0.3969  0.5397  0.1284
  928MOL0     H25217   6.978   3.912   4.619 -1.6080 -0.2710  1.0586
  928MOL0     H25218   7.106   4.031   4.596 -0.2851  0.7297 -1.0299
  928MOL0     H25219   6.905   4.206   4.542 -0.5464  2.2160  3.1898
  928MOL0     H25220   6.804   4.069   4.594 -1.0068  1.5788  1.2119
  928MOL0     H25221   6.955   4.055   4.794  1.6768 -0.6030 -1.4626
  928MOL0     H25222   7.022   4.212   4.759  0.0168  0.3432 -0.7498
  928MOL0     H25223   6.732   4.140   4.795 -1.3119  0.9447  0.7984
  928MOL0     H25224   6.839   4.229   4.918  1.5578 -0.5372 -0.3881
  928MOL0     H25225   6.879   4.403   4.752 -0.3311  0.0205 -0.2947
  928MOL0     H25226   6.746   4.353   4.656  3.7985  2.1565 -2.1910
  928MOL0     H25227   6.589   4.340   4.846 -0.4486 -0.8666 -1.5946
  928MOL0     H25228   6.717   4.424   4.947  1.4875 -4.7963  0.5376
  928MOL0     H25229   6.518   4.549   4.828 -0.1058 -1.2549  1.5971
  928MOL0     H25230   6.597   4.510   4.669  0.1249  4.8414 -1.6348
  928MOL0     H25231   6.758   4.641   5.001 -3.0015  3.5095  1.5776
  928MOL0     H25232   6.980   4.794   5.037  0.6808 -2.0869 -0.5783
  928MOL0     H25233   7.078   4.817   4.896  0.0894 -2.8470  2.0343
  928MOL0     H25234   6.837   4.991   4.974  0.5143  1.4458 -0.8285
  928MOL0     H25235   6.952   5.046   4.855  1.8927  1.4168  0.0858
  928MOL0     H25236   7.138   5.048   5.015  1.6603  3.1502  2.2918
  928MOL0     H25237   7.032   4.999   5.149 -2.1745 -0.0421  0.0033
  928MOL0     H25238   6.883   5.206   5.059  0.0425  3.3042 -0.1860
  928MOL0     H25239   7.015   5.252   4.964  0.1120  0.6584 -0.2739
  928MOL0     H25240   7.252   5.211   4.992 -2.5097 -1.7111  1.8425
  928MOL0     H25241   7.481   5.417   4.863 -0.3086  0.2437  1.0416
  928MOL0     H25242   7.572   5.300   4.974  0.6650  0.7846 -0.5882
  928MOL0     H25243   7.430   5.256   4.878  0.5125 -2.0322  2.2055
  928MOL0     H25244   7.681   5.735   5.468 -0.5322 -0.5563 -0.2147
  928MOL0     H25245   7.872   5.872   5.499  2.8707  0.5820  0.0075
  928MOL0     H25246   8.158   6.088   5.389  2.3618 -0.4305 -1.5737
  928MOL0     H25247   8.045   5.997   5.492  1.4415 -0.0389  0.1130
  928MOL0     H25248   8.161   5.782   5.404  1.7435 -0.5522  1.5138
  928MOL0     H25249   8.277   5.898   5.327 -2.0471  0.4243 -1.8767
  928MOL0     H25250   8.206   5.927   5.627  1.4281 -0.0205  0.7153
  928MOL0     H25251   8.363   5.958   5.546 -1.2390  1.6959 -4.2091
  928MOL0     H25252   8.226   5.688   5.617  1.4604 -1.2715  3.5382
  928MOL0     H25253   8.368   5.703   5.518 -0.1053  0.0861  1.3133
  928MOL0     H25254   8.386   5.650   5.772  1.9425 -1.5251 -1.1120
  928MOL0     H25255   8.368   5.828   5.795 -0.6979 -0.1799 -0.5799
  928MOL0     H25256   8.557   5.684   5.611 -1.3076  1.1223 -0.5356
  928MOL0     H25257   8.566   5.857   5.655 -3.1824  1.9502  2.6065
  928MOL0     H25258   8.610   5.609   5.840  2.9197 -0.5152  4.6450
  928MOL0     H25259   8.630   5.779   5.894 -1.4642  0.8457 -1.9735
  928MOL0     H25260   8.865   5.691   5.841  1.6645 -0.7714 -2.0697
  928MOL0     H25261   8.820   5.808   5.714 -3.2469  2.0495  0.9374
  928MOL0     H25262   7.904   5.917   5.070  2.8864 -0.0375  1.4340
  928MOL0     H25263   7.754   5.747   5.035 -0.0244 -2.6304  0.0560
  928MOL0     H25264   7.326   5.583   5.318 -2.5270  1.3693 -0.6433
  928MOL0     H25265   7.124   5.444   5.326 -0.1352 -0.6343 -0.3901
  928MOL0     H25266   7.211   4.091   4.375 -0.0991 -0.4213  1.4292
  928MOL0     H25267   7.450   4.114   4.337  1.9205  0.5451  3.5708
  928MOL0     H25268   7.854   4.076   4.046  0.2845  1.3500  1.5278
  928MOL0     H25269   8.090   4.059   4.044  0.3588  1.1371  1.3042
  928MOL0     H25270   8.261   3.931   4.390  1.9919  0.7397  0.4372
  928MOL0     H25271   8.343   3.787   4.332 -1.9838 -0.9886 -1.1957
  928MOL0     H25272   8.447   4.039   4.214  1.3095 -2.4342 -2.3589
  928MOL0     H25273   8.505   3.877   4.239 -2.9423 -0.3431 -4.4684
  928MOL0     H25274   8.494   3.947   4.496 -1.1549  1.2158  1.4227
  928MOL0     H25275   8.447   4.107   4.436 -0.0720 -0.0821  0.1488
  928MOL0     H25276   8.659   4.100   4.286  1.3886  0.1306  0.5670
  928MOL0     H25277   8.727   3.966   4.374  3.4895  2.6203  0.0347
  928MOL0     H25278   8.770   4.284   4.652 -2.4783 -0.7621  1.4603
  928MOL0     H25279   8.089   3.754   4.350 -1.8653  0.4389  1.0001
  928MOL0     H25280   7.837   3.786   4.369  1.5064  3.2932  2.9443
  929MOL0     O25281   7.595   9.117   7.120  0.0844  0.2461  0.0984
  929MOL0     C25282   7.669   9.158   7.210  0.4428 -0.0500  0.0810
  929MOL0     O25283   7.634   9.142   7.344 -0.3828 -0.2356  0.2745
  929MOL0     C25284   7.507   9.110   7.378 -0.6667 -0.2718 -0.0907
  929MOL0     C25285   7.443   9.198   7.473 -0.3292  0.4319 -0.6012
  929MOL0     C25286   7.320   9.162   7.517  0.3649 -0.0400  0.7371
  929MOL0     C25287   7.255   9.043   7.486  0.5904  0.0400  0.0390
  929MOL0     O25288   7.136   8.997   7.535  0.4752  0.0054  0.8792
  929MOL0     C25289   7.021   9.037   7.456  1.1097 -0.2547  0.3907
  929MOL0     C25290   6.900   8.943   7.494  0.5044 -0.1231  0.3528
  929MOL0     C25291   6.763   8.963   7.433  0.2176  0.2409  0.3534
  929MOL0     C25292   6.681   9.074   7.497 -0.3201 -0.2162 -0.9529
  929MOL0     C25293   6.544   9.082   7.423 -0.1411 -0.5350  0.4480
  929MOL0     C25294   6.450   9.195   7.467 -0.7513 -0.0045  0.0132
  929MOL0     C25295   6.323   9.203   7.381 -0.3552 -0.9298 -0.1020
  929MOL0     C25296   6.244   9.079   7.394 -0.8807 -0.0503 -0.1640
  929MOL0     N25297   6.118   9.096   7.316 -0.2544  0.2387 -0.5697
  929MOL0     C25298   6.006   9.160   7.368  0.5462  0.5078  0.3219
  929MOL0     C25299   5.918   9.152   7.268  0.2149 -1.0954  0.7806
  929MOL0     C25300   5.776   9.206   7.276 -0.1522  0.2397  0.0270
  929MOL0     C25301   5.668   9.103   7.264  0.2685  0.3231 -0.2139
  929MOL0     C25302   5.695   8.966   7.340  0.4379 -0.5777 -0.4205
  929MOL0     C25303   5.588   8.871   7.319 -0.9082  0.1433  0.7255
  929MOL0     O25304   5.474   8.906   7.390 -0.3641 -0.4497  0.2873
  929MOL0     C25305   5.362   8.834   7.383 -0.6402 -0.3829  0.1357
  929MOL0     C25306   5.354   8.705   7.431 -0.1834 -0.7207  0.5377
  929MOL0     C25307   5.242   8.626   7.400  0.0823  0.0472  0.1043
  929MOL0     C25308   5.253   8.481   7.454  0.5142 -0.4942  0.9682
  929MOL0     C25309   5.128   8.675   7.331 -0.0611 -0.7794 -0.6153
  929MOL0     C25310   5.007   8.594   7.299  0.7478  0.1820  0.2963
  929MOL0     O25311   4.919   8.658   7.218  0.7422  0.3825  0.9803
  929MOL0     C25312   4.791   8.613   7.199 -0.3366  0.5291 -0.7635
  929MOL0     C25313   4.752   8.613   7.064 -0.1301  0.1532  0.2992
  929MOL0     C25314   4.626   8.572   7.036 -0.4958 -0.3591  0.0386
  929MOL0     C25315   4.532   8.533   7.131 -0.1353  0.3307 -0.9846
  929MOL0     O25316   4.403   8.478   7.101 -0.4788  0.7483  0.2424
  929MOL0     C25317   4.354   8.509   6.969  0.7812  0.3261  0.2752
  929MOL0     C25318   4.202   8.512   6.957  0.6167  0.0694  1.1644
  929MOL0     C25319   4.140   8.365   6.945 -0.7187 -0.9521 -0.6506
  929MOL0     C25320   4.060   8.340   6.817  1.0828 -0.7228 -0.3487
  929MOL0     C25321   4.153   8.305   6.696 -0.0176 -0.7255  0.3410
  929MOL0     C25322   4.088   8.312   6.553  0.3272 -0.4711 -0.8317
  929MOL0     C25323   3.960   8.231   6.522 -0.2666  0.2332  0.1929
  929MOL0     C25324   4.008   8.088   6.531 -0.1369 -0.7128 -0.1079
  929MOL0    Cl25325   3.874   7.990   6.463  0.5476  0.2390  0.1606
  929MOL0     C25326   4.566   8.539   7.262 -0.2784 -0.6156 -0.3919
  929MOL0     C25327   4.701   8.566   7.294  0.0355 -0.2405 -0.8314
  929MOL0     O25328   4.976   8.496   7.369 -0.2272  0.3205 -0.0583
  929MOL0     C25329   5.136   8.806   7.287 -1.3734  0.4835 -0.3521
  929MOL0     C25330   5.261   8.885   7.309  0.0923  0.3927  0.7310
  929MOL0     N25331   5.979   9.094   7.155 -0.8213 -1.1449 -0.5498
  929MOL0     N25332   6.099   9.060   7.187 -0.0917 -0.2192  0.2395
  929MOL0     C25333   7.315   8.968   7.385  0.7630 -0.1786  0.2472
  929MOL0     C25334   7.442   8.997   7.329 -0.0530 -0.5370 -0.6902
  929MOL0     C25335   7.809   9.200   7.190 -0.0466  0.1490  0.2391
  929MOL0     C25336   7.871   9.166   7.073 -0.6940  0.0022 -0.5915
  929MOL0     C25337   8.016   9.173   7.061  0.3040 -0.2239  0.0210
  929MOL0     C25338   8.095   9.223   7.167  0.4603 -0.7267 -0.5731
  929MOL0     O25339   8.235   9.213   7.153 -0.5867 -0.3225  0.4405
  929MOL0     C25340   8.300   9.288   7.260 -0.7429 -0.5926  0.6081
  929MOL0     C25341   8.445   9.297   7.213  0.1681 -0.1716  0.4823
  929MOL0     C25342   8.515   9.408   7.286 -0.3371 -0.0077 -0.1271
  929MOL0     C25343   8.505   9.412   7.441 -0.1993 -0.1955  0.2842
  929MOL0     C25344   8.566   9.524   7.506 -0.3474 -0.8253  0.2615
  929MOL0     C25345   8.619   9.616   7.559  0.1385 -0.1966  0.6689
  929MOL0     C25346   8.030   9.267   7.282  0.1877 -0.3706 -0.2518
  929MOL0     C25347   7.892   9.255   7.290 -0.1213  0.2420  0.6422
  929MOL0     H25348   7.497   9.287   7.505 -0.4453 -0.6446  2.9712
  929MOL0     H25349   7.256   9.226   7.576 -0.5191  1.5053 -1.7202
  929MOL0     H25350   7.001   9.145   7.466  0.4663  0.0365 -2.9574
  929MOL0     H25351   7.042   9.020   7.350  1.3211  2.4902 -0.0891
  929MOL0     H25352   6.926   8.846   7.451 -0.6725 -0.2979 -0.0010
  929MOL0     H25353   6.889   8.932   7.602  2.4028 -3.1981  0.3508
  929MOL0     H25354   6.782   8.966   7.326  0.8068 -0.9138  0.4061
  929MOL0     H25355   6.704   8.873   7.451 -0.2467  0.9096  2.4479
  929MOL0     H25356   6.653   9.054   7.601 -1.1317 -2.9921 -1.6123
  929MOL0     H25357   6.735   9.168   7.488 -0.5110 -0.0959 -0.8460
  929MOL0     H25358   6.567   9.101   7.318 -2.3070  0.9617  0.1720
  929MOL0     H25359   6.490   8.987   7.436 -2.5359 -0.0795 -4.1950
  929MOL0     H25360   6.417   9.173   7.569 -0.4558  4.3353  1.2068
  929MOL0     H25361   6.507   9.287   7.464 -2.4067  1.1247  1.2887
  929MOL0     H25362   6.263   9.285   7.421  1.9170  0.6043  0.3389
  929MOL0     H25363   6.357   9.234   7.281  0.5566 -0.3445  0.3791
  929MOL0     H25364   6.220   9.061   7.499 -1.9744  0.4242 -0.3165
  929MOL0     H25365   6.290   8.988   7.354  2.0323  1.1344  0.2485
  929MOL0     H25366   5.996   9.191   7.472 -0.0467 -0.1513  0.4702
  929MOL0     H25367   5.766   9.257   7.372 -0.9979  0.3766 -0.1290
  929MOL0     H25368   5.755   9.285   7.203 -0.3718  0.7033  0.5840
  929MOL0     H25369   5.666   9.070   7.160 -2.7918 -1.0541  0.1638
  929MOL0     H25370   5.569   9.138   7.293  0.4890 -1.4060  3.2583
  929MOL0     H25371   5.702   8.973   7.449 -1.8658  1.1629 -0.2981
  929MOL0     H25372   5.779   8.918   7.290  1.0084 -1.5452  1.3611
  929MOL0     H25373   5.632   8.774   7.346 -0.1413 -0.6318 -2.8069
  929MOL0     H25374   5.580   8.860   7.211  0.5921  0.5005  0.5559
  929MOL0     H25375   5.434   8.663   7.491  1.0970 -2.0458 -1.9101
  929MOL0     H25376   5.280   8.415   7.371  1.9620  1.0186  0.1861
  929MOL0     H25377   5.327   8.465   7.533 -1.1963 -2.0929  2.3446
  929MOL0     H25378   5.159   8.445   7.497 -1.0249 -2.0883 -3.1327
  929MOL0     H25379   4.813   8.659   6.987  0.5722  1.0368  1.3582
  929MOL0     H25380   4.597   8.571   6.931 -0.8859  1.8986  0.0702
  929MOL0     H25381   4.393   8.607   6.937  1.7333  0.0382  0.5229
  929MOL0     H25382   4.394   8.432   6.903  0.0059 -0.4176  0.6617
  929MOL0     H25383   4.163   8.558   7.048 -0.3992  1.6014  0.0042
  929MOL0     H25384   4.180   8.565   6.865 -0.6343 -1.8503  0.2868
  929MOL0     H25385   4.064   8.366   7.023 -0.1428  0.2837 -0.0752
  929MOL0     H25386   4.198   8.274   6.966  0.5851 -0.1350 -0.6082
  929MOL0     H25387   3.995   8.253   6.832 -2.9377  2.3462  1.7564
  929MOL0     H25388   4.002   8.430   6.794 -0.5025 -1.2625  1.3418
  929MOL0     H25389   4.178   8.200   6.710 -2.4256 -1.2461  1.2107
  929MOL0     H25390   4.243   8.367   6.698 -0.9897  1.0558 -2.9473
  929MOL0     H25391   4.065   8.416   6.528  4.0285  0.2010 -1.9599
  929MOL0     H25392   4.166   8.277   6.486  2.3885 -0.2448  1.3018
  929MOL0     H25393   3.929   8.253   6.419 -2.4200 -1.3985  0.4174
  929MOL0     H25394   3.876   8.243   6.590 -0.2038 -1.3226  0.5734
  929MOL0     H25395   4.036   8.060   6.633  1.2792  0.6775 -0.0742
  929MOL0     H25396   4.099   8.085   6.470 -1.4132  4.3585 -2.7570
  929MOL0     H25397   4.486   8.516   7.332 -1.0597 -0.5473 -1.2485
  929MOL0     H25398   4.732   8.573   7.397 -2.1150  0.2072 -0.1648
  929MOL0     H25399   5.062   8.848   7.220 -3.2568 -0.7376  0.8577
  929MOL0     H25400   5.281   8.978   7.257 -1.8441 -0.7464 -2.3195
  929MOL0     H25401   7.267   8.889   7.328 -2.2645  1.4594  0.2689
  929MOL0     H25402   7.488   8.924   7.264 -1.7467 -3.2698  0.9661
  929MOL0     H25403   7.818   9.127   6.987  0.9413  0.0753 -1.6686
  929MOL0     H25404   8.061   9.137   6.969 -1.5350  0.3504 -1.1585
  929MOL0     H25405   8.258   9.389   7.255  2.7171  0.9538 -0.3114
  929MOL0     H25406   8.297   9.244   7.359 -0.3654 -0.6583  0.5884
  929MOL0     H25407   8.445   9.313   7.104 -2.3791 -0.1114  0.4366
  929MOL0     H25408   8.482   9.195   7.228 -0.8851 -0.4287  1.4304
  929MOL0     H25409   8.485   9.507   7.252 -0.8543 -0.1993 -0.2387
  929MOL0     H25410   8.621   9.402   7.260 -1.1965  2.9457 -5.6637
  929MOL0     H25411   8.537   9.315   7.479 -0.1732 -0.6272 -0.8077
  929MOL0     H25412   8.401   9.434   7.466  0.1132  3.0898 -0.7821
  929MOL0     H25413   8.679   9.701   7.585  3.6282 -1.3380 -2.6385
  929MOL0     H25414   8.081   9.304   7.371 -1.8377  1.7454  0.1286
  929MOL0     H25415   7.845   9.267   7.387  1.3543  1.6741  1.2066
  930MOL0     O25416   1.900   6.487   9.433  0.2337 -0.4807 -0.2184
  930MOL0     C25417   1.893   6.576   9.518  0.0193  0.0506 -0.1206
  930MOL0     O25418   1.773   6.612   9.574 -0.3474 -0.2412  0.1725
  930MOL0     C25419   1.673   6.640   9.484 -0.4784  0.9528  0.2903
  930MOL0     C25420   1.677   6.708   9.354 -0.3977  0.2349 -0.4421
  930MOL0     C25421   1.566   6.716   9.274 -0.0614  1.0352  0.1299
  930MOL0     C25422   1.442   6.667   9.317  0.0320 -0.4478  0.9180
  930MOL0     O25423   1.328   6.686   9.242  0.6524 -0.1582 -0.2777
  930MOL0     C25424   1.335   6.729   9.108  0.1491 -0.3721  0.3500
  930MOL0     C25425   1.186   6.730   9.063 -0.7841  0.2552 -0.1087
  930MOL0     C25426   1.173   6.787   8.929 -0.1430 -0.7230 -0.5664
  930MOL0     C25427   1.031   6.767   8.865 -0.1134  0.6480 -0.7224
  930MOL0     C25428   0.946   6.890   8.879 -0.6250  0.2022  0.3012
  930MOL0     C25429   0.804   6.858   8.826  0.9651  0.4106  0.5685
  930MOL0     C25430   0.708   6.962   8.884  0.1429  1.5402 -0.7040
  930MOL0     C25431   0.715   7.101   8.820 -0.2632 -0.0343 -0.2986
  930MOL0     N25432   0.603   7.193   8.865 -0.0827 -0.5945 -0.3781
  930MOL0     C25433   0.489   7.234   8.800  0.1141 -0.1363  0.4430
  930MOL0     C25434   0.410   7.292   8.896  0.8322 -0.1839  0.0267
  930MOL0     C25435   0.272   7.346   8.880  0.3288 -0.0943 -0.7539
  930MOL0     C25436   0.166   7.238   8.902  0.2324  0.2123  0.5838
  930MOL0     C25437   0.035   7.274   8.838 -0.0730 -0.6215 -0.3239
  930MOL0     C25438  -0.077   7.165   8.866  0.2228  0.0001  0.1364
  930MOL0     O25439  -0.190   7.174   8.777 -0.4427  0.6435  0.4676
  930MOL0     C25440  -0.285   7.256   8.818 -0.0861 -0.3523 -0.0669
  930MOL0     C25441  -0.274   7.387   8.773  0.2254 -0.5134 -0.2163
  930MOL0     C25442  -0.377   7.478   8.801 -0.0002 -0.9878  0.7681
  930MOL0     C25443  -0.371   7.621   8.740  0.1521  0.3829 -0.3068
  930MOL0     C25444  -0.485   7.449   8.879  1.2075 -0.4126 -0.4744
  930MOL0     C25445  -0.591   7.554   8.923 -0.3456  0.6274  0.5406
  930MOL0     O25446  -0.550   7.681   8.939 -0.3645 -0.5185 -0.5866
  930MOL0     C25447  -0.624   7.769   9.013 -0.2142  0.6391 -0.2904
  930MOL0     C25448  -0.707   7.746   9.124  0.5018  0.3269 -0.2320
  930MOL0     C25449  -0.762   7.846   9.206  0.2859  0.6291  0.5641
  930MOL0     C25450  -0.752   7.977   9.155 -0.3384  0.3888  0.8302
  930MOL0     O25451  -0.836   8.065   9.223 -0.5331  1.0992 -0.6288
  930MOL0     C25452  -0.843   8.201   9.191 -0.0513  0.0745 -0.4865
  930MOL0     C25453  -0.882   8.288   9.310 -0.0104  0.5610 -0.4678
  930MOL0     C25454  -0.923   8.425   9.254  0.2300  0.3442 -0.6927
  930MOL0     C25455  -0.973   8.525   9.366 -0.6189  0.2645  0.1145
  930MOL0     C25456  -1.124   8.524   9.390  0.1453  0.2190  0.3792
  930MOL0     C25457  -1.169   8.590   9.525  0.0416  0.7442  0.3639
  930MOL0     C25458  -1.316   8.553   9.552 -0.6358 -0.1846  0.7189
  930MOL0     C25459  -1.408   8.589   9.443  0.7299  0.2361  0.4321
  930MOL0    Cl25460  -1.576   8.570   9.513  0.0008  0.3541 -0.1821
  930MOL0     C25461  -0.675   8.004   9.036  0.5069  0.4646  0.8384
  930MOL0     C25462  -0.616   7.896   8.960  0.4624 -0.1459  0.4644
  930MOL0     O25463  -0.710   7.514   8.944 -0.2644  0.5255  0.3428
  930MOL0     C25464  -0.495   7.321   8.920  0.3353  0.2554  0.5678
  930MOL0     C25465  -0.404   7.226   8.884 -0.1086  0.8811  0.0059
  930MOL0     N25466   0.488   7.291   9.011 -0.3297 -1.1918 -0.0054
  930MOL0     N25467   0.606   7.246   8.991 -0.3600  0.0828 -0.2684
  930MOL0     C25468   1.435   6.607   9.439 -0.2717 -0.4746  0.6067
  930MOL0     C25469   1.546   6.588   9.518 -0.0340  0.5273  0.5452
  930MOL0     C25470   2.018   6.636   9.582  0.1437  0.0838  0.3293
  930MOL0     C25471   2.137   6.588   9.547 -0.2435 -0.1193  0.6805
  930MOL0     C25472   2.248   6.659   9.587 -0.1958 -0.6747  0.1817
  930MOL0     C25473   2.245   6.776   9.664  0.4865 -0.0646 -1.0520
  930MOL0     O25474   2.366   6.829   9.698 -0.6240  0.2199  0.5895
  930MOL0     C25475   2.386   6.963   9.738  0.6844 -0.0003 -0.5513
  930MOL0     C25476   2.539   7.001   9.731 -0.3844 -0.3768  0.0406
  930MOL0     C25477   2.562   7.152   9.768 -0.9272 -0.9794 -0.2166
  930MOL0     C25478   2.655   7.217   9.677 -1.0021  0.5095  0.3849
  930MOL0     C25479   2.795   7.225   9.717 -0.5496 -0.2323 -0.9827
  930MOL0     C25480   2.913   7.237   9.751 -0.3360 -0.3441  0.1746
  930MOL0     C25481   2.121   6.820   9.705 -0.2194  1.3118  0.1759
  930MOL0     C25482   2.010   6.747   9.668  0.6641 -0.1459  0.2602
  930MOL0     H25483   1.765   6.761   9.319  0.0964  0.7633  1.4856
  930MOL0     H25484   1.578   6.782   9.188  0.5761 -0.0742 -0.6561
  930MOL0     H25485   1.366   6.833   9.095 -3.7339  0.9026 -0.1045
  930MOL0     H25486   1.400   6.669   9.045  0.4457 -1.5302  1.6963
  930MOL0     H25487   1.142   6.630   9.062  0.2318 -0.2110  0.2799
  930MOL0     H25488   1.141   6.800   9.133  2.7111 -0.1336  2.8695
  930MOL0     H25489   1.197   6.893   8.938 -1.5374 -0.5197  1.2423
  930MOL0     H25490   1.249   6.741   8.865  1.3985 -0.5291  1.0534
  930MOL0     H25491   1.045   6.745   8.759 -1.6575  0.7165 -0.9499
  930MOL0     H25492   0.987   6.678   8.912  1.4045 -1.0026 -2.2195
  930MOL0     H25493   0.944   6.920   8.984 -2.3910 -0.0018  0.3506
  930MOL0     H25494   0.992   6.968   8.818  1.1564 -0.9474  0.1147
  930MOL0     H25495   0.797   6.856   8.717 -2.8645 -0.0958  0.6773
  930MOL0     H25496   0.757   6.765   8.859 -1.4634 -0.0259 -3.4023
  930MOL0     H25497   0.609   6.920   8.864  0.4606  0.5922 -0.3508
  930MOL0     H25498   0.720   6.973   8.992 -2.0385 -2.3794  0.0968
  930MOL0     H25499   0.691   7.092   8.714  0.6333  1.2177 -0.6282
  930MOL0     H25500   0.819   7.135   8.815  0.6309 -2.4873  0.3422
  930MOL0     H25501   0.451   7.212   8.700  1.2668  0.8563 -0.2453
  930MOL0     H25502   0.250   7.420   8.957  1.5837 -1.5407  1.0710
  930MOL0     H25503   0.264   7.394   8.782 -0.3694  0.4515 -0.4333
  930MOL0     H25504   0.139   7.221   9.006 -1.7522  4.7925  1.0382
  930MOL0     H25505   0.212   7.151   8.852 -1.7018  0.1371 -1.2083
  930MOL0     H25506   0.050   7.282   8.730  1.8080 -1.5282 -0.1621
  930MOL0     H25507   0.000   7.366   8.885  0.0091 -1.8880  2.3589
  930MOL0     H25508  -0.101   7.175   8.972  1.0028 -1.0113  0.4272
  930MOL0     H25509  -0.035   7.063   8.861 -0.8903 -0.9768  5.4025
  930MOL0     H25510  -0.194   7.420   8.707 -0.0127  0.9764  0.1864
  930MOL0     H25511  -0.349   7.700   8.813 -1.9723 -0.2848  1.1611
  930MOL0     H25512  -0.306   7.622   8.653 -1.1935 -4.3549 -1.6537
  930MOL0     H25513  -0.469   7.639   8.695  0.3531 -0.6407 -1.1820
  930MOL0     H25514  -0.702   7.645   9.163 -0.8264  0.4588  0.3605
  930MOL0     H25515  -0.819   7.832   9.297 -1.6430 -2.4841 -0.9574
  930MOL0     H25516  -0.743   8.237   9.166 -0.0962  1.1483  0.7415
  930MOL0     H25517  -0.912   8.220   9.108 -0.4992 -0.5005 -0.2562
  930MOL0     H25518  -0.971   8.245   9.358  0.8970 -0.8550  0.0003
  930MOL0     H25519  -0.802   8.293   9.384 -0.7823  1.5796  0.3179
  930MOL0     H25520  -1.000   8.414   9.177  0.1258  2.4034 -0.9501
  930MOL0     H25521  -0.830   8.465   9.211 -0.2224  1.7803 -0.4104
  930MOL0     H25522  -0.925   8.497   9.460 -0.3276  1.3944  0.3158
  930MOL0     H25523  -0.936   8.625   9.342 -0.9649  1.4985  4.0173
  930MOL0     H25524  -1.159   8.420   9.384  1.5541 -0.2664  0.2643
  930MOL0     H25525  -1.181   8.575   9.312 -1.5085 -2.1370 -0.0704
  930MOL0     H25526  -1.109   8.551   9.608  0.1877  2.0244  0.8815
  930MOL0     H25527  -1.143   8.696   9.523  2.8563  0.1368  0.4736
  930MOL0     H25528  -1.344   8.587   9.652 -0.8832 -0.9262  0.9100
  930MOL0     H25529  -1.319   8.443   9.558 -1.5331 -0.1166  1.6848
  930MOL0     H25530  -1.387   8.509   9.371  2.4583  1.9343 -1.0851
  930MOL0     H25531  -1.391   8.686   9.395  0.7522 -1.1106 -2.5297
  930MOL0     H25532  -0.658   8.107   9.006  0.1026  0.4105  0.4037
  930MOL0     H25533  -0.563   7.919   8.868 -1.9143  2.4664 -0.4231
  930MOL0     H25534  -0.581   7.284   8.975 -2.2552  3.1650 -1.1922
  930MOL0     H25535  -0.412   7.120   8.909  1.4840 -0.2458 -3.5987
  930MOL0     H25536   1.336   6.583   9.476 -0.1226 -1.1877  0.5611
  930MOL0     H25537   1.540   6.524   9.605  1.3106  0.8228  0.8787
  930MOL0     H25538   2.141   6.503   9.480 -1.9710 -0.0281  0.4065
  930MOL0     H25539   2.347   6.620   9.566  0.3243  0.5167  0.3472
  930MOL0     H25540   2.323   7.029   9.677 -1.2149  0.4000  1.6961
  930MOL0     H25541   2.351   6.976   9.841 -2.4466  0.1313 -1.5366
  930MOL0     H25542   2.572   6.978   9.629 -0.1278 -0.9669  0.2501
  930MOL0     H25543   2.596   6.939   9.801 -1.1674 -0.5492  0.5339
  930MOL0     H25544   2.601   7.159   9.870 -2.5060  1.9516  0.3106
  930MOL0     H25545   2.468   7.207   9.773 -0.7022 -0.6657  0.6325
  930MOL0     H25546   2.629   7.319   9.648  3.4519  1.9016  0.6526
  930MOL0     H25547   2.661   7.163   9.582 -1.8651  1.8353 -0.4614
  930MOL0     H25548   3.017   7.256   9.770  0.0807 -1.2983 -1.0536
  930MOL0     H25549   2.096   6.901   9.773 -1.6004 -0.4995  1.9714
  930MOL0     H25550   1.912   6.787   9.691  0.7166  1.8347 -2.3960
  931MOL0     O25551   7.886   6.160   3.647  0.5282 -0.2343  0.8951
  931MOL0     C25552   7.940   6.075   3.579 -0.6206 -0.4495 -0.2062
  931MOL0     O25553   7.881   5.973   3.513 -0.0678  0.0069 -0.1534
  931MOL0     C25554   7.752   5.963   3.515 -0.0388  1.0601 -0.1187
  931MOL0     C25555   7.680   6.027   3.417 -0.1514  0.3825  0.3859
  931MOL0     C25556   7.550   6.006   3.402  0.0359  0.5053  0.6005
  931MOL0     C25557   7.480   5.912   3.474 -0.0660  0.8249  0.2412
  931MOL0     O25558   7.348   5.898   3.467 -0.2374 -0.2023  0.0346
  931MOL0     C25559   7.280   5.906   3.342 -0.8408  1.2423  0.1995
  931MOL0     C25560   7.211   6.047   3.326  0.4273 -0.1316  0.2322
  931MOL0     C25561   7.116   6.042   3.200  0.0617 -0.0718  0.0068
  931MOL0     C25562   7.011   6.157   3.213  0.2957  0.3407  0.4724
  931MOL0     C25563   7.090   6.295   3.204  0.7424 -0.6480  0.0177
  931MOL0     C25564   6.992   6.415   3.203  0.3234  0.6674  0.5350
  931MOL0     C25565   7.052   6.556   3.170 -0.2659 -0.3667 -0.4228
  931MOL0     C25566   6.974   6.679   3.220  0.7711 -0.2384 -0.0731
  931MOL0     N25567   6.839   6.674   3.164  0.3063 -0.5387 -0.3661
  931MOL0     C25568   6.787   6.764   3.066  0.5162 -0.7938  0.5721
  931MOL0     C25569   6.661   6.726   3.036 -1.0924 -0.4375  1.2836
  931MOL0     C25570   6.560   6.801   2.950  0.7391  0.1636 -0.3168
  931MOL0     C25571   6.463   6.883   3.035  0.4943 -0.7063  0.0332
  931MOL0     C25572   6.374   6.963   2.939 -0.7520 -0.7380  0.3962
  931MOL0     C25573   6.289   7.053   3.026  0.5858  0.0601 -0.4275
  931MOL0     O25574   6.202   7.137   2.944  0.5468 -0.3922 -0.3454
  931MOL0     C25575   6.137   7.243   3.012  0.2871  1.3364  1.4417
  931MOL0     C25576   6.062   7.336   2.927  0.5452 -0.5327  1.0472
  931MOL0     C25577   5.988   7.441   2.986  0.3566  0.3332  0.4250
  931MOL0     C25578   5.947   7.545   2.874 -0.1875 -0.3285  0.0730
  931MOL0     C25579   5.974   7.443   3.126  0.4029 -0.7736 -0.1446
  931MOL0     C25580   5.879   7.544   3.198  0.6481  0.1439  0.0788
  931MOL0     O25581   5.827   7.643   3.127  0.1219  0.8565 -0.0712
  931MOL0     C25582   5.752   7.738   3.205 -1.2021  0.6528 -0.1217
  931MOL0     C25583   5.811   7.847   3.255 -0.2581  0.5944 -0.5108
  931MOL0     C25584   5.733   7.930   3.336  0.8117  0.5868  0.1073
  931MOL0     C25585   5.592   7.915   3.344  0.5926 -0.1802  0.7955
  931MOL0     O25586   5.516   8.001   3.423 -0.4396  0.0970 -0.8184
  931MOL0     C25587   5.517   8.147   3.399  0.4533  0.5802  0.4879
  931MOL0     C25588   5.423   8.192   3.281  0.3126 -0.8489 -0.7437
  931MOL0     C25589   5.443   8.346   3.247  0.8062  0.6388  0.2682
  931MOL0     C25590   5.399   8.441   3.362  0.0666  0.0441 -0.2393
  931MOL0     C25591   5.403   8.589   3.333  0.0595 -0.5731 -0.4650
  931MOL0     C25592   5.529   8.648   3.270 -0.5818  1.1235  0.7166
  931MOL0     C25593   5.640   8.667   3.374  0.3056  0.8875  0.1216
  931MOL0     C25594   5.640   8.794   3.460  0.4917  0.3429 -0.2383
  931MOL0    Cl25595   5.519   8.791   3.599  0.3976 -0.0449 -0.3230
  931MOL0     C25596   5.531   7.810   3.283  0.5009  0.4291 -0.4357
  931MOL0     C25597   5.618   7.719   3.213  0.0687 -0.9268 -0.5046
  931MOL0     O25598   5.859   7.525   3.319 -0.1191  0.3828  0.5904
  931MOL0     C25599   6.057   7.358   3.212 -0.3727 -0.3660  0.7173
  931MOL0     C25600   6.129   7.257   3.151 -0.0148 -0.8245  0.1575
  931MOL0     N25601   6.634   6.616   3.114 -0.1152  0.0281 -0.0546
  931MOL0     N25602   6.737   6.591   3.192 -0.0330 -0.0879  0.7410
  931MOL0     C25603   7.556   5.853   3.579 -0.1207 -0.3589 -0.6655
  931MOL0     C25604   7.694   5.865   3.588  0.8812  0.0032  0.1101
  931MOL0     C25605   8.091   6.087   3.603 -0.3596  0.4269 -0.0444
  931MOL0     C25606   8.151   6.175   3.698  0.5859  0.2219 -0.6394
  931MOL0     C25607   8.281   6.156   3.723  0.3862  0.8806  0.3086
  931MOL0     C25608   8.359   6.065   3.651  0.1500  0.0618  0.4300
  931MOL0     O25609   8.498   6.043   3.682  0.3592 -0.3542  0.5247
  931MOL0     C25610   8.562   6.120   3.785  0.4200 -1.3676  0.2905
  931MOL0     C25611   8.600   6.261   3.729  0.2954  0.4426 -0.4046
  931MOL0     C25612   8.724   6.243   3.640 -1.1910 -0.3160  0.0507
  931MOL0     C25613   8.806   6.376   3.636 -0.6668 -0.8935 -0.6711
  931MOL0     C25614   8.888   6.382   3.755  0.1616  0.3192  0.6493
  931MOL0     C25615   8.969   6.384   3.840 -0.5228  0.8643  0.4905
  931MOL0     C25616   8.301   5.983   3.557 -0.4223 -0.2815  0.1972
  931MOL0     C25617   8.164   5.997   3.528 -0.9048  0.2047  0.4019
  931MOL0     H25618   7.722   6.104   3.353 -1.3328 -0.6613 -1.7679
  931MOL0     H25619   7.502   6.044   3.312 -0.4115  0.6088  0.8791
  931MOL0     H25620   7.351   5.897   3.259 -2.1800  1.4692 -1.0009
  931MOL0     H25621   7.210   5.822   3.342  0.7731 -0.1580  0.6413
  931MOL0     H25622   7.154   6.086   3.410 -1.5696 -2.5500  0.1113
  931MOL0     H25623   7.297   6.111   3.303 -0.1985  0.3678 -0.8079
  931MOL0     H25624   7.160   6.043   3.100  3.7892  1.2473  1.5258
  931MOL0     H25625   7.051   5.955   3.215 -1.0650  0.8141  0.4415
  931MOL0     H25626   6.939   6.153   3.131  0.1729 -1.7947  0.6045
  931MOL0     H25627   6.954   6.154   3.306 -1.0109 -0.9709 -0.3285
  931MOL0     H25628   7.160   6.309   3.287  0.1293  1.8512  0.1984
  931MOL0     H25629   7.148   6.301   3.111 -0.9383  1.4270 -0.9697
  931MOL0     H25630   6.930   6.395   3.115  2.1632  0.7796 -0.8403
  931MOL0     H25631   6.932   6.426   3.294  0.9972  0.2788  1.0362
  931MOL0     H25632   7.150   6.551   3.220 -0.3198  1.5903 -0.0068
  931MOL0     H25633   7.060   6.570   3.062 -1.3487 -1.8304 -0.7194
  931MOL0     H25634   7.003   6.778   3.182 -3.3314  0.2851 -2.5784
  931MOL0     H25635   6.963   6.684   3.328  1.3431 -0.7021  0.0084
  931MOL0     H25636   6.818   6.863   3.035 -2.3713  0.3879  1.1293
  931MOL0     H25637   6.616   6.870   2.885  0.3616 -0.5521 -1.4328
  931MOL0     H25638   6.497   6.735   2.890  0.6041 -0.4437  0.4831
  931MOL0     H25639   6.521   6.955   3.093 -1.5083 -0.2915  1.6623
  931MOL0     H25640   6.397   6.827   3.102 -0.3805 -0.5111 -0.6367
  931MOL0     H25641   6.316   6.892   2.879 -0.1866 -1.2828  0.4805
  931MOL0     H25642   6.435   7.024   2.872  1.3875  0.5152  3.2984
  931MOL0     H25643   6.352   7.111   3.094  2.3532 -4.1510  1.8518
  931MOL0     H25644   6.232   6.990   3.096 -1.8055  1.4365 -0.9992
  931MOL0     H25645   6.070   7.318   2.821 -0.3903  2.2028  0.4171
  931MOL0     H25646   6.002   7.528   2.781  1.8558  1.5821  0.8418
  931MOL0     H25647   5.842   7.543   2.845 -0.9296  2.3151  2.1701
  931MOL0     H25648   5.968   7.647   2.906  0.0959 -0.6179  0.8527
  931MOL0     H25649   5.919   7.853   3.252 -0.2145 -0.4636 -1.6955
  931MOL0     H25650   5.786   8.009   3.389 -1.4500  1.0932  1.7677
  931MOL0     H25651   5.492   8.184   3.499 -1.3076 -0.5839  0.5218
  931MOL0     H25652   5.616   8.177   3.363  1.0442 -2.3533 -0.6681
  931MOL0     H25653   5.445   8.144   3.185 -1.0050  0.5951 -1.8111
  931MOL0     H25654   5.317   8.171   3.296  0.6713 -1.2075  1.8969
  931MOL0     H25655   5.381   8.362   3.158 -1.1371 -1.2307  1.2014
  931MOL0     H25656   5.550   8.354   3.231  0.5873  2.2961 -0.5922
  931MOL0     H25657   5.298   8.411   3.393  0.0904 -0.8901 -1.0090
  931MOL0     H25658   5.473   8.409   3.436 -0.8503 -0.9871  0.2617
  931MOL0     H25659   5.384   8.633   3.431 -0.6691 -4.0463  1.0789
  931MOL0     H25660   5.317   8.609   3.267 -0.2306 -0.8615 -0.1763
  931MOL0     H25661   5.574   8.578   3.199  3.0840  3.5218  0.3587
  931MOL0     H25662   5.517   8.746   3.221 -1.9177  0.9160  0.5941
  931MOL0     H25663   5.736   8.667   3.322  1.7293  1.1365  2.5786
  931MOL0     H25664   5.647   8.579   3.439  0.6750 -0.1741 -1.3123
  931MOL0     H25665   5.615   8.883   3.401 -2.7095 -0.4719 -0.3199
  931MOL0     H25666   5.738   8.790   3.509 -0.5877 -0.6753  1.9915
  931MOL0     H25667   5.426   7.791   3.301  0.1569  2.0404 -0.5240
  931MOL0     H25668   5.584   7.625   3.170  1.9668 -1.1033 -1.7206
  931MOL0     H25669   6.041   7.368   3.319 -3.9148  2.7266  0.1002
  931MOL0     H25670   6.168   7.184   3.222 -2.9075  0.9797  3.9938
  931MOL0     H25671   7.497   5.803   3.655 -3.1066  0.0983 -2.5003
  931MOL0     H25672   7.757   5.803   3.651  1.2657 -0.1639 -0.4308
  931MOL0     H25673   8.100   6.246   3.763 -2.5954 -2.5563  0.1757
  931MOL0     H25674   8.330   6.208   3.805  0.0751  0.5927  0.6846
  931MOL0     H25675   8.495   6.123   3.872  0.4512  2.8883  0.3768
  931MOL0     H25676   8.650   6.073   3.831  0.2584 -1.6539  0.3057
  931MOL0     H25677   8.619   6.330   3.812  0.4071 -1.6353  1.3724
  931MOL0     H25678   8.522   6.310   3.670  1.1113 -0.7248 -2.5853
  931MOL0     H25679   8.691   6.223   3.538 -0.9451  1.9989 -0.5433
  931MOL0     H25680   8.794   6.167   3.677 -1.9671 -0.6339  0.8992
  931MOL0     H25681   8.748   6.468   3.635 -0.2812 -0.5298 -4.5664
  931MOL0     H25682   8.869   6.381   3.547 -0.4249 -5.3423 -0.9960
  931MOL0     H25683   9.040   6.409   3.916 -0.9557  0.4849  1.0293
  931MOL0     H25684   8.361   5.912   3.500  1.0589 -0.4930  1.9246
  931MOL0     H25685   8.115   5.922   3.465 -1.2386 -0.4212  1.3788
  932MOL0     O25686  11.098   8.138   5.710 -0.2145  0.2509  0.0430
  932MOL0     C25687  11.172   8.081   5.794  0.7136 -0.0742 -0.2832
  932MOL0     O25688  11.130   7.980   5.874  0.3702  0.6622  0.3011
  932MOL0     C25689  10.999   7.938   5.890  0.7921  0.0015 -0.1361
  932MOL0     C25690  10.979   7.843   5.986  0.1081  0.9119 -0.0994
  932MOL0     C25691  10.849   7.794   6.027 -0.2778 -0.1229 -0.6920
  932MOL0     C25692  10.737   7.842   5.966  0.6763 -0.9246  0.1172
  932MOL0     O25693  10.614   7.800   6.019  0.6320 -0.8602  0.1603
  932MOL0     C25694  10.490   7.877   6.009 -0.0132  0.0689  0.8990
  932MOL0     C25695  10.367   7.807   5.968  0.1872  0.0014  0.1958
  932MOL0     C25696  10.235   7.879   5.979  0.1097 -0.3903 -0.9978
  932MOL0     C25697  10.113   7.792   5.986  0.5614  0.1122  0.2941
  932MOL0     C25698  10.064   7.742   5.851 -0.3667 -0.3962  0.7284
  932MOL0     C25699   9.959   7.637   5.864 -0.6932 -0.2061  0.0887
  932MOL0     C25700   9.946   7.575   5.727  0.8382  0.0835  0.2656
  932MOL0     C25701   9.865   7.448   5.714  0.3081 -0.1291  0.0198
  932MOL0     N25702   9.722   7.487   5.716 -0.0559  0.2590 -0.5197
  932MOL0     C25703   9.628   7.472   5.618  1.1714  0.8706  0.2309
  932MOL0     C25704   9.508   7.507   5.672 -0.1714 -0.0867 -0.4487
  932MOL0     C25705   9.376   7.513   5.591 -0.2273  0.6406 -0.2754
  932MOL0     C25706   9.257   7.490   5.677  0.4835  0.2879  0.3744
  932MOL0     C25707   9.128   7.532   5.603  0.8109 -0.1506  0.8004
  932MOL0     C25708   9.004   7.514   5.689  0.0715 -0.1431  0.3987
  932MOL0     O25709   8.892   7.568   5.626  0.0294  0.4476 -0.4773
  932MOL0     C25710   8.774   7.547   5.692  0.9765  0.6349  0.6652
  932MOL0     C25711   8.740   7.464   5.810 -0.3264  0.6049  0.5683
  932MOL0     C25712   8.610   7.458   5.862 -0.4268 -0.6872  1.4707
  932MOL0     C25713   8.585   7.392   5.990 -0.6220 -0.2900  0.4900
  932MOL0     C25714   8.499   7.524   5.794 -0.7894 -0.0259  0.1477
  932MOL0     C25715   8.362   7.534   5.853  1.4352 -1.1589 -0.3191
  932MOL0     O25716   8.290   7.632   5.794  0.3683  0.2713  0.0883
  932MOL0     C25717   8.149   7.632   5.801  0.4257 -0.3443 -0.3475
  932MOL0     C25718   8.068   7.511   5.790 -0.2100 -0.8924 -0.0634
  932MOL0     C25719   7.929   7.517   5.790 -0.4171  0.0605  0.5556
  932MOL0     C25720   7.862   7.637   5.789  0.1821  0.2533  0.2530
  932MOL0     O25721   7.718   7.624   5.786 -0.9069  0.7651 -0.2772
  932MOL0     C25722   7.648   7.748   5.755  0.6486 -0.4749 -0.4436
  932MOL0     C25723   7.493   7.721   5.754 -0.9177  0.6576  0.0909
  932MOL0     C25724   7.421   7.856   5.730 -1.3451 -0.6176  0.8020
  932MOL0     C25725   7.271   7.866   5.706 -0.3032 -0.1359 -0.8564
  932MOL0     C25726   7.191   7.787   5.811  0.0411 -0.4969 -0.0650
  932MOL0     C25727   7.047   7.775   5.754 -0.5233 -0.0862 -0.3452
  932MOL0     C25728   6.941   7.734   5.853 -0.4524 -0.4231 -0.9746
  932MOL0     C25729   6.979   7.603   5.939 -0.4364  0.6370 -0.0198
  932MOL0    Cl25730   6.833   7.518   5.979 -0.0152 -0.1905  0.0533
  932MOL0     C25731   7.939   7.755   5.788  0.1877 -0.1838  1.2176
  932MOL0     C25732   8.084   7.751   5.788  0.7048 -0.7001  0.3511
  932MOL0     O25733   8.315   7.455   5.937  0.4044 -0.5573  0.4984
  932MOL0     C25734   8.534   7.599   5.686 -0.6742 -1.3219 -0.6966
  932MOL0     C25735   8.667   7.609   5.639  0.1450 -0.7325 -0.0331
  932MOL0     N25736   9.539   7.562   5.798  0.2784 -0.1434  0.0099
  932MOL0     N25737   9.667   7.544   5.825  0.0151  0.2937  0.1398
  932MOL0     C25738  10.752   7.938   5.863  0.6902 -0.5642 -0.4684
  932MOL0     C25739  10.878   7.987   5.829 -0.3645 -0.4815 -0.0077
  932MOL0     C25740  11.320   8.103   5.795  0.8577  0.3078  0.3717
  932MOL0     C25741  11.378   8.213   5.728  0.1624  0.3762  0.5306
  932MOL0     C25742  11.526   8.223   5.720  0.0439 -0.4390 -0.4280
  932MOL0     C25743  11.607   8.127   5.788 -0.1778  0.3504  1.2398
  932MOL0     O25744  11.735   8.167   5.797 -0.2154 -0.2089 -0.3658
  932MOL0     C25745  11.834   8.066   5.768 -0.5652 -0.5897 -0.7468
  932MOL0     C25746  11.956   8.109   5.843  0.9261 -0.3625 -0.4182
  932MOL0     C25747  12.082   8.070   5.785  0.1455 -0.1879 -0.0833
  932MOL0     C25748  12.188   8.121   5.876  0.2292 -0.0176  0.2076
  932MOL0     C25749  12.316   8.060   5.837 -0.7598  0.2155 -0.4504
  932MOL0     C25750  12.428   8.018   5.811 -1.1761 -0.9618 -0.1330
  932MOL0     C25751  11.543   8.033   5.862  1.2871  0.4085 -0.1707
  932MOL0     C25752  11.400   8.023   5.864  0.2463  0.5502  0.1281
  932MOL0     H25753  11.061   7.793   6.037  0.3746 -0.0291 -1.4006
  932MOL0     H25754  10.841   7.713   6.100 -1.3818  1.3714  0.9208
  932MOL0     H25755  10.481   7.929   6.105  1.2899  2.5982 -0.2475
  932MOL0     H25756  10.489   7.961   5.939 -2.7430  1.3956  2.3910
  932MOL0     H25757  10.372   7.765   5.867 -1.1551 -1.4333  0.6702
  932MOL0     H25758  10.363   7.715   6.028 -1.3661  0.4353  0.8199
  932MOL0     H25759  10.240   7.936   6.073  0.3162  1.6238 -2.1911
  932MOL0     H25760  10.210   7.945   5.895 -0.9516 -1.4679 -1.5661
  932MOL0     H25761  10.144   7.704   6.042  1.5991 -1.0330 -1.9387
  932MOL0     H25762  10.027   7.845   6.030  1.0425  1.4790 -0.3424
  932MOL0     H25763  10.026   7.838   5.814 -3.3120 -0.4499  3.2432
  932MOL0     H25764  10.150   7.708   5.792  0.6205  0.2102  1.7749
  932MOL0     H25765   9.973   7.571   5.950  0.6065  0.0014  0.0662
  932MOL0     H25766   9.868   7.691   5.893 -2.1237 -2.1119 -0.6234
  932MOL0     H25767   9.897   7.647   5.660 -1.1054 -1.9690 -0.6526
  932MOL0     H25768  10.045   7.569   5.682 -0.4958 -1.3848 -2.7488
  932MOL0     H25769   9.889   7.368   5.785 -0.2940  0.0773  0.4696
  932MOL0     H25770   9.889   7.406   5.616 -2.4190 -1.4630 -0.1689
  932MOL0     H25771   9.634   7.422   5.522  0.5623  0.8922  0.1789
  932MOL0     H25772   9.355   7.608   5.541 -2.5884 -1.5265 -3.8152
  932MOL0     H25773   9.380   7.436   5.514  0.4007 -0.4251  0.7736
  932MOL0     H25774   9.266   7.553   5.766 -1.2032 -1.1501  1.6412
  932MOL0     H25775   9.245   7.389   5.718 -2.2910 -0.0856 -1.1180
  932MOL0     H25776   9.108   7.474   5.513 -2.0531  2.8376 -0.6983
  932MOL0     H25777   9.139   7.635   5.570  0.6156 -0.3602  0.0684
  932MOL0     H25778   9.021   7.563   5.785 -1.2219 -0.3628  0.7564
  932MOL0     H25779   8.987   7.407   5.703 -3.9049  0.3332  0.1375
  932MOL0     H25780   8.815   7.408   5.866 -0.2474 -0.4257 -0.5471
  932MOL0     H25781   8.506   7.317   5.984 -2.9096  1.8072  2.1126
  932MOL0     H25782   8.681   7.356   6.029  1.3469  3.6992 -0.1136
  932MOL0     H25783   8.561   7.472   6.062  1.8100  0.5429  0.4644
  932MOL0     H25784   8.120   7.417   5.783 -1.0620 -1.3982  0.2198
  932MOL0     H25785   7.862   7.434   5.770  2.9331 -1.9834 -4.2528
  932MOL0     H25786   7.678   7.825   5.827  3.0499 -2.4015  0.7462
  932MOL0     H25787   7.676   7.779   5.654 -1.1732  1.6692 -0.3816
  932MOL0     H25788   7.467   7.650   5.675  3.6898 -1.1663 -0.0656
  932MOL0     H25789   7.483   7.679   5.855 -3.6494  1.9605  0.4761
  932MOL0     H25790   7.461   7.894   5.635  1.6064 -2.5662  1.1297
  932MOL0     H25791   7.452   7.921   5.812  0.0705  0.9171 -0.8630
  932MOL0     H25792   7.244   7.972   5.707  0.2829  0.0640  1.9985
  932MOL0     H25793   7.252   7.840   5.602  1.9525  2.8399 -2.1799
  932MOL0     H25794   7.178   7.854   5.896  2.4055  0.7529 -0.6162
  932MOL0     H25795   7.243   7.699   5.852 -0.6892 -0.2034  1.5638
  932MOL0     H25796   7.023   7.875   5.715 -0.5458 -0.7771 -2.1929
  932MOL0     H25797   7.037   7.712   5.665 -2.4448  1.2930 -1.1938
  932MOL0     H25798   6.844   7.708   5.810 -0.4367 -0.0646 -1.2343
  932MOL0     H25799   6.933   7.806   5.935 -0.6698 -2.1690  0.6199
  932MOL0     H25800   7.043   7.643   6.019  3.0974 -0.2174 -2.1887
  932MOL0     H25801   7.050   7.542   5.883  1.8087  2.3331  0.8081
  932MOL0     H25802   7.890   7.848   5.759 -1.9742 -1.4758  0.5422
  932MOL0     H25803   8.136   7.845   5.770 -0.8331  0.0175 -0.5553
  932MOL0     H25804   8.462   7.670   5.647  1.0861  0.4904 -0.8110
  932MOL0     H25805   8.704   7.674   5.561  1.3040 -0.5138  0.6727
  932MOL0     H25806  10.664   7.968   5.806  0.5586 -0.9708 -0.4869
  932MOL0     H25807  10.876   8.068   5.757 -3.4939 -0.5464 -0.1367
  932MOL0     H25808  11.320   8.290   5.678  0.6025  0.3490 -0.0365
  932MOL0     H25809  11.563   8.309   5.665  1.0296  0.7265  1.9244
  932MOL0     H25810  11.802   7.965   5.795  0.2532 -0.6198  0.1977
  932MOL0     H25811  11.854   8.070   5.660 -1.3955  2.3705 -0.8756
  932MOL0     H25812  11.951   8.070   5.945  1.6700 -1.0402 -0.6260
  932MOL0     H25813  11.956   8.218   5.855 -0.3999 -0.4214  0.3519
  932MOL0     H25814  12.092   8.123   5.690 -2.7375 -0.1237 -0.4341
  932MOL0     H25815  12.086   7.964   5.758  1.0584 -0.2937  0.3986
  932MOL0     H25816  12.170   8.102   5.982 -2.8745 -1.1806 -0.4197
  932MOL0     H25817  12.200   8.229   5.864 -2.4659  0.5223  1.6223
  932MOL0     H25818  12.523   7.979   5.782  0.3806  1.5182  1.3414
  932MOL0     H25819  11.595   7.955   5.919  1.7489  0.8442  0.0136
  932MOL0     H25820  11.351   7.936   5.906 -1.2622  1.8055  1.0740
  933MOL0     O25821   8.830   2.938   4.871  0.0817  0.2909 -0.5814
  933MOL0     C25822   8.842   2.836   4.931  0.2941 -0.5069 -0.2543
  933MOL0     O25823   8.763   2.724   4.909 -0.1210 -0.2116  0.2260
  933MOL0     C25824   8.642   2.739   4.834 -0.0169 -0.7129  0.2427
  933MOL0     C25825   8.517   2.718   4.880 -0.0602 -0.1208  0.2450
  933MOL0     C25826   8.410   2.751   4.801  1.3091  0.3343  0.2952
  933MOL0     C25827   8.424   2.782   4.669  0.1353  0.8073 -0.4545
  933MOL0     O25828   8.317   2.802   4.584 -0.4029  0.3794 -0.2017
  933MOL0     C25829   8.191   2.747   4.611 -0.3405 -0.0391 -0.8974
  933MOL0     C25830   8.100   2.793   4.502 -0.1766  0.0197  0.0598
  933MOL0     C25831   8.052   2.938   4.524  0.1222  0.6193  0.1008
  933MOL0     C25832   7.946   2.991   4.422 -0.2685  0.3475 -0.7641
  933MOL0     C25833   7.915   3.140   4.431 -0.1822 -0.5460 -0.0440
  933MOL0     C25834   7.823   3.189   4.321 -0.0943 -0.1398  0.1890
  933MOL0     C25835   7.691   3.114   4.316 -0.6583  0.0273  0.1470
  933MOL0     C25836   7.604   3.169   4.423  0.4697  0.8550 -1.1952
  933MOL0     N25837   7.474   3.109   4.442  0.5533  0.6415 -1.0470
  933MOL0     C25838   7.430   2.979   4.411  0.0398 -0.4688  0.1409
  933MOL0     C25839   7.294   2.992   4.407 -0.3142  0.0507 -0.0773
  933MOL0     C25840   7.209   2.874   4.364 -0.4844 -0.7889 -0.2479
  933MOL0     C25841   7.048   2.899   4.391  0.8939 -0.4237  0.1308
  933MOL0     C25842   6.955   2.780   4.372  0.4539  0.2046 -0.4639
  933MOL0     C25843   6.821   2.809   4.316 -0.2216  0.2943  0.8756
  933MOL0     O25844   6.754   2.897   4.398  0.2129 -0.0987 -0.7371
  933MOL0     C25845   6.621   2.926   4.373 -0.3148  0.2322 -0.3383
  933MOL0     C25846   6.553   2.886   4.259 -0.6055 -0.1771 -0.3003
  933MOL0     C25847   6.421   2.932   4.227  0.2476  0.5452  0.7583
  933MOL0     C25848   6.379   2.893   4.079  0.2808  0.6392 -0.3745
  933MOL0     C25849   6.350   3.021   4.314 -0.0302  0.5221  0.0323
  933MOL0     C25850   6.215   3.079   4.294 -0.4321  0.7140  0.3953
  933MOL0     O25851   6.180   3.116   4.169  0.1020  0.3420  0.8412
  933MOL0     C25852   6.052   3.139   4.135 -0.1283 -1.6586 -0.3710
  933MOL0     C25853   5.982   3.236   4.210 -0.0288 -0.0607  0.3994
  933MOL0     C25854   5.846   3.248   4.178 -0.0880  0.0369 -0.5908
  933MOL0     C25855   5.791   3.183   4.066  0.5260  0.0901 -0.0755
  933MOL0     O25856   5.661   3.201   4.012  0.3007  0.6360  0.2310
  933MOL0     C25857   5.576   3.308   4.079  0.7599 -0.2854  0.6081
  933MOL0     C25858   5.433   3.297   4.015 -0.1385 -0.1181 -0.1656
  933MOL0     C25859   5.366   3.160   4.041  0.6467  0.5772 -0.3868
  933MOL0     C25860   5.225   3.156   3.976  0.1610  0.6817  0.0333
  933MOL0     C25861   5.179   3.014   3.937  0.1123 -0.5497  0.4246
  933MOL0     C25862   5.038   3.028   3.868 -0.4545 -0.1562 -0.3568
  933MOL0     C25863   5.039   3.087   3.717 -0.3721  1.1952 -0.1522
  933MOL0     C25864   4.893   3.137   3.679  0.4064 -0.2244  0.7411
  933MOL0    Cl25865   4.788   2.993   3.668 -0.1457  0.1394  0.2375
  933MOL0     C25866   5.871   3.095   3.986  0.1090 -0.2869  0.2796
  933MOL0     C25867   5.999   3.075   4.025  0.1682 -0.5266 -0.3627
  933MOL0     O25868   6.152   3.102   4.397  0.3288 -0.5784 -0.7811
  933MOL0     C25869   6.420   3.049   4.434  0.0805  0.3134 -0.7146
  933MOL0     C25870   6.555   3.010   4.468  0.4949 -0.5392  0.4439
  933MOL0     N25871   7.263   3.121   4.421 -0.4153 -1.4802 -0.6635
  933MOL0     N25872   7.365   3.195   4.438 -0.1011  0.6084 -0.6663
  933MOL0     C25873   8.549   2.790   4.619  0.2860  0.7300 -0.6607
  933MOL0     C25874   8.654   2.782   4.700 -0.0750 -0.3194 -0.1972
  933MOL0     C25875   8.951   2.817   5.040  0.5024 -0.0180 -0.1132
  933MOL0     C25876   8.983   2.688   5.095 -0.6020  0.1974 -0.2714
  933MOL0     C25877   9.085   2.675   5.197 -0.0392  0.2700  0.2715
  933MOL0     C25878   9.155   2.781   5.249  1.1981 -0.8650 -0.3984
  933MOL0     O25879   9.250   2.746   5.339  0.1365  0.3390 -0.3205
  933MOL0     C25880   9.339   2.848   5.384 -0.3787  1.1226  0.1425
  933MOL0     C25881   9.300   2.893   5.522 -0.4382  0.6753  0.3264
  933MOL0     C25882   9.346   3.043   5.545  0.1954 -0.8305 -0.2682
  933MOL0     C25883   9.230   3.142   5.585  0.3517  0.0460 -0.0492
  933MOL0     C25884   9.126   3.160   5.479  0.5808 -0.0063 -0.2694
  933MOL0     C25885   9.040   3.184   5.398  1.2243  0.6740 -0.6629
  933MOL0     C25886   9.111   2.913   5.204  0.0377  0.7213 -0.4252
  933MOL0     C25887   9.012   2.922   5.108  0.2787 -0.0642  1.0276
  933MOL0     H25888   8.499   2.686   4.982  0.5737 -1.6167 -0.0961
  933MOL0     H25889   8.318   2.732   4.855  0.8430  1.3951 -0.0960
  933MOL0     H25890   8.190   2.638   4.624 -4.4777 -0.5743 -3.6376
  933MOL0     H25891   8.166   2.785   4.710 -0.8419 -0.0949 -0.9983
  933MOL0     H25892   8.146   2.785   4.403 -1.8612 -0.8371 -0.6931
  933MOL0     H25893   8.012   2.728   4.505 -0.1207 -0.2451 -2.2791
  933MOL0     H25894   8.003   2.932   4.621  1.0601  2.0285  0.6902
  933MOL0     H25895   8.130   3.011   4.544 -0.5705  1.0381  1.3194
  933MOL0     H25896   7.982   2.968   4.321  2.0697 -0.1849  0.1182
  933MOL0     H25897   7.853   2.934   4.432  0.6650 -1.0695  0.2609
  933MOL0     H25898   7.880   3.176   4.528 -0.3950  2.3062 -1.0775
  933MOL0     H25899   8.012   3.189   4.418 -1.0184  1.5471  1.0214
  933MOL0     H25900   7.801   3.296   4.331 -0.4071  0.2816 -3.6739
  933MOL0     H25901   7.886   3.178   4.233  2.5324  0.1426  1.9125
  933MOL0     H25902   7.634   3.136   4.225 -1.0294 -1.7048 -0.0769
  933MOL0     H25903   7.703   3.006   4.322 -0.4912  0.0140 -0.3571
  933MOL0     H25904   7.586   3.276   4.413  0.1932  0.9039 -0.3117
  933MOL0     H25905   7.656   3.158   4.519  1.8447  1.3752 -1.8614
  933MOL0     H25906   7.493   2.892   4.395  0.2306 -0.6700  1.8129
  933MOL0     H25907   7.219   2.851   4.258 -3.5591  1.5201 -1.1693
  933MOL0     H25908   7.250   2.791   4.422  1.9511  0.7157  0.3340
  933MOL0     H25909   7.018   2.981   4.324  1.7965 -0.7247 -0.6744
  933MOL0     H25910   7.045   2.921   4.498  2.3509  2.0995 -0.2624
  933MOL0     H25911   6.939   2.741   4.473  0.6489  1.5971  0.1237
  933MOL0     H25912   7.008   2.703   4.316 -1.7919 -2.0076  0.2726
  933MOL0     H25913   6.769   2.717   4.288 -0.9749  1.5010 -2.0886
  933MOL0     H25914   6.833   2.865   4.223 -1.3779  2.4851  1.9854
  933MOL0     H25915   6.594   2.817   4.187 -1.0765 -1.4257  0.6037
  933MOL0     H25916   6.373   2.981   4.014  0.9344  1.3238  0.4615
  933MOL0     H25917   6.447   2.816   4.040  2.0766  0.3394  2.9729
  933MOL0     H25918   6.284   2.842   4.093 -0.0950  0.9469 -1.6487
  933MOL0     H25919   6.036   3.296   4.282  1.1292 -2.3624  1.5427
  933MOL0     H25920   5.788   3.318   4.237  0.3829 -0.7624  0.8954
  933MOL0     H25921   5.573   3.299   4.188  0.5872 -0.4927  0.5894
  933MOL0     H25922   5.615   3.409   4.070  1.4639 -0.5258  0.9388
  933MOL0     H25923   5.385   3.385   4.058  0.7286  2.3299 -3.7476
  933MOL0     H25924   5.435   3.315   3.907  0.7578  1.5829  0.0919
  933MOL0     H25925   5.367   3.132   4.147  1.2811  1.3594 -0.1733
  933MOL0     H25926   5.419   3.075   3.998 -0.9573 -0.4267 -0.4554
  933MOL0     H25927   5.159   3.199   4.052 -2.2626  1.1158 -2.2014
  933MOL0     H25928   5.230   3.222   3.889  1.1935  1.8856  0.9650
  933MOL0     H25929   5.170   2.953   4.027  1.8784 -1.4160  0.0611
  933MOL0     H25930   5.251   2.966   3.870 -0.0690 -0.6997  0.3368
  933MOL0     H25931   4.993   2.929   3.868  0.0973 -0.4135  0.6536
  933MOL0     H25932   4.974   3.096   3.925  0.1247 -0.1221  0.2604
  933MOL0     H25933   5.064   3.006   3.647 -1.7457  1.1745 -0.6449
  933MOL0     H25934   5.118   3.162   3.705  1.5908 -0.4785  1.5582
  933MOL0     H25935   4.891   3.193   3.585 -0.7425  1.5510  1.7832
  933MOL0     H25936   4.860   3.210   3.753  0.4030  0.5201  0.0139
  933MOL0     H25937   5.826   3.030   3.912 -0.2952 -1.8920  1.8651
  933MOL0     H25938   6.059   3.004   3.969  0.3147 -0.0629 -0.8056
  933MOL0     H25939   6.377   3.100   4.520 -2.4694 -2.3599 -0.2292
  933MOL0     H25940   6.600   3.036   4.564 -1.6988  0.6026  1.2279
  933MOL0     H25941   8.577   2.811   4.516 -1.2026  0.6647 -1.1080
  933MOL0     H25942   8.751   2.798   4.654 -0.5032  1.6743 -0.4817
  933MOL0     H25943   8.943   2.588   5.077 -0.1549  0.2034 -1.3774
  933MOL0     H25944   9.103   2.570   5.220  0.7956  0.1546 -0.8030
  933MOL0     H25945   9.434   2.795   5.397 -1.5473 -1.1672 -0.0136
  933MOL0     H25946   9.344   2.933   5.316 -2.8889  3.1565  2.2811
  933MOL0     H25947   9.359   2.834   5.593 -0.9444  0.6151  0.7084
  933MOL0     H25948   9.193   2.880   5.540 -0.6509  2.7296  0.7713
  933MOL0     H25949   9.400   3.074   5.455 -1.4171 -3.3342 -2.2618
  933MOL0     H25950   9.418   3.043   5.627 -0.1799 -0.7986  0.0663
  933MOL0     H25951   9.267   3.244   5.598 -0.3595  0.4403 -0.9298
  933MOL0     H25952   9.189   3.091   5.672 -1.0633 -2.5922 -2.0904
  933MOL0     H25953   8.968   3.203   5.320 -0.0130 -1.3823 -0.0997
  933MOL0     H25954   9.158   3.006   5.235  0.8091  0.4813 -0.8479
  933MOL0     H25955   8.984   3.019   5.067 -1.7087 -0.9031  0.2741
  934MOL0     O25956   0.947   0.818   4.819 -0.4195 -0.0820  0.0445
  934MOL0     C25957   0.991   0.745   4.725 -0.6986 -0.7020  0.5338
  934MOL0     O25958   0.932   0.723   4.608  0.2930 -0.6577 -0.0481
  934MOL0     C25959   0.805   0.779   4.598  0.0792 -0.7502  0.0751
  934MOL0     C25960   0.689   0.735   4.665 -0.4143 -0.1917 -0.1267
  934MOL0     C25961   0.566   0.794   4.647 -0.1706 -0.0231  0.4232
  934MOL0     C25962   0.549   0.910   4.575  0.0171  0.0836  0.0579
  934MOL0     O25963   0.429   0.982   4.585 -0.8492 -0.2080  0.0655
  934MOL0     C25964   0.361   0.990   4.713 -0.5938  0.8387 -0.1089
  934MOL0     C25965   0.304   1.126   4.726 -0.3027 -0.2828 -0.1331
  934MOL0     C25966   0.192   1.153   4.621  0.2818 -0.0743 -0.1935
  934MOL0     C25967   0.244   1.249   4.509 -0.8769 -0.4118 -0.7273
  934MOL0     C25968   0.171   1.250   4.382  0.3704  0.4415 -0.0752
  934MOL0     C25969   0.037   1.317   4.388 -0.0285 -0.6088 -0.2829
  934MOL0     C25970  -0.026   1.352   4.254  0.1452 -0.1368  1.1014
  934MOL0     C25971  -0.164   1.411   4.257  0.3340 -0.4040 -0.1991
  934MOL0     N25972  -0.238   1.358   4.143 -0.2576  1.0270  0.0531
  934MOL0     C25973  -0.313   1.244   4.148 -0.4283 -0.2928 -0.2040
  934MOL0     C25974  -0.389   1.243   4.036  0.4647 -0.1000 -0.4360
  934MOL0     C25975  -0.500   1.134   4.019 -0.6080  0.5028  1.3315
  934MOL0     C25976  -0.638   1.196   4.003  0.2132 -0.5666 -0.7006
  934MOL0     C25977  -0.754   1.122   4.058  0.4572  0.5841  0.0019
  934MOL0     C25978  -0.882   1.193   4.071  0.2551 -0.3837 -0.7020
  934MOL0     O25979  -0.967   1.097   4.137  0.2348 -1.0661 -0.0856
  934MOL0     C25980  -1.097   1.131   4.165 -0.0968  0.4348  0.5175
  934MOL0     C25981  -1.166   1.238   4.118  0.3625  0.3208 -0.8887
  934MOL0     C25982  -1.306   1.251   4.136  0.1487 -0.8431  0.3410
  934MOL0     C25983  -1.370   1.380   4.103 -0.1646 -0.4912  0.3463
  934MOL0     C25984  -1.382   1.146   4.187 -0.0822 -0.7665 -1.2934
  934MOL0     C25985  -1.526   1.152   4.189 -0.4276  0.1652 -0.0283
  934MOL0     O25986  -1.602   1.219   4.086 -0.5847  0.0951  0.1388
  934MOL0     C25987  -1.733   1.187   4.066 -0.2222 -0.1305  0.6170
  934MOL0     C25988  -1.828   1.291   4.069 -0.5807 -0.0243 -0.8423
  934MOL0     C25989  -1.962   1.266   4.043  0.2162 -0.8640  0.6265
  934MOL0     C25990  -2.003   1.136   4.010  0.6391 -1.2301 -0.5656
  934MOL0     O25991  -2.140   1.101   4.002 -0.6092  0.0246  0.1883
  934MOL0     C25992  -2.174   0.969   3.952 -0.4886 -0.1304  0.5499
  934MOL0     C25993  -2.324   0.956   3.980  0.1501  0.1014 -0.0034
  934MOL0     C25994  -2.405   1.025   3.869  0.7665  0.0404  0.3010
  934MOL0     C25995  -2.531   1.101   3.924 -0.2489  0.6960  0.5715
  934MOL0     C25996  -2.613   1.170   3.822  0.7126 -0.5011  0.7898
  934MOL0     C25997  -2.677   1.297   3.880  0.3432  0.0041 -0.2660
  934MOL0     C25998  -2.722   1.391   3.766 -0.2051 -0.0078 -0.0862
  934MOL0     C25999  -2.815   1.496   3.804 -0.9062  0.6755  0.1963
  934MOL0    Cl26000  -2.731   1.641   3.867  0.0709 -0.2134  0.6926
  934MOL0     C26001  -1.903   1.041   3.977  0.3007  0.2693  0.0616
  934MOL0     C26002  -1.770   1.062   4.015 -0.3944 -1.0124 -1.3472
  934MOL0     O26003  -1.583   1.098   4.279  1.0152  0.4055 -0.2163
  934MOL0     C26004  -1.318   1.041   4.239 -0.2296 -0.1071  0.1702
  934MOL0     C26005  -1.177   1.026   4.225  0.8233 -0.2478  0.3407
  934MOL0     N26006  -0.348   1.347   3.954  0.2640 -0.2899  0.4726
  934MOL0     N26007  -0.261   1.423   4.021  0.6425 -0.4203 -0.1339
  934MOL0     C26008   0.662   0.969   4.518  0.7696 -0.1150  0.2102
  934MOL0     C26009   0.788   0.906   4.522 -0.1149 -0.1958  0.4732
  934MOL0     C26010   1.114   0.676   4.755 -0.7043  0.2208 -0.2939
  934MOL0     C26011   1.146   0.553   4.697  0.9356 -0.9162 -0.4448
  934MOL0     C26012   1.272   0.498   4.718 -0.6719  0.8531 -0.0888
  934MOL0     C26013   1.366   0.568   4.793  0.0858  0.3294  0.8312
  934MOL0     O26014   1.494   0.526   4.798  0.4485 -0.8411 -0.1738
  934MOL0     C26015   1.539   0.482   4.928  0.1057 -0.5785  0.2034
  934MOL0     C26016   1.698   0.489   4.923 -0.2025  0.4497 -0.4831
  934MOL0     C26017   1.764   0.422   4.814  0.0708  0.6183  0.3234
  934MOL0     C26018   1.913   0.437   4.813  0.7710  0.4351  0.5968
  934MOL0     C26019   1.972   0.335   4.735 -0.4282 -0.7857 -0.6101
  934MOL0     C26020   2.030   0.257   4.667 -0.0518  0.3173 -0.2622
  934MOL0     C26021   1.335   0.681   4.863  0.2871  0.2909  0.1444
  934MOL0     C26022   1.208   0.738   4.844  0.2065 -0.5032 -0.7068
  934MOL0     H26023   0.699   0.646   4.725  1.2109 -0.3872 -0.6279
  934MOL0     H26024   0.477   0.749   4.689 -0.5329 -0.8484 -1.1571
  934MOL0     H26025   0.285   0.913   4.725  0.9997 -1.4201 -3.1046
  934MOL0     H26026   0.435   0.971   4.792 -1.3737 -1.3194  0.1871
  934MOL0     H26027   0.255   1.147   4.821  1.5102 -0.7040  0.9402
  934MOL0     H26028   0.384   1.200   4.712  0.0894 -0.4587  1.0555
  934MOL0     H26029   0.189   1.053   4.576  1.1774 -1.2860  2.2565
  934MOL0     H26030   0.093   1.177   4.661  0.6755 -0.3123  0.9595
  934MOL0     H26031   0.251   1.351   4.547 -0.4548 -0.4300 -0.7547
  934MOL0     H26032   0.344   1.213   4.484 -0.7054 -0.2790 -0.2265
  934MOL0     H26033   0.243   1.292   4.311  1.6331  1.5644  1.7977
  934MOL0     H26034   0.142   1.149   4.350 -2.0204  0.8780  0.5187
  934MOL0     H26035  -0.029   1.247   4.439 -2.5319  1.0306 -1.0786
  934MOL0     H26036   0.040   1.408   4.450  3.0482 -0.2404 -0.8109
  934MOL0     H26037   0.042   1.417   4.197  0.5213 -2.5634 -1.4730
  934MOL0     H26038  -0.023   1.253   4.208  2.9212 -0.9537  2.7737
  934MOL0     H26039  -0.160   1.520   4.249 -2.2573 -0.2272 -0.1879
  934MOL0     H26040  -0.211   1.394   4.355 -0.0249 -0.8348 -0.4398
  934MOL0     H26041  -0.317   1.170   4.227 -1.6271 -0.3127 -0.2586
  934MOL0     H26042  -0.480   1.065   3.936 -0.9096 -1.7676  3.0627
  934MOL0     H26043  -0.501   1.058   4.097 -1.0658 -1.8612 -0.8213
  934MOL0     H26044  -0.661   1.209   3.897 -2.0451  0.0151 -0.1899
  934MOL0     H26045  -0.651   1.292   4.053 -2.8108 -0.2870 -1.7904
  934MOL0     H26046  -0.722   1.086   4.156  1.1759 -2.2282 -1.1589
  934MOL0     H26047  -0.774   1.030   4.003 -1.3020 -0.1736  1.7692
  934MOL0     H26048  -0.933   1.218   3.977 -4.4364 -3.2367  0.7162
  934MOL0     H26049  -0.861   1.278   4.136  1.3406  0.1977 -1.7766
  934MOL0     H26050  -1.121   1.324   4.070 -1.7587  3.9759  3.0255
  934MOL0     H26051  -1.306   1.468   4.111 -3.1168  1.6775  2.0338
  934MOL0     H26052  -1.413   1.380   4.003  1.5737 -0.4752 -0.4346
  934MOL0     H26053  -1.451   1.398   4.175 -1.9191 -3.3978 -0.7007
  934MOL0     H26054  -1.779   1.385   4.096  0.1632  0.3338 -3.1485
  934MOL0     H26055  -2.040   1.341   4.051 -0.0506 -0.6372 -2.6873
  934MOL0     H26056  -2.151   0.957   3.845 -0.0040  0.3175  0.6004
  934MOL0     H26057  -2.125   0.888   4.008  0.8086 -0.1032 -0.4776
  934MOL0     H26058  -2.346   0.849   3.973 -2.0022  0.3925  1.3811
  934MOL0     H26059  -2.342   0.989   4.082 -0.7655 -0.4085  0.0140
  934MOL0     H26060  -2.452   0.948   3.806 -0.3185 -0.3112  1.5102
  934MOL0     H26061  -2.336   1.091   3.815  1.2483 -0.1517  0.6733
  934MOL0     H26062  -2.589   1.035   3.989 -0.7780 -0.2501 -0.8038
  934MOL0     H26063  -2.485   1.171   3.995 -0.6775  0.9686  0.5822
  934MOL0     H26064  -2.698   1.108   3.791  0.0841  0.5033  0.4397
  934MOL0     H26065  -2.555   1.205   3.736 -0.2799  0.5471  0.5232
  934MOL0     H26066  -2.765   1.280   3.943 -0.0895 -1.5449 -1.2240
  934MOL0     H26067  -2.597   1.349   3.933 -1.3518 -0.8854  3.4849
  934MOL0     H26068  -2.769   1.335   3.684 -0.1738 -0.9749  0.5325
  934MOL0     H26069  -2.629   1.433   3.728  0.6528 -1.2097  0.6111
  934MOL0     H26070  -2.888   1.463   3.878 -0.7649 -1.4253 -0.5363
  934MOL0     H26071  -2.859   1.536   3.712 -0.0241  3.1103  0.7577
  934MOL0     H26072  -1.921   0.938   3.947 -1.4039  1.3061 -2.8668
  934MOL0     H26073  -1.705   0.975   4.018 -0.0332 -0.7509  1.4241
  934MOL0     H26074  -1.361   0.954   4.288 -0.8935  0.1222  0.0011
  934MOL0     H26075  -1.130   0.946   4.281  2.5471  1.9336  2.2005
  934MOL0     H26076   0.655   1.069   4.475 -1.5077  0.1402  1.0545
  934MOL0     H26077   0.867   0.963   4.475 -0.0578  1.2862  2.2600
  934MOL0     H26078   1.070   0.510   4.633  0.6603 -3.0183  1.2035
  934MOL0     H26079   1.296   0.402   4.675 -1.0407  1.8449 -2.7320
  934MOL0     H26080   1.504   0.537   5.016  0.5683  1.9628 -1.1160
  934MOL0     H26081   1.514   0.375   4.935  0.8538 -0.9949 -2.5425
  934MOL0     H26082   1.742   0.454   5.017  3.1615  0.9881 -1.7079
  934MOL0     H26083   1.724   0.595   4.912 -0.7929  0.3752 -3.3847
  934MOL0     H26084   1.726   0.452   4.716  3.0017  2.3178 -0.4142
  934MOL0     H26085   1.749   0.314   4.826 -0.1461  0.9241  3.6606
  934MOL0     H26086   1.943   0.422   4.917 -3.1318 -1.7754  1.6328
  934MOL0     H26087   1.933   0.538   4.776 -3.3377  1.2724  0.1271
  934MOL0     H26088   2.075   0.177   4.612 -2.9706 -1.3324 -0.4848
  934MOL0     H26089   1.414   0.734   4.915  2.0621  0.7745 -2.8256
  934MOL0     H26090   1.191   0.833   4.892 -4.9400 -1.5304  0.1192
  935MOL0     O26091  11.129   0.223   7.669 -0.3932 -0.2324 -0.7979
  935MOL0     C26092  11.187   0.112   7.675 -0.9110 -0.1544 -0.0108
  935MOL0     O26093  11.121  -0.008   7.699 -0.3513 -0.4165  0.3743
  935MOL0     C26094  10.984  -0.000   7.705  0.1099 -0.6897  0.0795
  935MOL0     C26095  10.891   0.000   7.597  0.7104 -0.4013 -0.0697
  935MOL0     C26096  10.754  -0.004   7.625 -0.6626 -1.4976 -0.7874
  935MOL0     C26097  10.705   0.007   7.761  0.2378 -0.3119 -0.0486
  935MOL0     O26098  10.574   0.012   7.803  0.2373 -0.2266 -0.2978
  935MOL0     C26099  10.485   0.055   7.694 -0.4111 -0.0413 -0.4136
  935MOL0     C26100  10.337   0.057   7.745 -0.4785 -0.5316  0.4073
  935MOL0     C26101  10.251   0.060   7.613  0.5540 -0.2301 -0.0260
  935MOL0     C26102  10.106   0.064   7.651  0.4244  0.8060 -0.6106
  935MOL0     C26103  10.013   0.101   7.538 -0.0233 -0.0245 -0.0468
  935MOL0     C26104   9.878   0.145   7.594  0.2015 -0.0429 -0.0308
  935MOL0     C26105   9.765   0.181   7.487 -0.2449 -0.7267 -0.4378
  935MOL0     C26106   9.628   0.215   7.564 -0.5343 -0.1910 -0.3836
  935MOL0     N26107   9.523   0.255   7.467 -0.4535  0.0257  0.1962
  935MOL0     C26108   9.405   0.316   7.500 -0.3501 -1.2234 -0.5801
  935MOL0     C26109   9.329   0.332   7.393 -0.9839  0.6379  1.3514
  935MOL0     C26110   9.201   0.414   7.389 -0.5170  0.0297  0.8223
  935MOL0     C26111   9.225   0.559   7.456  0.2859  0.4884  0.6483
  935MOL0     C26112   9.093   0.643   7.457 -0.4899  0.5418  0.1215
  935MOL0     C26113   9.040   0.656   7.318  0.0438 -0.7501 -0.4433
  935MOL0     O26114   8.925   0.742   7.332 -0.7474  0.3221 -0.9914
  935MOL0     C26115   8.796   0.716   7.346  0.6055  0.0721  0.9017
  935MOL0     C26116   8.737   0.591   7.355 -0.5006 -0.3800  1.0643
  935MOL0     C26117   8.598   0.565   7.367 -0.4246  0.1109 -0.6503
  935MOL0     C26118   8.548   0.429   7.373  0.3971 -0.0785 -0.2495
  935MOL0     C26119   8.516   0.686   7.381  0.1221  0.9200  0.1121
  935MOL0     C26120   8.368   0.687   7.411 -0.8328  0.3518 -0.8863
  935MOL0     O26121   8.302   0.806   7.386  0.3502  0.0251 -1.0029
  935MOL0     C26122   8.163   0.831   7.391 -0.6737 -0.7680 -0.9254
  935MOL0     C26123   8.108   0.911   7.292 -0.3724  0.6270 -0.1588
  935MOL0     C26124   7.967   0.922   7.295  0.0022 -1.0823  0.2686
  935MOL0     C26125   7.881   0.870   7.398  0.6897 -0.3145 -0.4420
  935MOL0     O26126   7.743   0.881   7.379  0.9020  1.0979 -0.0438
  935MOL0     C26127   7.657   0.903   7.497 -0.5839  0.1200  0.4516
  935MOL0     C26128   7.535   0.972   7.442 -1.1228  0.7460 -0.8385
  935MOL0     C26129   7.407   0.973   7.535  0.5791  0.5652  0.5071
  935MOL0     C26130   7.299   1.059   7.478  0.8978 -0.3717  0.2199
  935MOL0     C26131   7.166   1.046   7.546  1.1141  0.7989 -0.3068
  935MOL0     C26132   7.057   1.127   7.484 -0.7990  0.0217  1.1794
  935MOL0     C26133   6.930   1.111   7.571 -1.1756  0.6231  0.2261
  935MOL0     C26134   6.809   1.187   7.519 -0.8527  0.0077 -0.0784
  935MOL0    Cl26135   6.683   1.174   7.642  0.3724  0.3383  0.3228
  935MOL0     C26136   7.936   0.800   7.498 -0.2563  0.7144  0.1966
  935MOL0     C26137   8.076   0.774   7.488  0.7744  0.5884  0.2484
  935MOL0     O26138   8.321   0.585   7.468  0.0524  0.1143 -0.2565
  935MOL0     C26139   8.581   0.814   7.350  0.9832 -0.2492 -0.2173
  935MOL0     C26140   8.720   0.833   7.344  0.8516  0.4931  0.4992
  935MOL0     N26141   9.395   0.276   7.287  0.2185  0.5444  0.9134
  935MOL0     N26142   9.504   0.226   7.332 -0.3454  0.1094  0.2498
  935MOL0     C26143  10.801   0.014   7.864  0.2032 -0.0554  0.2113
  935MOL0     C26144  10.934   0.005   7.839  0.7579  0.3492  0.0246
  935MOL0     C26145  11.327   0.122   7.679 -0.6723 -0.0537  0.2312
  935MOL0     C26146  11.392   0.248   7.660  0.0724  0.0042 -0.6885
  935MOL0     C26147  11.531   0.260   7.660 -0.0891  0.4114  0.3863
  935MOL0     C26148  11.609   0.144   7.663  0.2157 -0.1113  0.7714
  935MOL0     O26149  11.742   0.179   7.645  0.3880  0.3037 -0.7717
  935MOL0     C26150  11.839   0.080   7.594 -0.1234 -0.9242  0.4067
  935MOL0     C26151  11.933   0.155   7.501 -0.3513 -0.5148  0.2485
  935MOL0     C26152  12.055   0.070   7.478 -0.0260  0.2867  0.0080
  935MOL0     C26153  12.151   0.140   7.372 -0.3374  0.5786  0.2369
  935MOL0     C26154  12.274   0.071   7.319 -0.1671 -0.5652 -0.7468
  935MOL0     C26155  12.369  -0.006   7.292 -0.3659 -0.2294 -0.1646
  935MOL0     C26156  11.552   0.018   7.678 -0.4602 -0.2651 -0.2580
  935MOL0     C26157  11.413   0.010   7.691  0.4141  0.6140  0.3444
  935MOL0     H26158  10.925   0.002   7.493  1.3214  0.7956  0.1324
  935MOL0     H26159  10.686  -0.019   7.542 -1.6329 -1.9748  0.0741
  935MOL0     H26160  10.519   0.157   7.674  0.1402  0.8249  3.9424
  935MOL0     H26161  10.491  -0.010   7.606  0.3671  0.4113 -0.6996
  935MOL0     H26162  10.319  -0.028   7.811 -1.5318 -0.4990  0.1787
  935MOL0     H26163  10.311   0.147   7.801 -2.4042 -1.1915  0.6499
  935MOL0     H26164  10.270   0.147   7.551  2.7170 -0.3685  0.3811
  935MOL0     H26165  10.264  -0.029   7.550  0.0055 -0.9782  0.8836
  935MOL0     H26166  10.083  -0.031   7.700  4.8507  0.4408  1.2770
  935MOL0     H26167  10.096   0.143   7.727  0.5473 -0.1685  0.4431
  935MOL0     H26168  10.047   0.184   7.477 -1.2420 -0.2920 -1.1194
  935MOL0     H26169   9.998   0.019   7.467 -0.4511 -0.0738  0.0939
  935MOL0     H26170   9.839   0.071   7.665  2.0201 -0.6318  0.4111
  935MOL0     H26171   9.897   0.233   7.656  3.4143 -1.5132  1.3303
  935MOL0     H26172   9.795   0.261   7.420  0.9263 -2.2555 -1.8168
  935MOL0     H26173   9.752   0.095   7.420 -0.2768 -0.4535 -0.7853
  935MOL0     H26174   9.639   0.293   7.640 -3.6814 -2.9877  3.3438
  935MOL0     H26175   9.585   0.127   7.612 -1.2241  0.2934 -0.0957
  935MOL0     H26176   9.381   0.355   7.599  1.2055 -0.9867 -0.2618
  935MOL0     H26177   9.182   0.430   7.282  2.1634 -0.2532  0.2388
  935MOL0     H26178   9.118   0.353   7.426 -2.5030  0.4759 -2.4696
  935MOL0     H26179   9.295   0.620   7.399 -1.1519 -0.7335 -2.7260
  935MOL0     H26180   9.250   0.534   7.559  2.1595 -1.4493 -0.1959
  935MOL0     H26181   9.114   0.734   7.513  1.5940 -0.2102  0.6405
  935MOL0     H26182   9.012   0.595   7.512 -0.6251 -1.0299 -1.3692
  935MOL0     H26183   9.016   0.563   7.265 -1.2101 -0.8376  0.2547
  935MOL0     H26184   9.122   0.698   7.259  0.7291 -2.3211 -0.6723
  935MOL0     H26185   8.803   0.505   7.363  1.9418  0.6055 -4.3248
  935MOL0     H26186   8.626   0.353   7.376 -1.7642 -2.5195 -1.6759
  935MOL0     H26187   8.482   0.408   7.458  1.4570 -0.1755  0.5636
  935MOL0     H26188   8.488   0.405   7.284 -1.0785  1.1408  0.3511
  935MOL0     H26189   8.152   0.962   7.207 -0.2405 -2.1660 -1.9068
  935MOL0     H26190   7.931   0.978   7.209  2.2759  0.9265  0.4942
  935MOL0     H26191   7.633   0.807   7.544 -0.0540  0.7778  2.1410
  935MOL0     H26192   7.713   0.970   7.563  0.9522  1.0673 -1.6958
  935MOL0     H26193   7.556   1.076   7.414 -0.5395  0.8671  0.0168
  935MOL0     H26194   7.524   0.915   7.349  1.9304  0.7524 -1.2902
  935MOL0     H26195   7.430   1.003   7.638  0.8094  2.2824 -0.0112
  935MOL0     H26196   7.369   0.871   7.546 -2.0649  1.6428  2.7164
  935MOL0     H26197   7.344   1.157   7.496  0.2435  0.3547 -1.8182
  935MOL0     H26198   7.293   1.035   7.371  0.4838  2.2563 -0.4117
  935MOL0     H26199   7.172   1.087   7.647 -1.7294  2.0982 -0.5391
  935MOL0     H26200   7.136   0.942   7.559 -1.2407  1.5615  1.0051
  935MOL0     H26201   7.088   1.232   7.477  0.5773 -0.3451  1.4431
  935MOL0     H26202   7.043   1.090   7.382  3.3948  3.1984 -0.8829
  935MOL0     H26203   6.950   1.153   7.670  1.5554  0.4285 -0.1592
  935MOL0     H26204   6.909   1.005   7.586  2.5601 -0.3925 -0.7286
  935MOL0     H26205   6.775   1.156   7.419  0.5540 -0.0567 -0.5540
  935MOL0     H26206   6.849   1.287   7.501  1.0675 -1.1048 -2.6003
  935MOL0     H26207   7.871   0.734   7.555 -1.2412  0.8630 -0.7441
  935MOL0     H26208   8.124   0.727   7.574  0.6499  0.0601  0.0349
  935MOL0     H26209   8.512   0.895   7.330  1.2820 -0.1479 -0.8627
  935MOL0     H26210   8.762   0.932   7.329 -0.7731  0.9801 -1.3174
  935MOL0     H26211  10.754   0.034   7.960 -1.2492 -1.4033 -0.1756
  935MOL0     H26212  10.994  -0.004   7.929  1.9642  0.7150 -0.7184
  935MOL0     H26213  11.341   0.342   7.644  2.3295  1.4007 -0.1613
  935MOL0     H26214  11.569   0.360   7.641 -0.2094  0.0883 -1.8113
  935MOL0     H26215  11.890   0.024   7.673  1.3727 -2.0090 -1.2632
  935MOL0     H26216  11.788   0.007   7.531 -2.3866 -0.0237  1.0928
  935MOL0     H26217  11.965   0.253   7.537  0.5940 -0.0034 -1.8175
  935MOL0     H26218  11.871   0.179   7.414 -1.0341 -1.3300  0.4920
  935MOL0     H26219  12.036  -0.024   7.425  0.5579  0.5184 -0.6346
  935MOL0     H26220  12.113   0.045   7.567 -1.1794  1.9879  1.2896
  935MOL0     H26221  12.180   0.233   7.421  1.0778 -0.1346  0.8096
  935MOL0     H26222  12.089   0.144   7.282 -0.1635  1.4801  0.1487
  935MOL0     H26223  12.458  -0.061   7.269  0.5647 -0.0579  2.5592
  935MOL0     H26224  11.618  -0.066   7.698  0.2513  1.0028  3.4486
  935MOL0     H26225  11.381  -0.092   7.713 -0.0625  0.6666 -0.1088
  936MOL0     O26226   7.833   9.677   4.888  0.1565 -0.8941 -0.5701
  936MOL0     C26227   7.814   9.566   4.845  0.3392 -0.6811 -0.2327
  936MOL0     O26228   7.902   9.459   4.855  0.1932 -0.8779 -0.1452
  936MOL0     C26229   8.017   9.470   4.924  0.5805 -0.3436  0.0698
  936MOL0     C26230   8.060   9.347   4.954 -0.0809  0.4755  0.5379
  936MOL0     C26231   8.191   9.326   5.000  0.4965 -1.0317 -0.6720
  936MOL0     C26232   8.273   9.442   5.022 -0.6213  0.3343 -0.2900
  936MOL0     O26233   8.405   9.423   5.060 -0.0718  0.1831 -0.1806
  936MOL0     C26234   8.433   9.313   5.154 -1.0394 -0.0917  0.1134
  936MOL0     C26235   8.573   9.316   5.206  0.2416  0.1958 -0.8337
  936MOL0     C26236   8.671   9.263   5.103 -0.7493 -0.9109 -0.3368
  936MOL0     C26237   8.815   9.236   5.163  0.8296 -0.5792 -0.0031
  936MOL0     C26238   8.898   9.180   5.049  0.3958  0.3534 -0.4360
  936MOL0     C26239   9.031   9.128   5.109  0.6430 -0.6012 -0.7658
  936MOL0     C26240   9.105   9.050   4.999 -0.2412 -0.2609  0.1768
  936MOL0     C26241   9.234   8.995   5.050  0.5716 -0.2859  0.3790
  936MOL0     N26242   9.262   8.867   4.978  0.5204  0.1910  0.8919
  936MOL0     C26243   9.315   8.854   4.845 -0.0256 -0.0227 -0.5049
  936MOL0     C26244   9.348   8.719   4.839 -0.1866  0.6110 -1.0980
  936MOL0     C26245   9.424   8.647   4.733  0.2105 -0.4632 -0.0256
  936MOL0     C26246   9.569   8.702   4.702  0.5442 -0.6437 -0.3794
  936MOL0     C26247   9.668   8.647   4.803 -0.5059  0.5592 -0.0687
  936MOL0     C26248   9.805   8.706   4.783 -0.8324  0.9906 -0.0499
  936MOL0     O26249   9.815   8.846   4.800  0.1301 -0.2778  0.8651
  936MOL0     C26250   9.937   8.907   4.793  0.1329 -0.3395 -0.7917
  936MOL0     C26251  10.056   8.839   4.758  0.5095 -0.5241  0.1917
  936MOL0     C26252  10.176   8.903   4.768  0.0720 -0.2509 -0.2818
  936MOL0     C26253  10.301   8.829   4.723  0.6513 -0.2500 -0.8149
  936MOL0     C26254  10.174   9.046   4.797  0.4435  0.2591  0.3510
  936MOL0     C26255  10.295   9.131   4.788  0.2401 -0.3390 -0.7097
  936MOL0     O26256  10.397   9.080   4.716 -0.1677 -0.4701  0.9253
  936MOL0     C26257  10.529   9.099   4.751  0.6012  0.6024  0.5308
  936MOL0     C26258  10.624   9.131   4.658 -0.6410  0.3767 -0.1947
  936MOL0     C26259  10.763   9.137   4.686  0.3297 -0.8239  0.2764
  936MOL0     C26260  10.807   9.093   4.813  0.0860 -0.3501 -0.0772
  936MOL0     O26261  10.940   9.081   4.851 -0.8309  0.7455  0.1719
  936MOL0     C26262  11.053   9.117   4.775  1.0436  1.4939  0.5981
  936MOL0     C26263  11.110   9.229   4.846 -0.9002 -0.1211 -0.2109
  936MOL0     C26264  11.239   9.283   4.773  0.1549  0.3297 -0.2412
  936MOL0     C26265  11.290   9.399   4.863  0.7896  0.8506  0.8992
  936MOL0     C26266  11.405   9.468   4.789  0.0509 -0.5660 -0.2173
  936MOL0     C26267  11.450   9.600   4.860  0.4104  0.1912 -0.1325
  936MOL0     C26268  11.600   9.633   4.825  0.3296  0.2772 -0.3095
  936MOL0     C26269  11.646   9.614   4.674  0.6112 -0.8800  0.2143
  936MOL0    Cl26270  11.539   9.703   4.558  0.1686 -0.2835 -0.1486
  936MOL0     C26271  10.714   9.052   4.910 -0.0156 -0.0604  1.0456
  936MOL0     C26272  10.577   9.063   4.874  0.0670  0.9751  0.1645
  936MOL0     O26273  10.294   9.241   4.847  0.0323 -0.5649  0.2037
  936MOL0     C26274  10.061   9.105   4.833 -0.3668 -0.5801 -0.8207
  936MOL0     C26275   9.940   9.041   4.837 -0.5230  1.1193 -0.4680
  936MOL0     N26276   9.319   8.656   4.951 -0.4820  0.1948 -0.2072
  936MOL0     N26277   9.262   8.741   5.027  0.3788  1.2837 -0.0608
  936MOL0     C26278   8.224   9.569   4.983  0.9311 -0.1485 -0.8442
  936MOL0     C26279   8.098   9.588   4.939 -0.1764 -0.9521 -0.1602
  936MOL0     C26280   7.687   9.528   4.800  0.9595  0.6303  0.2001
  936MOL0     C26281   7.671   9.403   4.733  0.3228 -0.3941  0.3204
  936MOL0     C26282   7.552   9.372   4.661  0.3811 -0.2363 -0.2896
  936MOL0     C26283   7.439   9.452   4.668  0.6949 -0.2979  0.2436
  936MOL0     O26284   7.319   9.415   4.610  0.4793  0.2963  0.6468
  936MOL0     C26285   7.264   9.282   4.628 -0.3833  0.1562  0.0974
  936MOL0     C26286   7.112   9.305   4.655  0.1731 -0.6237 -0.0864
  936MOL0     C26287   7.045   9.396   4.550  0.5115  0.8874 -0.5510
  936MOL0     C26288   6.894   9.403   4.570 -0.1783 -0.3267 -0.5104
  936MOL0     C26289   6.863   9.498   4.684  0.4419 -0.0971  0.1328
  936MOL0     C26290   6.834   9.569   4.782  0.1320 -0.0572  0.8342
  936MOL0     C26291   7.449   9.569   4.741  0.2972 -0.3489 -0.1775
  936MOL0     C26292   7.572   9.610   4.805  0.8360  0.2582 -0.5519
  936MOL0     H26293   7.997   9.264   4.924 -0.2359  0.7681  0.0427
  936MOL0     H26294   8.221   9.223   5.017 -0.2599 -0.9594  1.3854
  936MOL0     H26295   8.374   9.313   5.245  1.2076 -0.1145  1.6479
  936MOL0     H26296   8.420   9.215   5.107 -1.5381  0.2930 -0.5665
  936MOL0     H26297   8.593   9.420   5.235 -3.2588  0.7450  0.1453
  936MOL0     H26298   8.570   9.246   5.291  0.3656 -0.3817 -1.3020
  936MOL0     H26299   8.635   9.176   5.046 -0.7852 -0.2418 -1.3755
  936MOL0     H26300   8.679   9.346   5.032  0.0870 -1.9525 -1.5086
  936MOL0     H26301   8.859   9.329   5.202  2.7707 -0.5196 -2.0983
  936MOL0     H26302   8.803   9.161   5.241 -1.0290 -0.0432  0.2709
  936MOL0     H26303   8.845   9.099   4.998 -0.0546  1.4490 -1.7583
  936MOL0     H26304   8.926   9.255   4.975  3.0192  0.2161  0.3285
  936MOL0     H26305   9.099   9.211   5.129  1.7329 -0.7434 -3.4764
  936MOL0     H26306   9.009   9.072   5.200  0.5930  0.8614  0.1489
  936MOL0     H26307   9.052   8.958   4.973 -1.5265  0.1373  1.2438
  936MOL0     H26308   9.115   9.120   4.915 -1.8770 -0.6670 -0.4068
  936MOL0     H26309   9.227   8.973   5.157  0.9293  0.2962  0.5291
  936MOL0     H26310   9.318   9.062   5.029 -0.2367  0.1508 -1.6502
  936MOL0     H26311   9.340   8.928   4.770  0.0566 -0.0634 -0.5183
  936MOL0     H26312   9.433   8.542   4.762 -0.0409 -0.4561  0.0844
  936MOL0     H26313   9.357   8.653   4.647 -0.1379 -1.3733  0.1778
  936MOL0     H26314   9.579   8.811   4.699  2.6946 -0.8145 -1.4195
  936MOL0     H26315   9.589   8.666   4.601  0.1562 -1.0389 -0.3205
  936MOL0     H26316   9.667   8.539   4.788 -1.5735  0.7550 -1.6030
  936MOL0     H26317   9.643   8.669   4.907 -0.8031 -0.9992  0.2080
  936MOL0     H26318   9.837   8.667   4.685 -0.9364  2.2576 -0.6048
  936MOL0     H26319   9.876   8.657   4.851 -1.3103 -1.2956 -1.0794
  936MOL0     H26320  10.063   8.731   4.760  1.6072 -0.4717  2.1314
  936MOL0     H26321  10.326   8.849   4.618 -2.0222 -1.5200 -1.7899
  936MOL0     H26322  10.393   8.850   4.778 -0.3332  2.7707 -0.1413
  936MOL0     H26323  10.286   8.721   4.734  1.0731 -0.5640 -2.8321
  936MOL0     H26324  10.587   9.164   4.561 -2.4878 -1.0388 -0.0230
  936MOL0     H26325  10.830   9.170   4.607  0.7065 -0.4364  0.7568
  936MOL0     H26326  11.111   9.025   4.760  2.9696  3.1620 -4.2374
  936MOL0     H26327  11.023   9.156   4.677  1.4371  1.1367  0.3307
  936MOL0     H26328  11.037   9.311   4.844  0.1203  0.8841  1.6602
  936MOL0     H26329  11.132   9.205   4.950 -1.7946  0.0528  0.0227
  936MOL0     H26330  11.202   9.312   4.674 -2.4889  0.2145  0.6333
  936MOL0     H26331  11.316   9.206   4.766  1.3843  1.6086 -1.2218
  936MOL0     H26332  11.204   9.467   4.863  0.8991  1.0971 -1.8584
  936MOL0     H26333  11.308   9.356   4.962  0.0779  1.2433  1.2062
  936MOL0     H26334  11.382   9.505   4.689  0.0968  4.0793  1.2652
  936MOL0     H26335  11.476   9.386   4.774 -1.3290 -1.4763 -2.2682
  936MOL0     H26336  11.386   9.683   4.829 -1.6753 -0.9583  0.8710
  936MOL0     H26337  11.443   9.579   4.967  0.2242  1.6490  0.1620
  936MOL0     H26338  11.646   9.547   4.873 -2.9027 -0.9068  0.9729
  936MOL0     H26339  11.628   9.733   4.856  0.6538  0.4888 -1.2418
  936MOL0     H26340  11.643   9.511   4.638 -0.0096  0.4112 -3.9271
  936MOL0     H26341  11.753   9.635   4.663  0.9722 -2.9912 -0.6162
  936MOL0     H26342  10.742   9.011   5.006 -0.1578  0.2725  1.2313
  936MOL0     H26343  10.503   9.021   4.942  1.5385 -0.8863  0.6916
  936MOL0     H26344  10.062   9.201   4.885  1.4784  0.5719 -2.8520
  936MOL0     H26345   9.855   9.095   4.878 -0.2326  1.9452 -0.9393
  936MOL0     H26346   8.293   9.652   4.998 -1.2638  1.5335  0.6102
  936MOL0     H26347   8.058   9.684   4.908 -0.9376  0.3844  4.3041
  936MOL0     H26348   7.752   9.330   4.733  1.4995  0.8669  0.6565
  936MOL0     H26349   7.538   9.275   4.616 -2.3114 -0.7497  1.4544
  936MOL0     H26350   7.272   9.220   4.538  0.6837  2.3434 -1.4027
  936MOL0     H26351   7.303   9.230   4.716 -1.2960 -2.1575 -0.7659
  936MOL0     H26352   7.111   9.349   4.754 -0.5035  0.8106 -0.7068
  936MOL0     H26353   7.057   9.210   4.648 -4.8239  2.0052 -1.9483
  936MOL0     H26354   7.060   9.358   4.449 -2.1991  0.9559 -1.0549
  936MOL0     H26355   7.096   9.493   4.557  1.6424  0.1820  3.2961
  936MOL0     H26356   6.862   9.305   4.607  0.9324  0.3817  2.6888
  936MOL0     H26357   6.840   9.434   4.480  0.1560  0.5159 -0.4348
  936MOL0     H26358   6.806   9.624   4.870 -1.7250 -0.9746  0.8519
  936MOL0     H26359   7.373   9.646   4.731  1.6233  0.7893 -2.1728
  936MOL0     H26360   7.588   9.712   4.839 -0.7037  1.0778 -2.1121
  937MOL0     O26361   9.491   7.910   1.928  0.0325 -0.1540  0.2708
  937MOL0     C26362   9.405   7.898   1.840  0.4199 -0.8556 -0.2622
  937MOL0     O26363   9.424   7.866   1.707 -0.2904  0.4231 -0.8013
  937MOL0     C26364   9.552   7.827   1.675 -0.8220  0.7008  0.1068
  937MOL0     C26365   9.655   7.919   1.659  0.3661  0.1552 -0.5662
  937MOL0     C26366   9.783   7.885   1.617  0.2032  1.2870  0.0456
  937MOL0     C26367   9.813   7.749   1.594 -0.2453 -0.6953  0.4829
  937MOL0     O26368   9.934   7.705   1.551  0.2504  0.1672  0.3222
  937MOL0     C26369  10.026   7.665   1.656  1.0940 -0.6590 -0.3553
  937MOL0     C26370  10.165   7.725   1.651  0.1121 -0.0913  0.4257
  937MOL0     C26371  10.220   7.728   1.507  0.0385  0.2854 -1.1513
  937MOL0     C26372  10.331   7.826   1.480  0.0169  0.2173  0.0653
  937MOL0     C26373  10.465   7.797   1.550 -0.3172 -0.3268 -0.1355
  937MOL0     C26374  10.595   7.838   1.471  1.1244  0.6803  0.0385
  937MOL0     C26375  10.723   7.838   1.544 -0.5266  0.6482 -0.9112
  937MOL0     C26376  10.735   7.951   1.647  0.8799 -0.3884 -0.2368
  937MOL0     N26377  10.866   7.970   1.715 -0.1701 -0.4757 -0.0043
  937MOL0     C26378  10.989   7.941   1.667  0.2578  0.2796  0.1012
  937MOL0     C26379  11.075   7.979   1.765 -1.0807  0.4999  0.3599
  937MOL0     C26380  11.224   7.961   1.781 -0.0032 -0.5075  0.5076
  937MOL0     C26381  11.300   8.043   1.684 -0.1591  0.0297  0.0898
  937MOL0     C26382  11.307   8.193   1.732  0.2276 -1.3858  0.2354
  937MOL0     C26383  11.203   8.284   1.667 -0.0921  0.0290  0.1716
  937MOL0     O26384  11.244   8.416   1.699  0.5066  0.0635 -0.5658
  937MOL0     C26385  11.181   8.531   1.663  0.0035 -0.0526 -0.9981
  937MOL0     C26386  11.201   8.641   1.734  0.2036 -0.7657  0.0503
  937MOL0     C26387  11.111   8.753   1.726  0.3083  0.6124  0.4756
  937MOL0     C26388  11.140   8.861   1.814  0.6619 -0.4310 -0.6874
  937MOL0     C26389  11.005   8.753   1.632  0.2170  0.9942  0.2639
  937MOL0     C26390  10.889   8.846   1.613 -0.2700 -0.0511 -1.4108
  937MOL0     O26391  10.793   8.822   1.513 -0.3785 -0.5614  0.1137
  937MOL0     C26392  10.695   8.918   1.487  0.2414 -0.6418 -0.0568
  937MOL0     C26393  10.659   8.924   1.350 -0.2921 -0.3162 -0.4180
  937MOL0     C26394  10.555   9.008   1.306 -0.3231 -0.3477  0.1545
  937MOL0     C26395  10.501   9.095   1.396  0.8344  0.4109  0.1712
  937MOL0     O26396  10.404   9.174   1.346 -0.0304  0.2315  0.0206
  937MOL0     C26397  10.268   9.128   1.378 -0.2635  0.3540 -0.7594
  937MOL0     C26398  10.170   9.236   1.349  0.5774 -0.6342 -0.7332
  937MOL0     C26399  10.173   9.277   1.198 -0.0502  0.0643  0.1373
  937MOL0     C26400  10.082   9.402   1.170 -0.5874  0.8310 -0.5546
  937MOL0     C26401  10.111   9.451   1.034  0.6611  0.0507 -0.6301
  937MOL0     C26402  10.044   9.582   0.998  0.4972  0.2201  0.7467
  937MOL0     C26403  10.112   9.650   0.874  0.6483 -0.1373  0.8294
  937MOL0     C26404  10.071   9.571   0.749 -0.5139 -0.3379 -0.5100
  937MOL0    Cl26405   9.893   9.563   0.721  0.0393 -0.0640  0.2070
  937MOL0     C26406  10.536   9.098   1.532  0.4086 -0.0254  0.2849
  937MOL0     C26407  10.632   9.008   1.578 -0.1192  0.0213 -0.1815
  937MOL0     O26408  10.885   8.946   1.693 -0.7119  0.6482  0.3539
  937MOL0     C26409  11.001   8.635   1.549  0.4378 -0.4061  0.2879
  937MOL0     C26410  11.076   8.521   1.568 -0.4564 -0.4357 -1.2719
  937MOL0     N26411  11.003   8.028   1.877 -0.2483  0.3722 -0.6119
  937MOL0     N26412  10.885   8.027   1.845 -0.4816  0.4122  0.9384
  937MOL0     C26413   9.710   7.647   1.620 -0.3457 -0.5573  0.2645
  937MOL0     C26414   9.578   7.692   1.655  0.1787  0.5132 -0.5549
  937MOL0     C26415   9.279   7.858   1.905  0.4513  0.2155 -0.2678
  937MOL0     C26416   9.198   7.753   1.858  0.4639  0.5104 -0.7187
  937MOL0     C26417   9.091   7.709   1.932  0.6994  0.0070  0.8987
  937MOL0     C26418   9.067   7.753   2.065  1.2451 -0.6450  0.5036
  937MOL0     O26419   8.964   7.693   2.138  0.5639 -0.8164 -0.2029
  937MOL0     C26420   8.869   7.788   2.195  0.3737  0.6305  1.1434
  937MOL0     C26421   8.759   7.712   2.265 -0.1653  0.6849  0.1062
  937MOL0     C26422   8.653   7.816   2.311  0.5539  0.3971  0.3276
  937MOL0     C26423   8.552   7.759   2.399 -0.1877  0.3677  0.1142
  937MOL0     C26424   8.439   7.860   2.410 -0.3649  0.8346  0.4366
  937MOL0     C26425   8.347   7.937   2.431 -0.2862 -0.1543  0.3121
  937MOL0     C26426   9.144   7.862   2.114 -0.5810 -0.5051 -0.2899
  937MOL0     C26427   9.250   7.912   2.041 -0.1130  0.5556  0.5224
  937MOL0     H26428   9.629   8.014   1.705 -1.6244 -0.3520 -0.5693
  937MOL0     H26429   9.873   7.945   1.623  0.4616  0.8153  1.2898
  937MOL0     H26430   9.984   7.696   1.752 -0.7604  0.7446 -1.5531
  937MOL0     H26431  10.045   7.557   1.660 -0.1439 -0.8595  0.5796
  937MOL0     H26432  10.151   7.825   1.695  0.5092 -0.4165  1.3088
  937MOL0     H26433  10.231   7.671   1.720 -1.2877 -3.8524 -0.9189
  937MOL0     H26434  10.244   7.625   1.481 -1.8151 -0.6712  0.6656
  937MOL0     H26435  10.135   7.751   1.442 -0.9905 -0.4935 -0.1204
  937MOL0     H26436  10.348   7.808   1.374 -3.8105  1.5539 -0.9286
  937MOL0     H26437  10.307   7.932   1.490  3.8745  1.3551 -0.7579
  937MOL0     H26438  10.477   7.848   1.645  0.5819  1.9841 -1.4108
  937MOL0     H26439  10.459   7.691   1.576 -2.9922  0.1453  1.6084
  937MOL0     H26440  10.611   7.751   1.407 -2.1526  0.4355 -0.6458
  937MOL0     H26441  10.577   7.928   1.412  1.6145  1.0822  0.4977
  937MOL0     H26442  10.724   7.743   1.599  1.0071  1.0853 -0.1363
  937MOL0     H26443  10.817   7.830   1.488  0.0605 -0.4312  0.1897
  937MOL0     H26444  10.658   7.951   1.724  1.2734 -0.3137  0.1593
  937MOL0     H26445  10.720   8.043   1.590 -1.1809 -0.7895 -0.4150
  937MOL0     H26446  11.020   7.881   1.582 -2.4594 -2.0402  0.5822
  937MOL0     H26447  11.251   7.988   1.883  1.3843  2.4107 -0.5320
  937MOL0     H26448  11.243   7.854   1.772  1.1074 -0.2950  0.1983
  937MOL0     H26449  11.251   8.019   1.589 -0.0013 -0.9968  0.2610
  937MOL0     H26450  11.397   8.000   1.661  0.6189  2.2144 -1.0229
  937MOL0     H26451  11.408   8.232   1.718 -0.3499  0.5246  1.0930
  937MOL0     H26452  11.306   8.206   1.841 -0.9582 -0.7775  0.1657
  937MOL0     H26453  11.105   8.260   1.708 -0.5951  0.2105 -0.9219
  937MOL0     H26454  11.197   8.254   1.562 -3.8609 -2.2488  0.8691
  937MOL0     H26455  11.285   8.634   1.803  0.8233 -2.5106 -0.8260
  937MOL0     H26456  11.234   8.852   1.868 -0.1212 -0.9937  0.6412
  937MOL0     H26457  11.141   8.962   1.771 -0.7477  1.5748  3.4459
  937MOL0     H26458  11.059   8.867   1.887  1.3299  0.9209 -0.0180
  937MOL0     H26459  10.719   8.863   1.283  2.7037  0.9852  0.8616
  937MOL0     H26460  10.513   9.004   1.206 -0.9784 -0.9010  0.4487
  937MOL0     H26461  10.237   9.037   1.326  0.9644  1.1310 -2.9613
  937MOL0     H26462  10.264   9.103   1.485  3.8781  0.5206 -0.4088
  937MOL0     H26463  10.074   9.198   1.384  1.1878 -0.8508  0.7601
  937MOL0     H26464  10.201   9.317   1.416 -0.3990 -0.8663  0.0134
  937MOL0     H26465  10.146   9.198   1.127  2.6212 -1.7698  1.0017
  937MOL0     H26466  10.275   9.307   1.170 -1.2715  1.6738 -3.1694
  937MOL0     H26467   9.981   9.368   1.198  1.1241 -1.4992  3.8143
  937MOL0     H26468  10.111   9.479   1.242 -0.5887 -1.4467  2.0847
  937MOL0     H26469  10.083   9.378   0.958  0.1267 -2.2684  1.6524
  937MOL0     H26470  10.219   9.468   1.028  0.6040  0.6867  0.0017
  937MOL0     H26471   9.935   9.577   0.991  0.6027 -1.7487 -0.3927
  937MOL0     H26472  10.057   9.641   1.089 -1.6414 -0.4373  1.5356
  937MOL0     H26473  10.221   9.656   0.888  0.4341  3.1792  1.9891
  937MOL0     H26474  10.074   9.751   0.856 -0.4101 -0.2835  2.0842
  937MOL0     H26475  10.117   9.472   0.758  0.3356 -0.0874 -1.8407
  937MOL0     H26476  10.108   9.624   0.661  0.7418  0.9361  0.7373
  937MOL0     H26477  10.484   9.171   1.594 -4.2251 -1.1622 -1.7589
  937MOL0     H26478  10.658   9.006   1.683  1.6610  0.4831 -0.5826
  937MOL0     H26479  10.921   8.638   1.476 -0.2143  2.0894  1.0110
  937MOL0     H26480  11.054   8.425   1.522  0.4700 -1.5604  0.5242
  937MOL0     H26481   9.732   7.541   1.609 -0.6380 -0.7331  1.3368
  937MOL0     H26482   9.506   7.614   1.674 -0.1125  1.0070  0.4125
  937MOL0     H26483   9.221   7.701   1.766 -0.7185 -3.7344  1.1346
  937MOL0     H26484   9.025   7.632   1.894  2.5190 -2.6904  2.7685
  937MOL0     H26485   8.919   7.860   2.261  2.4831 -0.8201  1.2256
  937MOL0     H26486   8.819   7.847   2.118 -0.3598  0.5336  1.5391
  937MOL0     H26487   8.791   7.664   2.358 -0.9039  0.9070  0.4893
  937MOL0     H26488   8.706   7.640   2.201  2.5169 -0.8613 -0.5119
  937MOL0     H26489   8.610   7.852   2.217  0.9826 -3.0335 -1.3115
  937MOL0     H26490   8.701   7.895   2.370  0.0676  0.4583  0.6442
  937MOL0     H26491   8.596   7.743   2.498 -3.6539  0.4247  1.8237
  937MOL0     H26492   8.513   7.672   2.346  0.3630  0.4482 -0.4276
  937MOL0     H26493   8.265   8.005   2.431  0.6870  1.1353  2.6623
  937MOL0     H26494   9.127   7.908   2.211  0.2172  0.9857 -0.8285
  937MOL0     H26495   9.304   8.000   2.073 -1.3671  0.8779  1.8601
  938MOL0     O26496   6.275   1.421  10.876 -0.6409 -0.1299  0.5671
  938MOL0     C26497   6.360   1.329  10.885 -0.2287  0.7137 -0.3509
  938MOL0     O26498   6.334   1.208  10.941 -0.8901  0.2139  0.5152
  938MOL0     C26499   6.208   1.185  10.986  0.5966 -0.0040 -0.3457
  938MOL0     C26500   6.174   1.247  11.108  0.4330  0.0713 -0.2729
  938MOL0     C26501   6.051   1.213  11.170 -0.6941  0.6517 -0.9197
  938MOL0     C26502   5.968   1.118  11.113  1.0695  0.3531  0.2139
  938MOL0     O26503   5.848   1.101  11.183  0.4081  0.4711 -0.5394
  938MOL0     C26504   5.724   1.139  11.131  0.5989 -0.6983 -0.2801
  938MOL0     C26505   5.617   1.091  11.222 -0.5273 -1.2747 -0.1837
  938MOL0     C26506   5.551   1.192  11.305  0.8660 -0.8984  2.2938
  938MOL0     C26507   5.438   1.132  11.396 -0.4213  0.9918  0.1635
  938MOL0     C26508   5.366   1.234  11.476 -0.0649 -0.3635  0.3330
  938MOL0     C26509   5.254   1.172  11.562 -0.4142  0.5769 -0.6557
  938MOL0     C26510   5.189   1.266  11.660 -0.4241  0.6735 -0.2675
  938MOL0     C26511   5.297   1.315  11.764  0.3777  0.0025  0.1761
  938MOL0     N26512   5.251   1.387  11.877 -0.0867  0.3049  0.6272
  938MOL0     C26513   5.140   1.356  11.959 -0.1868  0.2044 -0.4836
  938MOL0     C26514   5.136   1.449  12.064 -0.4564  0.8031  0.2894
  938MOL0     C26515   5.052   1.440  12.184  0.2827  0.5708  0.5192
  938MOL0     C26516   4.967   1.574  12.209 -0.0006  0.1012  0.4842
  938MOL0     C26517   4.938   1.582  12.364 -0.1814  0.0321  0.4339
  938MOL0     C26518   4.876   1.721  12.406  0.3434 -0.4879  0.2984
  938MOL0     O26519   4.757   1.765  12.333 -1.1812 -0.3762 -0.2228
  938MOL0     C26520   4.647   1.689  12.363 -1.3244  0.6459  0.8858
  938MOL0     C26521   4.635   1.591  12.467  0.0284 -0.2990 -0.3651
  938MOL0     C26522   4.527   1.505  12.476 -0.8872 -0.2941  0.0304
  938MOL0     C26523   4.538   1.417  12.591  0.5821  0.4830  0.3347
  938MOL0     C26524   4.424   1.512  12.377 -0.5445 -0.1601  0.6693
  938MOL0     C26525   4.305   1.420  12.376  0.6412  0.1048  0.5467
  938MOL0     O26526   4.185   1.460  12.318  0.1283  0.0391 -0.2021
  938MOL0     C26527   4.071   1.381  12.326 -1.4199 -0.1218 -0.5998
  938MOL0     C26528   4.010   1.329  12.446  0.2777  0.9555 -0.1714
  938MOL0     C26529   3.881   1.272  12.440  0.9210  0.0715  0.1019
  938MOL0     C26530   3.809   1.260  12.315 -0.8541 -0.3267  0.2013
  938MOL0     O26531   3.684   1.210  12.299 -0.0840 -0.8993 -0.0164
  938MOL0     C26532   3.620   1.170  12.414  0.3458 -0.4329 -0.2802
  938MOL0     C26533   3.478   1.132  12.370  0.5313  0.4502 -0.3315
  938MOL0     C26534   3.378   1.253  12.342 -0.5332 -0.5987 -0.4707
  938MOL0     C26535   3.259   1.265  12.442 -1.0927 -0.4088  0.4006
  938MOL0     C26536   3.145   1.352  12.372 -0.0547  1.0841 -0.1393
  938MOL0     C26537   3.060   1.265  12.280 -0.3653  0.7544  0.0770
  938MOL0     C26538   2.962   1.356  12.192 -0.9465 -0.0679 -0.3141
  938MOL0     C26539   2.828   1.378  12.259 -0.0222 -0.3682 -0.3210
  938MOL0    Cl26540   2.723   1.451  12.134  0.0514  0.3886  0.3304
  938MOL0     C26541   3.863   1.330  12.205 -0.1261  0.1090 -0.3653
  938MOL0     C26542   3.997   1.382  12.211 -0.3466  0.2944 -0.4623
  938MOL0     O26543   4.321   1.300  12.414 -0.3094 -0.1636 -0.3325
  938MOL0     C26544   4.434   1.608  12.276 -0.3472  1.2435 -0.4300
  938MOL0     C26545   4.544   1.689  12.269 -0.2033 -0.0418 -0.5110
  938MOL0     N26546   5.232   1.545  12.029 -0.1404 -0.0107  0.5638
  938MOL0     N26547   5.297   1.510  11.917  0.0705 -0.3658  0.2325
  938MOL0     C26548   6.006   1.055  10.989  0.3812  0.8044 -0.4861
  938MOL0     C26549   6.115   1.097  10.926 -0.0964 -0.6240 -0.1134
  938MOL0     C26550   6.488   1.363  10.837  0.3578 -0.1093  0.3252
  938MOL0     C26551   6.599   1.280  10.852  1.0032 -0.1389  0.3148
  938MOL0     C26552   6.724   1.315  10.799 -0.3340  0.6507 -0.1805
  938MOL0     C26553   6.743   1.433  10.725  0.1774  0.2882 -0.0645
  938MOL0     O26554   6.854   1.485  10.652 -0.1709  0.0497  0.1241
  938MOL0     C26555   6.979   1.414  10.676  0.0206  0.6555  0.2414
  938MOL0     C26556   7.096   1.497  10.627  0.9944 -0.3160 -0.4275
  938MOL0     C26557   7.108   1.620  10.714 -0.5863 -0.1415 -1.2192
  938MOL0     C26558   7.212   1.718  10.658  0.1654  1.3313 -0.3485
  938MOL0     C26559   7.349   1.667  10.689  0.5463  0.9299  0.7568
  938MOL0     C26560   7.464   1.644  10.703 -0.6032  0.9099  0.1005
  938MOL0     C26561   6.639   1.525  10.718 -1.0594 -0.5314 -0.1025
  938MOL0     C26562   6.514   1.493  10.772  0.1927  0.5066  0.6849
  938MOL0     H26563   6.240   1.311  11.165  0.1741 -0.5251  0.7416
  938MOL0     H26564   6.031   1.264  11.263  2.0143  0.4025 -0.1125
  938MOL0     H26565   5.719   1.248  11.122  0.2594 -0.6251  0.6301
  938MOL0     H26566   5.704   1.092  11.034 -1.0188  1.0597 -0.8665
  938MOL0     H26567   5.534   1.048  11.165 -3.3048  3.2304 -0.0864
  938MOL0     H26568   5.663   1.018  11.290  0.7470  0.2284  0.6407
  938MOL0     H26569   5.618   1.268  11.347 -2.1674  1.7400  2.7554
  938MOL0     H26570   5.488   1.248  11.235  1.1633 -2.0687  1.0494
  938MOL0     H26571   5.373   1.070  11.334  3.0625 -1.6428 -1.2397
  938MOL0     H26572   5.484   1.066  11.471 -0.3978 -2.3160 -2.5371
  938MOL0     H26573   5.437   1.298  11.528 -0.7690  2.9562 -2.4261
  938MOL0     H26574   5.314   1.303  11.409  0.0297 -1.2049 -0.6423
  938MOL0     H26575   5.179   1.140  11.490 -2.0007 -1.6918  1.8379
  938MOL0     H26576   5.273   1.092  11.633  0.1487  1.0546 -0.2523
  938MOL0     H26577   5.150   1.360  11.619 -1.8569  0.4687  0.5500
  938MOL0     H26578   5.106   1.215  11.711  1.8273  1.0098  4.1441
  938MOL0     H26579   5.359   1.389  11.713 -2.4506  1.8079 -0.9454
  938MOL0     H26580   5.354   1.230  11.803  0.7349  0.0282 -0.2812
  938MOL0     H26581   5.089   1.261  11.946 -0.1001 -0.1221  1.2704
  938MOL0     H26582   4.994   1.347  12.174 -2.5624  2.2468  0.5537
  938MOL0     H26583   5.125   1.441  12.266  1.0443  0.3859 -0.1446
  938MOL0     H26584   4.878   1.577  12.145  1.2098 -3.4233 -1.6464
  938MOL0     H26585   5.039   1.650  12.178 -0.2811 -0.8689 -3.0189
  938MOL0     H26586   5.031   1.581  12.421 -0.5307 -1.3310  1.0148
  938MOL0     H26587   4.872   1.505  12.405 -1.3611  1.2306  0.8314
  938MOL0     H26588   4.952   1.799  12.393  1.3568 -1.5602 -0.4295
  938MOL0     H26589   4.860   1.730  12.514  3.1556  0.0628  0.7493
  938MOL0     H26590   4.700   1.587  12.553 -1.5926 -2.4797  0.8496
  938MOL0     H26591   4.636   1.397  12.636  0.5427  1.3297  0.8078
  938MOL0     H26592   4.469   1.451  12.668  0.0170 -2.0534  1.0491
  938MOL0     H26593   4.511   1.318  12.553  1.5781 -0.1169  1.1250
  938MOL0     H26594   4.059   1.333  12.543  1.4306  0.6392 -0.7236
  938MOL0     H26595   3.852   1.225  12.533 -4.1667  3.3793  0.5713
  938MOL0     H26596   3.675   1.086  12.457 -2.8137 -2.0571  0.8856
  938MOL0     H26597   3.615   1.241  12.497  3.2589 -2.4935  1.8439
  938MOL0     H26598   3.488   1.052  12.296 -2.7402 -1.6334  1.2036
  938MOL0     H26599   3.422   1.082  12.450 -2.8885  2.7803 -1.0372
  938MOL0     H26600   3.340   1.251  12.240  0.3546  1.1857 -0.8666
  938MOL0     H26601   3.441   1.342  12.353 -0.9989 -0.5278  2.3818
  938MOL0     H26602   3.224   1.165  12.469  1.0004 -1.7143 -1.3528
  938MOL0     H26603   3.290   1.323  12.529 -0.6770 -0.0618  0.0271
  938MOL0     H26604   3.195   1.428  12.311  2.0663 -1.3540 -1.6565
  938MOL0     H26605   3.076   1.389  12.449  2.4178 -3.9715  5.3726
  938MOL0     H26606   3.128   1.204  12.219  1.0793  2.1536  0.2078
  938MOL0     H26607   3.006   1.189  12.336  0.8374 -0.6160 -0.5494
  938MOL0     H26608   2.940   1.291  12.107  0.4952 -0.4667 -0.4124
  938MOL0     H26609   3.004   1.455  12.171  3.2414 -1.1064  1.9401
  938MOL0     H26610   2.838   1.448  12.342 -0.2960 -1.5804  0.7758
  938MOL0     H26611   2.789   1.285  12.302  0.2699  0.1074  0.9921
  938MOL0     H26612   3.824   1.330  12.104  1.2751 -0.8370 -0.9410
  938MOL0     H26613   4.043   1.431  12.125 -0.2615  0.5451 -0.2751
  938MOL0     H26614   4.364   1.627  12.196  0.2083  0.0088 -1.2345
  938MOL0     H26615   4.554   1.752  12.181  0.4142 -1.1583 -1.2633
  938MOL0     H26616   5.931   0.987  10.951 -0.8744  1.3709  0.9066
  938MOL0     H26617   6.146   1.041  10.839  0.9921  2.2058 -1.6850
  938MOL0     H26618   6.590   1.181  10.895  0.7728 -0.4222 -0.3705
  938MOL0     H26619   6.801   1.239  10.798 -1.0844 -0.1393 -0.1780
  938MOL0     H26620   6.987   1.392  10.783 -2.8255 -2.7927 -0.0464
  938MOL0     H26621   6.986   1.320  10.621  2.0169  1.6674 -1.3663
  938MOL0     H26622   7.091   1.531  10.523 -2.4473  0.3964 -0.1299
  938MOL0     H26623   7.182   1.430  10.635  0.1347 -1.2113  2.1401
  938MOL0     H26624   7.137   1.602  10.818  2.6426  0.5831 -1.8785
  938MOL0     H26625   7.013   1.672  10.700 -1.0553  0.6017  3.2367
  938MOL0     H26626   7.214   1.819  10.699  1.1679  0.4863  1.8377
  938MOL0     H26627   7.205   1.721  10.549  3.4494  4.5090 -0.6463
  938MOL0     H26628   7.569   1.630  10.686 -0.8438 -0.8391 -0.0964
  938MOL0     H26629   6.647   1.612  10.654 -0.2535  0.1711  0.9137
  938MOL0     H26630   6.432   1.562  10.753 -0.7834 -0.4074  1.4459
  939MOL0     O26631   7.528   2.614   9.164  0.0030 -0.2929 -0.0382
  939MOL0     C26632   7.504   2.609   9.284 -0.1889  0.2937  0.4788
  939MOL0     O26633   7.390   2.648   9.355 -0.0325 -0.3677 -0.0265
  939MOL0     C26634   7.296   2.724   9.290 -0.2300 -0.4333 -1.1758
  939MOL0     C26635   7.229   2.835   9.358 -0.8812 -0.1983  0.5538
  939MOL0     C26636   7.131   2.908   9.302  0.1596  0.0098  0.2121
  939MOL0     C26637   7.079   2.875   9.176 -0.0000 -0.1350  0.1110
  939MOL0     O26638   6.982   2.962   9.128  0.0197  0.2092  0.1142
  939MOL0     C26639   6.866   2.914   9.042 -0.0594  0.6881 -0.2268
  939MOL0     C26640   6.829   3.012   8.928 -0.1759  0.1777  0.2771
  939MOL0     C26641   6.723   3.100   8.987 -0.5460 -0.3209 -0.3118
  939MOL0     C26642   6.583   3.061   8.930  0.0251  0.1663  0.4872
  939MOL0     C26643   6.464   3.143   8.972 -0.4136 -0.2070  0.2469
  939MOL0     C26644   6.489   3.197   9.113  0.2385 -0.4718 -0.8295
  939MOL0     C26645   6.367   3.263   9.167 -0.0026 -0.2817  0.6017
  939MOL0     C26646   6.393   3.323   9.311 -0.5777 -0.6349  0.8428
  939MOL0     N26647   6.273   3.397   9.355 -0.1740 -0.2877  0.6516
  939MOL0     C26648   6.158   3.334   9.372 -0.3187  0.7666 -0.4330
  939MOL0     C26649   6.073   3.430   9.421 -0.4276  0.3340  1.0311
  939MOL0     C26650   5.927   3.408   9.451  0.3944 -0.2890 -0.2762
  939MOL0     C26651   5.883   3.407   9.597  0.0138  0.6937  0.5003
  939MOL0     C26652   5.732   3.384   9.602 -0.5707  0.2193 -0.2800
  939MOL0     C26653   5.689   3.400   9.742 -0.1513  0.1829 -0.5725
  939MOL0     O26654   5.547   3.413   9.752 -0.2542 -0.8672  0.5266
  939MOL0     C26655   5.484   3.418   9.874  0.2475 -0.1941  0.7713
  939MOL0     C26656   5.557   3.383   9.992  0.8734 -0.5432  0.2287
  939MOL0     C26657   5.499   3.400  10.120  0.1857  0.5785  0.6361
  939MOL0     C26658   5.569   3.336  10.238  0.4495  1.1704 -0.0028
  939MOL0     C26659   5.376   3.463  10.131 -0.0511 -0.2622 -0.1748
  939MOL0     C26660   5.311   3.500  10.270 -0.1824 -0.8979 -0.1113
  939MOL0     O26661   5.176   3.522  10.265  0.0523 -0.1634 -0.3955
  939MOL0     C26662   5.098   3.525  10.376 -0.1795 -0.4078  0.0211
  939MOL0     C26663   4.986   3.611  10.377  0.1735  0.6448 -0.0469
  939MOL0     C26664   4.884   3.602  10.480 -1.3083  0.7965  0.3591
  939MOL0     C26665   4.909   3.513  10.583  0.1281  0.8242 -0.0438
  939MOL0     O26666   4.831   3.514  10.697  0.4166  0.5227  0.9362
  939MOL0     C26667   4.845   3.621  10.783  0.4791  0.4862  0.0904
  939MOL0     C26668   4.729   3.616  10.883 -0.3945  0.3368 -1.1986
  939MOL0     C26669   4.719   3.735  10.965 -0.1425 -0.8605 -0.1940
  939MOL0     C26670   4.628   3.724  11.092 -0.2800  0.1596  0.2464
  939MOL0     C26671   4.644   3.851  11.173 -0.1878 -1.2741  0.1711
  939MOL0     C26672   4.571   3.838  11.305  0.5359 -0.6272  0.3057
  939MOL0     C26673   4.571   3.965  11.390 -0.4791  0.2833 -1.0783
  939MOL0     C26674   4.715   4.008  11.422  0.0512 -0.7221 -0.4411
  939MOL0    Cl26675   4.695   4.166  11.503  0.0058 -0.1585  0.0596
  939MOL0     C26676   5.032   3.438  10.591  0.3703 -1.3117 -0.2020
  939MOL0     C26677   5.118   3.437  10.489  0.4087  0.9783  0.7334
  939MOL0     O26678   5.381   3.533  10.361  0.1546  0.0949  0.2520
  939MOL0     C26679   5.302   3.491  10.017 -0.7813 -0.4155  0.5759
  939MOL0     C26680   5.360   3.474   9.889  0.4951  0.3323 -0.0658
  939MOL0     N26681   6.141   3.543   9.422 -0.6478 -0.6197  0.2197
  939MOL0     N26682   6.256   3.538   9.368  0.0564  0.1897  0.2250
  939MOL0     C26683   7.134   2.755   9.115  0.7855  0.1833  0.6667
  939MOL0     C26684   7.242   2.689   9.172 -0.4352 -0.3117 -0.1407
  939MOL0     C26685   7.604   2.523   9.357 -0.3085  0.2701  0.3128
  939MOL0     C26686   7.593   2.509   9.490  0.0709  0.0591 -0.7084
  939MOL0     C26687   7.690   2.440   9.561  0.2206 -0.0535  0.0443
  939MOL0     C26688   7.798   2.383   9.503  0.3571 -0.0719 -0.2006
  939MOL0     O26689   7.873   2.310   9.593  0.2472  0.6702 -0.2051
  939MOL0     C26690   7.962   2.205   9.553  0.6994 -0.0195 -0.2926
  939MOL0     C26691   8.042   2.167   9.672 -0.2661  0.0091  0.3802
  939MOL0     C26692   7.944   2.111   9.776 -0.2027 -0.0351  0.4972
  939MOL0     C26693   7.998   1.978   9.832 -0.5081  0.1083 -1.0523
  939MOL0     C26694   8.021   1.879   9.727  0.8181 -0.1824 -0.3239
  939MOL0     C26695   8.024   1.803   9.637 -0.6844 -0.1254 -0.1340
  939MOL0     C26696   7.812   2.396   9.369 -0.6489  0.8109 -0.0992
  939MOL0     C26697   7.724   2.478   9.294  0.4292 -0.3231 -0.5597
  939MOL0     H26698   7.258   2.862   9.459  0.0896 -3.1358  1.1633
  939MOL0     H26699   7.072   2.988   9.346 -1.0115 -0.1207 -1.0253
  939MOL0     H26700   6.889   2.818   8.996 -0.1033  0.8601 -0.6148
  939MOL0     H26701   6.786   2.889   9.112  0.5274  2.3374  1.1104
  939MOL0     H26702   6.919   3.073   8.914 -2.2825  3.7625  0.9189
  939MOL0     H26703   6.790   2.969   8.836  2.4429  0.4641 -1.0581
  939MOL0     H26704   6.724   3.097   9.096 -0.7812 -0.9306 -0.3270
  939MOL0     H26705   6.753   3.203   8.966 -0.0345  0.1133  2.2316
  939MOL0     H26706   6.586   3.052   8.821 -1.0046 -0.6604  0.5086
  939MOL0     H26707   6.553   2.962   8.965 -2.4576  1.4496  2.2611
  939MOL0     H26708   6.459   3.217   8.892 -1.2259 -2.9209 -2.4389
  939MOL0     H26709   6.369   3.088   8.974 -0.5178 -0.0009  1.6576
  939MOL0     H26710   6.514   3.116   9.182 -0.2010 -0.9851 -1.2709
  939MOL0     H26711   6.574   3.266   9.122 -2.1247  2.3670  1.3579
  939MOL0     H26712   6.338   3.345   9.100  0.7053 -0.5228 -0.0064
  939MOL0     H26713   6.283   3.193   9.171 -0.8395  0.6903  0.4540
  939MOL0     H26714   6.471   3.399   9.313 -2.5834  1.6475 -0.9813
  939MOL0     H26715   6.428   3.245   9.380  0.6902 -0.0536  0.8715
  939MOL0     H26716   6.136   3.230   9.347  1.6460  0.8430 -2.8949
  939MOL0     H26717   5.868   3.492   9.411  0.9879  0.2917  0.0470
  939MOL0     H26718   5.901   3.312   9.406  2.1063  0.0243 -2.0813
  939MOL0     H26719   5.910   3.490   9.662 -2.1419 -0.5940  3.3052
  939MOL0     H26720   5.931   3.326   9.653 -1.8843 -1.2694 -0.5260
  939MOL0     H26721   5.713   3.285   9.560 -0.7026 -0.0085  0.3099
  939MOL0     H26722   5.680   3.467   9.553  0.7874  0.0600 -2.0990
  939MOL0     H26723   5.738   3.490   9.781  2.3229 -0.5770 -1.7369
  939MOL0     H26724   5.726   3.310   9.793 -0.1344 -1.4285 -3.2480
  939MOL0     H26725   5.645   3.326   9.964  0.7675  0.0722 -1.4647
  939MOL0     H26726   5.573   3.398  10.329 -0.9483  1.5216 -0.1664
  939MOL0     H26727   5.513   3.251  10.276  1.1571 -0.4154 -2.2717
  939MOL0     H26728   5.667   3.290  10.218 -0.0338 -0.2644  0.8345
  939MOL0     H26729   4.978   3.676  10.291  4.3802 -2.0824 -2.8337
  939MOL0     H26730   4.794   3.661  10.493 -2.5448 -1.1058  0.8962
  939MOL0     H26731   4.939   3.622  10.839  0.1410 -3.4141  1.0152
  939MOL0     H26732   4.848   3.707  10.716  0.2539 -0.1687 -0.7945
  939MOL0     H26733   4.637   3.597  10.826 -0.2266 -0.0686 -1.3338
  939MOL0     H26734   4.745   3.532  10.950 -1.2187  2.3485  1.6901
  939MOL0     H26735   4.674   3.811  10.901  2.4354  0.2184 -0.8519
  939MOL0     H26736   4.823   3.760  10.991 -0.3706  1.3483 -1.1318
  939MOL0     H26737   4.526   3.726  11.054 -0.5453  2.5994  0.9044
  939MOL0     H26738   4.657   3.632  11.144  3.8002  0.3979 -1.2120
  939MOL0     H26739   4.605   3.928  11.106  0.4171 -3.0828 -2.4539
  939MOL0     H26740   4.750   3.862  11.198 -0.4975 -0.3108  1.0776
  939MOL0     H26741   4.470   3.800  11.292  0.1415  0.1876  0.9040
  939MOL0     H26742   4.623   3.761  11.363  1.1817  1.3850  2.5488
  939MOL0     H26743   4.522   3.963  11.488  1.0251  1.9474 -0.2222
  939MOL0     H26744   4.531   4.049  11.331  1.1963  1.2303 -0.9208
  939MOL0     H26745   4.764   4.026  11.326  0.5377  2.0773  0.2341
  939MOL0     H26746   4.771   3.943  11.490 -1.0501 -1.7672 -0.5018
  939MOL0     H26747   5.049   3.374  10.677 -2.0821 -0.3634  1.0550
  939MOL0     H26748   5.208   3.377  10.493  0.3611  0.8160 -0.2860
  939MOL0     H26749   5.202   3.531  10.001 -0.0225  2.0310  1.4080
  939MOL0     H26750   5.303   3.509   9.803  0.4014 -0.2504 -0.2463
  939MOL0     H26751   7.090   2.725   9.020 -0.2038  1.3240  0.7529
  939MOL0     H26752   7.286   2.606   9.118  0.5550  0.8244 -1.1504
  939MOL0     H26753   7.527   2.572   9.548  0.2810  0.6589 -1.1182
  939MOL0     H26754   7.686   2.431   9.669 -2.3772  1.7633  0.1926
  939MOL0     H26755   7.903   2.124   9.510 -4.5336  2.4946  1.4247
  939MOL0     H26756   8.026   2.239   9.470 -0.0154  1.3244 -0.3189
  939MOL0     H26757   8.082   2.258   9.717  1.0811 -0.3945  0.0704
  939MOL0     H26758   8.123   2.100   9.640 -1.3792 -1.8120  1.2388
  939MOL0     H26759   7.844   2.106   9.732  0.1976  1.4076 -0.6595
  939MOL0     H26760   7.928   2.187   9.853 -2.3258 -0.7374  0.8274
  939MOL0     H26761   7.932   1.929   9.904  1.8232 -1.8786 -0.1163
  939MOL0     H26762   8.094   2.004   9.877 -0.5034  0.3288 -1.1851
  939MOL0     H26763   8.045   1.741   9.553  1.6547  0.4844 -0.0676
  939MOL0     H26764   7.899   2.351   9.322 -0.7227  2.0397 -1.5038
  939MOL0     H26765   7.747   2.499   9.190 -0.2861  1.4872 -0.3920
  940MOL0     O26766   2.824  10.097   5.048  0.5994  0.3672 -0.1324
  940MOL0     C26767   2.787  10.116   5.162 -0.0772 -0.2471  0.2221
  940MOL0     O26768   2.868  10.093   5.272  0.1924 -0.3867 -1.0155
  940MOL0     C26769   3.004  10.064   5.244 -0.4458  0.2280 -0.0885
  940MOL0     C26770   3.065   9.936   5.291 -0.2984 -0.3225  0.3789
  940MOL0     C26771   3.196   9.914   5.267 -0.4841  0.4512  0.5960
  940MOL0     C26772   3.282  10.001   5.197  0.7290  0.6070 -0.5276
  940MOL0     O26773   3.404   9.968   5.157  0.2224 -0.6832 -0.6199
  940MOL0     C26774   3.475   9.871   5.233 -0.3334  0.1211 -1.0471
  940MOL0     C26775   3.620   9.877   5.200 -1.3789  0.6794  0.5349
  940MOL0     C26776   3.648   9.891   5.045  0.4384 -0.3615 -0.6755
  940MOL0     C26777   3.787   9.936   5.000 -0.0896  0.1787 -0.4474
  940MOL0     C26778   3.900   9.877   5.094  0.2453 -0.9229  0.5533
  940MOL0     C26779   4.039   9.891   5.042 -0.5379 -0.0653 -0.9757
  940MOL0     C26780   4.103  10.019   5.086  0.0843  0.3278  0.7842
  940MOL0     C26781   4.234  10.034   5.008  0.0496  0.1662 -0.3716
  940MOL0     N26782   4.203  10.063   4.866 -1.1979  0.4086  0.3558
  940MOL0     C26783   4.112  10.153   4.812 -1.0402  0.5245 -0.4648
  940MOL0     C26784   4.120  10.135   4.677 -0.0315  0.9703 -0.9754
  940MOL0     C26785   4.040  10.217   4.584 -0.0491 -0.1023  0.6342
  940MOL0     C26786   3.890  10.222   4.610  0.4762 -0.2147  0.5112
  940MOL0     C26787   3.818  10.082   4.607  0.5390 -0.1533 -0.0655
  940MOL0     C26788   3.678  10.075   4.658  0.0903 -0.6982 -0.2946
  940MOL0     O26789   3.680  10.142   4.785  0.1744 -0.0673  0.0345
  940MOL0     C26790   3.603  10.256   4.803  0.8441  0.0248 -0.9792
  940MOL0     C26791   3.547  10.345   4.710 -0.3330 -0.4893 -0.2687
  940MOL0     C26792   3.467  10.453   4.747 -0.5038  0.6655 -0.7828
  940MOL0     C26793   3.427  10.552   4.647  0.1486 -0.6459 -0.3280
  940MOL0     C26794   3.421  10.465   4.880 -0.3158  0.8655 -0.2576
  940MOL0     C26795   3.324  10.566   4.940 -0.5399  0.4221  0.0850
  940MOL0     O26796   3.287  10.542   5.066 -0.1206 -0.1681  0.1179
  940MOL0     C26797   3.191  10.609   5.130  0.1739  0.5907 -0.6519
  940MOL0     C26798   3.155  10.741   5.119 -0.9663 -0.3617 -0.3307
  940MOL0     C26799   3.066  10.795   5.202 -0.0785  0.6039  0.3427
  940MOL0     C26800   2.985  10.717   5.291  0.6442  0.0903  0.5266
  940MOL0     O26801   2.888  10.770   5.374 -0.1030  1.3153  0.5165
  940MOL0     C26802   2.902  10.903   5.429 -0.5907 -0.7587  0.3303
  940MOL0     C26803   2.804  10.917   5.544 -0.5670 -0.8192  0.4720
  940MOL0     C26804   2.659  10.895   5.499  1.4878 -0.2966 -1.3758
  940MOL0     C26805   2.565  10.964   5.603 -1.0648 -0.0966 -0.0792
  940MOL0     C26806   2.424  10.903   5.610 -0.1204  0.2399  0.1273
  940MOL0     C26807   2.335  10.977   5.703 -0.2551  0.1951 -0.2007
  940MOL0     C26808   2.206  10.889   5.712 -0.5258 -0.6682 -0.1347
  940MOL0     C26809   2.079  10.969   5.723  0.3991  0.2194  0.8008
  940MOL0    Cl26810   2.032  11.057   5.571 -0.3050 -0.1076 -0.1313
  940MOL0     C26811   3.037  10.588   5.316 -0.0567  0.3283  0.6830
  940MOL0     C26812   3.129  10.538   5.231 -0.2005  0.2283 -0.5056
  940MOL0     O26813   3.273  10.647   4.864  1.0628  0.2324  0.6075
  940MOL0     C26814   3.472  10.373   4.969  0.0597  0.0431 -0.3852
  940MOL0     C26815   3.550  10.266   4.932 -0.2285  0.0950  0.2094
  940MOL0     N26816   4.212  10.037   4.646  0.2332  0.4239 -0.5451
  940MOL0     N26817   4.251   9.986   4.759 -0.2436 -0.1930  0.1288
  940MOL0     C26818   3.223  10.126   5.140  0.6628  0.4869 -0.2332
  940MOL0     C26819   3.079  10.146   5.151  0.4411  0.3743 -0.1824
  940MOL0     C26820   2.647  10.123   5.180  0.3497  0.3964  0.4666
  940MOL0     C26821   2.561  10.061   5.078  0.3779 -0.2011  0.3585
  940MOL0     C26822   2.421  10.079   5.088 -0.0089 -0.6302 -0.0346
  940MOL0     C26823   2.361  10.130   5.202  0.0912  0.2884  0.0759
  940MOL0     O26824   2.228  10.108   5.227  0.0613 -0.8538  0.7396
  940MOL0     C26825   2.146  10.036   5.135 -0.0528  0.0736  0.0648
  940MOL0     C26826   2.012  10.023   5.198 -0.3018  0.0244  0.3965
  940MOL0     C26827   1.998   9.943   5.325 -0.7092 -0.6479  0.0931
  940MOL0     C26828   1.994   9.785   5.319 -0.1772  0.4157 -0.5168
  940MOL0     C26829   1.858   9.742   5.346 -0.1284 -0.3068  0.6380
  940MOL0     C26830   1.741   9.717   5.343 -0.5936 -0.2061  0.1608
  940MOL0     C26831   2.442  10.184   5.304 -0.5637  0.6122  0.6642
  940MOL0     C26832   2.580  10.183   5.288  0.1850  0.8150 -1.5275
  940MOL0     H26833   3.006   9.862   5.343 -0.6301 -0.7521 -0.5875
  940MOL0     H26834   3.244   9.824   5.304 -1.3854  0.2208  1.2680
  940MOL0     H26835   3.460   9.882   5.341  2.0661 -3.4049 -0.1886
  940MOL0     H26836   3.445   9.768   5.209  1.2222 -0.9622  1.2001
  940MOL0     H26837   3.672   9.958   5.253 -0.4313  1.8236 -2.0080
  940MOL0     H26838   3.667   9.785   5.235  2.0379  2.2080  0.3657
  940MOL0     H26839   3.623   9.789   5.015  2.0095 -1.1345  0.5249
  940MOL0     H26840   3.586   9.959   4.985  1.3994 -0.3839 -1.7337
  940MOL0     H26841   3.808   9.895   4.900  1.4093 -0.1410 -0.0359
  940MOL0     H26842   3.789  10.044   5.011 -0.7811 -0.0994  4.5408
  940MOL0     H26843   3.890   9.913   5.196  1.6857 -0.3847  0.5298
  940MOL0     H26844   3.871   9.772   5.089  0.0706 -0.8278 -1.1845
  940MOL0     H26845   4.099   9.806   5.078  1.0780  1.1152 -0.7658
  940MOL0     H26846   4.039   9.886   4.933 -0.5334 -2.3744 -0.9157
  940MOL0     H26847   4.039  10.101   5.052  0.0236 -0.0711 -0.1007
  940MOL0     H26848   4.119  10.025   5.194 -2.0468  0.9550  1.0956
  940MOL0     H26849   4.306   9.956   5.035 -0.2407 -0.0548 -0.2234
  940MOL0     H26850   4.271  10.135   5.026 -2.0585  1.0889 -0.9067
  940MOL0     H26851   4.054  10.228   4.864 -0.0171  0.6639  0.5127
  940MOL0     H26852   4.079  10.319   4.588 -0.3568  0.0567 -0.1952
  940MOL0     H26853   4.057  10.173   4.485  0.8335  1.1689  0.2109
  940MOL0     H26854   3.852  10.294   4.536  0.9989 -2.7027 -2.3722
  940MOL0     H26855   3.869  10.268   4.707  1.3002 -0.3400  0.7574
  940MOL0     H26856   3.877  10.017   4.672  2.9947  2.8010  0.9393
  940MOL0     H26857   3.829  10.034   4.509  2.4605  0.4534 -0.1971
  940MOL0     H26858   3.660   9.969   4.676 -0.3713 -0.2434  2.3671
  940MOL0     H26859   3.603  10.111   4.587  1.4197  0.5165 -1.1276
  940MOL0     H26860   3.572  10.336   4.605  0.0387  1.5992 -0.3892
  940MOL0     H26861   3.492  10.541   4.559 -1.1810  3.0110 -1.9724
  940MOL0     H26862   3.322  10.540   4.619 -0.4903  3.5146 -0.4341
  940MOL0     H26863   3.426  10.660   4.665 -2.1323 -0.3719 -1.6966
  940MOL0     H26864   3.199  10.813   5.051 -2.3890 -1.0336 -2.0665
  940MOL0     H26865   3.032  10.897   5.193  0.4298  0.6924 -0.6063
  940MOL0     H26866   3.007  10.921   5.451 -0.2122 -1.1881 -0.9941
  940MOL0     H26867   2.879  10.972   5.347 -0.9432 -3.9252 -2.4839
  940MOL0     H26868   2.827  10.849   5.626  2.5123 -0.6908 -0.1591
  940MOL0     H26869   2.806  11.019   5.582 -0.4092 -0.1903 -1.1544
  940MOL0     H26870   2.628  10.790   5.498 -4.4481  1.1196 -1.2906
  940MOL0     H26871   2.635  10.939   5.402 -0.3010  1.0343 -0.4021
  940MOL0     H26872   2.598  10.966   5.708 -2.5168  0.2065  0.3903
  940MOL0     H26873   2.560  11.071   5.577 -1.2860 -0.7142 -2.8610
  940MOL0     H26874   2.422  10.798   5.640 -1.8235  0.0791 -0.4735
  940MOL0     H26875   2.382  10.924   5.511  2.5970  0.1402 -1.1246
  940MOL0     H26876   2.390  10.988   5.798 -0.5274 -0.3589  0.0231
  940MOL0     H26877   2.311  11.076   5.662  1.4797  0.6902 -0.1335
  940MOL0     H26878   2.213  10.831   5.804  2.1703 -1.4477 -0.7454
  940MOL0     H26879   2.198  10.824   5.625  1.7655  0.6318 -1.4475
  940MOL0     H26880   2.089  11.048   5.798 -1.9712  2.3330 -0.9420
  940MOL0     H26881   1.998  10.906   5.760 -1.5849  1.7604 -0.6515
  940MOL0     H26882   3.000  10.537   5.404 -3.8588  1.2887 -0.1617
  940MOL0     H26883   3.157  10.434   5.229  0.8130  0.4799  0.1669
  940MOL0     H26884   3.447  10.372   5.074  1.6690  0.1981  0.0234
  940MOL0     H26885   3.562  10.201   5.018 -0.7452 -3.0160 -1.8773
  940MOL0     H26886   3.289  10.198   5.094  2.3686 -1.4503 -0.9432
  940MOL0     H26887   3.031  10.231   5.102 -2.0758 -0.7516  0.1877
  940MOL0     H26888   2.604  10.007   4.994  0.3679  1.6468 -0.8751
  940MOL0     H26889   2.360  10.037   5.009 -0.4079  0.3449 -0.2502
  940MOL0     H26890   2.139  10.099   5.046 -0.9745  0.2796  0.2769
  940MOL0     H26891   2.183   9.934   5.120 -1.1480 -0.3523  0.2139
  940MOL0     H26892   1.940   9.988   5.123 -0.0691  0.0168  0.1774
  940MOL0     H26893   1.980  10.124   5.223  1.2446  1.1213 -1.7683
  940MOL0     H26894   1.921   9.984   5.390 -1.0584  1.6074 -1.6366
  940MOL0     H26895   2.089   9.975   5.377 -1.5223 -0.3615  1.3946
  940MOL0     H26896   2.065   9.740   5.389 -0.6154 -0.7938 -0.8123
  940MOL0     H26897   2.020   9.753   5.217  0.7265  0.2926 -0.2550
  940MOL0     H26898   1.644   9.670   5.338 -1.4188  1.3801  0.5753
  940MOL0     H26899   2.393  10.233   5.389  1.5285 -0.4357  2.5827
  940MOL0     H26900   2.630  10.234   5.370  3.0833 -1.0749 -1.9736
  941MOL0     O26901   0.547   3.254   3.768 -0.1526  0.3339  0.3785
  941MOL0     C26902   0.551   3.371   3.806  0.3038  0.3784 -1.1181
  941MOL0     O26903   0.450   3.440   3.869  0.0457  0.5902  1.0135
  941MOL0     C26904   0.335   3.361   3.891  0.7416  0.0647 -0.9915
  941MOL0     C26905   0.252   3.310   3.792 -0.3356 -0.4845  0.3889
  941MOL0     C26906   0.141   3.234   3.820  0.2322  0.3220  0.2345
  941MOL0     C26907   0.093   3.216   3.953 -0.2370  0.6305  1.1454
  941MOL0     O26908  -0.016   3.149   4.003 -0.2061  0.1332  0.2911
  941MOL0     C26909  -0.068   3.060   3.904 -0.0440 -0.1451 -0.2748
  941MOL0     C26910  -0.172   2.978   3.984  0.6941  0.3199  0.1930
  941MOL0     C26911  -0.293   3.062   4.033  0.2107 -0.1550 -0.1346
  941MOL0     C26912  -0.395   3.077   3.918 -0.9574  0.4423 -0.4900
  941MOL0     C26913  -0.532   3.118   3.967 -0.1744 -0.2507  0.1902
  941MOL0     C26914  -0.648   3.101   3.867  0.2961  0.1836 -0.0415
  941MOL0     C26915  -0.784   3.150   3.932 -0.5834  0.0832 -0.2085
  941MOL0     C26916  -0.826   3.053   4.039 -0.1565 -0.9735  0.5472
  941MOL0     N26917  -0.953   3.078   4.104  0.2373 -0.4840 -0.6555
  941MOL0     C26918  -0.975   3.171   4.202  0.5999 -0.8477  0.4328
  941MOL0     C26919  -1.108   3.181   4.212  1.1114 -0.4966 -0.1998
  941MOL0     C26920  -1.200   3.267   4.307 -1.4682  0.2803  0.1899
  941MOL0     C26921  -1.252   3.393   4.241 -0.6073 -0.5879 -0.4906
  941MOL0     C26922  -1.340   3.359   4.126 -0.8496  0.3301 -0.0415
  941MOL0     C26923  -1.471   3.295   4.175 -0.1874  0.7879  0.0302
  941MOL0     O26924  -1.556   3.395   4.232  0.4437  0.9496 -0.0495
  941MOL0     C26925  -1.681   3.412   4.182 -0.6138 -0.1725  0.5823
  941MOL0     C26926  -1.721   3.535   4.130  0.0026 -0.3082  0.6300
  941MOL0     C26927  -1.859   3.554   4.078 -0.5143  0.5047 -0.4001
  941MOL0     C26928  -1.900   3.695   4.039 -0.0908 -0.4936  0.1590
  941MOL0     C26929  -1.948   3.437   4.085 -0.9303  0.0496 -0.2413
  941MOL0     C26930  -2.087   3.432   4.036  1.4730 -0.2765 -0.1425
  941MOL0     O26931  -2.154   3.317   4.057 -0.4124  0.1756  0.2906
  941MOL0     C26932  -2.244   3.277   3.964  0.2061 -0.5981 -0.5556
  941MOL0     C26933  -2.205   3.226   3.836 -0.1094  0.0930 -0.0808
  941MOL0     C26934  -2.304   3.177   3.750 -0.3846  0.6117  0.5470
  941MOL0     C26935  -2.434   3.188   3.780 -0.2589  0.1556  0.0067
  941MOL0     O26936  -2.533   3.151   3.699  1.3687  0.3026 -0.2044
  941MOL0     C26937  -2.509   3.099   3.578 -0.2073  0.1996 -0.0540
  941MOL0     C26938  -2.641   3.070   3.531  0.9512 -0.5484  0.7979
  941MOL0     C26939  -2.643   3.003   3.395 -0.8345 -0.1215 -0.7767
  941MOL0     C26940  -2.573   2.871   3.416 -0.0542  0.2033  0.3782
  941MOL0     C26941  -2.607   2.774   3.289 -0.4902 -1.0409 -1.2376
  941MOL0     C26942  -2.547   2.816   3.160  0.3778  0.0077 -0.1642
  941MOL0     C26943  -2.600   2.731   3.052 -0.5069  1.4726  0.4964
  941MOL0     C26944  -2.515   2.595   3.035  0.7071 -0.5672 -0.8124
  941MOL0    Cl26945  -2.578   2.513   2.899  0.1016  0.0033 -0.0384
  941MOL0     C26946  -2.479   3.250   3.904  0.4823 -0.9610 -0.5573
  941MOL0     C26947  -2.379   3.289   3.997  0.0150 -0.7088 -0.0673
  941MOL0     O26948  -2.124   3.525   3.961  0.1702 -0.0610 -0.8972
  941MOL0     C26949  -1.902   3.317   4.144  0.1173 -0.4493 -0.3575
  941MOL0     C26950  -1.776   3.314   4.200 -0.3615  0.4570 -0.2287
  941MOL0     N26951  -1.158   3.090   4.119  0.1733 -0.2432  0.2413
  941MOL0     N26952  -1.069   3.020   4.064 -0.6049  0.1301  0.0628
  941MOL0     C26953   0.158   3.288   4.053 -0.5893  0.1900 -0.2152
  941MOL0     C26954   0.285   3.357   4.022 -0.3038  0.1297  0.1343
  941MOL0     C26955   0.668   3.461   3.766 -0.5988  0.0226  0.6032
  941MOL0     C26956   0.748   3.432   3.659 -0.2421  0.6993 -0.3349
  941MOL0     C26957   0.847   3.527   3.623  0.1413 -0.1224  0.1696
  941MOL0     C26958   0.872   3.642   3.695  0.3574 -0.4578  0.7102
  941MOL0     O26959   0.974   3.724   3.670  0.8740  0.8241  0.3741
  941MOL0     C26960   1.018   3.740   3.538 -0.2479  0.3779 -0.5166
  941MOL0     C26961   0.897   3.789   3.456 -0.2822  1.0414 -0.7843
  941MOL0     C26962   0.943   3.859   3.321  1.0722  0.5349 -0.6477
  941MOL0     C26963   1.026   3.768   3.229  0.7746 -0.1067 -0.3047
  941MOL0     C26964   1.078   3.837   3.106  0.4606  0.0836 -0.1891
  941MOL0     C26965   1.127   3.902   3.013 -0.0110  0.3850  1.0720
  941MOL0     C26966   0.805   3.667   3.810  0.0023 -0.0349  0.1540
  941MOL0     C26967   0.698   3.573   3.842  0.9258 -0.5258 -0.4425
  941MOL0     H26968   0.269   3.318   3.685  1.7356 -2.6143  0.4701
  941MOL0     H26969   0.079   3.191   3.743  0.4917 -0.1441  0.2776
  941MOL0     H26970  -0.119   3.122   3.830 -1.5768 -0.0844  0.7797
  941MOL0     H26971   0.007   2.993   3.862 -1.0420 -1.4321 -0.0746
  941MOL0     H26972  -0.212   2.900   3.919 -0.1940  1.3751 -0.5650
  941MOL0     H26973  -0.125   2.916   4.061 -1.5540 -2.9568 -0.8422
  941MOL0     H26974  -0.344   3.017   4.118 -0.9402  0.7188 -0.3435
  941MOL0     H26975  -0.253   3.162   4.055  4.3413 -1.7958  0.8372
  941MOL0     H26976  -0.351   3.150   3.849  1.7426 -2.2527 -1.8137
  941MOL0     H26977  -0.403   2.979   3.871  0.8119 -0.8861  1.8144
  941MOL0     H26978  -0.551   3.064   4.060 -1.4744  0.9497  0.6638
  941MOL0     H26979  -0.532   3.227   3.983 -0.1419 -0.3445  0.8481
  941MOL0     H26980  -0.623   3.153   3.774 -0.2477 -1.6292 -1.2558
  941MOL0     H26981  -0.655   2.994   3.843  0.9951  0.3013 -0.8080
  941MOL0     H26982  -0.768   3.252   3.966 -0.9467  0.0104  0.1874
  941MOL0     H26983  -0.865   3.147   3.857  1.3416 -2.5222 -2.3917
  941MOL0     H26984  -0.746   3.047   4.114 -1.3890 -0.0577  1.9736
  941MOL0     H26985  -0.853   2.959   3.989 -1.8364 -0.0437 -0.3604
  941MOL0     H26986  -0.895   3.224   4.254  0.3395  0.1151 -0.1231
  941MOL0     H26987  -1.281   3.213   4.357 -1.6182 -0.1573 -0.5107
  941MOL0     H26988  -1.132   3.304   4.385  1.4181 -0.3071 -1.9141
  941MOL0     H26989  -1.168   3.461   4.221 -0.7800  0.2233  1.3306
  941MOL0     H26990  -1.305   3.444   4.322  2.8519  1.1739  0.8679
  941MOL0     H26991  -1.292   3.295   4.052  0.5860  1.6523 -0.2927
  941MOL0     H26992  -1.364   3.446   4.064 -0.6762 -1.0092 -2.0702
  941MOL0     H26993  -1.449   3.216   4.248 -0.3562  2.0840  1.5339
  941MOL0     H26994  -1.518   3.254   4.085 -2.2320  4.2344 -0.6193
  941MOL0     H26995  -1.650   3.617   4.136 -1.5695  1.2538 -1.0405
  941MOL0     H26996  -1.936   3.710   3.937 -0.1378  4.3460  0.6526
  941MOL0     H26997  -1.985   3.722   4.102 -0.7661  1.5418 -1.5291
  941MOL0     H26998  -1.817   3.764   4.059  0.0347 -0.3619 -0.7822
  941MOL0     H26999  -2.098   3.213   3.824  0.2911  1.5270  1.4853
  941MOL0     H27000  -2.271   3.114   3.668 -0.4167  0.6307  0.5196
  941MOL0     H27001  -2.455   3.151   3.498 -2.3026  0.1627 -1.5965
  941MOL0     H27002  -2.456   3.005   3.598  2.7335  1.0192 -3.0986
  941MOL0     H27003  -2.689   3.007   3.606 -0.1238 -0.2468  0.3763
  941MOL0     H27004  -2.691   3.166   3.513 -0.4657 -1.2685  0.7866
  941MOL0     H27005  -2.600   3.067   3.317  2.5098 -2.0479 -0.6925
  941MOL0     H27006  -2.747   2.990   3.365 -0.7998 -1.7920 -0.2508
  941MOL0     H27007  -2.465   2.872   3.433 -0.2621 -0.9991  2.0691
  941MOL0     H27008  -2.603   2.816   3.506  0.8919 -2.2030 -0.6716
  941MOL0     H27009  -2.715   2.785   3.272 -0.1124  1.6130 -2.5278
  941MOL0     H27010  -2.562   2.679   3.320  0.7820  0.6659  2.7332
  941MOL0     H27011  -2.578   2.915   3.126 -0.3332  0.5308  1.8433
  941MOL0     H27012  -2.438   2.822   3.152  0.3993 -0.2878 -0.1128
  941MOL0     H27013  -2.577   2.787   2.961 -2.5552 -0.3084 -1.2226
  941MOL0     H27014  -2.708   2.716   3.050 -0.5697  1.9602 -0.3253
  941MOL0     H27015  -2.521   2.551   3.135 -0.0640 -0.7907 -0.9490
  941MOL0     H27016  -2.410   2.609   3.006  1.0143 -1.3322 -0.1018
  941MOL0     H27017  -2.582   3.256   3.938  0.2142  3.9728 -1.4925
  941MOL0     H27018  -2.398   3.333   4.095 -0.7920  1.7125 -1.2427
  941MOL0     H27019  -1.970   3.239   4.175  1.0033 -0.7145  1.0207
  941MOL0     H27020  -1.758   3.220   4.251 -3.0675 -0.0800 -0.0717
  941MOL0     H27021   0.122   3.288   4.156  1.1948  0.9914  0.4631
  941MOL0     H27022   0.337   3.417   4.096 -1.1602  0.6126  0.3569
  941MOL0     H27023   0.747   3.339   3.604 -0.0746  1.5872 -1.9243
  941MOL0     H27024   0.898   3.500   3.531 -2.0976 -1.1159 -0.8640
  941MOL0     H27025   1.099   3.815   3.536  0.1507 -0.0537 -0.6586
  941MOL0     H27026   1.065   3.652   3.494 -3.0727 -0.5684 -1.8358
  941MOL0     H27027   0.830   3.854   3.513 -0.0386  1.7160 -1.2424
  941MOL0     H27028   0.843   3.701   3.421  1.0865  0.7878 -2.3803
  941MOL0     H27029   1.011   3.937   3.357  1.6017 -0.6399  0.9870
  941MOL0     H27030   0.861   3.900   3.262  1.8449 -1.0916 -3.0306
  941MOL0     H27031   0.958   3.694   3.186 -2.0438  0.5332  2.6605
  941MOL0     H27032   1.112   3.733   3.286  1.6046 -1.6324 -2.3683
  941MOL0     H27033   1.154   3.946   2.920  1.9225 -0.3696  1.2271
  941MOL0     H27034   0.834   3.747   3.878 -0.3212 -0.0963  0.3690
  941MOL0     H27035   0.645   3.577   3.936  2.2039  0.0009  0.2804
  942MOL0     O27036   2.230   6.685   8.015  0.3791 -0.0789 -0.4670
  942MOL0     C27037   2.257   6.736   8.116 -0.2386  0.8125  0.0047
  942MOL0     O27038   2.385   6.768   8.161  0.4052 -0.1536  0.1920
  942MOL0     C27039   2.496   6.712   8.091  0.7620 -0.9052  1.3002
  942MOL0     C27040   2.505   6.585   8.038  0.4733 -1.2993 -0.0626
  942MOL0     C27041   2.608   6.544   7.950 -0.5706 -0.3179  0.0097
  942MOL0     C27042   2.710   6.631   7.933 -0.5319  0.6047 -0.4527
  942MOL0     O27043   2.819   6.593   7.859 -0.2785  0.2141  0.8772
  942MOL0     C27044   2.871   6.455   7.847  0.1188 -0.9187 -0.4646
  942MOL0     C27045   3.023   6.462   7.851 -0.5261 -0.2583  0.3746
  942MOL0     C27046   3.081   6.550   7.742  0.0333 -1.1559 -0.2286
  942MOL0     C27047   3.229   6.539   7.718 -0.7934 -0.0205  0.2026
  942MOL0     C27048   3.275   6.604   7.587 -0.3208  0.0267 -0.0904
  942MOL0     C27049   3.421   6.595   7.572  0.5435  0.3481 -0.3510
  942MOL0     C27050   3.466   6.627   7.434 -0.5963 -0.0677 -0.7248
  942MOL0     C27051   3.445   6.514   7.336 -0.6801  0.2145  0.9501
  942MOL0     N27052   3.500   6.545   7.204  0.3420  0.8576 -0.3899
  942MOL0     C27053   3.443   6.610   7.094  0.9245  0.2865 -0.5102
  942MOL0     C27054   3.539   6.615   7.002  0.6475  0.1464  0.0487
  942MOL0     C27055   3.514   6.683   6.865 -0.2303 -0.1502 -0.5722
  942MOL0     C27056   3.396   6.644   6.774  0.1629  0.2957  0.1730
  942MOL0     C27057   3.422   6.524   6.676  0.3930  0.5050  0.1311
  942MOL0     C27058   3.426   6.397   6.758 -0.2395  0.9121 -0.9291
  942MOL0     O27059   3.285   6.355   6.782  0.4467 -0.0854 -0.1562
  942MOL0     C27060   3.239   6.326   6.909 -0.5417  0.3916 -0.3130
  942MOL0     C27061   3.315   6.266   7.001  0.7714  0.0088 -0.0669
  942MOL0     C27062   3.266   6.266   7.137 -0.6299 -0.1147  0.5331
  942MOL0     C27063   3.362   6.209   7.241  0.0098  0.8311 -0.0072
  942MOL0     C27064   3.134   6.294   7.172  0.2287  0.0805  0.0152
  942MOL0     C27065   3.065   6.274   7.304  0.5797 -0.1584 -0.5461
  942MOL0     O27066   2.967   6.185   7.307 -0.7515 -1.2032 -1.0687
  942MOL0     C27067   2.852   6.208   7.390  0.1889 -0.5023  0.6386
  942MOL0     C27068   2.787   6.097   7.444  0.5715 -0.5182  0.0338
  942MOL0     C27069   2.669   6.117   7.518  0.9396 -0.5650  0.4632
  942MOL0     C27070   2.617   6.246   7.550  0.6120 -0.3466  0.6416
  942MOL0     O27071   2.500   6.280   7.618  0.3841 -0.3588 -0.0478
  942MOL0     C27072   2.472   6.202   7.729 -0.2060  0.4563  0.2379
  942MOL0     C27073   2.349   6.243   7.807  0.2091 -0.1664 -0.3911
  942MOL0     C27074   2.223   6.186   7.738 -0.6255 -0.7724 -0.3642
  942MOL0     C27075   2.094   6.229   7.807 -1.3047 -0.1534  0.1372
  942MOL0     C27076   2.076   6.389   7.796 -0.6293 -0.4661  0.2519
  942MOL0     C27077   1.942   6.408   7.851  0.0268 -0.2670  1.2741
  942MOL0     C27078   1.894   6.548   7.818  0.1447 -0.0932  0.1272
  942MOL0     C27079   1.823   6.552   7.676  0.1466 -0.0580  0.5231
  942MOL0    Cl27080   1.811   6.721   7.605  0.6545 -0.3866  0.1167
  942MOL0     C27081   2.675   6.350   7.485 -0.5839 -0.4476 -0.0913
  942MOL0     C27082   2.799   6.333   7.421  0.9301 -0.1708  0.2898
  942MOL0     O27083   3.091   6.350   7.399 -0.2157 -0.1994  0.4118
  942MOL0     C27084   3.051   6.339   7.067 -0.5235 -0.4317 -0.8559
  942MOL0     C27085   3.103   6.368   6.936 -0.5070  0.0847 -0.6453
  942MOL0     N27086   3.653   6.574   7.051 -0.8786  0.2008  0.4500
  942MOL0     N27087   3.631   6.518   7.164  1.0313  0.0808 -0.4497
  942MOL0     C27088   2.711   6.752   8.001  0.8506 -0.3262 -0.3823
  942MOL0     C27089   2.600   6.801   8.070  0.0938 -0.4515  0.2169
  942MOL0     C27090   2.141   6.776   8.194  0.1056 -0.3550 -0.8724
  942MOL0     C27091   2.161   6.820   8.332  0.1527 -0.5490 -0.0199
  942MOL0     C27092   2.048   6.843   8.404 -0.0844 -0.6526 -0.8397
  942MOL0     C27093   1.919   6.824   8.346  0.4292  0.0524  0.0646
  942MOL0     O27094   1.800   6.836   8.422  0.1041  0.1397 -1.0083
  942MOL0     C27095   1.764   6.741   8.529 -0.1193  0.2205 -0.0129
  942MOL0     C27096   1.615   6.731   8.537  0.5436 -0.0210 -0.9777
  942MOL0     C27097   1.574   6.648   8.650 -0.0939 -0.0577  0.2983
  942MOL0     C27098   1.426   6.660   8.687  0.0003 -0.1766  1.0168
  942MOL0     C27099   1.326   6.596   8.589 -0.1909 -0.2641 -0.5044
  942MOL0     C27100   1.251   6.548   8.512  0.1480 -0.5327  0.1101
  942MOL0     C27101   1.904   6.801   8.208 -0.2471  0.6644 -0.6863
  942MOL0     C27102   2.014   6.765   8.135 -0.5113  0.2016 -0.7226
  942MOL0     H27103   2.427   6.513   8.057 -2.1693  1.2232 -0.5782
  942MOL0     H27104   2.602   6.455   7.888  1.2317  1.5151 -3.0241
  942MOL0     H27105   2.839   6.392   7.930  2.7054 -1.6530  0.0720
  942MOL0     H27106   2.830   6.406   7.758  3.0181  0.4886 -2.7659
  942MOL0     H27107   3.057   6.508   7.944  0.5230  1.1289 -0.6577
  942MOL0     H27108   3.062   6.360   7.840 -1.4562 -0.5999  0.1440
  942MOL0     H27109   3.029   6.525   7.650 -2.0189  0.2790  0.4815
  942MOL0     H27110   3.063   6.651   7.780  2.3966 -0.8579  0.2914
  942MOL0     H27111   3.277   6.578   7.809  0.1628 -2.2652  0.7104
  942MOL0     H27112   3.256   6.434   7.709  0.0090  0.2330 -0.5583
  942MOL0     H27113   3.236   6.549   7.501  1.0201 -0.6300 -0.3178
  942MOL0     H27114   3.253   6.711   7.588  1.7150  0.5401 -2.0157
  942MOL0     H27115   3.476   6.655   7.646 -1.9195  0.1895  1.7368
  942MOL0     H27116   3.464   6.500   7.606  0.6334  1.4430  3.0147
  942MOL0     H27117   3.424   6.718   7.392  0.2812 -0.6602 -3.0185
  942MOL0     H27118   3.571   6.651   7.452 -0.4117 -2.8132  3.5172
  942MOL0     H27119   3.341   6.480   7.338 -0.0627 -2.0204 -0.7609
  942MOL0     H27120   3.504   6.430   7.371  1.2463  0.6817 -0.9240
  942MOL0     H27121   3.344   6.653   7.080  0.7754  0.6185  1.2331
  942MOL0     H27122   3.512   6.791   6.882 -2.9575 -0.2130 -0.0756
  942MOL0     H27123   3.603   6.654   6.809  1.9776  0.5527  2.3166
  942MOL0     H27124   3.389   6.734   6.713 -0.2856 -0.9546 -1.6748
  942MOL0     H27125   3.305   6.628   6.833  0.4159 -1.8155  0.0598
  942MOL0     H27126   3.513   6.524   6.615  1.6021 -2.0532  1.7797
  942MOL0     H27127   3.341   6.527   6.603 -0.9875  0.1004  1.5972
  942MOL0     H27128   3.489   6.389   6.847 -2.0537 -3.0929  0.2489
  942MOL0     H27129   3.468   6.318   6.694  3.3712  2.7774 -1.1302
  942MOL0     H27130   3.417   6.236   6.977 -0.4801 -0.9828 -5.0870
  942MOL0     H27131   3.388   6.107   7.212 -0.6924 -0.1097  2.4747
  942MOL0     H27132   3.456   6.265   7.248  0.1220  0.4163  2.6850
  942MOL0     H27133   3.322   6.191   7.341 -0.1237  0.9277 -0.0426
  942MOL0     H27134   2.820   5.995   7.427  0.1359 -0.5092 -0.9416
  942MOL0     H27135   2.625   6.029   7.564  0.1391 -0.0811  0.6388
  942MOL0     H27136   2.462   6.096   7.706 -0.4286  0.6609 -0.6532
  942MOL0     H27137   2.553   6.218   7.801 -2.6684 -1.8081  3.8240
  942MOL0     H27138   2.348   6.210   7.911 -0.3089  0.9223 -0.0318
  942MOL0     H27139   2.346   6.352   7.804  4.2477  0.0921 -0.8715
  942MOL0     H27140   2.238   6.078   7.752  0.3752 -0.7678 -1.2726
  942MOL0     H27141   2.218   6.207   7.631  1.1285 -1.6025 -0.6452
  942MOL0     H27142   2.012   6.177   7.759 -0.8925 -1.5253  0.8795
  942MOL0     H27143   2.094   6.186   7.908 -2.1260  0.0574  0.2329
  942MOL0     H27144   2.083   6.427   7.693  0.1586  1.8104  1.0875
  942MOL0     H27145   2.158   6.429   7.855 -1.6276 -1.8760  2.7244
  942MOL0     H27146   1.866   6.337   7.817  0.6981 -0.4941  0.2045
  942MOL0     H27147   1.969   6.401   7.957  2.1026 -2.4320  0.7049
  942MOL0     H27148   1.974   6.622   7.811  0.9461 -1.0755 -3.1407
  942MOL0     H27149   1.820   6.581   7.891 -1.8747  0.5443 -2.0826
  942MOL0     H27150   1.728   6.505   7.699 -1.7221  3.7060  1.2690
  942MOL0     H27151   1.867   6.483   7.603  0.1425  0.6668 -0.1770
  942MOL0     H27152   2.639   6.452   7.488  1.9453  0.6248 -1.9926
  942MOL0     H27153   2.844   6.424   7.385 -0.4772  0.1334 -0.7554
  942MOL0     H27154   2.949   6.359   7.097  0.4049  0.0299  2.3564
  942MOL0     H27155   3.054   6.422   6.856  0.1005  2.9049  0.7530
  942MOL0     H27156   2.799   6.814   7.986  1.6410 -0.1413  3.7748
  942MOL0     H27157   2.593   6.901   8.112 -1.3291 -0.2676 -0.4134
  942MOL0     H27158   2.263   6.833   8.367  1.2987  0.4519 -3.3575
  942MOL0     H27159   2.054   6.866   8.510 -0.7245  2.5729 -1.3779
  942MOL0     H27160   1.793   6.640   8.496  0.9667  0.4373  0.2238
  942MOL0     H27161   1.818   6.771   8.620 -0.0613  1.5194 -0.4556
  942MOL0     H27162   1.581   6.689   8.442  0.3369 -0.8306 -0.5525
  942MOL0     H27163   1.569   6.830   8.550  0.3264 -0.4095  1.5624
  942MOL0     H27164   1.620   6.660   8.749  0.1195  0.6196  0.1215
  942MOL0     H27165   1.595   6.542   8.631 -0.3668 -0.1161  0.3139
  942MOL0     H27166   1.393   6.764   8.690 -0.5316 -0.3640  2.3043
  942MOL0     H27167   1.417   6.619   8.788  2.5832  0.8278  1.7183
  942MOL0     H27168   1.184   6.521   8.433  0.1969  0.0698 -0.1395
  942MOL0     H27169   1.808   6.793   8.158  0.9471 -0.5540 -2.9954
  942MOL0     H27170   1.999   6.742   8.030  1.6690 -0.7959 -0.8779
  943MOL0     O27171   7.019  11.193   7.550  0.2234 -0.0165 -0.2226
  943MOL0     C27172   7.033  11.076   7.590  0.7716 -0.4277 -0.5437
  943MOL0     O27173   6.922  11.002   7.651 -0.9496 -0.0038 -0.6962
  943MOL0     C27174   6.811  11.072   7.681 -0.4595  0.1601 -0.8556
  943MOL0     C27175   6.792  11.113   7.813  0.7299  0.0447 -0.0485
  943MOL0     C27176   6.684  11.190   7.851 -0.7304  0.1511  0.1441
  943MOL0     C27177   6.584  11.214   7.754 -0.3180 -0.0886  0.0604
  943MOL0     O27178   6.466  11.274   7.793 -0.9647 -0.2867 -0.5138
  943MOL0     C27179   6.473  11.345   7.913  0.1097  0.2798  0.3965
  943MOL0     C27180   6.349  11.435   7.929  0.8201  0.2900 -1.0215
  943MOL0     C27181   6.215  11.379   7.906  0.4340 -0.9039  0.4508
  943MOL0     C27182   6.102  11.474   7.950 -0.9293  0.7438  1.0938
  943MOL0     C27183   5.979  11.386   7.995 -0.3937 -0.6169  0.1879
  943MOL0     C27184   5.892  11.327   7.878  0.4026 -0.0998  0.1448
  943MOL0     C27185   5.887  11.170   7.875  0.1274 -1.1352  0.4858
  943MOL0     C27186   5.785  11.101   7.790  0.6293 -0.1530  0.5210
  943MOL0     N27187   5.648  11.163   7.795  1.1190 -0.6039 -0.1000
  943MOL0     C27188   5.564  11.154   7.898  0.5799  0.6715  0.1495
  943MOL0     C27189   5.457  11.214   7.856  0.7977  0.2283  0.7894
  943MOL0     C27190   5.336  11.250   7.946 -0.6811 -0.3440  0.1505
  943MOL0     C27191   5.208  11.178   7.918  0.0346 -0.0661  0.3089
  943MOL0     C27192   5.226  11.022   7.898  0.4700 -0.0018 -0.1569
  943MOL0     C27193   5.089  10.961   7.885 -0.3596  0.5050 -0.1470
  943MOL0     O27194   5.005  10.962   8.001 -0.3528 -0.3039  0.0138
  943MOL0     C27195   4.880  10.909   7.998  0.5870  0.0760  0.0987
  943MOL0     C27196   4.803  10.871   7.889 -0.6015  0.1271  0.9713
  943MOL0     C27197   4.668  10.828   7.889 -0.6507  0.3318 -0.6661
  943MOL0     C27198   4.604  10.803   7.760  0.3784  0.1157  1.7422
  943MOL0     C27199   4.611  10.789   8.016 -0.9035  0.6522 -0.3090
  943MOL0     C27200   4.481  10.719   8.036 -0.3307  0.7505 -0.2036
  943MOL0     O27201   4.457  10.615   7.947 -0.1523 -0.6262  0.1755
  943MOL0     C27202   4.339  10.562   7.964  0.5272  0.5975 -0.4968
  943MOL0     C27203   4.328  10.423   7.978  1.1100  0.2195 -0.2925
  943MOL0     C27204   4.208  10.359   7.960 -0.5702  0.2566  0.0959
  943MOL0     C27205   4.086  10.431   7.933 -0.4205 -0.1696 -0.5477
  943MOL0     O27206   3.956  10.388   7.941  0.0221  0.4747  0.2364
  943MOL0     C27207   3.942  10.248   7.924 -0.3318 -0.5744  0.3381
  943MOL0     C27208   3.797  10.203   7.934 -0.6057 -0.6483 -0.2104
  943MOL0     C27209   3.740  10.252   8.071  0.4170 -0.1791 -0.4662
  943MOL0     C27210   3.589  10.241   8.097  0.0233 -0.7713  0.5734
  943MOL0     C27211   3.544  10.093   8.105 -0.6544 -0.1056 -1.3704
  943MOL0     C27212   3.394  10.094   8.137 -0.5938  0.4634 -0.2780
  943MOL0     C27213   3.344   9.960   8.196  0.0960 -0.1699 -1.0264
  943MOL0     C27214   3.391   9.828   8.130 -0.4469 -0.7353 -0.4721
  943MOL0    Cl27215   3.276   9.697   8.177  0.1515  0.0875 -0.3427
  943MOL0     C27216   4.107  10.565   7.918 -0.7126  0.6266  0.2676
  943MOL0     C27217   4.225  10.638   7.928  0.8881 -0.7123  0.0966
  943MOL0     O27218   4.421  10.743   8.145 -0.2667  0.0445  0.4522
  943MOL0     C27219   4.692  10.812   8.131 -0.1199  1.0936  0.0390
  943MOL0     C27220   4.816  10.880   8.125  0.5088  0.3040 -0.7024
  943MOL0     N27221   5.473  11.260   7.721 -0.1547  0.0603 -0.1604
  943MOL0     N27222   5.591  11.229   7.691  0.5591  0.0191  0.4249
  943MOL0     C27223   6.601  11.166   7.628 -0.3304 -0.8722  0.8673
  943MOL0     C27224   6.711  11.088   7.588  0.0751 -0.1523 -0.0629
  943MOL0     C27225   7.159  11.015   7.563 -0.4119  0.7572  0.0809
  943MOL0     C27226   7.171  10.881   7.588  0.2637  0.2278  0.8135
  943MOL0     C27227   7.292  10.808   7.588  0.5315 -0.4420 -0.1208
  943MOL0     C27228   7.408  10.877   7.544  0.7986 -1.1544  0.2656
  943MOL0     O27229   7.523  10.810   7.536  0.0672  0.6361 -0.0865
  943MOL0     C27230   7.597  10.813   7.665 -0.0739  0.2163 -0.0694
  943MOL0     C27231   7.736  10.753   7.641  0.4698 -0.2431 -0.1042
  943MOL0     C27232   7.734  10.605   7.593  0.5874 -0.0873  1.1965
  943MOL0     C27233   7.726  10.586   7.446 -0.8640  0.3058  0.0089
  943MOL0     C27234   7.848  10.647   7.383  0.7447  0.4987 -0.4468
  943MOL0     C27235   7.933  10.705   7.326  0.3357 -0.4598  0.2630
  943MOL0     C27236   7.399  11.006   7.499  0.5233 -0.2010  0.8879
  943MOL0     C27237   7.270  11.073   7.501 -0.2757  0.0142  1.5761
  943MOL0     H27238   6.855  11.085   7.897  2.4118 -1.0284 -1.5989
  943MOL0     H27239   6.675  11.224   7.954  1.5948  1.3032  0.0374
  943MOL0     H27240   6.458  11.271   7.993 -2.4791 -0.4430 -0.6623
  943MOL0     H27241   6.567  11.400   7.927 -0.6640  1.3915  1.5284
  943MOL0     H27242   6.362  11.466   8.033  0.5767 -0.8697 -0.6372
  943MOL0     H27243   6.361  11.513   7.853 -1.2846  0.0875 -1.6018
  943MOL0     H27244   6.199  11.344   7.804  1.3308 -1.3587  0.4580
  943MOL0     H27245   6.215  11.291   7.971  1.8620  0.6924  2.7601
  943MOL0     H27246   6.143  11.538   8.029  2.7737 -0.3248  0.2653
  943MOL0     H27247   6.087  11.543   7.866  0.7678  1.2029  1.1131
  943MOL0     H27248   6.000  11.324   8.082 -3.2537  2.1432  3.1552
  943MOL0     H27249   5.914  11.462   8.040  1.1416  0.2482  1.0156
  943MOL0     H27250   5.786  11.352   7.891  0.6648  0.6864  0.8401
  943MOL0     H27251   5.919  11.368   7.780 -2.8550  1.1359 -0.3592
  943MOL0     H27252   5.982  11.138   7.831  0.7681  0.4058  0.6769
  943MOL0     H27253   5.882  11.126   7.975  1.2304 -0.5757  0.8086
  943MOL0     H27254   5.783  10.994   7.813  0.0011  0.4827  4.1207
  943MOL0     H27255   5.823  11.116   7.689 -3.4921 -0.8044 -1.3244
  943MOL0     H27256   5.575  11.097   7.990  0.9977  1.0965  0.3642
  943MOL0     H27257   5.370  11.240   8.050  0.6976  1.2471 -0.1007
  943MOL0     H27258   5.316  11.356   7.931  0.4182 -0.0686  0.5398
  943MOL0     H27259   5.164  11.223   7.829 -0.3126 -0.3697  0.3227
  943MOL0     H27260   5.137  11.208   7.995 -1.9033 -0.7074 -1.1566
  943MOL0     H27261   5.277  10.985   7.988  0.7102  2.6537  0.9116
  943MOL0     H27262   5.288  10.993   7.813 -0.6678 -0.1531 -0.9621
  943MOL0     H27263   5.113  10.857   7.861  0.3171  0.3219  1.2250
  943MOL0     H27264   5.038  11.012   7.802  0.6233  1.4281 -0.2023
  943MOL0     H27265   4.850  10.889   7.792 -0.3930  1.2459  1.2604
  943MOL0     H27266   4.642  10.719   7.701  1.4228 -0.4998  3.2251
  943MOL0     H27267   4.496  10.791   7.769  0.0253 -1.7109 -2.5117
  943MOL0     H27268   4.615  10.893   7.699  1.6692 -1.3494 -0.3274
  943MOL0     H27269   4.418  10.372   8.009  1.4395  0.8869 -0.1194
  943MOL0     H27270   4.210  10.250   7.968  1.1882  0.2329 -0.2707
  943MOL0     H27271   3.963  10.228   7.819 -2.8754 -1.0933 -0.1304
  943MOL0     H27272   4.009  10.190   7.989  0.9686  2.3061  1.7513
  943MOL0     H27273   3.738  10.237   7.848 -2.1074 -0.2524  0.9445
  943MOL0     H27274   3.792  10.093   7.928  2.2916 -1.0110  2.0456
  943MOL0     H27275   3.770  10.355   8.093  3.3435 -1.4332  2.3633
  943MOL0     H27276   3.785  10.199   8.156 -1.8725  1.1211  1.7021
  943MOL0     H27277   3.557  10.301   8.183  0.1604  0.5311 -0.2620
  943MOL0     H27278   3.541  10.287   8.011  2.5634 -0.8816 -1.0162
  943MOL0     H27279   3.597  10.045   8.188  0.8756  1.5579 -1.3075
  943MOL0     H27280   3.570  10.039   8.014 -0.4322 -0.2300 -1.2336
  943MOL0     H27281   3.376  10.170   8.214  1.9135 -0.7202  1.6386
  943MOL0     H27282   3.347  10.115   8.041  2.2239  0.7888 -1.6845
  943MOL0     H27283   3.235   9.961   8.198 -0.0706  0.6103  4.2180
  943MOL0     H27284   3.385   9.958   8.298 -0.3921  2.4894 -0.6860
  943MOL0     H27285   3.490   9.799   8.165 -1.1157 -1.1449  1.1845
  943MOL0     H27286   3.397   9.850   8.023 -0.5853  0.9861 -0.1576
  943MOL0     H27287   4.016  10.618   7.894 -1.4994 -1.1687 -0.9631
  943MOL0     H27288   4.236  10.741   7.893 -3.0851  0.8113  2.7105
  943MOL0     H27289   4.660  10.769   8.225 -1.5966  0.4267 -0.7333
  943MOL0     H27290   4.861  10.935   8.207 -0.9555  2.9226 -1.5358
  943MOL0     H27291   6.526  11.184   7.552 -0.4080 -2.3003  0.5729
  943MOL0     H27292   6.722  11.051   7.487 -0.1365  1.9263 -0.9089
  943MOL0     H27293   7.085  10.823   7.621  1.6279 -0.7399  2.9404
  943MOL0     H27294   7.294  10.708   7.629  1.7507  0.4527  2.1792
  943MOL0     H27295   7.608  10.915   7.702  0.3416  0.2728 -0.3358
  943MOL0     H27296   7.543  10.756   7.741 -3.0431  1.0719 -1.4171
  943MOL0     H27297   7.798  10.753   7.731  3.8334  1.4105 -2.2162
  943MOL0     H27298   7.796  10.821   7.581  0.3940  1.5688  1.7420
  943MOL0     H27299   7.634  10.569   7.620  1.3527 -1.6892  1.9899
  943MOL0     H27300   7.813  10.545   7.639  1.5831 -0.3206 -0.7215
  943MOL0     H27301   7.641  10.641   7.405 -0.6649  0.1931 -0.5777
  943MOL0     H27302   7.714  10.479   7.426 -0.7002 -0.2693  2.7027
  943MOL0     H27303   8.008  10.771   7.289 -2.3536  1.4820 -2.2418
  943MOL0     H27304   7.488  11.043   7.449  0.5430 -2.8021 -1.1780
  943MOL0     H27305   7.273  11.173   7.457 -0.1601 -0.4648  0.4443
  944MOL0     O27306  11.066   9.834  11.338 -0.9720 -0.2200  0.3401
  944MOL0     C27307  11.112   9.949  11.321  0.5856  0.0107 -0.4178
  944MOL0     O27308  11.234   9.991  11.357 -0.4643 -0.2735  0.4767
  944MOL0     C27309  11.313   9.893  11.419 -1.0782  0.4571 -0.0325
  944MOL0     C27310  11.373   9.801  11.337  0.3119 -0.6165  0.9052
  944MOL0     C27311  11.429   9.681  11.389 -1.1606  0.0428  0.1659
  944MOL0     C27312  11.440   9.668  11.519 -0.0848 -0.1828 -0.7201
  944MOL0     O27313  11.484   9.555  11.578 -0.8590 -0.3957  0.3827
  944MOL0     C27314  11.578   9.477  11.523  0.0865  0.0744 -0.9668
  944MOL0     C27315  11.519   9.336  11.504  0.4508 -1.3142  0.9576
  944MOL0     C27316  11.616   9.226  11.544  0.3518 -0.1680  0.5296
  944MOL0     C27317  11.549   9.089  11.547 -0.0886 -0.7964 -0.5004
  944MOL0     C27318  11.633   8.972  11.608 -0.4529  0.7179  0.9237
  944MOL0     C27319  11.549   8.847  11.601  0.7882 -0.4694 -0.1210
  944MOL0     C27320  11.619   8.720  11.646 -0.5035 -0.2557  0.2046
  944MOL0     C27321  11.546   8.585  11.623  0.0344 -0.0764  0.8326
  944MOL0     N27322  11.459   8.546  11.730 -0.1381 -0.6484 -0.6049
  944MOL0     C27323  11.336   8.598  11.756 -0.0938 -0.4841  0.5670
  944MOL0     C27324  11.299   8.556  11.873  0.4032  0.1424 -0.1132
  944MOL0     C27325  11.194   8.605  11.967 -0.0651 -0.4727 -1.1855
  944MOL0     C27326  11.060   8.561  11.918  0.5351 -0.4170 -0.2020
  944MOL0     C27327  10.948   8.631  11.991  0.7142  0.0361 -0.2976
  944MOL0     C27328  10.801   8.588  11.940 -0.3481  0.5986 -0.6622
  944MOL0     O27329  10.761   8.623  11.802  0.2719 -0.4895 -0.7657
  944MOL0     C27330  10.744   8.756  11.770 -0.0784  0.6614  0.6121
  944MOL0     C27331  10.763   8.794  11.639  0.1342  0.2755 -0.6388
  944MOL0     C27332  10.743   8.931  11.601  0.1736  0.5270  0.3694
  944MOL0     C27333  10.759   8.964  11.448 -0.6748  0.0967 -0.1421
  944MOL0     C27334  10.687   9.028  11.695 -0.2129  0.0490 -0.1763
  944MOL0     C27335  10.651   9.165  11.663 -0.4987  0.2275  0.0804
  944MOL0     O27336  10.684   9.256  11.758  0.0354  0.4826 -0.4476
  944MOL0     C27337  10.620   9.376  11.778 -0.5065  0.3066  0.0237
  944MOL0     C27338  10.683   9.463  11.865 -0.6426 -0.3335  0.1858
  944MOL0     C27339  10.609   9.583  11.908 -0.1211 -0.3511  0.1640
  944MOL0     C27340  10.483   9.621  11.851  1.1518  0.0328 -0.0573
  944MOL0     O27341  10.401   9.720  11.893 -0.3412  0.3508 -0.1364
  944MOL0     C27342  10.444   9.783  12.017  0.3865 -0.0242  0.5891
  944MOL0     C27343  10.345   9.893  12.058 -0.3857  0.3450  0.4393
  944MOL0     C27344  10.330  10.003  11.945 -0.1954 -0.0192 -0.4099
  944MOL0     C27345  10.245   9.944  11.835  0.4576 -0.9438  0.6493
  944MOL0     C27346  10.180  10.068  11.754 -0.1314  0.3660 -0.1518
  944MOL0     C27347  10.286  10.146  11.681 -0.1438 -0.2965  0.3489
  944MOL0     C27348  10.222  10.242  11.584 -0.0458  0.7184  0.5116
  944MOL0     C27349  10.161  10.368  11.647  0.0993  0.7836  0.6088
  944MOL0    Cl27350  10.287  10.425  11.759  0.3240  0.1110  0.1600
  944MOL0     C27351  10.438   9.537  11.743  0.9658  0.2785 -0.6092
  944MOL0     C27352  10.509   9.420  11.714  0.3270  0.5645  0.7192
  944MOL0     O27353  10.590   9.185  11.555 -0.0789  0.3127 -0.2312
  944MOL0     C27354  10.666   8.978  11.819  0.2263 -0.0751  0.3573
  944MOL0     C27355  10.705   8.848  11.862  1.1000 -0.8400  1.3150
  944MOL0     N27356  11.397   8.463  11.915 -0.1112 -0.5652  0.2550
  944MOL0     N27357  11.491   8.455  11.822  0.9184 -0.7687 -0.2880
  944MOL0     C27358  11.406   9.779  11.602 -0.5603  0.0172 -0.5878
  944MOL0     C27359  11.350   9.893  11.557 -0.1783  0.1024  0.4831
  944MOL0     C27360  11.023  10.042  11.257 -1.5809  0.4526  0.8020
  944MOL0     C27361  10.891  10.009  11.229  1.0269  0.1557 -0.0542
  944MOL0     C27362  10.809  10.096  11.166  0.5128 -0.1274 -0.2327
  944MOL0     C27363  10.854  10.216  11.115  0.3075  0.8223  0.4378
  944MOL0     O27364  10.775  10.313  11.060  0.2824 -0.3029  0.2497
  944MOL0     C27365  10.641  10.320  11.119  0.3640 -0.3241 -1.0144
  944MOL0     C27366  10.553  10.439  11.065 -0.1885  0.3033  0.3900
  944MOL0     C27367  10.507  10.412  10.926  0.6571  0.2045 -0.5997
  944MOL0     C27368  10.373  10.478  10.884  0.2774 -0.3208 -0.1759
  944MOL0     C27369  10.373  10.626  10.897 -0.2144 -0.7748 -0.4697
  944MOL0     C27370  10.366  10.746  10.881  0.7525  0.4034  0.3851
  944MOL0     C27371  10.986  10.254  11.146 -0.8904 -0.7727 -0.1255
  944MOL0     C27372  11.076  10.171  11.211 -0.0680  0.4804  0.1241
  944MOL0     H27373  11.371   9.846  11.238 -0.6807  1.1310  1.6785
  944MOL0     H27374  11.464   9.604  11.321 -1.5637  0.7370 -0.8626
  944MOL0     H27375  11.618   9.511  11.427  0.3747  0.1592 -0.8194
  944MOL0     H27376  11.666   9.469  11.587 -1.1308 -2.4107  0.5331
  944MOL0     H27377  11.426   9.335  11.562  0.3393  0.3030  0.8467
  944MOL0     H27378  11.496   9.325  11.398  3.2485  1.3996 -0.0824
  944MOL0     H27379  11.698   9.226  11.472  0.1844 -0.4354  0.3376
  944MOL0     H27380  11.652   9.241  11.646 -1.6061  1.1050  1.0843
  944MOL0     H27381  11.449   9.086  11.590 -0.2942 -1.8057 -1.0103
  944MOL0     H27382  11.527   9.057  11.444  0.4913 -0.6469 -0.6713
  944MOL0     H27383  11.726   8.949  11.555 -2.5883 -3.9633 -1.3164
  944MOL0     H27384  11.655   8.984  11.715 -0.8923  0.6870  1.0177
  944MOL0     H27385  11.459   8.862  11.662  1.7752  2.5029  0.8062
  944MOL0     H27386  11.508   8.837  11.500 -0.7265  0.4409  0.3640
  944MOL0     H27387  11.717   8.716  11.597  0.7796 -2.5859  2.6924
  944MOL0     H27388  11.629   8.727  11.755 -1.8627 -3.0499  0.5997
  944MOL0     H27389  11.613   8.499  11.612 -1.7240 -1.2523 -1.6336
  944MOL0     H27390  11.495   8.585  11.527  0.2031  1.6995  0.7092
  944MOL0     H27391  11.295   8.668  11.684  2.4270 -0.5372 -1.0028
  944MOL0     H27392  11.203   8.563  12.067 -1.7393  0.4252 -0.6241
  944MOL0     H27393  11.198   8.714  11.966 -2.3256 -0.3540 -1.3949
  944MOL0     H27394  11.045   8.453  11.926 -3.0004 -0.1238 -1.0367
  944MOL0     H27395  11.045   8.596  11.815  1.4631  1.4453  0.2572
  944MOL0     H27396  10.967   8.736  11.966  4.9196 -0.6428 -0.6575
  944MOL0     H27397  10.958   8.630  12.100  1.3809 -0.5802 -0.3578
  944MOL0     H27398  10.733   8.621  12.018  0.6441  2.1375 -0.4145
  944MOL0     H27399  10.789   8.480  11.955 -2.7759  0.8699 -0.3617
  944MOL0     H27400  10.788   8.715  11.568 -1.1605 -2.1100  1.4165
  944MOL0     H27401  10.829   8.904  11.390 -2.0269  0.0496 -1.7919
  944MOL0     H27402  10.661   8.949  11.404  0.3261 -2.1517 -1.7844
  944MOL0     H27403  10.790   9.069  11.442 -0.5546  0.1351  0.8250
  944MOL0     H27404  10.782   9.441  11.903 -0.1725 -0.5036 -1.0868
  944MOL0     H27405  10.647   9.652  11.982  0.4232  0.4085 -0.8101
  944MOL0     H27406  10.430   9.708  12.095  1.1433 -1.3682 -0.5126
  944MOL0     H27407  10.546   9.823  12.018 -0.9013  3.8088 -1.4362
  944MOL0     H27408  10.252   9.839  12.078 -0.0574 -1.4830 -2.3666
  944MOL0     H27409  10.389   9.943  12.145 -0.3431 -2.2473  2.0345
  944MOL0     H27410  10.428  10.032  11.908  1.3658 -1.0757  2.5590
  944MOL0     H27411  10.271  10.078  11.999 -0.2668  1.0844 -1.9702
  944MOL0     H27412  10.312   9.894  11.764  3.1481  0.4698  2.0354
  944MOL0     H27413  10.157   9.886  11.863 -0.4875 -2.2944 -4.1343
  944MOL0     H27414  10.126  10.131  11.824 -0.7910 -1.0291  0.6468
  944MOL0     H27415  10.109  10.031  11.679 -1.5638  2.2164  0.2354
  944MOL0     H27416  10.351  10.194  11.755 -0.6231  0.4044  0.3182
  944MOL0     H27417  10.354  10.073  11.636  0.0417  1.3764 -2.2666
  944MOL0     H27418  10.150  10.193  11.519 -0.0227  0.6100  0.5680
  944MOL0     H27419  10.307  10.276  11.525  1.3627 -2.3770  0.5637
  944MOL0     H27420  10.061  10.354  11.688  0.8837  1.2695  2.7928
  944MOL0     H27421  10.154  10.437  11.563  1.6450 -0.3565 -0.5264
  944MOL0     H27422  10.340   9.546  11.698  0.1095 -2.2028  0.5502
  944MOL0     H27423  10.461   9.359  11.638  1.9645  0.3489 -0.1815
  944MOL0     H27424  10.622   9.039  11.897  1.0001  2.2950 -0.9449
  944MOL0     H27425  10.689   8.831  11.968 -0.0829  2.2442  1.7332
  944MOL0     H27426  11.412   9.763  11.709  0.6341  0.0563 -0.6456
  944MOL0     H27427  11.304   9.973  11.615 -3.0867 -1.9920  1.2644
  944MOL0     H27428  10.857   9.907  11.246 -1.3068  0.9636  0.4804
  944MOL0     H27429  10.708  10.056  11.160  0.5084 -0.4043  1.3128
  944MOL0     H27430  10.580  10.230  11.111 -1.3692  0.8029 -0.8076
  944MOL0     H27431  10.639  10.331  11.228  1.7322 -3.3135 -0.5865
  944MOL0     H27432  10.608  10.534  11.066 -2.8227  1.9512 -0.7788
  944MOL0     H27433  10.457  10.452  11.117 -1.1215 -2.2619 -0.5434
  944MOL0     H27434  10.498  10.304  10.917  1.1353  0.1836 -0.8730
  944MOL0     H27435  10.583  10.426  10.849 -0.1622  1.8371 -1.1586
  944MOL0     H27436  10.292  10.431  10.940 -0.0180  2.5489  2.0838
  944MOL0     H27437  10.348  10.450  10.781 -2.8841  2.6268 -0.3980
  944MOL0     H27438  10.353  10.852  10.893 -1.6360  0.0871  1.2043
  944MOL0     H27439  11.026  10.353  11.125 -1.0274 -0.4503  1.0759
  944MOL0     H27440  11.173  10.219  11.219 -0.4351  0.9682  2.4694
  945MOL0     O27441   2.048   5.558   9.977  0.2768  0.6875  0.0703
  945MOL0     C27442   2.161   5.600   9.953  0.6392  0.8072  0.6366
  945MOL0     O27443   2.188   5.669   9.842  0.0853  0.6464 -0.1348
  945MOL0     C27444   2.114   5.674   9.731  0.0161  0.2760 -0.2160
  945MOL0     C27445   2.017   5.570   9.699 -0.4249  0.0324  0.0444
  945MOL0     C27446   1.952   5.568   9.576 -0.0947 -0.1833 -0.4103
  945MOL0     C27447   1.987   5.671   9.488  0.4807 -0.5583  0.7059
  945MOL0     O27448   1.928   5.697   9.368 -0.2375 -0.7033 -0.0655
  945MOL0     C27449   1.788   5.689   9.345 -1.0574  0.5102  0.1912
  945MOL0     C27450   1.728   5.760   9.229  0.4677 -0.0424  0.2212
  945MOL0     C27451   1.802   5.721   9.099  0.3353 -0.7835  0.7624
  945MOL0     C27452   1.762   5.582   9.053  0.7841 -0.5848 -0.5099
  945MOL0     C27453   1.786   5.570   8.899 -0.6452 -0.8312  0.1431
  945MOL0     C27454   1.773   5.425   8.857  0.0315  0.8112  0.7064
  945MOL0     C27455   1.805   5.410   8.705  0.7277  0.5815 -0.1501
  945MOL0     C27456   1.798   5.258   8.663  0.2958  0.1435 -0.9870
  945MOL0     N27457   1.891   5.234   8.549  0.1649 -0.2773 -0.3326
  945MOL0     C27458   1.860   5.224   8.418  1.2153 -0.1116  0.0117
  945MOL0     C27459   1.970   5.184   8.352 -0.0022  0.4353 -1.0471
  945MOL0     C27460   1.981   5.157   8.209 -0.5575 -0.5035 -0.3663
  945MOL0     C27461   1.938   5.279   8.127 -0.1630 -0.0597 -0.0378
  945MOL0     C27462   1.924   5.243   7.973 -0.1393  0.9576  0.4305
  945MOL0     C27463   1.790   5.180   7.940 -0.7525 -0.3865  0.0742
  945MOL0     O27464   1.694   5.285   7.964 -0.0940  0.4480 -0.4910
  945MOL0     C27465   1.571   5.274   7.908 -0.4522  0.4531  0.3542
  945MOL0     C27466   1.560   5.306   7.777 -0.5813 -1.0761 -0.4942
  945MOL0     C27467   1.448   5.278   7.709  0.6993  0.4123  0.2629
  945MOL0     C27468   1.454   5.302   7.559  0.2672 -0.5257  0.3489
  945MOL0     C27469   1.336   5.221   7.769 -0.2993 -0.0041 -0.8237
  945MOL0     C27470   1.203   5.189   7.705  0.4124  0.3308 -0.4758
  945MOL0     O27471   1.111   5.110   7.776  0.6329  0.1332 -0.0651
  945MOL0     C27472   0.997   5.072   7.714  0.1194  0.7965 -0.7986
  945MOL0     C27473   0.878   5.128   7.765  0.5292 -0.8055  0.3154
  945MOL0     C27474   0.758   5.078   7.711  1.7230  1.0968 -0.6353
  945MOL0     C27475   0.766   4.983   7.611  1.2872  0.1674 -0.0280
  945MOL0     O27476   0.654   4.934   7.545  0.0045 -0.2875  0.3241
  945MOL0     C27477   0.565   5.041   7.491 -0.1089 -0.0341 -0.5800
  945MOL0     C27478   0.432   5.047   7.573  0.9585 -0.0487 -0.2454
  945MOL0     C27479   0.309   5.061   7.481 -0.6916 -0.0573  0.2322
  945MOL0     C27480   0.184   5.045   7.565 -0.5224 -0.3549 -0.1014
  945MOL0     C27481   0.057   5.051   7.480 -0.3456 -0.1823 -0.1784
  945MOL0     C27482  -0.066   5.006   7.556 -0.6148  0.6372 -0.9608
  945MOL0     C27483  -0.201   5.085   7.536  0.4729  0.6421  0.6762
  945MOL0     C27484  -0.188   5.216   7.609  0.7193  0.6198 -0.0329
  945MOL0    Cl27485  -0.191   5.352   7.503 -0.3371  0.2447  0.4093
  945MOL0     C27486   0.883   4.949   7.555 -0.0435 -0.0760 -0.4611
  945MOL0     C27487   1.000   4.978   7.614 -0.4042 -0.0925 -0.5045
  945MOL0     O27488   1.187   5.234   7.593  0.2440 -0.0154 -0.0394
  945MOL0     C27489   1.341   5.216   7.911 -0.1647  0.3236 -0.0570
  945MOL0     C27490   1.460   5.218   7.975 -0.0712  0.2284  0.0927
  945MOL0     N27491   2.072   5.162   8.439  0.0387  0.0224  0.8769
  945MOL0     N27492   2.022   5.194   8.556  1.0595  0.0970 -0.2706
  945MOL0     C27493   2.086   5.761   9.518 -0.4386 -0.9434 -0.0025
  945MOL0     C27494   2.151   5.771   9.639  0.4805 -0.2013 -0.3213
  945MOL0     C27495   2.266   5.571  10.047  1.1444  0.9122  0.5862
  945MOL0     C27496   2.238   5.487  10.164  0.9628 -1.2920  0.0016
  945MOL0     C27497   2.339   5.461  10.252 -0.2098  0.3975  0.6560
  945MOL0     C27498   2.473   5.502  10.228  1.0417  0.4928 -0.1492
  945MOL0     O27499   2.566   5.457  10.319  0.0437 -0.3947  0.4955
  945MOL0     C27500   2.708   5.483  10.290 -0.7164  0.0308 -0.3588
  945MOL0     C27501   2.817   5.449  10.396 -0.2272  0.7645 -0.1924
  945MOL0     C27502   2.798   5.317  10.457 -0.3301  0.4132 -1.1738
  945MOL0     C27503   2.922   5.259  10.532  0.1246 -0.2548  0.7079
  945MOL0     C27504   2.888   5.177  10.645 -0.4597 -0.9744 -0.0011
  945MOL0     C27505   2.881   5.107  10.747 -0.3771 -0.5559  0.1275
  945MOL0     C27506   2.499   5.577  10.111 -0.1256  0.1964 -0.5538
  945MOL0     C27507   2.394   5.616  10.026 -0.3382 -0.2590 -0.2161
  945MOL0     H27508   1.985   5.489   9.764  0.8586  0.6437  1.5098
  945MOL0     H27509   1.892   5.480   9.558 -0.2822 -1.1219  3.7699
  945MOL0     H27510   1.761   5.583   9.341 -1.6762  0.5829  1.9904
  945MOL0     H27511   1.744   5.726   9.438 -0.4420 -3.0350  2.0700
  945MOL0     H27512   1.625   5.721   9.227  0.2004  0.6013  0.8567
  945MOL0     H27513   1.722   5.868   9.248 -0.7962  0.6764 -3.5347
  945MOL0     H27514   1.769   5.793   9.023 -0.0676 -1.5873  0.1601
  945MOL0     H27515   1.910   5.737   9.109  0.3540 -0.6919  0.4478
  945MOL0     H27516   1.828   5.511   9.104  0.2866  2.0373  4.3552
  945MOL0     H27517   1.664   5.555   9.092  0.7848  1.3982  1.0122
  945MOL0     H27518   1.713   5.633   8.848  1.5598  1.3149 -0.5846
  945MOL0     H27519   1.880   5.608   8.856 -1.0057 -1.3440 -1.1614
  945MOL0     H27520   1.847   5.363   8.908  1.0164 -0.3752 -1.9627
  945MOL0     H27521   1.669   5.390   8.864 -0.7052  1.6033 -3.4587
  945MOL0     H27522   1.735   5.469   8.645  0.6243 -0.6641 -1.2950
  945MOL0     H27523   1.906   5.449   8.684  1.2378 -0.4137  0.3986
  945MOL0     H27524   1.698   5.230   8.630  0.8008 -1.2381 -1.4202
  945MOL0     H27525   1.817   5.188   8.745  2.7195  0.0489 -1.5422
  945MOL0     H27526   1.763   5.248   8.376  1.0393 -1.1253 -0.1784
  945MOL0     H27527   2.082   5.133   8.175 -0.8222 -0.3684 -1.2870
  945MOL0     H27528   1.915   5.076   8.176  1.5394 -1.3514 -2.8734
  945MOL0     H27529   2.006   5.365   8.125 -1.1607  0.7501 -0.9891
  945MOL0     H27530   1.850   5.329   8.169  0.0379  2.3297 -2.2061
  945MOL0     H27531   1.999   5.169   7.943 -2.1936 -1.0212 -0.1696
  945MOL0     H27532   1.941   5.329   7.908  1.2444 -0.0823 -0.6460
  945MOL0     H27533   1.775   5.093   8.004  0.1397  1.7537  3.4560
  945MOL0     H27534   1.785   5.141   7.838 -0.9801 -5.4863  1.7692
  945MOL0     H27535   1.643   5.358   7.731 -0.7298 -0.6675 -0.2997
  945MOL0     H27536   1.505   5.220   7.507  4.4113  1.6274  0.5920
  945MOL0     H27537   1.364   5.347   7.516  0.5091  0.4170  0.7978
  945MOL0     H27538   1.526   5.385   7.559  0.0403 -0.3202 -0.3278
  945MOL0     H27539   0.862   5.197   7.847  1.2566 -1.1190  0.7266
  945MOL0     H27540   0.659   5.107   7.742  0.6011 -1.7417 -1.2825
  945MOL0     H27541   0.617   5.137   7.500 -2.3039  1.3569 -1.5947
  945MOL0     H27542   0.545   5.028   7.384  2.2988 -0.2658 -1.0511
  945MOL0     H27543   0.430   4.958   7.637  3.0781  0.3750  0.4910
  945MOL0     H27544   0.427   5.131   7.643  0.1352  0.9354 -1.4302
  945MOL0     H27545   0.314   4.998   7.392 -1.3987 -0.0371  0.1729
  945MOL0     H27546   0.320   5.164   7.445 -0.7427  0.2222  1.0047
  945MOL0     H27547   0.179   4.953   7.624 -1.1060 -0.9519 -1.0602
  945MOL0     H27548   0.185   5.130   7.635  2.7323  0.3783 -0.8972
  945MOL0     H27549   0.073   4.999   7.385  0.7433  1.5116 -0.9538
  945MOL0     H27550   0.053   5.156   7.451  0.9022 -0.4425 -1.4197
  945MOL0     H27551  -0.071   4.902   7.523  2.7367 -0.0302  0.2449
  945MOL0     H27552  -0.054   5.007   7.664 -1.9193 -0.5363 -0.7827
  945MOL0     H27553  -0.276   5.018   7.579 -1.2589  1.5405 -0.8295
  945MOL0     H27554  -0.219   5.104   7.430  3.2262  3.6290  0.5686
  945MOL0     H27555  -0.107   5.226   7.681  0.5415 -0.9168  0.4040
  945MOL0     H27556  -0.279   5.221   7.670  1.0440  1.1691  0.4046
  945MOL0     H27557   0.872   4.882   7.470  2.5461 -0.8092 -0.3177
  945MOL0     H27558   1.095   4.936   7.584  0.7068  0.7786  1.5712
  945MOL0     H27559   1.261   5.173   7.971  0.5202  0.3198  0.8663
  945MOL0     H27560   1.464   5.205   8.083  1.6159 -2.3229 -0.2036
  945MOL0     H27561   2.106   5.835   9.441  1.4283  0.3612  1.6386
  945MOL0     H27562   2.222   5.850   9.662 -0.1227  0.5103 -0.8607
  945MOL0     H27563   2.144   5.443  10.194  0.2679  1.0889  1.6241
  945MOL0     H27564   2.317   5.405  10.343 -2.2772  1.7977  1.1001
  945MOL0     H27565   2.730   5.414  10.208  3.6171 -0.8113  1.2310
  945MOL0     H27566   2.715   5.588  10.261 -0.7727  0.4551  1.0899
  945MOL0     H27567   2.818   5.529  10.470  0.4585  0.8231 -0.2565
  945MOL0     H27568   2.912   5.454  10.342 -1.0911 -0.9618 -1.9921
  945MOL0     H27569   2.765   5.255  10.373 -2.5359  0.4328 -0.3805
  945MOL0     H27570   2.713   5.321  10.526  0.8795  0.5046  0.3585
  945MOL0     H27571   2.973   5.350  10.565 -2.0864  0.6584  1.8966
  945MOL0     H27572   2.978   5.198  10.461  1.9632  0.3387  1.5900
  945MOL0     H27573   2.870   5.043  10.832  1.7066  1.0635  1.7108
  945MOL0     H27574   2.600   5.611  10.087  1.0911 -2.3096  0.5842
  945MOL0     H27575   2.417   5.681   9.942  0.2863  1.3529  1.1481
  946MOL0     O27576  10.661   5.263   1.276  0.3591  0.8147  0.2930
  946MOL0     C27577  10.668   5.299   1.393  0.5506 -0.7104  0.0500
  946MOL0     O27578  10.565   5.340   1.473  0.1580  0.1222 -0.3937
  946MOL0     C27579  10.449   5.371   1.414  0.4220 -0.4939  1.2288
  946MOL0     C27580  10.389   5.487   1.461 -0.7019 -0.2278 -0.2094
  946MOL0     C27581  10.253   5.511   1.430  0.2311 -0.0064  0.2230
  946MOL0     C27582  10.187   5.433   1.339 -0.6026  0.5629  0.1421
  946MOL0     O27583  10.051   5.461   1.325  0.2284 -0.1923  0.3704
  946MOL0     C27584  10.003   5.454   1.195  0.3327  0.0670 -1.0117
  946MOL0     C27585   9.857   5.501   1.206 -0.4382 -0.0041 -0.0642
  946MOL0     C27586   9.763   5.396   1.141 -0.0387 -0.1927  0.2648
  946MOL0     C27587   9.612   5.416   1.160 -0.2778 -0.7916  0.5786
  946MOL0     C27588   9.528   5.303   1.100  0.7322 -0.2273 -0.8730
  946MOL0     C27589   9.377   5.343   1.083  0.6212 -1.3826 -0.0422
  946MOL0     C27590   9.278   5.247   1.033 -0.3758  0.6556  0.3380
  946MOL0     C27591   9.134   5.302   1.018 -0.2083  0.8364 -0.1152
  946MOL0     N27592   9.078   5.324   1.151 -0.1711  0.5159 -0.2522
  946MOL0     C27593   9.083   5.434   1.234 -0.3502 -0.8319  0.4444
  946MOL0     C27594   8.998   5.411   1.330  0.3582  0.3494 -1.1958
  946MOL0     C27595   8.967   5.506   1.440 -0.0009  0.8461 -0.5616
  946MOL0     C27596   8.832   5.575   1.406 -0.2969  0.0817 -0.2438
  946MOL0     C27597   8.805   5.684   1.503  0.2979  0.2299  0.2645
  946MOL0     C27598   8.674   5.755   1.442 -0.3564  0.4516 -1.2147
  946MOL0     O27599   8.561   5.672   1.459  0.4774 -0.2668 -0.9918
  946MOL0     C27600   8.488   5.670   1.576 -0.2770  0.6993  0.7072
  946MOL0     C27601   8.534   5.734   1.694  0.2222 -0.4390  0.6051
  946MOL0     C27602   8.471   5.713   1.817  0.1933 -0.8258  0.9153
  946MOL0     C27603   8.531   5.797   1.927  1.2119  0.4299  0.3058
  946MOL0     C27604   8.365   5.626   1.831 -0.2870 -0.0595  0.4545
  946MOL0     C27605   8.302   5.593   1.963 -0.2335  0.1673  0.9179
  946MOL0     O27606   8.165   5.587   1.973 -0.8440 -0.7142 -0.5180
  946MOL0     C27607   8.092   5.690   1.913 -0.1376 -1.3021  1.1363
  946MOL0     C27608   8.135   5.820   1.921 -0.3183  0.0380 -0.0487
  946MOL0     C27609   8.043   5.920   1.886  0.5791 -0.0551  0.0940
  946MOL0     C27610   7.908   5.891   1.839  0.6943 -0.0663 -0.5980
  946MOL0     O27611   7.817   5.990   1.804  0.1810  0.3616  0.9016
  946MOL0     C27612   7.830   6.102   1.888  0.3683 -0.0298  0.0399
  946MOL0     C27613   7.796   6.092   2.044 -0.5818 -0.2611  0.4509
  946MOL0     C27614   7.640   6.092   2.071  0.6577  0.7502 -0.0243
  946MOL0     C27615   7.573   5.969   2.016 -0.9627  0.3222  0.2467
  946MOL0     C27616   7.427   6.002   1.973  0.0101 -0.0826  0.1891
  946MOL0     C27617   7.356   5.867   1.938  0.6915 -0.2943 -0.0386
  946MOL0     C27618   7.208   5.877   1.897 -0.6058 -0.7435  0.0178
  946MOL0     C27619   7.129   5.754   1.948  0.1620  0.2084  0.7236
  946MOL0    Cl27620   6.955   5.761   1.894 -0.7123  0.0934 -0.0919
  946MOL0     C27621   7.870   5.754   1.840 -0.1508  0.0279 -0.6861
  946MOL0     C27622   7.969   5.660   1.865  0.3460  0.6749 -0.6994
  946MOL0     O27623   8.381   5.548   2.049 -0.3343  0.1945 -0.3475
  946MOL0     C27624   8.312   5.564   1.712  0.1401  0.0955 -0.1911
  946MOL0     C27625   8.371   5.585   1.587 -0.5024 -0.8778  0.1100
  946MOL0     N27626   8.943   5.286   1.313 -0.3216  0.9868 -1.0134
  946MOL0     N27627   8.990   5.233   1.206  0.2209  0.4815  0.7094
  946MOL0     C27628  10.246   5.321   1.288  0.2998 -0.0112  0.0857
  946MOL0     C27629  10.376   5.284   1.321  0.1562  0.2713  0.7054
  946MOL0     C27630  10.804   5.300   1.448  0.5453  0.0030 -0.1109
  946MOL0     C27631  10.821   5.351   1.578  0.9454  0.2954 -0.2636
  946MOL0     C27632  10.940   5.346   1.636  0.0605  0.3009  0.2186
  946MOL0     C27633  11.060   5.304   1.577 -0.5676  0.2316 -0.1682
  946MOL0     O27634  11.172   5.285   1.653  0.3168 -0.4573 -0.0534
  946MOL0     C27635  11.304   5.321   1.610 -0.8299 -0.4104 -0.8552
  946MOL0     C27636  11.341   5.451   1.679  0.1095  0.0655  0.1119
  946MOL0     C27637  11.481   5.513   1.645  0.2911  0.6537  0.0824
  946MOL0     C27638  11.514   5.660   1.701  0.8062  0.2691 -0.0738
  946MOL0     C27639  11.505   5.666   1.848 -0.2282  0.2463 -0.1787
  946MOL0     C27640  11.486   5.660   1.968  0.7421  0.1511  0.2841
  946MOL0     C27641  11.052   5.260   1.447  0.0546 -0.7825  0.8255
  946MOL0     C27642  10.922   5.257   1.379  1.0333  1.6011 -0.4818
  946MOL0     H27643  10.444   5.547   1.532 -2.0171  0.1087  0.5661
  946MOL0     H27644  10.210   5.594   1.485  2.5923  0.6852  1.1739
  946MOL0     H27645  10.054   5.531   1.136  3.0468  1.9296  3.2344
  946MOL0     H27646  10.008   5.355   1.149  1.1691  0.4404 -1.7587
  946MOL0     H27647   9.832   5.503   1.313 -0.1467  0.3886 -0.0022
  946MOL0     H27648   9.839   5.596   1.154 -0.9505 -1.6457 -3.1519
  946MOL0     H27649   9.778   5.392   1.033  0.0863 -1.5831  0.3175
  946MOL0     H27650   9.787   5.298   1.183  0.8220 -0.0274  0.1968
  946MOL0     H27651   9.591   5.426   1.267  0.2640  1.0566  0.5551
  946MOL0     H27652   9.587   5.510   1.110 -0.5862 -2.2067 -2.1382
  946MOL0     H27653   9.575   5.277   1.005  2.5784 -0.7188  0.1399
  946MOL0     H27654   9.529   5.214   1.165 -0.4191  0.6084  0.3407
  946MOL0     H27655   9.341   5.385   1.178 -0.0302  1.0515 -1.2762
  946MOL0     H27656   9.365   5.428   1.015  0.9193 -0.4390  1.0427
  946MOL0     H27657   9.312   5.226   0.931 -0.3548  3.0845 -0.2101
  946MOL0     H27658   9.276   5.154   1.089  0.5653  0.3240 -0.1545
  946MOL0     H27659   9.084   5.219   0.967  1.4475 -0.1952 -0.1362
  946MOL0     H27660   9.125   5.386   0.948  0.5677 -0.0882 -1.3709
  946MOL0     H27661   9.143   5.519   1.205 -1.5870 -0.5187 -1.4042
  946MOL0     H27662   8.964   5.444   1.531  0.8636 -0.6242 -1.4837
  946MOL0     H27663   9.048   5.578   1.451  0.1991  0.3496  1.8489
  946MOL0     H27664   8.748   5.506   1.405 -0.1930 -0.0444 -0.4516
  946MOL0     H27665   8.834   5.618   1.305 -3.5719  0.3648 -0.3056
  946MOL0     H27666   8.887   5.754   1.519  0.5817 -0.0945  0.2431
  946MOL0     H27667   8.785   5.645   1.603 -0.8366 -0.4377 -0.2031
  946MOL0     H27668   8.689   5.785   1.338  3.0475  3.5893 -0.0524
  946MOL0     H27669   8.653   5.852   1.488  0.2519  0.8710 -1.7879
  946MOL0     H27670   8.610   5.810   1.691 -0.8194  0.7388  2.3411
  946MOL0     H27671   8.473   5.801   2.020  1.6117 -0.6800  0.6089
  946MOL0     H27672   8.619   5.747   1.967  1.5525  0.7021 -0.0982
  946MOL0     H27673   8.541   5.900   1.891 -0.5520  0.5993  0.1778
  946MOL0     H27674   8.239   5.846   1.939  0.3667 -1.0546 -2.1601
  946MOL0     H27675   8.076   6.020   1.916 -0.2052  0.6898 -1.4262
  946MOL0     H27676   7.925   6.154   1.869 -0.5890  1.6422 -0.3083
  946MOL0     H27677   7.763   6.177   1.845  0.9698  0.9015  0.6947
  946MOL0     H27678   7.842   5.996   2.070 -0.4453 -0.5829 -0.9259
  946MOL0     H27679   7.852   6.172   2.095  0.9181 -0.8592 -0.2062
  946MOL0     H27680   7.597   6.184   2.032 -2.7221  0.4153  2.4637
  946MOL0     H27681   7.620   6.100   2.179 -1.8991 -0.5238 -0.3443
  946MOL0     H27682   7.611   5.937   1.918 -3.2655 -0.4900 -0.4503
  946MOL0     H27683   7.587   5.889   2.088  0.8052  1.2997  1.0530
  946MOL0     H27684   7.429   6.079   1.895  3.9563  0.1005  0.2724
  946MOL0     H27685   7.370   6.054   2.051  0.1940 -0.0698  0.3139
  946MOL0     H27686   7.410   5.814   1.860 -1.4313 -4.2000  0.8735
  946MOL0     H27687   7.365   5.802   2.026  3.8045  0.4989  0.3490
  946MOL0     H27688   7.194   5.883   1.789  1.9136 -2.0480 -0.4667
  946MOL0     H27689   7.167   5.964   1.949 -0.0936 -1.3078  1.4420
  946MOL0     H27690   7.128   5.750   2.057  2.8906 -1.2323  0.7651
  946MOL0     H27691   7.175   5.659   1.918  1.8774 -0.4900  4.9049
  946MOL0     H27692   7.770   5.720   1.816 -0.4260 -0.6608  1.3153
  946MOL0     H27693   7.943   5.555   1.872 -4.7015  1.8128  2.2489
  946MOL0     H27694   8.229   5.495   1.724  0.3790 -0.1766 -0.0915
  946MOL0     H27695   8.325   5.528   1.507 -2.0660  0.1641  0.2249
  946MOL0     H27696  10.196   5.254   1.220 -0.4002  1.2837 -0.7134
  946MOL0     H27697  10.416   5.191   1.282  0.9221  1.3773 -1.3052
  946MOL0     H27698  10.742   5.404   1.629  1.3934  0.2884  0.4575
  946MOL0     H27699  10.951   5.385   1.737 -1.1971  4.0414 -0.8982
  946MOL0     H27700  11.370   5.238   1.636 -1.2215  0.1189  2.2363
  946MOL0     H27701  11.311   5.332   1.502 -3.7967 -1.7041 -1.2814
  946MOL0     H27702  11.342   5.439   1.788  2.8653  1.4001  0.3097
  946MOL0     H27703  11.264   5.523   1.650 -0.9634 -0.2959  1.8822
  946MOL0     H27704  11.485   5.514   1.536  0.2256  1.8420  0.0880
  946MOL0     H27705  11.559   5.447   1.685  1.8112 -0.1017 -3.6721
  946MOL0     H27706  11.435   5.725   1.661 -0.4242 -1.6215 -0.8987
  946MOL0     H27707  11.615   5.680   1.665  1.8944 -1.6289  1.7632
  946MOL0     H27708  11.470   5.675   2.073 -2.1033  0.0016 -0.0423
  946MOL0     H27709  11.133   5.218   1.388  1.7530  3.6512 -0.4159
  946MOL0     H27710  10.899   5.216   1.281 -3.0698 -2.4109  1.7716
  947MOL0     O27711   3.680   2.252   3.426 -0.1077  0.1152  0.6190
  947MOL0     C27712   3.603   2.178   3.488  0.0005 -0.4772  0.3060
  947MOL0     O27713   3.624   2.141   3.619 -0.6960  1.0523 -0.6038
  947MOL0     C27714   3.756   2.160   3.671 -0.1934 -0.3254  0.7346
  947MOL0     C27715   3.788   2.293   3.714  0.0556  0.1880 -0.8521
  947MOL0     C27716   3.921   2.319   3.742  0.2581  0.2004 -0.1593
  947MOL0     C27717   4.021   2.221   3.745 -0.7772 -0.3122  0.3614
  947MOL0     O27718   4.153   2.232   3.772 -0.1503 -0.3381  0.2521
  947MOL0     C27719   4.212   2.368   3.797 -0.3238  0.4330 -0.1398
  947MOL0     C27720   4.226   2.393   3.941 -0.6491 -0.0021  0.2317
  947MOL0     C27721   4.322   2.288   4.011  0.4852 -0.1497  0.1574
  947MOL0     C27722   4.327   2.318   4.163 -0.4831 -0.2082  0.1269
  947MOL0     C27723   4.397   2.203   4.238  0.5715  0.4016 -0.7573
  947MOL0     C27724   4.340   2.179   4.379  0.0486 -0.0679  0.9971
  947MOL0     C27725   4.228   2.077   4.378  0.5311 -0.4496  0.0193
  947MOL0     C27726   4.153   2.040   4.510  0.0831  0.0436 -0.0522
  947MOL0     N27727   4.105   2.167   4.571  0.4103  0.0707 -0.6353
  947MOL0     C27728   3.972   2.220   4.564  0.0849 -0.9820 -0.1667
  947MOL0     C27729   3.989   2.349   4.624 -0.3222 -0.2492 -0.3627
  947MOL0     C27730   3.898   2.460   4.644  0.0877  1.5521 -0.1706
  947MOL0     C27731   3.840   2.520   4.514  0.0505 -0.3060  0.5863
  947MOL0     C27732   3.775   2.665   4.560 -0.4587  0.3949  0.5122
  947MOL0     C27733   3.670   2.728   4.468  0.0134  0.2839 -0.5816
  947MOL0     O27734   3.545   2.662   4.455  0.3769 -0.5707 -0.4911
  947MOL0     C27735   3.446   2.707   4.367 -0.0038  0.0725 -0.8880
  947MOL0     C27736   3.463   2.812   4.277  0.0927  0.6788 -0.9524
  947MOL0     C27737   3.366   2.846   4.185 -0.3695  0.4091 -0.5195
  947MOL0     C27738   3.399   2.968   4.106 -0.4789 -0.4360 -0.1038
  947MOL0     C27739   3.250   2.772   4.175 -0.1949  0.1669 -0.3533
  947MOL0     C27740   3.143   2.792   4.071  0.4041  0.2086 -0.8321
  947MOL0     O27741   3.047   2.705   4.083  0.7286  0.0792  0.0305
  947MOL0     C27742   2.921   2.705   4.025 -0.0927  0.0825 -0.2732
  947MOL0     C27743   2.886   2.760   3.906  0.4848 -0.8612 -0.7918
  947MOL0     C27744   2.753   2.747   3.854 -0.4926 -0.1062 -0.1621
  947MOL0     C27745   2.663   2.659   3.922 -0.0479 -0.5795  0.3257
  947MOL0     O27746   2.539   2.633   3.876  0.7518  0.4381  0.2022
  947MOL0     C27747   2.487   2.723   3.778 -0.4647  0.2279  0.2666
  947MOL0     C27748   2.343   2.706   3.737  0.1613  0.3936  0.0785
  947MOL0     C27749   2.314   2.559   3.713  0.5933  0.7490  0.8332
  947MOL0     C27750   2.163   2.532   3.665 -0.4834 -0.2043 -0.2001
  947MOL0     C27751   2.103   2.397   3.706  0.1232 -0.6662 -0.3027
  947MOL0     C27752   1.968   2.363   3.636  0.0891  0.3933  0.6605
  947MOL0     C27753   1.868   2.462   3.674 -0.1795  0.1777 -0.6532
  947MOL0     C27754   1.733   2.412   3.624  0.1097  0.3047 -0.2743
  947MOL0    Cl27755   1.613   2.529   3.667 -0.1382 -0.0529 -0.5133
  947MOL0     C27756   2.703   2.589   4.030 -0.0314 -0.0939 -0.1600
  947MOL0     C27757   2.832   2.610   4.081  0.5753  0.1433  0.9565
  947MOL0     O27758   3.154   2.874   3.986  0.3410  0.1142  1.2037
  947MOL0     C27759   3.231   2.663   4.263 -0.6246  0.1646 -0.8862
  947MOL0     C27760   3.331   2.633   4.355 -0.3322 -0.6625 -0.8665
  947MOL0     N27761   4.127   2.366   4.659  0.1879  0.7581 -0.1589
  947MOL0     N27762   4.185   2.247   4.642  0.2815 -0.9936 -0.4291
  947MOL0     C27763   3.983   2.089   3.725  1.2065 -0.4474  0.2283
  947MOL0     C27764   3.852   2.058   3.679 -0.3517  0.3967 -0.9779
  947MOL0     C27765   3.469   2.142   3.420  0.1986  0.2498  0.2234
  947MOL0     C27766   3.366   2.073   3.493  0.2755  1.0012  1.0741
  947MOL0     C27767   3.255   2.035   3.434  0.3525 -0.7578 -0.0673
  947MOL0     C27768   3.231   2.059   3.301  0.5145 -1.2631  0.1385
  947MOL0     O27769   3.114   2.006   3.244  0.3554 -0.6747 -0.0809
  947MOL0     C27770   3.053   2.087   3.151 -0.7071  0.1435 -1.1059
  947MOL0     C27771   2.915   2.030   3.124  0.8501 -0.7263  0.5773
  947MOL0     C27772   2.814   2.078   3.225  0.0161  0.0044 -0.6736
  947MOL0     C27773   2.667   2.036   3.196  0.1192  0.0271 -0.9953
  947MOL0     C27774   2.657   1.890   3.183  1.0324  0.4769  0.3574
  947MOL0     C27775   2.657   1.765   3.181 -1.2849 -0.7044  0.1187
  947MOL0     C27776   3.324   2.125   3.223  0.3447 -0.4478  0.5276
  947MOL0     C27777   3.443   2.169   3.287 -0.0737  0.1094 -0.0623
  947MOL0     H27778   3.716   2.374   3.709  0.7802  0.8584 -0.6322
  947MOL0     H27779   3.941   2.426   3.749  0.2026  0.1455  0.9511
  947MOL0     H27780   4.310   2.377   3.748 -0.6128  2.4709 -0.4302
  947MOL0     H27781   4.154   2.451   3.757  0.4039  1.4390  0.8233
  947MOL0     H27782   4.278   2.488   3.957  1.2953 -1.1542  1.1998
  947MOL0     H27783   4.129   2.395   3.992  0.3815 -0.4240  2.3402
  947MOL0     H27784   4.278   2.189   3.990 -0.9945  0.3980  0.5591
  947MOL0     H27785   4.420   2.291   3.962  0.8432  2.6469  0.9017
  947MOL0     H27786   4.377   2.413   4.181 -2.1555  0.3081  2.5039
  947MOL0     H27787   4.223   2.323   4.197 -0.5001 -1.0888  0.2359
  947MOL0     H27788   4.388   2.115   4.174  2.2261  1.0978 -2.0298
  947MOL0     H27789   4.504   2.227   4.242  0.6671 -0.0753 -0.3132
  947MOL0     H27790   4.411   2.146   4.455 -0.4918 -0.7824  1.2082
  947MOL0     H27791   4.303   2.277   4.410 -1.2971 -0.7240  1.5512
  947MOL0     H27792   4.149   2.114   4.311  0.8648 -2.3462 -1.5262
  947MOL0     H27793   4.267   1.982   4.340  0.8246 -0.2998 -0.0547
  947MOL0     H27794   4.221   1.982   4.573 -1.3883 -1.0764  0.5602
  947MOL0     H27795   4.076   1.972   4.474  2.6549 -1.5906 -2.9638
  947MOL0     H27796   3.882   2.170   4.529 -1.3388  2.1756 -1.3875
  947MOL0     H27797   3.811   2.420   4.697  1.4151 -0.6901  0.4611
  947MOL0     H27798   3.954   2.534   4.702  2.3763 -0.9257  1.0602
  947MOL0     H27799   3.769   2.459   4.457 -3.4638  4.4606 -0.8351
  947MOL0     H27800   3.919   2.540   4.440 -2.2290 -0.0005 -1.9299
  947MOL0     H27801   3.853   2.737   4.586  0.0307  0.4494 -0.9850
  947MOL0     H27802   3.722   2.659   4.655 -1.8809  0.7080 -0.2351
  947MOL0     H27803   3.725   2.731   4.374 -0.6125  1.5287 -0.9275
  947MOL0     H27804   3.645   2.828   4.505  1.2993  0.9880 -1.5354
  947MOL0     H27805   3.556   2.867   4.289  0.9094 -1.1086  2.3658
  947MOL0     H27806   3.496   3.008   4.138 -1.0541  0.8776  0.0918
  947MOL0     H27807   3.392   2.953   3.998 -0.1832  1.0281 -0.3534
  947MOL0     H27808   3.329   3.050   4.127 -1.0709 -0.9593 -0.0117
  947MOL0     H27809   2.959   2.834   3.874 -0.9983  0.5196 -1.0833
  947MOL0     H27810   2.725   2.804   3.767 -1.7956 -1.8265 -0.9330
  947MOL0     H27811   2.491   2.828   3.810 -0.4934  0.5854 -0.8506
  947MOL0     H27812   2.554   2.710   3.692 -2.3599  1.7170 -1.5750
  947MOL0     H27813   2.270   2.747   3.807 -0.7200  0.0509 -0.6090
  947MOL0     H27814   2.329   2.759   3.642 -0.8965 -0.3768 -0.2127
  947MOL0     H27815   2.336   2.499   3.802  1.1546  0.8940  0.8006
  947MOL0     H27816   2.384   2.522   3.637  2.2664  0.6329  2.3484
  947MOL0     H27817   2.095   2.603   3.714  1.7195  0.8783  1.4943
  947MOL0     H27818   2.153   2.543   3.557 -0.7624  0.1553 -0.1429
  947MOL0     H27819   2.099   2.385   3.815  0.9047  0.6830 -0.1090
  947MOL0     H27820   2.167   2.315   3.671 -0.6846 -1.0098 -1.0230
  947MOL0     H27821   1.976   2.347   3.528  1.6782 -1.8339  1.0312
  947MOL0     H27822   1.938   2.261   3.665  1.9131 -2.3524 -5.4710
  947MOL0     H27823   1.876   2.563   3.631 -4.7723 -0.2195 -2.9891
  947MOL0     H27824   1.864   2.475   3.782  0.8328 -0.0061 -0.5809
  947MOL0     H27825   1.703   2.322   3.677 -0.7186  1.3898  1.1772
  947MOL0     H27826   1.731   2.400   3.515  1.4028  1.8661 -0.5041
  947MOL0     H27827   2.640   2.510   4.069 -1.5648  0.4242 -1.4749
  947MOL0     H27828   2.875   2.563   4.170  0.5637  1.2343  1.5589
  947MOL0     H27829   3.150   2.592   4.269 -1.0526  0.7330  3.6736
  947MOL0     H27830   3.323   2.544   4.416  1.1080 -0.0771  0.2285
  947MOL0     H27831   4.057   2.010   3.731 -0.5716 -2.4242 -1.8138
  947MOL0     H27832   3.834   1.957   3.644  1.6814 -0.0688 -0.8229
  947MOL0     H27833   3.379   2.047   3.598  4.2427  0.8627  0.7063
  947MOL0     H27834   3.181   1.982   3.494 -1.4929  2.4438  0.7174
  947MOL0     H27835   3.050   2.193   3.178 -2.3594  0.2585 -1.6428
  947MOL0     H27836   3.112   2.086   3.059 -0.3367  1.4394 -0.8988
  947MOL0     H27837   2.918   1.921   3.135 -0.1783 -1.0440 -1.7131
  947MOL0     H27838   2.880   2.062   3.026  1.5920  2.5277  1.2622
  947MOL0     H27839   2.816   2.186   3.241 -3.5137 -0.1044  1.4679
  947MOL0     H27840   2.852   2.036   3.318  0.6337  1.1202 -0.3955
  947MOL0     H27841   2.628   2.103   3.119 -0.8536  2.9340  1.8052
  947MOL0     H27842   2.606   2.070   3.280  0.6903 -1.9106  0.2730
  947MOL0     H27843   2.674   1.661   3.199 -0.9133 -0.5606  0.6376
  947MOL0     H27844   3.308   2.154   3.120 -0.7631  0.2206  0.8692
  947MOL0     H27845   3.529   2.214   3.239  0.1767  0.6784  0.8937
  948MOL0     O27846   9.111   0.192   6.269  0.5763 -0.6208 -0.4060
  948MOL0     C27847   9.231   0.202   6.296 -0.3504  0.6765  0.7026
  948MOL0     O27848   9.296   0.311   6.343  0.1738 -0.4295  0.3861
  948MOL0     C27849   9.224   0.429   6.365  1.1844  0.8357 -0.0389
  948MOL0     C27850   9.239   0.536   6.278  1.3945  1.4356  0.2779
  948MOL0     C27851   9.167   0.658   6.308 -0.0128 -0.3953 -0.3320
  948MOL0     C27852   9.071   0.664   6.408  0.7569  0.2571  0.0407
  948MOL0     O27853   8.998   0.776   6.439 -0.5451  0.3089  0.6672
  948MOL0     C27854   9.011   0.889   6.345 -0.8329 -0.2497  0.4343
  948MOL0     C27855   8.898   0.985   6.388 -0.1116  0.0752  0.0149
  948MOL0     C27856   8.938   1.051   6.527 -0.0866 -0.7950  1.4433
  948MOL0     C27857   8.852   1.156   6.579 -0.9078 -0.4251  0.4472
  948MOL0     C27858   8.704   1.117   6.592 -1.2816 -0.3009 -0.0558
  948MOL0     C27859   8.617   1.237   6.614 -0.8777  0.3756  0.0495
  948MOL0     C27860   8.472   1.215   6.572 -0.9399  0.2429 -0.7210
  948MOL0     C27861   8.406   1.104   6.647  1.4280 -0.9534  0.0679
  948MOL0     N27862   8.378   1.134   6.785 -0.4974  0.5114  0.0365
  948MOL0     C27863   8.334   1.250   6.839  0.3290  0.1951 -0.3528
  948MOL0     C27864   8.329   1.224   6.976 -0.6478  0.3233 -0.1392
  948MOL0     C27865   8.293   1.319   7.087 -1.4418  0.4352 -0.7755
  948MOL0     C27866   8.149   1.331   7.120 -0.3082  0.1455  0.1272
  948MOL0     C27867   8.130   1.442   7.221  0.6183  0.1580 -0.1248
  948MOL0     C27868   7.986   1.500   7.219  0.0385 -0.0217  0.0427
  948MOL0     O27869   7.901   1.400   7.266 -0.2308 -0.0397  0.4092
  948MOL0     C27870   7.773   1.440   7.298  0.2276  0.4655  0.2025
  948MOL0     C27871   7.724   1.576   7.312 -0.0362 -0.2541  0.0271
  948MOL0     C27872   7.598   1.602   7.363 -0.6542 -0.2531  0.5456
  948MOL0     C27873   7.571   1.742   7.421  0.9000  0.0195 -0.0324
  948MOL0     C27874   7.507   1.491   7.392  1.1559 -0.7091  0.5864
  948MOL0     C27875   7.368   1.506   7.460  0.1869 -0.0290 -0.1230
  948MOL0     O27876   7.307   1.629   7.455 -0.1637 -0.1219 -0.0084
  948MOL0     C27877   7.180   1.658   7.513 -0.3572  0.2431 -0.2741
  948MOL0     C27878   7.082   1.562   7.548  0.4846  0.3910  0.5376
  948MOL0     C27879   6.963   1.606   7.605  0.4434  0.2142 -0.2674
  948MOL0     C27880   6.950   1.737   7.636 -0.1014  0.3533 -0.0154
  948MOL0     O27881   6.852   1.778   7.717  0.6195  0.1146  0.0911
  948MOL0     C27882   6.841   1.709   7.843  0.9522 -0.2697 -0.2340
  948MOL0     C27883   6.701   1.717   7.899 -0.3278  0.3157  0.2819
  948MOL0     C27884   6.622   1.603   7.825  1.5498 -0.4149  0.6592
  948MOL0     C27885   6.480   1.627   7.870 -0.6308  0.4669 -0.1077
  948MOL0     C27886   6.382   1.525   7.828  1.0197  1.2354  0.0685
  948MOL0     C27887   6.387   1.510   7.675 -0.3853 -0.1390 -0.2919
  948MOL0     C27888   6.306   1.385   7.634  0.4374 -0.5275 -0.5469
  948MOL0     C27889   6.284   1.395   7.475  0.3140  0.1014 -0.0954
  948MOL0    Cl27890   6.121   1.453   7.451 -0.1899 -0.1824 -0.2131
  948MOL0     C27891   7.045   1.829   7.600 -0.5107  0.5617 -0.3813
  948MOL0     C27892   7.150   1.797   7.522 -0.5891 -0.3189  0.2815
  948MOL0     O27893   7.330   1.408   7.519  1.0790 -0.2718  0.2785
  948MOL0     C27894   7.553   1.358   7.357  0.0268  0.1292  0.9294
  948MOL0     C27895   7.684   1.336   7.313  0.3385  0.2367 -0.5862
  948MOL0     N27896   8.373   1.093   6.993 -0.6717 -0.7452 -0.3190
  948MOL0     N27897   8.388   1.040   6.882  0.1075  0.3675 -0.1634
  948MOL0     C27898   9.048   0.543   6.482  0.2187  0.0173  0.1723
  948MOL0     C27899   9.128   0.436   6.467 -0.1534  0.1894  0.1100
  948MOL0     C27900   9.307   0.068   6.270  0.8486 -1.2754  0.1923
  948MOL0     C27901   9.441   0.063   6.301 -0.6900  0.2288 -1.1473
  948MOL0     C27902   9.525  -0.046   6.267  0.3944 -0.7911  0.5771
  948MOL0     C27903   9.465  -0.166   6.233  0.0410 -0.0682  0.0249
  948MOL0     O27904   9.541  -0.279   6.207 -0.0741 -0.3800  0.4581
  948MOL0     C27905   9.465  -0.404   6.200 -0.4488 -0.9635  0.7159
  948MOL0     C27906   9.539  -0.526   6.246 -0.3839  1.3229  0.2098
  948MOL0     C27907   9.688  -0.533   6.197 -0.7063  0.0509 -0.1934
  948MOL0     C27908   9.768  -0.663   6.243  0.5917 -0.7635  0.4099
  948MOL0     C27909   9.746  -0.769   6.145 -0.5659  0.1087  0.2035
  948MOL0     C27910   9.726  -0.851   6.062 -0.4520 -1.1453  0.2345
  948MOL0     C27911   9.328  -0.156   6.197  0.4697  0.2430 -0.6030
  948MOL0     C27912   9.244  -0.042   6.218 -0.2690 -0.2732 -0.4033
  948MOL0     H27913   9.313   0.536   6.199  1.3064  0.5182  0.1849
  948MOL0     H27914   9.193   0.738   6.239  4.4114 -0.1398  1.2845
  948MOL0     H27915   9.111   0.930   6.362 -0.8479 -1.3897  4.0251
  948MOL0     H27916   9.000   0.859   6.240 -1.6966  1.0483  0.1409
  948MOL0     H27917   8.872   1.057   6.309 -0.6425  0.4872  0.5625
  948MOL0     H27918   8.805   0.927   6.394  0.2645 -0.7779 -1.6995
  948MOL0     H27919   8.933   0.968   6.598 -1.1107 -3.1246 -1.1493
  948MOL0     H27920   9.037   1.099   6.531  1.0247 -2.2557 -2.9235
  948MOL0     H27921   8.886   1.205   6.671 -0.0948 -1.2218  0.5827
  948MOL0     H27922   8.851   1.228   6.497 -2.3006  0.0924  0.8796
  948MOL0     H27923   8.687   1.067   6.496 -0.7798 -0.5892  0.0011
  948MOL0     H27924   8.690   1.042   6.671 -3.1097  1.4003  1.3391
  948MOL0     H27925   8.623   1.264   6.719 -0.0660 -2.6509  0.8764
  948MOL0     H27926   8.646   1.314   6.542 -2.7934  1.1344  0.0110
  948MOL0     H27927   8.426   1.310   6.600  2.3769  1.8255 -0.1364
  948MOL0     H27928   8.462   1.215   6.463 -1.1546  1.2567 -0.7088
  948MOL0     H27929   8.457   1.007   6.644  0.4888 -1.4542 -0.3932
  948MOL0     H27930   8.305   1.087   6.608  0.4512 -1.7872  2.7025
  948MOL0     H27931   8.313   1.342   6.786  0.3923  0.5419  0.2073
  948MOL0     H27932   8.350   1.281   7.173 -1.1838 -0.1960 -1.2217
  948MOL0     H27933   8.339   1.415   7.061  0.7666 -0.7964 -1.6621
  948MOL0     H27934   8.105   1.239   7.159 -1.4173  0.4093 -0.4681
  948MOL0     H27935   8.097   1.359   7.028  1.5598  1.8504 -0.4760
  948MOL0     H27936   8.201   1.523   7.204 -0.1434  0.9506  0.3917
  948MOL0     H27937   8.143   1.401   7.322  0.3170 -2.2536 -1.0070
  948MOL0     H27938   7.958   1.542   7.122 -0.8692  0.0222  0.3208
  948MOL0     H27939   7.996   1.591   7.279  2.7227 -0.5600  0.5610
  948MOL0     H27940   7.782   1.664   7.287 -1.0893  0.6236  0.5243
  948MOL0     H27941   7.664   1.800   7.422  1.7228 -1.1976  2.1888
  948MOL0     H27942   7.486   1.789   7.371 -0.0316 -2.4459 -0.8821
  948MOL0     H27943   7.548   1.732   7.528  0.2996 -2.5212 -0.3367
  948MOL0     H27944   7.098   1.454   7.543 -0.6468  0.2195  0.3644
  948MOL0     H27945   6.887   1.538   7.642 -2.0586  2.7244 -0.4204
  948MOL0     H27946   6.871   1.604   7.833  0.5807 -0.1771 -3.2778
  948MOL0     H27947   6.920   1.754   7.905 -0.4100  2.4443 -0.3509
  948MOL0     H27948   6.694   1.687   8.004  1.8817  1.5260  0.8240
  948MOL0     H27949   6.646   1.811   7.896  0.1403  0.6519  1.6453
  948MOL0     H27950   6.660   1.503   7.848 -1.0883 -1.2463  1.8108
  948MOL0     H27951   6.631   1.616   7.717 -0.1195 -2.5279  0.2162
  948MOL0     H27952   6.479   1.649   7.977 -2.2753  0.2636 -0.0499
  948MOL0     H27953   6.453   1.725   7.828 -2.0692 -0.0556 -0.4633
  948MOL0     H27954   6.285   1.562   7.861  0.6279 -0.0621  0.4445
  948MOL0     H27955   6.386   1.430   7.882 -2.4306  1.0976  0.3178
  948MOL0     H27956   6.338   1.601   7.640 -3.9223 -0.6676  2.5803
  948MOL0     H27957   6.488   1.500   7.635 -0.2259  0.8402 -0.1455
  948MOL0     H27958   6.213   1.362   7.687  0.6572 -1.1619 -0.4300
  948MOL0     H27959   6.365   1.298   7.663 -1.5716 -1.9161 -0.3940
  948MOL0     H27960   6.297   1.303   7.417  1.8029 -0.1382  0.5623
  948MOL0     H27961   6.351   1.468   7.429 -0.9833  0.8286 -0.8540
  948MOL0     H27962   7.043   1.923   7.655  0.4573  0.3052  0.1271
  948MOL0     H27963   7.218   1.875   7.489 -0.8139 -1.6901 -4.0042
  948MOL0     H27964   7.492   1.268   7.366  1.5854 -1.1707 -0.8061
  948MOL0     H27965   7.726   1.238   7.293 -0.7479 -0.2123 -0.7086
  948MOL0     H27966   8.980   0.561   6.564 -2.1895  1.4559 -1.9885
  948MOL0     H27967   9.110   0.347   6.527  2.3412 -0.6939 -0.3218
  948MOL0     H27968   9.484   0.155   6.339 -2.0962  0.1850  0.7123
  948MOL0     H27969   9.633  -0.036   6.275  0.3505 -0.7765  1.1531
  948MOL0     H27970   9.371  -0.397   6.256 -0.1265  2.6670  1.0419
  948MOL0     H27971   9.436  -0.405   6.094 -0.5416  0.9534  0.6871
  948MOL0     H27972   9.489  -0.616   6.208  2.5544  0.8769 -3.1988
  948MOL0     H27973   9.526  -0.538   6.354 -0.7251  0.8288  0.1176
  948MOL0     H27974   9.748  -0.444   6.219  1.7721 -1.6700  0.3885
  948MOL0     H27975   9.707  -0.535   6.089  1.4955  1.7334  0.1001
  948MOL0     H27976   9.728  -0.700   6.337 -1.9708  0.2067 -0.2147
  948MOL0     H27977   9.873  -0.633   6.249  0.0341  1.6073 -0.5633
  948MOL0     H27978   9.723  -0.923   5.982 -0.6562 -0.2474 -0.5902
  948MOL0     H27979   9.269  -0.241   6.162  0.8071  0.1550 -0.9674
  948MOL0     H27980   9.141  -0.050   6.187 -0.2975 -1.0863 -0.1238
  949MOL0     O27981   3.045   2.800   0.132  0.3873 -0.2540  0.0104
  949MOL0     C27982   3.099   2.712   0.065  0.1462 -0.8027  0.0072
  949MOL0     O27983   3.036   2.626  -0.017 -0.2851 -0.1046 -0.1971
  949MOL0     C27984   2.905   2.630  -0.018  0.3210 -0.9715 -0.0387
  949MOL0     C27985   2.836   2.694  -0.122  0.9394  0.0232  0.7248
  949MOL0     C27986   2.697   2.688  -0.129  0.2483  0.5369  0.0038
  949MOL0     C27987   2.623   2.615  -0.039  0.5186 -0.6578 -0.1355
  949MOL0     O27988   2.491   2.611  -0.042  0.3166  0.2375 -0.3581
  949MOL0     C27989   2.447   2.524  -0.140  0.0977 -1.2064  0.2749
  949MOL0     C27990   2.311   2.460  -0.132  0.0755 -0.3467  0.2784
  949MOL0     C27991   2.206   2.561  -0.175  0.9745 -0.5506  0.1922
  949MOL0     C27992   2.056   2.518  -0.179  0.1132 -0.6598  0.2716
  949MOL0     C27993   1.958   2.637  -0.156  0.1836  0.7206  0.2589
  949MOL0     C27994   1.812   2.618  -0.116 -0.1606 -0.2933  0.2690
  949MOL0     C27995   1.718   2.581  -0.236 -0.8006 -0.5522 -0.3430
  949MOL0     C27996   1.733   2.659  -0.365 -0.2716 -0.1781 -0.1772
  949MOL0     N27997   1.607   2.676  -0.441  0.1054  0.0915 -0.1910
  949MOL0     C27998   1.564   2.603  -0.548  0.1654 -0.8659 -0.9676
  949MOL0     C27999   1.443   2.656  -0.573 -0.6013  0.1984  0.1977
  949MOL0     C28000   1.358   2.612  -0.693 -0.9308  1.1514  0.8346
  949MOL0     C28001   1.373   2.469  -0.731  0.0362  1.1448 -0.3015
  949MOL0     C28002   1.250   2.413  -0.808 -0.4661 -0.1071  0.3389
  949MOL0     C28003   1.251   2.444  -0.967 -0.1088  0.1021 -0.3191
  949MOL0     O28004   1.206   2.322  -1.022  0.2749 -0.1688 -0.0942
  949MOL0     C28005   1.080   2.311  -1.072 -0.8109  0.3279 -0.1076
  949MOL0     C28006   1.034   2.181  -1.091  0.4828  0.0219 -0.1308
  949MOL0     C28007   0.891   2.155  -1.125 -0.2847 -0.0748  0.5583
  949MOL0     C28008   0.858   2.007  -1.132  0.3787 -0.1147  0.0936
  949MOL0     C28009   0.804   2.260  -1.125 -0.5532  0.1858  0.6948
  949MOL0     C28010   0.660   2.241  -1.118  0.5409  0.4402  0.0815
  949MOL0     O28011   0.585   2.337  -1.063 -0.2224 -0.0688  0.2863
  949MOL0     C28012   0.447   2.338  -1.076  0.1896 -0.1206 -0.6365
  949MOL0     C28013   0.387   2.461  -1.082 -0.1127  0.3035  0.1079
  949MOL0     C28014   0.244   2.475  -1.096  1.1391 -0.0867  1.3712
  949MOL0     C28015   0.159   2.364  -1.095 -0.4287 -0.1659 -0.5541
  949MOL0     O28016   0.023   2.385  -1.083 -0.3081  0.8012 -0.0065
  949MOL0     C28017  -0.064   2.267  -1.095 -0.3026 -0.5502  0.4685
  949MOL0     C28018  -0.201   2.320  -1.068  0.7932  0.5467  0.6550
  949MOL0     C28019  -0.318   2.219  -1.078  0.0723  0.3939  0.0407
  949MOL0     C28020  -0.403   2.232  -0.949 -0.2265  0.1652  0.1215
  949MOL0     C28021  -0.535   2.144  -0.963 -0.4113 -0.2762 -0.5246
  949MOL0     C28022  -0.636   2.196  -0.860  0.4670  0.4831 -0.1112
  949MOL0     C28023  -0.754   2.107  -0.861  0.6517 -0.0935  0.2186
  949MOL0     C28024  -0.848   2.129  -0.739 -0.4056 -0.3190  0.0828
  949MOL0    Cl28025  -0.984   2.235  -0.788 -0.1888  0.4876 -0.4157
  949MOL0     C28026   0.226   2.240  -1.083 -0.1252  0.1418 -0.2043
  949MOL0     C28027   0.361   2.225  -1.075 -0.1168 -0.8518 -0.3233
  949MOL0     O28028   0.612   2.142  -1.174  0.0650 -0.1257  0.1863
  949MOL0     C28029   0.854   2.388  -1.110  0.0330 -0.0128 -0.6531
  949MOL0     C28030   0.991   2.416  -1.086  0.2612  0.0264  0.6519
  949MOL0     N28031   1.410   2.751  -0.477  1.1596 -0.3471 -0.3698
  949MOL0     N28032   1.513   2.759  -0.400  0.1035  0.2003  0.5505
  949MOL0     C28033   2.695   2.552   0.067  0.2917  0.1996  0.7681
  949MOL0     C28034   2.835   2.557   0.073  0.2345 -0.9875 -0.0936
  949MOL0     C28035   3.250   2.715   0.065  0.2531 -0.1936 -0.1574
  949MOL0     C28036   3.324   2.785   0.158 -0.1571  0.5508 -1.0286
  949MOL0     C28037   3.464   2.803   0.139  0.0839 -0.1230 -0.1941
  949MOL0     C28038   3.531   2.740   0.034  0.1376 -0.0569  0.4093
  949MOL0     O28039   3.660   2.769   0.005  0.7413 -0.5765 -1.6849
  949MOL0     C28040   3.721   2.716  -0.112 -0.1484 -0.1362  0.2570
  949MOL0     C28041   3.865   2.763  -0.117 -0.2658 -0.4267  0.6455
  949MOL0     C28042   3.956   2.677  -0.024 -0.0871 -0.0513 -0.3364
  949MOL0     C28043   3.983   2.529  -0.056  0.0123 -0.0010  0.2433
  949MOL0     C28044   4.095   2.476   0.025 -0.4066  0.0395 -0.1394
  949MOL0     C28045   4.193   2.438   0.091 -1.4299 -0.0129  0.0377
  949MOL0     C28046   3.451   2.668  -0.059  0.3060  0.7976 -0.3823
  949MOL0     C28047   3.316   2.665  -0.047  0.3803 -0.1334  0.9663
  949MOL0     H28048   2.884   2.747  -0.203 -0.9256  1.1117  0.2663
  949MOL0     H28049   2.637   2.746  -0.199 -0.5725 -1.8099 -1.3168
  949MOL0     H28050   2.458   2.574  -0.237  1.4879  1.8265  1.8661
  949MOL0     H28051   2.508   2.434  -0.150  0.4487 -0.7255 -2.6939
  949MOL0     H28052   2.300   2.360  -0.174 -0.7859 -2.1011  4.2301
  949MOL0     H28053   2.293   2.432  -0.028  0.6185  1.6272  0.9573
  949MOL0     H28054   2.222   2.639  -0.101 -1.5518  1.1024 -0.8789
  949MOL0     H28055   2.231   2.614  -0.267  1.3501 -1.5264 -0.2867
  949MOL0     H28056   2.031   2.473  -0.276 -0.8327 -2.5711  1.3434
  949MOL0     H28057   2.027   2.445  -0.103 -3.0423  0.5776  0.3945
  949MOL0     H28058   1.989   2.688  -0.064 -2.0733 -1.6661  2.5092
  949MOL0     H28059   1.958   2.705  -0.242 -2.3481  1.9191  1.1125
  949MOL0     H28060   1.794   2.540  -0.042 -2.3703 -0.2491 -0.1499
  949MOL0     H28061   1.790   2.716  -0.073 -0.3089  0.1656 -0.8200
  949MOL0     H28062   1.740   2.476  -0.259  2.6736 -0.1205  0.3474
  949MOL0     H28063   1.615   2.585  -0.200 -0.4919  0.4896  0.4865
  949MOL0     H28064   1.804   2.608  -0.431 -0.7894 -0.6420 -0.3795
  949MOL0     H28065   1.769   2.761  -0.347 -2.4010  0.9705 -1.9423
  949MOL0     H28066   1.612   2.520  -0.599 -2.9168 -3.2908 -0.2504
  949MOL0     H28067   1.257   2.640  -0.663 -0.7846  1.0116  1.4550
  949MOL0     H28068   1.380   2.680  -0.776  2.2735  0.5342  1.0513
  949MOL0     H28069   1.383   2.411  -0.638 -1.2283  1.7551  0.2320
  949MOL0     H28070   1.466   2.465  -0.789 -0.4446  2.4901 -1.2079
  949MOL0     H28071   1.157   2.434  -0.754 -0.3459  1.8206 -0.1145
  949MOL0     H28072   1.249   2.305  -0.796 -0.5714 -0.5966 -2.9780
  949MOL0     H28073   1.355   2.461  -0.996  0.3565 -1.4677  0.2761
  949MOL0     H28074   1.199   2.535  -0.999 -1.2735 -0.4771 -0.1295
  949MOL0     H28075   1.098   2.095  -1.077 -1.6676 -1.3682  1.9323
  949MOL0     H28076   0.788   1.987  -1.213  0.9899  0.9245 -0.7170
  949MOL0     H28077   0.947   1.949  -1.157  1.3214  1.4663 -0.3544
  949MOL0     H28078   0.820   1.984  -1.032  0.7141  2.8130  0.9747
  949MOL0     H28079   0.460   2.540  -1.075  0.0290  0.0592  2.0912
  949MOL0     H28080   0.201   2.574  -1.089  0.1067 -0.2899 -1.1819
  949MOL0     H28081  -0.066   2.224  -1.195  0.6096 -3.5322  1.6048
  949MOL0     H28082  -0.032   2.192  -1.022  1.5294 -0.1859  0.0866
  949MOL0     H28083  -0.189   2.370  -0.972  3.0897  2.5034 -0.5069
  949MOL0     H28084  -0.231   2.392  -1.145 -0.5505  0.5071  1.1316
  949MOL0     H28085  -0.275   2.120  -1.092  0.7967  0.9763 -2.2543
  949MOL0     H28086  -0.382   2.240  -1.164  1.5519  0.7970 -1.0074
  949MOL0     H28087  -0.357   2.203  -0.854 -1.8535  1.1280  1.2589
  949MOL0     H28088  -0.429   2.337  -0.934  0.1250  0.2049  0.5007
  949MOL0     H28089  -0.521   2.038  -0.940  2.7746  0.5745  2.2688
  949MOL0     H28090  -0.578   2.166  -1.061  1.2814 -0.3619 -1.3136
  949MOL0     H28091  -0.588   2.205  -0.762  0.6982  1.8925 -0.3346
  949MOL0     H28092  -0.666   2.296  -0.890 -0.9595  0.5527  1.3924
  949MOL0     H28093  -0.711   2.009  -0.840  1.1759  0.5411  2.4058
  949MOL0     H28094  -0.812   2.105  -0.953  0.1384  0.0581  0.5321
  949MOL0     H28095  -0.789   2.164  -0.654 -1.5266  1.2162  0.2749
  949MOL0     H28096  -0.894   2.030  -0.725 -0.4675 -0.0096  2.5115
  949MOL0     H28097   0.168   2.148  -1.071 -1.1855  1.0264  1.8761
  949MOL0     H28098   0.398   2.124  -1.065  1.0992 -0.3753  0.2345
  949MOL0     H28099   0.779   2.465  -1.130  0.3550 -0.5840 -4.9859
  949MOL0     H28100   1.021   2.518  -1.069  0.5982  0.2648 -1.1343
  949MOL0     H28101   2.638   2.497   0.142  0.1581 -0.2200  0.3673
  949MOL0     H28102   2.883   2.501   0.152 -1.1891 -1.9451  0.1419
  949MOL0     H28103   3.272   2.839   0.236  0.0358 -1.9074  0.9291
  949MOL0     H28104   3.528   2.867   0.200  2.0238 -1.7435 -0.4218
  949MOL0     H28105   3.715   2.608  -0.101  3.7531 -0.4611  0.4219
  949MOL0     H28106   3.675   2.756  -0.203 -0.7799 -0.7919  0.2812
  949MOL0     H28107   3.878   2.870  -0.097 -2.4085  0.4562 -2.1083
  949MOL0     H28108   3.910   2.756  -0.217 -0.7302 -0.6288  0.4468
  949MOL0     H28109   3.918   2.673   0.078  0.6376  0.1754 -0.0496
  949MOL0     H28110   4.053   2.726  -0.010  1.3361 -2.8733  0.4570
  949MOL0     H28111   4.014   2.516  -0.161  0.9584  0.6518  0.4297
  949MOL0     H28112   3.890   2.474  -0.040 -1.0336  0.5823 -2.9618
  949MOL0     H28113   4.284   2.401   0.131 -1.3648  0.1037 -0.0015
  949MOL0     H28114   3.501   2.631  -0.148  2.2492  2.3466 -0.0127
  949MOL0     H28115   3.262   2.638  -0.137  2.4358  1.1221 -0.7366
  950MOL0     O28116   7.312   0.240   6.966  0.5470 -0.0617  0.2610
  950MOL0     C28117   7.307   0.243   6.846  0.0198 -0.3949  0.0420
  950MOL0     O28118   7.203   0.206   6.768 -0.6551 -0.0697  0.1241
  950MOL0     C28119   7.075   0.181   6.825 -0.7031 -0.0917 -0.2045
  950MOL0     C28120   6.980   0.115   6.742 -0.5425  0.1334  0.6220
  950MOL0     C28121   6.852   0.079   6.777  0.4772  0.2836  0.7787
  950MOL0     C28122   6.812   0.117   6.905 -0.7543 -0.4110 -0.0165
  950MOL0     O28123   6.686   0.086   6.947  0.1368  0.4947 -0.4230
  950MOL0     C28124   6.610   0.180   7.021  0.4401  0.2185 -0.2099
  950MOL0     C28125   6.470   0.133   7.033  0.0440  0.0141 -0.2402
  950MOL0     C28126   6.388   0.160   6.908  0.2954 -0.6257  0.0872
  950MOL0     C28127   6.242   0.119   6.931 -0.2990 -0.3334  0.6098
  950MOL0     C28128   6.132   0.151   6.823  0.6772  0.2663 -0.1201
  950MOL0     C28129   5.995   0.096   6.870 -0.7986 -0.0862  0.3658
  950MOL0     C28130   5.943   0.153   7.004  0.1472 -0.5341  0.0530
  950MOL0     C28131   5.794   0.123   7.030 -0.6274  0.3984 -0.2072
  950MOL0     N28132   5.698   0.184   6.932 -0.3916 -0.0062 -0.3368
  950MOL0     C28133   5.603   0.283   6.952  0.7682  0.0385 -0.8378
  950MOL0     C28134   5.519   0.269   6.845  0.1137 -0.0902 -0.2254
  950MOL0     C28135   5.407   0.360   6.810 -0.1541 -0.0382  0.8288
  950MOL0     C28136   5.298   0.373   6.922 -0.1040  0.1689  1.0300
  950MOL0     C28137   5.232   0.514   6.923 -0.6148 -0.3886  0.3960
  950MOL0     C28138   5.150   0.544   6.802  0.2532  0.1374 -0.5608
  950MOL0     O28139   5.051   0.437   6.790 -0.8413  0.1956  0.2763
  950MOL0     C28140   4.942   0.452   6.705  0.8623 -0.3634 -0.3591
  950MOL0     C28141   4.931   0.556   6.617  0.2579  0.4176  0.5860
  950MOL0     C28142   4.820   0.582   6.532  0.2312  0.2438  0.4484
  950MOL0     C28143   4.828   0.702   6.438  0.1917  0.1516  0.2002
  950MOL0     C28144   4.702   0.500   6.539 -0.3635  0.5215 -0.8403
  950MOL0     C28145   4.570   0.525   6.471 -0.6692  0.4759 -0.2992
  950MOL0     O28146   4.467   0.440   6.506  0.3183  0.2163 -0.1973
  950MOL0     C28147   4.355   0.460   6.429  0.3906  1.0057 -0.1664
  950MOL0     C28148   4.368   0.460   6.290  0.9350  0.3542 -0.0260
  950MOL0     C28149   4.252   0.455   6.214  0.1508 -0.2321  0.5854
  950MOL0     C28150   4.121   0.457   6.267  0.6660  0.7413 -0.2490
  950MOL0     O28151   4.014   0.439   6.174  0.1606 -0.2960  0.0260
  950MOL0     C28152   3.930   0.557   6.161  0.1723  0.0596 -0.1212
  950MOL0     C28153   3.788   0.530   6.217  0.5788  0.4683  0.2840
  950MOL0     C28154   3.717   0.425   6.133  0.0582  0.3235  0.1898
  950MOL0     C28155   3.564   0.435   6.133  0.1937 -0.3752 -0.2823
  950MOL0     C28156   3.495   0.346   6.036  0.5128  0.4767 -0.3682
  950MOL0     C28157   3.392   0.414   5.952  0.4573 -0.4930  0.2410
  950MOL0     C28158   3.312   0.325   5.867  0.2249 -0.2692  0.8249
  950MOL0     C28159   3.201   0.396   5.771 -0.3073  0.4183 -0.8605
  950MOL0    Cl28160   3.078   0.480   5.862 -0.3189 -0.5959 -0.1132
  950MOL0     C28161   4.110   0.459   6.406 -0.0847  0.5585 -0.1412
  950MOL0     C28162   4.226   0.459   6.484  0.0012  0.0271  0.0224
  950MOL0     O28163   4.560   0.623   6.398 -0.0448  1.0434  0.0503
  950MOL0     C28164   4.711   0.387   6.627  0.1605  0.1828 -0.0803
  950MOL0     C28165   4.829   0.367   6.705 -0.9163  0.0301 -0.3822
  950MOL0     N28166   5.549   0.168   6.764  0.1906 -0.7582  0.3323
  950MOL0     N28167   5.655   0.122   6.816 -0.0012  0.6529 -0.5453
  950MOL0     C28168   6.899   0.188   6.989  0.6824 -0.2750 -1.0125
  950MOL0     C28169   7.030   0.207   6.954 -1.4616 -0.0669  0.9233
  950MOL0     C28170   7.433   0.276   6.771 -0.1998  0.0632 -0.9691
  950MOL0     C28171   7.458   0.210   6.649  0.8495 -0.6574  0.7039
  950MOL0     C28172   7.584   0.206   6.587 -0.5884  0.9963  1.2470
  950MOL0     C28173   7.687   0.274   6.647 -0.0491  0.4286 -0.5706
  950MOL0     O28174   7.811   0.280   6.591  0.6828 -0.0138 -0.7536
  950MOL0     C28175   7.887   0.404   6.616  0.1143  0.3183  0.4596
  950MOL0     C28176   8.010   0.365   6.679 -0.5129 -0.5211 -0.2090
  950MOL0     C28177   8.115   0.471   6.661 -1.0788 -0.3398 -0.2090
  950MOL0     C28178   8.250   0.421   6.707 -0.1224  0.3673 -0.4834
  950MOL0     C28179   8.325   0.354   6.597  0.6970 -0.2581  0.2458
  950MOL0     C28180   8.388   0.295   6.511 -0.3266  0.1315  0.5949
  950MOL0     C28181   7.661   0.338   6.770  0.0489 -0.2950  0.3821
  950MOL0     C28182   7.536   0.343   6.832  0.2287  0.1052 -0.2562
  950MOL0     H28183   7.016   0.094   6.642 -1.3770 -0.4406  0.4343
  950MOL0     H28184   6.785   0.021   6.714 -0.1098  0.0913  1.5619
  950MOL0     H28185   6.641   0.189   7.125 -1.1931  3.4173  0.1217
  950MOL0     H28186   6.618   0.281   6.979 -0.7904  1.5308  2.5189
  950MOL0     H28187   6.468   0.026   7.055 -2.6514 -0.2082 -1.1920
  950MOL0     H28188   6.426   0.182   7.121  1.3438  1.1054 -0.1720
  950MOL0     H28189   6.395   0.266   6.882 -1.4990 -0.8285 -1.4582
  950MOL0     H28190   6.418   0.113   6.814  0.6320 -0.7862  0.2717
  950MOL0     H28191   6.246   0.010   6.943  1.0169 -0.5161 -1.0834
  950MOL0     H28192   6.207   0.165   7.024 -2.3824  2.1447 -1.2503
  950MOL0     H28193   6.134   0.255   6.787  4.1175 -0.5237 -2.7776
  950MOL0     H28194   6.158   0.093   6.734 -2.1479  0.9834 -1.5546
  950MOL0     H28195   5.921   0.118   6.792 -0.0900  0.8319 -0.0765
  950MOL0     H28196   6.004  -0.012   6.885  0.8405  0.3424  3.3767
  950MOL0     H28197   6.000   0.113   7.088 -1.8380  0.3612  1.9421
  950MOL0     H28198   5.950   0.262   7.008 -0.1025 -0.4786 -0.7380
  950MOL0     H28199   5.769   0.160   7.129 -0.4840 -1.5752  0.6064
  950MOL0     H28200   5.780   0.015   7.032  1.2073  0.1209 -0.4570
  950MOL0     H28201   5.600   0.350   7.037  3.9941 -1.3115  0.4753
  950MOL0     H28202   5.452   0.459   6.795 -4.3128  1.6864 -2.6378
  950MOL0     H28203   5.370   0.339   6.709  1.2345  0.3792  0.2049
  950MOL0     H28204   5.337   0.337   7.017  0.4001 -0.7979  0.4765
  950MOL0     H28205   5.219   0.299   6.903  0.9118 -0.8215  0.5713
  950MOL0     H28206   5.303   0.596   6.929 -1.1803  0.7168 -4.3127
  950MOL0     H28207   5.159   0.507   7.005 -1.2875  0.5327 -0.0996
  950MOL0     H28208   5.211   0.547   6.711 -1.6983  0.7193 -1.9256
  950MOL0     H28209   5.097   0.638   6.818  1.1895  0.3836  1.3965
  950MOL0     H28210   5.001   0.639   6.611  1.3593  0.1132  5.1752
  950MOL0     H28211   4.925   0.752   6.443  0.5981 -0.3031 -2.0331
  950MOL0     H28212   4.824   0.652   6.340  0.0340 -2.0017  1.2373
  950MOL0     H28213   4.750   0.776   6.457 -1.7104 -1.8192  0.5093
  950MOL0     H28214   4.469   0.454   6.250 -0.2727 -1.5186 -3.2120
  950MOL0     H28215   4.269   0.466   6.107  0.4336 -2.9076  0.2998
  950MOL0     H28216   3.973   0.646   6.208  1.5942 -0.6299 -0.0611
  950MOL0     H28217   3.914   0.575   6.055 -0.5220 -1.1829 -0.2480
  950MOL0     H28218   3.788   0.502   6.322  1.5895 -1.0251 -0.0754
  950MOL0     H28219   3.729   0.622   6.210 -3.5171 -1.9591  0.1252
  950MOL0     H28220   3.750   0.328   6.171  2.6325  2.0145  2.7441
  950MOL0     H28221   3.757   0.433   6.032 -0.3401  0.9781  0.0822
  950MOL0     H28222   3.515   0.416   6.229 -1.0288 -2.3102 -1.2197
  950MOL0     H28223   3.554   0.538   6.097 -1.9035  0.0349  1.2882
  950MOL0     H28224   3.465   0.251   6.081  0.8932  0.7924  0.5787
  950MOL0     H28225   3.571   0.321   5.960 -0.0410  2.6922 -1.7241
  950MOL0     H28226   3.327   0.462   6.026  0.1767  1.0746 -0.9775
  950MOL0     H28227   3.438   0.494   5.895  1.0633 -1.2975 -0.4186
  950MOL0     H28228   3.253   0.250   5.921  1.1259 -0.9972  0.8334
  950MOL0     H28229   3.379   0.266   5.803 -2.2220 -1.6999 -0.5692
  950MOL0     H28230   3.138   0.328   5.714 -0.2710  0.0469 -0.4672
  950MOL0     H28231   3.247   0.471   5.705 -0.5234  2.0824  0.7911
  950MOL0     H28232   4.011   0.483   6.443  0.4300  0.1049  1.6330
  950MOL0     H28233   4.213   0.457   6.592  1.1393  2.9591  0.3166
  950MOL0     H28234   4.623   0.326   6.644  1.0439 -0.6091  2.0017
  950MOL0     H28235   4.828   0.283   6.774  1.4846  0.3464  0.1343
  950MOL0     H28236   6.873   0.208   7.093  4.9409  1.0747  0.0032
  950MOL0     H28237   7.086   0.251   7.036 -3.5038 -2.3742  3.8080
  950MOL0     H28238   7.376   0.167   6.593 -0.9468  1.1126  1.8155
  950MOL0     H28239   7.598   0.163   6.488 -1.0335  0.1714  1.5374
  950MOL0     H28240   7.913   0.449   6.520  0.9531 -1.5439 -0.2374
  950MOL0     H28241   7.839   0.485   6.672  0.7407  0.7477  0.3927
  950MOL0     H28242   8.050   0.281   6.622  3.3584  0.5404  0.6586
  950MOL0     H28243   7.995   0.330   6.781  1.8859 -3.0047 -0.5993
  950MOL0     H28244   8.096   0.559   6.724 -1.1641 -0.7648  0.3758
  950MOL0     H28245   8.125   0.489   6.554 -0.8783 -2.5450 -0.6103
  950MOL0     H28246   8.242   0.357   6.795  1.6014  1.8714  0.8589
  950MOL0     H28247   8.306   0.514   6.722 -2.5897  2.3842 -2.7258
  950MOL0     H28248   8.452   0.256   6.434  3.0677 -3.4708  4.7388
  950MOL0     H28249   7.744   0.387   6.820 -0.1900  0.6463 -0.1157
  950MOL0     H28250   7.512   0.405   6.917 -1.8624  1.0050 -1.4248
  951MOL0     O28251   5.942   5.775   7.393  0.3204  0.0470  0.1543
  951MOL0     C28252   6.021   5.866   7.411 -0.5560 -0.9326  0.0131
  951MOL0     O28253   6.007   5.994   7.366  0.2967  0.1877 -0.4887
  951MOL0     C28254   5.901   6.038   7.293 -0.5680 -0.1061 -0.0458
  951MOL0     C28255   5.769   6.052   7.344 -0.6033 -0.8786  0.1337
  951MOL0     C28256   5.662   6.092   7.262 -0.3533  0.5081 -0.8459
  951MOL0     C28257   5.691   6.118   7.133  0.2911  0.0821  0.0671
  951MOL0     O28258   5.583   6.150   7.056  0.8362  0.6636  0.5808
  951MOL0     C28259   5.562   6.288   7.043  0.4384 -0.0603 -0.8842
  951MOL0     C28260   5.418   6.323   6.999  0.3944  0.1992  0.2382
  951MOL0     C28261   5.325   6.299   7.112  0.1604  0.3145 -0.6882
  951MOL0     C28262   5.194   6.375   7.086 -0.3948  0.7651  0.0750
  951MOL0     C28263   5.077   6.328   7.168  0.3569  0.5950 -0.5830
  951MOL0     C28264   5.085   6.374   7.321 -0.7432  0.4854  0.8478
  951MOL0     C28265   4.962   6.318   7.393  0.1826 -0.5310 -0.0140
  951MOL0     C28266   4.845   6.420   7.388  0.5146 -0.0639 -0.1502
  951MOL0     N28267   4.711   6.361   7.384  0.2638  0.0129 -0.4081
  951MOL0     C28268   4.634   6.317   7.274 -0.3899 -0.7550 -0.4562
  951MOL0     C28269   4.524   6.256   7.328 -0.9509  0.7747  0.5476
  951MOL0     C28270   4.419   6.203   7.237 -0.5925  0.3284 -0.3162
  951MOL0     C28271   4.350   6.086   7.303  0.3745  0.0532 -0.0839
  951MOL0     C28272   4.236   6.134   7.394  0.0375  0.7555  0.2686
  951MOL0     C28273   4.145   6.032   7.446  0.0336 -0.3153 -0.7335
  951MOL0     O28274   4.221   5.915   7.499 -0.4152 -0.1808  0.4833
  951MOL0     C28275   4.168   5.795   7.467 -0.2511 -0.2242 -0.3630
  951MOL0     C28276   4.248   5.699   7.394  0.3434  0.1093  0.1378
  951MOL0     C28277   4.194   5.570   7.358 -0.5936  0.7034 -0.7189
  951MOL0     C28278   4.278   5.483   7.265  0.1457  0.4764 -0.6486
  951MOL0     C28279   4.061   5.540   7.404 -0.3894  0.2172  0.5949
  951MOL0     C28280   3.986   5.417   7.359  0.0402 -0.3774 -0.2281
  951MOL0     O28281   3.852   5.424   7.385  0.2825 -0.2699 -0.2852
  951MOL0     C28282   3.761   5.331   7.333  0.2510 -0.5097 -0.0836
  951MOL0     C28283   3.767   5.287   7.198 -0.3298  0.2543 -0.7538
  951MOL0     C28284   3.666   5.193   7.159  0.0323  0.2858  0.2618
  951MOL0     C28285   3.561   5.149   7.232  0.1473 -0.1386 -0.7905
  951MOL0     O28286   3.471   5.061   7.170  0.3099 -0.6340 -0.5411
  951MOL0     C28287   3.366   4.998   7.251  0.3124  0.6155  0.5923
  951MOL0     C28288   3.232   5.080   7.269 -1.0246 -0.2265  0.0437
  951MOL0     C28289   3.136   4.997   7.367  0.0293 -0.4476  0.7604
  951MOL0     C28290   3.079   4.862   7.322  0.3297  0.8426 -0.0386
  951MOL0     C28291   2.974   4.814   7.418  0.9899  0.9450  0.7534
  951MOL0     C28292   2.882   4.710   7.356  0.2226 -0.3371  0.2400
  951MOL0     C28293   2.758   4.697   7.442  0.3203  0.3006  0.3229
  951MOL0     C28294   2.687   4.569   7.399  0.9197  0.2128 -0.2575
  951MOL0    Cl28295   2.774   4.415   7.448 -0.0119 -0.1167  0.3303
  951MOL0     C28296   3.547   5.203   7.364 -0.1514  0.4322 -0.5233
  951MOL0     C28297   3.646   5.298   7.402 -0.0408 -0.0682  0.0591
  951MOL0     O28298   4.046   5.317   7.305 -0.4839  0.1558  0.4939
  951MOL0     C28299   3.994   5.629   7.487  0.2517  0.5063 -0.5655
  951MOL0     C28300   4.047   5.756   7.526 -0.1196  0.2283  0.2213
  951MOL0     N28301   4.537   6.261   7.464  0.4427 -0.3202 -0.4142
  951MOL0     N28302   4.647   6.316   7.504  0.3837  0.9893 -0.3872
  951MOL0     C28303   5.818   6.097   7.078  1.4429  0.6614  0.0847
  951MOL0     C28304   5.926   6.069   7.158 -0.6451  0.4523 -0.8889
  951MOL0     C28305   6.151   5.839   7.483 -0.2762 -0.6181 -0.6808
  951MOL0     C28306   6.270   5.905   7.458  0.9754  0.4623 -0.1230
  951MOL0     C28307   6.387   5.888   7.531  0.0792  0.7914 -0.7648
  951MOL0     C28308   6.386   5.796   7.643  0.2704 -0.6701 -0.3245
  951MOL0     O28309   6.504   5.793   7.712  0.0100  0.3580  0.0201
  951MOL0     C28310   6.532   5.691   7.808  0.6024 -0.2540  0.1014
  951MOL0     C28311   6.468   5.711   7.947 -0.0200  0.1104 -0.1222
  951MOL0     C28312   6.480   5.858   8.002  0.7086 -0.1514  0.8051
  951MOL0     C28313   6.619   5.926   8.000  0.7462 -0.3006  0.2859
  951MOL0     C28314   6.675   5.913   8.131 -1.1471  0.0490 -0.1236
  951MOL0     C28315   6.750   5.901   8.228  0.0370 -0.5248  0.1941
  951MOL0     C28316   6.271   5.722   7.665  1.5539 -0.5641 -0.3331
  951MOL0     C28317   6.157   5.739   7.586 -0.6715  0.6374 -0.2305
  951MOL0     H28318   5.755   6.039   7.451 -1.1094 -0.2614  0.1498
  951MOL0     H28319   5.566   6.104   7.310 -0.3662 -0.8041 -0.5046
  951MOL0     H28320   5.588   6.336   7.138  1.4068 -1.1805 -0.5742
  951MOL0     H28321   5.627   6.324   6.963 -0.6391 -0.1903 -1.8464
  951MOL0     H28322   5.413   6.423   6.955 -1.0783 -0.5924 -1.5396
  951MOL0     H28323   5.395   6.256   6.915 -1.8020 -0.0282  0.9596
  951MOL0     H28324   5.305   6.191   7.111  0.0046  0.2797  1.3750
  951MOL0     H28325   5.379   6.326   7.203  0.7408 -1.2995 -0.5125
  951MOL0     H28326   5.206   6.482   7.109 -2.5645  0.5306  2.9914
  951MOL0     H28327   5.167   6.361   6.981  1.5185 -1.2923 -0.2094
  951MOL0     H28328   4.983   6.366   7.126 -0.0740  1.7425  1.3090
  951MOL0     H28329   5.080   6.219   7.170  0.2083  0.5959  1.4212
  951MOL0     H28330   5.174   6.327   7.364 -1.5393  0.1166  2.1565
  951MOL0     H28331   5.092   6.483   7.320  0.3611  0.4279  1.7165
  951MOL0     H28332   4.925   6.228   7.344 -2.0301  1.1563 -1.6609
  951MOL0     H28333   4.994   6.312   7.498 -1.1218  1.5085  0.5585
  951MOL0     H28334   4.849   6.492   7.305 -0.5111  0.6398  0.3838
  951MOL0     H28335   4.838   6.490   7.472 -0.2477  0.4447 -0.6272
  951MOL0     H28336   4.654   6.340   7.170  1.0135  0.1886 -0.0062
  951MOL0     H28337   4.356   6.290   7.219  1.5971  2.6824  2.2943
  951MOL0     H28338   4.461   6.166   7.143  0.0519 -0.2171  0.1743
  951MOL0     H28339   4.420   6.014   7.348 -0.6483 -0.8801  0.0717
  951MOL0     H28340   4.298   6.030   7.225 -0.6312  0.8732 -0.0130
  951MOL0     H28341   4.175   6.204   7.336  1.3325  1.4588 -0.2794
  951MOL0     H28342   4.279   6.189   7.478 -0.8191  1.4834  0.2406
  951MOL0     H28343   4.072   5.992   7.375  0.9181 -3.1919 -0.1647
  951MOL0     H28344   4.098   6.080   7.532  3.3573  0.3877  0.8302
  951MOL0     H28345   4.348   5.729   7.366  0.0198 -0.0350 -1.2321
  951MOL0     H28346   4.306   5.396   7.326  0.4319  1.2099  0.2977
  951MOL0     H28347   4.215   5.459   7.179 -2.2206  1.7852  0.6264
  951MOL0     H28348   4.370   5.536   7.236  0.6998 -0.2198 -0.2120
  951MOL0     H28349   3.846   5.327   7.135  1.1272  0.5069  1.1137
  951MOL0     H28350   3.662   5.148   7.060  2.3027 -3.4207  1.6167
  951MOL0     H28351   3.338   4.909   7.193  1.5645 -0.6931  1.9175
  951MOL0     H28352   3.398   4.964   7.350  1.3797 -0.9472 -0.2385
  951MOL0     H28353   3.263   5.169   7.323 -0.1459 -1.3146  1.4043
  951MOL0     H28354   3.173   5.096   7.178 -2.3326 -2.3421  0.4220
  951MOL0     H28355   3.049   5.059   7.387 -0.0057 -0.6099  1.1142
  951MOL0     H28356   3.188   4.975   7.460  0.1422  1.7704  1.2659
  951MOL0     H28357   3.032   4.876   7.223  0.1315 -0.3054 -0.1214
  951MOL0     H28358   3.157   4.786   7.313 -1.8411 -1.6044  0.6148
  951MOL0     H28359   2.907   4.896   7.441 -1.1376  0.9972 -4.3909
  951MOL0     H28360   3.026   4.767   7.502  1.6635 -2.2486 -1.2514
  951MOL0     H28361   2.861   4.750   7.256 -0.7096 -1.1719  0.0804
  951MOL0     H28362   2.945   4.623   7.337  1.6547  1.1806 -2.6162
  951MOL0     H28363   2.691   4.778   7.413  0.4297 -0.2295 -1.5250
  951MOL0     H28364   2.783   4.690   7.549 -0.0127  2.9693  0.6370
  951MOL0     H28365   2.679   4.574   7.290  1.3890  1.9544 -0.2411
  951MOL0     H28366   2.591   4.566   7.453  1.5541  0.3230  0.9258
  951MOL0     H28367   3.459   5.178   7.422 -0.2526  2.1129  0.1105
  951MOL0     H28368   3.642   5.352   7.496  1.6156  2.1814 -1.0576
  951MOL0     H28369   3.894   5.603   7.518  0.2618  0.0122 -0.9432
  951MOL0     H28370   3.992   5.825   7.589  0.7739 -0.2463  1.5511
  951MOL0     H28371   5.818   6.109   6.970 -0.5600  1.0380  0.0863
  951MOL0     H28372   6.024   6.043   7.119 -0.1824 -1.3654  1.3272
  951MOL0     H28373   6.271   5.962   7.366 -0.1420  1.6169  0.5517
  951MOL0     H28374   6.482   5.938   7.517  1.7402 -2.4734 -2.3114
  951MOL0     H28375   6.509   5.590   7.773  1.1927 -0.2832 -0.2147
  951MOL0     H28376   6.641   5.687   7.821  0.7409 -2.5994 -1.3119
  951MOL0     H28377   6.536   5.655   8.012  0.0464 -0.2161 -0.4726
  951MOL0     H28378   6.369   5.665   7.956 -0.5661  0.7045 -2.4820
  951MOL0     H28379   6.452   5.857   8.108  1.3981 -0.0572  0.9903
  951MOL0     H28380   6.407   5.916   7.945  0.1019 -3.4916 -2.1272
  951MOL0     H28381   6.601   6.030   7.969  0.2655 -0.6266 -0.5657
  951MOL0     H28382   6.677   5.885   7.917 -0.4652 -0.1510 -0.6577
  951MOL0     H28383   6.812   5.886   8.314 -0.4453  0.2458  0.6823
  951MOL0     H28384   6.278   5.632   7.725 -0.9797 -0.3043  0.4384
  951MOL0     H28385   6.072   5.681   7.620 -1.8533  3.2085  1.5017
  952MOL0     O28386  11.341  10.634   2.429  0.3979 -0.4042 -0.4538
  952MOL0     C28387  11.373  10.680   2.320 -0.2141  1.1261 -0.0070
  952MOL0     O28388  11.302  10.666   2.202  1.5860 -0.1615 -0.4309
  952MOL0     C28389  11.206  10.564   2.197 -0.7482 -0.1600  0.5284
  952MOL0     C28390  11.067  10.591   2.192 -0.9228  0.0238  1.3554
  952MOL0     C28391  10.981  10.492   2.216  0.2137  0.6294  0.4875
  952MOL0     C28392  11.021  10.356   2.218 -0.4243 -0.6925 -1.0537
  952MOL0     O28393  10.916  10.269   2.230 -0.2833 -0.0309  0.1739
  952MOL0     C28394  10.937  10.126   2.225 -0.1549 -0.3096 -0.0667
  952MOL0     C28395  10.801  10.050   2.211  0.4043 -0.5933 -1.0081
  952MOL0     C28396  10.712  10.093   2.090 -0.1820 -0.8648 -0.8221
  952MOL0     C28397  10.765  10.019   1.969  0.0079  0.0051  0.2672
  952MOL0     C28398  10.665  10.002   1.851 -0.1053  0.2689 -0.2407
  952MOL0     C28399  10.557   9.896   1.896 -0.9863  0.8427  0.6113
  952MOL0     C28400  10.411   9.925   1.852  0.7330 -0.0926  0.1844
  952MOL0     C28401  10.403   9.939   1.699  0.3854  0.1394  0.0262
  952MOL0     N28402  10.271   9.960   1.669  0.2824  0.5599  0.1785
  952MOL0     C28403  10.216  10.082   1.694 -0.7157 -0.2825  0.5537
  952MOL0     C28404  10.085  10.059   1.668  0.0133  0.6194 -1.0392
  952MOL0     C28405   9.975  10.158   1.710 -0.7164  0.9248 -0.8582
  952MOL0     C28406   9.892  10.186   1.585 -0.4542  0.5341  0.3202
  952MOL0     C28407   9.785  10.288   1.617  0.0924 -0.3427  0.2254
  952MOL0     C28408   9.707  10.301   1.487  0.4748  0.2744 -0.0218
  952MOL0     O28409   9.597  10.391   1.492  0.8359  0.2550  0.4417
  952MOL0     C28410   9.570  10.473   1.384 -0.0844 -0.0587 -0.8900
  952MOL0     C28411   9.606  10.436   1.253 -0.5503 -0.7792  0.3127
  952MOL0     C28412   9.567  10.522   1.147 -0.3004  0.9097 -0.8953
  952MOL0     C28413   9.603  10.464   1.014  0.1995  0.5812  0.1580
  952MOL0     C28414   9.467  10.622   1.174 -0.6530 -0.1302  0.5522
  952MOL0     C28415   9.421  10.708   1.067  0.2209  0.1311 -0.1587
  952MOL0     O28416   9.358  10.817   1.107 -0.1026  0.0168 -0.1660
  952MOL0     C28417   9.265  10.879   1.024  0.1075 -0.2185  0.1790
  952MOL0     C28418   9.149  10.943   1.082  0.7301 -0.9116  0.3262
  952MOL0     C28419   9.050  11.013   1.011 -0.0163  0.8710  0.3732
  952MOL0     C28420   9.068  11.036   0.875 -0.0281  0.6419 -0.0718
  952MOL0     O28421   8.982  11.093   0.787  0.0367 -0.4985  0.2873
  952MOL0     C28422   8.892  11.194   0.822 -0.2496  0.5058  0.4513
  952MOL0     C28423   8.796  11.192   0.707 -0.6593 -0.0525  1.1091
  952MOL0     C28424   8.704  11.315   0.703  0.0176  0.0024 -1.4536
  952MOL0     C28425   8.614  11.324   0.578 -0.5447 -0.1369  0.8014
  952MOL0     C28426   8.513  11.450   0.560  0.7506 -0.3588 -0.0579
  952MOL0     C28427   8.414  11.461   0.683 -0.1720  0.3318 -0.9445
  952MOL0     C28428   8.291  11.541   0.660  0.2264  0.6980 -0.6183
  952MOL0     C28429   8.201  11.544   0.775  1.8445  1.0169 -0.2952
  952MOL0    Cl28430   8.124  11.381   0.779 -0.1604 -0.3522  0.0559
  952MOL0     C28431   9.182  10.990   0.816  0.5330 -0.2393  0.2865
  952MOL0     C28432   9.274  10.909   0.890 -0.2106  0.5217  0.1526
  952MOL0     O28433   9.437  10.680   0.954  0.0485 -1.1076 -0.5453
  952MOL0     C28434   9.419  10.646   1.304 -0.2424  0.1590  0.2769
  952MOL0     C28435   9.478  10.572   1.415  0.6035 -0.5028 -0.5450
  952MOL0     N28436  10.070   9.921   1.640 -0.0783  0.5808  0.3121
  952MOL0     N28437  10.176   9.857   1.637 -0.1222  0.1702  0.3529
  952MOL0     C28438  11.158  10.332   2.213  0.5397 -0.1653 -0.2628
  952MOL0     C28439  11.250  10.431   2.203  0.5094  0.7303  0.7516
  952MOL0     C28440  11.515  10.735   2.302  0.2594  0.1803 -0.0903
  952MOL0     C28441  11.555  10.773   2.175  0.5240 -0.6693  0.3164
  952MOL0     C28442  11.662  10.853   2.155 -0.4509  0.1694  0.4071
  952MOL0     C28443  11.754  10.876   2.255  0.0564  0.4888 -0.6525
  952MOL0     O28444  11.875  10.923   2.215  0.1515  0.1887  0.5252
  952MOL0     C28445  11.973  10.960   2.316 -0.8805  0.0107 -0.1544
  952MOL0     C28446  12.105  11.001   2.252 -0.0408  0.3993  0.2322
  952MOL0     C28447  12.158  10.874   2.184 -0.4762 -0.4909  0.3749
  952MOL0     C28448  12.289  10.920   2.115  0.6167 -0.2025  0.4225
  952MOL0     C28449  12.402  10.955   2.202 -0.0108 -0.6651 -0.2977
  952MOL0     C28450  12.495  10.988   2.273 -0.9167  0.7334  0.3942
  952MOL0     C28451  11.719  10.846   2.388  0.4445  0.1677 -0.0542
  952MOL0     C28452  11.599  10.770   2.409  0.0171  0.2038 -0.4175
  952MOL0     H28453  11.037  10.695   2.181  1.2917  0.7299  1.5340
  952MOL0     H28454  10.873  10.503   2.216 -0.1668 -2.3772  0.5107
  952MOL0     H28455  11.001  10.097   2.141 -2.2532  0.0303 -1.9124
  952MOL0     H28456  10.983  10.090   2.317  0.6805 -0.2804 -0.4672
  952MOL0     H28457  10.812   9.942   2.223 -0.4776 -0.6385 -0.5152
  952MOL0     H28458  10.745  10.073   2.303  2.9051  0.1825  0.4220
  952MOL0     H28459  10.612  10.067   2.125  0.0774  1.7381  2.3136
  952MOL0     H28460  10.717  10.200   2.066 -0.7330 -1.0989 -2.0876
  952MOL0     H28461  10.847  10.081   1.932  1.2692 -1.6613  0.1357
  952MOL0     H28462  10.799   9.917   1.990 -3.1242 -0.6541  2.8452
  952MOL0     H28463  10.618  10.098   1.830 -0.1028  0.4893  0.7433
  952MOL0     H28464  10.729   9.959   1.773 -1.5490 -5.5076  1.2266
  952MOL0     H28465  10.579   9.798   1.854 -3.0545 -0.0151  1.3718
  952MOL0     H28466  10.565   9.876   2.003 -0.6763 -0.0924  0.4199
  952MOL0     H28467  10.363   9.833   1.884  1.2606 -0.2711  0.4614
  952MOL0     H28468  10.369  10.015   1.898 -1.9887 -0.6966 -0.9181
  952MOL0     H28469  10.449   9.851   1.652 -0.0134 -0.1577  0.1822
  952MOL0     H28470  10.452  10.024   1.652 -0.4778 -0.5518 -2.2906
  952MOL0     H28471  10.266  10.169   1.736 -0.1117 -0.4913  0.2765
  952MOL0     H28472   9.910  10.095   1.773  0.8410 -0.1512 -0.2655
  952MOL0     H28473  10.003  10.251   1.760  2.7860 -1.1551  1.4987
  952MOL0     H28474   9.841  10.100   1.542 -0.2640  0.1969  0.7674
  952MOL0     H28475   9.970  10.216   1.515  1.2056  0.3819  2.0178
  952MOL0     H28476   9.818  10.386   1.651  0.2811 -0.1316 -0.5547
  952MOL0     H28477   9.714  10.252   1.693 -2.1267 -0.7727 -1.9452
  952MOL0     H28478   9.668  10.203   1.459  1.5489  0.2170 -1.4365
  952MOL0     H28479   9.787  10.318   1.414  0.7439 -0.6936  0.0382
  952MOL0     H28480   9.679  10.359   1.231 -0.0391 -0.1184 -0.3514
  952MOL0     H28481   9.514  10.428   0.962 -0.8924  0.5458  1.9729
  952MOL0     H28482   9.650  10.543   0.954  2.8991 -0.0309  1.3157
  952MOL0     H28483   9.681  10.389   1.029  0.0761  0.4441  0.1171
  952MOL0     H28484   9.143  10.920   1.188 -0.9396  1.0754  0.7222
  952MOL0     H28485   8.960  11.030   1.069 -0.5792 -0.6881 -0.0080
  952MOL0     H28486   8.836  11.181   0.915 -3.2717  2.6922 -0.8851
  952MOL0     H28487   8.950  11.286   0.835  0.8782 -0.3431  1.8423
  952MOL0     H28488   8.865  11.184   0.623  0.1523 -0.1527  1.7752
  952MOL0     H28489   8.737  11.100   0.715 -2.2357  0.8355  0.3040
  952MOL0     H28490   8.765  11.405   0.696  0.2894 -0.0255  0.1735
  952MOL0     H28491   8.646  11.318   0.795 -0.2386 -3.2031 -1.3929
  952MOL0     H28492   8.682  11.322   0.493  0.6235  0.8271  1.6771
  952MOL0     H28493   8.563  11.228   0.571 -0.0417 -0.2913 -1.4435
  952MOL0     H28494   8.454  11.447   0.468 -3.3827  1.3065  2.2605
  952MOL0     H28495   8.571  11.542   0.543  0.3371 -0.3900 -1.7803
  952MOL0     H28496   8.375  11.361   0.706 -3.2782  1.1269 -2.2846
  952MOL0     H28497   8.465  11.502   0.771 -0.1749 -0.0504 -0.7594
  952MOL0     H28498   8.240  11.510   0.568  2.1069  0.4283 -1.6265
  952MOL0     H28499   8.345  11.634   0.642 -0.7885  0.8619 -3.3613
  952MOL0     H28500   8.121  11.616   0.757 -2.2939 -3.2513 -0.9641
  952MOL0     H28501   8.248  11.571   0.870  0.0603  0.6061  0.7393
  952MOL0     H28502   9.192  11.024   0.713 -0.8253  1.2587  0.6265
  952MOL0     H28503   9.362  10.868   0.840 -0.1011 -0.0850  0.8271
  952MOL0     H28504   9.327  10.700   1.328  0.2709  0.3218  2.0288
  952MOL0     H28505   9.449  10.598   1.516 -0.6417  1.7137 -1.3996
  952MOL0     H28506  11.194  10.229   2.213 -1.7467 -1.0348  0.1873
  952MOL0     H28507  11.355  10.411   2.183  0.6629  0.5300  1.6949
  952MOL0     H28508  11.499  10.753   2.084  1.3429 -0.2773 -0.2775
  952MOL0     H28509  11.692  10.883   2.055 -3.4569 -0.8815 -0.9517
  952MOL0     H28510  11.926  11.048   2.359  1.0257  1.0977 -0.1735
  952MOL0     H28511  12.005  10.885   2.389 -0.8409  0.4109  0.2384
  952MOL0     H28512  12.169  11.049   2.327 -0.3558 -0.7223  1.2512
  952MOL0     H28513  12.085  11.072   2.172  0.1131 -0.7868 -0.8916
  952MOL0     H28514  12.089  10.849   2.103  2.5597  0.1306 -2.6325
  952MOL0     H28515  12.166  10.787   2.249 -0.2293 -3.0695 -2.8724
  952MOL0     H28516  12.259  10.989   2.036 -0.1022  1.8179  2.3658
  952MOL0     H28517  12.324  10.835   2.056  1.8545  0.8169 -0.3607
  952MOL0     H28518  12.580  10.998   2.337 -1.1599  2.3479  0.5087
  952MOL0     H28519  11.778  10.873   2.475 -0.5589  1.4890  0.2525
  952MOL0     H28520  11.551  10.759   2.505 -1.1423 -0.4406 -1.0491
  953MOL0     O28521   5.266   8.114  10.572  0.7237 -0.2815  0.1668
  953MOL0     C28522   5.264   8.238  10.575  0.2958 -0.0053  0.2332
  953MOL0     O28523   5.174   8.308  10.646 -0.0408 -0.0428  0.2495
  953MOL0     C28524   5.054   8.247  10.667 -0.5874 -0.6270 -0.1636
  953MOL0     C28525   5.028   8.179  10.789 -0.1925 -0.6575  0.3732
  953MOL0     C28526   4.904   8.124  10.813 -0.1447 -0.2830 -0.2266
  953MOL0     C28527   4.809   8.116  10.703 -0.0239  0.1431 -0.3127
  953MOL0     O28528   4.686   8.044  10.720  0.1804  0.1116  0.2686
  953MOL0     C28529   4.702   7.910  10.673 -0.0744  0.1210 -0.3032
  953MOL0     C28530   4.565   7.832  10.687  0.0451 -0.1366 -0.3109
  953MOL0     C28531   4.565   7.690  10.641 -0.6694  0.4359  0.5011
  953MOL0     C28532   4.472   7.600  10.724  0.0616  0.5298 -0.5814
  953MOL0     C28533   4.536   7.472  10.754  0.0366  0.7855  0.0595
  953MOL0     C28534   4.451   7.392  10.851  0.1175  0.1373 -0.9187
  953MOL0     C28535   4.513   7.273  10.925  0.1573 -0.6215 -0.1590
  953MOL0     C28536   4.583   7.174  10.833  0.1610 -0.0618 -0.3468
  953MOL0     N28537   4.640   7.060  10.909  0.7101 -0.2298  1.1550
  953MOL0     C28538   4.560   6.966  10.959 -0.1344 -0.1229  0.3802
  953MOL0     C28539   4.648   6.875  11.012  0.1082 -0.0108  0.5070
  953MOL0     C28540   4.620   6.745  11.085  0.4622 -0.0997 -0.8587
  953MOL0     C28541   4.480   6.690  11.067 -0.2442  0.2973 -0.1140
  953MOL0     C28542   4.456   6.633  10.920  0.0728  0.4183  0.5535
  953MOL0     C28543   4.315   6.596  10.868  1.1897  0.7804  0.4080
  953MOL0     O28544   4.248   6.484  10.933  0.1484  0.3828 -0.5769
  953MOL0     C28545   4.123   6.453  10.886  0.0441  0.5608  0.0039
  953MOL0     C28546   4.012   6.541  10.847  0.4969  0.3962  0.1928
  953MOL0     C28547   3.891   6.480  10.802 -0.0950 -0.3535  0.8858
  953MOL0     C28548   3.781   6.586  10.755  0.5657 -0.5418 -0.4124
  953MOL0     C28549   3.870   6.336  10.799 -0.6600 -1.1080  1.6425
  953MOL0     C28550   3.743   6.277  10.777 -0.4864 -0.1684 -0.5753
  953MOL0     O28551   3.747   6.140  10.772  0.1155 -0.8879  0.0197
  953MOL0     C28552   3.626   6.076  10.753 -0.3645 -0.9322  0.4041
  953MOL0     C28553   3.529   6.074  10.854 -0.6986 -0.3030 -0.6406
  953MOL0     C28554   3.416   5.998  10.834 -0.5402  0.0764 -1.2058
  953MOL0     C28555   3.395   5.927  10.725 -0.3982  1.2978 -0.1104
  953MOL0     O28556   3.279   5.852  10.726  0.5447  0.3579  0.0793
  953MOL0     C28557   3.268   5.735  10.638 -0.1523  0.3781  0.6711
  953MOL0     C28558   3.131   5.666  10.670 -0.6153 -0.4716  0.1305
  953MOL0     C28559   3.122   5.622  10.815  0.9311  0.4428  0.4180
  953MOL0     C28560   3.168   5.476  10.815 -0.5787  0.0779  0.1105
  953MOL0     C28561   3.205   5.427  10.955 -0.1894  0.0280 -0.1605
  953MOL0     C28562   3.211   5.268  10.967 -0.3897 -0.0120  0.0438
  953MOL0     C28563   3.321   5.209  10.875 -0.2398 -0.4763  0.4023
  953MOL0     C28564   3.468   5.257  10.894  0.3496  0.0813 -0.0259
  953MOL0    Cl28565   3.522   5.255  11.064 -0.2975  0.1323  0.3870
  953MOL0     C28566   3.490   5.929  10.621  0.8989  0.0073  0.6827
  953MOL0     C28567   3.603   6.000  10.635 -0.8242 -0.7662 -0.0446
  953MOL0     O28568   3.642   6.343  10.774  0.3790  0.2965  0.4017
  953MOL0     C28569   3.980   6.261  10.842  0.1527  0.7108  0.6626
  953MOL0     C28570   4.106   6.314  10.878 -0.0339  0.0161 -0.2270
  953MOL0     N28571   4.774   6.914  10.973  0.3010  0.4414 -0.0563
  953MOL0     N28572   4.767   7.016  10.902 -0.0025 -1.0519  0.7735
  953MOL0     C28573   4.842   8.172  10.583  0.1331  0.3013  0.5976
  953MOL0     C28574   4.957   8.240  10.566 -0.2637  1.1989 -0.1149
  953MOL0     C28575   5.389   8.303  10.526 -0.1867  0.1026 -0.0794
  953MOL0     C28576   5.413   8.441  10.521  0.0713 -1.1990  0.2650
  953MOL0     C28577   5.530   8.495  10.477 -0.4385  0.6325  0.6094
  953MOL0     C28578   5.642   8.412  10.438  0.2764 -0.5823  0.1760
  953MOL0     O28579   5.764   8.468  10.404  1.1821  0.1338  0.6471
  953MOL0     C28580   5.867   8.378  10.355 -0.4889  0.4686 -0.1795
  953MOL0     C28581   5.997   8.451  10.321 -0.3393  0.4179 -0.1847
  953MOL0     C28582   6.055   8.517  10.448  0.1250 -0.2401  0.0197
  953MOL0     C28583   6.199   8.572  10.428 -0.1403 -0.1847 -0.5389
  953MOL0     C28584   6.296   8.463  10.408 -0.3906 -0.4442  0.1127
  953MOL0     C28585   6.358   8.359  10.395  0.0840  1.1696  0.7932
  953MOL0     C28586   5.620   8.276  10.441  0.7223  0.0487  0.2339
  953MOL0     C28587   5.500   8.229  10.482 -0.6337  0.4024 -0.0184
  953MOL0     H28588   5.108   8.177  10.863  0.5187  2.5907 -0.1673
  953MOL0     H28589   4.870   8.060  10.895  2.5579 -0.4602  0.8511
  953MOL0     H28590   4.732   7.918  10.568 -0.1431  1.7648 -0.2191
  953MOL0     H28591   4.778   7.861  10.735  0.1960  0.5824 -0.2648
  953MOL0     H28592   4.534   7.824  10.791  0.8002 -1.7562 -0.1735
  953MOL0     H28593   4.491   7.885  10.626  0.7895 -0.0766 -1.1963
  953MOL0     H28594   4.528   7.686  10.539  0.7901 -0.7614 -0.0096
  953MOL0     H28595   4.667   7.650  10.643 -1.5669 -2.1690 -0.9597
  953MOL0     H28596   4.441   7.653  10.814  1.6394 -0.8635  0.8337
  953MOL0     H28597   4.386   7.581  10.658  0.6621  0.9907 -1.5291
  953MOL0     H28598   4.555   7.418  10.661  1.0779  1.2832 -0.0359
  953MOL0     H28599   4.628   7.497  10.809  0.6422  0.8142 -0.9379
  953MOL0     H28600   4.426   7.461  10.933  0.7500 -3.5756  2.7353
  953MOL0     H28601   4.358   7.352  10.810  0.3670 -3.4461  1.5008
  953MOL0     H28602   4.589   7.307  10.996 -0.1455 -1.0150  0.3612
  953MOL0     H28603   4.436   7.222  10.983 -0.2892  0.3930  0.1760
  953MOL0     H28604   4.656   7.240  10.785 -0.5282  0.3528 -0.8400
  953MOL0     H28605   4.508   7.140  10.762  0.3382 -0.3628 -0.3912
  953MOL0     H28606   4.452   6.966  10.965 -0.0906 -1.4529  4.4163
  953MOL0     H28607   4.692   6.671  11.046 -0.0928  0.4546 -3.1015
  953MOL0     H28608   4.645   6.758  11.190 -0.2433  1.9722 -0.9019
  953MOL0     H28609   4.405   6.764  11.097  0.6077  1.1197  0.0375
  953MOL0     H28610   4.448   6.604  11.127  0.8382 -1.3144 -1.7330
  953MOL0     H28611   4.511   6.541  10.901 -0.2219 -0.0946  2.0479
  953MOL0     H28612   4.477   6.718  10.854 -1.8002  1.2719  0.9812
  953MOL0     H28613   4.331   6.583  10.761  0.7112  0.8489  0.3276
  953MOL0     H28614   4.242   6.678  10.872  0.1408  0.1380 -2.8914
  953MOL0     H28615   4.009   6.648  10.862  0.7738  0.3059  0.8984
  953MOL0     H28616   3.712   6.545  10.680 -1.2936 -0.2420  1.0343
  953MOL0     H28617   3.717   6.617  10.839  0.2831  0.1703 -0.8754
  953MOL0     H28618   3.821   6.676  10.707 -1.3005  1.3862  1.4427
  953MOL0     H28619   3.532   6.128  10.948 -6.2491 -1.4236  0.5875
  953MOL0     H28620   3.348   6.006  10.918 -1.6057  0.0516 -2.0458
  953MOL0     H28621   3.270   5.778  10.538 -0.0580  0.7970  0.8486
  953MOL0     H28622   3.342   5.656  10.652 -2.6110 -2.4881 -1.4188
  953MOL0     H28623   3.055   5.744  10.657  1.0433  0.8543 -2.3312
  953MOL0     H28624   3.104   5.586  10.600 -1.2731  0.4059 -0.6577
  953MOL0     H28625   3.021   5.640  10.853  0.7093  2.4453 -0.9930
  953MOL0     H28626   3.186   5.676  10.885 -0.1825  0.0629  1.7740
  953MOL0     H28627   3.080   5.423  10.778 -0.7492  1.0850 -1.0001
  953MOL0     H28628   3.259   5.469  10.754  0.5192  2.6168  1.2900
  953MOL0     H28629   3.140   5.472  11.031 -0.7071 -0.2816 -0.4085
  953MOL0     H28630   3.305   5.470  10.965 -1.1086  2.3968 -0.6288
  953MOL0     H28631   3.232   5.243  11.072  1.1614 -0.4866 -0.3572
  953MOL0     H28632   3.114   5.227  10.939 -0.5469 -0.5434  1.2676
  953MOL0     H28633   3.290   5.211  10.770 -1.1451 -2.2303  0.6179
  953MOL0     H28634   3.333   5.104  10.900  1.1415 -0.4481 -0.0141
  953MOL0     H28635   3.477   5.361  10.859  1.6722  0.3478  1.0258
  953MOL0     H28636   3.539   5.198  10.836  0.3701 -0.2149  0.2957
  953MOL0     H28637   3.465   5.875  10.530 -3.3695 -1.1984  2.3307
  953MOL0     H28638   3.679   6.011  10.558 -1.9118  1.4783 -0.8969
  953MOL0     H28639   3.968   6.154  10.853 -2.1320  1.0237  1.7976
  953MOL0     H28640   4.187   6.249  10.909  1.5899  0.7981 -2.5476
  953MOL0     H28641   4.779   8.162  10.495 -0.0484 -0.8549  0.8384
  953MOL0     H28642   4.981   8.264  10.463 -1.4433 -0.1667 -0.7361
  953MOL0     H28643   5.328   8.506  10.536 -0.7070 -1.8425 -1.1864
  953MOL0     H28644   5.523   8.603  10.464 -0.2107  0.4925 -0.9539
  953MOL0     H28645   5.889   8.313  10.441 -0.4320  2.8449  1.7132
  953MOL0     H28646   5.825   8.313  10.278 -1.5233 -1.1611  1.6446
  953MOL0     H28647   5.972   8.522  10.242 -1.0902 -0.7275 -1.0133
  953MOL0     H28648   6.074   8.383  10.282  0.1282  0.0356  1.3197
  953MOL0     H28649   6.056   8.444  10.530  0.0323  2.4875  2.6550
  953MOL0     H28650   5.992   8.606  10.462  3.0140  2.7301 -3.6964
  953MOL0     H28651   6.240   8.637  10.507 -1.6838 -1.1153  1.1029
  953MOL0     H28652   6.189   8.639  10.342 -0.9732  3.5572  2.1818
  953MOL0     H28653   6.418   8.271  10.386  1.9744  2.4578  0.2765
  953MOL0     H28654   5.696   8.206  10.410  1.6757  0.7688  0.8666
  953MOL0     H28655   5.494   8.121  10.474 -0.9987  0.3728  0.6266
  954MOL0     O28656   0.451   4.156   4.724  0.6477  0.1475  0.3629
  954MOL0     C28657   0.484   4.068   4.803  0.6713  0.7826  0.3921
  954MOL0     O28658   0.416   4.018   4.909  0.9827 -0.4832  0.4328
  954MOL0     C28659   0.307   4.087   4.935  1.1913 -0.5733  0.1900
  954MOL0     C28660   0.307   4.225   4.967  0.3282 -0.3888 -0.2416
  954MOL0     C28661   0.184   4.288   4.978  0.0307 -0.0010  1.0417
  954MOL0     C28662   0.060   4.216   4.961 -0.2125  0.0410 -0.1325
  954MOL0     O28663  -0.059   4.287   4.975  0.7192  0.7300 -0.1089
  954MOL0     C28664  -0.181   4.236   4.930  0.7721  0.8531  0.2551
  954MOL0     C28665  -0.248   4.144   5.033  1.0643  0.1693 -0.0691
  954MOL0     C28666  -0.229   4.203   5.170 -0.1463  0.7923  0.1378
  954MOL0     C28667  -0.329   4.148   5.269 -1.0818  0.3091 -0.1921
  954MOL0     C28668  -0.311   4.179   5.416  1.0943 -0.0170 -0.3252
  954MOL0     C28669  -0.383   4.095   5.514  0.2837  0.2200 -1.3706
  954MOL0     C28670  -0.345   4.129   5.665 -0.1598  0.4485 -0.2219
  954MOL0     C28671  -0.371   4.018   5.777 -0.2245 -0.3074  0.3498
  954MOL0     N28672  -0.293   3.906   5.754 -0.5809  0.9929  0.3891
  954MOL0     C28673  -0.157   3.877   5.769  0.1140 -0.3155  0.6120
  954MOL0     C28674  -0.139   3.746   5.746  0.4169 -0.2425  0.1735
  954MOL0     C28675  -0.022   3.659   5.715 -0.0147 -0.6030 -0.1354
  954MOL0     C28676   0.072   3.640   5.834  0.1914  0.0701  0.8237
  954MOL0     C28677   0.194   3.553   5.787  0.1949 -0.0257 -0.3687
  954MOL0     C28678   0.299   3.543   5.905  1.1140  1.3668  0.2344
  954MOL0     O28679   0.411   3.472   5.843 -0.0477  0.2894  0.4981
  954MOL0     C28680   0.523   3.451   5.922  0.3599 -0.0228  0.1979
  954MOL0     C28681   0.543   3.503   6.051  0.1302  0.3263  0.0849
  954MOL0     C28682   0.657   3.475   6.126  0.0299  0.2157 -0.4941
  954MOL0     C28683   0.672   3.554   6.254 -0.0424  0.9400  0.4423
  954MOL0     C28684   0.747   3.379   6.072 -0.3314  0.0197  0.1995
  954MOL0     C28685   0.872   3.331   6.147  0.2401  0.3897  0.2292
  954MOL0     O28686   0.968   3.280   6.073  0.4298 -0.5868 -0.1589
  954MOL0     C28687   1.076   3.227   6.138 -0.6433  0.3618 -0.1412
  954MOL0     C28688   1.183   3.309   6.174  0.4215  0.3733  0.6044
  954MOL0     C28689   1.305   3.260   6.238 -0.1562  0.4345 -0.0747
  954MOL0     C28690   1.309   3.123   6.268  0.0339 -0.0165  0.7294
  954MOL0     O28691   1.419   3.051   6.307 -0.2656  0.0973 -0.1873
  954MOL0     C28692   1.541   3.122   6.322  0.2831  0.2458  0.0750
  954MOL0     C28693   1.648   3.010   6.354  0.0962  0.1033  0.2793
  954MOL0     C28694   1.790   3.046   6.377 -0.3941  0.1158 -0.1400
  954MOL0     C28695   1.890   2.935   6.397  0.1659  0.0239  0.2078
  954MOL0     C28696   2.037   2.978   6.424  0.5977  0.5898  0.1085
  954MOL0     C28697   2.138   2.868   6.409  0.5164  0.2855  0.0852
  954MOL0     C28698   2.270   2.926   6.444  0.3956 -0.5386  0.8931
  954MOL0     C28699   2.381   2.827   6.463  0.2680  0.2619  0.5734
  954MOL0    Cl28700   2.393   2.739   6.303  0.0911 -0.4909  0.6664
  954MOL0     C28701   1.200   3.042   6.237 -0.3138 -0.6170  0.5908
  954MOL0     C28702   1.091   3.095   6.184  0.6958  0.1510  0.6953
  954MOL0     O28703   0.872   3.332   6.270 -0.4210  0.6049  0.0854
  954MOL0     C28704   0.731   3.334   5.939  0.3497  0.2669 -0.2246
  954MOL0     C28705   0.621   3.372   5.861  0.5496  0.3174  0.4424
  954MOL0     N28706  -0.265   3.700   5.702 -0.2339 -0.7112  0.2104
  954MOL0     N28707  -0.353   3.791   5.720 -0.2458 -0.0781  0.5701
  954MOL0     C28708   0.063   4.078   4.946 -0.0151 -0.1437  0.7025
  954MOL0     C28709   0.192   4.011   4.936  0.9373  0.4847 -0.6293
  954MOL0     C28710   0.630   4.030   4.809  0.3079  0.0607  0.0539
  954MOL0     C28711   0.678   3.946   4.906  0.0935  0.5206  0.8224
  954MOL0     C28712   0.816   3.924   4.902  0.4769  0.1078 -0.2868
  954MOL0     C28713   0.899   3.971   4.800 -0.1070  0.8847  0.2795
  954MOL0     O28714   1.034   3.934   4.818  0.4897  0.7044 -0.5211
  954MOL0     C28715   1.124   3.963   4.712 -0.2266 -0.0164 -0.3184
  954MOL0     C28716   1.258   3.927   4.763  0.4091  0.0925  0.3452
  954MOL0     C28717   1.361   3.941   4.649  0.2526 -0.0916 -0.1455
  954MOL0     C28718   1.499   3.894   4.700  0.5107 -0.2037  0.0889
  954MOL0     C28719   1.597   3.927   4.594  0.6888 -1.0777 -0.8789
  954MOL0     C28720   1.674   3.951   4.503 -0.8453 -0.8775  0.5685
  954MOL0     C28721   0.846   4.050   4.705  1.4704  0.7003  0.2740
  954MOL0     C28722   0.712   4.071   4.699  0.5652 -0.1428 -0.5331
  954MOL0     H28723   0.403   4.274   4.970 -0.0299  0.7581 -3.3015
  954MOL0     H28724   0.196   4.395   4.990  0.5723  0.0360  0.2617
  954MOL0     H28725  -0.248   4.318   4.904 -3.3972 -2.5830 -0.9243
  954MOL0     H28726  -0.164   4.182   4.836  2.2818  2.3142 -0.3531
  954MOL0     H28727  -0.355   4.134   5.013  1.5722 -1.8138 -2.2613
  954MOL0     H28728  -0.209   4.042   5.035 -0.5125 -0.4562 -0.0585
  954MOL0     H28729  -0.127   4.189   5.206 -1.1347 -1.0641  2.4274
  954MOL0     H28730  -0.245   4.311   5.165  0.1271  0.8786  0.9714
  954MOL0     H28731  -0.431   4.174   5.237 -0.1943  1.7611 -1.9969
  954MOL0     H28732  -0.320   4.039   5.259  1.1152  0.0807  2.9166
  954MOL0     H28733  -0.204   4.185   5.434  0.9582 -0.7291  0.9164
  954MOL0     H28734  -0.345   4.282   5.430  1.8749  0.3905 -1.3191
  954MOL0     H28735  -0.488   4.101   5.483  0.0017 -4.1090 -1.9025
  954MOL0     H28736  -0.343   3.995   5.495  4.4077  1.6734 -1.4520
  954MOL0     H28737  -0.240   4.157   5.657  0.2812 -1.4755 -2.1959
  954MOL0     H28738  -0.413   4.215   5.674 -2.3927 -0.7959 -3.3083
  954MOL0     H28739  -0.478   3.996   5.771 -0.4197  0.6574  0.1202
  954MOL0     H28740  -0.362   4.053   5.880  1.7208 -0.1483  0.1744
  954MOL0     H28741  -0.080   3.950   5.792 -2.1966  2.2480  0.6852
  954MOL0     H28742  -0.060   3.567   5.669 -0.1644  1.4015 -4.5376
  954MOL0     H28743   0.020   3.720   5.634 -0.8426 -0.6716 -0.6304
  954MOL0     H28744   0.027   3.578   5.912  3.4823 -3.4181  0.2450
  954MOL0     H28745   0.108   3.730   5.885  0.1839 -0.4644  1.8075
  954MOL0     H28746   0.241   3.599   5.700 -2.0876 -1.0446 -2.2518
  954MOL0     H28747   0.172   3.451   5.752 -1.1346  0.3192 -0.6006
  954MOL0     H28748   0.252   3.495   5.991  3.7899 -4.0364 -0.9474
  954MOL0     H28749   0.331   3.645   5.931 -0.6115  1.5862  1.6753
  954MOL0     H28750   0.470   3.572   6.093  0.9888  0.8008  0.8373
  954MOL0     H28751   0.768   3.600   6.280  1.0206 -0.5312 -0.6500
  954MOL0     H28752   0.600   3.636   6.252 -0.0467  0.9849  1.6068
  954MOL0     H28753   0.648   3.497   6.345  0.5348 -0.1067 -0.0395
  954MOL0     H28754   1.178   3.413   6.142 -0.2128  0.4371  0.8955
  954MOL0     H28755   1.389   3.328   6.248 -0.0277  0.0113  2.0500
  954MOL0     H28756   1.576   3.170   6.230  0.5522 -1.4341 -0.7230
  954MOL0     H28757   1.531   3.194   6.404  1.2993  3.1284 -2.1428
  954MOL0     H28758   1.620   2.971   6.452  0.6205  1.9744  1.2289
  954MOL0     H28759   1.635   2.946   6.267  0.2068  2.0201 -1.2231
  954MOL0     H28760   1.797   3.111   6.465 -0.2111 -1.3882  0.9942
  954MOL0     H28761   1.832   3.117   6.306  1.5144 -0.0557  0.7425
  954MOL0     H28762   1.850   2.869   6.474 -1.4679  0.4336 -0.2509
  954MOL0     H28763   1.884   2.888   6.298 -1.5934 -0.4319  0.4982
  954MOL0     H28764   2.041   3.024   6.523  0.1395  1.0346 -0.0743
  954MOL0     H28765   2.067   3.054   6.351  0.5426  0.6481  0.1470
  954MOL0     H28766   2.114   2.783   6.474 -2.2265  2.5549  2.3025
  954MOL0     H28767   2.132   2.827   6.308 -1.3029 -0.6019  0.5091
  954MOL0     H28768   2.274   2.982   6.537 -1.6053  0.9043  0.1876
  954MOL0     H28769   2.304   2.988   6.360  0.4113 -0.4572  0.9593
  954MOL0     H28770   2.358   2.760   6.546  1.9711 -0.0588  0.8340
  954MOL0     H28771   2.475   2.880   6.478  0.7136  0.5545 -2.5165
  954MOL0     H28772   1.191   2.943   6.280  1.9882 -0.9312  0.4904
  954MOL0     H28773   1.004   3.030   6.174  0.6598 -0.1849  2.7419
  954MOL0     H28774   0.804   3.264   5.899  0.1730  0.3680 -0.7273
  954MOL0     H28775   0.595   3.335   5.763  4.0893  2.7241 -1.6049
  954MOL0     H28776  -0.032   4.026   4.934  0.0849  0.0266 -1.1776
  954MOL0     H28777   0.194   3.904   4.917  1.8688  0.8430 -2.7125
  954MOL0     H28778   0.612   3.905   4.982  0.1992 -0.3288  0.4639
  954MOL0     H28779   0.850   3.853   4.977  0.9124 -0.0969 -0.6700
  954MOL0     H28780   1.104   3.903   4.623  0.1563  0.7406 -0.9289
  954MOL0     H28781   1.123   4.067   4.677 -1.3135 -0.3178 -1.2478
  954MOL0     H28782   1.243   3.823   4.794 -0.0367 -0.2569 -0.9577
  954MOL0     H28783   1.298   3.994   4.839  3.3433  0.8181 -1.6533
  954MOL0     H28784   1.354   4.049   4.632 -0.9440  0.0954  1.3314
  954MOL0     H28785   1.333   3.887   4.558  0.1890 -1.8167  0.8484
  954MOL0     H28786   1.492   3.787   4.724 -3.0450  0.3192  2.1489
  954MOL0     H28787   1.517   3.952   4.790 -3.9067 -0.2773  1.2612
  954MOL0     H28788   1.739   3.991   4.428  1.7918  2.3908  4.1602
  954MOL0     H28789   0.915   4.100   4.638  0.1047  1.0661 -0.8959
  954MOL0     H28790   0.662   4.132   4.625 -0.6162 -0.0328  0.3258
  955MOL0     O28791   7.685   6.066   8.869  0.2188 -0.5373  0.6283
  955MOL0     C28792   7.670   6.002   8.762 -0.5380 -0.0445 -0.1446
  955MOL0     O28793   7.755   5.908   8.708 -0.9343  0.0476 -0.0353
  955MOL0     C28794   7.867   5.856   8.781 -0.2754  0.4257 -0.0555
  955MOL0     C28795   7.874   5.859   8.918  0.3758  0.3483 -0.3605
  955MOL0     C28796   7.994   5.822   8.986 -0.3989 -0.1705  0.0525
  955MOL0     C28797   8.105   5.775   8.920 -0.5071  0.2697 -0.7019
  955MOL0     O28798   8.216   5.739   8.989 -0.3794 -0.2307 -0.4985
  955MOL0     C28799   8.327   5.725   8.911 -0.0496  0.4583 -0.3811
  955MOL0     C28800   8.450   5.725   9.009 -0.4967 -0.9889 -0.3932
  955MOL0     C28801   8.590   5.688   8.948 -0.1866 -0.1867 -0.0420
  955MOL0     C28802   8.701   5.710   9.051 -0.0127  0.0726  0.8040
  955MOL0     C28803   8.830   5.649   8.980  0.3056  0.6194  0.3431
  955MOL0     C28804   8.949   5.678   9.074  1.0004  0.0479 -0.2548
  955MOL0     C28805   9.078   5.647   9.004 -0.3092  0.0482 -0.0860
  955MOL0     C28806   9.200   5.703   9.078  0.0027  0.3374 -0.5766
  955MOL0     N28807   9.334   5.642   9.050 -0.1222 -0.2363  0.4927
  955MOL0     C28808   9.394   5.550   9.139  0.0866  0.4277 -0.8995
  955MOL0     C28809   9.506   5.504   9.083  0.1973 -0.1023 -0.5902
  955MOL0     C28810   9.586   5.387   9.135 -0.2397  0.4010 -0.0703
  955MOL0     C28811   9.716   5.374   9.047  0.2284  0.4312 -0.3969
  955MOL0     C28812   9.814   5.279   9.121 -0.3549 -0.0800 -0.9472
  955MOL0     C28813   9.957   5.306   9.069  0.3445 -0.3743  0.3408
  955MOL0     O28814  10.029   5.192   9.114 -0.8094 -0.1072 -0.6127
  955MOL0     C28815  10.166   5.206   9.087  0.8924  0.0710 -0.0417
  955MOL0     C28816  10.211   5.228   8.955 -0.4499  0.6583  0.9597
  955MOL0     C28817  10.347   5.228   8.915  0.0934 -0.1192 -0.2122
  955MOL0     C28818  10.381   5.254   8.770 -0.0297  0.5463  0.7115
  955MOL0     C28819  10.448   5.202   9.006  0.6387 -0.4859 -0.3804
  955MOL0     C28820  10.592   5.194   8.976 -0.0529  0.2243 -0.3031
  955MOL0     O28821  10.681   5.145   9.078  0.4596 -0.3725 -0.2478
  955MOL0     C28822  10.812   5.153   9.050 -0.7883 -1.3198  0.0373
  955MOL0     C28823  10.891   5.214   9.146 -1.1315 -0.0781 -0.2942
  955MOL0     C28824  11.037   5.200   9.134 -0.1863 -0.1278 -0.6854
  955MOL0     C28825  11.096   5.132   9.022  0.2138  0.1989  0.8266
  955MOL0     O28826  11.227   5.117   8.989 -0.9330  0.2897 -0.3624
  955MOL0     C28827  11.331   5.202   9.032 -0.0637  0.3561  0.3829
  955MOL0     C28828  11.451   5.184   8.942  0.0509  0.9391  0.4006
  955MOL0     C28829  11.572   5.260   8.980 -0.3936  0.3056 -0.2774
  955MOL0     C28830  11.661   5.268   8.859 -0.1860  0.6984 -0.1569
  955MOL0     C28831  11.780   5.372   8.877  0.4281  0.1639  0.4707
  955MOL0     C28832  11.914   5.298   8.902  0.1069  0.0652  0.4371
  955MOL0     C28833  12.044   5.387   8.917 -0.3959  0.4227 -1.0317
  955MOL0     C28834  12.145   5.303   9.004 -0.0319 -0.1874 -0.2313
  955MOL0    Cl28835  12.207   5.156   8.925  0.0938 -0.5847 -0.1192
  955MOL0     C28836  11.006   5.077   8.925  0.6066 -0.8446  1.0651
  955MOL0     C28837  10.870   5.082   8.944 -0.0382  0.1148 -0.3512
  955MOL0     O28838  10.632   5.242   8.868  0.1632 -0.0475  0.2134
  955MOL0     C28839  10.400   5.186   9.140  0.4289 -1.1356  0.8536
  955MOL0     C28840  10.264   5.187   9.178 -0.6101 -0.7617  0.1701
  955MOL0     N28841   9.529   5.584   8.964  0.2522 -0.0752  0.0177
  955MOL0     N28842   9.418   5.660   8.938  0.3676 -0.5062  1.1739
  955MOL0     C28843   8.086   5.753   8.778  0.6447 -0.1224 -0.5552
  955MOL0     C28844   7.969   5.800   8.710 -0.7953  0.5354 -0.5811
  955MOL0     C28845   7.555   6.037   8.673 -0.3031  0.3611 -0.1527
  955MOL0     C28846   7.461   6.125   8.727 -0.1862  0.3518 -0.3206
  955MOL0     C28847   7.350   6.169   8.660  0.3443 -0.2533 -0.0409
  955MOL0     C28848   7.332   6.125   8.530 -0.2615  0.1402 -0.3958
  955MOL0     O28849   7.222   6.177   8.477  0.4391 -0.0942 -0.3766
  955MOL0     C28850   7.186   6.158   8.346  0.4705  0.1448  0.6027
  955MOL0     C28851   7.127   6.025   8.322  0.1110 -0.2968 -0.6079
  955MOL0     C28852   7.122   5.979   8.170  0.4866  0.3911  0.3316
  955MOL0     C28853   7.259   5.968   8.100 -0.0625 -0.4697  0.2593
  955MOL0     C28854   7.224   5.939   7.965  0.4513  0.8168  0.3539
  955MOL0     C28855   7.195   5.920   7.848  0.3599  0.4834 -0.3519
  955MOL0     C28856   7.424   6.046   8.463 -0.3291  0.8006  0.8344
  955MOL0     C28857   7.535   6.002   8.532 -1.0412  0.4173  0.3412
  955MOL0     H28858   7.794   5.887   8.986 -0.6575  0.9393 -1.7796
  955MOL0     H28859   7.992   5.833   9.093 -1.4960 -0.4545  0.0711
  955MOL0     H28860   8.321   5.628   8.861  2.8318 -0.0338  0.0819
  955MOL0     H28861   8.332   5.809   8.841 -0.1395 -0.3191 -1.3430
  955MOL0     H28862   8.449   5.828   9.045  0.0506 -0.3678 -2.0616
  955MOL0     H28863   8.419   5.662   9.093 -3.1799  1.6160  0.7792
  955MOL0     H28864   8.579   5.582   8.920 -0.9572 -0.4293  1.1244
  955MOL0     H28865   8.615   5.751   8.862 -0.1419  0.1170  0.1914
  955MOL0     H28866   8.719   5.811   9.089 -0.4697  0.2653  0.5167
  955MOL0     H28867   8.687   5.674   9.153 -0.1645  4.5489  2.6254
  955MOL0     H28868   8.816   5.541   8.967  2.0464  0.6178 -2.1303
  955MOL0     H28869   8.851   5.703   8.888  2.6077 -1.4147 -0.4460
  955MOL0     H28870   8.948   5.785   9.092  0.0526  0.0549 -0.3012
  955MOL0     H28871   8.940   5.627   9.171 -1.8039 -0.0292 -0.4584
  955MOL0     H28872   9.092   5.539   9.005 -1.1776 -0.0709  0.9427
  955MOL0     H28873   9.079   5.676   8.898  0.3449 -0.6464 -0.2761
  955MOL0     H28874   9.179   5.679   9.183 -2.1774 -0.3617 -1.1298
  955MOL0     H28875   9.193   5.809   9.054  0.6053  0.6904  0.6896
  955MOL0     H28876   9.347   5.508   9.228  0.1217  1.8970 -0.1539
  955MOL0     H28877   9.619   5.408   9.237 -0.9678  1.3848 -0.0256
  955MOL0     H28878   9.522   5.298   9.132  0.7351 -0.3471  0.6692
  955MOL0     H28879   9.768   5.469   9.031  1.4943 -0.4839 -2.0246
  955MOL0     H28880   9.686   5.330   8.952  0.7909 -1.8224  0.4150
  955MOL0     H28881   9.790   5.174   9.099 -1.6197  0.3816 -1.8849
  955MOL0     H28882   9.818   5.282   9.230 -2.4733 -0.0468 -0.8297
  955MOL0     H28883   9.982   5.400   9.118 -2.8811  1.8164 -1.8930
  955MOL0     H28884   9.947   5.319   8.961  0.4779  1.0939  0.4912
  955MOL0     H28885  10.139   5.235   8.874  0.2072  0.8237  0.3742
  955MOL0     H28886  10.419   5.355   8.752  2.0317 -0.6379 -2.3252
  955MOL0     H28887  10.448   5.171   8.748 -2.1745 -1.5219  1.4315
  955MOL0     H28888  10.291   5.258   8.707 -1.5290  0.5373  2.7539
  955MOL0     H28889  10.838   5.260   9.229 -2.4246 -1.7391 -0.1307
  955MOL0     H28890  11.103   5.256   9.199 -0.2813  0.9193 -1.4447
  955MOL0     H28891  11.294   5.305   9.027 -1.5007 -0.0887  1.2478
  955MOL0     H28892  11.361   5.182   9.135  0.2369 -0.7842  0.0884
  955MOL0     H28893  11.472   5.078   8.956 -0.3265  0.6202 -1.2145
  955MOL0     H28894  11.429   5.189   8.834 -0.5804  0.4714  0.4998
  955MOL0     H28895  11.644   5.222   9.053  2.5350  4.8296 -0.4180
  955MOL0     H28896  11.550   5.362   9.014 -1.5255 -0.7668  2.5674
  955MOL0     H28897  11.696   5.166   8.838 -0.9416  0.3470  0.2273
  955MOL0     H28898  11.603   5.295   8.770  1.8087 -3.2581 -3.0203
  955MOL0     H28899  11.751   5.457   8.940  1.9905  0.2685  1.0839
  955MOL0     H28900  11.806   5.418   8.781  2.9029 -0.2133  0.8934
  955MOL0     H28901  11.897   5.253   9.001  1.8377  0.0683  0.7720
  955MOL0     H28902  11.933   5.222   8.826  0.4693  0.5766  0.0192
  955MOL0     H28903  12.012   5.473   8.978 -1.2553  0.6886 -1.8206
  955MOL0     H28904  12.095   5.424   8.828  2.9846 -0.6703  0.3175
  955MOL0     H28905  12.088   5.279   9.095  0.0665 -0.5796 -0.2714
  955MOL0     H28906  12.233   5.363   9.028 -1.1500  2.0706 -1.4487
  955MOL0     H28907  11.034   5.032   8.830 -4.0256 -5.0748  1.3047
  955MOL0     H28908  10.812   5.050   8.858  0.1206 -2.8965  0.5294
  955MOL0     H28909  10.486   5.180   9.206  2.2627  0.5849 -1.2266
  955MOL0     H28910  10.234   5.169   9.281 -3.3426 -0.5687 -0.5287
  955MOL0     H28911   8.163   5.730   8.705  1.3341  1.2692 -0.2870
  955MOL0     H28912   7.966   5.799   8.601 -0.6337  1.7416 -0.6070
  955MOL0     H28913   7.462   6.164   8.829 -0.6817  1.9094 -0.8738
  955MOL0     H28914   7.282   6.230   8.718  1.7397  0.1439  1.2050
  955MOL0     H28915   7.107   6.231   8.324  0.3118 -0.0698  0.4534
  955MOL0     H28916   7.267   6.178   8.275 -0.1747  0.1323 -0.1564
  955MOL0     H28917   7.024   6.038   8.355 -0.9006 -2.8088 -2.4824
  955MOL0     H28918   7.187   5.952   8.377  2.7775  1.5416 -0.8676
  955MOL0     H28919   7.063   6.044   8.104 -0.8636 -2.2316 -1.2208
  955MOL0     H28920   7.078   5.879   8.174  0.3695  0.4771  2.7428
  955MOL0     H28921   7.331   5.903   8.150 -1.4391 -1.3738  1.1457
  955MOL0     H28922   7.302   6.069   8.098 -0.8070 -0.1089 -2.4128
  955MOL0     H28923   7.189   5.879   7.749 -0.6760 -0.3119  0.0266
  955MOL0     H28924   7.406   6.012   8.362 -0.3374  1.1711  0.7120
  955MOL0     H28925   7.599   5.927   8.487 -0.2566 -0.0638  2.1442
  956MOL0     O28926   4.597  11.095   0.419 -0.1924  0.0268 -0.5366
  956MOL0     C28927   4.684  11.125   0.505 -0.7526  1.1627  0.4191
  956MOL0     O28928   4.673  11.205   0.611 -0.2800  0.2204  0.1538
  956MOL0     C28929   4.543  11.204   0.659 -0.2858  1.1659  0.6769
  956MOL0     C28930   4.465  11.089   0.673  0.3427 -0.0467 -0.5157
  956MOL0     C28931   4.331  11.105   0.700  0.1954  0.3053  0.2783
  956MOL0     C28932   4.273  11.227   0.738  1.0075 -0.2868 -0.0395
  956MOL0     O28933   4.143  11.217   0.789  0.6287  0.2042 -0.8894
  956MOL0     C28934   4.047  11.322   0.756  0.1163 -0.4395 -0.0987
  956MOL0     C28935   3.900  11.288   0.773 -0.0993  0.1486  0.5835
  956MOL0     C28936   3.847  11.349   0.903  0.2575 -0.2452 -0.2844
  956MOL0     C28937   3.696  11.312   0.909  0.1934 -0.6520 -0.2923
  956MOL0     C28938   3.608  11.416   0.837  0.2374 -0.1477 -0.0882
  956MOL0     C28939   3.458  11.381   0.843  0.3848  0.3956 -0.1912
  956MOL0     C28940   3.371  11.474   0.766  0.1303  0.2921 -0.0421
  956MOL0     C28941   3.227  11.474   0.812  0.1492 -0.4412  0.0674
  956MOL0     N28942   3.161  11.342   0.793  0.1025 -0.1509 -0.0282
  956MOL0     C28943   3.043  11.298   0.849  0.8458 -0.2020 -0.3146
  956MOL0     C28944   3.008  11.185   0.781  0.2267  0.4581  1.0656
  956MOL0     C28945   2.896  11.096   0.811  0.6264  0.3234  0.4555
  956MOL0     C28946   2.932  10.978   0.904  0.3336  1.1211 -0.0971
  956MOL0     C28947   2.800  10.897   0.932  1.1477  0.6700  1.0528
  956MOL0     C28948   2.816  10.748   0.942  0.1131  0.7907 -0.2234
  956MOL0     O28949   2.707  10.679   1.011  0.1515 -0.2018  0.8242
  956MOL0     C28950   2.581  10.684   0.952 -0.0185  0.4782 -0.4544
  956MOL0     C28951   2.559  10.718   0.821  1.2716  0.4498 -0.2706
  956MOL0     C28952   2.437  10.725   0.765 -0.2552 -0.2869 -0.5131
  956MOL0     C28953   2.417  10.764   0.616 -0.3810  0.3079  0.1674
  956MOL0     C28954   2.330  10.714   0.851  1.4889  1.0303  0.8507
  956MOL0     C28955   2.187  10.735   0.804  0.8502  0.5565 -0.1721
  956MOL0     O28956   2.094  10.701   0.906  0.3876 -0.1613  0.4168
  956MOL0     C28957   1.966  10.753   0.875  0.3527 -1.1854 -0.0828
  956MOL0     C28958   1.870  10.689   0.801  0.0726 -0.6913  0.6561
  956MOL0     C28959   1.736  10.732   0.793  0.1743  0.0437  0.1641
  956MOL0     C28960   1.702  10.852   0.860  1.1451  0.7786  0.0826
  956MOL0     O28961   1.577  10.903   0.880  0.1547 -0.4238  0.0378
  956MOL0     C28962   1.471  10.831   0.819  0.0144  0.2413  0.1169
  956MOL0     C28963   1.330  10.891   0.819  0.5319  0.2443 -0.0637
  956MOL0     C28964   1.230  10.799   0.744  0.4028  0.9166 -0.3280
  956MOL0     C28965   1.094  10.797   0.808 -0.0516  0.4525 -0.1246
  956MOL0     C28966   0.988  10.719   0.714 -0.9966  0.5627  0.2882
  956MOL0     C28967   0.848  10.713   0.773  0.7266  0.0311  0.4935
  956MOL0     C28968   0.769  10.590   0.723 -0.4207 -0.1181  0.4584
  956MOL0     C28969   0.612  10.593   0.761  0.5667  1.1818 -0.0156
  956MOL0    Cl28970   0.523  10.722   0.675 -0.1224  0.2959 -0.5812
  956MOL0     C28971   1.801  10.921   0.931 -0.3211  0.6643 -0.8091
  956MOL0     C28972   1.932  10.867   0.949 -0.5127  0.4920 -0.0362
  956MOL0     O28973   2.156  10.765   0.690 -0.1694 -0.3197  0.6462
  956MOL0     C28974   2.347  10.672   0.982 -0.0391 -0.1478  0.0455
  956MOL0     C28975   2.477  10.654   1.030  0.8934 -0.1476  0.6747
  956MOL0     N28976   3.103  11.170   0.678  1.4642 -0.2233 -0.4505
  956MOL0     N28977   3.191  11.258   0.693 -0.0755 -0.0180 -0.0656
  956MOL0     C28978   4.351  11.346   0.728  0.0712  0.3959  0.9749
  956MOL0     C28979   4.484  11.325   0.685 -0.4762  0.1269  0.7678
  956MOL0     C28980   4.817  11.071   0.475 -0.3584 -0.1861 -0.8735
  956MOL0     C28981   4.855  11.032   0.350 -0.4661  0.8105  0.2419
  956MOL0     C28982   4.984  10.979   0.331 -0.7652  0.5947 -0.6741
  956MOL0     C28983   5.071  10.959   0.438 -1.0399 -0.2840  0.3468
  956MOL0     O28984   5.193  10.910   0.400  0.4237 -0.3676 -0.1309
  956MOL0     C28985   5.225  10.783   0.451  0.5067 -0.1571  0.3949
  956MOL0     C28986   5.376  10.758   0.433  0.9752 -0.2102 -0.0033
  956MOL0     C28987   5.460  10.865   0.494 -0.7091 -0.2426 -0.1228
  956MOL0     C28988   5.611  10.854   0.454 -1.0714  0.1881  0.4862
  956MOL0     C28989   5.647  10.894   0.315  1.2423  0.7006 -0.7454
  956MOL0     C28990   5.680  10.943   0.209  0.2993  0.9997 -0.4509
  956MOL0     C28991   5.033  11.008   0.567 -0.5488  0.3538 -0.3380
  956MOL0     C28992   4.905  11.048   0.586  0.3077 -0.5343  0.4852
  956MOL0     H28993   4.513  10.994   0.651 -0.3644 -0.1560 -1.6853
  956MOL0     H28994   4.263  11.022   0.715  0.7835  0.2734  3.4907
  956MOL0     H28995   4.076  11.414   0.809  3.6123 -1.5191  0.1585
  956MOL0     H28996   4.049  11.338   0.648 -0.8537 -0.6736 -0.1559
  956MOL0     H28997   3.850  11.324   0.683 -0.0045  0.0593  0.4941
  956MOL0     H28998   3.899  11.179   0.778  2.2508  0.0241 -0.3745
  956MOL0     H28999   3.899  11.297   0.983 -0.2995 -1.9759 -1.0053
  956MOL0     H29000   3.861  11.456   0.922  0.4962 -0.5073  1.0646
  956MOL0     H29001   3.683  11.212   0.866  0.9962 -0.6099 -0.6459
  956MOL0     H29002   3.665  11.312   1.014 -1.4773 -2.3454 -0.7366
  956MOL0     H29003   3.621  11.517   0.877 -0.7616  0.5846 -1.5196
  956MOL0     H29004   3.636  11.423   0.731  0.6776  4.2806  0.1236
  956MOL0     H29005   3.442  11.280   0.805 -2.8781  0.8068 -0.1462
  956MOL0     H29006   3.430  11.388   0.949  0.3267  1.6513 -0.2710
  956MOL0     H29007   3.414  11.574   0.775 -1.4207  1.2084 -2.0027
  956MOL0     H29008   3.381  11.454   0.659  1.7601 -2.1063  0.4790
  956MOL0     H29009   3.173  11.533   0.738  0.6082 -1.6104 -1.2495
  956MOL0     H29010   3.213  11.512   0.914  0.3947 -1.1006  0.3529
  956MOL0     H29011   2.982  11.344   0.927  1.0516  0.5256 -0.5665
  956MOL0     H29012   2.811  11.155   0.843  0.3176  0.1410 -0.0092
  956MOL0     H29013   2.857  11.067   0.712  0.2118  0.5682  0.5461
  956MOL0     H29014   2.976  11.007   1.000  1.4747  0.2896 -0.3535
  956MOL0     H29015   3.000  10.919   0.842 -2.8829  3.6002 -7.0933
  956MOL0     H29016   2.725  10.912   0.855  1.2139 -3.9898 -0.2501
  956MOL0     H29017   2.753  10.926   1.027 -1.0056 -0.3852  0.3627
  956MOL0     H29018   2.906  10.732   1.002  0.4258  0.8167 -0.6779
  956MOL0     H29019   2.837  10.710   0.841 -3.0325  1.5166 -1.2644
  956MOL0     H29020   2.648  10.734   0.762  1.2929  1.0397 -0.0850
  956MOL0     H29021   2.352  10.690   0.568  0.6142  0.1176 -0.9251
  956MOL0     H29022   2.372  10.864   0.603  0.3850  0.4934 -1.1941
  956MOL0     H29023   2.512  10.771   0.562 -0.2004 -1.1766  0.2498
  956MOL0     H29024   1.907  10.611   0.736 -1.5304 -1.3424  0.4835
  956MOL0     H29025   1.668  10.666   0.740 -1.7882 -0.0708  2.6243
  956MOL0     H29026   1.494  10.820   0.713  3.5444 -2.2910  0.9735
  956MOL0     H29027   1.456  10.734   0.867 -3.2252  0.1235 -0.8643
  956MOL0     H29028   1.290  10.918   0.917  0.2331  1.5883 -0.5323
  956MOL0     H29029   1.346  10.980   0.758  0.1269 -0.4014 -1.1346
  956MOL0     H29030   1.266  10.696   0.742 -0.8635  0.4544 -0.8452
  956MOL0     H29031   1.214  10.833   0.641  2.2394  3.9036  0.2612
  956MOL0     H29032   1.104  10.755   0.909  0.3390 -0.3833 -0.5062
  956MOL0     H29033   1.054  10.897   0.826 -1.9351 -0.2813 -0.0754
  956MOL0     H29034   1.030  10.622   0.687  1.9857  2.1353 -1.2980
  956MOL0     H29035   0.977  10.762   0.613 -0.3478 -1.4148 -0.6759
  956MOL0     H29036   0.845  10.715   0.883  0.1953  1.6124  0.4772
  956MOL0     H29037   0.793  10.795   0.725  0.4973  0.3951  1.3483
  956MOL0     H29038   0.808  10.504   0.777 -1.9156 -2.0783 -1.4321
  956MOL0     H29039   0.784  10.575   0.616 -2.4971 -1.3304  0.2911
  956MOL0     H29040   0.608  10.605   0.870  1.5091 -0.8352  0.2911
  956MOL0     H29041   0.561  10.500   0.734 -2.2840  1.6136  3.2157
  956MOL0     H29042   1.777  11.018   0.974 -1.3935  1.1650 -2.4402
  956MOL0     H29043   1.998  10.922   1.014  0.4766  1.7587 -2.0193
  956MOL0     H29044   2.270  10.656   1.057 -0.0811 -2.8700 -0.4908
  956MOL0     H29045   2.491  10.621   1.132 -0.0477 -0.4418  0.7170
  956MOL0     H29046   4.309  11.446   0.739  2.4364  1.8447 -1.6876
  956MOL0     H29047   4.531  11.418   0.655 -0.6357 -0.2476 -0.7515
  956MOL0     H29048   4.799  11.038   0.257  0.1208  0.7392 -0.1254
  956MOL0     H29049   5.023  10.963   0.230  3.4198 -2.1198  1.0856
  956MOL0     H29050   5.198  10.783   0.557  1.7017  4.5047  0.9200
  956MOL0     H29051   5.156  10.715   0.401 -2.2219  4.3464 -2.7056
  956MOL0     H29052   5.392  10.755   0.324  2.1925 -0.1078  0.1630
  956MOL0     H29053   5.410  10.661   0.468  0.9413 -0.5599 -0.8970
  956MOL0     H29054   5.438  10.857   0.601 -4.3357 -1.2470 -0.8270
  956MOL0     H29055   5.420  10.962   0.462  2.2414  1.2328  0.2170
  956MOL0     H29056   5.652  10.753   0.467  3.2520  2.0090  3.1141
  956MOL0     H29057   5.671  10.917   0.520 -1.6378  1.2304  0.0261
  956MOL0     H29058   5.707  10.967   0.109  0.2978  4.3507  0.2367
  956MOL0     H29059   5.107  10.991   0.645 -2.4330  1.1721  1.7558
  956MOL0     H29060   4.878  11.052   0.691  0.8902  1.2233  0.6020
  957MOL0     O29061   7.458  10.472   2.501 -0.6025 -0.2891 -0.8875
  957MOL0     C29062   7.518  10.517   2.399  0.0092  0.5522  0.8278
  957MOL0     O29063   7.579  10.640   2.392  0.5300 -0.0207  0.8246
  957MOL0     C29064   7.567  10.730   2.500 -0.5630 -0.7206  0.3131
  957MOL0     C29065   7.442  10.783   2.539  0.2793  0.6332  0.2317
  957MOL0     C29066   7.427  10.871   2.645 -0.0389 -0.0376  0.1155
  957MOL0     C29067   7.541  10.905   2.728  0.0120  0.7933  0.1641
  957MOL0     O29068   7.522  10.985   2.840  0.4945  0.0861 -0.0832
  957MOL0     C29069   7.488  10.914   2.959  0.3554  0.6049  0.8484
  957MOL0     C29070   7.460  11.006   3.068  0.1029 -0.1879 -0.4593
  957MOL0     C29071   7.351  11.102   3.030 -0.4642  0.2810  1.1127
  957MOL0     C29072   7.310  11.186   3.153 -1.0406 -0.5005  0.7152
  957MOL0     C29073   7.240  11.317   3.104  0.1390 -0.5208 -0.1491
  957MOL0     C29074   7.219  11.421   3.218 -0.1313  0.5596 -0.1107
  957MOL0     C29075   7.275  11.554   3.174 -0.4207 -0.5227 -0.7634
  957MOL0     C29076   7.184  11.619   3.064 -0.3688 -0.1615 -0.8793
  957MOL0     N29077   7.058  11.684   3.115  0.4326  0.4718 -0.1026
  957MOL0     C29078   7.059  11.801   3.187  0.1977 -0.2799 -0.3055
  957MOL0     C29079   6.929  11.829   3.215 -0.2432  0.3827  0.3457
  957MOL0     C29080   6.881  11.959   3.282 -0.4353 -0.2707 -0.6316
  957MOL0     C29081   6.762  12.030   3.220  0.2414  0.4002  0.3848
  957MOL0     C29082   6.634  11.979   3.279  0.2230  0.8763 -0.6128
  957MOL0     C29083   6.499  12.042   3.239 -0.3868 -0.2649 -1.0277
  957MOL0     O29084   6.485  12.169   3.311  0.2802  0.2046  1.0928
  957MOL0     C29085   6.380  12.258   3.279  0.1453  0.9427 -0.8008
  957MOL0     C29086   6.358  12.369   3.369  0.1592 -0.6758  0.4860
  957MOL0     C29087   6.262  12.465   3.336 -0.7075 -0.5779 -0.1106
  957MOL0     C29088   6.245  12.580   3.433 -0.1322 -1.0040 -0.4832
  957MOL0     C29089   6.181  12.443   3.229 -0.4504 -0.1581 -0.0418
  957MOL0     C29090   6.064  12.529   3.190  0.2809  0.2716 -0.4763
  957MOL0     O29091   5.973  12.477   3.100  1.2257  0.1438 -0.2467
  957MOL0     C29092   5.848  12.526   3.076  0.7950 -0.0273 -1.4313
  957MOL0     C29093   5.746  12.430   3.063  0.4509 -0.7524  0.1820
  957MOL0     C29094   5.620  12.474   3.025 -0.0594 -0.1139 -0.0490
  957MOL0     C29095   5.591  12.609   3.004  0.5800  0.2020 -0.1448
  957MOL0     O29096   5.464  12.660   2.961  0.4600  0.6248  0.2908
  957MOL0     C29097   5.402  12.592   2.847  0.4631 -0.5271 -0.0108
  957MOL0     C29098   5.288  12.678   2.806 -0.2737 -0.4940 -0.0066
  957MOL0     C29099   5.172  12.671   2.902  0.9888  0.6446 -0.0245
  957MOL0     C29100   5.037  12.707   2.835  0.5144 -0.6387 -0.2873
  957MOL0     C29101   5.044  12.831   2.755 -0.7011 -0.3538  0.3276
  957MOL0     C29102   4.898  12.867   2.718 -0.3939  1.0483  0.5509
  957MOL0     C29103   4.812  12.753   2.669  1.0822 -0.3736  0.0689
  957MOL0     C29104   4.679  12.796   2.596 -0.1404 -0.7004  0.0686
  957MOL0    Cl29105   4.583  12.899   2.708  0.3009 -0.3591 -0.0530
  957MOL0     C29106   5.685  12.710   3.042 -0.4510 -0.1348  0.6164
  957MOL0     C29107   5.817  12.662   3.072 -0.4807 -0.9817  0.0927
  957MOL0     O29108   6.049  12.636   3.245 -0.2083  0.0416 -0.2740
  957MOL0     C29109   6.196  12.334   3.142 -0.0784 -0.9623  0.4939
  957MOL0     C29110   6.294  12.239   3.169  0.4403 -0.0360 -0.2287
  957MOL0     N29111   6.859  11.727   3.168 -0.5226  0.3379 -0.1529
  957MOL0     N29112   6.938  11.635   3.122 -0.4885  1.0067  0.7766
  957MOL0     C29113   7.667  10.854   2.689 -0.6947 -0.0262 -0.3493
  957MOL0     C29114   7.680  10.768   2.581  0.0623 -0.5915  0.1151
  957MOL0     C29115   7.538  10.417   2.290  0.2908  0.3752 -0.0336
  957MOL0     C29116   7.624  10.454   2.180  0.3012  0.5916 -0.0953
  957MOL0     C29117   7.637  10.374   2.064  0.8718  0.3351 -0.0446
  957MOL0     C29118   7.566  10.257   2.046  0.1316  0.1070  0.4163
  957MOL0     O29119   7.605  10.182   1.935  0.0343 -0.3163 -0.3085
  957MOL0     C29120   7.521  10.082   1.882  1.4399  0.0124  0.7874
  957MOL0     C29121   7.389  10.115   1.814  0.0558 -0.0027 -1.0706
  957MOL0     C29122   7.388  10.254   1.744 -0.0619  0.0744 -0.2795
  957MOL0     C29123   7.489  10.282   1.646  0.2876  0.5211 -0.8570
  957MOL0     C29124   7.479  10.196   1.522  0.1970 -0.6661 -0.4023
  957MOL0     C29125   7.498  10.118   1.434  0.5484  0.4122  0.0386
  957MOL0     C29126   7.471  10.226   2.151 -1.1889  0.8176  1.1457
  957MOL0     C29127   7.463  10.302   2.273  0.1019  0.0147  0.6862
  957MOL0     H29128   7.361  10.764   2.470  1.0665  2.2441 -1.1975
  957MOL0     H29129   7.329  10.913   2.667 -0.6907 -1.0487 -0.7333
  957MOL0     H29130   7.416  10.836   2.932 -3.7266  3.8295  1.3199
  957MOL0     H29131   7.576  10.862   2.997 -0.4320 -3.3442 -2.0555
  957MOL0     H29132   7.429  10.948   3.156  1.0287 -0.1241 -0.0786
  957MOL0     H29133   7.555  11.052   3.097 -1.0135  1.2051  1.1865
  957MOL0     H29134   7.394  11.169   2.956  1.1710 -0.4067  1.4091
  957MOL0     H29135   7.268  11.044   2.988  0.8215  0.4140 -1.8492
  957MOL0     H29136   7.258  11.121   3.223  0.9334 -0.7170  2.0534
  957MOL0     H29137   7.407  11.217   3.192  0.1973  0.2335 -2.5947
  957MOL0     H29138   7.300  11.354   3.021  0.7991 -0.9956  0.1093
  957MOL0     H29139   7.139  11.291   3.069  0.7388  0.7667 -3.0948
  957MOL0     H29140   7.114  11.436   3.245 -0.1547 -0.4729  0.3890
  957MOL0     H29141   7.253  11.387   3.316 -2.7555 -1.4655  0.1932
  957MOL0     H29142   7.274  11.617   3.263 -0.0670 -0.8739 -0.5111
  957MOL0     H29143   7.376  11.561   3.133 -0.8194 -1.4799 -1.9647
  957MOL0     H29144   7.133  11.545   3.002 -2.8186  0.7591 -0.0915
  957MOL0     H29145   7.241  11.700   3.017 -0.2219  1.1623  1.4547
  957MOL0     H29146   7.145  11.860   3.215  0.3147  0.1049 -1.4534
  957MOL0     H29147   6.875  11.942   3.390 -2.2903 -2.8579 -1.0514
  957MOL0     H29148   6.966  12.028   3.283 -2.6035  2.6770  2.0579
  957MOL0     H29149   6.762  12.003   3.114  2.4453  3.5911 -0.5643
  957MOL0     H29150   6.767  12.139   3.234  0.1317  0.4648 -0.0591
  957MOL0     H29151   6.647  11.992   3.387 -0.5559  2.8503 -0.7030
  957MOL0     H29152   6.630  11.871   3.264 -2.9188  0.7487  0.4014
  957MOL0     H29153   6.420  11.971   3.265 -0.6906 -0.6341 -2.7889
  957MOL0     H29154   6.503  12.053   3.130  0.2235 -2.6983 -1.3138
  957MOL0     H29155   6.422  12.379   3.457 -0.2394 -1.1771  0.8369
  957MOL0     H29156   6.245  12.679   3.387  2.3916 -0.7825 -0.1793
  957MOL0     H29157   6.155  12.561   3.492  0.4968 -0.3370  0.7525
  957MOL0     H29158   6.333  12.578   3.499 -0.5202  0.6595  0.1166
  957MOL0     H29159   5.771  12.325   3.075 -1.3235 -1.4406 -1.5580
  957MOL0     H29160   5.545  12.402   2.995 -1.4984  0.9443  0.8792
  957MOL0     H29161   5.474  12.586   2.765  1.5549 -0.0364  0.8793
  957MOL0     H29162   5.359  12.497   2.878 -0.8676  0.0457 -0.0338
  957MOL0     H29163   5.322  12.782   2.796 -3.0932  0.5768  0.5934
  957MOL0     H29164   5.254  12.656   2.705  1.3908 -1.2540 -0.4405
  957MOL0     H29165   5.195  12.701   3.005 -0.8008  0.6948  0.3900
  957MOL0     H29166   5.156  12.563   2.909  0.4480  0.6695 -0.7862
  957MOL0     H29167   5.007  12.625   2.768  2.9129 -2.0053  0.1874
  957MOL0     H29168   4.958  12.719   2.909  0.4933 -2.0134 -0.0482
  957MOL0     H29169   5.103  12.803   2.668  1.7605 -1.1268  2.1283
  957MOL0     H29170   5.116  12.910   2.780  0.2016 -1.5229  1.5974
  957MOL0     H29171   4.855  12.918   2.805 -1.4393  3.2685 -1.1714
  957MOL0     H29172   4.904  12.941   2.638 -0.7760 -1.0776 -1.5388
  957MOL0     H29173   4.788  12.705   2.764  2.1887  2.0998  1.6954
  957MOL0     H29174   4.860  12.690   2.594 -0.1991  0.6639 -1.7138
  957MOL0     H29175   4.630  12.710   2.548  0.4196 -2.6516  2.7090
  957MOL0     H29176   4.703  12.864   2.514 -3.9555  2.0544  0.9400
  957MOL0     H29177   5.660  12.814   3.064 -0.2398 -0.1107  0.7458
  957MOL0     H29178   5.898  12.733   3.086  0.8950 -1.7724 -3.0593
  957MOL0     H29179   6.143  12.327   3.048  1.4710 -0.9007 -0.4105
  957MOL0     H29180   6.311  12.158   3.099  0.4792 -0.2061 -0.0228
  957MOL0     H29181   7.760  10.875   2.741  0.6218 -0.5848 -2.3623
  957MOL0     H29182   7.776  10.727   2.553  2.2779  2.5603  2.3398
  957MOL0     H29183   7.675  10.550   2.179  2.3783 -0.3866  2.0088
  957MOL0     H29184   7.696  10.407   1.979 -2.3215  0.9329 -2.2189
  957MOL0     H29185   7.586  10.024   1.816  1.5435  1.5389 -0.5091
  957MOL0     H29186   7.504  10.003   1.957 -0.2617 -0.2482  0.1791
  957MOL0     H29187   7.304  10.129   1.881 -1.3222  0.1677 -2.7621
  957MOL0     H29188   7.361  10.036   1.744  0.8067  0.8427 -2.3672
  957MOL0     H29189   7.384  10.329   1.823  2.1672  0.1479 -0.1704
  957MOL0     H29190   7.295  10.281   1.693  0.7552  0.6197 -1.5216
  957MOL0     H29191   7.590  10.288   1.689  0.2096  2.1504 -0.8135
  957MOL0     H29192   7.467  10.384   1.613  1.2156  0.7253 -0.8871
  957MOL0     H29193   7.514  10.056   1.349 -1.8196  1.7752 -1.4982
  957MOL0     H29194   7.425  10.129   2.138 -4.5896  2.3146  0.7861
  957MOL0     H29195   7.383  10.272   2.339  1.0009 -1.2183  1.2503
  958MOL0     O29196   8.731   5.717   0.102  0.1668  0.2774 -0.3031
  958MOL0     C29197   8.670   5.819   0.150 -0.1249 -0.4334  0.3780
  958MOL0     O29198   8.723   5.929   0.217 -0.2729 -0.1214  0.0695
  958MOL0     C29199   8.846   5.937   0.277 -0.8528 -0.4669  0.4620
  958MOL0     C29200   8.956   5.848   0.240  0.4224 -0.2298 -0.4182
  958MOL0     C29201   9.081   5.874   0.299 -0.7084 -0.4325 -0.5198
  958MOL0     C29202   9.105   5.981   0.381 -0.2051 -1.1325 -0.0236
  958MOL0     O29203   9.223   5.997   0.443  0.5972 -0.2932  0.9328
  958MOL0     C29204   9.233   6.056   0.573 -0.4725 -0.5839  0.6373
  958MOL0     C29205   9.321   5.965   0.662 -0.5931  0.1258  0.1160
  958MOL0     C29206   9.455   5.922   0.598 -0.3911  0.1424 -0.5555
  958MOL0     C29207   9.573   6.024   0.620  0.6150  0.5778  0.2958
  958MOL0     C29208   9.577   6.142   0.518  0.0214  0.0052  0.2347
  958MOL0     C29209   9.599   6.093   0.377 -0.5775  0.3732 -0.5194
  958MOL0     C29210   9.661   6.214   0.303  0.0673 -0.0938  0.6653
  958MOL0     C29211   9.579   6.340   0.277  0.8591 -0.4446  0.8941
  958MOL0     N29212   9.458   6.305   0.193 -0.4271 -0.2017  0.3895
  958MOL0     C29213   9.333   6.284   0.235  0.0266 -0.2535  1.0603
  958MOL0     C29214   9.253   6.302   0.127 -0.6289 -0.1678 -0.4791
  958MOL0     C29215   9.105   6.305   0.130 -0.6164  0.6726  0.7721
  958MOL0     C29216   9.049   6.197   0.030  0.4246  0.1942 -0.8090
  958MOL0     C29217   8.899   6.203   0.038  0.2451  0.5490  0.3838
  958MOL0     C29218   8.831   6.107  -0.060  0.1440  0.1826 -0.5197
  958MOL0     O29219   8.692   6.127  -0.051  0.4868  0.7746  0.3651
  958MOL0     C29220   8.611   6.055  -0.134  0.1285 -0.2911 -0.0588
  958MOL0     C29221   8.654   5.946  -0.219 -0.6251  0.6004 -0.6860
  958MOL0     C29222   8.565   5.872  -0.303 -0.4964  0.0289  0.8675
  958MOL0     C29223   8.616   5.758  -0.386 -0.2823 -1.3783  0.6399
  958MOL0     C29224   8.432   5.912  -0.313 -0.2898  0.6005 -0.0272
  958MOL0     C29225   8.329   5.853  -0.398  0.0534  0.7467  0.2163
  958MOL0     O29226   8.323   5.714  -0.395 -0.9364  0.1097  0.1906
  958MOL0     C29227   8.206   5.645  -0.431  1.1886 -1.1801  0.2317
  958MOL0     C29228   8.143   5.567  -0.333  0.0949 -0.2583 -0.2151
  958MOL0     C29229   8.032   5.496  -0.374 -0.7013  0.1865  0.0475
  958MOL0     C29230   7.972   5.519  -0.503 -0.7168 -0.7606  0.0647
  958MOL0     O29231   7.853   5.474  -0.546  0.1567 -0.0374 -0.4337
  958MOL0     C29232   7.777   5.396  -0.451 -0.5097  0.8279 -0.8065
  958MOL0     C29233   7.656   5.353  -0.525 -0.6453  0.2757  0.0547
  958MOL0     C29234   7.563   5.275  -0.437  0.5959  1.0211  0.0912
  958MOL0     C29235   7.468   5.190  -0.518 -0.5043 -0.2742 -0.1183
  958MOL0     C29236   7.361   5.140  -0.418  0.4666  0.8321 -0.1845
  958MOL0     C29237   7.389   5.001  -0.361 -0.2518  0.1830 -0.0719
  958MOL0     C29238   7.299   4.952  -0.248  0.1390  0.9838 -0.5869
  958MOL0     C29239   7.153   4.957  -0.283  0.6430 -0.0407  0.1045
  958MOL0    Cl29240   7.064   4.902  -0.130 -0.1522  0.1042  0.0472
  958MOL0     C29241   8.034   5.594  -0.602 -0.6507  0.0334 -0.6732
  958MOL0     C29242   8.151   5.655  -0.565  0.3904 -0.3914 -0.0542
  958MOL0     O29243   8.240   5.922  -0.450 -0.3412 -0.6056 -0.1014
  958MOL0     C29244   8.391   6.013  -0.227 -0.1824  0.4875  0.0279
  958MOL0     C29245   8.475   6.077  -0.134  0.3116  0.0804 -0.0188
  958MOL0     N29246   9.332   6.320   0.016 -0.8003 -0.0508  0.2439
  958MOL0     N29247   9.453   6.311   0.060  0.4292  0.3468 -0.1215
  958MOL0     C29248   8.998   6.070   0.404  0.1824 -0.1984 -0.9121
  958MOL0     C29249   8.876   6.045   0.355  0.0391  0.0320  0.1193
  958MOL0     C29250   8.529   5.817   0.121 -0.4496 -0.4828  0.3320
  958MOL0     C29251   8.457   5.915   0.188 -1.1089 -0.7705  0.1559
  958MOL0     C29252   8.321   5.935   0.153 -1.2282 -0.1068  0.7969
  958MOL0     C29253   8.256   5.851   0.060 -0.2651 -0.1429  0.5995
  958MOL0     O29254   8.127   5.888   0.032 -0.5776  0.0798 -0.4246
  958MOL0     C29255   8.061   5.812  -0.071 -0.1617  0.2593 -0.3245
  958MOL0     C29256   7.929   5.878  -0.124 -0.1275 -0.4490 -0.4161
  958MOL0     C29257   7.872   5.804  -0.250 -0.2387  0.4510  1.5144
  958MOL0     C29258   7.726   5.853  -0.272  0.4477  0.7702  0.7208
  958MOL0     C29259   7.660   5.792  -0.386  0.4623 -0.3595 -0.2469
  958MOL0     C29260   7.613   5.739  -0.483 -0.2537 -0.2394 -0.2092
  958MOL0     C29261   8.328   5.739   0.015 -0.3943  0.5197  0.2683
  958MOL0     C29262   8.465   5.726   0.043  0.4034  0.2214  0.3153
  958MOL0     H29263   8.932   5.760   0.181 -5.6087  0.6721  0.0627
  958MOL0     H29264   9.157   5.798   0.285  1.1057  0.6030  2.6698
  958MOL0     H29265   9.270   6.159   0.563  0.5169 -1.0762 -1.3331
  958MOL0     H29266   9.131   6.066   0.612  0.1581  1.7024  1.8622
  958MOL0     H29267   9.335   6.027   0.752  0.5730  0.1271 -0.0598
  958MOL0     H29268   9.264   5.875   0.687  0.5268 -1.2779 -2.1387
  958MOL0     H29269   9.496   5.829   0.638  0.8505 -0.1976 -2.5079
  958MOL0     H29270   9.445   5.896   0.493 -0.1260 -1.0967 -0.2929
  958MOL0     H29271   9.587   6.063   0.721  3.5113  0.2302  0.1163
  958MOL0     H29272   9.662   5.965   0.599  0.5920  0.8805 -0.7036
  958MOL0     H29273   9.490   6.205   0.536  0.6488  0.7151  0.8827
  958MOL0     H29274   9.665   6.203   0.544 -0.5414  1.0487 -0.2580
  958MOL0     H29275   9.657   6.000   0.382 -1.1856 -0.0309 -0.8066
  958MOL0     H29276   9.503   6.078   0.327 -0.3370  2.5223 -1.7236
  958MOL0     H29277   9.748   6.257   0.354  1.1903 -1.3936 -0.0909
  958MOL0     H29278   9.683   6.166   0.207  1.8053  1.8847 -0.0133
  958MOL0     H29279   9.637   6.418   0.227 -2.0834  0.2800 -1.6750
  958MOL0     H29280   9.552   6.388   0.372  0.9433 -0.3922  0.8913
  958MOL0     H29281   9.301   6.276   0.338 -3.0687  0.2796  0.2443
  958MOL0     H29282   9.073   6.283   0.232  3.1758 -1.7785  1.6470
  958MOL0     H29283   9.063   6.400   0.094 -1.8280  0.0957  0.6093
  958MOL0     H29284   9.082   6.100   0.066 -1.9275 -0.4724 -0.2842
  958MOL0     H29285   9.094   6.213  -0.068  0.4307  1.4486 -0.6273
  958MOL0     H29286   8.879   6.303   0.000 -1.7114 -0.1589 -0.6049
  958MOL0     H29287   8.862   6.194   0.141 -3.7956  0.3493 -0.9199
  958MOL0     H29288   8.865   6.005  -0.041 -1.8807 -0.3553  0.4638
  958MOL0     H29289   8.867   6.136  -0.160 -0.1400  2.2734 -0.0547
  958MOL0     H29290   8.756   5.912  -0.225 -0.4201  0.9443  0.5639
  958MOL0     H29291   8.586   5.660  -0.346  1.5819 -1.2374  2.5114
  958MOL0     H29292   8.591   5.771  -0.492  1.9008 -0.7224  0.1670
  958MOL0     H29293   8.725   5.758  -0.393 -0.3873 -0.9952 -2.2249
  958MOL0     H29294   8.190   5.545  -0.237  0.7529  1.2018 -0.1656
  958MOL0     H29295   7.971   5.439  -0.305 -0.4731 -0.2097 -0.0804
  958MOL0     H29296   7.839   5.311  -0.422 -1.1687 -0.4962 -3.0222
  958MOL0     H29297   7.745   5.453  -0.364  1.8109 -0.2835  0.8703
  958MOL0     H29298   7.608   5.444  -0.561 -3.4947 -1.6931 -1.5344
  958MOL0     H29299   7.701   5.303  -0.611 -0.2293  1.0088 -0.1603
  958MOL0     H29300   7.517   5.343  -0.365  1.6302 -0.2636  2.0713
  958MOL0     H29301   7.611   5.205  -0.368  0.1898  2.1129  1.5400
  958MOL0     H29302   7.418   5.254  -0.592 -2.5454  2.0594  2.9825
  958MOL0     H29303   7.513   5.105  -0.569 -3.1826 -0.7413 -1.9390
  958MOL0     H29304   7.262   5.133  -0.464 -0.2476 -0.3269  1.4238
  958MOL0     H29305   7.349   5.219  -0.343 -1.1301 -0.1553  0.6597
  958MOL0     H29306   7.387   4.925  -0.440  1.9940  0.8453 -0.8606
  958MOL0     H29307   7.490   4.993  -0.321 -0.3831 -3.5384 -0.1365
  958MOL0     H29308   7.316   5.017  -0.162 -1.4832  1.2861 -0.4744
  958MOL0     H29309   7.313   4.848  -0.217 -2.1467  0.4645 -1.1284
  958MOL0     H29310   7.115   4.891  -0.362 -0.7512 -2.9743  2.9741
  958MOL0     H29311   7.122   5.058  -0.311 -1.1352 -0.6970 -0.4706
  958MOL0     H29312   7.988   5.598  -0.700 -2.5618  1.8337  0.2238
  958MOL0     H29313   8.222   5.688  -0.640  1.3386 -0.2959  0.8567
  958MOL0     H29314   8.284   6.032  -0.220 -0.4889 -1.3250  0.5941
  958MOL0     H29315   8.424   6.143  -0.064  1.6241  0.0376  0.9977
  958MOL0     H29316   9.011   6.151   0.475  0.4129 -0.0952 -1.0724
  958MOL0     H29317   8.784   6.096   0.384  0.3824  0.3664  0.6515
  958MOL0     H29318   8.511   5.979   0.257  1.0681 -0.2563 -1.8901
  958MOL0     H29319   8.259   6.003   0.210  0.5999  1.8115  0.6580
  958MOL0     H29320   8.131   5.812  -0.155  1.7363 -1.5570  1.1608
  958MOL0     H29321   8.036   5.711  -0.037  0.0455 -0.0707 -1.1158
  958MOL0     H29322   7.937   5.982  -0.156 -0.8761 -0.4039 -0.4923
  958MOL0     H29323   7.857   5.877  -0.042 -0.6917 -1.8981 -0.8876
  958MOL0     H29324   7.884   5.697  -0.232 -0.9784  0.1520  0.3355
  958MOL0     H29325   7.932   5.818  -0.341 -2.0754 -1.5846 -0.1025
  958MOL0     H29326   7.723   5.960  -0.295  3.4717  1.1286  1.5054
  958MOL0     H29327   7.665   5.817  -0.190 -1.2927 -4.0999 -2.3008
  958MOL0     H29328   7.591   5.693  -0.577  5.2901  1.2649 -2.6357
  958MOL0     H29329   8.280   5.666  -0.051  2.2891  0.1696 -1.4348
  958MOL0     H29330   8.522   5.646  -0.003  0.3119  1.1921 -1.6011
  959MOL0     O29331   6.195   4.645   7.946  0.3876 -0.3248 -0.4022
  959MOL0     C29332   6.104   4.568   7.984 -0.1623 -0.9237 -0.6192
  959MOL0     O29333   5.972   4.601   7.970 -0.6081 -0.2162  0.4629
  959MOL0     C29334   5.911   4.705   7.891  0.1514 -0.0075 -0.0947
  959MOL0     C29335   5.964   4.736   7.764 -0.1719 -0.0903 -0.2268
  959MOL0     C29336   5.903   4.845   7.697  0.1964  0.7682  0.5408
  959MOL0     C29337   5.806   4.920   7.751  0.4085  0.8306  0.4527
  959MOL0     O29338   5.762   5.016   7.670 -0.1241  0.2829 -0.4444
  959MOL0     C29339   5.628   5.064   7.671 -0.4451  0.0662 -0.0977
  959MOL0     C29340   5.542   4.967   7.591 -0.7544  1.0164 -0.0496
  959MOL0     C29341   5.393   5.010   7.593  0.4341 -1.1871 -0.0689
  959MOL0     C29342   5.292   4.917   7.519  0.1928 -0.0703 -0.1640
  959MOL0     C29343   5.144   4.964   7.530 -1.1881  0.1651 -0.8738
  959MOL0     C29344   5.047   4.844   7.552 -0.0388  0.2840  0.8237
  959MOL0     C29345   5.032   4.812   7.701 -0.8511  0.4223  0.0346
  959MOL0     C29346   4.997   4.666   7.721 -0.3346 -0.3646  0.0521
  959MOL0     N29347   4.915   4.658   7.845  0.3914 -0.3210  0.1757
  959MOL0     C29348   4.778   4.681   7.859 -0.4025  0.0424 -0.4351
  959MOL0     C29349   4.749   4.660   7.991 -1.3914  0.0654  0.3646
  959MOL0     C29350   4.613   4.682   8.046 -0.3112  0.1217 -0.1058
  959MOL0     C29351   4.606   4.757   8.177  0.5902 -0.8491  0.3242
  959MOL0     C29352   4.664   4.696   8.304  0.8118  1.2749  0.2823
  959MOL0     C29353   4.666   4.799   8.410  0.1733 -0.4650  0.1002
  959MOL0     O29354   4.746   4.750   8.523  0.1902 -0.6144  0.0352
  959MOL0     C29355   4.871   4.796   8.546  1.3253 -0.3995  0.2925
  959MOL0     C29356   4.957   4.842   8.447  0.9672  0.3517 -0.1887
  959MOL0     C29357   5.082   4.897   8.480 -0.3668 -0.0119  0.2408
  959MOL0     C29358   5.163   4.929   8.363 -1.0467  0.2253 -0.1320
  959MOL0     C29359   5.118   4.933   8.615 -0.1941  0.5304  1.0783
  959MOL0     C29360   5.237   5.005   8.645 -0.3387 -0.0206 -0.0093
  959MOL0     O29361   5.298   4.982   8.764  0.0451  0.6239 -0.3339
  959MOL0     C29362   5.414   5.045   8.799  0.5235 -0.5808  0.5064
  959MOL0     C29363   5.442   5.178   8.767 -0.9966 -0.6967 -0.6559
  959MOL0     C29364   5.554   5.238   8.819 -0.4658  0.5246 -0.9727
  959MOL0     C29365   5.660   5.163   8.872 -0.4571 -0.5014 -0.8379
  959MOL0     O29366   5.783   5.232   8.886 -0.1345 -0.1497 -0.4215
  959MOL0     C29367   5.905   5.152   8.870 -0.1047  0.7599 -0.3744
  959MOL0     C29368   5.925   5.151   8.717 -0.3518  0.1783 -0.2684
  959MOL0     C29369   5.898   5.285   8.640  0.5543  0.9512  0.0010
  959MOL0     C29370   5.910   5.258   8.491  1.3965 -0.4585  0.2006
  959MOL0     C29371   5.920   5.386   8.407  0.2258  0.1195 -0.3567
  959MOL0     C29372   5.786   5.465   8.417  0.6688 -1.4469  0.3153
  959MOL0     C29373   5.784   5.598   8.343 -0.0523 -0.1618  0.0026
  959MOL0     C29374   5.875   5.709   8.413  0.3043  0.1029  0.0290
  959MOL0    Cl29375   5.818   5.718   8.583 -0.0846 -0.2842 -0.2767
  959MOL0     C29376   5.629   5.032   8.909 -0.0628  0.1632  0.4401
  959MOL0     C29377   5.508   4.972   8.868 -1.3442 -0.4373  0.1324
  959MOL0     O29378   5.284   5.074   8.555 -0.2158 -0.2054 -0.5786
  959MOL0     C29379   5.034   4.898   8.723  0.2794  0.5096  0.4915
  959MOL0     C29380   4.922   4.821   8.679  1.3688 -0.1479  0.0499
  959MOL0     N29381   4.863   4.616   8.055 -0.2270 -0.2864 -0.1517
  959MOL0     N29382   4.963   4.610   7.963 -0.2233  1.2406 -0.0811
  959MOL0     C29383   5.755   4.882   7.883  0.1647 -0.7037  0.9462
  959MOL0     C29384   5.811   4.776   7.949  0.1464 -0.0221 -0.1139
  959MOL0     C29385   6.133   4.445   8.059 -0.1129  0.7217  0.2051
  959MOL0     C29386   6.248   4.371   8.034 -0.5209 -0.0542 -0.5189
  959MOL0     C29387   6.276   4.247   8.085 -0.6383 -0.1552 -0.2446
  959MOL0     C29388   6.184   4.182   8.175 -0.0024 -0.4222 -0.3711
  959MOL0     O29389   6.214   4.057   8.211  0.0656 -0.9323  0.8549
  959MOL0     C29390   6.134   3.971   8.292 -0.5314  1.2054 -0.4864
  959MOL0     C29391   6.135   4.021   8.439  0.0788  1.1944  0.6196
  959MOL0     C29392   6.045   3.932   8.534  0.3761  0.2758 -0.8742
  959MOL0     C29393   6.034   3.990   8.679 -0.1189 -0.4368 -0.2432
  959MOL0     C29394   6.163   3.985   8.745  0.3801  1.2682 -0.0406
  959MOL0     C29395   6.283   3.970   8.790 -0.1762 -0.0853 -0.6770
  959MOL0     C29396   6.061   4.242   8.197  0.0714 -0.8097 -0.1867
  959MOL0     C29397   6.039   4.378   8.147  0.4255  0.9068  0.2584
  959MOL0     H29398   6.036   4.666   7.722 -0.5874 -0.3815 -0.4606
  959MOL0     H29399   5.918   4.864   7.591 -0.8925 -1.7388 -0.1563
  959MOL0     H29400   5.591   5.064   7.774  3.5011  0.3268  1.4622
  959MOL0     H29401   5.622   5.167   7.633  1.3269  1.0206  2.0111
  959MOL0     H29402   5.585   4.960   7.491  1.2379  0.1274  0.8078
  959MOL0     H29403   5.543   4.867   7.635 -0.9321  0.9718 -0.1451
  959MOL0     H29404   5.365   5.020   7.699  1.5248 -3.0653  0.4566
  959MOL0     H29405   5.387   5.112   7.555  0.6241 -1.4737 -0.8883
  959MOL0     H29406   5.324   4.906   7.415  1.5847  1.9530  0.0015
  959MOL0     H29407   5.298   4.817   7.563  1.1908  0.1549  0.2310
  959MOL0     H29408   5.132   5.036   7.610  2.6618  0.5900 -0.4780
  959MOL0     H29409   5.118   5.023   7.442 -1.4432  1.3787 -0.0040
  959MOL0     H29410   4.946   4.874   7.523  1.3890  5.6035  0.2919
  959MOL0     H29411   5.069   4.758   7.489 -1.4095  0.2341  0.3813
  959MOL0     H29412   5.119   4.837   7.762 -0.6033 -0.6889  0.1460
  959MOL0     H29413   4.948   4.871   7.740 -2.9628 -0.4246 -2.9069
  959MOL0     H29414   5.084   4.599   7.721  0.6839  0.8856 -1.8152
  959MOL0     H29415   4.941   4.633   7.633  0.7329 -0.5554 -0.5808
  959MOL0     H29416   4.716   4.702   7.773  1.3410  0.7972 -1.5492
  959MOL0     H29417   4.547   4.742   7.982 -3.1528 -1.2454  1.3501
  959MOL0     H29418   4.575   4.581   8.063  0.9943  0.1265  3.6969
  959MOL0     H29419   4.501   4.783   8.198  0.4627 -1.7478  0.8438
  959MOL0     H29420   4.656   4.851   8.154 -1.2891  0.0423 -0.3845
  959MOL0     H29421   4.765   4.658   8.285  0.3335  0.7219 -1.3482
  959MOL0     H29422   4.605   4.610   8.335 -1.6692  3.0397  0.7021
  959MOL0     H29423   4.571   4.845   8.438  1.2259  1.2499  0.9665
  959MOL0     H29424   4.719   4.885   8.370 -0.3471 -0.5907 -0.9074
  959MOL0     H29425   4.933   4.816   8.344  0.4199 -2.3372  0.5208
  959MOL0     H29426   5.269   4.927   8.390 -1.2696 -2.2473  0.7895
  959MOL0     H29427   5.160   4.851   8.287  0.0022 -0.2657  0.3192
  959MOL0     H29428   5.137   5.026   8.318 -1.2408  1.5977  2.6675
  959MOL0     H29429   5.375   5.239   8.708 -4.9841  0.6009  4.4795
  959MOL0     H29430   5.576   5.344   8.807 -2.3149  1.0427 -0.1684
  959MOL0     H29431   5.992   5.203   8.910  0.0416  1.0009 -0.9817
  959MOL0     H29432   5.899   5.051   8.911 -1.2379  0.5131 -1.0815
  959MOL0     H29433   6.029   5.121   8.699 -0.4559 -0.2409 -0.1746
  959MOL0     H29434   5.861   5.072   8.679 -0.3031 -0.1777  0.3761
  959MOL0     H29435   5.964   5.366   8.670  1.4075  0.2611  0.0299
  959MOL0     H29436   5.796   5.316   8.664 -0.8624 -1.7282 -1.9907
  959MOL0     H29437   6.003   5.206   8.465  0.0567 -1.8042 -2.2808
  959MOL0     H29438   5.824   5.200   8.457  3.0403 -2.2260 -1.1470
  959MOL0     H29439   5.949   5.351   8.307  1.0585 -2.7495  0.7846
  959MOL0     H29440   6.009   5.444   8.432  1.6700 -1.8550 -0.6445
  959MOL0     H29441   5.702   5.404   8.382 -1.4795  0.5157  1.7307
  959MOL0     H29442   5.761   5.485   8.521 -0.2345 -0.8185 -0.0066
  959MOL0     H29443   5.679   5.629   8.344  0.4536  1.6777 -0.2482
  959MOL0     H29444   5.814   5.573   8.241  3.6671 -2.3759  1.4534
  959MOL0     H29445   5.867   5.805   8.363 -0.8567  0.6704  1.2428
  959MOL0     H29446   5.980   5.679   8.416  0.3369  0.2588  0.4730
  959MOL0     H29447   5.713   4.973   8.943  0.3852 -0.5849 -1.7786
  959MOL0     H29448   5.490   4.866   8.883 -2.5736 -0.3391 -0.5597
  959MOL0     H29449   5.046   4.930   8.826  0.7067  1.8907  0.0386
  959MOL0     H29450   4.862   4.787   8.763  1.5306 -1.1712 -0.2474
  959MOL0     H29451   5.677   4.932   7.939  1.1040  0.3687  1.3473
  959MOL0     H29452   5.773   4.754   8.049 -0.7840  0.1364 -0.4197
  959MOL0     H29453   6.312   4.400   7.952 -1.0524 -0.2436 -1.0062
  959MOL0     H29454   6.363   4.190   8.055  0.7784  1.1929  1.0970
  959MOL0     H29455   6.029   3.977   8.263 -1.4049 -1.5339  1.6367
  959MOL0     H29456   6.175   3.869   8.289 -2.5656  0.2522  1.3539
  959MOL0     H29457   6.104   4.125   8.447  0.1193  1.1910  0.8491
  959MOL0     H29458   6.235   4.024   8.485  1.0598 -0.5178 -1.2322
  959MOL0     H29459   6.090   3.832   8.532  0.3797  0.2768 -0.8356
  959MOL0     H29460   5.948   3.932   8.484 -0.0037  3.1984 -0.2923
  959MOL0     H29461   5.960   3.937   8.740 -1.1113  2.1944  0.9844
  959MOL0     H29462   6.002   4.093   8.664 -0.3818 -0.3961  0.5528
  959MOL0     H29463   6.384   3.957   8.822 -0.0101 -0.4967 -1.3619
  959MOL0     H29464   5.983   4.203   8.262 -1.1334  2.5599  0.5901
  959MOL0     H29465   5.946   4.424   8.179 -0.0058  0.5513 -0.4607
  960MOL0     O29466  10.129   5.005   3.722 -0.3998 -0.5912 -0.0526
  960MOL0     C29467  10.148   4.901   3.792  0.6020 -0.4144 -0.3984
  960MOL0     O29468  10.047   4.839   3.875 -0.6317 -0.1416  0.2763
  960MOL0     C29469   9.917   4.877   3.886  0.5337 -0.3940  0.3926
  960MOL0     C29470   9.830   4.788   3.950  0.4562  0.3306  0.1370
  960MOL0     C29471   9.702   4.819   3.975 -0.1819  0.5955 -0.8418
  960MOL0     C29472   9.640   4.931   3.928 -0.5976 -0.6053  0.5937
  960MOL0     O29473   9.512   4.958   3.966 -0.3383  0.2155  0.6671
  960MOL0     C29474   9.417   4.983   3.853  0.3896  0.0344 -0.0591
  960MOL0     C29475   9.267   4.970   3.886 -0.2290  0.1297  0.4240
  960MOL0     C29476   9.216   5.110   3.946 -0.0499 -0.2887 -0.8522
  960MOL0     C29477   9.198   5.222   3.845 -0.0074 -0.1613 -0.7812
  960MOL0     C29478   9.099   5.204   3.740  0.2083 -0.1047  0.2696
  960MOL0     C29479   8.963   5.158   3.791  0.0427  0.3065  0.1423
  960MOL0     C29480   8.849   5.140   3.689  0.2549  0.0967  0.6097
  960MOL0     C29481   8.866   5.008   3.613 -0.5477 -0.6006 -0.7856
  960MOL0     N29482   8.854   5.019   3.462  0.3374  0.3875 -0.2701
  960MOL0     C29483   8.737   5.003   3.398 -0.0286  0.7312 -1.0541
  960MOL0     C29484   8.770   5.033   3.264  1.6360  0.4092 -1.3682
  960MOL0     C29485   8.670   5.046   3.149 -0.0890  0.3298  0.3360
  960MOL0     C29486   8.563   5.153   3.178  0.3216  0.1967 -0.2395
  960MOL0     C29487   8.622   5.296   3.153  0.0134  0.9252 -0.8141
  960MOL0     C29488   8.724   5.338   3.262 -0.2363 -0.1993 -0.0571
  960MOL0     O29489   8.707   5.482   3.280  0.0711 -0.0804 -0.1781
  960MOL0     C29490   8.780   5.549   3.380 -0.3386  0.6597  0.0842
  960MOL0     C29491   8.734   5.672   3.422 -0.4558 -0.8589 -0.4724
  960MOL0     C29492   8.801   5.757   3.506  0.7636 -0.6555 -1.0812
  960MOL0     C29493   8.730   5.893   3.531  0.0932 -0.0682 -0.5385
  960MOL0     C29494   8.916   5.711   3.571  0.9438 -0.1256 -0.8519
  960MOL0     C29495   8.984   5.780   3.685  1.0429  1.0934 -0.1367
  960MOL0     O29496   9.118   5.735   3.699 -0.0271 -0.1939 -0.4367
  960MOL0     C29497   9.200   5.785   3.803  1.2026 -0.4868  0.9134
  960MOL0     C29498   9.161   5.854   3.915 -0.8949 -0.5996 -1.0075
  960MOL0     C29499   9.258   5.889   4.012  0.5793  0.0977  1.3612
  960MOL0     C29500   9.385   5.837   4.002  0.5143 -0.0403 -0.2981
  960MOL0     O29501   9.486   5.840   4.101 -0.9972 -0.1858 -0.2767
  960MOL0     C29502   9.443   5.814   4.234 -0.1149  0.1054 -0.1240
  960MOL0     C29503   9.554   5.846   4.329  0.0293 -0.0402 -0.1629
  960MOL0     C29504   9.665   5.746   4.325 -0.1506  0.0983  0.2047
  960MOL0     C29505   9.753   5.755   4.448  0.5821  0.2124 -0.1306
  960MOL0     C29506   9.878   5.677   4.439  0.3577  0.6496  0.7997
  960MOL0     C29507   9.861   5.533   4.473 -0.2841 -0.2862 -0.0813
  960MOL0     C29508   9.994   5.454   4.484 -0.0928 -2.1612  0.2498
  960MOL0     C29509   9.979   5.302   4.471 -0.4694 -0.3745 -0.0414
  960MOL0    Cl29510   9.875   5.245   4.598 -0.2648 -0.2195 -0.1884
  960MOL0     C29511   9.427   5.776   3.885 -0.3545 -0.6697  0.4037
  960MOL0     C29512   9.337   5.753   3.782  0.4057 -0.5496  0.5681
  960MOL0     O29513   8.919   5.874   3.744  0.1861  0.1665  0.8761
  960MOL0     C29514   8.969   5.585   3.533 -0.4645 -0.1960 -0.1727
  960MOL0     C29515   8.897   5.501   3.440  0.6752  0.0903 -0.5730
  960MOL0     N29516   8.907   5.056   3.267 -0.6558 -0.3482 -0.0906
  960MOL0     N29517   8.960   5.049   3.382  0.4115  0.5473  1.0252
  960MOL0     C29518   9.718   5.022   3.859  0.5056 -0.1045  1.2050
  960MOL0     C29519   9.854   4.996   3.834  0.9159 -0.0854 -0.7404
  960MOL0     C29520  10.285   4.841   3.795 -0.4288  0.6178 -0.7789
  960MOL0     C29521  10.385   4.903   3.728 -0.2026 -0.0952 -0.1028
  960MOL0     C29522  10.519   4.844   3.735  0.5398  0.3907  1.6734
  960MOL0     C29523  10.552   4.739   3.817 -0.0735  0.4878  0.2518
  960MOL0     O29524  10.675   4.688   3.815 -0.4647  0.0654  0.4151
  960MOL0     C29525  10.700   4.573   3.904  0.2955 -0.5069  0.2043
  960MOL0     C29526  10.848   4.538   3.902 -0.6161 -0.3249 -0.8640
  960MOL0     C29527  10.881   4.459   3.775  0.2224 -0.0168 -0.1417
  960MOL0     C29528  11.036   4.427   3.786 -0.4189 -0.2882 -0.8259
  960MOL0     C29529  11.051   4.315   3.884 -0.0872 -0.1586  0.1193
  960MOL0     C29530  11.063   4.229   3.974 -0.0483 -0.1536 -0.0287
  960MOL0     C29531  10.444   4.682   3.887 -0.1021  0.2153  0.1400
  960MOL0     C29532  10.311   4.727   3.879 -0.3563  0.2822  0.1190
  960MOL0     H29533   9.870   4.693   3.985  2.2468  1.2898  0.8283
  960MOL0     H29534   9.637   4.762   4.041  1.5030 -0.5812 -0.1302
  960MOL0     H29535   9.430   5.087   3.823 -0.8783 -0.2448 -1.7724
  960MOL0     H29536   9.438   4.917   3.768  2.6995  1.3175 -0.5514
  960MOL0     H29537   9.193   4.939   3.813 -2.0626 -0.2943  2.3509
  960MOL0     H29538   9.257   4.888   3.958 -0.3442  0.1191  0.3961
  960MOL0     H29539   9.121   5.100   4.000  0.5088  0.6668  0.3729
  960MOL0     H29540   9.280   5.133   4.033 -0.2992 -0.4220 -0.6309
  960MOL0     H29541   9.173   5.313   3.900 -3.1596 -1.3772 -0.0360
  960MOL0     H29542   9.291   5.248   3.792  1.2204 -2.0243  0.3409
  960MOL0     H29543   9.101   5.294   3.677  0.2221 -0.7231 -0.6349
  960MOL0     H29544   9.142   5.127   3.675  2.2547  0.7573  0.5352
  960MOL0     H29545   8.981   5.055   3.826  0.1757  0.4814  0.5952
  960MOL0     H29546   8.932   5.221   3.875 -1.0525 -0.5952  0.4421
  960MOL0     H29547   8.760   5.138   3.752  0.3059 -2.8532  0.7450
  960MOL0     H29548   8.836   5.223   3.618  0.2723  0.3025  0.8453
  960MOL0     H29549   8.816   4.921   3.657 -0.1566  0.2760  1.5103
  960MOL0     H29550   8.972   4.987   3.629 -1.0435 -2.2352  0.6823
  960MOL0     H29551   8.647   4.985   3.455  0.3562 -2.5532 -1.2556
  960MOL0     H29552   8.713   5.064   3.050  0.1429 -2.3851 -0.1458
  960MOL0     H29553   8.609   4.955   3.144 -0.6112  0.6482  0.8564
  960MOL0     H29554   8.526   5.157   3.281  3.5972  3.5368  1.0082
  960MOL0     H29555   8.480   5.136   3.109 -3.3854  1.3285  3.5085
  960MOL0     H29556   8.540   5.368   3.161  0.1985  1.4847 -3.1788
  960MOL0     H29557   8.662   5.301   3.052  0.8779 -1.9286 -0.7035
  960MOL0     H29558   8.826   5.315   3.230 -0.0206 -0.2535  0.6541
  960MOL0     H29559   8.701   5.282   3.353  0.3147 -2.1603 -1.0587
  960MOL0     H29560   8.638   5.709   3.388  0.5706  3.9661  1.0392
  960MOL0     H29561   8.809   5.969   3.528  1.2773 -1.2803 -0.7749
  960MOL0     H29562   8.644   5.914   3.466 -3.1193  0.2447  3.4113
  960MOL0     H29563   8.688   5.886   3.632 -1.2646  1.9465 -0.9056
  960MOL0     H29564   9.056   5.880   3.925 -1.0638 -1.9663  2.1050
  960MOL0     H29565   9.234   5.942   4.104 -3.3138 -0.2597  0.7316
  960MOL0     H29566   9.351   5.869   4.255 -0.5952 -0.8478  0.3298
  960MOL0     H29567   9.419   5.708   4.245  1.7630 -0.5161 -1.4615
  960MOL0     H29568   9.601   5.942   4.307 -0.6548  0.3169 -0.0983
  960MOL0     H29569   9.503   5.858   4.425 -1.0306  2.7287 -0.9841
  960MOL0     H29570   9.733   5.766   4.242  0.4600  1.5020  0.9963
  960MOL0     H29571   9.637   5.641   4.315 -0.5704 -0.4495  4.9065
  960MOL0     H29572   9.774   5.863   4.451 -1.5894  0.6476  1.4005
  960MOL0     H29573   9.693   5.728   4.536  1.1002  3.0221  1.2027
  960MOL0     H29574   9.945   5.728   4.510  0.8385 -0.1425  0.9325
  960MOL0     H29575   9.917   5.681   4.337  0.3797  1.6882  0.8373
  960MOL0     H29576   9.810   5.528   4.569 -0.1961  0.6661  0.0257
  960MOL0     H29577   9.796   5.496   4.393 -1.7051  1.4380  0.2038
  960MOL0     H29578  10.042   5.473   4.580  0.7443 -3.1194  0.0403
  960MOL0     H29579  10.062   5.489   4.406 -1.8843 -1.0544 -0.8725
  960MOL0     H29580  10.073   5.246   4.474 -0.3729 -0.1557  2.5633
  960MOL0     H29581   9.923   5.286   4.378 -1.0981 -0.4252  0.3409
  960MOL0     H29582   9.534   5.760   3.876  0.6166  2.3549  4.0425
  960MOL0     H29583   9.366   5.690   3.699 -5.5650 -3.0124 -0.1563
  960MOL0     H29584   9.067   5.545   3.553 -0.4990 -2.5543 -3.8807
  960MOL0     H29585   8.949   5.411   3.407  0.1710  1.0116 -4.2855
  960MOL0     H29586   9.668   5.107   3.813  1.5815  0.2034  0.5585
  960MOL0     H29587   9.916   5.065   3.779  0.5624  0.8363 -0.0110
  960MOL0     H29588  10.374   4.995   3.671  1.2484  0.7505  0.8976
  960MOL0     H29589  10.593   4.890   3.671  0.7725 -1.9360  0.1850
  960MOL0     H29590  10.680   4.605   4.007  0.8887  1.0296 -0.1331
  960MOL0     H29591  10.640   4.487   3.875 -0.8487  1.0445 -2.4672
  960MOL0     H29592  10.861   4.474   3.990  0.4483 -2.1353 -2.2658
  960MOL0     H29593  10.903   4.633   3.908 -2.2089  0.6773 -1.4869
  960MOL0     H29594  10.862   4.516   3.684  0.8287 -1.0118 -0.9071
  960MOL0     H29595  10.815   4.373   3.764  0.4132 -0.2425  0.4320
  960MOL0     H29596  11.101   4.505   3.826  1.4650 -2.6973  1.1527
  960MOL0     H29597  11.083   4.388   3.695  1.6306  1.3589 -0.5492
  960MOL0     H29598  11.062   4.136   4.026 -2.8786  1.3176  2.8597
  960MOL0     H29599  10.452   4.589   3.944 -0.1771 -1.7596 -2.8467
  960MOL0     H29600  10.238   4.664   3.930  0.8749 -1.8900 -0.6881
  961MOL0     O29601   0.669   2.555   4.605  0.2173  0.2499 -0.2587
  961MOL0     C29602   0.646   2.537   4.730 -1.0531 -0.5611 -0.0325
  961MOL0     O29603   0.522   2.554   4.791 -0.1276 -0.6476 -0.0650
  961MOL0     C29604   0.430   2.618   4.710  0.3487 -0.1031  0.0997
  961MOL0     C29605   0.390   2.738   4.765 -0.0905  0.4991 -0.3419
  961MOL0     C29606   0.293   2.817   4.695  0.6258  0.2368  0.0641
  961MOL0     C29607   0.231   2.761   4.580  0.2265 -0.5244  0.9482
  961MOL0     O29608   0.130   2.839   4.523  0.8903 -0.8024 -0.6294
  961MOL0     C29609   0.136   2.854   4.375  0.2509 -0.0944  0.2943
  961MOL0     C29610   0.017   2.935   4.329 -0.4186  0.2283  0.2824
  961MOL0     C29611   0.025   3.081   4.391  0.8186 -0.0522 -0.2599
  961MOL0     C29612  -0.096   3.178   4.367 -0.1226  0.9417 -0.8479
  961MOL0     C29613  -0.117   3.267   4.489  0.6091  0.2266 -0.0685
  961MOL0     C29614  -0.215   3.384   4.473 -0.5123 -0.3131 -0.0313
  961MOL0     C29615  -0.274   3.423   4.612 -0.0170  0.8548  0.1688
  961MOL0     C29616  -0.410   3.483   4.581  0.4918 -0.4909  0.7836
  961MOL0     N29617  -0.510   3.378   4.554 -0.0130  0.3371 -0.1754
  961MOL0     C29618  -0.576   3.302   4.643  0.8591  1.0611 -0.1489
  961MOL0     C29619  -0.675   3.247   4.579 -0.0935  0.3181  0.3949
  961MOL0     C29620  -0.788   3.170   4.646 -0.5319 -0.5278  0.6245
  961MOL0     C29621  -0.883   3.260   4.732 -0.1617  0.9001 -0.6434
  961MOL0     C29622  -0.991   3.179   4.809  0.3595 -0.4942 -0.5530
  961MOL0     C29623  -1.126   3.180   4.741 -0.4795  0.2833 -0.3903
  961MOL0     O29624  -1.167   3.317   4.724 -0.6861  0.3162  0.2009
  961MOL0     C29625  -1.300   3.351   4.717  0.0387 -0.2761 -0.0571
  961MOL0     C29626  -1.353   3.446   4.805 -0.6358 -0.2394 -0.0642
  961MOL0     C29627  -1.491   3.489   4.818  0.1214  0.6359  0.2016
  961MOL0     C29628  -1.522   3.604   4.913 -0.2970  0.7963  0.3829
  961MOL0     C29629  -1.580   3.435   4.728  0.7249 -0.3814 -0.2172
  961MOL0     C29630  -1.715   3.486   4.706  0.3695  0.3561 -0.9048
  961MOL0     O29631  -1.775   3.437   4.589  0.3138 -0.6035  0.1088
  961MOL0     C29632  -1.904   3.477   4.550  0.1347  0.0866  0.0098
  961MOL0     C29633  -1.918   3.548   4.433  0.2016 -0.4844  0.2744
  961MOL0     C29634  -2.047   3.575   4.388 -0.0130 -0.0104 -0.4410
  961MOL0     C29635  -2.161   3.541   4.469  0.2923 -0.4068 -1.0081
  961MOL0     O29636  -2.293   3.573   4.439  1.2125 -0.7886 -0.0323
  961MOL0     C29637  -2.318   3.701   4.373 -0.0672 -0.3643 -0.2996
  961MOL0     C29638  -2.388   3.686   4.245 -0.3382  0.5551  0.1037
  961MOL0     C29639  -2.527   3.616   4.253 -0.6555  0.0878  0.1502
  961MOL0     C29640  -2.606   3.634   4.392  0.9197 -0.2400  0.5721
  961MOL0     C29641  -2.749   3.571   4.379  0.0786 -0.0470 -0.7077
  961MOL0     C29642  -2.823   3.561   4.519 -0.7350  0.0816 -0.1390
  961MOL0     C29643  -2.968   3.517   4.518  0.0912 -1.6061  0.2632
  961MOL0     C29644  -3.028   3.505   4.661 -0.9234  0.0241 -0.6425
  961MOL0    Cl29645  -3.190   3.423   4.646  0.0230 -0.1404  0.4628
  961MOL0     C29646  -2.143   3.471   4.586  0.4969 -0.0403  0.5715
  961MOL0     C29647  -2.015   3.436   4.619 -0.4825  0.7125  0.4026
  961MOL0     O29648  -1.773   3.555   4.792 -0.1984 -0.1085  0.0927
  961MOL0     C29649  -1.525   3.346   4.630  0.4403  0.4091  0.2370
  961MOL0     C29650  -1.392   3.300   4.630 -0.3096 -0.2438 -0.0183
  961MOL0     N29651  -0.643   3.279   4.439  0.1371  0.0696  0.5361
  961MOL0     N29652  -0.549   3.361   4.427 -0.3415 -0.6173 -0.4156
  961MOL0     C29653   0.265   2.640   4.525 -0.1650 -0.2852  0.7976
  961MOL0     C29654   0.360   2.566   4.595 -0.2927 -0.5427 -0.3998
  961MOL0     C29655   0.759   2.518   4.813 -0.2528 -0.4005 -0.4288
  961MOL0     C29656   0.744   2.518   4.956  0.6405  0.4527  0.9322
  961MOL0     C29657   0.856   2.489   5.039 -0.4229  0.1219  0.1231
  961MOL0     C29658   0.982   2.461   4.986 -0.6736 -0.2447 -0.1406
  961MOL0     O29659   1.081   2.424   5.071  0.8426  0.0645  0.5537
  961MOL0     C29660   1.079   2.289   5.123 -0.6358  0.4250  0.0704
  961MOL0     C29661   1.200   2.250   5.202 -0.0214 -1.1186 -0.0928
  961MOL0     C29662   1.321   2.232   5.113 -0.0959  0.2151  0.2482
  961MOL0     C29663   1.334   2.094   5.042  0.0198  0.0738  0.4986
  961MOL0     C29664   1.273   2.093   4.911 -0.2120 -0.3924  0.5639
  961MOL0     C29665   1.210   2.080   4.807 -0.8697 -0.5872 -0.0355
  961MOL0     C29666   0.995   2.455   4.849 -0.7169 -0.4468  0.1883
  961MOL0     C29667   0.885   2.482   4.766 -0.5560  0.8345 -0.5616
  961MOL0     H29668   0.438   2.786   4.849 -3.2186  1.2469  1.1631
  961MOL0     H29669   0.267   2.922   4.707  1.7740  0.5215  0.1383
  961MOL0     H29670   0.232   2.899   4.348  1.2904 -0.8343  2.4786
  961MOL0     H29671   0.129   2.758   4.323 -0.8118  0.7366 -1.1559
  961MOL0     H29672   0.013   2.940   4.220  0.9629 -2.4783  0.0230
  961MOL0     H29673  -0.072   2.885   4.366 -0.8876  2.0731  1.8431
  961MOL0     H29674   0.033   3.075   4.500 -0.8542  0.7737 -0.0491
  961MOL0     H29675   0.119   3.122   4.352  1.7537  0.3733  2.2548
  961MOL0     H29676  -0.100   3.233   4.273 -1.0034  1.5351 -0.4747
  961MOL0     H29677  -0.188   3.118   4.358  0.0710  0.6576 -0.9566
  961MOL0     H29678  -0.148   3.206   4.575  1.3500 -0.6799 -0.4316
  961MOL0     H29679  -0.025   3.322   4.510  0.6132  0.6177 -1.0506
  961MOL0     H29680  -0.161   3.463   4.420  1.1652 -2.3580 -1.5391
  961MOL0     H29681  -0.293   3.353   4.403  0.2338  1.1375 -1.5586
  961MOL0     H29682  -0.284   3.335   4.676  1.6280 -1.6391 -2.7245
  961MOL0     H29683  -0.200   3.489   4.658  1.2945  0.3815 -1.1663
  961MOL0     H29684  -0.410   3.558   4.501 -0.8761  0.3149  1.5015
  961MOL0     H29685  -0.434   3.543   4.669  0.3194  2.7968 -1.3346
  961MOL0     H29686  -0.575   3.301   4.751 -0.2850 -0.9721 -0.1032
  961MOL0     H29687  -0.846   3.115   4.571  0.2043 -1.3243  0.6243
  961MOL0     H29688  -0.742   3.093   4.708  2.2130  0.9593  0.5727
  961MOL0     H29689  -0.934   3.334   4.670  1.0535  0.6162 -2.0431
  961MOL0     H29690  -0.831   3.307   4.816 -1.6172 -0.5594  1.1622
  961MOL0     H29691  -0.997   3.227   4.907  2.0150 -2.1293  0.4252
  961MOL0     H29692  -0.953   3.079   4.832  1.5974  0.4985  2.0374
  961MOL0     H29693  -1.192   3.124   4.807  1.8354 -1.4117  0.6331
  961MOL0     H29694  -1.100   3.138   4.643 -0.2559  0.7904 -0.5520
  961MOL0     H29695  -1.289   3.486   4.882  0.4824 -2.0940  0.0318
  961MOL0     H29696  -1.438   3.625   4.980  0.5680 -1.1897  0.0156
  961MOL0     H29697  -1.543   3.688   4.847  0.9481  1.8053  1.2266
  961MOL0     H29698  -1.610   3.587   4.976 -1.3124  0.2642 -1.1187
  961MOL0     H29699  -1.832   3.593   4.384 -0.1793  0.4389  0.4396
  961MOL0     H29700  -2.062   3.633   4.297  0.4745  0.5804 -0.1550
  961MOL0     H29701  -2.376   3.768   4.437  0.3350  1.2619 -1.5563
  961MOL0     H29702  -2.226   3.759   4.361  0.5589 -1.5287 -1.3458
  961MOL0     H29703  -2.404   3.788   4.210 -2.3054  0.9914  2.0458
  961MOL0     H29704  -2.319   3.630   4.182 -0.1903  0.7996  0.0482
  961MOL0     H29705  -2.512   3.508   4.245 -1.8401 -0.1327  0.6587
  961MOL0     H29706  -2.579   3.659   4.167  1.5504 -1.0050 -1.8309
  961MOL0     H29707  -2.554   3.575   4.468  0.7972 -3.4095 -1.6155
  961MOL0     H29708  -2.610   3.741   4.413 -2.4793 -0.3647  1.1826
  961MOL0     H29709  -2.745   3.467   4.346 -1.9575  0.0108 -1.2694
  961MOL0     H29710  -2.804   3.636   4.310 -1.1472 -0.3198 -0.0245
  961MOL0     H29711  -2.765   3.506   4.594 -2.8316  2.5707  3.6200
  961MOL0     H29712  -2.820   3.665   4.555  4.0603  0.6259 -1.3542
  961MOL0     H29713  -2.963   3.425   4.458  3.6243 -1.7313  0.5353
  961MOL0     H29714  -3.022   3.597   4.467  0.0873 -2.4676 -1.1284
  961MOL0     H29715  -3.023   3.607   4.700  2.2135  0.5233 -1.9779
  961MOL0     H29716  -2.957   3.440   4.713  0.5523 -0.0650 -2.6398
  961MOL0     H29717  -2.233   3.452   4.643 -1.5082  0.9046 -2.0831
  961MOL0     H29718  -1.996   3.370   4.703 -0.0867  1.2959  0.7815
  961MOL0     H29719  -1.588   3.312   4.549  0.2984  1.3889 -0.0680
  961MOL0     H29720  -1.355   3.238   4.549 -2.1809  0.5409 -1.5687
  961MOL0     H29721   0.210   2.592   4.444  0.6805  0.2098 -0.0941
  961MOL0     H29722   0.383   2.470   4.551 -0.5471 -0.7702 -0.0385
  961MOL0     H29723   0.649   2.545   5.001  0.6328  1.5183  0.3272
  961MOL0     H29724   0.831   2.482   5.144  1.8941 -0.1000  0.7159
  961MOL0     H29725   0.990   2.284   5.185 -0.0731 -0.5815  0.8326
  961MOL0     H29726   1.070   2.216   5.041  0.4400  0.4557 -0.0859
  961MOL0     H29727   1.163   2.164   5.259 -2.7332 -0.8410 -1.2724
  961MOL0     H29728   1.227   2.336   5.264  2.1452 -2.4733  0.9446
  961MOL0     H29729   1.404   2.249   5.182  0.3414 -1.8222  0.2678
  961MOL0     H29730   1.325   2.302   5.029 -1.0297 -1.7496 -1.5350
  961MOL0     H29731   1.302   2.007   5.100 -2.5751  0.9562  0.4999
  961MOL0     H29732   1.443   2.101   5.037  0.0035  0.8250  1.0277
  961MOL0     H29733   1.157   2.079   4.714  0.1640 -0.4020 -0.6442
  961MOL0     H29734   1.084   2.432   4.792  0.2117 -0.8040  1.7323
  961MOL0     H29735   0.912   2.465   4.662  1.0191  0.5362 -0.1298
  962MOL0     O29736  10.169   4.200   8.584  0.4371  0.1257 -0.8117
  962MOL0     C29737  10.076   4.125   8.576  0.0185 -0.6103 -0.4213
  962MOL0     O29738  10.080   4.001   8.529  0.0433  1.0204 -0.4847
  962MOL0     C29739  10.191   3.952   8.466 -0.0541  0.3918 -0.1894
  962MOL0     C29740  10.184   3.889   8.345  0.0893 -0.6917 -0.6328
  962MOL0     C29741  10.300   3.853   8.279  0.2939  0.2005  0.1175
  962MOL0     C29742  10.430   3.881   8.322  0.0606 -0.6214 -0.0250
  962MOL0     O29743  10.549   3.843   8.253  1.0012  0.1162 -0.1137
  962MOL0     C29744  10.544   3.761   8.136  0.2881  0.7415 -0.0820
  962MOL0     C29745  10.531   3.608   8.177  0.4549 -0.5947 -0.4128
  962MOL0     C29746  10.568   3.522   8.055  0.3140 -0.1070 -0.1782
  962MOL0     C29747  10.486   3.541   7.931  0.8169 -0.3245 -0.0510
  962MOL0     C29748  10.342   3.514   7.933  0.1750 -0.0289  0.2151
  962MOL0     C29749  10.310   3.365   7.971  0.3671  0.4618 -0.8777
  962MOL0     C29750  10.166   3.303   7.946 -1.3200  0.5713 -0.0391
  962MOL0     C29751  10.053   3.396   7.972  0.1145  0.2917 -0.2343
  962MOL0     N29752   9.929   3.328   7.933 -0.2946 -0.8047  0.0998
  962MOL0     C29753   9.870   3.219   7.994  0.5206 -0.2860 -0.6632
  962MOL0     C29754   9.791   3.164   7.898 -0.0886  0.2164  0.4651
  962MOL0     C29755   9.715   3.039   7.911  0.3381  0.0749 -0.3396
  962MOL0     C29756   9.566   3.076   7.878  0.3339  0.0606 -0.2157
  962MOL0     C29757   9.477   2.954   7.891  0.9206 -0.1306 -0.1311
  962MOL0     C29758   9.326   2.989   7.875 -0.3385 -0.0276  0.7604
  962MOL0     O29759   9.244   2.863   7.858  0.5222  0.4573 -0.4282
  962MOL0     C29760   9.107   2.865   7.821  0.2767  0.1576 -0.8068
  962MOL0     C29761   9.035   2.989   7.823 -0.8240  0.4700 -0.1305
  962MOL0     C29762   8.897   2.998   7.797  0.1520  0.9913  0.2171
  962MOL0     C29763   8.835   3.135   7.796  0.0853 -0.0251  0.1049
  962MOL0     C29764   8.830   2.872   7.777  0.1771 -0.7859  0.1964
  962MOL0     C29765   8.687   2.862   7.738 -0.6038  0.7457  0.4691
  962MOL0     O29766   8.622   2.971   7.720  0.5626  0.2389 -0.3210
  962MOL0     C29767   8.495   2.976   7.664  0.2562 -0.3014  0.3107
  962MOL0     C29768   8.379   3.006   7.731 -1.1026  0.2063 -0.4653
  962MOL0     C29769   8.260   3.027   7.657  0.7537  0.5042  0.0641
  962MOL0     C29770   8.252   3.008   7.519  0.3782 -0.1227 -0.6849
  962MOL0     O29771   8.141   3.021   7.436 -0.3726  0.1236 -0.6913
  962MOL0     C29772   8.026   3.069   7.506 -0.0181  0.0673  0.1651
  962MOL0     C29773   7.900   3.031   7.431  0.4712  0.8959 -0.4275
  962MOL0     C29774   7.786   3.134   7.481  0.6826  0.3683  0.3889
  962MOL0     C29775   7.653   3.090   7.411  1.1583 -0.2899  0.4162
  962MOL0     C29776   7.523   3.115   7.487  0.1507  0.1739 -0.2196
  962MOL0     C29777   7.393   3.066   7.420  0.1114  0.5117  0.1691
  962MOL0     C29778   7.269   3.089   7.505 -0.5486  0.7114 -0.1246
  962MOL0     C29779   7.206   3.233   7.502 -0.0311  0.4779 -0.1925
  962MOL0    Cl29780   7.149   3.281   7.336 -0.1815  0.1253  0.1347
  962MOL0     C29781   8.372   2.966   7.455  1.3837  0.1116  0.1823
  962MOL0     C29782   8.495   2.960   7.527 -0.7839  0.7873  0.0791
  962MOL0     O29783   8.640   2.752   7.722 -0.1218 -0.1054  1.3014
  962MOL0     C29784   8.898   2.747   7.787 -0.4469  0.3309 -0.4614
  962MOL0     C29785   9.038   2.748   7.802  0.0606  0.7025  0.3161
  962MOL0     N29786   9.796   3.247   7.780  0.4201 -0.1724  0.1939
  962MOL0     N29787   9.871   3.348   7.811 -0.3961  0.2313  0.0162
  962MOL0     C29788  10.438   3.929   8.452  0.0940 -0.6173  0.5733
  962MOL0     C29789  10.323   3.959   8.524 -0.2434  0.2006 -0.1943
  962MOL0     C29790   9.940   4.177   8.612  0.0080 -1.1139  0.7743
  962MOL0     C29791   9.926   4.309   8.659  0.7217  0.1113  0.4944
  962MOL0     C29792   9.798   4.359   8.693 -0.5611 -0.1413 -1.0509
  962MOL0     C29793   9.682   4.290   8.655  0.2913 -0.1572 -0.5210
  962MOL0     O29794   9.570   4.357   8.706 -0.2486 -0.8048 -0.0638
  962MOL0     C29795   9.445   4.281   8.695  0.6057  0.3467  0.1520
  962MOL0     C29796   9.342   4.354   8.779  0.3601  0.4091  0.5256
  962MOL0     C29797   9.194   4.309   8.755 -0.0365 -0.0945 -0.4050
  962MOL0     C29798   9.131   4.389   8.644  0.1888 -0.1980  1.0165
  962MOL0     C29799   9.019   4.322   8.584 -0.0215  0.1058  0.0408
  962MOL0     C29800   8.928   4.254   8.533 -0.4138  0.2882 -0.2418
  962MOL0     C29801   9.695   4.165   8.597 -1.2052 -0.0018  0.3741
  962MOL0     C29802   9.818   4.111   8.579 -0.0707  0.0691  0.7236
  962MOL0     H29803  10.083   3.857   8.322 -0.1259 -1.1891  0.8773
  962MOL0     H29804  10.288   3.802   8.184  0.4306  1.2097 -0.4613
  962MOL0     H29805  10.460   3.794   8.075  1.7055 -0.7414 -3.0326
  962MOL0     H29806  10.630   3.785   8.072 -1.9229  0.9653 -3.1692
  962MOL0     H29807  10.603   3.590   8.257  1.8799 -0.2515 -1.5742
  962MOL0     H29808  10.427   3.591   8.208  1.3634 -1.6783  2.3511
  962MOL0     H29809  10.670   3.552   8.030 -0.3400  2.3668 -0.1615
  962MOL0     H29810  10.571   3.421   8.096  3.1986  0.0266  0.1538
  962MOL0     H29811  10.502   3.641   7.890  2.4081 -0.5566 -0.0336
  962MOL0     H29812  10.522   3.478   7.849  0.1719 -2.5413  1.2814
  962MOL0     H29813  10.284   3.567   8.008 -0.9597 -1.4214  0.3703
  962MOL0     H29814  10.290   3.537   7.840 -1.0012  0.4266  0.9659
  962MOL0     H29815  10.375   3.309   7.904  1.8876 -0.9357  1.6214
  962MOL0     H29816  10.351   3.355   8.072  3.2343  2.0230 -1.7696
  962MOL0     H29817  10.177   3.268   7.842  0.3235 -0.6324  0.4966
  962MOL0     H29818  10.151   3.218   8.013 -0.8705  0.4159 -0.1346
  962MOL0     H29819  10.067   3.495   7.926 -1.2334  1.9018  2.5839
  962MOL0     H29820  10.057   3.415   8.079  1.4096  2.3367 -0.5924
  962MOL0     H29821   9.898   3.181   8.092 -2.5166  1.7986  1.1765
  962MOL0     H29822   9.756   2.964   7.843 -0.9580 -2.8510  1.8743
  962MOL0     H29823   9.710   3.007   8.016  0.4776  1.6488  0.1736
  962MOL0     H29824   9.553   3.109   7.775  2.6690  2.0966  0.0573
  962MOL0     H29825   9.531   3.158   7.942  1.0451  1.6254 -1.7662
  962MOL0     H29826   9.494   2.894   7.982 -0.3295 -0.8219 -0.3258
  962MOL0     H29827   9.491   2.880   7.811  1.5624  0.4396 -0.5531
  962MOL0     H29828   9.318   3.043   7.779  1.1907  0.5976  0.9585
  962MOL0     H29829   9.289   3.054   7.955  1.6577  3.9152 -1.1852
  962MOL0     H29830   9.090   3.083   7.822 -1.8430  1.1159 -1.9687
  962MOL0     H29831   8.820   3.166   7.692 -1.5256  0.4028  0.4450
  962MOL0     H29832   8.738   3.151   7.843 -0.2105  3.8326 -1.4540
  962MOL0     H29833   8.908   3.206   7.837 -0.9360  0.0900  1.7879
  962MOL0     H29834   8.393   3.033   7.835  2.5507  0.0723 -0.8099
  962MOL0     H29835   8.194   3.064   7.734  1.0609 -1.2070  1.2044
  962MOL0     H29836   8.018   3.035   7.610 -0.7571 -2.6574 -0.6954
  962MOL0     H29837   8.023   3.179   7.508  0.5623  0.0966 -0.2471
  962MOL0     H29838   7.905   3.033   7.322 -1.7026  0.1466 -0.5911
  962MOL0     H29839   7.877   2.925   7.449 -1.0183  1.1882 -0.4541
  962MOL0     H29840   7.816   3.235   7.451  3.0009 -1.6225 -5.6811
  962MOL0     H29841   7.780   3.135   7.590 -3.4531  1.8406  0.3375
  962MOL0     H29842   7.643   3.129   7.310  1.0301 -2.5271 -0.5000
  962MOL0     H29843   7.658   2.981   7.404  0.5674 -0.2980  0.0790
  962MOL0     H29844   7.509   3.224   7.487  1.2465  0.3474 -1.9017
  962MOL0     H29845   7.535   3.073   7.587 -0.7507 -1.2878 -0.6916
  962MOL0     H29846   7.393   3.114   7.322  1.7738 -0.7513 -0.4931
  962MOL0     H29847   7.408   2.958   7.414  1.5165  0.6748  0.4871
  962MOL0     H29848   7.294   3.061   7.608 -1.1953 -2.3264 -0.6977
  962MOL0     H29849   7.191   3.020   7.470  1.3933 -0.6040 -2.1481
  962MOL0     H29850   7.270   3.316   7.534 -1.5490  2.9900 -3.1229
  962MOL0     H29851   7.122   3.218   7.570 -0.4423 -2.3219 -1.1972
  962MOL0     H29852   8.376   2.963   7.347 -1.0966  4.3358 -0.2308
  962MOL0     H29853   8.587   2.925   7.480 -0.6807 -0.6164  1.2606
  962MOL0     H29854   8.858   2.648   7.768  3.9675 -2.0074  1.0103
  962MOL0     H29855   9.096   2.657   7.812 -0.3837  0.4684  0.8677
  962MOL0     H29856  10.529   3.939   8.510 -0.5712 -0.7256  1.6702
  962MOL0     H29857  10.336   4.003   8.622 -0.3692  0.9930 -0.5293
  962MOL0     H29858  10.014   4.361   8.696  1.0625  1.3454 -1.8597
  962MOL0     H29859   9.792   4.458   8.737  7.3092  0.5769 -0.2098
  962MOL0     H29860   9.418   4.274   8.589  3.2284  0.3726 -0.6070
  962MOL0     H29861   9.453   4.178   8.730 -0.6597  0.3230  0.4007
  962MOL0     H29862   9.348   4.461   8.755 -2.7134  1.6168  4.1726
  962MOL0     H29863   9.364   4.356   8.886  2.0584  2.9963  0.2237
  962MOL0     H29864   9.137   4.326   8.847 -0.2371  0.6073 -0.6458
  962MOL0     H29865   9.183   4.202   8.738  1.6574 -0.5240  0.9785
  962MOL0     H29866   9.206   4.403   8.565  1.3407  0.3233  2.1770
  962MOL0     H29867   9.105   4.492   8.671  3.8919  1.4210 -0.7494
  962MOL0     H29868   8.849   4.201   8.485  1.8902 -0.9233 -2.9452
  962MOL0     H29869   9.606   4.110   8.569 -0.3737 -1.6036  0.7615
  962MOL0     H29870   9.830   4.013   8.533  2.9151  1.1588 -1.1542
  963MOL0     O29871   5.331   2.669  10.695 -0.0170  0.3077  0.7984
  963MOL0     C29872   5.307   2.746  10.786  0.7197  0.2616  0.4745
  963MOL0     O29873   5.172   2.786  10.816  0.0549 -0.9317  0.5011
  963MOL0     C29874   5.069   2.727  10.741 -0.7341  0.2838  0.2371
  963MOL0     C29875   4.975   2.650  10.801 -0.2518 -0.2529  0.1524
  963MOL0     C29876   4.862   2.606  10.727  0.1337  0.1270 -0.3059
  963MOL0     C29877   4.854   2.635  10.588  0.2521  0.0421 -0.8402
  963MOL0     O29878   4.745   2.599  10.514 -0.3458  0.3043  0.5563
  963MOL0     C29879   4.620   2.591  10.575 -0.2401 -0.0278 -0.3098
  963MOL0     C29880   4.521   2.558  10.459 -0.4959 -0.2585 -0.6488
  963MOL0     C29881   4.371   2.560  10.518  0.1575  1.0425  0.3585
  963MOL0     C29882   4.271   2.651  10.450 -0.0354 -0.0342  0.5829
  963MOL0     C29883   4.130   2.642  10.510 -0.7556 -0.2978  0.8196
  963MOL0     C29884   4.018   2.714  10.430  0.1259 -0.1780 -0.0910
  963MOL0     C29885   3.898   2.734  10.519  0.7961  0.3269  0.1618
  963MOL0     C29886   3.907   2.823  10.632  0.2369  0.4118  1.1367
  963MOL0     N29887   3.794   2.810  10.727 -0.3060 -0.4603 -1.3644
  963MOL0     C29888   3.667   2.850  10.713  0.5992 -0.3444 -0.3313
  963MOL0     C29889   3.598   2.828  10.826 -0.5862  0.0172  0.1309
  963MOL0     C29890   3.458   2.868  10.859 -0.3527  0.0693  0.1320
  963MOL0     C29891   3.373   2.735  10.872 -0.3940 -0.7539  0.0865
  963MOL0     C29892   3.241   2.773  10.944  0.3581  1.3354  0.9562
  963MOL0     C29893   3.149   2.655  10.943  0.4664  0.4524 -0.2953
  963MOL0     O29894   3.013   2.704  10.941 -0.3983 -0.5285  0.5032
  963MOL0     C29895   2.925   2.607  10.914  0.5736  0.8695 -0.6430
  963MOL0     C29896   2.951   2.475  10.882 -1.0294  0.3957  0.1591
  963MOL0     C29897   2.849   2.378  10.864  0.1254  0.2873 -0.6325
  963MOL0     C29898   2.891   2.237  10.823 -0.1034 -0.3392 -0.2546
  963MOL0     C29899   2.712   2.419  10.860 -0.0455  0.3319  0.0826
  963MOL0     C29900   2.591   2.330  10.842 -0.5848 -0.2039  0.2410
  963MOL0     O29901   2.601   2.204  10.783  0.3520 -1.2239 -0.2137
  963MOL0     C29902   2.495   2.164  10.708  0.1980  0.7214  0.7920
  963MOL0     C29903   2.421   2.245  10.633  0.2914 -0.1221  0.4425
  963MOL0     C29904   2.323   2.198  10.537 -0.3801  0.6355 -0.4669
  963MOL0     C29905   2.311   2.065  10.519  0.5039 -0.0349  0.6140
  963MOL0     O29906   2.228   2.044  10.416  0.5664 -0.2740  0.2691
  963MOL0     C29907   2.171   1.913  10.409 -0.8986  1.1578 -0.0247
  963MOL0     C29908   2.097   1.909  10.270  0.0746 -0.6093  0.1595
  963MOL0     C29909   2.017   2.043  10.249 -0.2933 -0.4436  0.3244
  963MOL0     C29910   1.900   2.064  10.348 -0.1856 -0.4045  0.0721
  963MOL0     C29911   1.818   2.183  10.294  0.2021 -0.3095  0.2815
  963MOL0     C29912   1.687   2.195  10.356 -0.3541  0.2417  0.5866
  963MOL0     C29913   1.588   2.088  10.299  0.0048 -0.2303 -0.0739
  963MOL0     C29914   1.457   2.103  10.355  0.6392  0.0800 -0.4018
  963MOL0    Cl29915   1.342   1.986  10.278 -0.2086  0.4304  0.0864
  963MOL0     C29916   2.396   1.974  10.590  0.1609  0.6145 -0.6503
  963MOL0     C29917   2.489   2.031  10.683  0.2410  0.4865 -0.1362
  963MOL0     O29918   2.488   2.371  10.903  0.5218 -0.0954  0.2060
  963MOL0     C29919   2.688   2.556  10.892  0.6432  1.1609 -0.5347
  963MOL0     C29920   2.795   2.644  10.915 -0.8301 -0.3721  0.0571
  963MOL0     N29921   3.694   2.777  10.913 -0.4391 -0.8505  0.5923
  963MOL0     N29922   3.813   2.781  10.859  0.5240 -0.4603  0.1925
  963MOL0     C29923   4.952   2.718  10.529 -0.2868  0.6917 -0.2984
  963MOL0     C29924   5.056   2.758  10.606  0.5054  0.3116 -0.6767
  963MOL0     C29925   5.423   2.787  10.874 -0.8410  0.2977 -0.9536
  963MOL0     C29926   5.391   2.868  10.984 -0.0422  0.4494  0.2268
  963MOL0     C29927   5.487   2.885  11.083  0.5575 -0.5623  0.1704
  963MOL0     C29928   5.622   2.843  11.066  0.8339  0.4869 -0.1078
  963MOL0     O29929   5.729   2.866  11.149 -0.4944 -0.6203  0.2473
  963MOL0     C29930   5.725   2.982  11.233 -1.6002  0.1647 -0.9823
  963MOL0     C29931   5.789   2.969  11.376  0.0743  1.3092  0.0544
  963MOL0     C29932   5.927   3.030  11.360  0.1852  0.4720 -0.4258
  963MOL0     C29933   5.991   3.020  11.502  1.2759  1.3465  0.1220
  963MOL0     C29934   6.128   3.059  11.507  0.2705  0.1219  0.0293
  963MOL0     C29935   6.242   3.092  11.520 -0.0066  0.1994 -0.1440
  963MOL0     C29936   5.652   2.776  10.949  0.7847 -0.6017  0.2453
  963MOL0     C29937   5.559   2.755  10.855 -0.0840  1.0373 -0.4755
  963MOL0     H29938   4.988   2.622  10.905  0.9381  0.6487  0.2609
  963MOL0     H29939   4.788   2.546  10.779 -1.1192  1.8565 -0.0126
  963MOL0     H29940   4.616   2.524  10.661  2.5549 -0.1374 -0.2023
  963MOL0     H29941   4.603   2.687  10.625 -0.5746 -0.0114 -0.4481
  963MOL0     H29942   4.535   2.620  10.370  0.4397 -0.2923 -0.5272
  963MOL0     H29943   4.546   2.460  10.418 -0.1691  0.3085 -1.8705
  963MOL0     H29944   4.318   2.467  10.496 -1.2635  1.7068  0.8548
  963MOL0     H29945   4.378   2.573  10.626  0.6109 -0.9852  0.6141
  963MOL0     H29946   4.315   2.750  10.459 -0.4182  0.1138  0.8688
  963MOL0     H29947   4.262   2.625  10.344 -1.5040 -1.2524  0.9557
  963MOL0     H29948   4.096   2.541  10.534  1.5329 -2.0077 -2.3706
  963MOL0     H29949   4.146   2.699  10.602  2.8166  1.5706 -0.7595
  963MOL0     H29950   4.049   2.812  10.393 -0.3190 -0.3340 -0.8830
  963MOL0     H29951   3.983   2.654  10.346  1.4052  0.4334 -1.1043
  963MOL0     H29952   3.823   2.772  10.449  2.6797  1.1924 -1.4960
  963MOL0     H29953   3.868   2.641  10.567 -1.2047  1.2474  0.7973
  963MOL0     H29954   3.909   2.927  10.595  2.4629 -0.3334 -1.1056
  963MOL0     H29955   3.996   2.802  10.691  1.5468 -2.1383 -1.4985
  963MOL0     H29956   3.624   2.909  10.632 -1.4423  0.6539  1.3548
  963MOL0     H29957   3.472   2.923  10.953  1.7458  3.3884 -1.9388
  963MOL0     H29958   3.418   2.926  10.776 -0.8763 -1.9240 -1.0915
  963MOL0     H29959   3.428   2.653  10.920 -1.3081 -0.7484  1.1924
  963MOL0     H29960   3.340   2.710  10.771 -4.3186  0.5439  0.8684
  963MOL0     H29961   3.196   2.862  10.900  0.2493  0.3925 -0.9259
  963MOL0     H29962   3.269   2.784  11.050  0.8332 -1.2766  1.1915
  963MOL0     H29963   3.145   2.589  11.030  1.1231 -0.7938 -1.1862
  963MOL0     H29964   3.182   2.581  10.869 -3.5183 -1.1967 -0.6948
  963MOL0     H29965   3.053   2.438  10.879 -1.0940  0.2817 -1.5594
  963MOL0     H29966   2.885   2.170  10.910 -2.3502  0.1904  0.0621
  963MOL0     H29967   2.825   2.196  10.746 -1.5713 -0.7326  1.1584
  963MOL0     H29968   2.995   2.239  10.790  0.9589 -0.3837  2.7831
  963MOL0     H29969   2.429   2.352  10.650  1.6820 -0.0513 -0.5356
  963MOL0     H29970   2.259   2.268  10.485  0.9809  2.3018  0.0201
  963MOL0     H29971   2.249   1.837  10.404 -2.2653 -0.2396 -0.7806
  963MOL0     H29972   2.106   1.895  10.496  2.5916  0.4141  2.6443
  963MOL0     H29973   2.174   1.906  10.192  0.8902 -2.7233  0.9678
  963MOL0     H29974   2.030   1.824  10.257 -1.6049  0.9777 -2.6572
  963MOL0     H29975   1.961   2.027  10.156 -0.5910 -2.8153  0.8538
  963MOL0     H29976   2.082   2.132  10.248 -0.4332 -0.3120 -1.8555
  963MOL0     H29977   1.846   1.970  10.359 -0.2411 -0.1868  1.9543
  963MOL0     H29978   1.947   2.089  10.443  0.1906 -0.3459 -0.1259
  963MOL0     H29979   1.825   2.195  10.186 -1.2617  2.8920  0.4265
  963MOL0     H29980   1.869   2.275  10.322  1.9116 -1.2843  0.5233
  963MOL0     H29981   1.683   2.196  10.466  2.5435  1.8960  0.7959
  963MOL0     H29982   1.655   2.299  10.345 -2.6149 -0.0906  2.9951
  963MOL0     H29983   1.624   1.992  10.336 -0.0541 -0.2104  0.0333
  963MOL0     H29984   1.582   2.088  10.189  0.8942 -0.3106 -0.1281
  963MOL0     H29985   1.417   2.199  10.320 -2.5263 -1.0381 -0.2034
  963MOL0     H29986   1.455   2.092  10.463  0.2427  3.5122  0.0676
  963MOL0     H29987   2.407   1.867  10.572  0.4552 -0.2586  3.6441
  963MOL0     H29988   2.552   1.961  10.737 -0.1419  1.9246  2.3212
  963MOL0     H29989   2.588   2.596  10.905  0.1789 -0.5848  2.1573
  963MOL0     H29990   2.769   2.747  10.935  0.9477  0.8889 -3.2690
  963MOL0     H29991   4.954   2.744  10.424 -0.0323 -0.6612 -0.6507
  963MOL0     H29992   5.134   2.822  10.567  0.2201 -0.2447 -2.2208
  963MOL0     H29993   5.295   2.919  10.996  0.6725  2.0991 -0.7486
  963MOL0     H29994   5.454   2.953  11.161 -0.2678  0.6012 -1.1444
  963MOL0     H29995   5.772   3.061  11.173  0.7166 -0.3167  0.0664
  963MOL0     H29996   5.624   3.019  11.254 -0.8491  1.4677  0.6233
  963MOL0     H29997   5.788   2.863  11.404  1.6852  1.0561 -0.7031
  963MOL0     H29998   5.737   3.036  11.445 -1.1935  0.1862  0.2276
  963MOL0     H29999   5.928   3.134  11.325 -0.4505  1.0521  1.1928
  963MOL0     H30000   5.991   2.974  11.291  1.2380  0.1184  0.8176
  963MOL0     H30001   5.978   2.921  11.548 -4.2403  1.3323 -0.7582
  963MOL0     H30002   5.938   3.095  11.561  0.4740  2.6809 -2.1848
  963MOL0     H30003   6.347   3.099  11.541 -0.0656 -1.8010  1.0997
  963MOL0     H30004   5.754   2.752  10.920  1.1665  2.3145 -1.0929
  963MOL0     H30005   5.583   2.703  10.763  1.9045  1.3244 -0.1489
  964MOL0     O30006   7.270   3.346   1.106 -0.7684 -0.4023  0.0198
  964MOL0     C30007   7.275   3.464   1.142 -0.0036 -0.3526 -0.4036
  964MOL0     O30008   7.171   3.556   1.131 -0.2232 -0.0469 -0.3721
  964MOL0     C30009   7.046   3.529   1.082  0.5118  0.7441 -0.7150
  964MOL0     C30010   6.944   3.610   1.142 -0.6274 -0.9420  0.1972
  964MOL0     C30011   6.808   3.598   1.117  0.6630 -0.6787 -0.1021
  964MOL0     C30012   6.771   3.504   1.025 -0.1042  0.2731  0.8471
  964MOL0     O30013   6.638   3.495   0.990 -0.9879 -0.2031  0.5987
  964MOL0     C30014   6.589   3.450   0.863 -0.3851  0.1325  0.2276
  964MOL0     C30015   6.453   3.510   0.823  0.6200 -0.0234 -0.5990
  964MOL0     C30016   6.351   3.469   0.933  0.5193 -0.2010 -0.2034
  964MOL0     C30017   6.213   3.493   0.885 -0.1588  0.2961  0.1455
  964MOL0     C30018   6.119   3.521   1.000  0.4532  0.9852  0.2617
  964MOL0     C30019   5.975   3.539   0.939 -0.3130 -0.3954 -0.2356
  964MOL0     C30020   5.861   3.524   1.044 -0.6111 -0.2633 -0.2736
  964MOL0     C30021   5.752   3.616   0.996  0.0536 -0.2839  0.4532
  964MOL0     N30022   5.645   3.613   1.099  0.4787 -0.1484  0.3259
  964MOL0     C30023   5.654   3.672   1.226 -1.2594  0.6010 -0.7438
  964MOL0     C30024   5.539   3.638   1.281 -0.0526  0.0315 -0.4460
  964MOL0     C30025   5.494   3.686   1.420  0.1676  0.2035  0.0136
  964MOL0     C30026   5.411   3.805   1.417  0.3328 -0.6333 -0.5079
  964MOL0     C30027   5.300   3.811   1.308 -0.6532 -0.9020 -0.3435
  964MOL0     C30028   5.185   3.716   1.314 -0.8481  0.1829 -1.1951
  964MOL0     O30029   5.088   3.745   1.207  0.1055 -0.3895  0.6859
  964MOL0     C30030   4.978   3.671   1.198 -0.1869  0.1295  0.5013
  964MOL0     C30031   4.956   3.555   1.275  0.2482  0.3481  0.2567
  964MOL0     C30032   4.828   3.495   1.269  0.4492  1.1212  0.0555
  964MOL0     C30033   4.809   3.384   1.370  0.4110  0.7891  0.1376
  964MOL0     C30034   4.724   3.542   1.182 -0.4041  0.7974  0.7563
  964MOL0     C30035   4.593   3.477   1.182  0.2869  0.2778  0.0986
  964MOL0     O30036   4.487   3.561   1.152 -0.3229 -0.0118 -0.2073
  964MOL0     C30037   4.361   3.505   1.168 -0.3682 -0.0166  0.2625
  964MOL0     C30038   4.287   3.523   1.283  0.1827 -1.5244 -0.5370
  964MOL0     C30039   4.154   3.474   1.291  0.0656 -0.2812  0.6454
  964MOL0     C30040   4.091   3.407   1.181  0.4420 -0.2428 -0.4029
  964MOL0     O30041   3.963   3.359   1.187  0.6521 -0.5405  0.4624
  964MOL0     C30042   3.885   3.391   1.307 -0.2675  0.1602 -0.8050
  964MOL0     C30043   3.749   3.322   1.302  0.3029 -0.0711 -0.1783
  964MOL0     C30044   3.645   3.389   1.394  0.4791  0.0776 -0.0850
  964MOL0     C30045   3.688   3.374   1.547 -0.0229  0.0736  0.0469
  964MOL0     C30046   3.577   3.400   1.645  0.3091 -0.0088 -0.0332
  964MOL0     C30047   3.633   3.394   1.786  1.0668 -0.1478  1.0322
  964MOL0     C30048   3.522   3.451   1.881  0.0515 -0.8915 -0.3423
  964MOL0     C30049   3.553   3.430   2.027 -0.0143  0.4905 -0.3670
  964MOL0    Cl30050   3.439   3.527   2.116  0.0434 -0.2715 -0.3729
  964MOL0     C30051   4.174   3.392   1.069 -0.7717  0.4282 -1.1150
  964MOL0     C30052   4.308   3.427   1.067  0.3772 -0.3864  0.2361
  964MOL0     O30053   4.583   3.356   1.188 -0.4591  0.3012 -0.4773
  964MOL0     C30054   4.754   3.657   1.108  0.1237 -0.3699  0.2266
  964MOL0     C30055   4.878   3.716   1.113 -0.8131 -0.9831 -0.7398
  964MOL0     N30056   5.466   3.555   1.198 -0.0554 -0.0948 -0.6292
  964MOL0     N30057   5.529   3.541   1.085 -0.2174  0.5797 -0.7560
  964MOL0     C30058   6.870   3.415   0.970 -0.3585  1.4422 -0.3820
  964MOL0     C30059   7.005   3.432   1.000 -0.3793 -0.5729  0.2927
  964MOL0     C30060   7.403   3.510   1.204  0.1170 -0.0069 -0.2909
  964MOL0     C30061   7.418   3.644   1.235  1.1459 -0.8663  0.2596
  964MOL0     C30062   7.538   3.692   1.285 -0.0418  0.0226 -0.4974
  964MOL0     C30063   7.654   3.606   1.308 -0.2748  0.2027 -0.4555
  964MOL0     O30064   7.770   3.653   1.356  0.2496 -0.1883  0.4699
  964MOL0     C30065   7.863   3.570   1.429  0.2358 -0.1224 -0.3288
  964MOL0     C30066   7.994   3.652   1.465  0.3921  0.1211  0.9889
  964MOL0     C30067   8.109   3.565   1.505 -0.6798 -0.4335 -0.0625
  964MOL0     C30068   8.235   3.647   1.525  0.0203  0.1331 -1.2892
  964MOL0     C30069   8.239   3.728   1.645  0.2426  0.5573 -0.7268
  964MOL0     C30070   8.259   3.785   1.751  0.5817 -0.3669  0.6636
  964MOL0     C30071   7.634   3.470   1.274 -0.9791 -0.3973  0.6104
  964MOL0     C30072   7.517   3.426   1.214 -0.3214  0.4865 -0.3439
  964MOL0     H30073   6.975   3.682   1.217 -0.3733  0.0176 -0.8016
  964MOL0     H30074   6.736   3.664   1.165  1.1657  1.5589 -2.2159
  964MOL0     H30075   6.665   3.482   0.792  2.0596  1.0914  3.0495
  964MOL0     H30076   6.585   3.340   0.867  1.1917  0.0618  0.7297
  964MOL0     H30077   6.448   3.619   0.816 -3.1032  0.2080  2.6282
  964MOL0     H30078   6.414   3.465   0.731  0.1835 -0.9822  0.0432
  964MOL0     H30079   6.360   3.362   0.952  4.5958  0.2504  1.4151
  964MOL0     H30080   6.370   3.519   1.028  1.0506  0.6944 -0.7622
  964MOL0     H30081   6.205   3.581   0.821  0.3180  0.2191 -0.0204
  964MOL0     H30082   6.189   3.405   0.825  3.3467 -0.4399 -0.3838
  964MOL0     H30083   6.116   3.433   1.065  0.3368 -0.5775 -1.7504
  964MOL0     H30084   6.145   3.612   1.055  0.3742 -0.6748  3.2709
  964MOL0     H30085   5.967   3.641   0.902 -1.5596 -1.3134 -2.7172
  964MOL0     H30086   5.961   3.474   0.851  4.0840 -0.1422 -1.3996
  964MOL0     H30087   5.827   3.420   1.040 -0.1990 -0.4313  0.3270
  964MOL0     H30088   5.890   3.553   1.145 -3.1224 -2.5507  1.2438
  964MOL0     H30089   5.716   3.587   0.898 -2.7608  1.0111  0.9894
  964MOL0     H30090   5.796   3.717   0.996  2.1822 -1.1665 -0.4459
  964MOL0     H30091   5.728   3.738   1.271 -2.3394  2.3353 -1.4195
  964MOL0     H30092   5.434   3.609   1.470  0.9946 -0.2109  0.3861
  964MOL0     H30093   5.580   3.704   1.484  0.7103  1.8054 -1.1120
  964MOL0     H30094   5.483   3.887   1.410 -0.3254  0.2252  1.9282
  964MOL0     H30095   5.366   3.828   1.514  0.0062 -0.0006 -0.8049
  964MOL0     H30096   5.344   3.805   1.208 -0.7110  2.6347 -0.7300
  964MOL0     H30097   5.266   3.914   1.321  3.8519  0.8352 -0.3977
  964MOL0     H30098   5.129   3.721   1.408  0.2022 -2.4688 -0.3326
  964MOL0     H30099   5.222   3.613   1.306 -1.9162 -0.5839  2.0316
  964MOL0     H30100   5.040   3.520   1.335 -2.0150 -0.7105  3.0232
  964MOL0     H30101   4.716   3.396   1.427  0.0628 -1.2900  0.0941
  964MOL0     H30102   4.797   3.286   1.323  1.3531  0.2111  1.0380
  964MOL0     H30103   4.894   3.369   1.438  2.7926 -1.0163 -2.9804
  964MOL0     H30104   4.328   3.580   1.365  0.0366 -3.3808  0.8991
  964MOL0     H30105   4.102   3.491   1.384 -0.8251  3.9097 -0.3920
  964MOL0     H30106   3.933   3.377   1.404 -2.0597  1.0253  0.2383
  964MOL0     H30107   3.868   3.499   1.303 -0.2757  0.1998  0.1701
  964MOL0     H30108   3.704   3.332   1.203 -0.3681  0.1785  0.1476
  964MOL0     H30109   3.756   3.215   1.327  0.8000 -0.3354 -1.3796
  964MOL0     H30110   3.552   3.332   1.387  0.3115  0.3572 -0.1845
  964MOL0     H30111   3.629   3.495   1.373 -1.3904 -0.2209 -0.2993
  964MOL0     H30112   3.723   3.270   1.549 -1.4021 -0.5109 -2.5684
  964MOL0     H30113   3.770   3.444   1.564 -0.3501  1.0816 -2.2259
  964MOL0     H30114   3.509   3.314   1.635  1.6775 -1.0468 -0.6822
  964MOL0     H30115   3.534   3.497   1.621  0.3598 -0.3878 -1.7418
  964MOL0     H30116   3.650   3.287   1.797 -0.2013 -1.0603 -3.6524
  964MOL0     H30117   3.731   3.441   1.796  0.7782  0.3349  1.6771
  964MOL0     H30118   3.427   3.410   1.846  0.9776 -2.4430 -1.1534
  964MOL0     H30119   3.521   3.560   1.874 -0.5043 -0.9717 -1.8359
  964MOL0     H30120   3.654   3.466   2.049 -0.9361  3.0164 -0.0178
  964MOL0     H30121   3.539   3.324   2.051  0.4526  0.9524  2.2882
  964MOL0     H30122   4.128   3.352   0.979  1.5490 -1.3103 -1.6074
  964MOL0     H30123   4.379   3.397   0.990  1.0277 -2.3272  1.5402
  964MOL0     H30124   4.674   3.703   1.050  1.3754 -0.4731 -1.6475
  964MOL0     H30125   4.900   3.804   1.053  0.7449 -1.6245 -1.1561
  964MOL0     H30126   6.831   3.339   0.904 -0.7470  1.6013 -0.3398
  964MOL0     H30127   7.070   3.357   0.956 -0.8203 -0.3842 -0.7143
  964MOL0     H30128   7.339   3.719   1.231  0.9955 -1.0185  0.3621
  964MOL0     H30129   7.542   3.793   1.326 -0.1664 -0.1783  0.0215
  964MOL0     H30130   7.824   3.533   1.525  2.5011 -2.2108 -0.1227
  964MOL0     H30131   7.893   3.481   1.374  0.0378 -0.4233  0.0424
  964MOL0     H30132   7.987   3.728   1.543  2.7009  1.0401  0.4014
  964MOL0     H30133   8.023   3.710   1.376 -0.0898  0.6255  1.1502
  964MOL0     H30134   8.134   3.492   1.427 -2.0637 -2.6029  1.4025
  964MOL0     H30135   8.087   3.510   1.597 -2.0737 -1.9462 -1.2265
  964MOL0     H30136   8.256   3.712   1.440 -0.4726 -0.7083 -2.0723
  964MOL0     H30137   8.320   3.580   1.544 -1.2552 -1.3404 -0.4553
  964MOL0     H30138   8.287   3.836   1.841  1.1862  0.5500 -0.0243
  964MOL0     H30139   7.717   3.404   1.294 -2.5428 -1.6841  3.3757
  964MOL0     H30140   7.498   3.322   1.188 -1.7035  0.3602  0.9800
  965MOL0     O30141   4.344  10.882   4.185 -0.3492  0.0795  0.3697
  965MOL0     C30142   4.452  10.867   4.246  0.1515  1.3531  0.2918
  965MOL0     O30143   4.491  10.930   4.357  0.2892 -0.6563 -0.3304
  965MOL0     C30144   4.401  11.024   4.408  0.6376  0.1544  0.7594
  965MOL0     C30145   4.356  11.126   4.331  0.2913  0.6379  0.2473
  965MOL0     C30146   4.257  11.208   4.377  0.2855 -0.5972 -0.4410
  965MOL0     C30147   4.228  11.211   4.508 -0.7454  0.0063 -1.0070
  965MOL0     O30148   4.152  11.311   4.554  0.1726  0.7257  0.0486
  965MOL0     C30149   4.027  11.280   4.611 -0.3608  0.1122 -0.4239
  965MOL0     C30150   3.924  11.369   4.553 -0.2652 -0.4108 -0.2293
  965MOL0     C30151   3.923  11.352   4.405  0.3810 -0.0134  0.6737
  965MOL0     C30152   3.912  11.206   4.350  0.0937  0.7797  0.0649
  965MOL0     C30153   3.855  11.185   4.207  0.6274 -0.4489 -0.3293
  965MOL0     C30154   3.719  11.259   4.185  0.4815  0.0004  0.6166
  965MOL0     C30155   3.639  11.202   4.065  0.3692 -0.1468  0.3907
  965MOL0     C30156   3.510  11.278   4.038  0.3024 -0.3476 -0.2389
  965MOL0     N30157   3.440  11.320   4.160  0.2096 -0.0317  0.9022
  965MOL0     C30158   3.433  11.449   4.205  0.4316 -0.6138 -0.2956
  965MOL0     C30159   3.373  11.440   4.329 -0.3781 -0.0552  0.1316
  965MOL0     C30160   3.362  11.544   4.428  0.7084  0.3276 -0.4427
  965MOL0     C30161   3.464  11.541   4.541  0.1026 -0.1694 -0.9207
  965MOL0     C30162   3.419  11.432   4.645 -0.1397 -0.0106 -0.7835
  965MOL0     C30163   3.523  11.418   4.757 -0.0169  0.8698 -0.0560
  965MOL0     O30164   3.487  11.320   4.855 -0.5640  0.4675 -0.3882
  965MOL0     C30165   3.400  11.351   4.953  0.0525  0.3367  0.5614
  965MOL0     C30166   3.370  11.248   5.042 -0.7081  0.1940 -0.0941
  965MOL0     C30167   3.282  11.258   5.143  0.3432  0.2038  0.0561
  965MOL0     C30168   3.278  11.145   5.247 -0.3592  0.1050  0.3487
  965MOL0     C30169   3.210  11.378   5.157  1.1525  0.1101 -0.0737
  965MOL0     C30170   3.095  11.381   5.256  0.7724 -0.1171 -0.3386
  965MOL0     O30171   3.033  11.272   5.305  0.0706  0.0856  0.2833
  965MOL0     C30172   2.969  11.289   5.430 -0.6856  0.1525 -0.1432
  965MOL0     C30173   2.835  11.296   5.433 -0.0131 -0.4811  0.4701
  965MOL0     C30174   2.758  11.298   5.545  0.0787 -0.0888  0.5826
  965MOL0     C30175   2.830  11.305   5.668  0.4230  0.2944  0.8671
  965MOL0     O30176   2.751  11.311   5.781  0.3067 -0.1514 -0.6447
  965MOL0     C30177   2.823  11.312   5.896 -0.0576  0.0543  0.0645
  965MOL0     C30178   2.725  11.296   6.008  0.8468  0.3795  0.1114
  965MOL0     C30179   2.662  11.151   5.998 -0.3306  0.7641 -0.5002
  965MOL0     C30180   2.589  11.109   6.131  0.2246 -0.6932  0.3315
  965MOL0     C30181   2.463  11.017   6.098  0.0599  0.1535 -0.3231
  965MOL0     C30182   2.383  10.989   6.230  0.2350 -0.0902 -0.6939
  965MOL0     C30183   2.242  10.953   6.188  0.3787 -0.6885  0.7734
  965MOL0     C30184   2.208  10.808   6.141  0.7316 -1.1917  0.5840
  965MOL0    Cl30185   2.039  10.825   6.074 -0.0567  0.0003  0.3951
  965MOL0     C30186   2.973  11.300   5.669 -0.0635  0.5648 -0.1228
  965MOL0     C30187   3.038  11.300   5.543 -0.8084  0.2180  0.2813
  965MOL0     O30188   3.078  11.489   5.301 -0.2355  0.0039 -0.4399
  965MOL0     C30189   3.241  11.484   5.069  0.2508 -0.7300 -0.3029
  965MOL0     C30190   3.333  11.474   4.965  0.0740 -0.0758  0.2862
  965MOL0     N30191   3.332  11.308   4.353  0.2126 -0.2154  0.1869
  965MOL0     N30192   3.388  11.241   4.256  0.3499 -0.5295 -0.5303
  965MOL0     C30193   4.272  11.105   4.590  0.3978 -1.1896  0.5588
  965MOL0     C30194   4.356  11.014   4.535  0.5360 -0.0441 -0.1378
  965MOL0     C30195   4.546  10.764   4.185 -0.7038 -0.8258  0.0664
  965MOL0     C30196   4.530  10.714   4.055  0.5587  0.8206 -0.2606
  965MOL0     C30197   4.611  10.620   4.006 -0.4480  0.3787 -0.1006
  965MOL0     C30198   4.726  10.575   4.077 -0.8032 -0.7172  0.1881
  965MOL0     O30199   4.806  10.470   4.038 -0.0070  0.3301 -0.3384
  965MOL0     C30200   4.923  10.445   4.118  0.1262 -0.0310  0.4760
  965MOL0     C30201   4.992  10.323   4.051  0.4500 -0.4765 -0.3243
  965MOL0     C30202   4.914  10.188   4.097  0.0245 -0.1486 -0.2199
  965MOL0     C30203   4.955  10.063   4.009  0.3506 -0.2613 -0.3651
  965MOL0     C30204   5.096  10.032   4.035 -0.0635 -0.0679  0.0364
  965MOL0     C30205   5.215  10.006   4.053  0.5619 -0.6621 -0.5668
  965MOL0     C30206   4.744  10.638   4.202 -0.2310  0.7345  0.5214
  965MOL0     C30207   4.656  10.723   4.261 -0.2299  0.0280 -1.0560
  965MOL0     H30208   4.380  11.126   4.225  2.6167 -2.0407  0.6365
  965MOL0     H30209   4.199  11.273   4.313 -4.9282 -0.9104  3.2824
  965MOL0     H30210   4.012  11.172   4.602  3.8509 -0.7101  0.6048
  965MOL0     H30211   4.037  11.302   4.718 -2.2932  2.8984 -0.7076
  965MOL0     H30212   3.823  11.343   4.586 -0.4499 -0.8314 -1.0952
  965MOL0     H30213   3.961  11.470   4.572  0.5006 -0.9879  1.5370
  965MOL0     H30214   3.842  11.415   4.369  1.9351  1.9108  0.4037
  965MOL0     H30215   4.019  11.387   4.365  1.0225  3.0884  4.3631
  965MOL0     H30216   4.013  11.164   4.344 -0.1524  0.1674  0.0848
  965MOL0     H30217   3.851  11.156   4.426  0.5444 -0.3356 -0.2741
  965MOL0     H30218   3.933  11.209   4.134 -1.0902  0.8548 -1.8382
  965MOL0     H30219   3.832  11.083   4.176  1.3573 -0.4168 -1.0101
  965MOL0     H30220   3.655  11.244   4.272 -2.5616  0.7337 -1.3513
  965MOL0     H30221   3.742  11.366   4.175 -2.0605  0.5252 -0.3661
  965MOL0     H30222   3.708  11.217   3.981  0.1466 -0.2228  0.1949
  965MOL0     H30223   3.614  11.096   4.077  1.4707 -0.6497 -1.4193
  965MOL0     H30224   3.435  11.222   3.983 -1.9106  2.7711 -0.6805
  965MOL0     H30225   3.541  11.368   3.984 -1.4941  0.5535  0.1638
  965MOL0     H30226   3.481  11.540   4.172  0.2637 -0.7360 -0.8994
  965MOL0     H30227   3.371  11.641   4.377  0.7164  1.4874  1.6582
  965MOL0     H30228   3.259  11.554   4.464  0.1975 -0.2818 -1.6622
  965MOL0     H30229   3.484  11.642   4.579  0.5451 -0.4729 -0.3355
  965MOL0     H30230   3.552  11.510   4.484  0.3045 -0.7193 -0.3216
  965MOL0     H30231   3.411  11.334   4.598  0.0459 -0.2852 -0.2573
  965MOL0     H30232   3.324  11.462   4.691 -0.9845 -0.2699 -2.2953
  965MOL0     H30233   3.544  11.509   4.813 -0.8002  0.6866  0.5552
  965MOL0     H30234   3.610  11.381   4.702 -1.5977 -0.4789 -1.8234
  965MOL0     H30235   3.418  11.152   5.028  1.2499  1.4348 -2.8538
  965MOL0     H30236   3.368  11.083   5.234  0.4354  0.7440  2.4653
  965MOL0     H30237   3.275  11.194   5.344 -0.0507  2.4877 -0.7665
  965MOL0     H30238   3.186  11.086   5.248  0.3019 -1.1304  3.9540
  965MOL0     H30239   2.788  11.300   5.335 -0.2946  1.7047  0.6249
  965MOL0     H30240   2.650  11.309   5.538 -0.2550 -1.5839  2.4999
  965MOL0     H30241   2.890  11.226   5.896 -0.1520 -0.0459 -1.3829
  965MOL0     H30242   2.880  11.405   5.902 -0.9082  0.5859  0.0767
  965MOL0     H30243   2.782  11.321   6.098 -1.3244  1.5545  1.2543
  965MOL0     H30244   2.643  11.367   5.996 -1.1369 -2.0932 -2.4801
  965MOL0     H30245   2.731  11.073   5.967 -2.6393 -1.0091 -1.4977
  965MOL0     H30246   2.595  11.147   5.911 -1.1301  0.2456  0.1176
  965MOL0     H30247   2.649  11.045   6.196 -2.0260 -2.9804  0.3021
  965MOL0     H30248   2.545  11.195   6.183  2.1004  0.0508  0.7812
  965MOL0     H30249   2.497  10.924   6.052  1.1409  0.7806 -0.8171
  965MOL0     H30250   2.386  11.062   6.033 -1.9839 -2.0244  0.4280
  965MOL0     H30251   2.430  10.899   6.272 -0.9263 -1.4120 -2.0993
  965MOL0     H30252   2.378  11.070   6.303 -1.6122 -2.2408  1.7279
  965MOL0     H30253   2.207  11.018   6.107 -0.2213 -2.6442 -0.6018
  965MOL0     H30254   2.173  10.970   6.271  0.1857  0.2753  0.4326
  965MOL0     H30255   2.219  10.736   6.223  1.3408 -0.4481  1.1646
  965MOL0     H30256   2.277  10.788   6.058  0.1684 -1.3807  0.1530
  965MOL0     H30257   3.025  11.320   5.762  0.6302  0.8669 -0.5663
  965MOL0     H30258   3.146  11.294   5.530 -0.7807 -0.7326  0.8554
  965MOL0     H30259   3.196  11.580   5.089 -2.4157 -1.9170 -0.1147
  965MOL0     H30260   3.345  11.556   4.896 -3.2324 -2.0028 -2.9600
  965MOL0     H30261   4.259  11.118   4.697  0.2145  2.1839  0.2535
  965MOL0     H30262   4.394  10.930   4.592 -0.7088 -1.2712 -1.0491
  965MOL0     H30263   4.442  10.741   3.997 -2.1267 -3.7635  1.1011
  965MOL0     H30264   4.602  10.574   3.908 -1.3506  0.1693  0.0705
  965MOL0     H30265   4.993  10.529   4.116  0.0879  0.0089  0.6893
  965MOL0     H30266   4.896  10.413   4.219  0.4388  0.0700  0.5931
  965MOL0     H30267   5.095  10.327   4.086 -0.4077  0.6874  2.3010
  965MOL0     H30268   4.993  10.337   3.942 -0.4227  0.2541 -0.2574
  965MOL0     H30269   4.808  10.208   4.078 -0.3166  0.4440  2.0529
  965MOL0     H30270   4.929  10.167   4.203 -1.3659 -1.3770 -0.2370
  965MOL0     H30271   4.947  10.074   3.901  2.9651  1.3865 -0.4847
  965MOL0     H30272   4.891   9.982   4.045 -0.4371 -2.0104 -5.0564
  965MOL0     H30273   5.312   9.970   4.080  1.2449 -0.2744 -2.3843
  965MOL0     H30274   4.825  10.608   4.268 -1.1991 -0.2599  1.2980
  965MOL0     H30275   4.677  10.760   4.360  2.4452 -0.6506 -1.2860
  966MOL0     O30276   8.720  11.150   1.914  0.6127 -0.1846  0.4847
  966MOL0     C30277   8.765  11.150   2.030 -0.3134 -0.2134 -0.0403
  966MOL0     O30278   8.690  11.140   2.148  0.3443 -0.2038  0.5789
  966MOL0     C30279   8.560  11.087   2.157  0.0199 -0.4190 -0.2713
  966MOL0     C30280   8.486  11.036   2.045 -0.1921 -0.2216  0.0449
  966MOL0     C30281   8.366  10.967   2.065  0.9576 -1.0477 -1.0482
  966MOL0     C30282   8.315  10.964   2.197 -0.0527  0.0928  0.1215
  966MOL0     O30283   8.191  10.908   2.227 -0.3895 -0.4494  0.2253
  966MOL0     C30284   8.096  10.898   2.118  0.5165  0.1269 -0.6462
  966MOL0     C30285   7.955  10.887   2.176 -1.0030  0.5069 -0.4640
  966MOL0     C30286   7.849  10.978   2.109  0.8976 -0.2881 -0.9678
  966MOL0     C30287   7.701  10.933   2.147  0.3370 -0.3409 -0.1964
  966MOL0     C30288   7.599  11.007   2.050 -0.2795  0.0433  0.0141
  966MOL0     C30289   7.454  10.982   2.101  0.0297  0.8477  0.1401
  966MOL0     C30290   7.410  10.835   2.084  0.5504  0.2567 -0.6425
  966MOL0     C30291   7.338  10.811   1.949  0.0373 -0.1371 -1.4533
  966MOL0     N30292   7.217  10.895   1.925 -0.0569  0.1565 -0.0848
  966MOL0     C30293   7.202  10.997   1.829 -0.0647 -0.0483 -0.3328
  966MOL0     C30294   7.090  11.060   1.876 -0.3818 -0.1922 -0.2740
  966MOL0     C30295   7.034  11.184   1.817  0.1037 -0.4874  0.6355
  966MOL0     C30296   7.007  11.179   1.667  0.2365 -0.1126 -0.2967
  966MOL0     C30297   6.922  11.305   1.634  0.1039 -0.3149  0.4136
  966MOL0     C30298   6.768  11.296   1.667  0.0593  0.2201  0.4693
  966MOL0     O30299   6.712  11.203   1.578 -0.1406 -0.0153  0.0045
  966MOL0     C30300   6.567  11.192   1.561  0.2686  0.2112 -0.2234
  966MOL0     C30301   6.514  11.116   1.457  0.6343  0.3659 -0.5285
  966MOL0     C30302   6.378  11.105   1.436  0.6475 -1.2179  0.2231
  966MOL0     C30303   6.326  11.018   1.320 -0.4191 -1.1447 -0.4282
  966MOL0     C30304   6.282  11.183   1.514  0.2467  0.4370  0.2255
  966MOL0     C30305   6.140  11.176   1.477  0.7253 -0.5403  0.6448
  966MOL0     O30306   6.070  11.289   1.518 -0.5183 -0.5768  0.4992
  966MOL0     C30307   5.933  11.277   1.516 -0.7155 -0.2694 -0.7386
  966MOL0     C30308   5.858  11.322   1.407  1.2183 -1.6553 -0.4015
  966MOL0     C30309   5.715  11.324   1.412 -0.1641 -0.3420  0.8823
  966MOL0     C30310   5.649  11.288   1.526  0.4197 -0.6290 -0.1641
  966MOL0     O30311   5.509  11.298   1.522 -0.3886  0.1022  0.1391
  966MOL0     C30312   5.438  11.349   1.632 -0.3906 -0.6660  0.0631
  966MOL0     C30313   5.293  11.369   1.595  0.5697  0.5561 -0.9977
  966MOL0     C30314   5.191  11.378   1.714  0.0763  0.3226  0.7216
  966MOL0     C30315   5.058  11.405   1.660  1.0716  0.5202 -0.2710
  966MOL0     C30316   4.957  11.434   1.772  0.7160 -0.2928  0.1474
  966MOL0     C30317   4.820  11.470   1.712  0.4131 -0.3547 -0.8247
  966MOL0     C30318   4.710  11.506   1.815 -0.6758  0.4602 -0.7835
  966MOL0     C30319   4.578  11.552   1.753 -0.8694 -0.1046  0.8043
  966MOL0    Cl30320   4.606  11.694   1.637  0.2394  0.0694  0.0074
  966MOL0     C30321   5.723  11.241   1.635 -0.1914 -0.5924 -0.1635
  966MOL0     C30322   5.869  11.234   1.634 -0.1629 -1.2360 -0.1028
  966MOL0     O30323   6.082  11.069   1.448  0.2560 -0.0092 -0.5824
  966MOL0     C30324   6.342  11.264   1.621  0.0520  0.3875 -0.0344
  966MOL0     C30325   6.480  11.273   1.636 -0.1825  0.6399  0.0677
  966MOL0     N30326   7.039  10.990   1.981 -0.2611  0.3283 -0.5816
  966MOL0     N30327   7.112  10.895   2.011 -0.2794  0.8985 -0.3048
  966MOL0     C30328   8.391  11.016   2.303  0.8752  0.5398  0.7100
  966MOL0     C30329   8.514  11.078   2.284  0.4377  0.0922  0.6169
  966MOL0     C30330   8.910  11.201   2.042 -0.6384 -0.2120  0.6247
  966MOL0     C30331   8.950  11.236   2.164  0.0623  0.0185 -0.2428
  966MOL0     C30332   9.071  11.298   2.193  0.1733 -0.7367 -0.7777
  966MOL0     C30333   9.158  11.320   2.093 -0.8877  0.1790 -0.0678
  966MOL0     O30334   9.278  11.378   2.134  0.2061 -0.0151  0.4965
  966MOL0     C30335   9.386  11.355   2.048  0.0753  0.3811  1.3088
  966MOL0     C30336   9.516  11.414   2.096  0.2689 -1.0433 -0.2815
  966MOL0     C30337   9.543  11.568   2.081  0.1579 -0.2488 -0.5449
  966MOL0     C30338   9.539  11.644   2.217 -0.1079 -0.0604 -0.1747
  966MOL0     C30339   9.666  11.610   2.281  0.2172 -0.9365  0.2416
  966MOL0     C30340   9.773  11.588   2.333  0.4968 -0.5541 -0.0757
  966MOL0     C30341   9.111  11.289   1.956  0.0134  0.0640  0.3244
  966MOL0     C30342   8.988  11.225   1.931  0.0278 -0.1497  1.2877
  966MOL0     H30343   8.513  11.041   1.940 -1.9497  1.7646 -0.3728
  966MOL0     H30344   8.316  10.923   1.979 -0.8111 -0.4900 -0.3394
  966MOL0     H30345   8.101  10.991   2.060  2.7051 -2.4468 -5.1343
  966MOL0     H30346   8.131  10.811   2.061  3.2105 -0.1180  1.1786
  966MOL0     H30347   7.926  10.782   2.164  4.6182 -1.1988 -2.6477
  966MOL0     H30348   7.948  10.894   2.285  2.7272  1.4771 -0.1520
  966MOL0     H30349   7.862  11.079   2.150  0.8340 -1.1594  1.3359
  966MOL0     H30350   7.836  10.972   2.001 -2.8075 -1.0357 -0.6175
  966MOL0     H30351   7.695  10.824   2.142  0.1121 -0.2674 -2.2291
  966MOL0     H30352   7.672  10.974   2.245  0.2609  1.8479 -1.0824
  966MOL0     H30353   7.627  11.113   2.054  1.6377 -0.4444  1.3269
  966MOL0     H30354   7.611  10.963   1.951  0.9898  0.6718 -0.1292
  966MOL0     H30355   7.434  11.009   2.205 -2.0732  0.9565 -0.2427
  966MOL0     H30356   7.385  11.035   2.036  0.4997 -0.4029 -1.4387
  966MOL0     H30357   7.491  10.761   2.088  0.0245 -0.3494 -1.1455
  966MOL0     H30358   7.331  10.808   2.154  1.4325  0.8010  0.6039
  966MOL0     H30359   7.306  10.707   1.948  2.0211 -0.8034 -0.6358
  966MOL0     H30360   7.413  10.829   1.870  3.0547 -1.2484  0.9453
  966MOL0     H30361   7.276  11.020   1.753 -1.8588  2.4440 -1.4576
  966MOL0     H30362   6.934  11.201   1.858  0.2201  1.8720  0.0849
  966MOL0     H30363   7.087  11.274   1.851 -1.5479  0.2756  1.3434
  966MOL0     H30364   6.962  11.081   1.645 -3.3862  0.6552  2.6385
  966MOL0     H30365   7.098  11.175   1.607 -0.1910  0.6111 -1.0051
  966MOL0     H30366   6.926  11.325   1.526 -1.8991 -1.1132  0.1451
  966MOL0     H30367   6.969  11.388   1.688  2.6570 -2.9852  2.6336
  966MOL0     H30368   6.728  11.396   1.650  0.6657 -0.0250 -3.3314
  966MOL0     H30369   6.744  11.260   1.768 -0.0586 -2.7841 -0.5243
  966MOL0     H30370   6.584  11.061   1.395 -2.4236 -2.5603 -1.6817
  966MOL0     H30371   6.410  10.972   1.267 -0.3848 -1.4908 -0.0812
  966MOL0     H30372   6.280  10.926   1.356  1.5078 -2.0025  0.0000
  966MOL0     H30373   6.266  11.084   1.258  0.4657  2.2400  2.0180
  966MOL0     H30374   5.907  11.340   1.312  1.2018  1.3753  0.0536
  966MOL0     H30375   5.671  11.334   1.313 -0.2543  1.6696  1.0869
  966MOL0     H30376   5.450  11.269   1.706  2.3656 -1.8295 -1.4803
  966MOL0     H30377   5.477  11.449   1.655 -1.6533  0.5213 -2.5066
  966MOL0     H30378   5.288  11.460   1.536 -1.8066 -1.2075 -3.7702
  966MOL0     H30379   5.265  11.286   1.530 -0.5195 -0.2511  0.4403
  966MOL0     H30380   5.223  11.459   1.780 -1.6630  2.3707 -0.7903
  966MOL0     H30381   5.189  11.291   1.779  3.9521 -0.1810  0.3837
  966MOL0     H30382   5.056  11.494   1.596 -0.2118 -0.2800 -1.3905
  966MOL0     H30383   5.019  11.321   1.602 -2.3789 -1.1795  3.9315
  966MOL0     H30384   4.999  11.519   1.828  1.5508 -0.3049 -0.4406
  966MOL0     H30385   4.947  11.348   1.838 -3.1838 -0.8300 -0.8882
  966MOL0     H30386   4.832  11.559   1.649 -2.9119  2.0310  1.5340
  966MOL0     H30387   4.783  11.389   1.649  1.7947  0.6186 -3.0025
  966MOL0     H30388   4.741  11.586   1.883 -1.3825  0.6644 -0.6934
  966MOL0     H30389   4.691  11.418   1.876  0.5269 -0.1487 -1.2405
  966MOL0     H30390   4.500  11.592   1.819 -1.2384 -0.6682  0.7163
  966MOL0     H30391   4.534  11.464   1.706 -0.8769 -1.0985  2.5837
  966MOL0     H30392   5.659  11.222   1.721 -0.6069 -1.0203 -0.5587
  966MOL0     H30393   5.938  11.211   1.714  2.7254  0.5747 -1.9082
  966MOL0     H30394   6.274  11.319   1.686 -1.1767 -1.7762  0.6125
  966MOL0     H30395   6.505  11.335   1.722 -0.5972 -1.7813  2.0732
  966MOL0     H30396   8.352  11.006   2.404  1.9268 -1.6973  0.9543
  966MOL0     H30397   8.570  11.111   2.371 -2.6700  1.9032  2.1019
  966MOL0     H30398   8.877  11.229   2.244 -0.3017  1.4856 -0.4106
  966MOL0     H30399   9.098  11.322   2.295  1.8998 -1.5684 -1.0106
  966MOL0     H30400   9.410  11.248   2.049 -2.3586 -0.4221  6.0622
  966MOL0     H30401   9.364  11.397   1.949 -1.3913 -0.4381  1.2590
  966MOL0     H30402   9.595  11.367   2.036 -1.1683 -0.8806 -2.4218
  966MOL0     H30403   9.527  11.385   2.200 -1.2782 -0.8793 -0.0587
  966MOL0     H30404   9.472  11.625   2.021 -0.3365 -0.6129 -0.3091
  966MOL0     H30405   9.637  11.579   2.026 -0.6595 -0.1463 -1.9637
  966MOL0     H30406   9.457  11.613   2.283 -0.3583 -0.7110 -0.7846
  966MOL0     H30407   9.545  11.752   2.202  0.1284  0.4100  2.7024
  966MOL0     H30408   9.870  11.580   2.377 -0.1538 -1.5219  1.2483
  966MOL0     H30409   9.171  11.307   1.868  1.1581 -2.7100  0.4255
  966MOL0     H30410   8.966  11.207   1.826  2.2376  0.6982  0.6127
  967MOL0     O30411  11.010   5.835   5.890 -0.1691  0.2306  0.0159
  967MOL0     C30412  11.077   5.844   5.992  0.1321 -0.5594  0.5213
  967MOL0     O30413  11.032   5.893   6.112  0.2936  0.6490  0.2367
  967MOL0     C30414  10.900   5.924   6.124 -0.4241 -0.1272 -0.0508
  967MOL0     C30415  10.854   6.040   6.079 -1.4948  0.3061  0.2029
  967MOL0     C30416  10.718   6.077   6.080 -0.1007  0.1984 -0.6944
  967MOL0     C30417  10.625   5.989   6.122 -0.0561  0.1833  0.1175
  967MOL0     O30418  10.493   6.005   6.100  0.1043 -0.3438 -0.2231
  967MOL0     C30419  10.450   5.981   5.965  0.3109  0.0972  0.3918
  967MOL0     C30420  10.299   6.012   5.977  0.3230 -0.7535  0.1909
  967MOL0     C30421  10.226   5.911   5.876  0.7409  0.3753  0.0172
  967MOL0     C30422  10.086   5.875   5.929 -1.1647  0.2817 -0.3695
  967MOL0     C30423   9.979   5.993   5.925  0.0170 -0.1843 -0.6279
  967MOL0     C30424   9.960   6.033   5.776  0.7869 -0.0418 -0.4390
  967MOL0     C30425   9.832   6.110   5.765 -0.5276 -0.1501  0.4533
  967MOL0     C30426   9.706   6.026   5.793 -0.0152  0.5590  0.4408
  967MOL0     N30427   9.591   6.105   5.744 -0.4654 -0.5439 -0.6663
  967MOL0     C30428   9.484   6.062   5.666  0.1316 -0.2169  0.2895
  967MOL0     C30429   9.406   6.170   5.665  0.1930 -0.0083 -0.5014
  967MOL0     C30430   9.261   6.173   5.606 -1.4068  0.0188 -0.1965
  967MOL0     C30431   9.254   6.142   5.456  0.3337  0.0666  0.3124
  967MOL0     C30432   9.116   6.168   5.389 -0.1206  0.2422  0.3914
  967MOL0     C30433   8.996   6.103   5.458 -0.1176 -0.6891 -0.4359
  967MOL0     O30434   8.880   6.168   5.394  0.2581  1.2099  0.7132
  967MOL0     C30435   8.804   6.095   5.303 -1.4316  0.1413  0.3947
  967MOL0     C30436   8.784   6.132   5.173  0.4983 -0.0038 -0.2347
  967MOL0     C30437   8.689   6.075   5.085 -0.0315 -0.5046  0.1078
  967MOL0     C30438   8.685   6.139   4.948  0.2938 -0.1213  0.0425
  967MOL0     C30439   8.611   5.968   5.141  0.0005 -0.4216 -0.2687
  967MOL0     C30440   8.506   5.899   5.066  0.0966  1.1277  0.7335
  967MOL0     O30441   8.458   5.781   5.122 -0.9836 -0.7272  0.4115
  967MOL0     C30442   8.362   5.701   5.055  0.2902  1.3170 -1.1515
  967MOL0     C30443   8.400   5.611   4.960  0.3191 -0.4557 -0.2776
  967MOL0     C30444   8.303   5.567   4.870 -0.0203 -0.6927 -0.1581
  967MOL0     C30445   8.162   5.591   4.881 -0.5331  0.4266  0.6574
  967MOL0     O30446   8.080   5.536   4.790  0.2244  0.6222  0.2295
  967MOL0     C30447   7.944   5.558   4.792 -0.0149 -0.0562  0.3134
  967MOL0     C30448   7.864   5.467   4.693 -0.5444  1.1093  0.3187
  967MOL0     C30449   7.713   5.494   4.695  0.1181 -0.7334 -0.4675
  967MOL0     C30450   7.637   5.431   4.580  0.4855  0.4033 -0.0024
  967MOL0     C30451   7.503   5.510   4.576 -0.2094 -0.8234  0.0946
  967MOL0     C30452   7.374   5.460   4.509 -0.7415  0.7685 -0.3225
  967MOL0     C30453   7.310   5.340   4.591 -0.1284  0.0271  0.9088
  967MOL0     C30454   7.189   5.282   4.522 -0.5682  0.0063  0.1689
  967MOL0    Cl30455   7.075   5.416   4.514 -0.0876 -0.0668 -0.0215
  967MOL0     C30456   8.133   5.679   4.986  1.0600 -0.1117  0.3039
  967MOL0     C30457   8.227   5.735   5.072 -0.4777  0.3608  0.8895
  967MOL0     O30458   8.470   5.945   4.958 -1.0778 -0.0647  0.5804
  967MOL0     C30459   8.633   5.931   5.270  0.5458  0.7743 -0.3263
  967MOL0     C30460   8.727   5.991   5.348 -0.9158  0.4461 -0.1979
  967MOL0     N30461   9.473   6.261   5.736  0.5801 -0.3719  0.8234
  967MOL0     N30462   9.577   6.226   5.794 -0.2095 -0.4372  0.4151
  967MOL0     C30463  10.671   5.870   6.183 -0.6810  0.1813 -0.3186
  967MOL0     C30464  10.807   5.839   6.191 -0.4026 -0.4100  0.4546
  967MOL0     C30465  11.222   5.806   5.990 -1.1850 -0.5533  0.0096
  967MOL0     C30466  11.284   5.761   5.873  0.3657 -0.5322 -0.1349
  967MOL0     C30467  11.410   5.727   5.872  0.1946 -0.5796 -0.3499
  967MOL0     C30468  11.494   5.744   5.978  0.0511  0.2426  0.0092
  967MOL0     O30469  11.625   5.705   5.962  0.3394  0.6963 -0.0729
  967MOL0     C30470  11.719   5.720   6.068 -0.2565 -0.3824  0.3290
  967MOL0     C30471  11.848   5.672   6.000  0.2770  0.3593 -0.3968
  967MOL0     C30472  11.976   5.732   6.073  0.7285  0.2441 -0.0961
  967MOL0     C30473  12.106   5.678   6.001  0.5503  0.4266 -0.8832
  967MOL0     C30474  12.232   5.731   6.066 -0.3208 -0.7622  0.0494
  967MOL0     C30475  12.340   5.769   6.123  1.1884  0.0540  0.5611
  967MOL0     C30476  11.437   5.786   6.101  0.0918 -0.4740  0.2130
  967MOL0     C30477  11.300   5.811   6.109  0.2439 -0.4426  0.0324
  967MOL0     H30478  10.921   6.110   6.030 -1.2384 -0.2683 -0.2812
  967MOL0     H30479  10.672   6.166   6.039 -2.4519  0.1599  1.6196
  967MOL0     H30480  10.508   6.042   5.894  0.5930 -0.4243  0.1746
  967MOL0     H30481  10.472   5.879   5.934 -0.4175  0.0697 -0.0485
  967MOL0     H30482  10.263   6.013   6.080  1.5765  2.9454  0.7453
  967MOL0     H30483  10.276   6.111   5.935 -0.7019 -1.5625 -1.2440
  967MOL0     H30484  10.216   5.956   5.777  0.0914  0.7633  0.2543
  967MOL0     H30485  10.274   5.813   5.879 -1.1819 -0.7295 -2.0616
  967MOL0     H30486  10.049   5.791   5.871 -0.6606 -1.4981  1.7391
  967MOL0     H30487  10.099   5.836   6.031  0.5353  1.7068  0.0296
  967MOL0     H30488   9.889   5.946   5.966 -1.2810  1.4472 -1.5369
  967MOL0     H30489  10.009   6.077   5.988  0.0184  1.4787 -2.7577
  967MOL0     H30490  10.045   6.086   5.733  1.0806 -0.7523 -0.7497
  967MOL0     H30491   9.964   5.947   5.708  0.6508  0.9414 -1.7184
  967MOL0     H30492   9.834   6.191   5.839 -0.3087 -1.5107  1.9690
  967MOL0     H30493   9.838   6.126   5.656 -0.1392 -0.6540  0.4002
  967MOL0     H30494   9.710   5.987   5.895  1.2833 -0.0022  0.2042
  967MOL0     H30495   9.708   5.944   5.721 -3.0748  0.4006  0.4293
  967MOL0     H30496   9.461   5.972   5.609  1.5045 -2.1430  2.5624
  967MOL0     H30497   9.220   6.085   5.655  0.6173 -1.5544 -1.1966
  967MOL0     H30498   9.207   6.264   5.636 -0.9456  0.8297 -1.6862
  967MOL0     H30499   9.298   6.043   5.440  1.4192  0.2213  2.0862
  967MOL0     H30500   9.311   6.217   5.401 -0.1282 -0.6147 -1.1545
  967MOL0     H30501   9.121   6.140   5.283  0.2033 -0.2327  0.5292
  967MOL0     H30502   9.103   6.277   5.398 -0.7000  0.6527 -3.4253
  967MOL0     H30503   8.997   6.131   5.563 -1.8187 -0.4639 -0.4487
  967MOL0     H30504   8.992   5.995   5.443 -1.3595 -0.6397 -0.5489
  967MOL0     H30505   8.858   6.206   5.143  0.9817 -0.5751 -0.4656
  967MOL0     H30506   8.634   6.235   4.955  1.4931  0.6047 -0.8105
  967MOL0     H30507   8.788   6.153   4.914  0.5168 -1.0970  0.2766
  967MOL0     H30508   8.650   6.084   4.860  0.0063  0.4864 -0.2313
  967MOL0     H30509   8.503   5.583   4.937 -0.3154 -2.4258 -0.8837
  967MOL0     H30510   8.338   5.496   4.795 -0.1844 -2.0799  1.0507
  967MOL0     H30511   7.916   5.543   4.896  1.3807 -1.0157  0.5824
  967MOL0     H30512   7.931   5.665   4.772  2.2270 -0.1117 -1.8474
  967MOL0     H30513   7.896   5.481   4.590  0.1853 -3.1040 -0.1799
  967MOL0     H30514   7.884   5.362   4.714  0.5031  1.2561  0.1020
  967MOL0     H30515   7.705   5.602   4.709 -1.7180 -0.5871 -2.2706
  967MOL0     H30516   7.668   5.443   4.781 -0.7981 -0.5085 -0.8078
  967MOL0     H30517   7.702   5.451   4.495 -0.5092  0.0830 -0.8548
  967MOL0     H30518   7.624   5.323   4.586  0.2504  0.3312 -1.4821
  967MOL0     H30519   7.515   5.608   4.528 -0.8832 -0.6433  0.2752
  967MOL0     H30520   7.475   5.528   4.680  0.8891  1.3083  0.0835
  967MOL0     H30521   7.299   5.535   4.486  0.8164  2.0078 -1.6398
  967MOL0     H30522   7.411   5.419   4.414  0.1957 -1.3206  0.8664
  967MOL0     H30523   7.279   5.370   4.691 -2.8642  0.0078  0.1390
  967MOL0     H30524   7.395   5.274   4.612  2.3267  3.1528  1.6268
  967MOL0     H30525   7.158   5.200   4.588  4.8760 -0.9099  2.0751
  967MOL0     H30526   7.208   5.259   4.417  1.8006  0.9511  0.3198
  967MOL0     H30527   8.032   5.716   4.995  0.7181 -1.2568  1.4518
  967MOL0     H30528   8.195   5.807   5.146  1.5599  0.8952  1.2967
  967MOL0     H30529   8.583   5.847   5.318 -1.2199  2.1043  0.2427
  967MOL0     H30530   8.743   5.960   5.451 -0.8228  1.5678  0.1337
  967MOL0     H30531  10.602   5.797   6.224 -1.0571  0.8185  0.1938
  967MOL0     H30532  10.824   5.740   6.232 -2.8709 -0.1453  2.3174
  967MOL0     H30533  11.232   5.745   5.779  1.3257 -1.8533 -0.4668
  967MOL0     H30534  11.440   5.687   5.775 -1.4363  0.8544 -1.5291
  967MOL0     H30535  11.734   5.826   6.090  1.0907 -0.5902  0.4876
  967MOL0     H30536  11.694   5.655   6.152 -3.2005 -0.1613 -0.2711
  967MOL0     H30537  11.853   5.694   5.893  0.2471  2.0580 -0.0749
  967MOL0     H30538  11.848   5.563   6.001  0.1679  0.2696 -3.1229
  967MOL0     H30539  11.972   5.720   6.182  0.1549  1.1060 -0.0041
  967MOL0     H30540  11.972   5.842   6.072 -0.6448  0.2151 -0.8846
  967MOL0     H30541  12.101   5.705   5.895 -4.5395 -0.7755 -1.2328
  967MOL0     H30542  12.107   5.569   6.017 -0.1356  0.7745  2.2747
  967MOL0     H30543  12.425   5.794   6.183  1.7653 -0.8896  0.1550
  967MOL0     H30544  11.501   5.782   6.188  0.6378 -1.9082 -0.2284
  967MOL0     H30545  11.262   5.841   6.206  1.1962 -3.8043  1.6183
  968MOL0     O30546   2.674   6.441   9.849 -0.0524 -0.7199 -0.5002
  968MOL0     C30547   2.780   6.384   9.858 -0.6578  1.0029 -0.9780
  968MOL0     O30548   2.800   6.263   9.906  0.6017 -0.3011  0.3923
  968MOL0     C30549   2.691   6.194   9.949  0.1753  0.4511  0.6509
  968MOL0     C30550   2.617   6.240  10.056 -0.7781  0.5229 -0.8594
  968MOL0     C30551   2.509   6.160  10.090  0.0425 -0.2398 -0.2667
  968MOL0     C30552   2.470   6.040  10.034 -0.3101 -0.2105 -0.3771
  968MOL0     O30553   2.368   5.958  10.076 -0.1084 -0.7509 -0.3752
  968MOL0     C30554   2.291   5.989  10.200 -0.0539 -1.3193  0.6287
  968MOL0     C30555   2.183   5.896  10.228  0.6667  0.4840 -0.7705
  968MOL0     C30556   2.082   5.929  10.116 -1.1950 -0.3308  0.2404
  968MOL0     C30557   1.941   5.865  10.130 -0.1408 -0.2782 -0.0782
  968MOL0     C30558   1.883   5.893   9.986  0.6022 -1.1056 -1.1856
  968MOL0     C30559   1.733   5.874   9.999  0.1198 -0.0946  0.2509
  968MOL0     C30560   1.655   5.948   9.891 -0.5171  0.1379  0.6772
  968MOL0     C30561   1.629   6.092   9.947 -0.4722  0.3926  0.0584
  968MOL0     N30562   1.555   6.180   9.861 -0.1339  1.2634 -0.1502
  968MOL0     C30563   1.419   6.173   9.839 -0.4985  0.0767  0.0149
  968MOL0     C30564   1.391   6.293   9.782 -0.4103  0.2106  1.5031
  968MOL0     C30565   1.260   6.346   9.745 -0.7032  0.3808 -0.3211
  968MOL0     C30566   1.238   6.313   9.596 -0.3121 -0.0357  0.2208
  968MOL0     C30567   1.136   6.409   9.533  0.4123 -1.0541  0.6984
  968MOL0     C30568   1.126   6.413   9.381  0.3948 -0.0263 -0.1092
  968MOL0     O30569   1.034   6.311   9.335 -0.7485  0.2235 -0.0001
  968MOL0     C30570   0.907   6.360   9.334  0.1904  0.5935  0.1565
  968MOL0     C30571   0.862   6.410   9.215  0.1060  1.0536 -0.1914
  968MOL0     C30572   0.732   6.454   9.197  0.4244  0.2158 -0.1035
  968MOL0     C30573   0.697   6.513   9.060 -0.5391 -0.1891  0.7766
  968MOL0     C30574   0.645   6.449   9.296  0.0269 -0.0420  0.0936
  968MOL0     C30575   0.508   6.500   9.294 -0.9492 -0.3501  1.2273
  968MOL0     O30576   0.417   6.436   9.375  0.1307  0.1468 -0.3379
  968MOL0     C30577   0.290   6.479   9.373 -0.3127 -0.0384  0.0797
  968MOL0     C30578   0.209   6.458   9.259  0.3111  0.1410 -0.4601
  968MOL0     C30579   0.077   6.502   9.260  0.1686 -0.8107  0.2279
  968MOL0     C30580   0.032   6.586   9.361  0.4943 -0.1150 -0.0239
  968MOL0     O30581  -0.099   6.620   9.358  0.7102 -0.5326  0.5286
  968MOL0     C30582  -0.176   6.579   9.471  0.3323  0.2869  0.1771
  968MOL0     C30583  -0.322   6.596   9.433 -0.2876  0.0959  0.0959
  968MOL0     C30584  -0.407   6.481   9.500 -0.4642 -0.2988 -1.1961
  968MOL0     C30585  -0.505   6.402   9.410  1.2400  0.3898  0.9666
  968MOL0     C30586  -0.613   6.500   9.359 -0.5716  0.0431  0.3891
  968MOL0     C30587  -0.713   6.419   9.277  0.7530  0.5216 -0.4221
  968MOL0     C30588  -0.663   6.357   9.144 -0.0691  0.2415  0.1377
  968MOL0     C30589  -0.749   6.420   9.026 -0.2878 -0.2804 -1.1129
  968MOL0    Cl30590  -0.709   6.360   8.866  0.3423  0.1029  0.0882
  968MOL0     C30591   0.113   6.618   9.462 -0.1069 -0.5035 -0.5975
  968MOL0     C30592   0.245   6.554   9.478 -0.0816 -0.1389  0.3913
  968MOL0     O30593   0.492   6.608   9.243  0.1577 -0.5574 -0.2494
  968MOL0     C30594   0.685   6.402   9.415 -0.2766 -0.5379 -0.5003
  968MOL0     C30595   0.813   6.351   9.443  0.1817  0.6261 -0.6493
  968MOL0     N30596   1.502   6.365   9.775  0.0277  0.4403  0.0586
  968MOL0     N30597   1.601   6.299   9.824  0.0162  0.2037  0.7453
  968MOL0     C30598   2.549   6.002   9.925 -0.3139  0.2323 -0.1302
  968MOL0     C30599   2.662   6.067   9.881 -0.6300 -0.2960 -0.0747
  968MOL0     C30600   2.900   6.445   9.792  0.0619 -0.2983 -0.3573
  968MOL0     C30601   2.879   6.565   9.717  0.8266  0.1785  0.1909
  968MOL0     C30602   2.980   6.618   9.643  0.0711  0.0585  0.6132
  968MOL0     C30603   3.108   6.555   9.645 -0.2051 -0.8751 -0.3114
  968MOL0     O30604   3.212   6.623   9.567 -0.0930 -0.0262 -0.3396
  968MOL0     C30605   3.317   6.534   9.535 -0.2200 -0.1789 -0.4834
  968MOL0     C30606   3.432   6.607   9.462 -0.6653  0.9811  0.0576
  968MOL0     C30607   3.558   6.511   9.457  0.4478 -0.5995  0.0832
  968MOL0     C30608   3.662   6.566   9.357 -0.2521  0.1781  0.2061
  968MOL0     C30609   3.740   6.686   9.395 -0.1814 -0.5585 -0.1615
  968MOL0     C30610   3.802   6.787   9.426 -0.1787 -1.1934 -0.4041
  968MOL0     C30611   3.129   6.432   9.718  0.0939  0.5118 -0.8831
  968MOL0     C30612   3.026   6.385   9.795  0.2894 -0.3465  0.7512
  968MOL0     H30613   2.647   6.334  10.100 -1.6403 -0.3708  1.8324
  968MOL0     H30614   2.450   6.209  10.168  0.2290  1.0352 -0.9088
  968MOL0     H30615   2.355   6.001  10.288  0.5556 -1.2647  0.1882
  968MOL0     H30616   2.241   6.084  10.178 -1.1136 -1.7982  0.9393
  968MOL0     H30617   2.211   5.790  10.223  0.1723  0.4176 -3.2430
  968MOL0     H30618   2.147   5.921  10.328  0.2798 -0.0597 -0.7687
  968MOL0     H30619   2.059   6.035  10.106  1.5737  0.4497  1.1576
  968MOL0     H30620   2.117   5.898  10.017 -1.7974 -0.2821  0.0082
  968MOL0     H30621   1.944   5.758  10.152 -0.2925 -0.4581 -0.9053
  968MOL0     H30622   1.891   5.927  10.205  1.4647  1.6585 -0.5197
  968MOL0     H30623   1.903   5.998   9.964 -6.4753  0.2063 -4.1240
  968MOL0     H30624   1.926   5.833   9.905  1.4305  0.7408 -2.1706
  968MOL0     H30625   1.717   5.768   9.980  0.8510 -0.3092  0.8085
  968MOL0     H30626   1.694   5.900  10.098 -1.6180  1.0021 -0.6547
  968MOL0     H30627   1.719   5.960   9.803 -1.3845  0.6370  0.1086
  968MOL0     H30628   1.560   5.901   9.865  0.9317 -1.3174 -2.6474
  968MOL0     H30629   1.727   6.139   9.955  1.1307 -2.3433 -1.8395
  968MOL0     H30630   1.592   6.089  10.050 -0.8801 -1.7003 -0.0998
  968MOL0     H30631   1.342   6.103   9.871  2.0807 -1.4190  3.5504
  968MOL0     H30632   1.185   6.290   9.802  1.6920 -1.3776  1.3373
  968MOL0     H30633   1.266   6.452   9.767  0.1931 -0.1784  2.4872
  968MOL0     H30634   1.206   6.209   9.595  0.5866 -0.3284 -1.2675
  968MOL0     H30635   1.330   6.324   9.537 -0.9148 -2.4347 -1.3086
  968MOL0     H30636   1.164   6.513   9.553 -0.8221  0.0811 -2.6154
  968MOL0     H30637   1.034   6.397   9.571 -1.5572  4.1247 -1.8792
  968MOL0     H30638   1.223   6.424   9.332 -1.2173  1.8014 -3.1428
  968MOL0     H30639   1.084   6.508   9.349  1.1831  0.0900 -0.8396
  968MOL0     H30640   0.938   6.409   9.137 -0.7098 -0.6833 -1.0112
  968MOL0     H30641   0.598   6.479   9.028 -1.4222  0.3064  2.8643
  968MOL0     H30642   0.693   6.622   9.060 -2.0351 -0.2095 -0.5109
  968MOL0     H30643   0.773   6.487   8.985  1.9350  0.5552  2.8573
  968MOL0     H30644   0.247   6.410   9.169  0.2002  0.4894 -0.6950
  968MOL0     H30645   0.011   6.491   9.175 -1.7563  2.2066  1.1639
  968MOL0     H30646  -0.152   6.476   9.500  0.1404  0.3151  0.4450
  968MOL0     H30647  -0.152   6.644   9.556  3.1774 -0.3620 -0.0215
  968MOL0     H30648  -0.365   6.690   9.469 -3.7134 -1.6616  0.9192
  968MOL0     H30649  -0.321   6.595   9.324  1.7488  4.5132 -0.1350
  968MOL0     H30650  -0.464   6.523   9.584 -0.5649  0.0369 -1.4280
  968MOL0     H30651  -0.343   6.401   9.538  0.0900 -0.2571 -2.0402
  968MOL0     H30652  -0.454   6.355   9.326  3.5256  3.5353  0.4151
  968MOL0     H30653  -0.550   6.325   9.473 -1.0660  1.8843  1.2926
  968MOL0     H30654  -0.561   6.570   9.293 -0.2320  0.2345  0.8577
  968MOL0     H30655  -0.651   6.565   9.438  0.7232 -0.2498  1.2833
  968MOL0     H30656  -0.745   6.338   9.342 -0.5762  0.3748 -1.2213
  968MOL0     H30657  -0.805   6.476   9.260  0.5887  0.0796 -1.0715
  968MOL0     H30658  -0.673   6.248   9.143 -0.3764  0.2641 -1.1333
  968MOL0     H30659  -0.558   6.380   9.123 -0.9195  2.3324 -2.3464
  968MOL0     H30660  -0.735   6.528   9.011  1.2110  0.4311  3.7127
  968MOL0     H30661  -0.852   6.389   9.047 -0.4920 -0.5384 -2.3858
  968MOL0     H30662   0.075   6.689   9.535  0.6788  1.3451 -1.9364
  968MOL0     H30663   0.307   6.577   9.564  0.4900  1.6047 -0.4378
  968MOL0     H30664   0.611   6.404   9.495 -2.7654 -0.0348 -2.6904
  968MOL0     H30665   0.844   6.306   9.536 -1.4270 -0.4552 -0.5912
  968MOL0     H30666   2.514   5.907   9.886 -1.7900  1.1323 -1.1018
  968MOL0     H30667   2.727   6.030   9.803  1.3031  0.5624  1.0396
  968MOL0     H30668   2.786   6.621   9.723  1.4889  1.1406  2.8139
  968MOL0     H30669   2.971   6.714   9.594  2.4713  0.4227  0.7708
  968MOL0     H30670   3.359   6.492   9.626  0.2082  0.7060 -0.2663
  968MOL0     H30671   3.281   6.459   9.464 -0.0936  1.9652 -2.9587
  968MOL0     H30672   3.457   6.693   9.525  2.9906 -0.1924  0.4358
  968MOL0     H30673   3.412   6.651   9.364  0.4921 -1.9340 -1.6126
  968MOL0     H30674   3.528   6.409   9.432 -3.5013  0.2189  0.8257
  968MOL0     H30675   3.601   6.499   9.557 -0.5518  1.9759  0.8933
  968MOL0     H30676   3.620   6.579   9.257  0.0003  0.2102  0.1005
  968MOL0     H30677   3.724   6.477   9.342 -1.6635 -0.5576 -1.5570
  968MOL0     H30678   3.860   6.875   9.446 -0.5645 -0.7166 -1.2997
  968MOL0     H30679   3.225   6.383   9.723 -0.4372 -0.6298 -1.6315
  968MOL0     H30680   3.039   6.297   9.856  0.0693 -1.0827 -0.2321
  969MOL0     O30681   0.607   3.399   7.374 -0.1159  1.0025  0.0275
  969MOL0     C30682   0.719   3.371   7.317  0.1227 -0.4173  0.7198
  969MOL0     O30683   0.837   3.348   7.381  0.1804 -0.1081 -0.2166
  969MOL0     C30684   0.852   3.314   7.514  1.4496 -0.8984  0.3219
  969MOL0     C30685   0.753   3.272   7.605  0.0611  0.2801 -1.0322
  969MOL0     C30686   0.776   3.229   7.738 -0.1082  0.0675 -0.0610
  969MOL0     C30687   0.913   3.226   7.785 -0.2294  0.2204 -1.1322
  969MOL0     O30688   0.954   3.213   7.918 -0.0577  0.6693  0.4162
  969MOL0     C30689   0.857   3.230   8.016 -0.2878 -0.8055  0.9013
  969MOL0     C30690   0.918   3.295   8.135 -0.5172 -0.2544 -0.7737
  969MOL0     C30691   1.046   3.218   8.183  0.0347  0.5114  0.1843
  969MOL0     C30692   1.031   3.063   8.199 -0.3302 -0.9320 -0.1283
  969MOL0     C30693   1.167   2.989   8.239  0.2765 -0.4532  0.6828
  969MOL0     C30694   1.245   3.050   8.353 -0.6019 -0.0640 -0.4084
  969MOL0     C30695   1.355   2.951   8.396  0.6817  0.1312 -1.0657
  969MOL0     C30696   1.460   2.909   8.293 -0.3312  0.6184  0.3533
  969MOL0     N30697   1.507   3.005   8.197  0.7096 -0.5613  0.1794
  969MOL0     C30698   1.511   2.969   8.065  1.0997  0.0976  1.1212
  969MOL0     C30699   1.503   3.082   7.998  0.0138  0.0542  0.9632
  969MOL0     C30700   1.493   3.090   7.852 -0.9602 -0.8198 -0.5665
  969MOL0     C30701   1.360   3.092   7.784 -0.0413  0.0508 -0.2640
  969MOL0     C30702   1.292   2.965   7.832  0.2202 -0.1968  0.2353
  969MOL0     C30703   1.172   2.927   7.747 -0.0262 -0.2287 -0.1494
  969MOL0     O30704   1.220   2.908   7.616  0.5937  0.2351 -0.1288
  969MOL0     C30705   1.129   2.935   7.512 -0.1176 -0.1258 -1.1912
  969MOL0     C30706   1.186   2.962   7.392 -1.0420  0.1619 -0.3722
  969MOL0     C30707   1.118   2.989   7.279  0.5583  0.7503  0.2498
  969MOL0     C30708   1.195   3.012   7.154 -0.8748  0.4755  0.8239
  969MOL0     C30709   0.976   3.003   7.286  0.1757  0.0865  0.7100
  969MOL0     C30710   0.891   3.024   7.165 -1.1919  0.3287 -0.9464
  969MOL0     O30711   0.763   3.000   7.187  0.3230 -0.4857 -0.0192
  969MOL0     C30712   0.663   3.018   7.097  0.3008  0.3599  0.7557
  969MOL0     C30713   0.671   2.986   6.964 -0.4949 -0.5407 -0.0687
  969MOL0     C30714   0.558   3.003   6.882  0.2680 -0.1838 -0.0909
  969MOL0     C30715   0.436   3.047   6.933  0.0080 -0.0994  0.4644
  969MOL0     O30716   0.337   3.063   6.833 -0.0426  0.8254 -0.5694
  969MOL0     C30717   0.217   3.128   6.873 -0.3437 -0.1074 -0.1675
  969MOL0     C30718   0.119   3.162   6.761 -0.2081 -0.3624 -0.2418
  969MOL0     C30719  -0.030   3.196   6.809  0.0084 -0.4538 -0.5337
  969MOL0     C30720  -0.141   3.146   6.729 -0.2346 -0.5270  0.2594
  969MOL0     C30721  -0.271   3.224   6.774  0.3612  0.3161  0.6899
  969MOL0     C30722  -0.394   3.158   6.709 -0.5213 -0.7424 -0.3949
  969MOL0     C30723  -0.523   3.180   6.786 -0.2038 -0.1735  0.0428
  969MOL0     C30724  -0.624   3.094   6.727  0.3530  0.4259  0.1595
  969MOL0    Cl30725  -0.782   3.176   6.787 -0.0440 -0.1014 -0.4484
  969MOL0     C30726   0.421   3.077   7.065  0.7619  0.7340  0.4518
  969MOL0     C30727   0.532   3.055   7.145 -0.6225  0.9482  0.3240
  969MOL0     O30728   0.938   3.070   7.064 -0.2284 -0.0620  0.2956
  969MOL0     C30729   0.923   3.000   7.412 -0.1727 -0.3638  0.4901
  969MOL0     C30730   0.992   2.958   7.526 -0.0527  0.1045  0.5944
  969MOL0     N30731   1.484   3.184   8.081 -0.0112 -0.0781  1.0599
  969MOL0     N30732   1.500   3.142   8.199 -0.5817  0.3529 -0.6192
  969MOL0     C30733   1.014   3.272   7.697 -0.7574 -1.4279 -0.0886
  969MOL0     C30734   0.984   3.322   7.566  0.0832 -0.2876  0.3928
  969MOL0     C30735   0.719   3.365   7.165 -0.3211 -0.6778  0.0765
  969MOL0     C30736   0.604   3.368   7.087 -0.5021 -0.1066  0.2530
  969MOL0     C30737   0.616   3.350   6.952  0.7884 -0.3000  0.3440
  969MOL0     C30738   0.740   3.331   6.892  0.6642  0.8017 -0.4028
  969MOL0     O30739   0.741   3.316   6.757 -0.2473 -0.2958 -0.0098
  969MOL0     C30740   0.858   3.285   6.680 -0.2106  0.1775  0.7980
  969MOL0     C30741   0.876   3.135   6.668 -0.5936 -0.3732  1.0352
  969MOL0     C30742   1.003   3.103   6.583 -0.1166 -0.9733 -0.0821
  969MOL0     C30743   1.011   2.958   6.543  0.2310  0.3166 -0.0669
  969MOL0     C30744   1.006   2.871   6.661 -0.0938  0.7278 -1.2580
  969MOL0     C30745   1.009   2.803   6.765  0.6091  0.6529  0.4988
  969MOL0     C30746   0.858   3.337   6.969  0.4512 -0.8160  0.2126
  969MOL0     C30747   0.844   3.363   7.104 -0.4110 -0.1211 -1.0459
  969MOL0     H30748   0.649   3.273   7.574  0.5165  1.4249 -2.6466
  969MOL0     H30749   0.697   3.202   7.806  1.3441  2.6012  2.8950
  969MOL0     H30750   0.784   3.305   7.985 -0.7696 -2.0757 -1.3491
  969MOL0     H30751   0.808   3.133   8.031  3.1322 -2.8729  0.0628
  969MOL0     H30752   0.945   3.397   8.106 -0.8035  0.0517  0.0137
  969MOL0     H30753   0.851   3.298   8.221  1.2433  0.3234  0.6383
  969MOL0     H30754   1.131   3.229   8.116  0.0326 -1.6320 -0.2552
  969MOL0     H30755   1.076   3.263   8.278 -2.9756  1.0921  0.9862
  969MOL0     H30756   0.956   3.056   8.279  0.7467 -2.6885  0.7993
  969MOL0     H30757   0.986   3.015   8.112 -1.0343 -0.1436 -0.2098
  969MOL0     H30758   1.136   2.888   8.267  0.2744 -0.3444  1.0719
  969MOL0     H30759   1.235   2.987   8.153  1.6737  0.9517  1.7073
  969MOL0     H30760   1.280   3.150   8.325  2.3615 -1.1045 -0.8181
  969MOL0     H30761   1.184   3.069   8.442  1.7357 -1.3506  1.5988
  969MOL0     H30762   1.404   2.998   8.482  1.2934  1.8280 -2.2826
  969MOL0     H30763   1.306   2.861   8.435  0.9147  1.2771  2.2180
  969MOL0     H30764   1.410   2.825   8.243 -2.9298  2.4033 -0.2218
  969MOL0     H30765   1.551   2.885   8.348 -0.2384 -0.7186 -0.3264
  969MOL0     H30766   1.519   2.876   8.009  2.9250  0.5721  0.5113
  969MOL0     H30767   1.547   3.179   7.817  0.3732 -2.0161 -1.6675
  969MOL0     H30768   1.552   3.010   7.806  0.8825 -0.2312  0.6558
  969MOL0     H30769   1.374   3.092   7.675  1.6617  2.2516 -0.1327
  969MOL0     H30770   1.302   3.179   7.818  0.7554  0.2619  0.5647
  969MOL0     H30771   1.265   2.975   7.938  5.2483  0.6833  1.6791
  969MOL0     H30772   1.364   2.884   7.827  0.7565  0.1937  1.3694
  969MOL0     H30773   1.102   3.011   7.752 -2.8534 -2.2108 -2.3176
  969MOL0     H30774   1.120   2.834   7.774 -0.0535 -0.2116 -0.1444
  969MOL0     H30775   1.294   2.951   7.391 -1.2663 -4.3605 -3.5933
  969MOL0     H30776   1.302   2.991   7.169 -0.7142  0.3848 -0.3643
  969MOL0     H30777   1.172   2.935   7.081  0.1191 -0.9020  1.8927
  969MOL0     H30778   1.179   3.109   7.107  0.9247  0.3181 -0.1854
  969MOL0     H30779   0.764   2.952   6.919 -0.4402  0.6157 -0.8747
  969MOL0     H30780   0.559   2.977   6.777 -1.1196  1.6050 -0.5928
  969MOL0     H30781   0.173   3.044   6.929  5.0437 -2.8419  0.6492
  969MOL0     H30782   0.237   3.223   6.924 -1.0317 -0.7696  1.3977
  969MOL0     H30783   0.157   3.246   6.702  2.9783 -0.9806  0.7489
  969MOL0     H30784   0.100   3.074   6.700  2.4038 -3.0825  2.5346
  969MOL0     H30785  -0.035   3.305   6.811 -2.7043 -0.5282  1.0135
  969MOL0     H30786  -0.035   3.178   6.917  3.7522 -0.2287 -0.1745
  969MOL0     H30787  -0.123   3.181   6.627 -0.2985 -0.0843  0.3951
  969MOL0     H30788  -0.146   3.038   6.739 -0.7842 -0.9521 -3.1976
  969MOL0     H30789  -0.266   3.331   6.754 -2.8454  0.1286 -1.8695
  969MOL0     H30790  -0.281   3.209   6.882  0.0101  1.4858  0.8285
  969MOL0     H30791  -0.405   3.196   6.607  1.5561 -0.5196 -0.5625
  969MOL0     H30792  -0.382   3.050   6.708 -0.5454 -0.8091 -3.7387
  969MOL0     H30793  -0.564   3.281   6.778 -2.0312 -0.7711  1.2150
  969MOL0     H30794  -0.518   3.149   6.891  1.0213  0.7681  0.2912
  969MOL0     H30795  -0.621   2.990   6.760  1.2266  0.1445 -0.7467
  969MOL0     H30796  -0.619   3.086   6.618  0.8259 -2.3517  0.3109
  969MOL0     H30797   0.335   3.117   7.118  3.0432  0.7124  4.6168
  969MOL0     H30798   0.518   3.083   7.249 -3.7880  0.0991  0.2288
  969MOL0     H30799   0.818   3.027   7.415 -0.1112  0.0776 -0.8893
  969MOL0     H30800   0.930   2.945   7.614 -0.7402 -1.4008 -0.0628
  969MOL0     H30801   1.115   3.280   7.736  0.0578 -1.2473 -2.1460
  969MOL0     H30802   1.052   3.365   7.494  0.3801 -2.0007 -0.4185
  969MOL0     H30803   0.506   3.357   7.131 -0.0336 -3.6465  0.7209
  969MOL0     H30804   0.533   3.348   6.882 -1.0422  1.6745  2.3319
  969MOL0     H30805   0.830   3.324   6.582 -2.8425 -1.0485  0.9689
  969MOL0     H30806   0.946   3.342   6.709  1.7015 -2.2751  0.1662
  969MOL0     H30807   0.791   3.093   6.614  0.5603 -1.8003  0.2604
  969MOL0     H30808   0.877   3.080   6.763  3.3887 -2.0538  0.2205
  969MOL0     H30809   1.098   3.107   6.637 -0.1197 -1.8337 -0.0101
  969MOL0     H30810   1.016   3.173   6.499  0.3658  0.5405  1.1947
  969MOL0     H30811   1.106   2.945   6.490 -0.0499 -0.5685 -0.3674
  969MOL0     H30812   0.926   2.926   6.481  1.4518 -3.0761 -0.1540
  969MOL0     H30813   1.002   2.762   6.863 -0.8078 -0.0474  0.1219
  969MOL0     H30814   0.960   3.323   6.934  0.2216 -1.6022 -0.1595
  969MOL0     H30815   0.932   3.379   7.166 -0.3391  0.8223 -1.3801
  970MOL0     O30816   7.546   6.268   6.488 -0.3941  1.1191 -0.3258
  970MOL0     C30817   7.590   6.163   6.431  1.5404  0.5161  0.0769
  970MOL0     O30818   7.509   6.047   6.406  0.0254  0.2821  0.2260
  970MOL0     C30819   7.375   6.049   6.433 -0.3080  0.7309 -0.1677
  970MOL0     C30820   7.335   5.936   6.514 -0.7287 -0.6490  0.3071
  970MOL0     C30821   7.201   5.930   6.569  0.4014 -0.0961  0.1464
  970MOL0     C30822   7.109   6.028   6.533 -0.1795  1.0868 -0.9098
  970MOL0     O30823   6.972   6.018   6.567 -0.8775 -0.4769 -0.3343
  970MOL0     C30824   6.923   5.941   6.680 -0.5979 -1.0957  0.5642
  970MOL0     C30825   6.782   5.993   6.728  0.3759 -1.0665 -0.0632
  970MOL0     C30826   6.786   6.104   6.830 -0.0511 -0.2600  0.1308
  970MOL0     C30827   6.792   6.242   6.768 -0.3502 -0.1415 -0.1934
  970MOL0     C30828   6.800   6.344   6.878  0.2015 -0.0558 -0.7651
  970MOL0     C30829   6.819   6.483   6.826  0.9676 -0.9482  0.3640
  970MOL0     C30830   6.838   6.579   6.937  0.0648  0.4828 -0.2071
  970MOL0     C30831   6.828   6.716   6.875  0.0690  1.0296  0.0753
  970MOL0     N30832   6.782   6.822   6.965 -0.5470 -0.0508 -0.5347
  970MOL0     C30833   6.833   6.851   7.090  0.0307 -0.4513  0.8194
  970MOL0     C30834   6.755   6.946   7.142  0.2279 -0.5876  0.1781
  970MOL0     C30835   6.776   7.023   7.273  0.4281  0.5587  0.6352
  970MOL0     C30836   6.813   7.177   7.241  0.7072  0.0643  0.2306
  970MOL0     C30837   6.956   7.184   7.185 -0.3121  0.4827  0.3915
  970MOL0     C30838   6.973   7.319   7.110 -0.2584  0.3485  0.1256
  970MOL0     O30839   7.112   7.369   7.123 -0.5235  0.1480  0.1511
  970MOL0     C30840   7.143   7.503   7.117 -0.1959 -0.1195 -0.1229
  970MOL0     C30841   7.063   7.593   7.046  0.0152  0.5864  0.6957
  970MOL0     C30842   7.108   7.724   7.024  0.4385  0.1153 -0.2149
  970MOL0     C30843   7.008   7.818   6.945 -0.9099 -0.0929 -0.1633
  970MOL0     C30844   7.241   7.764   7.068 -0.1445 -0.8344 -0.1549
  970MOL0     C30845   7.298   7.898   7.048 -0.2692 -0.0538  0.0968
  970MOL0     O30846   7.213   8.000   7.023 -0.1990  0.0913 -0.3331
  970MOL0     C30847   7.240   8.130   7.023  0.1648 -0.1879  0.7647
  970MOL0     C30848   7.338   8.189   7.099  0.1753  0.0705 -0.1617
  970MOL0     C30849   7.360   8.324   7.090  0.3653  0.0738 -0.3168
  970MOL0     C30850   7.276   8.406   7.015 -1.0699 -0.7549  0.2923
  970MOL0     O30851   7.286   8.544   7.014  0.1757 -0.9127 -0.7892
  970MOL0     C30852   7.389   8.607   7.084  0.5734 -0.4549 -0.3769
  970MOL0     C30853   7.522   8.591   7.001  0.3572 -0.8716 -0.7623
  970MOL0     C30854   7.626   8.690   7.050 -0.8468 -0.3873  0.7296
  970MOL0     C30855   7.754   8.702   6.966  0.0187  0.0883 -0.0108
  970MOL0     C30856   7.862   8.744   7.065 -0.0890 -0.4769  0.0112
  970MOL0     C30857   7.994   8.783   7.003 -0.5541  0.4975  0.0585
  970MOL0     C30858   8.118   8.798   7.097 -0.4044  0.1118  0.0250
  970MOL0     C30859   8.244   8.852   7.047  0.6537 -0.0356  0.5417
  970MOL0    Cl30860   8.307   8.712   6.942  0.1476  0.5088 -0.0810
  970MOL0     C30861   7.182   8.344   6.936  0.4156 -0.3572 -1.3290
  970MOL0     C30862   7.164   8.207   6.940 -0.0092  0.3236  0.2865
  970MOL0     O30863   7.419   7.908   7.039  0.7901  0.8645 -0.5190
  970MOL0     C30864   7.313   7.676   7.161 -0.5254 -0.0144 -0.1810
  970MOL0     C30865   7.260   7.546   7.184 -0.1731 -0.1885  0.1667
  970MOL0     N30866   6.649   6.971   7.041 -0.5215  0.2481 -0.2239
  970MOL0     N30867   6.661   6.880   6.952  1.0756 -0.2063  0.2648
  970MOL0     C30868   7.150   6.129   6.440  0.1602 -0.2607 -0.0671
  970MOL0     C30869   7.279   6.143   6.395 -0.5131  0.8964 -0.4018
  970MOL0     C30870   7.741   6.159   6.405 -0.1826  0.0724 -0.1042
  970MOL0     C30871   7.805   6.038   6.353  0.8707 -0.6636  0.5245
  970MOL0     C30872   7.949   6.043   6.329  0.2908 -0.2150  0.5778
  970MOL0     C30873   8.020   6.160   6.356  0.2503 -0.0187 -0.6616
  970MOL0     O30874   8.152   6.177   6.342 -0.6371 -0.2674 -0.5323
  970MOL0     C30875   8.242   6.061   6.329 -0.3875  0.8408 -0.1517
  970MOL0     C30876   8.273   6.052   6.177 -0.4064  0.4021 -0.3896
  970MOL0     C30877   8.394   5.965   6.157  0.3952  0.2335  0.3469
  970MOL0     C30878   8.520   6.031   6.095 -0.1865  0.2378  0.6699
  970MOL0     C30879   8.592   6.116   6.195 -0.3159 -0.2189 -0.4180
  970MOL0     C30880   8.653   6.189   6.275  0.9638 -0.4386 -0.2863
  970MOL0     C30881   7.953   6.280   6.394 -0.7518 -0.2942  0.3925
  970MOL0     C30882   7.817   6.274   6.428  1.1268 -0.0239  0.1039
  970MOL0     H30883   7.419   5.868   6.529 -1.3451 -2.0003 -1.8747
  970MOL0     H30884   7.174   5.848   6.634  3.5786 -2.4466 -1.2101
  970MOL0     H30885   6.920   5.836   6.647  1.6227 -1.1515  0.3599
  970MOL0     H30886   6.991   5.940   6.766 -0.0720 -4.1272  0.2447
  970MOL0     H30887   6.729   6.030   6.639  0.1759  0.0057  0.4804
  970MOL0     H30888   6.725   5.912   6.775 -0.1513 -0.5698  0.1698
  970MOL0     H30889   6.692   6.097   6.885  0.2878  0.3964  0.8110
  970MOL0     H30890   6.876   6.075   6.886  1.3266 -2.5926 -2.9577
  970MOL0     H30891   6.880   6.251   6.703  1.2817 -0.0628  1.9114
  970MOL0     H30892   6.702   6.254   6.707 -0.4432 -1.6606 -0.3815
  970MOL0     H30893   6.711   6.331   6.940  1.5541 -1.1189  1.0734
  970MOL0     H30894   6.883   6.315   6.943 -0.9164 -2.4765 -0.2789
  970MOL0     H30895   6.915   6.481   6.774  1.4754 -0.1814  1.2277
  970MOL0     H30896   6.740   6.515   6.757  1.2150 -2.0026 -0.4359
  970MOL0     H30897   6.760   6.560   7.010 -1.3699  1.4504 -1.4414
  970MOL0     H30898   6.936   6.563   6.984 -0.8682  0.1924  1.7466
  970MOL0     H30899   6.759   6.712   6.791 -1.9679 -2.1971  1.7350
  970MOL0     H30900   6.924   6.753   6.837  0.4821  0.9842  1.0377
  970MOL0     H30901   6.919   6.803   7.135  0.0533  0.5726  1.8906
  970MOL0     H30902   6.676   7.022   7.316  0.7389 -1.9317  1.4597
  970MOL0     H30903   6.843   6.972   7.344 -2.0248  0.8489  3.3459
  970MOL0     H30904   6.797   7.230   7.335  0.2692  1.2653 -0.4993
  970MOL0     H30905   6.736   7.209   7.170 -0.3394 -0.0235  1.2911
  970MOL0     H30906   6.961   7.107   7.108 -2.6228  1.1241 -0.4776
  970MOL0     H30907   7.017   7.167   7.274 -2.8964  1.8731  2.6052
  970MOL0     H30908   6.907   7.386   7.165 -0.2443 -1.0975  2.0110
  970MOL0     H30909   6.941   7.314   7.006 -1.3930 -2.6274  0.5201
  970MOL0     H30910   6.973   7.547   7.006  0.5829  1.0711 -1.2653
  970MOL0     H30911   6.933   7.758   6.893 -0.2431  0.4091 -1.7777
  970MOL0     H30912   6.951   7.892   7.003 -0.4568  0.1298 -0.0023
  970MOL0     H30913   7.058   7.878   6.869 -1.7828  1.8838  0.7441
  970MOL0     H30914   7.411   8.125   7.148  0.5903 -0.5655 -1.5734
  970MOL0     H30915   7.440   8.368   7.149  0.5394  4.2799 -3.2016
  970MOL0     H30916   7.366   8.712   7.104  0.2363 -0.3605 -1.2252
  970MOL0     H30917   7.399   8.562   7.183  0.9374 -1.0695 -0.6844
  970MOL0     H30918   7.564   8.492   7.022  2.7447  0.7364  3.2751
  970MOL0     H30919   7.493   8.614   6.898  1.8014  0.6953 -0.8578
  970MOL0     H30920   7.644   8.675   7.156  2.2529 -0.4035  0.2898
  970MOL0     H30921   7.595   8.795   7.045  2.4548  0.6989  0.4244
  970MOL0     H30922   7.785   8.604   6.929 -0.2539 -0.6765  1.7024
  970MOL0     H30923   7.724   8.778   6.893 -0.7953 -1.6557 -1.5581
  970MOL0     H30924   7.893   8.666   7.135  2.4434  0.4859  0.0561
  970MOL0     H30925   7.825   8.840   7.102  0.4398  0.5613 -2.0002
  970MOL0     H30926   8.034   8.715   6.927  3.5025  3.6505 -0.9828
  970MOL0     H30927   7.969   8.872   6.946 -2.7177  0.6230  1.0887
  970MOL0     H30928   8.143   8.704   7.148  0.3615 -1.3133 -2.7973
  970MOL0     H30929   8.080   8.868   7.172 -0.4523 -1.6308  1.7205
  970MOL0     H30930   8.311   8.866   7.133 -0.6675  1.7021  1.3696
  970MOL0     H30931   8.242   8.941   6.983  0.6930 -0.4976 -0.1072
  970MOL0     H30932   7.124   8.399   6.863  0.0757 -0.5653 -1.2213
  970MOL0     H30933   7.088   8.150   6.887  1.2943 -1.9268  0.6901
  970MOL0     H30934   7.407   7.707   7.206  0.8049  1.9725 -3.8836
  970MOL0     H30935   7.323   7.473   7.235  0.9335  1.3156  1.0363
  970MOL0     H30936   7.069   6.197   6.415  1.9415  1.3260 -1.8294
  970MOL0     H30937   7.313   6.228   6.336  1.5938  1.4375  1.4625
  970MOL0     H30938   7.736   5.956   6.339  0.5266 -0.3210  0.1993
  970MOL0     H30939   7.995   5.946   6.310 -0.9458 -0.9247  1.0279
  970MOL0     H30940   8.332   6.079   6.390 -3.8167  1.9986  5.1980
  970MOL0     H30941   8.204   5.969   6.373  1.1348 -0.6536 -1.8185
  970MOL0     H30942   8.289   6.156   6.145 -0.8671  0.2739 -1.0727
  970MOL0     H30943   8.190   6.016   6.115 -0.5633  0.6009 -0.2964
  970MOL0     H30944   8.366   5.887   6.085  1.3347  0.4196 -0.2363
  970MOL0     H30945   8.417   5.905   6.246 -0.7517  1.8697  1.8181
  970MOL0     H30946   8.485   6.096   6.014 -1.3992 -1.7916 -0.5384
  970MOL0     H30947   8.580   5.946   6.063 -0.9232 -0.9289  2.2498
  970MOL0     H30948   8.718   6.244   6.339 -0.1154  1.0225 -0.3925
  970MOL0     H30949   8.005   6.370   6.424  0.4406 -0.6694 -0.4595
  970MOL0     H30950   7.769   6.367   6.456 -2.5576 -1.4643 -0.8245
  971MOL0     O30951   4.203   1.414   9.637 -1.0846 -0.1333  0.1493
  971MOL0     C30952   4.230   1.533   9.634 -0.4875 -0.0128  0.3114
  971MOL0     O30953   4.150   1.638   9.673  0.1285  0.1864 -0.2702
  971MOL0     C30954   4.025   1.602   9.706 -0.0179  0.4094  0.0035
  971MOL0     C30955   3.983   1.608   9.841  0.1317 -0.4207  0.1431
  971MOL0     C30956   3.852   1.577   9.883  0.0657  0.3230  0.2073
  971MOL0     C30957   3.760   1.533   9.783  0.1299  0.1905  0.1872
  971MOL0     O30958   3.629   1.511   9.810  0.0985  0.7454  0.2088
  971MOL0     C30959   3.560   1.582   9.916  0.3699 -0.3443  0.5785
  971MOL0     C30960   3.412   1.606   9.885  0.3523 -0.3442 -0.9866
  971MOL0     C30961   3.327   1.507   9.798 -1.4533  0.0658  0.0349
  971MOL0     C30962   3.180   1.494   9.828 -0.4909 -0.0059 -0.1275
  971MOL0     C30963   3.121   1.389   9.740 -0.4913  0.7852  0.4225
  971MOL0     C30964   2.970   1.377   9.768 -1.3796 -0.0588  0.9974
  971MOL0     C30965   2.897   1.287   9.672  0.0754  0.6419 -0.1874
  971MOL0     C30966   2.749   1.281   9.714  0.3840  1.0636  0.0032
  971MOL0     N30967   2.715   1.212   9.845  0.5814  0.1056  0.1523
  971MOL0     C30968   2.764   1.095   9.901  0.2823  0.3212 -0.4054
  971MOL0     C30969   2.707   1.098  10.032  0.8946  0.0447  0.1455
  971MOL0     C30970   2.726   1.008  10.148 -0.0610  0.9836 -0.2446
  971MOL0     C30971   2.642   0.883  10.150  0.6663  1.4743  0.1776
  971MOL0     C30972   2.489   0.906  10.136  0.3887 -0.0992  0.2644
  971MOL0     C30973   2.430   0.980  10.254 -0.1975 -1.2519 -0.1205
  971MOL0     O30974   2.297   1.010  10.212  0.8824  0.1248 -0.1932
  971MOL0     C30975   2.195   0.940  10.272 -0.6935 -0.9609 -0.0105
  971MOL0     C30976   2.205   0.845  10.370 -0.6628  0.6736  0.2342
  971MOL0     C30977   2.098   0.781  10.430 -0.0304  0.0833  0.5083
  971MOL0     C30978   2.132   0.660  10.514 -0.3113  0.5954  0.1258
  971MOL0     C30979   1.965   0.828  10.397  0.5576 -0.0764 -0.5281
  971MOL0     C30980   1.835   0.773  10.454  0.3219 -1.0391 -0.5120
  971MOL0     O30981   1.714   0.835  10.421 -0.0776 -0.0769  0.7191
  971MOL0     C30982   1.598   0.832  10.497 -0.1073 -0.0985  1.0577
  971MOL0     C30983   1.573   0.761  10.617 -0.8772  0.3212  0.3694
  971MOL0     C30984   1.456   0.784  10.693  0.0312 -0.2185 -0.6867
  971MOL0     C30985   1.361   0.872  10.646  0.5421  0.0633  1.1461
  971MOL0     O30986   1.237   0.891  10.713 -0.2249 -0.6189  0.8907
  971MOL0     C30987   1.114   0.903  10.632 -0.2284  0.0751  0.8398
  971MOL0     C30988   1.012   0.816  10.705 -0.0552 -0.3793  0.3414
  971MOL0     C30989   0.895   0.775  10.611 -0.0227  0.8009  0.2553
  971MOL0     C30990   0.777   0.707  10.685 -0.7820 -0.9188 -0.0563
  971MOL0     C30991   0.652   0.687  10.588  0.0871 -0.0572 -0.4243
  971MOL0     C30992   0.530   0.674  10.676  0.1611  0.1235 -0.1891
  971MOL0     C30993   0.422   0.625  10.585  0.4090 -0.1457  1.0860
  971MOL0     C30994   0.300   0.573  10.666  0.3415 -0.0336 -0.8724
  971MOL0    Cl30995   0.333   0.407  10.711  0.0034 -0.1066 -0.0503
  971MOL0     C30996   1.391   0.946  10.532 -1.6078  0.4027 -1.0523
  971MOL0     C30997   1.504   0.923  10.456  0.1293  0.4542  0.3284
  971MOL0     O30998   1.842   0.673  10.527 -0.2941  0.2616 -0.0047
  971MOL0     C30999   1.954   0.939  10.308 -0.1563  0.5022  0.4838
  971MOL0     C31000   2.068   0.980  10.238 -0.7357 -0.3190 -0.3067
  971MOL0     N31001   2.628   1.214  10.044 -0.2693 -0.2667 -0.1931
  971MOL0     N31002   2.632   1.276   9.926 -0.5825 -0.4351  0.1641
  971MOL0     C31003   3.802   1.535   9.654  0.0100  1.3743 -0.2349
  971MOL0     C31004   3.932   1.564   9.606  0.3588 -0.2308 -0.0671
  971MOL0     C31005   4.372   1.578   9.606  0.0044  0.9534 -0.0225
  971MOL0     C31006   4.472   1.485   9.593 -0.4385  0.2043 -0.5308
  971MOL0     C31007   4.602   1.525   9.584 -0.1146 -1.4092  0.2306
  971MOL0     C31008   4.641   1.656   9.548  0.8038 -0.0610 -0.4704
  971MOL0     O31009   4.766   1.695   9.519  0.4958 -0.0868 -1.4196
  971MOL0     C31010   4.869   1.598   9.549  0.2779  0.0785  0.4058
  971MOL0     C31011   5.008   1.657   9.497 -0.7109  0.3469 -0.0264
  971MOL0     C31012   5.107   1.546   9.479 -0.0384  0.1974 -0.1338
  971MOL0     C31013   5.222   1.578   9.379 -0.7753 -0.0106  0.5961
  971MOL0     C31014   5.314   1.685   9.420  0.2899  0.6871  0.0517
  971MOL0     C31015   5.399   1.748   9.473  0.7186  0.3159  0.4793
  971MOL0     C31016   4.535   1.747   9.540 -0.2132  0.2022  1.5462
  971MOL0     C31017   4.404   1.711   9.577  0.1556  0.0319 -0.3910
  971MOL0     H31018   4.065   1.636   9.907 -0.3005  1.3407 -0.0044
  971MOL0     H31019   3.817   1.590   9.985 -0.4419 -0.1273  0.0955
  971MOL0     H31020   3.565   1.525  10.009  3.3492  1.5842  1.7348
  971MOL0     H31021   3.608   1.678   9.937  0.2639  0.2661 -1.7265
  971MOL0     H31022   3.369   1.618   9.985  1.2286 -2.7670 -0.2386
  971MOL0     H31023   3.408   1.704   9.837 -1.9962  0.5280  0.7609
  971MOL0     H31024   3.348   1.516   9.691  3.6014 -1.9411  0.5895
  971MOL0     H31025   3.379   1.419   9.836 -0.5790  0.1958 -0.8157
  971MOL0     H31026   3.161   1.452   9.927 -0.1174 -1.4627 -0.6522
  971MOL0     H31027   3.137   1.594   9.815  3.3498  1.9958  1.0072
  971MOL0     H31028   3.147   1.405   9.635 -2.1419 -2.3330 -0.6079
  971MOL0     H31029   3.160   1.288   9.760  2.8466  2.3146  2.5435
  971MOL0     H31030   2.954   1.339   9.869  2.4030  0.8503  2.0715
  971MOL0     H31031   2.927   1.477   9.758 -3.0763 -0.4798  3.2344
  971MOL0     H31032   2.902   1.327   9.570 -1.4780  2.2659  0.3271
  971MOL0     H31033   2.939   1.186   9.677  1.2304  1.1733  2.2535
  971MOL0     H31034   2.689   1.241   9.633  2.7812  0.7554 -1.7172
  971MOL0     H31035   2.713   1.381   9.742  0.6136  1.1096  0.1441
  971MOL0     H31036   2.844   1.028   9.870 -0.5837 -0.9284 -0.0110
  971MOL0     H31037   2.831   0.978  10.150 -0.2442  0.2624 -1.0318
  971MOL0     H31038   2.699   1.062  10.240 -0.2082 -0.3832  0.5386
  971MOL0     H31039   2.659   0.830  10.243 -2.3555  0.3062  0.1879
  971MOL0     H31040   2.674   0.825  10.063 -1.1083 -0.4068  0.6901
  971MOL0     H31041   2.435   0.812  10.120 -1.0823  0.9208 -1.0921
  971MOL0     H31042   2.464   0.967  10.048 -0.0842  0.7957  1.0034
  971MOL0     H31043   2.486   1.071  10.273 -0.0483 -1.2123 -0.7520
  971MOL0     H31044   2.436   0.932  10.352 -0.6839 -2.1802 -0.5276
  971MOL0     H31045   2.297   0.795  10.401 -2.2824 -2.8307 -0.0954
  971MOL0     H31046   2.106   0.696  10.614  2.2832  4.3168 -0.3046
  971MOL0     H31047   2.070   0.580  10.472 -0.1466  0.2215  0.5966
  971MOL0     H31048   2.237   0.631  10.526 -0.1441  1.8915  2.2588
  971MOL0     H31049   1.650   0.699  10.661 -2.1591 -1.0658  0.7873
  971MOL0     H31050   1.418   0.726  10.777 -0.3984  2.9712  1.5540
  971MOL0     H31051   1.085   1.007  10.613 -1.6775 -0.4854 -0.3099
  971MOL0     H31052   1.145   0.869  10.533 -1.7432 -0.0734  0.3847
  971MOL0     H31053   1.048   0.714  10.723 -0.5061 -0.8521 -1.2606
  971MOL0     H31054   0.982   0.871  10.795 -1.7637  0.8622 -0.9336
  971MOL0     H31055   0.929   0.704  10.534 -1.8402 -1.0258  1.0416
  971MOL0     H31056   0.857   0.865  10.562  2.1736  1.6119 -0.0632
  971MOL0     H31057   0.797   0.612  10.736  3.7894 -0.3369 -0.3227
  971MOL0     H31058   0.753   0.788  10.755  0.4394  0.0050 -0.6859
  971MOL0     H31059   0.669   0.595  10.530 -0.8263  1.0337 -2.5542
  971MOL0     H31060   0.643   0.771  10.518  1.1609  0.4846  0.0719
  971MOL0     H31061   0.547   0.594  10.749  1.1240 -0.3085 -0.8637
  971MOL0     H31062   0.498   0.768  10.721  1.6292  0.5175  0.0818
  971MOL0     H31063   0.464   0.546  10.522  0.2833  0.3014  0.4238
  971MOL0     H31064   0.383   0.706  10.523  0.4745 -1.7164 -1.1463
  971MOL0     H31065   0.207   0.565  10.610  0.9895  0.4741 -2.0593
  971MOL0     H31066   0.285   0.631  10.757 -1.3629  1.2605 -1.9219
  971MOL0     H31067   1.326   1.029  10.506 -0.2819  1.4545 -1.1516
  971MOL0     H31068   1.518   0.991  10.373  3.0097 -1.8317 -1.2372
  971MOL0     H31069   1.857   0.975  10.277 -1.4406 -0.8890  2.5584
  971MOL0     H31070   2.064   1.053  10.158 -0.1244  1.8534  1.5783
  971MOL0     H31071   3.737   1.508   9.571 -0.1770 -0.3674  0.4455
  971MOL0     H31072   3.958   1.556   9.501 -2.1792  0.3556 -0.7946
  971MOL0     H31073   4.446   1.380   9.603  0.1275 -0.0720 -1.7668
  971MOL0     H31074   4.674   1.444   9.591  2.2327  0.5286  0.0864
  971MOL0     H31075   4.869   1.578   9.657 -1.4697 -0.8421  0.2747
  971MOL0     H31076   4.861   1.503   9.495  2.2135  0.2980 -0.3266
  971MOL0     H31077   5.038   1.725   9.577 -3.9150 -1.0225  2.5807
  971MOL0     H31078   4.984   1.712   9.406 -2.7345  0.0512  0.2769
  971MOL0     H31079   5.065   1.455   9.434 -0.7260  0.0544  0.7656
  971MOL0     H31080   5.146   1.522   9.578  2.6825  3.2372 -0.3067
  971MOL0     H31081   5.187   1.608   9.280  1.5535  2.1222  0.3101
  971MOL0     H31082   5.278   1.484   9.369 -0.7326  0.1002 -0.2212
  971MOL0     H31083   5.480   1.810   9.505 -0.3911  1.3991  1.3044
  971MOL0     H31084   4.558   1.852   9.519 -2.9057  1.1267  2.8202
  971MOL0     H31085   4.332   1.791   9.594 -0.2066 -0.5188  0.8487
  972MOL0     O31086   5.050   7.501   9.393  1.4421  0.2608 -0.1796
  972MOL0     C31087   5.033   7.388   9.343  0.4018  0.4368 -1.1437
  972MOL0     O31088   5.077   7.268   9.401 -0.1296  0.1302 -0.2015
  972MOL0     C31089   5.158   7.272   9.511 -0.1714 -0.0499 -0.1190
  972MOL0     C31090   5.275   7.357   9.521  0.3487 -1.2548  0.4145
  972MOL0     C31091   5.361   7.335   9.630  0.2962 -0.4323  0.1908
  972MOL0     C31092   5.339   7.234   9.728 -0.5165 -0.2001  0.6968
  972MOL0     O31093   5.415   7.220   9.845 -0.5025  1.1882 -0.0860
  972MOL0     C31094   5.551   7.232   9.847 -0.6723 -0.6863 -0.0078
  972MOL0     C31095   5.599   7.100   9.920  0.1679  0.1182 -0.2418
  972MOL0     C31096   5.719   7.116  10.017  0.1288 -0.3021  0.0661
  972MOL0     C31097   5.754   6.985  10.093 -0.0049 -0.1358  0.7082
  972MOL0     C31098   5.838   7.015  10.219  0.2402  0.5153  0.4017
  972MOL0     C31099   5.869   6.897  10.308  0.3557  0.9510  0.6816
  972MOL0     C31100   5.966   6.927  10.419  0.5752 -0.5289  0.4637
  972MOL0     C31101   6.111   6.937  10.374 -0.7997  0.9319  0.2366
  972MOL0     N31102   6.150   6.836  10.275 -0.5228  0.0150 -0.7559
  972MOL0     C31103   6.169   6.705  10.303  0.5761 -0.6110  0.1715
  972MOL0     C31104   6.184   6.649  10.185  0.8730  0.2395 -0.3673
  972MOL0     C31105   6.194   6.496  10.175  0.2140 -1.2558 -0.7932
  972MOL0     C31106   6.306   6.427  10.252  0.0657  0.1451 -0.0862
  972MOL0     C31107   6.438   6.440  10.166  0.3623 -0.7022 -0.3746
  972MOL0     C31108   6.507   6.567  10.201  0.3194  0.3631  0.1878
  972MOL0     O31109   6.620   6.573  10.116 -0.8329 -0.1740 -0.2530
  972MOL0     C31110   6.724   6.643  10.183  0.0572  0.0462  0.6924
  972MOL0     C31111   6.794   6.580  10.284  0.6357  0.0853 -0.0341
  972MOL0     C31112   6.905   6.636  10.350  0.4599 -1.1643 -0.1525
  972MOL0     C31113   7.005   6.543  10.425  0.4898 -0.2479  0.1047
  972MOL0     C31114   6.934   6.776  10.331 -0.5751  0.4244  0.7973
  972MOL0     C31115   7.044   6.849  10.398 -0.0495  0.8044 -0.2586
  972MOL0     O31116   7.074   6.967  10.346 -0.5411  0.3303  1.1352
  972MOL0     C31117   7.190   7.040  10.370  0.2314  0.1417  0.4206
  972MOL0     C31118   7.311   7.000  10.429 -0.1641 -0.1764  1.1940
  972MOL0     C31119   7.414   7.085  10.465  0.2643 -0.3747 -0.3550
  972MOL0     C31120   7.403   7.228  10.453  0.3212 -0.9466 -0.8293
  972MOL0     O31121   7.509   7.309  10.489  0.2163 -0.1199  0.3077
  972MOL0     C31122   7.624   7.246  10.550 -0.9905 -0.0865 -0.4996
  972MOL0     C31123   7.728   7.356  10.572 -0.3726  0.7147 -0.4624
  972MOL0     C31124   7.863   7.297  10.613  0.1382  0.7611 -0.1167
  972MOL0     C31125   7.969   7.398  10.612  0.2211 -0.2565  0.5362
  972MOL0     C31126   8.104   7.348  10.680 -0.1582 -0.3869  0.2017
  972MOL0     C31127   8.209   7.460  10.669  0.4068  0.0091  0.0386
  972MOL0     C31128   8.348   7.420  10.727  0.0636 -0.2160  0.4667
  972MOL0     C31129   8.450   7.537  10.719 -0.7262 -0.4503  0.1236
  972MOL0    Cl31130   8.477   7.582  10.545  0.0298 -0.2695  0.0430
  972MOL0     C31131   7.284   7.275  10.384  0.1689 -1.8914  0.4201
  972MOL0     C31132   7.186   7.179  10.345  0.2708  0.8730  0.9744
  972MOL0     O31133   7.099   6.802  10.499 -0.7434  0.5758  0.4239
  972MOL0     C31134   6.857   6.841  10.230  0.6721 -0.1154  0.5687
  972MOL0     C31135   6.760   6.776  10.155 -0.7752  0.3093  0.5190
  972MOL0     N31136   6.174   6.738  10.086  0.8840 -0.8057 -0.3139
  972MOL0     N31137   6.156   6.856  10.138 -0.6382  0.7568  0.7922
  972MOL0     C31138   5.220   7.165   9.715 -0.9637  0.5323 -0.1351
  972MOL0     C31139   5.137   7.178   9.605  0.0520  0.2999 -0.9126
  972MOL0     C31140   4.953   7.379   9.220  0.5812 -0.0940  0.3038
  972MOL0     C31141   4.918   7.496   9.148  0.3506  0.0203 -1.3920
  972MOL0     C31142   4.844   7.488   9.034 -0.2508  0.5893 -0.2317
  972MOL0     C31143   4.777   7.372   9.000 -0.1761 -0.5137 -0.2696
  972MOL0     O31144   4.703   7.373   8.885  0.4335 -0.2159 -0.5299
  972MOL0     C31145   4.607   7.267   8.874  0.1122  0.0285 -0.0411
  972MOL0     C31146   4.664   7.154   8.787  0.1087 -0.3023 -0.3194
  972MOL0     C31147   4.630   7.165   8.639  0.3314  0.1768  0.0914
  972MOL0     C31148   4.483   7.145   8.600 -0.2526  0.5672  0.1129
  972MOL0     C31149   4.440   7.006   8.637  0.5096 -0.4668  0.4591
  972MOL0     C31150   4.384   6.898   8.667 -0.3681 -0.0456 -0.3862
  972MOL0     C31151   4.811   7.255   9.072 -0.4228  0.3114 -0.3363
  972MOL0     C31152   4.886   7.258   9.191  0.2745 -0.5981 -0.4021
  972MOL0     H31153   5.289   7.437   9.449 -1.9139 -0.9180  0.2962
  972MOL0     H31154   5.455   7.390   9.628 -0.5483  1.0681  0.8452
  972MOL0     H31155   5.608   7.227   9.754  2.9219 -1.4064  2.0309
  972MOL0     H31156   5.573   7.324   9.902  0.3343 -1.3432  0.7057
  972MOL0     H31157   5.509   7.059   9.967 -0.7749 -0.1502 -2.1851
  972MOL0     H31158   5.619   7.025   9.843 -1.6862 -2.3838  1.5461
  972MOL0     H31159   5.801   7.139   9.948  1.1032  0.3710  1.3960
  972MOL0     H31160   5.696   7.199  10.084  0.2712  1.5080 -2.0075
  972MOL0     H31161   5.658   6.941  10.120 -0.1364  0.1526  0.7166
  972MOL0     H31162   5.802   6.913  10.026 -0.8371 -1.9559  1.9949
  972MOL0     H31163   5.930   7.072  10.200 -0.0130 -0.0055 -2.8320
  972MOL0     H31164   5.781   7.087  10.279 -1.2987  3.0090 -3.6848
  972MOL0     H31165   5.777   6.867  10.358 -0.2244  2.7798  0.7943
  972MOL0     H31166   5.910   6.812  10.252 -0.7059 -0.7055  2.3225
  972MOL0     H31167   5.940   7.025  10.462 -1.1903 -1.4603  1.6656
  972MOL0     H31168   5.966   6.862  10.506  0.7799  0.9024  1.5764
  972MOL0     H31169   6.181   6.930  10.458 -0.3633 -0.9473 -0.2316
  972MOL0     H31170   6.130   7.031  10.321 -1.6720  0.7823 -0.3626
  972MOL0     H31171   6.160   6.664  10.403 -2.1713  3.0238  1.6569
  972MOL0     H31172   6.100   6.465  10.222  1.6372 -4.1917  0.3485
  972MOL0     H31173   6.193   6.454  10.074 -1.8355 -1.3865 -0.7656
  972MOL0     H31174   6.275   6.323  10.253  1.2545 -0.2545 -1.4373
  972MOL0     H31175   6.311   6.463  10.356 -1.2630 -1.2473  0.4933
  972MOL0     H31176   6.418   6.437  10.058 -3.0444  2.1122 -0.0342
  972MOL0     H31177   6.502   6.356  10.191  0.8493 -1.3122 -3.2943
  972MOL0     H31178   6.537   6.569  10.306  0.3303 -1.1718  0.2479
  972MOL0     H31179   6.453   6.660  10.181  0.7268  0.1611 -2.0017
  972MOL0     H31180   6.780   6.472  10.284  1.4130 -0.0586 -2.0149
  972MOL0     H31181   7.022   6.575  10.528 -0.3341  0.6713 -0.0211
  972MOL0     H31182   6.957   6.445  10.426  0.8795 -0.4776 -1.3743
  972MOL0     H31183   7.102   6.530  10.377 -0.3188 -2.7201 -1.0313
  972MOL0     H31184   7.339   6.895  10.429 -1.2702 -0.4934  0.2371
  972MOL0     H31185   7.500   7.045  10.517  0.4496  0.2420 -0.1774
  972MOL0     H31186   7.594   7.201  10.646  0.9687 -0.8242 -0.1829
  972MOL0     H31187   7.668   7.165  10.490 -3.4068 -2.1624  0.3340
  972MOL0     H31188   7.735   7.412  10.479 -1.5061 -2.5998 -2.7394
  972MOL0     H31189   7.681   7.417  10.650 -2.5513 -0.8490 -0.4467
  972MOL0     H31190   7.894   7.211  10.553  0.7558 -0.3409  1.7105
  972MOL0     H31191   7.834   7.261  10.711 -2.4112  1.8177 -0.3944
  972MOL0     H31192   7.986   7.432  10.510 -0.4137  0.6978  0.7326
  972MOL0     H31193   7.934   7.483  10.672  1.5280  1.8145 -1.4293
  972MOL0     H31194   8.135   7.256  10.631 -1.2984 -0.9227  0.4626
  972MOL0     H31195   8.077   7.326  10.783  1.1077 -1.7834  0.2544
  972MOL0     H31196   8.214   7.484  10.563 -0.5966  0.7605  0.1525
  972MOL0     H31197   8.175   7.554  10.713 -3.2083 -0.7909 -0.7702
  972MOL0     H31198   8.384   7.334  10.669  1.2763  1.2252 -1.0504
  972MOL0     H31199   8.355   7.385  10.830  2.2803  0.1670  0.4980
  972MOL0     H31200   8.549   7.510  10.755 -0.6868  1.6627  1.7340
  972MOL0     H31201   8.417   7.628  10.770  0.9861  1.3767 -1.8221
  972MOL0     H31202   7.258   7.377  10.360 -2.5723 -2.4979  0.4605
  972MOL0     H31203   7.090   7.209  10.303 -0.4783 -2.6841 -0.1889
  972MOL0     H31204   6.877   6.942  10.197  0.3921 -0.3687 -0.4170
  972MOL0     H31205   6.713   6.823  10.070  1.4929 -0.2883 -1.1885
  972MOL0     H31206   5.200   7.085   9.785  0.6147 -0.3043 -0.5909
  972MOL0     H31207   5.052   7.115   9.584  0.1094  0.2255 -0.9223
  972MOL0     H31208   4.975   7.585   9.171 -0.8413  0.1786  1.4418
  972MOL0     H31209   4.832   7.578   8.975 -2.6507  1.5863  1.6032
  972MOL0     H31210   4.563   7.235   8.969  0.6471 -0.1968  0.1314
  972MOL0     H31211   4.523   7.313   8.821 -0.4634 -2.0443 -1.0708
  972MOL0     H31212   4.639   7.054   8.824 -0.5488 -0.1422 -0.3245
  972MOL0     H31213   4.772   7.146   8.802  0.0773 -1.3705 -0.5492
  972MOL0     H31214   4.691   7.095   8.581  0.8712 -1.0455  2.0476
  972MOL0     H31215   4.660   7.262   8.598 -3.2029  0.4913 -2.1965
  972MOL0     H31216   4.464   7.179   8.498 -0.0926  0.5957  0.0914
  972MOL0     H31217   4.427   7.206   8.672  0.3435 -1.1495  2.1535
  972MOL0     H31218   4.342   6.803   8.694 -0.0912 -0.1356 -0.2658
  972MOL0     H31219   4.771   7.159   9.040 -1.2020  0.2272  0.7980
  972MOL0     H31220   4.900   7.172   9.255 -2.8934 -1.7968 -1.1092
  973MOL0     O31221   5.903   4.124   3.153  0.1618 -0.4616  0.0590
  973MOL0     C31222   5.849   4.121   3.259 -0.4106 -0.2434 -0.5081
  973MOL0     O31223   5.720   4.149   3.296  0.1402  0.6541 -0.4640
  973MOL0     C31224   5.622   4.195   3.207  0.1372  0.0774  0.1461
  973MOL0     C31225   5.492   4.196   3.252 -0.0051 -0.1163  0.1971
  973MOL0     C31226   5.391   4.251   3.179  0.6416 -0.4850 -0.0092
  973MOL0     C31227   5.418   4.313   3.051  0.6570 -0.6308 -0.3421
  973MOL0     O31228   5.314   4.378   2.974 -0.4738 -0.4036  0.0275
  973MOL0     C31229   5.175   4.384   3.014  0.4632 -0.8314  0.0910
  973MOL0     C31230   5.091   4.477   2.914 -0.7534 -0.0252 -0.1697
  973MOL0     C31231   4.946   4.512   2.960  0.1982  1.1017  0.1230
  973MOL0     C31232   4.870   4.381   3.012 -0.0621  0.0792 -0.3633
  973MOL0     C31233   4.727   4.413   3.054 -1.1082  0.6097  0.1645
  973MOL0     C31234   4.628   4.429   2.944 -0.0996  0.3653  0.2533
  973MOL0     C31235   4.492   4.483   2.984 -0.2084 -0.8664  0.4956
  973MOL0     C31236   4.421   4.417   3.090 -0.6048  0.3563  0.0501
  973MOL0     N31237   4.291   4.491   3.099  0.5055 -0.0018 -0.4716
  973MOL0     C31238   4.195   4.497   3.008 -0.3132  0.5788  0.4625
  973MOL0     C31239   4.090   4.564   3.061  0.7101 -0.5741  0.1162
  973MOL0     C31240   3.953   4.579   3.004 -0.1275  0.4148 -0.4666
  973MOL0     C31241   3.836   4.566   3.107  0.4786  0.5348  0.1277
  973MOL0     C31242   3.709   4.575   3.034 -0.4809 -0.6222  0.3234
  973MOL0     C31243   3.598   4.545   3.134  0.3480 -0.3072  0.0788
  973MOL0     O31244   3.478   4.584   3.058 -0.4279  0.0169  0.1652
  973MOL0     C31245   3.354   4.575   3.114  0.3162 -0.0931  0.1048
  973MOL0     C31246   3.244   4.592   3.027 -0.2292 -0.0716 -0.8935
  973MOL0     C31247   3.110   4.577   3.080  0.4254  0.5764  0.5203
  973MOL0     C31248   2.996   4.626   2.991  0.0690 -0.3665 -1.2503
  973MOL0     C31249   3.085   4.530   3.221  0.4924  0.0257  1.0716
  973MOL0     C31250   2.943   4.513   3.272 -0.0337  0.0372 -0.6597
  973MOL0     O31251   2.946   4.531   3.408  0.0352 -0.1360  0.4411
  973MOL0     C31252   2.823   4.541   3.462  0.4241  0.3086 -0.0541
  973MOL0     C31253   2.760   4.661   3.493 -0.2951  0.4884 -0.4799
  973MOL0     C31254   2.631   4.666   3.545  0.4712 -0.3126  0.6563
  973MOL0     C31255   2.551   4.559   3.564 -0.3398 -0.1089  0.6584
  973MOL0     O31256   2.431   4.583   3.625 -0.0981  0.1477  0.4795
  973MOL0     C31257   2.358   4.466   3.672 -0.5537  0.1931  0.7158
  973MOL0     C31258   2.249   4.517   3.756  0.1228 -0.1579 -0.5216
  973MOL0     C31259   2.143   4.414   3.793  0.3385 -0.2763  0.1911
  973MOL0     C31260   2.034   4.490   3.865  0.1175  0.0356  0.2150
  973MOL0     C31261   1.953   4.425   3.979 -0.5343 -0.1480 -0.4206
  973MOL0     C31262   1.884   4.300   3.936  0.4294  1.0479 -0.1495
  973MOL0     C31263   1.766   4.271   4.030  0.2032 -0.0214  0.1568
  973MOL0     C31264   1.694   4.138   3.999 -0.1953  0.0709  0.9972
  973MOL0    Cl31265   1.790   3.996   4.043 -0.5876  0.0570  0.2892
  973MOL0     C31266   2.616   4.441   3.523  0.2555  0.4717 -0.4353
  973MOL0     C31267   2.743   4.426   3.472 -0.4765 -0.1005  0.0169
  973MOL0     O31268   2.843   4.492   3.193  0.4279 -0.7204 -0.2024
  973MOL0     C31269   3.200   4.512   3.302  0.6975 -0.0440 -0.1482
  973MOL0     C31270   3.327   4.536   3.251 -0.2556 -0.3976  0.9494
  973MOL0     N31271   4.126   4.600   3.186 -0.7469  0.9831  0.0668
  973MOL0     N31272   4.254   4.566   3.207  0.9541 -0.1283  0.6598
  973MOL0     C31273   5.552   4.300   3.002  0.6078  0.2820 -1.6007
  973MOL0     C31274   5.652   4.243   3.077 -0.0184 -0.0755  0.2561
  973MOL0     C31275   5.923   4.065   3.373 -0.2195  0.2990 -0.0772
  973MOL0     C31276   6.063   4.073   3.356  0.4427  0.2103 -0.4074
  973MOL0     C31277   6.144   4.027   3.450 -0.2424  0.3756  0.2592
  973MOL0     C31278   6.092   3.970   3.571 -0.4195 -0.0232 -0.5820
  973MOL0     O31279   6.179   3.906   3.663 -0.9335 -0.8372 -0.9466
  973MOL0     C31280   6.320   3.884   3.625 -0.8412  0.7424 -0.9833
  973MOL0     C31281   6.385   3.827   3.747 -0.0734  0.1993 -0.6054
  973MOL0     C31282   6.541   3.815   3.735 -0.1344 -0.1685 -0.7461
  973MOL0     C31283   6.608   3.796   3.868 -0.1404 -0.1927 -0.3932
  973MOL0     C31284   6.756   3.794   3.865  0.6496 -0.1218  0.7094
  973MOL0     C31285   6.876   3.778   3.858 -0.5364  0.1009  0.2260
  973MOL0     C31286   5.958   3.964   3.602  0.0646 -0.2269 -0.0734
  973MOL0     C31287   5.869   4.009   3.495 -0.0341  0.3528  0.5843
  973MOL0     H31288   5.468   4.148   3.346 -0.8888  1.6638  0.9330
  973MOL0     H31289   5.290   4.233   3.215  1.0819  1.1892  2.3174
  973MOL0     H31290   5.146   4.279   3.003  1.8783 -1.3507  1.0739
  973MOL0     H31291   5.166   4.421   3.116  1.9725 -0.7539  0.2255
  973MOL0     H31292   5.143   4.570   2.888  0.4597 -0.2302  1.3769
  973MOL0     H31293   5.082   4.432   2.814 -0.8645 -1.0077  0.2743
  973MOL0     H31294   4.948   4.596   3.030  0.0266  1.6864 -0.5547
  973MOL0     H31295   4.890   4.548   2.873 -1.4376 -0.5415  0.4314
  973MOL0     H31296   4.870   4.300   2.939 -3.4067 -0.5819  0.1905
  973MOL0     H31297   4.906   4.348   3.110  0.8027  1.6979 -0.1066
  973MOL0     H31298   4.692   4.340   3.127  0.8736 -2.7121 -1.9565
  973MOL0     H31299   4.735   4.509   3.105  1.7521 -0.3478  1.7080
  973MOL0     H31300   4.663   4.489   2.859  0.0160 -0.4938 -0.3253
  973MOL0     H31301   4.604   4.329   2.905 -0.1958  0.0553  1.0819
  973MOL0     H31302   4.511   4.589   3.006  0.0400 -0.4669 -1.4660
  973MOL0     H31303   4.432   4.484   2.892 -2.3265 -0.6935  1.8159
  973MOL0     H31304   4.485   4.418   3.179 -0.9617 -1.8350  0.3955
  973MOL0     H31305   4.408   4.310   3.073  1.1897 -0.3054  2.2864
  973MOL0     H31306   4.189   4.446   2.913 -2.5147  1.5608  0.0095
  973MOL0     H31307   3.946   4.681   2.964  1.8477  0.7655 -0.0111
  973MOL0     H31308   3.951   4.504   2.925 -0.5574  0.7595 -0.7926
  973MOL0     H31309   3.843   4.655   3.171  1.8163  0.1187  0.6038
  973MOL0     H31310   3.839   4.476   3.169 -2.4031  0.1611 -0.1340
  973MOL0     H31311   3.715   4.498   2.958  2.9315  0.0652 -0.2739
  973MOL0     H31312   3.693   4.675   2.992 -0.6961 -0.9214 -0.3197
  973MOL0     H31313   3.606   4.609   3.223  2.7072 -0.2649 -0.0944
  973MOL0     H31314   3.597   4.437   3.152 -0.7288 -0.1462  1.1219
  973MOL0     H31315   3.273   4.626   2.928  1.6898 -1.4008 -0.8556
  973MOL0     H31316   3.024   4.694   2.909  0.8780 -0.2213 -0.8700
  973MOL0     H31317   2.946   4.541   2.944  1.1059 -1.3902 -0.5470
  973MOL0     H31318   2.920   4.670   3.056  0.4356 -2.3063  0.6203
  973MOL0     H31319   2.804   4.759   3.472  1.4634 -0.6080 -2.2434
  973MOL0     H31320   2.596   4.768   3.560  0.1883 -0.0462 -1.5341
  973MOL0     H31321   2.334   4.411   3.580  1.5450 -2.1955  1.5008
  973MOL0     H31322   2.426   4.398   3.723 -1.2338 -2.2691 -1.4389
  973MOL0     H31323   2.292   4.551   3.851  0.4110 -4.3975  1.0853
  973MOL0     H31324   2.201   4.600   3.703  3.0559  0.3844 -2.5851
  973MOL0     H31325   2.178   4.331   3.855  1.1605 -0.4863 -0.5481
  973MOL0     H31326   2.110   4.359   3.703  0.0233 -0.0811  0.1848
  973MOL0     H31327   2.088   4.571   3.914  1.9981  0.0114 -1.6741
  973MOL0     H31328   1.964   4.529   3.790 -1.8225 -1.5789  1.1089
  973MOL0     H31329   1.877   4.497   4.011  0.1216  0.8894 -1.1292
  973MOL0     H31330   2.024   4.402   4.058 -0.5110 -0.3585 -0.5010
  973MOL0     H31331   1.859   4.296   3.830  0.2795  0.6144 -0.1006
  973MOL0     H31332   1.958   4.221   3.955 -0.8781 -1.2985 -3.6672
  973MOL0     H31333   1.694   4.353   4.024 -2.3836 -2.0172  1.7441
  973MOL0     H31334   1.806   4.266   4.132  1.5980  0.3263 -0.3440
  973MOL0     H31335   1.653   4.131   3.898  0.1326  1.3204  0.7661
  973MOL0     H31336   1.606   4.124   4.062 -1.6042 -2.3925 -1.3148
  973MOL0     H31337   2.560   4.348   3.520 -2.4757  1.9766  0.5285
  973MOL0     H31338   2.779   4.327   3.446 -2.1791 -1.8720  3.7710
  973MOL0     H31339   3.185   4.482   3.405 -2.5497 -0.3086 -0.5867
  973MOL0     H31340   3.408   4.517   3.320  0.5665  0.1190  0.1570
  973MOL0     H31341   5.565   4.344   2.904 -0.2221  2.4704 -0.7912
  973MOL0     H31342   5.749   4.262   3.031 -0.1329  3.5506  1.1948
  973MOL0     H31343   6.109   4.120   3.269 -1.1088  2.1184 -0.2552
  973MOL0     H31344   6.248   4.023   3.421  0.2551  0.9539  1.8933
  973MOL0     H31345   6.329   3.817   3.539  1.6710 -1.5877  0.9138
  973MOL0     H31346   6.371   3.975   3.593  0.0101 -0.1809 -2.3672
  973MOL0     H31347   6.341   3.730   3.773  2.5727 -0.8780  0.2318
  973MOL0     H31348   6.363   3.902   3.823  1.8031 -0.5497  0.7598
  973MOL0     H31349   6.576   3.911   3.697  2.5775 -0.2911  1.1650
  973MOL0     H31350   6.558   3.735   3.662  1.2922  1.2902 -2.0997
  973MOL0     H31351   6.581   3.701   3.916  0.4200  0.9077  2.2592
  973MOL0     H31352   6.586   3.875   3.940 -0.6908  0.6483 -1.4613
  973MOL0     H31353   6.982   3.764   3.857 -0.6688 -0.9202 -0.4467
  973MOL0     H31354   5.927   3.906   3.688  0.3976  0.7037  0.6939
  973MOL0     H31355   5.762   4.001   3.511  0.2884 -1.8305  2.2308
  974MOL0     O31356   3.597   2.386   9.778  0.5179  0.3077 -0.8575
  974MOL0     C31357   3.622   2.355   9.662  0.6928  0.1715 -0.0863
  974MOL0     O31358   3.528   2.322   9.568  0.1467  1.0862 -0.8281
  974MOL0     C31359   3.397   2.332   9.613  0.4550  0.9203 -0.4764
  974MOL0     C31360   3.331   2.436   9.672  0.5985  0.1107  0.2756
  974MOL0     C31361   3.192   2.429   9.692 -0.0319  0.0276 -1.2946
  974MOL0     C31362   3.112   2.314   9.648  0.7356  0.6425  0.2182
  974MOL0     O31363   2.976   2.305   9.641 -0.4759  0.0787 -0.3330
  974MOL0     C31364   2.893   2.400   9.712  0.9849 -0.4062  0.2702
  974MOL0     C31365   2.750   2.366   9.677  0.3243 -0.1496  0.1957
  974MOL0     C31366   2.689   2.268   9.778 -0.0317 -0.1937 -0.6313
  974MOL0     C31367   2.544   2.247   9.749 -0.1971  0.3281 -0.0617
  974MOL0     C31368   2.499   2.131   9.837  0.2450  0.1530 -0.0060
  974MOL0     C31369   2.457   2.166   9.985  0.2454 -0.5920 -0.6252
  974MOL0     C31370   2.396   2.058  10.071 -0.6906 -0.3308  0.6331
  974MOL0     C31371   2.488   1.939  10.094  0.0897  0.3551 -0.1872
  974MOL0     N31372   2.621   1.984  10.148  0.1318  0.6447 -0.0273
  974MOL0     C31373   2.632   2.000  10.282 -0.4170 -0.3233 -0.8110
  974MOL0     C31374   2.766   2.010  10.295  0.2243 -0.6532 -0.0795
  974MOL0     C31375   2.850   2.022  10.421  0.5093 -0.4894  0.3261
  974MOL0     C31376   2.937   1.907  10.460 -0.1449 -0.4652 -0.3597
  974MOL0     C31377   3.015   1.936  10.587 -0.2337  0.5096 -0.3612
  974MOL0     C31378   3.129   2.030  10.573 -0.5944 -0.2661 -0.2695
  974MOL0     O31379   3.245   1.954  10.530 -0.2028 -0.5773  0.0337
  974MOL0     C31380   3.338   1.932  10.621  0.2031  0.2509 -0.8316
  974MOL0     C31381   3.307   1.916  10.762  0.4806 -0.0118  0.8451
  974MOL0     C31382   3.408   1.915  10.855 -0.2999 -0.8244  0.7367
  974MOL0     C31383   3.357   1.909  11.005 -0.3266  0.9942 -0.0337
  974MOL0     C31384   3.542   1.937  10.820  0.0366  0.4948 -0.0905
  974MOL0     C31385   3.658   1.952  10.917 -1.3364  0.1997  0.7345
  974MOL0     O31386   3.773   2.003  10.858  0.3510  0.1373  0.2635
  974MOL0     C31387   3.876   2.031  10.938 -0.4128  0.6344 -0.7177
  974MOL0     C31388   4.011   2.015  10.899  0.7001  0.0263 -0.0958
  974MOL0     C31389   4.117   2.055  10.979  0.7225  0.1145 -0.6575
  974MOL0     C31390   4.087   2.096  11.119 -0.7185 -0.2638  0.1278
  974MOL0     O31391   4.193   2.130  11.198  0.4156 -0.5082  0.1291
  974MOL0     C31392   4.316   2.180  11.130 -0.1074 -0.9471 -0.2206
  974MOL0     C31393   4.415   2.245  11.230 -1.0367  0.4283  0.6164
  974MOL0     C31394   4.463   2.158  11.337 -0.0015  0.2231 -0.2380
  974MOL0     C31395   4.578   2.222  11.425 -0.5907 -0.5041 -0.6919
  974MOL0     C31396   4.651   2.135  11.525  0.4976 -0.2938 -0.1236
  974MOL0     C31397   4.563   2.084  11.642  0.8570 -0.7488  0.5388
  974MOL0     C31398   4.652   2.027  11.750 -0.1584 -0.6242  0.7459
  974MOL0     C31399   4.568   1.978  11.868 -0.3302  0.6958 -0.1031
  974MOL0    Cl31400   4.513   2.095  11.974 -0.0526  0.0333 -0.2303
  974MOL0     C31401   3.959   2.107  11.167  0.0697  1.8294 -0.3616
  974MOL0     C31402   3.857   2.074  11.076  0.4006 -0.6407 -0.0480
  974MOL0     O31403   3.660   1.881  11.020  0.0639 -0.6118 -1.2404
  974MOL0     C31404   3.571   1.955  10.678  0.4551 -0.4318  0.2660
  974MOL0     C31405   3.469   1.955  10.581  0.6040 -0.0810 -0.2857
  974MOL0     N31406   2.829   2.002  10.165  0.4687  0.9926 -0.5232
  974MOL0     N31407   2.736   1.989  10.074 -0.2034 -0.4729 -0.6521
  974MOL0     C31408   3.179   2.205   9.607  0.4703  0.3582 -0.8155
  974MOL0     C31409   3.323   2.213   9.583 -0.3584  0.1204 -0.5250
  974MOL0     C31410   3.760   2.399   9.626 -0.5874 -0.7094  0.2170
  974MOL0     C31411   3.842   2.470   9.727 -1.0187 -0.1247  0.4220
  974MOL0     C31412   3.964   2.519   9.684 -0.0236  0.8092 -1.1196
  974MOL0     C31413   3.998   2.532   9.547  0.2239 -0.2157 -0.3172
  974MOL0     O31414   4.106   2.607   9.499 -0.4996  1.2384  0.1182
  974MOL0     C31415   4.148   2.727   9.566  0.7102 -0.2645  0.5010
  974MOL0     C31416   4.295   2.715   9.574 -0.4609 -0.1158  0.4502
  974MOL0     C31417   4.354   2.619   9.677 -0.4997 -0.0448  0.1622
  974MOL0     C31418   4.507   2.631   9.715 -0.5078 -1.4694  0.1677
  974MOL0     C31419   4.591   2.632   9.591  0.0530  0.0586 -0.5260
  974MOL0     C31420   4.659   2.638   9.497 -0.2133  0.2244  0.2836
  974MOL0     C31421   3.912   2.466   9.455 -0.6095 -0.6033  0.2570
  974MOL0     C31422   3.803   2.399   9.493  0.2261  0.4947  0.2917
  974MOL0     H31423   3.393   2.523   9.694 -0.0355  0.3952  0.9847
  974MOL0     H31424   3.138   2.503   9.751 -0.7464 -0.6350 -1.0969
  974MOL0     H31425   2.910   2.400   9.820 -0.2351 -0.8767  0.4792
  974MOL0     H31426   2.908   2.502   9.676  0.6431 -0.2531  0.5495
  974MOL0     H31427   2.685   2.454   9.672  1.4517  0.6809 -4.7441
  974MOL0     H31428   2.734   2.332   9.574 -1.0368  1.6419 -0.2514
  974MOL0     H31429   2.753   2.179   9.773  0.9073  0.4322 -0.1161
  974MOL0     H31430   2.705   2.307   9.879  0.9932 -0.5804 -0.6243
  974MOL0     H31431   2.500   2.342   9.780  4.0530  3.0281 -1.4590
  974MOL0     H31432   2.527   2.228   9.643 -1.1817 -2.3115  0.4906
  974MOL0     H31433   2.417   2.089   9.777  0.2270  1.2694 -0.7906
  974MOL0     H31434   2.573   2.051   9.845 -2.9790 -3.0506  0.7919
  974MOL0     H31435   2.536   2.211  10.045 -1.0267  0.8857 -0.0098
  974MOL0     H31436   2.379   2.241   9.968 -0.4624 -1.2944 -0.5155
  974MOL0     H31437   2.367   2.093  10.170  0.6557  1.1620  0.5336
  974MOL0     H31438   2.304   2.028  10.020  0.9051 -2.4326 -1.2166
  974MOL0     H31439   2.512   1.881  10.004  0.7929  0.3022  0.0241
  974MOL0     H31440   2.440   1.872  10.166  0.6180  0.7431  0.5299
  974MOL0     H31441   2.547   2.013  10.348 -0.1726  5.9951 -1.2005
  974MOL0     H31442   2.910   2.109  10.391 -0.3014 -0.5923 -1.7566
  974MOL0     H31443   2.785   2.038  10.507  1.2849  3.2892  0.3838
  974MOL0     H31444   3.006   1.876  10.381 -1.1876 -3.5174 -0.2096
  974MOL0     H31445   2.880   1.815  10.479 -1.6687  0.6836  0.8416
  974MOL0     H31446   3.051   1.834  10.609  1.8067  0.5382 -3.0227
  974MOL0     H31447   2.944   1.955  10.669 -1.2259 -0.7154 -0.8976
  974MOL0     H31448   3.141   2.082  10.668 -2.3956 -2.7757  1.4896
  974MOL0     H31449   3.122   2.104  10.493  3.8641 -1.2098 -1.8043
  974MOL0     H31450   3.208   1.903  10.803  0.4334  1.1047  1.0960
  974MOL0     H31451   3.407   1.983  11.068 -0.7787 -0.7880  2.6092
  974MOL0     H31452   3.249   1.921  11.021 -0.6950 -2.5675  1.0365
  974MOL0     H31453   3.390   1.808  11.032 -1.1288  1.0689  1.2868
  974MOL0     H31454   4.013   1.969  10.800  1.0360 -2.2657  0.9199
  974MOL0     H31455   4.215   2.058  10.933  0.7885 -0.3992 -0.5561
  974MOL0     H31456   4.359   2.094  11.079  1.3179 -0.2077 -0.3153
  974MOL0     H31457   4.292   2.259  11.057 -1.1469 -0.8202  0.2416
  974MOL0     H31458   4.499   2.268  11.163 -1.2768 -3.8511 -1.5065
  974MOL0     H31459   4.375   2.334  11.279 -1.3683  0.7082 -0.1569
  974MOL0     H31460   4.510   2.071  11.290  2.3745 -0.1258  2.4993
  974MOL0     H31461   4.380   2.121  11.398  0.9069 -2.6531 -0.5688
  974MOL0     H31462   4.652   2.263  11.356 -0.8023  1.1255 -0.0028
  974MOL0     H31463   4.536   2.300  11.489  2.4336  0.9842 -0.3441
  974MOL0     H31464   4.738   2.194  11.554  2.3584 -0.7064 -4.0993
  974MOL0     H31465   4.694   2.053  11.466 -0.2818  0.1935 -1.4029
  974MOL0     H31466   4.506   2.168  11.682 -2.5189 -1.4741 -2.2889
  974MOL0     H31467   4.483   2.016  11.612 -0.5956  0.3799  1.7216
  974MOL0     H31468   4.722   2.102  11.788  0.8052 -0.0322 -1.9660
  974MOL0     H31469   4.719   1.949  11.712  0.7534  0.7503 -0.5920
  974MOL0     H31470   4.634   1.910  11.923 -0.4140  0.6019 -0.1197
  974MOL0     H31471   4.485   1.913  11.840  1.4511 -2.1175  0.6898
  974MOL0     H31472   3.937   2.140  11.268 -2.5860 -1.3028  0.2285
  974MOL0     H31473   3.760   2.102  11.114 -0.4999  0.2084 -2.7514
  974MOL0     H31474   3.673   1.972  10.645  0.7883 -1.1612  0.8846
  974MOL0     H31475   3.497   1.968  10.477  0.6524 -3.0022 -0.7254
  974MOL0     H31476   3.127   2.116   9.571 -0.9867  1.4441 -1.5332
  974MOL0     H31477   3.394   2.133   9.566  0.5074  0.7509  0.0198
  974MOL0     H31478   3.817   2.471   9.832  0.2242  0.5517  0.7373
  974MOL0     H31479   4.040   2.560   9.750  1.6365  2.9160 -4.1297
  974MOL0     H31480   4.113   2.816   9.512  1.0140 -1.1814 -1.2792
  974MOL0     H31481   4.099   2.737   9.663 -1.4688 -1.5426 -0.4026
  974MOL0     H31482   4.316   2.818   9.606 -3.1742  0.5025  0.4777
  974MOL0     H31483   4.336   2.696   9.474  0.9535  2.1289  0.5240
  974MOL0     H31484   4.349   2.517   9.636  3.0879 -0.2745 -0.0977
  974MOL0     H31485   4.295   2.621   9.769  4.2725 -0.2860  3.6261
  974MOL0     H31486   4.532   2.542   9.773 -1.0341 -0.9641  1.2046
  974MOL0     H31487   4.526   2.726   9.766  0.8472 -2.4906  1.6535
  974MOL0     H31488   4.734   2.643   9.421 -0.4270 -1.4452 -0.0890
  974MOL0     H31489   3.940   2.468   9.350 -0.6214 -0.3100  0.2595
  974MOL0     H31490   3.742   2.345   9.421  0.0155  1.8579 -0.5843
  975MOL0     O31491   0.853   2.087   6.214  0.5443 -0.3514  0.5077
  975MOL0     C31492   0.925   2.176   6.252  0.4446  0.1822  0.2342
  975MOL0     O31493   0.877   2.308   6.255 -0.6370 -0.5095 -0.3762
  975MOL0     C31494   0.750   2.344   6.274 -0.0464  0.0949  0.2725
  975MOL0     C31495   0.676   2.290   6.381 -1.4544  0.5445 -0.0536
  975MOL0     C31496   0.547   2.332   6.398 -0.4783 -0.0226  0.0419
  975MOL0     C31497   0.489   2.432   6.314 -0.4305  0.8507 -0.4002
  975MOL0     O31498   0.372   2.485   6.336  0.6941 -1.0127 -0.1334
  975MOL0     C31499   0.284   2.430   6.441 -0.3863 -0.3263 -0.2667
  975MOL0     C31500   0.140   2.490   6.420  0.0140 -0.7625 -1.4963
  975MOL0     C31501   0.071   2.458   6.290 -0.1080  0.3639  0.0672
  975MOL0     C31502  -0.072   2.512   6.280  0.1352 -0.6601 -0.2360
  975MOL0     C31503  -0.161   2.486   6.411  0.0106  0.2921 -0.0697
  975MOL0     C31504  -0.187   2.338   6.424  0.7772  0.5447  0.4971
  975MOL0     C31505  -0.282   2.285   6.535 -0.0321 -0.0445  0.2194
  975MOL0     C31506  -0.418   2.349   6.557 -0.1600  1.0420  0.0529
  975MOL0     N31507  -0.524   2.279   6.476  0.2428 -0.0819  0.0795
  975MOL0     C31508  -0.553   2.287   6.342  0.5772  0.7163  0.6395
  975MOL0     C31509  -0.654   2.206   6.317 -0.0961 -0.3618  0.1526
  975MOL0     C31510  -0.732   2.184   6.179  0.0223 -0.4116 -0.4807
  975MOL0     C31511  -0.878   2.232   6.201 -0.3883 -0.9378 -0.1029
  975MOL0     C31512  -0.893   2.385   6.230  0.1236 -0.0030  0.5297
  975MOL0     C31513  -1.033   2.426   6.257  0.8850 -0.8521  0.4423
  975MOL0     O31514  -1.025   2.568   6.237 -0.0217  0.1417  0.8430
  975MOL0     C31515  -1.124   2.647   6.278  0.7429 -0.2676  0.4645
  975MOL0     C31516  -1.093   2.780   6.277 -0.1176  0.3348  0.0744
  975MOL0     C31517  -1.179   2.881   6.302 -0.1823 -0.0478  0.1877
  975MOL0     C31518  -1.128   3.025   6.296  1.0444  0.1178  0.0249
  975MOL0     C31519  -1.312   2.849   6.348  0.2048  0.2532 -0.3000
  975MOL0     C31520  -1.426   2.939   6.403 -0.4444 -0.0805 -0.6866
  975MOL0     O31521  -1.520   2.883   6.486  0.1464 -0.1742 -0.0336
  975MOL0     C31522  -1.623   2.962   6.538  0.1354 -0.1251  0.5197
  975MOL0     C31523  -1.728   2.897   6.592 -0.6524 -0.4696  0.4580
  975MOL0     C31524  -1.830   2.962   6.648  0.4490  0.3598 -0.3143
  975MOL0     C31525  -1.837   3.101   6.657 -0.2132  0.5428 -0.0783
  975MOL0     O31526  -1.956   3.159   6.693 -0.5723  0.0215 -0.1548
  975MOL0     C31527  -1.975   3.291   6.627 -0.1933 -0.0663  0.2346
  975MOL0     C31528  -2.134   3.304   6.618 -0.0948 -0.3482 -0.2094
  975MOL0     C31529  -2.202   3.325   6.752 -0.2579 -0.0505  0.4920
  975MOL0     C31530  -2.355   3.313   6.735  0.2314 -0.0463 -0.6912
  975MOL0     C31531  -2.410   3.178   6.713  0.0959  0.1523  0.0253
  975MOL0     C31532  -2.567   3.179   6.730  0.5852 -0.0217 -0.1351
  975MOL0     C31533  -2.615   3.038   6.692 -1.0191  0.2193 -0.3005
  975MOL0     C31534  -2.768   3.028   6.671 -0.3948 -1.0842 -0.2569
  975MOL0    Cl31535  -2.860   3.058   6.821 -0.0418  0.0532 -0.1133
  975MOL0     C31536  -1.720   3.171   6.622 -0.7727 -0.2509 -0.2490
  975MOL0     C31537  -1.614   3.100   6.566 -0.2805 -0.4406  0.4325
  975MOL0     O31538  -1.433   3.052   6.358 -0.2448  0.0104 -0.6858
  975MOL0     C31539  -1.340   2.702   6.367  0.7734  0.7049  0.3656
  975MOL0     C31540  -1.252   2.602   6.319  0.0425 -0.5262  0.1288
  975MOL0     N31541  -0.690   2.155   6.440 -0.0083  0.2682  0.7382
  975MOL0     N31542  -0.614   2.200   6.536  0.4334  0.1434 -0.3690
  975MOL0     C31543   0.569   2.493   6.228 -0.1671 -0.1039  0.8737
  975MOL0     C31544   0.701   2.448   6.203  0.6117 -0.7448  0.2726
  975MOL0     C31545   1.064   2.151   6.271 -0.2927  0.1263 -0.5999
  975MOL0     C31546   1.106   2.019   6.315 -0.4499 -0.2204  0.3674
  975MOL0     C31547   1.243   1.987   6.330 -0.0016  0.0290 -0.5669
  975MOL0     C31548   1.337   2.089   6.314 -0.1253 -0.5101  0.8119
  975MOL0     O31549   1.471   2.067   6.309 -0.0450  0.0883  0.1237
  975MOL0     C31550   1.515   1.950   6.242  0.3645 -0.9544 -1.1493
  975MOL0     C31551   1.639   1.971   6.156  0.1101 -0.3377  0.1409
  975MOL0     C31552   1.753   2.019   6.236 -0.5185 -0.0072 -0.0928
  975MOL0     C31553   1.883   2.052   6.159 -0.2242  0.6025  0.7963
  975MOL0     C31554   1.872   2.171   6.079 -0.2546 -0.0107 -0.0381
  975MOL0     C31555   1.857   2.269   6.019  0.0342 -0.2443 -0.1360
  975MOL0     C31556   1.288   2.222   6.288 -0.0871  0.6917 -0.1460
  975MOL0     C31557   1.156   2.259   6.276 -1.1398  0.3886 -0.0026
  975MOL0     H31558   0.713   2.218   6.453 -2.3589  0.3273  0.2056
  975MOL0     H31559   0.489   2.291   6.480  1.6085 -1.5488  0.8770
  975MOL0     H31560   0.277   2.322   6.431 -3.5258 -0.3930  1.2628
  975MOL0     H31561   0.327   2.468   6.534 -0.0089 -0.8488 -0.2246
  975MOL0     H31562   0.081   2.450   6.503 -1.9577  1.3878 -1.7269
  975MOL0     H31563   0.139   2.600   6.418 -0.1173 -0.7476 -0.9058
  975MOL0     H31564   0.123   2.514   6.212  0.5765 -0.7035 -0.2763
  975MOL0     H31565   0.065   2.350   6.273 -0.3273  0.7301 -2.5780
  975MOL0     H31566  -0.083   2.621   6.269  1.8954 -0.0083  3.0260
  975MOL0     H31567  -0.121   2.474   6.190  0.3819  1.5452 -1.3893
  975MOL0     H31568  -0.109   2.516   6.502  2.2953 -0.4985 -1.0385
  975MOL0     H31569  -0.254   2.541   6.393  0.5831  1.5189  0.5776
  975MOL0     H31570  -0.227   2.301   6.329 -0.0642  0.3507  0.9196
  975MOL0     H31571  -0.087   2.298   6.438  0.1651 -0.5685  1.9561
  975MOL0     H31572  -0.301   2.178   6.521  2.4257 -0.6217  0.9338
  975MOL0     H31573  -0.234   2.289   6.633 -2.1171  0.5853  1.2877
  975MOL0     H31574  -0.396   2.455   6.537  3.5517  0.5234  0.6346
  975MOL0     H31575  -0.448   2.342   6.662  2.7129  2.0234  1.0459
  975MOL0     H31576  -0.497   2.345   6.270  4.2778 -2.1676  0.8880
  975MOL0     H31577  -0.692   2.227   6.087  3.7273 -1.6179  0.3754
  975MOL0     H31578  -0.728   2.075   6.167  2.9098 -0.2926 -1.3437
  975MOL0     H31579  -0.904   2.167   6.284 -0.4431 -1.1910 -0.3189
  975MOL0     H31580  -0.943   2.213   6.115 -0.8771  0.1292  0.0103
  975MOL0     H31581  -0.872   2.438   6.137 -4.4447  1.0321 -0.1105
  975MOL0     H31582  -0.830   2.423   6.311 -0.3103 -0.1288  0.9311
  975MOL0     H31583  -1.061   2.403   6.361  0.9112  1.8105  1.1253
  975MOL0     H31584  -1.106   2.395   6.182  1.6721  0.0740 -0.7376
  975MOL0     H31585  -1.004   2.802   6.219  0.4675  2.4221  1.6208
  975MOL0     H31586  -1.025   3.022   6.331  1.0121 -1.8631  0.0941
  975MOL0     H31587  -1.137   3.053   6.191 -0.4162 -2.7164 -0.7383
  975MOL0     H31588  -1.184   3.092   6.362 -1.2236  0.8850 -2.5030
  975MOL0     H31589  -1.729   2.788   6.584  0.9361 -0.4333 -0.9653
  975MOL0     H31590  -1.911   2.896   6.675  2.7724 -2.5919  0.0096
  975MOL0     H31591  -1.930   3.371   6.687  1.5660 -1.9839  1.6082
  975MOL0     H31592  -1.936   3.299   6.525  1.4000  0.5543  0.8680
  975MOL0     H31593  -2.156   3.380   6.543  1.1139 -0.8135 -1.0810
  975MOL0     H31594  -2.172   3.209   6.580  0.0085 -1.3750  2.0860
  975MOL0     H31595  -2.165   3.424   6.781  3.1014  0.3588 -3.9449
  975MOL0     H31596  -2.162   3.255   6.826 -4.5438 -2.9204  0.4469
  975MOL0     H31597  -2.400   3.352   6.826  1.2116 -1.9590  0.6796
  975MOL0     H31598  -2.380   3.363   6.641  2.6131 -0.9491 -1.9193
  975MOL0     H31599  -2.358   3.113   6.784 -1.0766 -0.6189  0.2018
  975MOL0     H31600  -2.378   3.148   6.613  2.1598  1.2077  0.3162
  975MOL0     H31601  -2.597   3.208   6.831  4.5150  1.9278  0.6748
  975MOL0     H31602  -2.607   3.250   6.658  1.1078  1.7352  1.2416
  975MOL0     H31603  -2.597   2.972   6.778 -1.2913  0.4966 -0.0260
  975MOL0     H31604  -2.563   2.998   6.605  0.7889  1.2861  0.2575
  975MOL0     H31605  -2.784   2.925   6.638  1.3046 -0.7901 -2.2194
  975MOL0     H31606  -2.792   3.099   6.591 -2.5095  0.0167  1.2791
  975MOL0     H31607  -1.698   3.277   6.637  2.8382 -1.2031  2.8109
  975MOL0     H31608  -1.542   3.176   6.538 -2.9526  1.3800 -2.0594
  975MOL0     H31609  -1.443   2.685   6.397  1.6404 -0.9883  2.6888
  975MOL0     H31610  -1.288   2.500   6.326  2.1479 -1.3334  0.1125
  975MOL0     H31611   0.529   2.569   6.162 -0.2683 -1.1218 -0.2784
  975MOL0     H31612   0.760   2.491   6.123  0.3600 -0.0443  0.4588
  975MOL0     H31613   1.037   1.938   6.335 -1.1626  0.1594 -0.4657
  975MOL0     H31614   1.270   1.886   6.360 -1.7888 -0.0308  1.1188
  975MOL0     H31615   1.521   1.871   6.318 -0.0134 -0.7830 -0.9360
  975MOL0     H31616   1.448   1.916   6.162  0.3224 -3.6502 -0.0666
  975MOL0     H31617   1.615   2.036   6.071 -2.9633 -2.9859 -1.2316
  975MOL0     H31618   1.668   1.872   6.119 -0.6716 -0.5951  0.1970
  975MOL0     H31619   1.779   1.942   6.309 -0.6641 -0.1929 -0.2394
  975MOL0     H31620   1.723   2.112   6.286 -1.5207  0.1887 -1.0329
  975MOL0     H31621   1.907   1.963   6.100 -2.2180 -0.2645  1.2129
  975MOL0     H31622   1.957   2.078   6.236  1.3802  3.8010 -1.6005
  975MOL0     H31623   1.836   2.365   5.976  0.4971 -0.3276 -0.5606
  975MOL0     H31624   1.369   2.294   6.290 -1.3888  2.2468  3.3246
  975MOL0     H31625   1.118   2.359   6.259  0.1757  0.5258 -2.4418
  976MOL0     O31626   5.720   3.255  10.551 -0.0620  0.0679 -1.0472
  976MOL0     C31627   5.761   3.144  10.593  0.2065  0.3289 -0.1596
  976MOL0     O31628   5.677   3.051  10.649  0.5568 -0.0395  0.5882
  976MOL0     C31629   5.563   3.094  10.697  0.5267  0.1930 -0.8063
  976MOL0     C31630   5.548   3.170  10.814  0.0044 -1.0390  0.2232
  976MOL0     C31631   5.431   3.228  10.855  0.6851 -0.3687 -0.8552
  976MOL0     C31632   5.316   3.196  10.792  0.0298  1.2978 -0.5126
  976MOL0     O31633   5.187   3.226  10.833  0.2190  0.7286 -0.0101
  976MOL0     C31634   5.181   3.318  10.948  1.0171 -0.2135  0.6898
  976MOL0     C31635   5.030   3.317  10.994 -0.4332 -0.1075 -0.1628
  976MOL0     C31636   5.017   3.406  11.124  0.6451  0.3942 -0.0993
  976MOL0     C31637   4.890   3.375  11.201  0.9211 -0.0609 -0.2063
  976MOL0     C31638   4.858   3.471  11.321 -0.4115  0.3577 -0.8853
  976MOL0     C31639   4.728   3.416  11.381  0.1430 -0.2723 -0.3166
  976MOL0     C31640   4.676   3.485  11.513 -0.3289  0.3086 -0.4128
  976MOL0     C31641   4.534   3.438  11.557  0.1923  0.1303  0.0047
  976MOL0     N31642   4.421   3.478  11.465 -0.0260 -0.4259  0.9047
  976MOL0     C31643   4.339   3.596  11.486  0.1136 -0.0166 -0.3137
  976MOL0     C31644   4.288   3.622  11.363 -0.4179 -0.0381  0.0355
  976MOL0     C31645   4.185   3.727  11.335  0.4268  0.1612  0.5837
  976MOL0     C31646   4.046   3.691  11.362  0.8601  0.3612 -0.5514
  976MOL0     C31647   3.943   3.789  11.311 -0.2444 -0.1445 -0.4433
  976MOL0     C31648   3.940   3.926  11.387  0.9538 -0.4403  0.1450
  976MOL0     O31649   3.954   3.906  11.530 -0.2207 -0.6263  0.5588
  976MOL0     C31650   3.844   3.867  11.604 -0.0647 -0.2256 -0.0561
  976MOL0     C31651   3.863   3.841  11.743 -0.2091 -0.7375 -0.6482
  976MOL0     C31652   3.762   3.810  11.835  0.0972 -1.0108  0.1053
  976MOL0     C31653   3.789   3.799  11.986  0.3275 -0.0215 -0.1387
  976MOL0     C31654   3.631   3.812  11.776 -0.3563 -0.2295  0.1166
  976MOL0     C31655   3.513   3.763  11.867  0.2282 -0.7357  0.5949
  976MOL0     O31656   3.384   3.772  11.817  0.2947 -0.0501 -0.5151
  976MOL0     C31657   3.271   3.697  11.858  0.0477  0.2452  0.2082
  976MOL0     C31658   3.258   3.618  11.965  0.3247  0.4800 -1.0147
  976MOL0     C31659   3.128   3.572  11.995  0.3748 -0.3218  0.1089
  976MOL0     C31660   3.023   3.598  11.909  0.1990  0.1760 -1.1743
  976MOL0     O31661   2.899   3.564  11.958 -0.1196 -0.9744 -0.2229
  976MOL0     C31662   2.797   3.527  11.861 -0.7201  0.7839  0.4235
  976MOL0     C31663   2.662   3.509  11.935 -0.2297  0.0606 -0.1515
  976MOL0     C31664   2.543   3.519  11.837  0.0985  1.0873  0.1937
  976MOL0     C31665   2.407   3.510  11.902  0.3355  0.1569 -0.3273
  976MOL0     C31666   2.291   3.523  11.808 -1.3436 -0.3801  0.3325
  976MOL0     C31667   2.160   3.475  11.876 -0.8111 -0.2928 -0.4313
  976MOL0     C31668   2.042   3.497  11.785  0.8835 -0.3384  0.9714
  976MOL0     C31669   2.037   3.364  11.701  0.5744  0.8075 -0.8027
  976MOL0    Cl31670   1.894   3.375  11.582 -0.0539 -0.1472 -0.2154
  976MOL0     C31671   3.040   3.671  11.796 -0.4142 -0.2931  0.4280
  976MOL0     C31672   3.169   3.716  11.777  0.9904 -0.4615  0.2022
  976MOL0     O31673   3.532   3.714  11.975 -0.7388 -0.1923 -0.4247
  976MOL0     C31674   3.611   3.831  11.641  0.4982  0.5580  1.3655
  976MOL0     C31675   3.711   3.868  11.558 -0.3603 -0.4910  1.0723
  976MOL0     N31676   4.325   3.519  11.277 -0.5041 -0.0891  0.0543
  976MOL0     N31677   4.403   3.430  11.341  0.3700 -0.4662  0.2643
  976MOL0     C31678   5.312   3.117  10.676 -0.7052  0.3267  0.2770
  976MOL0     C31679   5.437   3.073  10.629 -0.4538  0.6341  0.3922
  976MOL0     C31680   5.904   3.105  10.585 -0.7511  0.3471  0.6542
  976MOL0     C31681   5.954   2.997  10.663  0.3783  0.7348 -0.3140
  976MOL0     C31682   6.089   2.972  10.669 -0.2277  0.0213  0.3443
  976MOL0     C31683   6.179   3.051  10.602  0.1900  0.5060 -0.2427
  976MOL0     O31684   6.308   3.003  10.594  0.5009  0.5203  0.6266
  976MOL0     C31685   6.425   3.082  10.579 -0.3475  0.5505 -0.2810
  976MOL0     C31686   6.507   3.055  10.456 -0.2863  0.3458 -0.2080
  976MOL0     C31687   6.561   2.910  10.471 -0.1892 -0.7497  0.1096
  976MOL0     C31688   6.686   2.893  10.560 -0.0931 -0.2274  0.1502
  976MOL0     C31689   6.700   2.778  10.661 -0.3581 -0.9635  0.1780
  976MOL0     C31690   6.708   2.684  10.736  1.1424  0.6088 -0.2985
  976MOL0     C31691   6.132   3.148  10.519 -0.0116  0.0922  0.2421
  976MOL0     C31692   5.996   3.182  10.508  0.2372 -0.1743 -0.1592
  976MOL0     H31693   5.640   3.199  10.864  0.2057  0.3757 -0.9164
  976MOL0     H31694   5.438   3.298  10.937  3.0281  1.2276 -2.3034
  976MOL0     H31695   5.248   3.274  11.023  1.5219 -1.0241 -0.2088
  976MOL0     H31696   5.206   3.423  10.931  4.3125 -0.6317  2.1931
  976MOL0     H31697   4.964   3.357  10.916  2.0688 -2.1554 -3.5976
  976MOL0     H31698   5.009   3.210  11.006  1.0101 -0.3843  0.1104
  976MOL0     H31699   5.108   3.383  11.180  1.0675 -1.5292 -1.4398
  976MOL0     H31700   5.019   3.513  11.101 -1.2629  0.4222 -0.2468
  976MOL0     H31701   4.807   3.371  11.129  0.0946  0.0260  0.7236
  976MOL0     H31702   4.899   3.268  11.224 -0.0663 -0.7335 -2.5707
  976MOL0     H31703   4.936   3.458  11.397 -2.1650 -0.2416  0.8963
  976MOL0     H31704   4.859   3.578  11.299  1.5345  0.3958 -0.7941
  976MOL0     H31705   4.648   3.433  11.309  0.3216  1.5388 -0.1526
  976MOL0     H31706   4.737   3.311  11.411 -1.8690  0.4734  3.4721
  976MOL0     H31707   4.741   3.460  11.596 -2.1766  1.4497  1.4851
  976MOL0     H31708   4.672   3.592  11.490  1.1365  0.0414 -2.1110
  976MOL0     H31709   4.509   3.480  11.655 -0.8943 -0.2378 -0.1048
  976MOL0     H31710   4.530   3.332  11.585  2.9961  0.2768  1.3842
  976MOL0     H31711   4.329   3.652  11.578  4.0483 -0.6845  0.6930
  976MOL0     H31712   4.211   3.821  11.384  2.8182  0.8979 -1.8681
  976MOL0     H31713   4.195   3.744  11.228  4.4927 -0.0221  0.7887
  976MOL0     H31714   4.050   3.674  11.470  1.8184 -1.2667 -0.8146
  976MOL0     H31715   4.023   3.598  11.308 -0.3431  0.0843  0.4017
  976MOL0     H31716   3.849   3.734  11.308 -0.5603  0.2297  1.2918
  976MOL0     H31717   3.945   3.815  11.205  1.8000  0.3132 -0.3466
  976MOL0     H31718   3.849   3.977  11.353  0.9044 -0.2483  0.5685
  976MOL0     H31719   4.027   3.982  11.351 -0.4709  1.6795 -0.2157
  976MOL0     H31720   3.963   3.852  11.785 -1.0182 -1.8537  1.7856
  976MOL0     H31721   3.806   3.692  12.005  1.1679 -0.1231 -1.3656
  976MOL0     H31722   3.875   3.858  12.018  0.3881  1.0598 -2.1439
  976MOL0     H31723   3.710   3.853  12.038  2.6543  0.8136  2.7853
  976MOL0     H31724   3.333   3.585  12.036 -0.4904 -2.5189 -1.4216
  976MOL0     H31725   3.114   3.511  12.084  2.1217 -2.1144 -0.7673
  976MOL0     H31726   2.786   3.611  11.792  1.8663  0.9944  0.1441
  976MOL0     H31727   2.830   3.436  11.811 -1.3051  0.6497  0.2732
  976MOL0     H31728   2.665   3.416  11.991 -2.3694  0.9437  1.5968
  976MOL0     H31729   2.646   3.601  11.993  2.1588  2.0443 -2.3676
  976MOL0     H31730   2.545   3.445  11.756 -2.5859  2.2741 -1.0659
  976MOL0     H31731   2.551   3.618  11.791  0.0543  1.1600  0.3413
  976MOL0     H31732   2.391   3.410  11.945  1.5431  0.3710  0.6794
  976MOL0     H31733   2.408   3.575  11.989  1.3298  0.7620 -0.7724
  976MOL0     H31734   2.296   3.453  11.724  0.5495 -0.9753  0.8843
  976MOL0     H31735   2.295   3.624  11.767 -0.4298  0.4671  2.3819
  976MOL0     H31736   2.181   3.371  11.903  0.8552  0.4476  1.3990
  976MOL0     H31737   2.150   3.537  11.965  0.2518  3.1061 -2.5094
  976MOL0     H31738   2.063   3.583  11.720  1.9030 -0.5972  0.9463
  976MOL0     H31739   1.947   3.528  11.830 -1.4884 -2.8815 -1.8397
  976MOL0     H31740   2.021   3.277  11.766  0.7469  1.8893  0.7519
  976MOL0     H31741   2.130   3.338  11.649  0.8722  1.4401 -0.5945
  976MOL0     H31742   2.953   3.697  11.737 -2.5146 -0.6946  3.1698
  976MOL0     H31743   3.195   3.778  11.693  0.0425  1.8668  1.5304
  976MOL0     H31744   3.512   3.844  11.598  2.1363  0.0538 -3.1565
  976MOL0     H31745   3.687   3.895  11.456  1.1002  1.0637  1.1024
  976MOL0     H31746   5.218   3.099  10.624  1.4267 -3.1108 -2.9450
  976MOL0     H31747   5.443   3.000  10.549  1.5243  0.2469  0.8392
  976MOL0     H31748   5.891   2.936  10.727  3.1337 -1.7530  0.2520
  976MOL0     H31749   6.123   2.885  10.724 -2.0445 -2.0429 -1.5850
  976MOL0     H31750   6.402   3.189  10.586 -1.3472  0.2669  1.1771
  976MOL0     H31751   6.485   3.066  10.669  1.3239  1.6985 -1.1293
  976MOL0     H31752   6.587   3.129  10.448 -0.0459 -0.0034 -1.1879
  976MOL0     H31753   6.441   3.062  10.369  1.8158  1.2827 -1.8229
  976MOL0     H31754   6.603   2.890  10.372 -0.0136 -0.9817  0.2298
  976MOL0     H31755   6.475   2.843  10.477 -1.1478  0.2313 -1.6892
  976MOL0     H31756   6.699   2.987  10.614 -2.5108 -0.1532  0.7206
  976MOL0     H31757   6.773   2.883  10.495  0.6037  0.8925  0.8901
  976MOL0     H31758   6.709   2.592  10.791  0.1641  0.9916  0.3977
  976MOL0     H31759   6.195   3.202  10.449  0.9593 -2.9585 -1.4181
  976MOL0     H31760   5.964   3.265  10.445 -0.3857 -1.2370 -1.2843
  977MOL0     O31761   0.627   0.664   0.195 -0.9096  0.7709 -0.2547
  977MOL0     C31762   0.682   0.759   0.254  0.1408  0.4400  1.0107
  977MOL0     O31763   0.616   0.881   0.278  0.4542 -0.5188  0.3248
  977MOL0     C31764   0.495   0.899   0.220 -0.0535  0.6154 -0.1728
  977MOL0     C31765   0.491   0.932   0.085 -0.3341 -0.1394 -0.4637
  977MOL0     C31766   0.359   0.950   0.037 -0.0944 -0.0724 -0.2520
  977MOL0     C31767   0.245   0.952   0.112 -0.1994  0.0920 -0.6389
  977MOL0     O31768   0.122   0.991   0.062  0.2502 -0.0175 -0.0723
  977MOL0     C31769   0.123   1.109  -0.011 -0.4359  0.3529 -0.2644
  977MOL0     C31770   0.002   1.201   0.033 -0.8288 -0.0037  1.0992
  977MOL0     C31771  -0.128   1.144  -0.009  0.3598 -0.1917  0.1274
  977MOL0     C31772  -0.237   1.236   0.044  0.9895 -1.0302 -0.1864
  977MOL0     C31773  -0.370   1.162   0.005 -0.1405 -0.1156 -0.3635
  977MOL0     C31774  -0.478   1.267   0.030 -0.1788  0.2594 -0.7005
  977MOL0     C31775  -0.625   1.216   0.032 -0.4029  0.2251  0.5499
  977MOL0     C31776  -0.671   1.126   0.147  0.0429 -0.5041 -0.8845
  977MOL0     N31777  -0.787   1.038   0.110 -0.2036 -0.3955 -0.4910
  977MOL0     C31778  -0.912   1.087   0.090 -0.5585 -0.9522  0.6835
  977MOL0     C31779  -0.998   0.978   0.083 -0.2094 -0.0607  0.0004
  977MOL0     C31780  -1.150   0.975   0.084 -0.0329  0.7851 -0.1953
  977MOL0     C31781  -1.208   0.993  -0.055  0.4135  0.3026 -0.4487
  977MOL0     C31782  -1.362   1.002  -0.058 -0.0753 -0.5277 -0.3854
  977MOL0     C31783  -1.424   1.041  -0.190  0.2018  0.5297  0.6860
  977MOL0     O31784  -1.375   0.949  -0.285  0.0054  0.7684  0.1738
  977MOL0     C31785  -1.444   0.939  -0.404 -0.1763 -0.3685  0.2377
  977MOL0     C31786  -1.550   1.012  -0.444  0.1443  0.1518  0.3692
  977MOL0     C31787  -1.623   0.998  -0.565 -0.2802 -0.1726 -0.2532
  977MOL0     C31788  -1.754   1.064  -0.585 -0.2641 -0.2470  0.8348
  977MOL0     C31789  -1.565   0.905  -0.665  0.7354 -0.6260 -0.6503
  977MOL0     C31790  -1.624   0.865  -0.797  0.0640 -0.5753 -0.5519
  977MOL0     O31791  -1.595   0.752  -0.841  0.1477  0.3308  0.0961
  977MOL0     C31792  -1.654   0.694  -0.952 -0.2626 -0.2157  0.0943
  977MOL0     C31793  -1.794   0.675  -0.956  0.0381 -0.0500  0.3646
  977MOL0     C31794  -1.840   0.593  -1.065 -0.3442  0.4010 -0.1503
  977MOL0     C31795  -1.750   0.539  -1.157  0.0185  0.3501 -0.5585
  977MOL0     O31796  -1.800   0.462  -1.256 -0.0168  0.0046 -0.6448
  977MOL0     C31797  -1.778   0.520  -1.382 -0.3781 -0.2037  0.3593
  977MOL0     C31798  -1.868   0.482  -1.490  1.4151  0.7632 -1.0127
  977MOL0     C31799  -1.997   0.548  -1.500  0.0895 -0.0598  0.8460
  977MOL0     C31800  -2.102   0.537  -1.382 -1.2639  1.6125 -0.2284
  977MOL0     C31801  -2.141   0.402  -1.337 -0.6592  0.0747  0.2815
  977MOL0     C31802  -2.271   0.419  -1.256 -1.0813  0.3235 -0.0880
  977MOL0     C31803  -2.249   0.491  -1.118 -0.1391  0.2153  0.0633
  977MOL0     C31804  -2.350   0.425  -1.029  0.2463  0.0702  0.1890
  977MOL0    Cl31805  -2.514   0.459  -1.078 -0.3690  0.0241  0.5075
  977MOL0     C31806  -1.612   0.559  -1.141 -0.3250 -0.3503  0.2870
  977MOL0     C31807  -1.567   0.643  -1.041  1.5578  0.3376  0.1638
  977MOL0     O31808  -1.695   0.954  -0.856  0.1340  0.1452  0.2491
  977MOL0     C31809  -1.450   0.834  -0.624 -1.1965  0.1517  0.6362
  977MOL0     C31810  -1.394   0.851  -0.495 -0.6171 -0.4180  0.4894
  977MOL0     N31811  -0.916   0.867   0.111  0.1291 -0.5345 -0.1490
  977MOL0     N31812  -0.793   0.906   0.113 -0.1075  0.3084 -0.5834
  977MOL0     C31813   0.255   0.908   0.247 -1.9112 -0.8220 -0.4336
  977MOL0     C31814   0.384   0.874   0.301  0.6551 -0.3081 -0.0124
  977MOL0     C31815   0.828   0.757   0.278 -0.2540 -0.1976 -0.3990
  977MOL0     C31816   0.909   0.661   0.219 -0.9972 -0.0366  1.1048
  977MOL0     C31817   1.047   0.662   0.233  0.2627 -0.0113  0.5877
  977MOL0     C31818   1.114   0.766   0.299  0.1942 -0.0695 -0.2137
  977MOL0     O31819   1.245   0.778   0.327 -0.6672  0.2789 -0.1601
  977MOL0     C31820   1.329   0.668   0.299  0.4900 -0.3028  0.3716
  977MOL0     C31821   1.474   0.706   0.318  0.3754 -0.3422 -0.7437
  977MOL0     C31822   1.564   0.614   0.240  0.4785  0.0067 -0.1549
  977MOL0     C31823   1.707   0.670   0.212 -0.7360  0.0480  0.2528
  977MOL0     C31824   1.769   0.579   0.127  0.7239  0.6941  0.3496
  977MOL0     C31825   1.820   0.488   0.065 -0.4137 -0.3600  0.1535
  977MOL0     C31826   1.029   0.868   0.358 -0.5032  0.3450  0.0608
  977MOL0     C31827   0.886   0.863   0.350 -0.5766 -0.2022 -0.7336
  977MOL0     H31828   0.581   0.943   0.026 -0.0291  2.1542  0.3440
  977MOL0     H31829   0.352   0.961  -0.071 -1.8399  0.4034 -0.1149
  977MOL0     H31830   0.213   1.166   0.011 -0.4168 -0.5412  2.3356
  977MOL0     H31831   0.110   1.084  -0.117 -1.5912 -2.4315  0.4387
  977MOL0     H31832   0.012   1.215   0.141 -0.8346 -1.4463  1.3012
  977MOL0     H31833   0.014   1.301  -0.011  0.4123  1.9915  5.4045
  977MOL0     H31834  -0.134   1.137  -0.118  0.0276  1.8552 -0.0140
  977MOL0     H31835  -0.145   1.040   0.022  0.1253 -0.6266 -1.3552
  977MOL0     H31836  -0.228   1.246   0.152  1.3890  0.6015 -0.3505
  977MOL0     H31837  -0.232   1.339   0.008 -2.1740  0.0421  2.0501
  977MOL0     H31838  -0.378   1.138  -0.102 -1.8077  0.0670 -0.3184
  977MOL0     H31839  -0.380   1.069   0.061  0.6403  0.8599  1.4557
  977MOL0     H31840  -0.464   1.310   0.130  0.9520  0.9024 -1.1271
  977MOL0     H31841  -0.465   1.349  -0.042 -1.2756  2.3015  1.2931
  977MOL0     H31842  -0.684   1.309   0.029 -0.1020  0.4501  1.3187
  977MOL0     H31843  -0.651   1.169  -0.063 -2.1875  1.8193  0.1763
  977MOL0     H31844  -0.705   1.188   0.230 -0.7091 -0.3089 -1.3351
  977MOL0     H31845  -0.579   1.075   0.178 -1.0926 -0.9690  2.0655
  977MOL0     H31846  -0.943   1.191   0.088 -1.5207 -1.2268 -1.1906
  977MOL0     H31847  -1.176   0.877   0.124  1.0537  0.5464 -0.0526
  977MOL0     H31848  -1.189   1.050   0.153  1.2566  3.1488 -1.8589
  977MOL0     H31849  -1.184   0.910  -0.122 -2.4439 -0.0806 -1.1244
  977MOL0     H31850  -1.176   1.085  -0.104  0.0818  0.4086 -0.4631
  977MOL0     H31851  -1.392   1.075   0.018  0.6279  3.3204 -3.4919
  977MOL0     H31852  -1.393   0.900  -0.032 -1.2298 -0.6122 -1.9576
  977MOL0     H31853  -1.416   1.144  -0.225  1.0928  0.5811  1.0183
  977MOL0     H31854  -1.529   1.013  -0.175  1.0200 -3.8653 -0.3078
  977MOL0     H31855  -1.596   1.067  -0.363  0.8015  1.3359 -0.0398
  977MOL0     H31856  -1.798   1.113  -0.498 -0.2912  0.3219  0.5055
  977MOL0     H31857  -1.748   1.147  -0.656  1.5297  2.2083  3.6179
  977MOL0     H31858  -1.827   0.995  -0.628 -0.4588 -0.0724  0.8827
  977MOL0     H31859  -1.860   0.725  -0.885  0.7291 -0.0357  1.0161
  977MOL0     H31860  -1.947   0.591  -1.080 -0.3370 -0.4229 -0.1402
  977MOL0     H31861  -1.774   0.629  -1.383  2.2059 -0.2493 -0.8731
  977MOL0     H31862  -1.679   0.479  -1.404  0.2998 -0.0183  2.7902
  977MOL0     H31863  -1.815   0.503  -1.583  0.5522  0.1594 -1.6529
  977MOL0     H31864  -1.896   0.378  -1.476  1.2364  1.1656  2.5580
  977MOL0     H31865  -2.054   0.509  -1.584 -2.3756 -0.3049  2.5196
  977MOL0     H31866  -1.973   0.653  -1.517 -2.3467 -0.0061 -3.4087
  977MOL0     H31867  -2.053   0.578  -1.293 -3.0051  1.2762  0.9475
  977MOL0     H31868  -2.187   0.600  -1.411 -2.4773  0.3614  0.4854
  977MOL0     H31869  -2.056   0.349  -1.292 -0.1516 -1.0841 -1.9278
  977MOL0     H31870  -2.161   0.340  -1.425 -1.2684 -1.4512  1.4343
  977MOL0     H31871  -2.343   0.462  -1.326 -1.8196 -1.6683 -0.6236
  977MOL0     H31872  -2.300   0.314  -1.242  1.8057 -1.4530 -4.7370
  977MOL0     H31873  -2.268   0.597  -1.131 -0.2285 -0.0202 -2.1865
  977MOL0     H31874  -2.149   0.473  -1.078 -0.7654  1.4190  2.3291
  977MOL0     H31875  -2.334   0.464  -0.929  0.6600  6.0846 -1.8219
  977MOL0     H31876  -2.346   0.315  -1.027 -3.3174 -0.2177  2.8491
  977MOL0     H31877  -1.540   0.509  -1.206 -2.1390  0.8137 -2.8048
  977MOL0     H31878  -1.463   0.667  -1.025  1.8448 -0.6242 -0.1999
  977MOL0     H31879  -1.409   0.765  -0.698 -0.7518  0.6530  0.4134
  977MOL0     H31880  -1.308   0.789  -0.472 -0.4972 -0.4876 -0.1324
  977MOL0     H31881   0.164   0.915   0.306 -0.7911 -2.1523  1.5894
  977MOL0     H31882   0.414   0.848   0.402  5.3836 -0.4807 -1.2088
  977MOL0     H31883   0.866   0.577   0.165  1.5375 -0.1138 -1.0049
  977MOL0     H31884   1.102   0.583   0.182  0.7778  1.1686 -0.7713
  977MOL0     H31885   1.301   0.586   0.365 -1.0707  0.8213  1.1689
  977MOL0     H31886   1.300   0.650   0.195 -2.1980  1.3419  0.7335
  977MOL0     H31887   1.491   0.708   0.426 -0.3570 -1.2084 -0.6006
  977MOL0     H31888   1.483   0.808   0.279  0.2089 -1.0457 -2.7546
  977MOL0     H31889   1.521   0.607   0.140  1.1119  0.3763 -0.4624
  977MOL0     H31890   1.580   0.516   0.285  2.0831  0.7825  1.0570
  977MOL0     H31891   1.756   0.689   0.308  0.3343 -0.8915 -0.0864
  977MOL0     H31892   1.710   0.762   0.153  4.2005 -1.0651 -1.7241
  977MOL0     H31893   1.850   0.409  -0.002  2.8561 -0.3724  1.4412
  977MOL0     H31894   1.069   0.953   0.413  0.6956 -1.3232  1.9146
  977MOL0     H31895   0.831   0.943   0.400  2.1559  1.9144 -0.8477
  978MOL0     O31896  10.489  11.126   9.260  0.1262 -0.2125 -0.6501
  978MOL0     C31897  10.512  11.006   9.239  0.1283  0.1217  0.5863
  978MOL0     O31898  10.448  10.928   9.147  0.0128  0.0622 -0.4051
  978MOL0     C31899  10.315  10.958   9.126  0.1562  0.2218 -1.1784
  978MOL0     C31900  10.220  10.870   9.177  0.5124 -0.4302  0.5326
  978MOL0     C31901  10.079  10.903   9.167 -0.2778  0.1239  0.6649
  978MOL0     C31902  10.034  11.020   9.104 -0.1551  0.0032  1.1884
  978MOL0     O31903   9.893  11.043   9.098 -1.3264 -0.4470 -0.3867
  978MOL0     C31904   9.852  11.122   8.984  0.5891 -0.0289 -1.0785
  978MOL0     C31905   9.707  11.108   8.956 -0.2036 -0.4580 -0.3573
  978MOL0     C31906   9.656  11.201   8.843  1.0207 -1.3336  0.9870
  978MOL0     C31907   9.614  11.338   8.901  0.2035  0.0229 -0.8786
  978MOL0     C31908   9.561  11.418   8.793 -0.2545  0.2328 -0.0183
  978MOL0     C31909   9.524  11.566   8.833  0.3470  0.3967  0.2257
  978MOL0     C31910   9.379  11.560   8.893 -0.0526 -0.0558  0.0315
  978MOL0     C31911   9.364  11.648   9.015 -0.3614  0.4779 -0.4504
  978MOL0     N31912   9.462  11.621   9.127 -0.4380  0.5631  0.2810
  978MOL0     C31913   9.467  11.505   9.204  0.5516  0.1843  0.0140
  978MOL0     C31914   9.580  11.527   9.277 -0.4255 -0.4046 -1.1738
  978MOL0     C31915   9.619  11.414   9.368 -0.7308  0.0412  0.1027
  978MOL0     C31916   9.627  11.282   9.289  0.2089 -0.3533  0.4601
  978MOL0     C31917   9.708  11.169   9.347  0.0078  0.3356  0.1244
  978MOL0     C31918   9.695  11.156   9.499 -0.3050  0.5176  0.0342
  978MOL0     O31919   9.711  11.024   9.537 -0.3516 -0.5121  0.6946
  978MOL0     C31920   9.839  10.989   9.561 -0.1707  0.3983  0.6788
  978MOL0     C31921   9.876  10.983   9.696  0.0964 -0.1758 -0.3218
  978MOL0     C31922   9.999  10.937   9.737  0.1144  0.1240  0.0036
  978MOL0     C31923  10.039  10.944   9.889  0.7280 -0.3663  0.4339
  978MOL0     C31924  10.092  10.886   9.644 -0.1644 -0.5696 -0.1655
  978MOL0     C31925  10.240  10.834   9.667  0.8339  0.4340  0.1363
  978MOL0     O31926  10.295  10.758   9.564  0.0426  0.6367 -0.7074
  978MOL0     C31927  10.429  10.716   9.579  1.3093  0.5094 -0.4195
  978MOL0     C31928  10.540  10.788   9.525  0.6440  0.6117  0.7063
  978MOL0     C31929  10.669  10.723   9.527 -0.3659 -0.7514  0.3752
  978MOL0     C31930  10.684  10.597   9.587 -0.3239  0.2163  0.6520
  978MOL0     O31931  10.818  10.553   9.590  0.6250 -0.0351 -0.5925
  978MOL0     C31932  10.861  10.456   9.685  0.2867  0.0165  0.7611
  978MOL0     C31933  11.009  10.466   9.710 -0.1074 -0.2027 -0.8716
  978MOL0     C31934  11.087  10.423   9.590 -0.0659  0.7826  0.6269
  978MOL0     C31935  11.224  10.402   9.613 -1.1667 -0.6774 -0.4295
  978MOL0     C31936  11.278  10.327   9.504  0.1295 -0.3324 -0.1401
  978MOL0     C31937  11.414  10.264   9.539 -0.9125 -0.3851 -0.7416
  978MOL0     C31938  11.471  10.178   9.418  0.6188  0.3975  0.6881
  978MOL0     C31939  11.606  10.112   9.449  0.8503 -0.2411 -0.6140
  978MOL0    Cl31940  11.663  10.023   9.306 -0.3492 -0.0699  0.2029
  978MOL0     C31941  10.576  10.533   9.646 -0.8817 -0.4432  0.5079
  978MOL0     C31942  10.446  10.594   9.642 -0.4918  0.0868  1.0197
  978MOL0     O31943  10.295  10.849   9.777  0.1694 -0.3151  0.5263
  978MOL0     C31944  10.048  10.884   9.512 -0.9959 -0.4789  0.2023
  978MOL0     C31945   9.931  10.949   9.474  0.8215  0.2711  0.3621
  978MOL0     N31946   9.644  11.642   9.243 -0.4057 -0.4311  0.0604
  978MOL0     N31947   9.578  11.695   9.151  0.1549 -0.0270 -0.3432
  978MOL0     C31948  10.135  11.110   9.064  0.5931 -0.4985  0.3530
  978MOL0     C31949  10.268  11.075   9.065 -0.6442  0.2229 -0.0725
  978MOL0     C31950  10.647  10.968   9.278 -0.3522 -0.1377  0.2887
  978MOL0     C31951  10.711  11.040   9.378 -1.1001  0.3789  0.5964
  978MOL0     C31952  10.839  10.998   9.408  0.1988 -1.2055 -0.6902
  978MOL0     C31953  10.912  10.906   9.333  0.3465 -0.3335  0.0431
  978MOL0     O31954  11.035  10.889   9.367  0.6019  0.2764  0.1480
  978MOL0     C31955  11.112  10.784   9.303 -0.4915  0.4104  0.8866
  978MOL0     C31956  11.235  10.780   9.392  1.0671 -0.3206  0.9385
  978MOL0     C31957  11.338  10.681   9.324 -0.3624 -0.0292 -1.0774
  978MOL0     C31958  11.460  10.653   9.407 -0.7299  0.6122  0.3258
  978MOL0     C31959  11.555  10.758   9.387 -0.4514  0.2296  0.3308
  978MOL0     C31960  11.642  10.834   9.346 -1.2355 -0.0487 -0.7416
  978MOL0     C31961  10.848  10.836   9.236  0.4748  0.2392  0.5159
  978MOL0     C31962  10.717  10.865   9.200  0.6461  0.5785 -0.8545
  978MOL0     H31963  10.263  10.778   9.216  3.6833  1.2741  1.3659
  978MOL0     H31964  10.003  10.839   9.212 -0.8515  1.4087  1.5718
  978MOL0     H31965   9.873  11.227   9.009  1.2613  0.2038 -2.5799
  978MOL0     H31966   9.902  11.096   8.891  1.7204  1.5522 -0.9469
  978MOL0     H31967   9.688  11.008   8.914  0.5408 -0.3308 -1.0113
  978MOL0     H31968   9.641  11.129   9.041 -1.8644  0.3804 -1.7684
  978MOL0     H31969   9.729  11.203   8.762  0.4253 -3.1190  0.3449
  978MOL0     H31970   9.569  11.167   8.786  0.9512  1.3378 -0.6720
  978MOL0     H31971   9.534  11.338   8.976 -0.4479  4.1247 -1.3468
  978MOL0     H31972   9.705  11.379   8.945 -0.2915  0.6941 -0.4715
  978MOL0     H31973   9.625  11.424   8.704 -2.2296  3.3681 -1.4346
  978MOL0     H31974   9.471  11.371   8.750  0.8642 -0.7827 -1.3349
  978MOL0     H31975   9.601  11.602   8.901 -0.1474  1.3061  0.3130
  978MOL0     H31976   9.524  11.625   8.741 -1.2237  1.7240  1.0285
  978MOL0     H31977   9.318  11.600   8.811  0.0439  0.9225  0.4252
  978MOL0     H31978   9.348  11.456   8.911  2.8522 -1.4519 -2.1244
  978MOL0     H31979   9.266  11.619   9.055 -0.4111 -0.2193 -1.0589
  978MOL0     H31980   9.364  11.752   8.981 -0.1762  0.2993 -1.0189
  978MOL0     H31981   9.408  11.414   9.206  1.2996 -0.6385 -4.1850
  978MOL0     H31982   9.722  11.431   9.400  0.1058  0.1854 -2.4233
  978MOL0     H31983   9.548  11.409   9.451 -0.4775  0.6066  0.3547
  978MOL0     H31984   9.661  11.288   9.186 -1.5851 -0.7170 -0.1870
  978MOL0     H31985   9.524  11.246   9.285 -0.0344 -0.2251  3.3003
  978MOL0     H31986   9.815  11.178   9.325 -0.1722  0.6934 -0.6432
  978MOL0     H31987   9.673  11.079   9.296  1.6246  0.6481 -1.6722
  978MOL0     H31988   9.595  11.188   9.530 -0.0400  2.4922 -1.0249
  978MOL0     H31989   9.762  11.221   9.557  0.1974 -0.8675  1.0928
  978MOL0     H31990   9.820  11.033   9.775  2.1934  3.6741 -1.0346
  978MOL0     H31991  10.093  11.034   9.919 -0.2778  0.0548  1.0672
  978MOL0     H31992   9.961  10.954   9.965  1.1378  3.5508  0.5507
  978MOL0     H31993  10.087  10.854   9.926  0.1373 -0.9231 -0.1304
  978MOL0     H31994  10.512  10.888   9.491  0.1794  0.5182  0.8139
  978MOL0     H31995  10.757  10.766   9.480 -0.8056  0.4040  0.5695
  978MOL0     H31996  10.808  10.471   9.780  2.1175 -4.5932  2.8548
  978MOL0     H31997  10.835  10.358   9.644  0.1713  0.0230  0.8171
  978MOL0     H31998  11.028  10.572   9.727 -1.7254  0.0658 -0.5617
  978MOL0     H31999  11.040  10.420   9.805  1.4099  3.0317  0.3304
  978MOL0     H32000  11.068  10.487   9.504  0.3509  0.6127  0.4049
  978MOL0     H32001  11.051  10.332   9.542  2.1999  0.2770 -0.2491
  978MOL0     H32002  11.277  10.498   9.616 -1.1708 -0.6909  0.1440
  978MOL0     H32003  11.238  10.346   9.705  2.3882 -0.8891 -0.9315
  978MOL0     H32004  11.279  10.395   9.418 -1.2995  1.5156  1.2111
  978MOL0     H32005  11.211  10.243   9.481 -0.1829 -0.0553 -0.2520
  978MOL0     H32006  11.489  10.340   9.561  0.3383 -0.8879 -3.0120
  978MOL0     H32007  11.411  10.201   9.628  0.8733  2.1569  1.2622
  978MOL0     H32008  11.493  10.249   9.337 -0.3084 -2.0194 -1.8697
  978MOL0     H32009  11.391  10.111   9.383 -1.0022  2.5861 -0.0429
  978MOL0     H32010  11.607  10.058   9.544  1.4584  2.5188  1.0395
  978MOL0     H32011  11.673  10.195   9.474 -1.1214  1.3371 -0.3130
  978MOL0     H32012  10.598  10.432   9.679  2.2999 -0.0909 -0.1503
  978MOL0     H32013  10.371  10.525   9.677 -0.6866 -2.1533 -3.1886
  978MOL0     H32014  10.121  10.855   9.437 -3.4493 -0.2613 -2.4191
  978MOL0     H32015   9.895  10.959   9.372 -1.4762  2.5740  1.2920
  978MOL0     H32016  10.101  11.201   9.016  0.1260 -0.7223  0.2602
  978MOL0     H32017  10.345  11.141   9.028 -0.5473  0.4776  0.5649
  978MOL0     H32018  10.665  11.124   9.429  1.8230  2.6504 -0.2173
  978MOL0     H32019  10.885  11.046   9.494 -2.0623  0.6557 -0.4019
  978MOL0     H32020  11.055  10.691   9.294  1.3011 -0.5753 -1.1798
  978MOL0     H32021  11.146  10.819   9.205 -2.0259  2.2590  0.9493
  978MOL0     H32022  11.208  10.754   9.495  1.5499 -0.4293  1.0392
  978MOL0     H32023  11.274  10.880   9.409 -0.6672 -0.1535  5.0200
  978MOL0     H32024  11.360  10.721   9.225 -2.3481  0.7635 -1.2527
  978MOL0     H32025  11.288  10.586   9.305 -0.1877 -0.1522 -0.9259
  978MOL0     H32026  11.503  10.557   9.377 -1.6834 -0.4103  2.0508
  978MOL0     H32027  11.413  10.656   9.506 -0.9459 -3.2583  0.4952
  978MOL0     H32028  11.713  10.904   9.306 -0.7286 -0.1111  0.0198
  978MOL0     H32029  10.903  10.769   9.169 -0.7725  0.6372 -0.9680
  978MOL0     H32030  10.666  10.823   9.114 -0.6529  1.9958 -0.8355
  979MOL0     O32031   3.255   9.792  10.465  0.4179  0.0115 -0.2211
  979MOL0     C32032   3.279   9.725  10.564  0.5445 -0.3830 -0.6588
  979MOL0     O32033   3.188   9.638  10.637  0.4394 -0.1607 -0.1215
  979MOL0     C32034   3.050   9.648  10.631 -0.4869 -0.4649  0.6379
  979MOL0     C32035   2.986   9.660  10.509 -0.0245 -0.8589 -0.1792
  979MOL0     C32036   2.850   9.648  10.510  0.8990  0.7901 -0.0806
  979MOL0     C32037   2.777   9.621  10.623 -0.0059 -0.2163  0.6602
  979MOL0     O32038   2.641   9.598  10.610  0.1895 -0.0107  0.0534
  979MOL0     C32039   2.554   9.607  10.721  0.0439 -0.2333 -0.0736
  979MOL0     C32040   2.407   9.610  10.674 -0.2571 -0.2471  0.8017
  979MOL0     C32041   2.309   9.573  10.784  0.0392 -0.4192 -0.1484
  979MOL0     C32042   2.336   9.683  10.892  0.4568  0.6425  0.5188
  979MOL0     C32043   2.230   9.666  11.000  0.0429 -0.1777  0.7097
  979MOL0     C32044   2.290   9.575  11.116 -0.2963 -0.4687 -0.0637
  979MOL0     C32045   2.183   9.538  11.220 -0.3482  0.5359  0.7669
  979MOL0     C32046   2.251   9.477  11.352  0.1251 -0.9132  0.0685
  979MOL0     N32047   2.311   9.342  11.348 -0.5098 -0.6006  0.0312
  979MOL0     C32048   2.427   9.304  11.274  0.0814  0.0674 -0.0342
  979MOL0     C32049   2.455   9.181  11.328  0.1697 -0.1048 -0.2544
  979MOL0     C32050   2.560   9.089  11.295  0.0309 -0.1257  0.6892
  979MOL0     C32051   2.710   9.104  11.344  0.8157  0.1117  0.4242
  979MOL0     C32052   2.711   9.155  11.492 -0.3340 -0.8919 -0.2650
  979MOL0     C32053   2.855   9.186  11.555  0.1527  0.4656  0.6712
  979MOL0     O32054   2.912   9.048  11.562  0.0517  0.3628  0.3342
  979MOL0     C32055   3.030   9.033  11.626  0.1323 -0.4089  1.0693
  979MOL0     C32056   3.110   8.935  11.574 -0.3696 -0.7602 -0.4460
  979MOL0     C32057   3.232   8.898  11.635  0.5197  1.0317 -0.6088
  979MOL0     C32058   3.296   8.772  11.590 -0.1274  0.6980 -0.2088
  979MOL0     C32059   3.272   8.968  11.754 -0.0039  0.4379  0.6372
  979MOL0     C32060   3.391   8.925  11.840 -0.5095 -0.7029 -0.3275
  979MOL0     O32061   3.445   9.029  11.909 -0.4769  0.3198 -0.1932
  979MOL0     C32062   3.557   9.033  11.990  1.0694 -0.4222  0.6376
  979MOL0     C32063   3.663   8.937  11.979 -0.1079 -0.5901  0.0342
  979MOL0     C32064   3.769   8.947  12.078 -0.1903 -0.2213  1.0296
  979MOL0     C32065   3.774   9.056  12.166 -0.3068  0.4351 -0.3631
  979MOL0     O32066   3.864   9.077  12.272  0.0399 -0.4991 -0.3258
  979MOL0     C32067   3.977   9.003  12.286 -0.4595 -0.2203  0.4342
  979MOL0     C32068   4.089   9.066  12.203 -1.0167 -0.1009  0.2654
  979MOL0     C32069   4.099   9.223  12.215  0.0665 -0.6972  0.0714
  979MOL0     C32070   4.217   9.271  12.133  1.0857  0.1950  0.0763
  979MOL0     C32071   4.349   9.231  12.191  0.2465 -0.3468  0.7118
  979MOL0     C32072   4.462   9.280  12.093 -0.3629 -0.0558 -0.8160
  979MOL0     C32073   4.604   9.243  12.136  0.1583  1.0659 -0.2903
  979MOL0     C32074   4.702   9.251  12.016  0.0588  0.9092 -0.1679
  979MOL0    Cl32075   4.868   9.235  12.080  0.1650  0.3198  0.1272
  979MOL0     C32076   3.682   9.159  12.155 -0.3658  0.2896 -0.5228
  979MOL0     C32077   3.571   9.145  12.076  0.2487 -0.2480  0.3514
  979MOL0     O32078   3.420   8.809  11.856 -0.2052  0.7199 -0.0251
  979MOL0     C32079   3.193   9.073  11.801  1.2885 -0.5369  0.1447
  979MOL0     C32080   3.071   9.107  11.739 -0.4925  0.1928 -0.1805
  979MOL0     N32081   2.354   9.149  11.423 -0.2780 -0.3273  0.1924
  979MOL0     N32082   2.272   9.249  11.441 -1.0773  0.5863  0.5161
  979MOL0     C32083   2.846   9.607  10.742  0.0510 -0.0604 -0.0715
  979MOL0     C32084   2.983   9.625  10.756 -0.3250 -0.4128  0.1024
  979MOL0     C32085   3.418   9.708  10.611  0.2391 -0.1052 -0.4369
  979MOL0     C32086   3.444   9.645  10.740  0.0308  1.0171 -0.1325
  979MOL0     C32087   3.576   9.641  10.787  0.4787  0.2543 -0.5796
  979MOL0     C32088   3.685   9.684  10.707 -0.2643 -1.0753 -0.5187
  979MOL0     O32089   3.821   9.673  10.747 -0.3126 -0.1183  0.2612
  979MOL0     C32090   3.927   9.715  10.665 -1.3655  0.1265  0.3414
  979MOL0     C32091   3.945   9.867  10.676 -0.1744  0.0883  0.1418
  979MOL0     C32092   4.082   9.932  10.622  0.3020 -0.1116  0.6205
  979MOL0     C32093   4.102  10.083  10.623  0.3528  0.5487  0.6687
  979MOL0     C32094   3.996  10.158  10.550 -0.1325  0.2968  0.6920
  979MOL0     C32095   3.903  10.213  10.491 -0.5985  0.5385 -0.1370
  979MOL0     C32096   3.656   9.747  10.586 -0.0896  0.8981  0.2832
  979MOL0     C32097   3.528   9.761  10.546  0.0329  0.2940  0.3391
  979MOL0     H32098   3.030   9.692  10.415 -0.3814  0.2263  0.0092
  979MOL0     H32099   2.815   9.668  10.409  0.7698  2.3353  0.2513
  979MOL0     H32100   2.579   9.537  10.801  2.4409  2.4320  1.6840
  979MOL0     H32101   2.576   9.700  10.774 -1.6883  0.2030 -0.0552
  979MOL0     H32102   2.394   9.706  10.623  3.4342 -0.8390 -1.6295
  979MOL0     H32103   2.405   9.537  10.593  4.1796 -1.7338  1.7642
  979MOL0     H32104   2.204   9.567  10.752 -0.6477  0.4382  1.8336
  979MOL0     H32105   2.337   9.475  10.823  1.9796 -0.2264 -0.9420
  979MOL0     H32106   2.433   9.694  10.940  0.1725 -0.3643  1.3814
  979MOL0     H32107   2.318   9.774  10.834 -2.6549  0.1138  0.4386
  979MOL0     H32108   2.205   9.763  11.045 -2.3062 -0.2193 -0.3388
  979MOL0     H32109   2.141   9.627  10.950  1.5188  1.1126 -3.2447
  979MOL0     H32110   2.320   9.483  11.066 -0.8622  0.4813 -2.2715
  979MOL0     H32111   2.370   9.633  11.162 -1.3253  2.7943 -2.0174
  979MOL0     H32112   2.120   9.619  11.257 -1.6386 -0.0088 -0.1684
  979MOL0     H32113   2.114   9.470  11.169  1.5540  0.2591 -1.6568
  979MOL0     H32114   2.163   9.469  11.416 -0.8586 -1.6303 -1.3251
  979MOL0     H32115   2.321   9.544  11.405 -2.4501  1.5538  0.5791
  979MOL0     H32116   2.495   9.348  11.201  0.7243 -0.3679  0.3014
  979MOL0     H32117   2.525   8.988  11.321 -0.6768 -0.5476 -1.6183
  979MOL0     H32118   2.566   9.081  11.186 -1.6946 -4.1398  0.6737
  979MOL0     H32119   2.765   9.171  11.278 -1.4672 -2.0877 -4.2153
  979MOL0     H32120   2.765   9.010  11.331 -0.2661 -0.3422 -1.0745
  979MOL0     H32121   2.653   9.096  11.564 -2.2788 -0.8353 -1.7041
  979MOL0     H32122   2.666   9.255  11.493 -1.2320 -1.2757 -1.0494
  979MOL0     H32123   2.846   9.244  11.648 -1.6761  0.3833  0.5938
  979MOL0     H32124   2.905   9.238  11.474 -1.1137 -0.9056 -1.0760
  979MOL0     H32125   3.074   8.894  11.480  0.8327 -0.5405 -1.0146
  979MOL0     H32126   3.297   8.695  11.667 -0.2179 -1.3483 -2.1319
  979MOL0     H32127   3.231   8.739  11.508  0.5878 -1.6271  0.0892
  979MOL0     H32128   3.399   8.786  11.557  0.8265 -0.4567  2.0531
  979MOL0     H32129   3.667   8.859  11.904 -0.5176 -0.3513 -0.2391
  979MOL0     H32130   3.843   8.867  12.075  1.7646  1.5135 -2.6260
  979MOL0     H32131   4.020   9.004  12.387 -0.6675 -0.7243  0.5280
  979MOL0     H32132   3.958   8.900  12.257 -4.8917  0.8430 -1.3835
  979MOL0     H32133   4.180   9.018  12.239 -0.5443  0.0757 -0.6652
  979MOL0     H32134   4.097   9.041  12.097  0.4678 -0.5846  0.4668
  979MOL0     H32135   4.101   9.261  12.318  1.3831  0.5241 -0.3755
  979MOL0     H32136   4.008   9.269  12.176  0.1009  1.0065  1.8378
  979MOL0     H32137   4.203   9.220  12.036  0.0283 -0.4237  0.5391
  979MOL0     H32138   4.217   9.379  12.118  2.5550 -0.0303 -2.1847
  979MOL0     H32139   4.363   9.124  12.209 -0.0305 -0.4601  0.2571
  979MOL0     H32140   4.354   9.282  12.288 -0.9410  1.3723 -0.0658
  979MOL0     H32141   4.443   9.241  11.992  1.0593  2.6651 -2.2533
  979MOL0     H32142   4.471   9.389  12.088  1.9389 -0.1122  0.4818
  979MOL0     H32143   4.597   9.146  12.186 -2.5524  0.3615 -1.8688
  979MOL0     H32144   4.648   9.316  12.205  1.0721  1.3817 -1.1852
  979MOL0     H32145   4.695   9.350  11.969  3.5587  1.2937 -0.1370
  979MOL0     H32146   4.691   9.175  11.938 -0.3042  0.3988  0.3705
  979MOL0     H32147   3.694   9.243  12.223  1.2669  0.8120 -1.4037
  979MOL0     H32148   3.495   9.222  12.081  0.6266  0.0919  3.8770
  979MOL0     H32149   3.210   9.125  11.894 -4.8389  2.2803  0.1562
  979MOL0     H32150   3.006   9.188  11.773 -0.6974 -0.3506  0.7830
  979MOL0     H32151   2.792   9.575  10.831  0.6438 -0.1719  0.2519
  979MOL0     H32152   3.044   9.630  10.846  0.2050  0.9644 -0.2944
  979MOL0     H32153   3.363   9.609  10.803  0.1454 -1.9615 -1.5129
  979MOL0     H32154   3.595   9.591  10.882 -0.3583 -2.1325 -1.5749
  979MOL0     H32155   4.015   9.667  10.707  0.3978  0.6312 -2.5248
  979MOL0     H32156   3.916   9.671  10.566 -1.0694 -0.5049  0.5869
  979MOL0     H32157   3.940   9.878  10.785  1.7641 -1.5932  0.4559
  979MOL0     H32158   3.862   9.932  10.646 -1.2307  1.3345  4.8225
  979MOL0     H32159   4.108   9.895  10.522 -0.2978  0.2278  0.3376
  979MOL0     H32160   4.158   9.895  10.692  1.8804  2.3283  0.3107
  979MOL0     H32161   4.202  10.099  10.581  0.6946 -1.5679  0.5714
  979MOL0     H32162   4.110  10.131  10.721 -0.9634  1.0283  0.5573
  979MOL0     H32163   3.820  10.263  10.446 -2.2205 -0.7033  1.3501
  979MOL0     H32164   3.739   9.781  10.525  1.6061 -0.6416  1.5838
  979MOL0     H32165   3.513   9.799  10.445  2.1383 -1.3590 -0.6548
  980MOL0     O32166   9.070   8.633  11.317 -0.0229 -0.2183  0.2196
  980MOL0     C32167   9.156   8.554  11.278 -0.6952  0.4739 -0.4811
  980MOL0     O32168   9.130   8.433  11.226  0.2170 -0.0950  0.0894
  980MOL0     C32169   9.002   8.388  11.199 -0.0362 -0.0033  0.9516
  980MOL0     C32170   8.896   8.474  11.160 -0.7600  0.2566 -0.4283
  980MOL0     C32171   8.779   8.409  11.122  0.5274 -0.0424 -0.7648
  980MOL0     C32172   8.773   8.266  11.113 -0.3894 -0.0744  0.6663
  980MOL0     O32173   8.664   8.188  11.066  0.0139 -0.9065 -0.1038
  980MOL0     C32174   8.531   8.233  11.083 -0.0092  0.0590  0.3500
  980MOL0     C32175   8.472   8.205  11.220 -0.6012  0.8705 -0.0784
  980MOL0     C32176   8.313   8.203  11.210  0.5557  0.7287 -0.2833
  980MOL0     C32177   8.256   8.125  11.326  0.5272  0.0913 -0.0626
  980MOL0     C32178   8.107   8.131  11.312  0.1083 -0.8639  0.1957
  980MOL0     C32179   8.040   8.034  11.408 -0.6484 -0.3016 -0.9522
  980MOL0     C32180   7.902   8.003  11.348 -0.9243  0.3153  0.0496
  980MOL0     C32181   7.810   7.981  11.461  0.8763  0.0288 -0.4616
  980MOL0     N32182   7.858   7.881  11.552 -0.2649 -0.6233  0.1653
  980MOL0     C32183   7.916   7.765  11.512 -0.2290  0.3993  0.2351
  980MOL0     C32184   7.965   7.707  11.625 -0.0997  0.2403 -0.1557
  980MOL0     C32185   8.047   7.586  11.616 -0.0562  0.0727 -1.2133
  980MOL0     C32186   8.194   7.625  11.606  0.5001 -0.3083  0.9364
  980MOL0     C32187   8.275   7.509  11.641 -0.0035 -0.1029  0.4674
  980MOL0     C32188   8.427   7.541  11.657 -0.3829  0.8396  0.0086
  980MOL0     O32189   8.499   7.417  11.676 -0.6366  0.3626 -0.0589
  980MOL0     C32190   8.623   7.421  11.723  0.3423  0.0063 -0.5551
  980MOL0     C32191   8.712   7.521  11.704 -0.4651  0.4546  0.6498
  980MOL0     C32192   8.841   7.525  11.756  0.0122  0.3716  0.2822
  980MOL0     C32193   8.920   7.655  11.734 -0.0106 -0.4345  0.0689
  980MOL0     C32194   8.896   7.409  11.811  0.1490  0.1089 -0.3594
  980MOL0     C32195   9.037   7.388  11.833 -0.0821 -0.1850  0.1655
  980MOL0     O32196   9.126   7.479  11.779  0.7428  0.0231  0.3949
  980MOL0     C32197   9.259   7.445  11.775  0.9273 -0.4063 -0.4897
  980MOL0     C32198   9.330   7.445  11.657 -0.4557 -0.2709  1.1235
  980MOL0     C32199   9.470   7.416  11.645 -0.0199 -0.7123 -0.5238
  980MOL0     C32200   9.547   7.399  11.765  0.4729  0.8326  0.5328
  980MOL0     O32201   9.673   7.357  11.775 -0.4155 -0.5853 -0.3609
  980MOL0     C32202   9.742   7.315  11.653  0.3426 -0.4925  0.7883
  980MOL0     C32203   9.883   7.282  11.677  0.5989  1.2868  0.8299
  980MOL0     C32204   9.917   7.145  11.759 -0.7849  0.4985  0.4654
  980MOL0     C32205   9.918   7.023  11.658 -0.6729  0.3760  0.1122
  980MOL0     C32206  10.013   6.911  11.722  0.4006  0.1572  0.5144
  980MOL0     C32207   9.940   6.828  11.833 -0.2395 -0.0339  0.4135
  980MOL0     C32208  10.039   6.724  11.887 -0.8160 -0.2599  0.5211
  980MOL0     C32209   9.965   6.605  11.956  0.4578 -0.0101 -0.4728
  980MOL0    Cl32210   9.880   6.519  11.817  0.4445 -0.2775 -0.2263
  980MOL0     C32211   9.480   7.396  11.881  0.8160  0.7673  0.3760
  980MOL0     C32212   9.336   7.421  11.888  0.6078 -0.0385 -0.6886
  980MOL0     O32213   9.073   7.285  11.900  0.1085 -0.0654  0.1901
  980MOL0     C32214   8.805   7.306  11.835 -0.1259  0.9996 -0.1672
  980MOL0     C32215   8.668   7.311  11.794 -0.3070  0.6130 -0.2167
  980MOL0     N32216   7.935   7.791  11.729  0.1711 -0.5526 -0.5136
  980MOL0     N32217   7.873   7.903  11.690 -0.1091  0.5236  0.2243
  980MOL0     C32218   8.879   8.186  11.148 -0.1115 -0.4596 -0.2430
  980MOL0     C32219   8.994   8.248  11.187 -0.5063 -0.3003  0.6675
  980MOL0     C32220   9.291   8.598  11.269  0.1727 -0.5956 -0.0565
  980MOL0     C32221   9.323   8.724  11.326  1.3288 -0.0151  0.6267
  980MOL0     C32222   9.452   8.775  11.320  0.4232  0.1728 -0.3214
  980MOL0     C32223   9.559   8.697  11.275  0.2319 -0.7140 -0.1448
  980MOL0     O32224   9.692   8.737  11.271  0.4072 -0.5738 -0.0264
  980MOL0     C32225   9.743   8.842  11.356 -0.3020 -0.0954  0.9498
  980MOL0     C32226   9.757   8.786  11.494  0.0196 -0.6328 -0.4386
  980MOL0     C32227   9.885   8.850  11.563 -0.5966  0.8488  0.3956
  980MOL0     C32228   9.945   8.764  11.683  0.4125 -0.4361 -0.6817
  980MOL0     C32229   9.861   8.787  11.805  0.1183  0.0412 -0.1224
  980MOL0     C32230   9.783   8.805  11.895  0.9366 -0.1751 -0.2320
  980MOL0     C32231   9.527   8.571  11.221  0.2577 -0.3818 -0.7673
  980MOL0     C32232   9.396   8.517  11.218  0.6092  0.1825 -1.1581
  980MOL0     H32233   8.900   8.582  11.159  1.5691  0.2268 -0.0891
  980MOL0     H32234   8.701   8.479  11.096  0.8844  1.4238  1.7916
  980MOL0     H32235   8.525   8.338  11.054 -0.8885 -0.7383 -2.7245
  980MOL0     H32236   8.471   8.178  11.010  0.8454  0.1351 -0.4322
  980MOL0     H32237   8.495   8.101  11.242 -0.9843  1.3098  2.6586
  980MOL0     H32238   8.508   8.275  11.296 -1.5663  0.8026  0.4474
  980MOL0     H32239   8.270   8.304  11.215 -3.8414 -0.8959 -0.8472
  980MOL0     H32240   8.291   8.172  11.107  2.9844 -1.5319 -0.2142
  980MOL0     H32241   8.287   8.019  11.327 -0.2916 -0.1541  0.9149
  980MOL0     H32242   8.290   8.157  11.425  2.6349  1.2722 -1.1128
  980MOL0     H32243   8.076   8.235  11.321  1.3317 -0.6142  1.8756
  980MOL0     H32244   8.078   8.109  11.208 -2.2713  0.9730  0.3740
  980MOL0     H32245   8.096   7.941  11.419  3.4662  2.0304 -0.5117
  980MOL0     H32246   8.025   8.081  11.506  0.1345 -1.1668 -0.4071
  980MOL0     H32247   7.874   8.094  11.293 -1.0649  1.0420  1.2928
  980MOL0     H32248   7.889   7.920  11.278 -5.5748  0.9351 -0.1519
  980MOL0     H32249   7.708   7.971  11.424  0.6879  0.9569 -0.2141
  980MOL0     H32250   7.806   8.079  11.508 -0.6693  0.9854 -2.5043
  980MOL0     H32251   7.920   7.738  11.407  1.2764  2.7357 -0.4002
  980MOL0     H32252   8.014   7.528  11.702 -0.2830  1.2925 -0.4596
  980MOL0     H32253   8.024   7.532  11.524  0.6910 -1.7720 -0.3605
  980MOL0     H32254   8.210   7.704  11.680  0.6561  0.2852  0.2838
  980MOL0     H32255   8.208   7.667  11.506 -0.4752 -1.9214  0.0867
  980MOL0     H32256   8.261   7.443  11.555  0.9216 -0.4427  0.5741
  980MOL0     H32257   8.242   7.465  11.736  1.1881  0.9816  1.4190
  980MOL0     H32258   8.455   7.585  11.753  0.2831 -1.8960  1.1758
  980MOL0     H32259   8.467   7.593  11.569  1.1453  0.1086  0.2309
  980MOL0     H32260   8.679   7.615  11.661  0.1001 -1.0544 -3.5344
  980MOL0     H32261   8.859   7.745  11.725  1.6325  0.6001 -1.4469
  980MOL0     H32262   8.996   7.675  11.810 -0.7907 -1.6686  1.2006
  980MOL0     H32263   8.958   7.632  11.634  1.2030 -0.3704  0.4929
  980MOL0     H32264   9.271   7.454  11.567  2.0314  0.2989 -0.5519
  980MOL0     H32265   9.513   7.396  11.548  0.0761 -0.3919 -0.5467
  980MOL0     H32266   9.687   7.226  11.620 -4.1863  2.4298 -0.3683
  980MOL0     H32267   9.721   7.393  11.580 -0.3164 -0.9927  0.4265
  980MOL0     H32268   9.927   7.284  11.577 -0.9704  2.9065  0.1058
  980MOL0     H32269   9.934   7.362  11.731  1.7473  0.1028  1.5769
  980MOL0     H32270   9.840   7.133  11.836 -1.8846 -2.1546 -0.9491
  980MOL0     H32271  10.013   7.159  11.811 -0.0460 -2.7136  0.1706
  980MOL0     H32272   9.812   6.996  11.653 -0.2715 -1.3021 -0.2290
  980MOL0     H32273   9.956   7.041  11.557  2.6613 -0.9219  0.9913
  980MOL0     H32274  10.099   6.965  11.764 -2.4884  6.4791 -0.3891
  980MOL0     H32275  10.047   6.848  11.639  1.1308 -1.4986  2.0119
  980MOL0     H32276   9.908   6.897  11.912 -0.3529 -0.4663  0.7483
  980MOL0     H32277   9.851   6.775  11.796 -1.0275  1.2602  0.4067
  980MOL0     H32278  10.117   6.765  11.952 -0.0705  0.8314 -1.0014
  980MOL0     H32279  10.092   6.690  11.797 -2.1851 -0.9239 -0.0642
  980MOL0     H32280   9.897   6.635  12.037  2.3551 -0.3352  1.3186
  980MOL0     H32281  10.051   6.549  11.994  1.3726  1.9572  0.5000
  980MOL0     H32282   9.535   7.381  11.974  0.4471 -3.2945  0.1061
  980MOL0     H32283   9.279   7.413  11.981 -1.9135 -2.5946 -2.2931
  980MOL0     H32284   8.846   7.212  11.872  1.9521  1.2773 -1.5967
  980MOL0     H32285   8.601   7.227  11.808 -0.4756  0.0813 -3.4620
  980MOL0     H32286   8.875   8.078  11.138 -0.0113 -0.5000  0.1537
  980MOL0     H32287   9.084   8.202  11.228  0.1811  2.4009  2.4482
  980MOL0     H32288   9.262   8.796  11.379  2.8549  2.3695 -0.6275
  980MOL0     H32289   9.468   8.866  11.377 -2.4425  1.3464 -1.1848
  980MOL0     H32290   9.840   8.873  11.316  0.1994 -1.1155  1.3260
  980MOL0     H32291   9.683   8.933  11.363  2.0011  1.5354  0.4852
  980MOL0     H32292   9.765   8.678  11.479 -1.1889 -0.5476 -1.9200
  980MOL0     H32293   9.669   8.807  11.555  1.3420  4.6646  0.1196
  980MOL0     H32294   9.859   8.951  11.595 -2.1555  0.1340  1.5653
  980MOL0     H32295   9.965   8.837  11.490  0.5037 -3.4326  2.0172
  980MOL0     H32296  10.046   8.796  11.711 -0.4544  1.8552  0.0719
  980MOL0     H32297   9.948   8.662  11.643  0.1311 -0.1933 -1.3411
  980MOL0     H32298   9.719   8.822  11.980  1.7484 -2.2029  0.8414
  980MOL0     H32299   9.615   8.520  11.182 -0.2236 -3.0081  1.3142
  980MOL0     H32300   9.381   8.422  11.169  0.8000 -0.7203  0.4758
  981MOL0     O32301   6.397   7.047   3.778 -0.3074 -0.0471 -0.2583
  981MOL0     C32302   6.428   7.171   3.767  0.1091  0.0402 -0.2970
  981MOL0     O32303   6.336   7.273   3.775 -0.8241 -0.2462  0.1409
  981MOL0     C32304   6.210   7.253   3.812  0.2007 -0.1969 -0.3554
  981MOL0     C32305   6.156   7.151   3.897  0.1477  0.1860  0.2331
  981MOL0     C32306   6.016   7.139   3.923 -0.0262 -0.4976 -0.6538
  981MOL0     C32307   5.927   7.229   3.872  0.8234 -0.9237  0.1635
  981MOL0     O32308   5.798   7.210   3.910  0.2156  0.0780  0.0134
  981MOL0     C32309   5.686   7.273   3.840  0.0059 -0.2391  0.7571
  981MOL0     C32310   5.543   7.232   3.894 -0.2591  0.1576  0.1516
  981MOL0     C32311   5.430   7.256   3.795 -0.6239 -0.3892  0.9176
  981MOL0     C32312   5.400   7.403   3.823 -0.4461 -0.3346 -0.4507
  981MOL0     C32313   5.251   7.432   3.762 -0.2606  0.8618  0.3568
  981MOL0     C32314   5.184   7.567   3.801  0.1058  0.1710 -0.5833
  981MOL0     C32315   5.265   7.691   3.807 -0.2377 -0.5767 -0.2938
  981MOL0     C32316   5.349   7.729   3.687 -0.7952  0.2729 -0.3323
  981MOL0     N32317   5.270   7.780   3.577 -0.8513 -0.7141  1.2333
  981MOL0     C32318   5.192   7.895   3.580  0.6198 -0.4470 -0.9334
  981MOL0     C32319   5.114   7.891   3.464  0.1735 -0.1139  0.1204
  981MOL0     C32320   5.017   7.993   3.417 -0.3504 -0.0177  0.8583
  981MOL0     C32321   4.934   7.955   3.302  0.9060  1.2573 -0.2280
  981MOL0     C32322   4.838   8.070   3.265 -0.1385  0.2966  0.3011
  981MOL0     C32323   4.723   8.031   3.176 -0.0033  0.0529  0.4111
  981MOL0     O32324   4.654   8.153   3.121 -0.3492 -0.4710  0.0553
  981MOL0     C32325   4.535   8.125   3.057  0.6326 -0.8452 -0.1948
  981MOL0     C32326   4.539   8.067   2.929 -0.3995  0.1928  0.2361
  981MOL0     C32327   4.416   8.041   2.856  0.4023  0.4618 -0.1795
  981MOL0     C32328   4.428   7.971   2.728  0.2810 -0.0382  0.2218
  981MOL0     C32329   4.296   8.076   2.923  0.2183  0.9869 -0.4120
  981MOL0     C32330   4.164   8.047   2.862 -0.1575  1.0918  0.1900
  981MOL0     O32331   4.085   8.152   2.837 -0.0134  0.3415  0.7882
  981MOL0     C32332   3.976   8.112   2.772 -0.5610  0.4404 -0.7153
  981MOL0     C32333   3.856   8.095   2.836  0.7908 -0.4935 -0.1952
  981MOL0     C32334   3.732   8.080   2.765 -0.4885 -0.3640  0.5722
  981MOL0     C32335   3.738   8.084   2.620 -0.8471  0.2600 -0.0277
  981MOL0     O32336   3.619   8.079   2.545  0.2457  0.1411 -0.0993
  981MOL0     C32337   3.630   8.091   2.401  1.1146 -0.0203 -0.3076
  981MOL0     C32338   3.489   8.082   2.337  0.1590  0.3061  0.7877
  981MOL0     C32339   3.423   7.954   2.377  0.1393  0.2417 -0.5749
  981MOL0     C32340   3.314   7.902   2.275  0.3651 -0.6588 -0.0832
  981MOL0     C32341   3.250   7.768   2.317 -0.4052 -0.0290 -0.4679
  981MOL0     C32342   3.166   7.776   2.452  0.0705  0.3640 -0.1464
  981MOL0     C32343   3.118   7.638   2.505 -0.4854 -0.3651 -0.1731
  981MOL0     C32344   3.225   7.547   2.556 -0.7848  0.3488 -0.6149
  981MOL0    Cl32345   3.139   7.403   2.589 -0.4561  0.1548 -0.5611
  981MOL0     C32346   3.866   8.088   2.555 -0.0220  0.0004  0.2651
  981MOL0     C32347   3.977   8.104   2.630  0.0599 -0.7783 -1.0869
  981MOL0     O32348   4.134   7.927   2.848 -0.2018 -0.4324 -0.6773
  981MOL0     C32349   4.293   8.137   3.050 -0.0051 -0.2127 -0.2856
  981MOL0     C32350   4.409   8.162   3.115 -0.4725 -0.2533  0.2762
  981MOL0     N32351   5.153   7.775   3.390 -0.0586 -0.6333 -0.0836
  981MOL0     N32352   5.244   7.714   3.453 -0.0264  0.6175 -0.5227
  981MOL0     C32353   5.978   7.332   3.785  0.2659 -0.9739 -0.8105
  981MOL0     C32354   6.115   7.343   3.763  0.1319 -0.1148 -0.3228
  981MOL0     C32355   6.573   7.196   3.749  1.2234 -0.3168  0.1902
  981MOL0     C32356   6.679   7.105   3.765  0.1450  0.2338 -0.0271
  981MOL0     C32357   6.808   7.138   3.745 -0.7224 -0.0881 -0.7144
  981MOL0     C32358   6.847   7.264   3.696  0.2513 -0.3262 -0.2607
  981MOL0     O32359   6.981   7.291   3.677 -0.4925 -0.3759  0.0306
  981MOL0     C32360   7.018   7.343   3.545 -0.3739  0.0087  0.1582
  981MOL0     C32361   7.078   7.474   3.565 -0.9870 -0.2637  1.3603
  981MOL0     C32362   7.205   7.467   3.652 -0.2306 -0.2561 -0.4240
  981MOL0     C32363   7.252   7.617   3.650 -0.0303 -0.3838  0.0987
  981MOL0     C32364   7.366   7.641   3.738 -0.4967  0.3671 -0.4397
  981MOL0     C32365   7.456   7.673   3.816  0.2601 -0.0459  0.5143
  981MOL0     C32366   6.743   7.358   3.679 -0.4964  0.0691 -0.1595
  981MOL0     C32367   6.607   7.322   3.705  0.7661 -0.0700 -0.2932
  981MOL0     H32368   6.210   7.068   3.941 -3.2408 -2.2295  0.1774
  981MOL0     H32369   5.981   7.079   4.006  1.1639  1.0047  1.0291
  981MOL0     H32370   5.687   7.375   3.879 -2.7127  0.7106 -1.3444
  981MOL0     H32371   5.683   7.265   3.731 -0.8730 -0.5731  0.7925
  981MOL0     H32372   5.549   7.125   3.916 -1.6302 -0.8384 -3.5309
  981MOL0     H32373   5.529   7.275   3.994  3.2659 -1.1928  1.3698
  981MOL0     H32374   5.461   7.231   3.692 -2.3554  0.0119  0.2611
  981MOL0     H32375   5.342   7.191   3.804  0.6194 -2.7217 -1.9270
  981MOL0     H32376   5.403   7.432   3.928 -0.1064  1.4065 -0.9007
  981MOL0     H32377   5.479   7.461   3.774 -0.2365 -0.2609 -0.0285
  981MOL0     H32378   5.255   7.428   3.653  0.9946 -0.0742  0.4073
  981MOL0     H32379   5.178   7.359   3.798 -2.0132  2.9379  1.2205
  981MOL0     H32380   5.105   7.594   3.730  0.1323  1.0009 -0.3137
  981MOL0     H32381   5.135   7.569   3.899  3.6797  0.6690  1.3411
  981MOL0     H32382   5.205   7.778   3.836 -2.9057 -2.8137  1.3864
  981MOL0     H32383   5.343   7.683   3.882  0.5385  2.4464 -0.6254
  981MOL0     H32384   5.418   7.651   3.653 -0.9285  0.3890 -0.8636
  981MOL0     H32385   5.412   7.816   3.711 -1.5699  0.3290  1.7412
  981MOL0     H32386   5.182   7.973   3.655 -2.5267 -1.8429  0.2536
  981MOL0     H32387   4.948   8.027   3.496 -1.2296  5.2559 -1.7227
  981MOL0     H32388   5.068   8.089   3.406  0.2146 -0.2482  1.3714
  981MOL0     H32389   4.868   7.869   3.317  0.0390  1.9935  0.2522
  981MOL0     H32390   4.998   7.925   3.218 -2.2674  0.5167 -2.5623
  981MOL0     H32391   4.902   8.140   3.212  3.4710 -0.7512  2.8269
  981MOL0     H32392   4.800   8.124   3.352  0.9982 -0.6647  1.4482
  981MOL0     H32393   4.655   7.978   3.242  1.1077 -1.0809  0.6824
  981MOL0     H32394   4.758   7.972   3.090  1.9717 -0.0381  1.2153
  981MOL0     H32395   4.637   8.046   2.889 -1.1295  1.1954 -2.2655
  981MOL0     H32396   4.341   7.983   2.663  1.9517  0.1221 -2.1082
  981MOL0     H32397   4.511   8.004   2.664 -0.0961  0.6270  0.0713
  981MOL0     H32398   4.458   7.866   2.736 -0.9007 -0.4362 -0.4409
  981MOL0     H32399   3.850   8.107   2.944  0.1792 -0.1464 -0.2630
  981MOL0     H32400   3.642   8.055   2.820 -0.7675 -2.8221 -0.8472
  981MOL0     H32401   3.674   8.188   2.374 -0.5868  1.3261  1.4690
  981MOL0     H32402   3.695   8.009   2.369  1.3924 -0.9405  2.3576
  981MOL0     H32403   3.422   8.163   2.367  0.1154 -0.2076  2.1702
  981MOL0     H32404   3.504   8.088   2.229  3.7344  2.3710  1.2292
  981MOL0     H32405   3.353   7.956   2.461 -0.0513 -1.4197 -0.6518
  981MOL0     H32406   3.503   7.880   2.385 -0.9637 -1.0268 -0.8652
  981MOL0     H32407   3.237   7.978   2.263  0.3563 -0.7657 -0.7194
  981MOL0     H32408   3.362   7.906   2.176  0.1776  1.9856 -0.1230
  981MOL0     H32409   3.335   7.701   2.337 -0.9045 -0.2326  1.1844
  981MOL0     H32410   3.195   7.720   2.236 -1.9656  0.0765  0.4883
  981MOL0     H32411   3.212   7.835   2.532 -0.1835  2.3472 -1.3973
  981MOL0     H32412   3.082   7.842   2.430  1.8164  2.7392 -0.1115
  981MOL0     H32413   3.062   7.587   2.426  0.1459 -1.8650  0.3086
  981MOL0     H32414   3.053   7.647   2.592 -1.0448 -3.1478 -0.1983
  981MOL0     H32415   3.277   7.594   2.640  0.1764 -2.1319  0.2748
  981MOL0     H32416   3.305   7.532   2.482  0.6156 -3.8068  1.4427
  981MOL0     H32417   3.881   8.078   2.448 -0.0337  0.4044  0.2241
  981MOL0     H32418   4.066   8.129   2.573 -0.6515  0.4631 -1.6857
  981MOL0     H32419   4.201   8.161   3.102  0.7395 -0.0011  0.9694
  981MOL0     H32420   4.406   8.221   3.205 -0.9643  0.9110 -0.4740
  981MOL0     H32421   5.910   7.409   3.752  3.0045  2.7717  1.4889
  981MOL0     H32422   6.149   7.433   3.714 -1.6363  0.0129 -1.3587
  981MOL0     H32423   6.664   7.004   3.800 -0.7991  0.9214  1.6406
  981MOL0     H32424   6.895   7.077   3.766 -0.9938 -0.5836 -1.0245
  981MOL0     H32425   7.094   7.276   3.503 -1.4614 -0.7041 -0.7401
  981MOL0     H32426   6.928   7.341   3.483 -1.9992 -3.4944  2.3421
  981MOL0     H32427   7.001   7.544   3.597 -1.5467 -1.6964  3.3107
  981MOL0     H32428   7.108   7.496   3.462 -2.5163 -0.2961  0.8876
  981MOL0     H32429   7.276   7.393   3.612  0.8162  1.9397 -2.9221
  981MOL0     H32430   7.181   7.438   3.755 -0.0664 -1.1105 -0.6123
  981MOL0     H32431   7.167   7.678   3.681 -0.0631 -0.6911  0.6283
  981MOL0     H32432   7.277   7.653   3.549 -4.5573  0.6862 -0.8518
  981MOL0     H32433   7.544   7.704   3.869  0.8484  0.6264 -0.8261
  981MOL0     H32434   6.769   7.458   3.647  2.6366 -0.3891  0.6362
  981MOL0     H32435   6.526   7.389   3.679  3.1244  3.3882  0.6651
  982MOL0     O32436   8.536   4.452   7.723  0.9441 -0.1691 -0.1559
  982MOL0     C32437   8.435   4.484   7.793  0.0669 -0.2402 -0.0208
  982MOL0     O32438   8.411   4.606   7.840  0.5085 -0.2655  0.5884
  982MOL0     C32439   8.484   4.700   7.792  0.2077 -0.0728  0.8012
  982MOL0     C32440   8.615   4.721   7.833  0.1484  0.3442  0.2553
  982MOL0     C32441   8.700   4.811   7.766  0.2145 -0.1012 -0.7928
  982MOL0     C32442   8.651   4.903   7.672  0.1509  0.8816  0.0977
  982MOL0     O32443   8.743   4.975   7.605 -0.2673 -0.7827  0.3065
  982MOL0     C32444   8.706   5.023   7.475 -0.1224 -0.1923  0.0446
  982MOL0     C32445   8.824   5.073   7.396 -0.9618 -1.4172 -0.6592
  982MOL0     C32446   8.932   4.974   7.356  0.2816 -0.9440  0.4759
  982MOL0     C32447   8.871   4.863   7.269 -0.2757  0.0404  0.5503
  982MOL0     C32448   8.958   4.761   7.195  0.0506  1.1356  0.0393
  982MOL0     C32449   9.054   4.825   7.101  0.1522 -0.7643  0.2720
  982MOL0     C32450   9.150   4.740   7.029 -0.3624  0.9302  0.3610
  982MOL0     C32451   9.239   4.655   7.119 -0.3438  0.2107  0.0338
  982MOL0     N32452   9.325   4.740   7.200 -0.3033  0.2453  0.1881
  982MOL0     C32453   9.421   4.819   7.144  0.5910 -0.3927 -0.2751
  982MOL0     C32454   9.490   4.871   7.252  0.4220  0.3456 -0.2957
  982MOL0     C32455   9.620   4.958   7.259  0.5690 -0.2093 -0.5718
  982MOL0     C32456   9.596   5.094   7.333  0.6272 -0.2782  0.4645
  982MOL0     C32457   9.718   5.181   7.310 -0.3598  0.3212  0.0103
  982MOL0     C32458   9.698   5.320   7.361 -1.2219 -0.5237  0.0218
  982MOL0     O32459   9.646   5.316   7.492  0.3126  0.0983  0.6009
  982MOL0     C32460   9.575   5.418   7.547  0.3960  0.5209 -0.8955
  982MOL0     C32461   9.516   5.399   7.676  0.0035  0.0312  0.7745
  982MOL0     C32462   9.461   5.512   7.741  0.4280 -0.2327 -0.3780
  982MOL0     C32463   9.413   5.497   7.882 -0.0691 -0.2036  0.4169
  982MOL0     C32464   9.458   5.642   7.678  0.3388  0.2666 -0.5827
  982MOL0     C32465   9.406   5.768   7.738  0.0445  0.0355  0.1956
  982MOL0     O32466   9.432   5.889   7.671  0.2250  0.5794  0.2401
  982MOL0     C32467   9.406   6.013   7.725  0.4948  0.1575  0.1744
  982MOL0     C32468   9.472   6.049   7.849  0.8962  1.3146 -0.0739
  982MOL0     C32469   9.441   6.166   7.905 -0.5647 -1.2456 -0.0088
  982MOL0     C32470   9.367   6.259   7.844  0.7186  0.0068 -0.0222
  982MOL0     O32471   9.365   6.378   7.914 -0.2473  0.6150 -0.8773
  982MOL0     C32472   9.287   6.370   8.043 -1.0055 -0.8653  0.4876
  982MOL0     C32473   9.329   6.488   8.126 -0.3610 -0.1851 -0.7280
  982MOL0     C32474   9.235   6.505   8.260  0.0923 -0.5896  0.2770
  982MOL0     C32475   9.270   6.640   8.340 -0.3116 -0.1800 -0.1841
  982MOL0     C32476   9.200   6.655   8.479  0.1035  0.4733 -0.0195
  982MOL0     C32477   9.053   6.699   8.483  0.0653 -0.5545  0.5088
  982MOL0     C32478   9.025   6.855   8.453 -0.4546 -0.5701 -0.3394
  982MOL0     C32479   8.881   6.894   8.455 -0.4738  0.0074 -0.1993
  982MOL0    Cl32480   8.828   6.921   8.627  0.5044  0.0293 -0.5659
  982MOL0     C32481   9.319   6.231   7.717  0.0301 -0.5445  0.2782
  982MOL0     C32482   9.333   6.109   7.655  0.2863  0.4139 -0.0327
  982MOL0     O32483   9.335   5.763   7.839  0.6344 -0.1540 -0.3685
  982MOL0     C32484   9.506   5.650   7.544 -0.7739  1.0748  0.5970
  982MOL0     C32485   9.562   5.537   7.484 -0.2905 -0.8231 -0.3066
  982MOL0     N32486   9.429   4.827   7.365  0.4100 -0.2571 -0.5552
  982MOL0     N32487   9.333   4.745   7.335 -0.6606  0.2061  0.0584
  982MOL0     C32488   8.515   4.888   7.637 -0.6532 -0.0963  0.6682
  982MOL0     C32489   8.431   4.785   7.695 -0.1854 -0.5014 -0.1411
  982MOL0     C32490   8.342   4.375   7.817  0.5354  0.5573  0.4852
  982MOL0     C32491   8.393   4.254   7.866 -0.0308  1.0245  0.1432
  982MOL0     C32492   8.305   4.155   7.901 -1.0731 -0.6710 -0.0727
  982MOL0     C32493   8.167   4.177   7.884 -0.8302  1.0618  0.0389
  982MOL0     O32494   8.090   4.068   7.921 -0.3771 -0.1957  0.0802
  982MOL0     C32495   7.944   4.092   7.924 -0.6069  0.2049  0.6368
  982MOL0     C32496   7.889   4.146   8.058  0.8356  0.6974  0.4564
  982MOL0     C32497   7.903   4.051   8.187 -0.4419 -0.0858  0.0574
  982MOL0     C32498   7.783   3.957   8.220  0.2544 -0.5333 -0.1823
  982MOL0     C32499   7.666   4.034   8.266  0.2509 -0.0565  0.5865
  982MOL0     C32500   7.575   4.101   8.313  0.5102 -0.8315 -0.0077
  982MOL0     C32501   8.122   4.300   7.837  0.4326 -1.0397  0.8468
  982MOL0     C32502   8.208   4.402   7.798  0.0464 -0.2762 -0.0547
  982MOL0     H32503   8.648   4.674   7.925 -2.0523 -1.0537  0.3836
  982MOL0     H32504   8.807   4.821   7.780  0.1914 -0.1696 -0.5500
  982MOL0     H32505   8.662   4.938   7.422  0.7630 -0.3443 -0.4694
  982MOL0     H32506   8.627   5.097   7.486  0.4600  0.3000  1.0333
  982MOL0     H32507   8.787   5.118   7.303 -0.6878  0.4585  0.1143
  982MOL0     H32508   8.869   5.155   7.453  2.9268 -2.6403 -1.6411
  982MOL0     H32509   9.004   5.034   7.300 -0.1382  0.1068  1.0445
  982MOL0     H32510   8.974   4.926   7.445 -1.2240 -3.9918 -0.3150
  982MOL0     H32511   8.799   4.805   7.328  0.8236  1.0817  3.0462
  982MOL0     H32512   8.822   4.915   7.187  0.2068  0.4161  0.4996
  982MOL0     H32513   9.015   4.699   7.265  1.1279  1.8799 -0.1524
  982MOL0     H32514   8.898   4.694   7.134  1.7197  0.1962 -0.6281
  982MOL0     H32515   8.984   4.882   7.040 -0.1060 -0.5763  0.7374
  982MOL0     H32516   9.121   4.895   7.152  1.2853  0.1527 -2.3011
  982MOL0     H32517   9.091   4.673   6.965  0.8197  1.5193 -1.4076
  982MOL0     H32518   9.210   4.804   6.964 -0.8191 -0.7433 -1.8209
  982MOL0     H32519   9.304   4.599   7.051 -0.5748 -1.3083  1.0099
  982MOL0     H32520   9.193   4.586   7.190  3.7669 -1.2769  1.5726
  982MOL0     H32521   9.451   4.828   7.041 -1.8631  0.1845 -1.0201
  982MOL0     H32522   9.696   4.904   7.316  0.0751 -0.7069 -0.3789
  982MOL0     H32523   9.659   4.981   7.159  2.7941  0.1500  0.3206
  982MOL0     H32524   9.569   5.081   7.438 -0.5267 -1.1274  0.0895
  982MOL0     H32525   9.508   5.145   7.291  0.9679  0.9760  1.2244
  982MOL0     H32526   9.736   5.185   7.202  2.1154  0.2278  0.3720
  982MOL0     H32527   9.810   5.135   7.345  0.0254 -0.2141 -1.6233
  982MOL0     H32528   9.638   5.380   7.292  0.5500  2.2211  0.7046
  982MOL0     H32529   9.800   5.359   7.357 -1.9143  1.4218  0.3357
  982MOL0     H32530   9.522   5.302   7.724  0.3285  0.6221  1.9633
  982MOL0     H32531   9.310   5.533   7.889 -0.6350 -1.9465  1.5379
  982MOL0     H32532   9.414   5.391   7.908  0.8898 -0.4195 -0.4235
  982MOL0     H32533   9.475   5.557   7.949 -0.9905  0.8088  0.3985
  982MOL0     H32534   9.556   5.991   7.887 -0.3548  0.5023  1.6200
  982MOL0     H32535   9.499   6.198   7.991 -0.3625 -1.9907  0.1422
  982MOL0     H32536   9.184   6.392   8.013 -0.7181  0.4722  0.3948
  982MOL0     H32537   9.293   6.273   8.094 -0.8431 -0.3318  1.5242
  982MOL0     H32538   9.433   6.480   8.155 -0.1402 -0.8235 -1.6443
  982MOL0     H32539   9.315   6.581   8.070 -1.7395  0.2367  0.2390
  982MOL0     H32540   9.263   6.428   8.332  0.2746  0.3858  1.2735
  982MOL0     H32541   9.129   6.507   8.234 -0.1985 -2.6385  1.1276
  982MOL0     H32542   9.379   6.644   8.348  0.1403 -3.7414 -2.1987
  982MOL0     H32543   9.240   6.724   8.277  2.9054 -0.6348 -2.6302
  982MOL0     H32544   9.248   6.731   8.542 -0.8652  0.7609  0.3938
  982MOL0     H32545   9.214   6.565   8.539  1.7608  1.5848  1.3407
  982MOL0     H32546   8.988   6.625   8.435 -0.9692  1.4022 -1.2603
  982MOL0     H32547   9.014   6.682   8.584  0.1767 -1.4111  0.4126
  982MOL0     H32548   9.054   6.876   8.350 -0.0981  0.0185 -0.1196
  982MOL0     H32549   9.054   6.940   8.514 -0.2159  1.1751 -2.7383
  982MOL0     H32550   8.827   6.812   8.406 -0.6648 -1.8016  2.7631
  982MOL0     H32551   8.857   6.984   8.398  0.8268  1.2196  1.1039
  982MOL0     H32552   9.282   6.317   7.663  2.4505 -0.5014 -1.4548
  982MOL0     H32553   9.305   6.082   7.553 -0.6068 -0.1594  0.3567
  982MOL0     H32554   9.524   5.744   7.493  3.0142 -0.0035 -0.3580
  982MOL0     H32555   9.603   5.544   7.384 -1.1362 -0.4842 -0.6424
  982MOL0     H32556   8.478   4.952   7.557  0.9895 -1.3109 -1.1502
  982MOL0     H32557   8.325   4.788   7.672 -0.1724  2.0358 -0.2028
  982MOL0     H32558   8.498   4.231   7.884  0.4433  0.6989 -2.5903
  982MOL0     H32559   8.344   4.068   7.954 -1.0111 -1.1784 -0.9171
  982MOL0     H32560   7.905   4.144   7.836  0.4081 -2.2182 -1.4034
  982MOL0     H32561   7.905   3.990   7.916  2.3135 -1.0653  1.0863
  982MOL0     H32562   7.784   4.176   8.054 -0.2691 -2.1095  3.4729
  982MOL0     H32563   7.933   4.246   8.066  2.0107  0.2365 -0.0866
  982MOL0     H32564   7.916   4.122   8.270 -1.8062  1.3487 -0.8945
  982MOL0     H32565   8.001   4.003   8.182  0.9490  2.4091  1.2992
  982MOL0     H32566   7.808   3.879   8.292  0.4148 -2.0770 -1.8418
  982MOL0     H32567   7.765   3.911   8.123  1.0576  1.2666 -1.2493
  982MOL0     H32568   7.486   4.151   8.344  0.1164 -0.3833 -1.7344
  982MOL0     H32569   8.018   4.330   7.831  1.0939  1.1918 -0.3598
  982MOL0     H32570   8.181   4.501   7.763  2.6705  0.2956 -0.6905
  983MOL0     O32571  10.166   5.486   3.511 -0.2709  0.5410  0.3487
  983MOL0     C32572  10.143   5.432   3.620  1.0170  0.4248  0.4168
  983MOL0     O32573  10.025   5.434   3.697  0.0040 -0.4879 -0.2122
  983MOL0     C32574   9.924   5.505   3.649  0.0703  0.1775 -0.3371
  983MOL0     C32575   9.924   5.620   3.561  0.1030 -0.9106 -0.8833
  983MOL0     C32576   9.815   5.692   3.535  0.5596  0.2403 -0.3518
  983MOL0     C32577   9.690   5.635   3.569  0.2402  0.5568  0.4557
  983MOL0     O32578   9.568   5.700   3.544 -0.2793  0.2112 -0.8474
  983MOL0     C32579   9.569   5.785   3.437 -0.4342 -0.5958  0.2553
  983MOL0     C32580   9.422   5.789   3.387  0.2697  0.3443 -0.0969
  983MOL0     C32581   9.383   5.649   3.331 -0.2396  0.5633 -0.6897
  983MOL0     C32582   9.244   5.649   3.293 -0.2655  0.1901  0.4422
  983MOL0     C32583   9.234   5.673   3.143  0.4770  0.2677  0.5347
  983MOL0     C32584   9.098   5.724   3.102 -0.0356  0.9121 -0.1733
  983MOL0     C32585   9.061   5.860   3.165 -0.5553  0.0511  0.4085
  983MOL0     C32586   8.948   5.941   3.108 -0.2088 -0.2441  0.0489
  983MOL0     N32587   8.810   5.882   3.130  0.4380  0.1196 -0.0078
  983MOL0     C32588   8.757   5.783   3.050 -0.1535 -1.3046  0.2224
  983MOL0     C32589   8.632   5.767   3.095  0.0156 -0.3555 -0.3569
  983MOL0     C32590   8.526   5.674   3.034 -0.6437  0.2723 -0.4633
  983MOL0     C32591   8.427   5.736   2.932 -0.7386 -1.2411 -0.3981
  983MOL0     C32592   8.319   5.633   2.886  0.1820 -0.4471 -0.8614
  983MOL0     C32593   8.224   5.713   2.794 -0.0427 -1.1094 -0.3795
  983MOL0     O32594   8.129   5.621   2.733 -0.2470  0.4432  0.0682
  983MOL0     C32595   8.002   5.659   2.700 -0.0771 -0.4968 -0.2572
  983MOL0     C32596   7.908   5.558   2.678  0.2638 -0.4456  0.1311
  983MOL0     C32597   7.773   5.590   2.635 -0.6255  0.2462  0.1932
  983MOL0     C32598   7.674   5.476   2.598  0.0216  0.0438 -1.1465
  983MOL0     C32599   7.734   5.726   2.621 -0.2259 -0.1285  0.0404
  983MOL0     C32600   7.598   5.777   2.581 -1.3002 -0.4150 -0.8725
  983MOL0     O32601   7.591   5.852   2.472  0.1196  0.1167  0.5172
  983MOL0     C32602   7.475   5.915   2.428  1.3168  0.7946 -0.1162
  983MOL0     C32603   7.362   5.837   2.403 -0.2593 -0.1258 -0.1412
  983MOL0     C32604   7.252   5.897   2.351  0.8084  0.1466 -0.1873
  983MOL0     C32605   7.245   6.034   2.326 -0.6798  0.6485 -0.4869
  983MOL0     O32606   7.140   6.107   2.277  0.4505 -0.5085  0.8823
  983MOL0     C32607   7.010   6.033   2.273 -0.4856 -0.3428 -0.3678
  983MOL0     C32608   6.904   6.140   2.268 -0.5249 -0.9423  0.3000
  983MOL0     C32609   6.906   6.241   2.371 -0.3325  0.0099 -0.2723
  983MOL0     C32610   6.782   6.338   2.361 -0.4137  0.6916  0.3658
  983MOL0     C32611   6.664   6.296   2.444 -0.0199  0.8075 -0.4726
  983MOL0     C32612   6.554   6.400   2.414  0.0955 -0.6775 -0.0616
  983MOL0     C32613   6.424   6.343   2.472  0.4537  0.2741  0.2505
  983MOL0     C32614   6.310   6.445   2.479  0.0004 -0.0319 -0.2630
  983MOL0    Cl32615   6.219   6.467   2.326  0.1017 -0.4303 -0.0956
  983MOL0     C32616   7.351   6.115   2.343 -0.0735  0.3582 -0.0824
  983MOL0     C32617   7.469   6.049   2.387  0.1603 -0.8016 -0.4156
  983MOL0     O32618   7.509   5.743   2.656  0.8255 -0.0696 -0.1951
  983MOL0     C32619   7.834   5.819   2.634 -0.8054 -0.6264 -0.7281
  983MOL0     C32620   7.965   5.793   2.674  0.1385  0.5020 -0.2006
  983MOL0     N32621   8.610   5.870   3.196  0.6442  0.1002  0.4678
  983MOL0     N32622   8.715   5.935   3.214  0.5525  0.2338 -0.6980
  983MOL0     C32623   9.685   5.528   3.642 -0.5510  0.0199  0.0371
  983MOL0     C32624   9.802   5.469   3.700  0.2290  0.3993 -0.5683
  983MOL0     C32625  10.266   5.371   3.685  0.6416  0.6669  0.3306
  983MOL0     C32626  10.394   5.404   3.640  0.5819 -0.4642 -0.1788
  983MOL0     C32627  10.501   5.356   3.707  0.0439 -0.5886  0.7413
  983MOL0     C32628  10.487   5.271   3.822 -0.6723 -0.3014 -0.1199
  983MOL0     O32629  10.595   5.212   3.885 -0.4761  0.1770 -0.6183
  983MOL0     C32630  10.581   5.120   3.997  0.1762 -0.7449  0.3117
  983MOL0     C32631  10.713   5.122   4.068 -0.0480  0.1097  0.0348
  983MOL0     C32632  10.739   5.032   4.194 -0.0977  0.3266 -0.1999
  983MOL0     C32633  10.692   4.888   4.182  0.0888 -0.2853  0.2714
  983MOL0     C32634  10.733   4.812   4.301  0.2624  0.2285 -0.2043
  983MOL0     C32635  10.757   4.735   4.386  0.4353 -0.0646 -0.0700
  983MOL0     C32636  10.356   5.234   3.864 -0.1199 -0.2288  0.8707
  983MOL0     C32637  10.245   5.279   3.800 -0.7443  0.1334  0.6312
  983MOL0     H32638  10.012   5.669   3.521 -2.3248  2.7227 -2.1685
  983MOL0     H32639   9.822   5.787   3.484  0.0386  0.2530 -0.4108
  983MOL0     H32640   9.603   5.887   3.452 -1.1445 -0.6974  3.1990
  983MOL0     H32641   9.636   5.737   3.365  1.8091 -1.0031  2.5017
  983MOL0     H32642   9.363   5.812   3.476  2.5142 -1.1899  1.9089
  983MOL0     H32643   9.403   5.869   3.315  1.5410  0.6387 -0.1176
  983MOL0     H32644   9.446   5.613   3.250 -1.3881  0.8451 -1.7512
  983MOL0     H32645   9.386   5.594   3.425 -1.3156 -0.4663 -1.2281
  983MOL0     H32646   9.205   5.554   3.329 -0.7303  0.6288  1.1217
  983MOL0     H32647   9.197   5.731   3.348  1.1626  2.2553 -1.2508
  983MOL0     H32648   9.313   5.740   3.107 -0.6753  2.0919  1.2868
  983MOL0     H32649   9.240   5.575   3.094 -1.2682 -1.0213  2.7109
  983MOL0     H32650   9.090   5.740   2.994  0.0816 -2.0191 -0.7071
  983MOL0     H32651   9.022   5.648   3.123 -0.1176  0.8248 -0.7789
  983MOL0     H32652   9.039   5.854   3.272 -2.2123  1.8240  0.2260
  983MOL0     H32653   9.146   5.928   3.160 -0.2434 -0.0744  2.8632
  983MOL0     H32654   8.966   5.958   3.002 -0.0154  2.5936  0.4694
  983MOL0     H32655   8.949   6.038   3.159  0.2443 -0.5396  0.6094
  983MOL0     H32656   8.814   5.732   2.973  4.2520  1.4344  1.3342
  983MOL0     H32657   8.578   5.592   2.983 -0.1075 -0.2377  0.8613
  983MOL0     H32658   8.468   5.636   3.118 -0.8308  0.1572 -0.6407
  983MOL0     H32659   8.489   5.765   2.846  0.6617 -0.6335  0.7637
  983MOL0     H32660   8.367   5.819   2.969 -1.8138 -1.6908 -1.1037
  983MOL0     H32661   8.263   5.612   2.978 -1.5624 -1.6718 -2.1609
  983MOL0     H32662   8.362   5.541   2.847  1.5096  0.1646 -0.8990
  983MOL0     H32663   8.282   5.751   2.709 -0.8046 -0.0722 -0.4536
  983MOL0     H32664   8.174   5.800   2.838 -0.7340 -0.3521 -2.4910
  983MOL0     H32665   7.948   5.458   2.666 -1.7716 -1.3386  0.3632
  983MOL0     H32666   7.644   5.461   2.493 -0.8592 -2.2403 -0.6229
  983MOL0     H32667   7.720   5.381   2.623 -2.2215 -0.1819  3.0178
  983MOL0     H32668   7.577   5.477   2.650  0.2291  0.3149 -0.7576
  983MOL0     H32669   7.363   5.729   2.404  2.4587 -0.1661 -0.3377
  983MOL0     H32670   7.167   5.834   2.329  2.1334 -1.7922  0.0191
  983MOL0     H32671   7.003   5.952   2.199  0.3551 -1.2640  0.5159
  983MOL0     H32672   6.982   5.975   2.361  0.5615 -0.2545  0.0425
  983MOL0     H32673   6.917   6.189   2.171 -0.2150 -0.0672  0.7796
  983MOL0     H32674   6.808   6.088   2.260  0.1930 -2.0525 -2.0339
  983MOL0     H32675   6.994   6.305   2.361 -0.4265  0.6066  2.1010
  983MOL0     H32676   6.915   6.183   2.464 -0.2219 -0.6169 -0.6697
  983MOL0     H32677   6.816   6.434   2.400 -0.3381  0.6412  0.4282
  983MOL0     H32678   6.771   6.360   2.255 -0.7159 -0.3896  0.1550
  983MOL0     H32679   6.684   6.302   2.552  0.5259  1.2508 -0.5924
  983MOL0     H32680   6.637   6.196   2.409  2.8356  0.8893 -3.3473
  983MOL0     H32681   6.576   6.497   2.458 -0.6118  0.5063 -2.1770
  983MOL0     H32682   6.540   6.411   2.306  1.6020  3.5298 -0.0260
  983MOL0     H32683   6.450   6.301   2.569  3.7391  0.0422 -0.5980
  983MOL0     H32684   6.384   6.261   2.411  0.2195 -0.0255  0.8033
  983MOL0     H32685   6.358   6.540   2.500  0.6892 -0.0643 -1.5964
  983MOL0     H32686   6.241   6.415   2.558 -1.7351  0.2429 -1.6021
  983MOL0     H32687   7.340   6.221   2.320  2.0551  0.2792 -1.8318
  983MOL0     H32688   7.560   6.106   2.407 -0.0036 -0.2849 -1.1085
  983MOL0     H32689   7.812   5.925   2.621 -0.7216 -0.7020 -1.5312
  983MOL0     H32690   8.037   5.870   2.700 -1.2870  1.2221  1.7743
  983MOL0     H32691   9.587   5.494   3.674 -1.1206  1.7651  0.2897
  983MOL0     H32692   9.792   5.386   3.769  1.9232  1.7740  1.4493
  983MOL0     H32693  10.405   5.485   3.569 -0.7498 -1.2837 -1.3900
  983MOL0     H32694  10.596   5.389   3.665 -1.4928  1.1927 -1.6419
  983MOL0     H32695  10.503   5.157   4.065 -1.0338  0.2939 -1.5266
  983MOL0     H32696  10.551   5.022   3.958 -2.4828  0.1299 -0.0972
  983MOL0     H32697  10.716   5.222   4.112  0.3325 -1.1575  3.2335
  983MOL0     H32698  10.798   5.114   4.000 -0.8112 -0.2840 -0.8940
  983MOL0     H32699  10.693   5.077   4.283  1.0550 -1.1162  1.2077
  983MOL0     H32700  10.845   5.044   4.217 -0.3628  2.5182  0.0757
  983MOL0     H32701  10.742   4.840   4.098  2.5659 -0.7088  1.9010
  983MOL0     H32702  10.583   4.884   4.167  0.1985 -2.5683 -0.2831
  983MOL0     H32703  10.787   4.674   4.469  1.1740 -0.8590 -0.9030
  983MOL0     H32704  10.344   5.169   3.950  0.1839 -0.6037  0.6318
  983MOL0     H32705  10.147   5.248   3.834 -0.7380 -0.6766 -0.0562
  984MOL0     O32706   6.694   4.014   3.432 -0.1126  0.6676  0.2878
  984MOL0     C32707   6.748   3.903   3.420 -0.0458 -0.2355 -0.0975
  984MOL0     O32708   6.690   3.803   3.345 -0.0437 -0.6537  0.6144
  984MOL0     C32709   6.578   3.816   3.267  0.3153  0.8024 -0.4478
  984MOL0     C32710   6.492   3.715   3.285  0.1959 -0.1814  0.0342
  984MOL0     C32711   6.377   3.704   3.210 -0.2345 -0.7549  0.0624
  984MOL0     C32712   6.336   3.795   3.122  0.3668  0.4494  0.2156
  984MOL0     O32713   6.215   3.809   3.064 -0.4424  0.7613 -0.1796
  984MOL0     C32714   6.103   3.734   3.113  0.9094  0.8755 -0.7802
  984MOL0     C32715   5.969   3.792   3.072  0.7465  0.0416  1.1650
  984MOL0     C32716   5.929   3.823   2.930 -0.1986  0.1745 -0.1151
  984MOL0     C32717   5.787   3.888   2.924 -0.0945  0.4455  0.4570
  984MOL0     C32718   5.745   3.912   2.776  0.5190 -0.5216  0.1776
  984MOL0     C32719   5.596   3.964   2.776 -0.1866 -0.6630  0.2823
  984MOL0     C32720   5.545   3.986   2.632 -1.0241  0.1062 -0.4460
  984MOL0     C32721   5.422   4.071   2.618 -0.2961  0.6307 -0.0948
  984MOL0     N32722   5.314   3.999   2.690 -0.0431  0.0572  0.1752
  984MOL0     C32723   5.259   4.048   2.809 -0.1225  0.3467 -0.8832
  984MOL0     C32724   5.167   3.954   2.842  0.9243  0.5738  0.2808
  984MOL0     C32725   5.069   3.954   2.958  0.1772 -0.2730  0.5950
  984MOL0     C32726   4.937   4.035   2.934  0.1241 -0.7856  0.0815
  984MOL0     C32727   4.832   3.951   2.862 -1.0175  0.0026  0.3530
  984MOL0     C32728   4.695   4.017   2.833 -0.8020 -0.0112  0.9133
  984MOL0     O32729   4.643   4.048   2.962 -0.2824 -0.2782 -0.5471
  984MOL0     C32730   4.506   4.038   2.986 -0.1335 -0.0067 -0.9456
  984MOL0     C32731   4.406   4.073   2.897 -0.4193 -0.1505 -0.5093
  984MOL0     C32732   4.267   4.089   2.925 -0.4905 -0.9542 -0.1915
  984MOL0     C32733   4.177   4.110   2.805 -0.3765  0.3709  0.3274
  984MOL0     C32734   4.225   4.052   3.058  0.6300 -0.4875 -0.1617
  984MOL0     C32735   4.083   4.060   3.107  0.0198 -0.1348  0.8799
  984MOL0     O32736   3.986   4.063   3.008 -0.3221 -0.7030  0.8105
  984MOL0     C32737   3.852   4.068   3.035  0.0937 -0.7173  0.4777
  984MOL0     C32738   3.798   3.960   3.107  1.2065 -0.7099 -0.1672
  984MOL0     C32739   3.660   3.955   3.129  0.4220 -0.1275 -0.5013
  984MOL0     C32740   3.574   4.048   3.078 -0.2415 -0.8535  0.6061
  984MOL0     O32741   3.440   4.019   3.098 -0.0246  0.2198 -0.0236
  984MOL0     C32742   3.334   4.101   3.024  0.0499 -0.0900  0.3839
  984MOL0     C32743   3.207   4.035   3.050 -0.7776 -0.2368  0.0415
  984MOL0     C32744   3.089   4.131   3.037  0.1827 -1.0782  0.0294
  984MOL0     C32745   2.951   4.061   3.040  0.4073 -0.2579 -0.1427
  984MOL0     C32746   2.846   4.163   3.009  0.5276  0.3435 -0.1310
  984MOL0     C32747   2.698   4.106   3.036  0.5409 -0.3779  0.1478
  984MOL0     C32748   2.664   4.103   3.182  0.3887  0.3598 -0.1026
  984MOL0     C32749   2.518   4.092   3.216 -0.3567  0.1077  0.4916
  984MOL0    Cl32750   2.471   4.088   3.393  0.0549 -0.1027 -0.2711
  984MOL0     C32751   3.625   4.164   3.004  0.8878 -0.1170  0.4675
  984MOL0     C32752   3.765   4.169   2.991  0.0887  0.6833  0.0183
  984MOL0     O32753   4.061   4.089   3.224 -0.2514 -0.4278 -0.3612
  984MOL0     C32754   4.327   4.024   3.149  0.4043  0.4077 -0.1216
  984MOL0     C32755   4.463   4.017   3.117  0.0280 -0.4508  0.0293
  984MOL0     N32756   5.161   3.857   2.740  0.3523 -0.4822 -0.0939
  984MOL0     N32757   5.246   3.890   2.645  0.5925  0.3546 -0.4348
  984MOL0     C32758   6.427   3.895   3.083  1.0245 -0.1478  0.0366
  984MOL0     C32759   6.550   3.899   3.158 -0.0131  0.4056  0.6302
  984MOL0     C32760   6.877   3.887   3.483 -0.5417 -0.4285  0.9164
  984MOL0     C32761   6.937   3.991   3.556 -0.5888 -0.4823 -0.3352
  984MOL0     C32762   7.052   3.968   3.628 -0.5488 -0.0028  0.5721
  984MOL0     C32763   7.105   3.837   3.634 -0.2213  0.4770  0.3763
  984MOL0     O32764   7.218   3.810   3.713  0.9158  0.0409  0.5551
  984MOL0     C32765   7.311   3.913   3.740  0.2161  0.6301  0.0125
  984MOL0     C32766   7.432   3.860   3.814 -0.2431 -0.3627 -0.1851
  984MOL0     C32767   7.402   3.782   3.940  1.3752  0.6209 -0.2645
  984MOL0     C32768   7.314   3.654   3.938  0.0889  0.1443 -0.1164
  984MOL0     C32769   7.364   3.547   4.027  0.0882 -0.4286  0.3432
  984MOL0     C32770   7.388   3.451   4.100  0.7550 -0.1294 -0.5942
  984MOL0     C32771   7.056   3.737   3.553  0.5072  0.2832 -0.0862
  984MOL0     C32772   6.935   3.759   3.481  0.4607  0.1848  0.4655
  984MOL0     H32773   6.510   3.642   3.364  0.0151  1.0562  1.2520
  984MOL0     H32774   6.302   3.631   3.239 -1.8341 -0.0764 -2.0926
  984MOL0     H32775   6.108   3.631   3.078  0.6379  0.4273  0.4519
  984MOL0     H32776   6.103   3.724   3.222 -1.6460 -1.9518 -0.9040
  984MOL0     H32777   5.884   3.740   3.117 -1.6907 -0.1529 -3.0946
  984MOL0     H32778   5.982   3.895   3.106 -1.2477  0.7952 -0.1926
  984MOL0     H32779   6.011   3.879   2.884  1.5341 -3.4016 -1.7592
  984MOL0     H32780   5.938   3.730   2.872  1.6079  0.0531  0.3144
  984MOL0     H32781   5.720   3.816   2.972  2.8574 -2.7486  0.1706
  984MOL0     H32782   5.793   3.977   2.989  0.7192 -0.2598  1.3749
  984MOL0     H32783   5.818   3.984   2.737 -1.2978  0.7366 -1.0709
  984MOL0     H32784   5.752   3.821   2.715 -3.7336 -0.4167 -0.7793
  984MOL0     H32785   5.528   3.891   2.821 -0.3545 -1.3182 -0.9866
  984MOL0     H32786   5.580   4.059   2.828 -0.3929  0.7754 -2.2774
  984MOL0     H32787   5.620   4.036   2.570 -1.9653 -0.1389 -1.8126
  984MOL0     H32788   5.524   3.885   2.596  0.4892  0.0086 -1.1195
  984MOL0     H32789   5.387   4.067   2.514  0.7628  1.0143 -0.4763
  984MOL0     H32790   5.453   4.168   2.658  0.4915 -0.0019  0.8651
  984MOL0     H32791   5.261   4.148   2.849  0.7158  1.4143 -3.3994
  984MOL0     H32792   5.034   3.853   2.981  1.3113 -0.3485  2.2173
  984MOL0     H32793   5.121   3.984   3.050 -1.2128 -2.8630  2.3634
  984MOL0     H32794   4.967   4.118   2.868  2.1146 -0.5357  1.2120
  984MOL0     H32795   4.894   4.074   3.027  2.8540  0.1834  1.0394
  984MOL0     H32796   4.813   3.860   2.919 -0.2513  0.3178  1.1391
  984MOL0     H32797   4.863   3.927   2.760 -2.5046 -0.9061  0.0743
  984MOL0     H32798   4.629   3.939   2.794  0.7810 -1.2204  0.5838
  984MOL0     H32799   4.695   4.103   2.764  0.2038 -0.6177  0.1355
  984MOL0     H32800   4.441   4.097   2.797  1.8193  0.3222  0.3425
  984MOL0     H32801   4.103   4.189   2.820 -0.3986  0.1529  1.4971
  984MOL0     H32802   4.236   4.139   2.718 -0.4316 -1.5080 -0.3881
  984MOL0     H32803   4.118   4.024   2.772  0.2940  0.3992 -1.0111
  984MOL0     H32804   3.865   3.881   3.140 -0.2763 -2.3209 -0.8499
  984MOL0     H32805   3.614   3.873   3.184  0.5811 -0.8842 -1.4803
  984MOL0     H32806   3.336   4.196   3.078 -0.5149 -0.3393  0.8551
  984MOL0     H32807   3.364   4.106   2.918 -0.2456  1.3143  0.3463
  984MOL0     H32808   3.189   3.951   2.982 -0.7019  0.0251 -0.3004
  984MOL0     H32809   3.208   4.002   3.155 -2.7793 -0.4714  0.0222
  984MOL0     H32810   3.105   4.194   2.949  1.7228 -1.1221  0.2501
  984MOL0     H32811   3.092   4.202   3.121  0.7273  1.1837 -1.7807
  984MOL0     H32812   2.945   3.981   2.965  0.4761 -0.9708  0.6046
  984MOL0     H32813   2.944   4.012   3.137  0.4310 -0.1173 -0.0685
  984MOL0     H32814   2.849   4.199   2.906 -0.7035  2.7955  0.6142
  984MOL0     H32815   2.843   4.250   3.076 -0.2956 -1.2001  1.9654
  984MOL0     H32816   2.628   4.176   2.991  1.0716  0.3430  0.4208
  984MOL0     H32817   2.691   4.006   2.991  1.7557  0.9712 -3.4104
  984MOL0     H32818   2.713   4.189   3.228  1.3191 -1.4812  2.5889
  984MOL0     H32819   2.704   4.011   3.224 -0.4771 -0.8441 -1.7820
  984MOL0     H32820   2.474   4.010   3.159  0.6347  0.8752 -1.5289
  984MOL0     H32821   2.471   4.184   3.179 -0.3497  2.1143  4.9134
  984MOL0     H32822   3.567   4.245   2.961  0.7094 -0.0475  0.8349
  984MOL0     H32823   3.801   4.252   2.931 -2.0558  1.3180 -0.4923
  984MOL0     H32824   4.303   3.992   3.250  2.8117 -0.9826  0.0998
  984MOL0     H32825   4.533   4.006   3.200  1.2254 -0.3328 -0.9341
  984MOL0     H32826   6.401   3.970   3.009  1.6074  0.6514  0.6274
  984MOL0     H32827   6.631   3.963   3.125 -0.4045  0.3904 -0.3839
  984MOL0     H32828   6.895   4.091   3.558  0.1327 -0.1875  1.0756
  984MOL0     H32829   7.093   4.057   3.674 -1.3105  1.3601 -1.2170
  984MOL0     H32830   7.350   3.954   3.646  2.9928 -2.5755 -0.4049
  984MOL0     H32831   7.264   3.992   3.799  0.5412  0.4893  0.4635
  984MOL0     H32832   7.506   3.933   3.849 -0.8265  1.0334 -1.7000
  984MOL0     H32833   7.491   3.798   3.747  0.2132 -0.6421  0.4661
  984MOL0     H32834   7.359   3.854   4.010 -1.7176 -1.7412  0.5317
  984MOL0     H32835   7.494   3.747   3.988  0.9539 -1.1991 -0.6941
  984MOL0     H32836   7.302   3.623   3.834  0.8198  0.8237 -0.4200
  984MOL0     H32837   7.215   3.687   3.972  0.1515  0.2992 -0.0793
  984MOL0     H32838   7.392   3.375   4.174  1.1391  0.2938 -0.1719
  984MOL0     H32839   7.116   3.648   3.534  1.7831  0.2122  3.4830
  984MOL0     H32840   6.896   3.677   3.422 -0.2643  0.6073  0.3457
  985MOL0     O32841   9.422   3.209   7.273  0.0271 -0.0088  0.1198
  985MOL0     C32842   9.491   3.257   7.356 -0.5575 -0.8817 -0.5692
  985MOL0     O32843   9.626   3.257   7.358 -0.8775 -0.8010 -0.1518
  985MOL0     C32844   9.708   3.195   7.255  0.5961 -0.0767 -0.7828
  985MOL0     C32845   9.835   3.166   7.285 -0.6655 -0.4435  0.6206
  985MOL0     C32846   9.932   3.138   7.184 -0.2059 -0.8623  0.7104
  985MOL0     C32847   9.897   3.120   7.053  0.0844  0.7647 -0.8105
  985MOL0     O32848   9.994   3.090   6.962  0.3037 -0.6276 -0.0217
  985MOL0     C32849   9.957   3.052   6.825  0.0061 -0.2149 -0.0272
  985MOL0     C32850  10.084   3.045   6.744 -0.3829 -0.4895  0.0017
  985MOL0     C32851  10.169   2.920   6.778  0.5847  0.8554 -0.0255
  985MOL0     C32852  10.261   2.869   6.661  1.1217 -0.6057 -1.1252
  985MOL0     C32853  10.324   2.737   6.667 -0.1259  0.0457  0.7553
  985MOL0     C32854  10.469   2.728   6.615  0.4669 -0.4726 -0.7393
  985MOL0     C32855  10.521   2.583   6.617  0.3892 -0.3482  0.4742
  985MOL0     C32856  10.664   2.554   6.571  0.1511  0.3141 -0.3051
  985MOL0     N32857  10.765   2.625   6.651  0.4955  0.4756 -0.0045
  985MOL0     C32858  10.775   2.621   6.783 -1.1992  0.0987  0.1184
  985MOL0     C32859  10.870   2.721   6.807 -0.4647 -0.2708 -0.2585
  985MOL0     C32860  10.921   2.750   6.942  0.7540  0.6093 -0.1397
  985MOL0     C32861  11.021   2.639   6.967 -0.0392 -0.3811 -0.0958
  985MOL0     C32862  11.157   2.673   6.904  0.6162 -0.3502  0.4127
  985MOL0     C32863  11.268   2.582   6.954  0.3178  0.6540 -0.2725
  985MOL0     O32864  11.272   2.454   6.877 -0.0982 -0.2050  0.2429
  985MOL0     C32865  11.376   2.367   6.908 -1.2845 -0.5632  0.1458
  985MOL0     C32866  11.434   2.304   6.799  0.3705 -0.0221  0.3715
  985MOL0     C32867  11.538   2.218   6.807 -1.3337 -0.0393 -0.6636
  985MOL0     C32868  11.623   2.180   6.682 -1.0221 -0.3759 -0.6279
  985MOL0     C32869  11.582   2.180   6.943 -0.6736 -0.5843  0.1806
  985MOL0     C32870  11.704   2.104   6.960 -0.1244 -0.0401 -0.6524
  985MOL0     O32871  11.795   2.139   7.054  0.1269  0.2076 -0.1218
  985MOL0     C32872  11.923   2.093   7.047  0.7826 -0.4282 -0.0400
  985MOL0     C32873  12.025   2.179   7.023 -0.0029 -0.6775  1.8097
  985MOL0     C32874  12.157   2.141   7.024 -0.0632  0.7726  0.4268
  985MOL0     C32875  12.189   2.019   7.067  0.4216 -0.1843 -0.3851
  985MOL0     O32876  12.325   1.994   7.077 -0.3608  0.8318 -0.3729
  985MOL0     C32877  12.362   1.877   7.148 -0.0217 -0.4776  0.6062
  985MOL0     C32878  12.517   1.886   7.180  1.2711 -1.0134 -0.5295
  985MOL0     C32879  12.555   2.020   7.245  0.1251 -0.3782 -0.2649
  985MOL0     C32880  12.702   2.032   7.275 -0.1384  0.6027  0.6261
  985MOL0     C32881  12.751   2.162   7.338  1.0685 -0.2704  0.3983
  985MOL0     C32882  12.883   2.207   7.279 -1.0790  0.4896 -0.1201
  985MOL0     C32883  12.996   2.115   7.306 -0.2049  0.6083 -0.1721
  985MOL0     C32884  13.052   2.129   7.439 -0.7841 -0.8775 -0.1747
  985MOL0    Cl32885  12.962   2.026   7.547  0.5143  0.0560  0.1092
  985MOL0     C32886  12.092   1.922   7.078 -0.5600 -0.8093  0.1238
  985MOL0     C32887  11.956   1.958   7.080  0.8164 -0.5039 -0.1094
  985MOL0     O32888  11.714   2.004   6.884  0.2697  0.0520 -0.1900
  985MOL0     C32889  11.517   2.240   7.055 -0.1888  0.2018  0.1073
  985MOL0     C32890  11.418   2.342   7.035 -0.3409  0.5162 -0.1884
  985MOL0     N32891  10.905   2.779   6.689  1.0641  0.0267  0.8473
  985MOL0     N32892  10.837   2.723   6.594  0.5822  0.5365 -1.0625
  985MOL0     C32893   9.760   3.131   7.024 -0.3851  0.3973 -0.5469
  985MOL0     C32894   9.667   3.172   7.121 -0.6451  0.9373 -0.3603
  985MOL0     C32895   9.426   3.290   7.485 -1.2277 -0.7257 -0.1513
  985MOL0     C32896   9.512   3.344   7.585 -0.1882  0.2905  0.0076
  985MOL0     C32897   9.455   3.378   7.706 -0.7146  0.0792 -0.1222
  985MOL0     C32898   9.325   3.362   7.730 -0.0439  0.7141 -0.3111
  985MOL0     O32899   9.282   3.390   7.860  0.0727  0.4845  0.0124
  985MOL0     C32900   9.162   3.476   7.874  1.3036  0.6437 -0.0938
  985MOL0     C32901   9.187   3.630   7.850 -0.5435 -0.9894  0.0582
  985MOL0     C32902   9.134   3.712   7.967 -0.2259  0.0144  0.3772
  985MOL0     C32903   8.989   3.693   7.971  0.8597 -0.1990  0.5994
  985MOL0     C32904   8.933   3.777   8.072  0.0120 -0.0564 -1.1358
  985MOL0     C32905   8.899   3.836   8.174 -0.4642 -0.1465  0.4485
  985MOL0     C32906   9.247   3.308   7.636 -0.1132 -1.2851  0.2379
  985MOL0     C32907   9.293   3.274   7.507  0.2186 -1.3111  0.2045
  985MOL0     H32908   9.874   3.201   7.380  3.3990  0.0986 -1.0359
  985MOL0     H32909  10.039   3.137   7.205  0.4237  3.6596 -1.2174
  985MOL0     H32910   9.900   2.959   6.820 -1.4317  0.4904  1.8889
  985MOL0     H32911   9.887   3.118   6.773 -0.8803 -0.6448  0.5820
  985MOL0     H32912  10.052   3.044   6.640 -0.5288  3.0359 -0.0907
  985MOL0     H32913  10.145   3.134   6.758 -0.6152 -0.4574  0.8621
  985MOL0     H32914  10.236   2.951   6.858 -3.1638  4.3804  2.1468
  985MOL0     H32915  10.103   2.841   6.816  0.9415 -0.3938 -1.8458
  985MOL0     H32916  10.192   2.869   6.576 -0.3921  1.7903  0.0161
  985MOL0     H32917  10.336   2.948   6.656  0.8204 -0.2796 -0.5458
  985MOL0     H32918  10.324   2.687   6.764 -1.2471  0.0768  0.7852
  985MOL0     H32919  10.261   2.678   6.600  0.0801 -1.3984  1.7808
  985MOL0     H32920  10.472   2.770   6.515  3.8578  2.5884  0.4250
  985MOL0     H32921  10.534   2.792   6.676 -1.5336 -0.1396  1.1951
  985MOL0     H32922  10.507   2.551   6.721 -5.9988  0.8832  0.4041
  985MOL0     H32923  10.451   2.523   6.558  0.9073  0.6878 -1.2638
  985MOL0     H32924  10.679   2.570   6.464  0.7365 -0.0969 -0.2887
  985MOL0     H32925  10.675   2.447   6.590 -0.1114  0.3417  0.0164
  985MOL0     H32926  10.720   2.556   6.850  0.1178 -0.7457  0.4316
  985MOL0     H32927  10.964   2.850   6.951 -1.0114  1.2272  2.7858
  985MOL0     H32928  10.839   2.744   7.015  0.5107 -0.7779 -0.4951
  985MOL0     H32929  10.982   2.539   6.945  0.4683 -0.7244  0.5168
  985MOL0     H32930  11.033   2.628   7.075  0.2540 -1.4670 -0.2264
  985MOL0     H32931  11.184   2.775   6.931  0.7802 -0.5084  0.8643
  985MOL0     H32932  11.144   2.665   6.796  1.9848  0.2860  0.1901
  985MOL0     H32933  11.252   2.571   7.062 -1.5125 -0.2454 -0.5832
  985MOL0     H32934  11.369   2.620   6.943  0.3336  1.5543  2.2406
  985MOL0     H32935  11.405   2.332   6.698  2.1677  1.3344  0.1786
  985MOL0     H32936  11.567   2.203   6.591  1.4673  0.1019 -2.1315
  985MOL0     H32937  11.721   2.228   6.692 -1.5493  0.6039  0.1340
  985MOL0     H32938  11.644   2.074   6.671  4.8856  0.2635  0.8804
  985MOL0     H32939  12.011   2.284   7.001  0.5591 -0.9120  0.1120
  985MOL0     H32940  12.234   2.215   7.003  1.0502 -0.4346  0.1039
  985MOL0     H32941  12.302   1.866   7.239 -0.2469  3.2457  1.0653
  985MOL0     H32942  12.346   1.791   7.082  1.1643  0.2502 -0.6745
  985MOL0     H32943  12.549   1.809   7.250  1.4235  0.2207  0.8102
  985MOL0     H32944  12.568   1.873   7.084 -1.2181 -3.5683 -1.6403
  985MOL0     H32945  12.495   2.037   7.334 -3.2951  0.0750 -2.4640
  985MOL0     H32946  12.534   2.104   7.178 -3.3160  0.1462  1.2806
  985MOL0     H32947  12.733   1.951   7.341 -0.4854  0.7740  1.0032
  985MOL0     H32948  12.751   2.019   7.178 -1.0513 -0.2730  0.2650
  985MOL0     H32949  12.760   2.153   7.446  1.1811  0.0874  0.4210
  985MOL0     H32950  12.691   2.247   7.305  0.5149 -0.7050  0.2681
  985MOL0     H32951  12.878   2.226   7.171 -0.3678 -1.8452 -0.6180
  985MOL0     H32952  12.911   2.300   7.328 -1.7706 -0.7590  2.8887
  985MOL0     H32953  13.073   2.138   7.232 -0.7712  1.3129 -0.5521
  985MOL0     H32954  12.962   2.011   7.293 -2.5517  1.0876  1.4539
  985MOL0     H32955  13.048   2.230   7.480  0.9393 -1.3348  1.1990
  985MOL0     H32956  13.155   2.096   7.449 -1.4910 -3.6476 -1.1226
  985MOL0     H32957  12.122   1.825   7.117 -1.3787 -0.9325  0.4745
  985MOL0     H32958  11.881   1.882   7.101 -0.9405  0.6810 -1.7749
  985MOL0     H32959  11.550   2.226   7.157  1.0944 -0.8511 -0.4206
  985MOL0     H32960  11.370   2.388   7.121 -0.0358  0.3568  0.0695
  985MOL0     H32961   9.725   3.106   6.925 -0.6214  0.8512 -0.5805
  985MOL0     H32962   9.566   3.188   7.083  0.2333  2.6625 -2.1446
  985MOL0     H32963   9.618   3.332   7.566  0.2076  2.0546  0.8450
  985MOL0     H32964   9.517   3.414   7.787  1.4417 -2.4946 -0.5072
  985MOL0     H32965   9.075   3.448   7.814  1.4046 -1.7471  0.7630
  985MOL0     H32966   9.128   3.459   7.977  1.5721  2.0707  0.2505
  985MOL0     H32967   9.148   3.672   7.757 -0.7976 -1.8723 -0.2407
  985MOL0     H32968   9.294   3.653   7.846 -0.9879  1.1988 -2.4929
  985MOL0     H32969   9.156   3.818   7.953 -2.4579  0.3972 -0.6198
  985MOL0     H32970   9.188   3.671   8.053  2.8094  1.7513 -0.5409
  985MOL0     H32971   8.960   3.589   7.985  1.5881 -0.2793  1.6507
  985MOL0     H32972   8.941   3.717   7.876  0.7687  0.2521  0.7574
  985MOL0     H32973   8.870   3.883   8.265 -0.6802 -0.7503  0.6969
  985MOL0     H32974   9.142   3.285   7.654 -0.1649  0.5661  2.6970
  985MOL0     H32975   9.220   3.238   7.435  0.6022  0.6824 -1.2911
  986MOL0     O32976  10.797   8.988   5.838  0.2373 -0.3396  0.2679
  986MOL0     C32977  10.771   8.971   5.957  1.6350  0.2749 -0.3227
  986MOL0     O32978  10.679   8.884   6.005 -0.2326 -0.2930  0.4267
  986MOL0     C32979  10.578   8.850   5.919 -1.1834  0.0111  0.5246
  986MOL0     C32980  10.488   8.955   5.880  0.1399 -0.1723 -0.2851
  986MOL0     C32981  10.382   8.919   5.792  0.8232  0.0772 -0.2337
  986MOL0     C32982  10.369   8.781   5.754 -0.1644 -1.4217  0.6407
  986MOL0     O32983  10.271   8.756   5.664  1.0557  0.1248  0.9082
  986MOL0     C32984  10.165   8.663   5.703 -0.1115 -0.4246  0.0682
  986MOL0     C32985  10.047   8.706   5.611 -0.4088  0.5958 -0.3398
  986MOL0     C32986  10.006   8.852   5.614  0.0976  0.6757 -0.5250
  986MOL0     C32987   9.921   8.897   5.739  0.2663 -0.1758  0.8561
  986MOL0     C32988  10.013   8.979   5.835 -1.1794  0.7286  0.9039
  986MOL0     C32989   9.953   9.019   5.976 -0.9823 -0.0802  0.0597
  986MOL0     C32990   9.832   9.116   5.978 -1.3700 -0.9744  0.6914
  986MOL0     C32991   9.703   9.056   6.005 -0.3747 -0.0078 -0.0033
  986MOL0     N32992   9.597   9.147   5.980  0.1553  0.1268  0.8283
  986MOL0     C32993   9.570   9.269   6.044 -0.1090 -0.4247 -0.0020
  986MOL0     C32994   9.463   9.315   5.977 -0.2613  0.2428 -0.6214
  986MOL0     C32995   9.392   9.443   6.012  0.4571  0.1764 -0.7222
  986MOL0     C32996   9.238   9.433   6.010 -0.0867  0.2893 -0.3548
  986MOL0     C32997   9.182   9.569   6.067 -0.7259  0.3293  0.7884
  986MOL0     C32998   9.034   9.583   6.049 -0.2110  0.5422  0.4013
  986MOL0     O32999   9.001   9.599   5.907 -0.3970 -0.0486  0.0906
  986MOL0     C33000   8.873   9.620   5.873  1.2265  0.0527 -0.9852
  986MOL0     C33001   8.765   9.646   5.966  0.3630 -0.2672 -0.2496
  986MOL0     C33002   8.632   9.619   5.921 -0.1364  0.4267  0.3098
  986MOL0     C33003   8.542   9.689   6.014 -0.4272 -0.6221 -0.2235
  986MOL0     C33004   8.594   9.568   5.791 -0.5857 -0.1378 -0.5338
  986MOL0     C33005   8.462   9.543   5.745  0.4702 -0.4491  0.0311
  986MOL0     O33006   8.455   9.528   5.603  0.2493 -0.4512 -0.9157
  986MOL0     C33007   8.324   9.517   5.558  0.4309 -0.2902  0.2265
  986MOL0     C33008   8.269   9.614   5.471  0.0889 -0.0075  0.9913
  986MOL0     C33009   8.151   9.588   5.401  1.3113 -0.3689 -0.8019
  986MOL0     C33010   8.066   9.477   5.430 -0.5635  0.8477 -1.0276
  986MOL0     O33011   7.944   9.448   5.363 -0.8003  0.3176  0.0546
  986MOL0     C33012   7.882   9.568   5.316 -0.0408 -0.4061 -0.4421
  986MOL0     C33013   7.731   9.537   5.313  0.8284 -0.4624  0.8881
  986MOL0     C33014   7.633   9.660   5.302 -0.9790  0.0521  0.8931
  986MOL0     C33015   7.508   9.626   5.214  0.1092 -0.2695 -0.6430
  986MOL0     C33016   7.429   9.744   5.154  0.0505  0.1341  0.1160
  986MOL0     C33017   7.286   9.703   5.118 -0.1366  0.0191  0.1311
  986MOL0     C33018   7.192   9.813   5.072 -0.7188  0.1848 -0.5429
  986MOL0     C33019   7.064   9.758   5.015  0.1562  0.8974 -0.3442
  986MOL0    Cl33020   6.983   9.873   4.918 -0.5649 -0.2838 -0.2605
  986MOL0     C33021   8.118   9.390   5.524  0.4249  0.1145  0.0673
  986MOL0     C33022   8.242   9.398   5.580 -0.0822 -0.4565  0.1859
  986MOL0     O33023   8.362   9.533   5.822  0.1606 -0.3235  0.0188
  986MOL0     C33024   8.702   9.551   5.706 -0.2554 -0.1409  0.6469
  986MOL0     C33025   8.835   9.568   5.747  0.0109  0.7886  0.1549
  986MOL0     N33026   9.427   9.227   5.872 -0.3063  0.0279 -0.1291
  986MOL0     N33027   9.511   9.129   5.873  0.0387 -1.2124  0.5267
  986MOL0     C33028  10.459   8.685   5.788  0.0470 -0.5061 -0.3289
  986MOL0     C33029  10.564   8.724   5.867 -0.4449 -0.7199 -0.1057
  986MOL0     C33030  10.849   9.028   6.064  0.1824 -0.4542 -0.3170
  986MOL0     C33031  10.905   9.156   6.047  0.1048 -0.6327  0.0318
  986MOL0     C33032  10.985   9.206   6.151  0.2673 -0.7387 -0.9063
  986MOL0     C33033  11.013   9.129   6.276 -0.0919 -0.3373  0.1125
  986MOL0     O33034  11.100   9.176   6.362  0.2065 -0.5265 -0.6166
  986MOL0     C33035  11.037   9.221   6.485  0.5333 -0.6387  0.2494
  986MOL0     C33036  11.074   9.369   6.504 -0.3496 -0.0190 -0.1826
  986MOL0     C33037  10.971   9.459   6.429 -0.0085 -0.0912  0.3001
  986MOL0     C33038  10.839   9.483   6.493 -0.2858 -1.0407  0.6322
  986MOL0     C33039  10.736   9.377   6.498  0.3416  0.5149  0.5483
  986MOL0     C33040  10.656   9.287   6.518 -0.7569 -0.5562  0.4300
  986MOL0     C33041  10.958   9.004   6.282  1.1663 -0.1622 -0.0205
  986MOL0     C33042  10.872   8.957   6.182  0.5800  0.7693  0.0641
  986MOL0     H33043  10.508   9.057   5.909  0.1509  0.3363 -2.0086
  986MOL0     H33044  10.305   8.993   5.772  0.0052 -0.8582 -0.6420
  986MOL0     H33045  10.200   8.562   5.683 -0.8466 -0.8035  0.6322
  986MOL0     H33046  10.142   8.656   5.810 -0.8262  1.7752  0.1086
  986MOL0     H33047  10.067   8.672   5.509  1.2406 -3.3496  1.1175
  986MOL0     H33048   9.962   8.644   5.640 -1.9613  2.3552 -0.8740
  986MOL0     H33049  10.095   8.914   5.603  0.5304  0.2651  0.4929
  986MOL0     H33050   9.947   8.864   5.523 -0.5294 -0.0793 -0.2305
  986MOL0     H33051   9.849   8.970   5.700  2.8391  1.8322 -0.4054
  986MOL0     H33052   9.872   8.814   5.791 -2.9486  1.1947  0.2627
  986MOL0     H33053  10.104   8.921   5.853 -1.7522 -1.8204 -3.1364
  986MOL0     H33054  10.050   9.070   5.788  0.7420 -0.5842 -0.2809
  986MOL0     H33055   9.915   8.930   6.027 -2.6568 -0.3875 -1.5917
  986MOL0     H33056  10.037   9.066   6.027  0.0382 -1.0124 -0.7201
  986MOL0     H33057   9.845   9.192   6.055  3.1042 -5.0246  4.6159
  986MOL0     H33058   9.836   9.176   5.886 -2.8567 -0.8445  0.6923
  986MOL0     H33059   9.690   9.024   6.109  0.0627 -0.8808 -0.2075
  986MOL0     H33060   9.696   8.969   5.939 -0.2924 -0.0449  0.0368
  986MOL0     H33061   9.625   9.304   6.131 -0.9696 -1.6229  1.0608
  986MOL0     H33062   9.423   9.476   6.111 -2.4300 -0.5812  0.5621
  986MOL0     H33063   9.427   9.515   5.937  1.7170 -0.1629 -0.4766
  986MOL0     H33064   9.207   9.341   6.061 -1.1259 -1.2681 -3.4942
  986MOL0     H33065   9.207   9.429   5.905  0.9475 -0.1675 -0.6663
  986MOL0     H33066   9.233   9.651   6.016 -0.2454 -0.9040 -0.7782
  986MOL0     H33067   9.208   9.571   6.174  0.7068 -1.8520  0.5493
  986MOL0     H33068   9.005   9.672   6.106  2.5793  0.7671  1.6445
  986MOL0     H33069   8.989   9.494   6.093  1.8031 -0.9383 -0.4071
  986MOL0     H33070   8.789   9.690   6.062  1.5945  0.3680 -0.8070
  986MOL0     H33071   8.561   9.658   6.117  0.4819  0.4001 -0.0686
  986MOL0     H33072   8.555   9.793   5.982  0.5184 -1.1938 -1.8048
  986MOL0     H33073   8.441   9.646   6.004  0.1787 -1.7039 -2.5011
  986MOL0     H33074   8.333   9.695   5.437  0.9021 -1.0832 -0.1126
  986MOL0     H33075   8.134   9.647   5.312 -1.2660  0.5389  0.1819
  986MOL0     H33076   7.901   9.649   5.387 -2.5468 -0.5716  0.5154
  986MOL0     H33077   7.915   9.582   5.212  0.0925 -1.4378 -0.5479
  986MOL0     H33078   7.711   9.473   5.227  1.2067  0.3649  0.1700
  986MOL0     H33079   7.712   9.488   5.409  1.6249 -0.6245  0.9698
  986MOL0     H33080   7.683   9.747   5.258  2.7272 -2.0734  0.5318
  986MOL0     H33081   7.601   9.696   5.401  0.6461 -0.3491  1.6080
  986MOL0     H33082   7.544   9.568   5.128  0.9502 -1.1332  0.2831
  986MOL0     H33083   7.436   9.566   5.270 -2.9795  0.4516 -3.4797
  986MOL0     H33084   7.485   9.766   5.062 -0.6618 -0.2487 -0.4243
  986MOL0     H33085   7.434   9.837   5.211  1.0490  1.3376 -1.8234
  986MOL0     H33086   7.300   9.630   5.038  0.6378  1.0014 -0.6446
  986MOL0     H33087   7.249   9.656   5.210 -0.0263  0.7265  0.5434
  986MOL0     H33088   7.245   9.872   4.996  0.1362  0.1637  0.0208
  986MOL0     H33089   7.171   9.872   5.162  0.9287 -1.4039  0.9572
  986MOL0     H33090   7.008   9.718   5.100 -1.3080 -1.3291 -2.2118
  986MOL0     H33091   7.092   9.673   4.953 -2.4721  0.8853 -1.6565
  986MOL0     H33092   8.052   9.306   5.541  0.8787 -0.8421 -2.4180
  986MOL0     H33093   8.281   9.328   5.653  2.3360  1.5590  0.9989
  986MOL0     H33094   8.683   9.502   5.611 -1.3301  0.5007  0.5139
  986MOL0     H33095   8.914   9.539   5.678  1.1119  4.2851 -0.2258
  986MOL0     H33096  10.446   8.584   5.751 -1.4759 -1.3274  2.1927
  986MOL0     H33097  10.634   8.645   5.895 -0.7762 -0.5617  1.2377
  986MOL0     H33098  10.891   9.215   5.957  1.6871  0.6286  0.5659
  986MOL0     H33099  11.043   9.297   6.141  1.7166 -1.5271  0.0160
  986MOL0     H33100  10.928   9.211   6.493  0.5853  0.2787  3.8772
  986MOL0     H33101  11.077   9.156   6.563  1.1097 -0.5579  0.0248
  986MOL0     H33102  11.172   9.398   6.465  0.0903  0.6959  1.3861
  986MOL0     H33103  11.071   9.393   6.611 -0.0547 -1.1295  0.0962
  986MOL0     H33104  10.948   9.419   6.330 -3.7997  0.9219  0.6198
  986MOL0     H33105  11.018   9.558   6.432  0.3055 -0.2205  3.4494
  986MOL0     H33106  10.787   9.568   6.448 -0.5208 -0.4936  1.9064
  986MOL0     H33107  10.849   9.512   6.598 -2.6936 -1.3954  1.0290
  986MOL0     H33108  10.595   9.199   6.526 -0.3800 -0.6797  2.5166
  986MOL0     H33109  10.976   8.944   6.371  3.8274  0.7869  0.1774
  986MOL0     H33110  10.831   8.856   6.192 -0.6660  1.1462 -0.9240
  987MOL0     O33111  10.728   9.716   0.862  0.3469  0.7407  0.3371
  987MOL0     C33112  10.834   9.756   0.903 -0.1116  0.3401 -0.0763
  987MOL0     O33113  10.859   9.885   0.924  0.5111 -0.0212 -0.1980
  987MOL0     C33114  10.761   9.986   0.902  0.3973  1.0512  0.8714
  987MOL0     C33115  10.658  10.003   1.002 -0.1906 -0.5853 -0.0964
  987MOL0     C33116  10.562  10.095   0.974  0.2039 -0.6480 -0.3626
  987MOL0     C33117  10.547  10.165   0.850  0.0162  0.8913 -0.5094
  987MOL0     O33118  10.430  10.237   0.832 -0.8039  0.9627  0.1437
  987MOL0     C33119  10.434  10.337   0.732  0.1541 -0.6722  0.4485
  987MOL0     C33120  10.480  10.474   0.790 -0.3739  0.3493 -0.2616
  987MOL0     C33121  10.440  10.591   0.693  0.0822  0.0882  0.3971
  987MOL0     C33122  10.440  10.718   0.772  0.5028  0.2652 -0.7378
  987MOL0     C33123  10.368  10.821   0.698  0.5391 -0.0743 -0.6953
  987MOL0     C33124  10.367  10.960   0.772 -0.0484  0.0383 -1.2512
  987MOL0     C33125  10.300  10.968   0.916 -0.4373 -0.0972  0.1583
  987MOL0     C33126  10.341  11.122   0.955  0.9718 -0.1084  0.2551
  987MOL0     N33127  10.269  11.168   1.078 -0.0705 -0.1027  0.2222
  987MOL0     C33128  10.330  11.192   1.205  0.1476  0.1626  0.1077
  987MOL0     C33129  10.229  11.261   1.269  0.0350 -0.3366  0.7469
  987MOL0     C33130  10.240  11.306   1.412 -0.0662  0.2323  0.1191
  987MOL0     C33131  10.169  11.196   1.497 -1.0762  0.0921 -0.7851
  987MOL0     C33132  10.233  11.210   1.641  0.5183 -0.5797  1.0309
  987MOL0     C33133  10.151  11.124   1.729 -0.5243 -0.1640 -0.9285
  987MOL0     O33134  10.019  11.174   1.728 -0.4308 -0.7036  0.1791
  987MOL0     C33135   9.929  11.115   1.811 -0.7232  0.4353  0.1924
  987MOL0     C33136   9.957  11.017   1.907  0.0116  0.2482 -0.7658
  987MOL0     C33137   9.865  10.954   1.988  0.1794 -0.5736 -0.7479
  987MOL0     C33138   9.917  10.836   2.075  0.2521  1.1507  0.0943
  987MOL0     C33139   9.732  10.985   1.960 -1.0016  0.1159 -0.4086
  987MOL0     C33140   9.617  10.924   2.033  0.0354 -0.5408 -0.7107
  987MOL0     O33141   9.494  10.950   1.980 -0.7201 -0.0997  0.1087
  987MOL0     C33142   9.386  10.891   2.026  0.4336 -0.3074 -0.9531
  987MOL0     C33143   9.260  10.957   2.020  0.4404 -0.2697 -0.7144
  987MOL0     C33144   9.141  10.909   2.067 -1.2201  0.3064  0.1232
  987MOL0     C33145   9.143  10.789   2.127 -0.5797  0.1620  0.0755
  987MOL0     O33146   9.040  10.710   2.171 -0.2424 -0.2741  0.5526
  987MOL0     C33147   8.902  10.743   2.141  0.0269  1.1852 -1.0077
  987MOL0     C33148   8.817  10.638   2.212  0.8831  0.6093 -0.0841
  987MOL0     C33149   8.667  10.684   2.193  0.2293 -0.0184 -0.0054
  987MOL0     C33150   8.560  10.583   2.235 -1.0865  0.6817  0.1163
  987MOL0     C33151   8.417  10.637   2.257 -0.2489 -0.4231  0.3292
  987MOL0     C33152   8.313  10.530   2.292  0.3319  0.1286  0.0459
  987MOL0     C33153   8.184  10.583   2.350  0.1888 -0.1194 -0.4271
  987MOL0     C33154   8.086  10.470   2.393  0.1057 -0.6422  0.2557
  987MOL0    Cl33155   7.916  10.523   2.392  0.0565 -0.4676 -0.0783
  987MOL0     C33156   9.262  10.717   2.125  0.0461  0.9243 -0.5051
  987MOL0     C33157   9.381  10.765   2.081  0.4659  0.3030 -0.4338
  987MOL0     O33158   9.638  10.853   2.132  0.5955 -0.1161  0.4059
  987MOL0     C33159   9.705  11.092   1.872 -0.0991 -0.0903 -0.2481
  987MOL0     C33160   9.801  11.150   1.793  0.7591 -0.0346  0.7103
  987MOL0     N33161  10.121  11.271   1.185 -0.4144 -0.1970 -0.0743
  987MOL0     N33162  10.140  11.216   1.071 -0.3164  0.3342 -0.0567
  987MOL0     C33163  10.652  10.142   0.762 -0.4117  0.3809  0.9224
  987MOL0     C33164  10.765  10.067   0.793 -0.1463 -0.8736  0.4988
  987MOL0     C33165  10.945   9.648   0.915  0.7862 -0.8962 -0.6440
  987MOL0     C33166  10.913   9.517   0.928  0.5275 -0.2767 -1.8642
  987MOL0     C33167  11.014   9.416   0.945  0.0664 -0.3187 -0.1818
  987MOL0     C33168  11.154   9.452   0.935 -0.5485 -1.2682  0.1410
  987MOL0     O33169  11.262   9.370   0.932 -0.2444 -0.5123 -0.4394
  987MOL0     C33170  11.236   9.233   0.895 -0.1496  0.1542 -0.2749
  987MOL0     C33171  11.358   9.144   0.907  0.5796  0.9599 -0.3243
  987MOL0     C33172  11.392   9.109   1.052 -0.1972 -0.2936  0.5590
  987MOL0     C33173  11.518   9.027   1.077  0.4425 -0.3995  0.1414
  987MOL0     C33174  11.639   9.101   1.048 -0.2466 -0.2764  0.9786
  987MOL0     C33175  11.743   9.154   1.022 -0.7864  0.8490  0.1609
  987MOL0     C33176  11.184   9.592   0.934 -0.4900  0.2785  0.1335
  987MOL0     C33177  11.078   9.694   0.936 -0.1117 -0.0684  0.5376
  987MOL0     H33178  10.644   9.945   1.092 -0.7860 -1.0728 -0.4937
  987MOL0     H33179  10.481  10.099   1.047 -0.1417 -2.7099 -0.5925
  987MOL0     H33180  10.485  10.307   0.640  2.9941  0.7415  1.4494
  987MOL0     H33181  10.332  10.353   0.698  0.5706 -0.4550 -0.7203
  987MOL0     H33182  10.423  10.494   0.881 -2.6091  2.2479 -1.9376
  987MOL0     H33183  10.587  10.470   0.812  0.2521 -1.7424 -3.0083
  987MOL0     H33184  10.511  10.595   0.610 -1.4511 -1.3293 -1.0690
  987MOL0     H33185  10.342  10.564   0.652  1.2699 -2.8872 -0.7578
  987MOL0     H33186  10.391  10.702   0.868 -2.7184 -2.6906 -2.6474
  987MOL0     H33187  10.541  10.758   0.785  0.4251  0.3411 -0.3646
  987MOL0     H33188  10.419  10.833   0.602 -0.0752 -1.0313 -1.1488
  987MOL0     H33189  10.267  10.783   0.684  0.6208  0.1458 -1.9913
  987MOL0     H33190  10.467  11.004   0.767  0.1202  0.7082  3.2933
  987MOL0     H33191  10.303  11.023   0.710  1.0882  2.9369  0.3372
  987MOL0     H33192  10.191  10.964   0.908 -0.2919 -2.5285 -1.8360
  987MOL0     H33193  10.328  10.895   0.992  1.9652 -1.2220 -1.6404
  987MOL0     H33194  10.308  11.182   0.870 -1.5537 -0.4752  0.8749
  987MOL0     H33195  10.449  11.133   0.966  1.2613 -1.4339 -1.0339
  987MOL0     H33196  10.431  11.160   1.227  0.0886  0.5631  1.0471
  987MOL0     H33197  10.347  11.321   1.430 -0.2236  2.0364 -0.2782
  987MOL0     H33198  10.189  11.402   1.420  1.7393  1.5128 -2.3266
  987MOL0     H33199  10.180  11.095   1.457  0.4006 -0.1362  0.1397
  987MOL0     H33200  10.062  11.215   1.488 -1.0444 -0.1076 -1.6244
  987MOL0     H33201  10.227  11.317   1.663 -2.3286 -0.0610 -1.5936
  987MOL0     H33202  10.338  11.182   1.647  0.3019 -1.3335  1.5312
  987MOL0     H33203  10.209  11.122   1.822 -0.0578 -0.2374 -1.2158
  987MOL0     H33204  10.147  11.020   1.694 -1.3354  0.1889 -1.9248
  987MOL0     H33205  10.062  10.989   1.909  0.5444  2.0840 -1.0845
  987MOL0     H33206   9.853  10.750   2.052  0.2722  0.4867  2.3701
  987MOL0     H33207  10.020  10.805   2.053  0.3453  0.7120  1.1165
  987MOL0     H33208   9.910  10.870   2.178 -2.9155  1.0764 -0.0138
  987MOL0     H33209   9.256  11.046   1.958  0.2397  1.1129  1.1935
  987MOL0     H33210   9.051  10.968   2.048 -0.7513  0.9784 -0.0282
  987MOL0     H33211   8.890  10.844   2.180 -1.6239 -0.2156  2.6013
  987MOL0     H33212   8.887  10.751   2.033  0.3049  0.2180 -1.1276
  987MOL0     H33213   8.827  10.536   2.175 -0.9138 -0.5588  2.3435
  987MOL0     H33214   8.833  10.649   2.320 -0.7468  0.1545  0.2333
  987MOL0     H33215   8.653  10.707   2.087  1.4708 -0.4455 -0.2766
  987MOL0     H33216   8.646  10.779   2.244 -1.0543  0.2667 -1.0192
  987MOL0     H33217   8.561  10.505   2.158  0.1982 -0.5520  1.3265
  987MOL0     H33218   8.603  10.541   2.326  0.2710  2.9147  0.5844
  987MOL0     H33219   8.379  10.685   2.167  0.6118 -2.3457 -1.1541
  987MOL0     H33220   8.430  10.714   2.333  0.3613 -1.0462  0.8783
  987MOL0     H33221   8.290  10.479   2.198 -1.6702  3.0255 -1.1767
  987MOL0     H33222   8.355  10.454   2.359  0.1024 -2.0975 -2.1563
  987MOL0     H33223   8.129  10.645   2.279  1.8502  0.4077 -1.3135
  987MOL0     H33224   8.200  10.654   2.432 -1.0152  2.9514 -2.6608
  987MOL0     H33225   8.117  10.431   2.490  1.0632  3.1189  1.6218
  987MOL0     H33226   8.088  10.392   2.315  1.0122  2.9213 -3.6695
  987MOL0     H33227   9.262  10.616   2.165 -0.2778  0.4565 -1.6459
  987MOL0     H33228   9.467  10.698   2.084  3.1553  3.4143 -1.6774
  987MOL0     H33229   9.612  11.146   1.861  1.8674  4.0164  1.0533
  987MOL0     H33230   9.756  11.224   1.727 -1.5016  0.1843  2.3877
  987MOL0     H33231  10.653  10.192   0.666  0.1146 -1.6796 -0.2164
  987MOL0     H33232  10.846  10.053   0.722 -1.6151  0.7020 -1.5861
  987MOL0     H33233  10.806   9.502   0.939  0.6401  0.3530  0.7121
  987MOL0     H33234  10.989   9.310   0.946  0.6537 -0.4681  1.2395
  987MOL0     H33235  11.164   9.182   0.959  1.4396 -0.1099  1.4091
  987MOL0     H33236  11.208   9.240   0.790  1.6724 -0.8655 -0.8725
  987MOL0     H33237  11.440   9.194   0.854 -0.1337 -0.6671 -3.2036
  987MOL0     H33238  11.340   9.055   0.846 -0.5685  1.2951 -0.5077
  987MOL0     H33239  11.318   9.039   1.094 -0.0235  0.0279  1.4214
  987MOL0     H33240  11.397   9.195   1.120 -0.5297  1.4248 -1.4834
  987MOL0     H33241  11.517   8.935   1.019  3.0477 -0.8039  0.6051
  987MOL0     H33242  11.517   9.006   1.184 -2.6650 -4.3176 -0.4446
  987MOL0     H33243  11.839   9.196   1.001  0.2196 -0.3540  2.0266
  987MOL0     H33244  11.288   9.622   0.930 -0.0193 -1.0340  1.6022
  987MOL0     H33245  11.101   9.800   0.939 -0.1102 -0.0863  1.5842
  988MOL0     O33246   1.405   3.224   5.155  0.1705  0.4429  0.5220
  988MOL0     C33247   1.403   3.238   5.278  0.3482 -0.2587  0.0451
  988MOL0     O33248   1.294   3.282   5.350  0.2066 -0.4457  1.1618
  988MOL0     C33249   1.187   3.330   5.284  0.2388 -0.6338  0.1728
  988MOL0     C33250   1.117   3.258   5.196  1.0644  0.1986 -0.0295
  988MOL0     C33251   0.990   3.296   5.144  0.6066 -0.5926  0.2954
  988MOL0     C33252   0.941   3.421   5.187  0.0452  0.8659  0.8340
  988MOL0     O33253   0.834   3.456   5.108  0.3492 -0.3594  0.0600
  988MOL0     C33254   0.785   3.590   5.131  0.6367 -0.1514  0.1085
  988MOL0     C33255   0.638   3.620   5.087 -0.3557  0.1491 -0.5129
  988MOL0     C33256   0.543   3.529   5.174  0.2602  0.8085  0.9495
  988MOL0     C33257   0.409   3.510   5.098 -0.2959  0.2347 -0.0261
  988MOL0     C33258   0.303   3.448   5.193 -0.2698 -0.4586 -0.5656
  988MOL0     C33259   0.163   3.422   5.124 -0.5726  0.2819 -0.2719
  988MOL0     C33260   0.106   3.540   5.035  0.2819  0.3454 -0.5384
  988MOL0     C33261  -0.020   3.505   4.958 -0.0186 -0.8288  0.1026
  988MOL0     N33262  -0.073   3.621   4.891  0.0087 -0.0248  0.5896
  988MOL0     C33263  -0.018   3.687   4.787  0.6409 -0.6932 -0.7786
  988MOL0     C33264  -0.110   3.779   4.746 -0.0328 -0.0951 -0.6908
  988MOL0     C33265  -0.097   3.888   4.647  0.0204 -0.5127  0.6323
  988MOL0     C33266  -0.193   3.871   4.538  0.8338  0.3270 -0.7424
  988MOL0     C33267  -0.200   4.005   4.466 -0.6245 -0.3320 -0.0964
  988MOL0     C33268  -0.320   4.003   4.363 -0.1626  0.7450  1.7876
  988MOL0     O33269  -0.389   4.125   4.350  0.2197 -0.5463  0.0477
  988MOL0     C33270  -0.497   4.134   4.266  0.2145  1.0493  0.0085
  988MOL0     C33271  -0.601   4.231   4.295  0.2980  0.4651 -0.3452
  988MOL0     C33272  -0.707   4.247   4.203  0.3982  0.3580  0.0571
  988MOL0     C33273  -0.812   4.345   4.253  0.4912  0.2290  0.5921
  988MOL0     C33274  -0.729   4.160   4.094  0.9502  1.2617  0.6853
  988MOL0     C33275  -0.836   4.195   3.991  0.4110  0.3661  0.3489
  988MOL0     O33276  -0.909   4.310   4.008 -0.0385  0.0744  0.6659
  988MOL0     C33277  -1.022   4.331   3.941  0.4149 -0.1380 -0.4318
  988MOL0     C33278  -1.024   4.350   3.802  0.4453 -1.0255  0.2217
  988MOL0     C33279  -1.152   4.354   3.736  0.1805  0.0407 -0.4117
  988MOL0     C33280  -1.272   4.350   3.810 -0.3546 -0.0942  0.2379
  988MOL0     O33281  -1.388   4.386   3.737  0.5320  0.6702  0.7999
  988MOL0     C33282  -1.512   4.326   3.785 -0.2682  0.7285  1.5956
  988MOL0     C33283  -1.607   4.441   3.814 -0.9754 -0.2442 -0.8294
  988MOL0     C33284  -1.715   4.398   3.917 -0.7675  0.9478  0.2191
  988MOL0     C33285  -1.657   4.396   4.065 -0.1247  0.2357  0.0510
  988MOL0     C33286  -1.764   4.319   4.149  0.2331 -0.0902  0.8219
  988MOL0     C33287  -1.727   4.321   4.294 -0.0448  0.8018  0.0656
  988MOL0     C33288  -1.594   4.243   4.327 -0.0702 -0.4920  0.1733
  988MOL0     C33289  -1.591   4.194   4.477 -0.6841 -1.0085  0.3056
  988MOL0    Cl33290  -1.590   4.333   4.582  0.1052  0.0728  0.8348
  988MOL0     C33291  -1.266   4.356   3.947 -0.1065  0.7205  0.2791
  988MOL0     C33292  -1.143   4.327   4.011 -0.1518 -0.4037  0.0660
  988MOL0     O33293  -0.833   4.119   3.898 -0.4742 -0.4505 -0.2277
  988MOL0     C33294  -0.632   4.059   4.070 -0.7992 -0.7216 -0.3820
  988MOL0     C33295  -0.516   4.058   4.152  0.2570  0.5089 -0.0612
  988MOL0     N33296  -0.218   3.776   4.822 -0.2337 -0.1556 -0.4940
  988MOL0     N33297  -0.196   3.672   4.899  0.2355  0.0680 -0.3021
  988MOL0     C33298   1.021   3.501   5.276  0.1493 -0.1523 -0.1029
  988MOL0     C33299   1.138   3.456   5.325 -0.1116 -0.0038  0.3665
  988MOL0     C33300   1.521   3.188   5.355  1.6921  0.5414 -0.4344
  988MOL0     C33301   1.637   3.147   5.281 -0.0523 -0.0035 -0.0100
  988MOL0     C33302   1.742   3.086   5.343  0.2825  0.5379  1.1467
  988MOL0     C33303   1.732   3.057   5.469  0.1727 -0.2049  0.5429
  988MOL0     O33304   1.831   2.986   5.526 -0.2303 -0.0683 -0.4520
  988MOL0     C33305   1.822   2.845   5.502 -0.9514 -0.1726 -0.1501
  988MOL0     C33306   1.906   2.755   5.592  0.1980  0.6477 -0.7055
  988MOL0     C33307   1.863   2.759   5.737 -0.3633  0.0379  0.1189
  988MOL0     C33308   1.985   2.704   5.829  0.6907 -1.2286  0.1751
  988MOL0     C33309   1.944   2.697   5.971 -0.8622 -0.1225  0.6521
  988MOL0     C33310   1.920   2.690   6.087  0.2150 -0.9594  0.1792
  988MOL0     C33311   1.624   3.094   5.547  1.0347 -0.0081 -0.1741
  988MOL0     C33312   1.513   3.154   5.489 -0.5673 -0.9267 -1.1559
  988MOL0     H33313   1.152   3.160   5.163 -1.9367 -0.5934 -1.2415
  988MOL0     H33314   0.928   3.241   5.075  1.7308  0.8004 -1.9323
  988MOL0     H33315   0.798   3.619   5.235 -1.7861 -1.2451  0.7949
  988MOL0     H33316   0.847   3.656   5.069 -1.4663  2.1527  0.3292
  988MOL0     H33317   0.626   3.726   5.112  0.2694 -0.3164  2.1319
  988MOL0     H33318   0.636   3.606   4.979  3.1044 -2.7425 -0.4041
  988MOL0     H33319   0.574   3.427   5.197 -0.1031  0.2480 -0.8975
  988MOL0     H33320   0.525   3.560   5.278 -0.7193 -2.3544  1.8418
  988MOL0     H33321   0.372   3.608   5.065 -2.4372 -0.6854 -0.5126
  988MOL0     H33322   0.424   3.446   5.010  0.8013  1.4361 -0.7597
  988MOL0     H33323   0.334   3.355   5.239 -3.1122 -1.4885 -0.5036
  988MOL0     H33324   0.284   3.524   5.269  2.9638  0.7823 -0.8298
  988MOL0     H33325   0.190   3.343   5.054  1.6304  2.7350 -2.3811
  988MOL0     H33326   0.086   3.389   5.195 -1.4388 -0.4220 -1.5112
  988MOL0     H33327   0.082   3.623   5.102 -0.0175  0.1772 -0.4404
  988MOL0     H33328   0.188   3.563   4.965 -0.2536 -0.6531 -1.5272
  988MOL0     H33329  -0.083   3.454   5.032  0.2877  0.0733  1.0115
  988MOL0     H33330   0.001   3.433   4.878 -2.0566 -1.9803  0.5218
  988MOL0     H33331   0.073   3.673   4.730  0.4667 -0.2096 -1.1876
  988MOL0     H33332  -0.117   3.985   4.695  1.5197  0.1578 -0.0120
  988MOL0     H33333   0.006   3.887   4.609  0.3371 -1.3694  1.4811
  988MOL0     H33334  -0.289   3.840   4.581  1.5097 -0.6136  0.1222
  988MOL0     H33335  -0.156   3.790   4.475  1.7884 -0.9867  1.4154
  988MOL0     H33336  -0.110   4.019   4.406 -1.8436 -2.3914 -2.5844
  988MOL0     H33337  -0.215   4.087   4.537 -1.0343 -0.7129  0.2670
  988MOL0     H33338  -0.387   3.928   4.406  0.3297 -1.2530 -0.7098
  988MOL0     H33339  -0.290   3.960   4.267 -0.1512 -0.1953  2.2007
  988MOL0     H33340  -0.605   4.294   4.383 -0.0564 -1.3618  0.9882
  988MOL0     H33341  -0.819   4.436   4.193  1.3111  0.1302  0.3318
  988MOL0     H33342  -0.909   4.294   4.257  1.0721 -1.7818 -4.2642
  988MOL0     H33343  -0.786   4.387   4.351 -0.9475  0.4509  0.9003
  988MOL0     H33344  -0.940   4.367   3.735  1.3939 -0.3366  1.5473
  988MOL0     H33345  -1.171   4.361   3.630  0.0388 -1.5057 -0.5090
  988MOL0     H33346  -1.561   4.267   3.708 -2.0741  2.9663  0.9081
  988MOL0     H33347  -1.495   4.256   3.867  2.5313  0.3166  0.7766
  988MOL0     H33348  -1.571   4.541   3.841 -2.4709  0.0729  0.0810
  988MOL0     H33349  -1.662   4.464   3.722 -2.1424  0.2360 -0.0379
  988MOL0     H33350  -1.747   4.295   3.899 -2.5833  1.7130 -1.1623
  988MOL0     H33351  -1.803   4.461   3.904 -1.8685 -0.1801  1.8561
  988MOL0     H33352  -1.561   4.350   4.090  1.1421  2.9778  0.6388
  988MOL0     H33353  -1.646   4.501   4.096  0.3517  1.3184 -3.3308
  988MOL0     H33354  -1.776   4.219   4.108  0.3145 -0.3177  1.3513
  988MOL0     H33355  -1.858   4.375   4.144  0.2896  0.2130  2.5542
  988MOL0     H33356  -1.711   4.424   4.326  0.8012  1.0720 -1.1768
  988MOL0     H33357  -1.807   4.277   4.354 -0.7409  1.1772 -0.5866
  988MOL0     H33358  -1.511   4.314   4.314  3.4163 -4.0099  1.2246
  988MOL0     H33359  -1.587   4.164   4.252 -5.0962  0.4622 -1.6700
  988MOL0     H33360  -1.500   4.135   4.490 -0.1233 -0.1892  0.1978
  988MOL0     H33361  -1.679   4.132   4.491 -0.9608 -0.6413  0.2072
  988MOL0     H33362  -1.347   4.388   4.012 -1.6769 -0.6507 -0.9350
  988MOL0     H33363  -1.138   4.317   4.119  0.3685 -0.6501  0.0200
  988MOL0     H33364  -0.630   3.981   3.995 -3.1254 -2.7813  1.4915
  988MOL0     H33365  -0.436   3.989   4.126 -1.1945 -2.6140  2.8880
  988MOL0     H33366   0.992   3.601   5.305  0.8341 -0.5130  2.0235
  988MOL0     H33367   1.192   3.511   5.401 -0.1041 -0.8928  1.0220
  988MOL0     H33368   1.638   3.149   5.173 -0.9961 -0.6918 -0.0463
  988MOL0     H33369   1.826   3.055   5.281  2.1085  2.6354  2.3968
  988MOL0     H33370   1.720   2.809   5.517 -0.6512 -1.0872 -0.2333
  988MOL0     H33371   1.846   2.820   5.398 -2.0820  0.9362 -0.7070
  988MOL0     H33372   2.010   2.787   5.593  1.3957 -2.7505 -1.7923
  988MOL0     H33373   1.893   2.651   5.559  1.9914 -0.3127  1.3457
  988MOL0     H33374   1.771   2.706   5.761  1.1724 -2.2861  1.3584
  988MOL0     H33375   1.838   2.863   5.761  1.5293  0.9133 -1.3794
  988MOL0     H33376   2.071   2.771   5.821 -0.1690 -0.1405 -0.2528
  988MOL0     H33377   2.010   2.604   5.793 -1.1788 -1.3298 -0.9410
  988MOL0     H33378   1.898   2.670   6.190 -0.1930  2.4525  0.8792
  988MOL0     H33379   1.618   3.074   5.654  1.8843  0.3718 -0.0472
  988MOL0     H33380   1.421   3.153   5.547  1.9645 -2.0133  3.2942
  989MOL0     O33381   0.094   5.415   9.709 -0.1973 -0.2731  0.3259
  989MOL0     C33382   0.106   5.334   9.615 -0.3670 -1.0401  0.3541
  989MOL0     O33383   0.004   5.291   9.531 -0.0927  0.2479 -0.3402
  989MOL0     C33384  -0.114   5.349   9.544  0.6408 -0.8332  0.0084
  989MOL0     C33385  -0.196   5.341   9.662  0.0481  0.1419  0.5844
  989MOL0     C33386  -0.335   5.372   9.652 -1.1937  0.7234 -0.4723
  989MOL0     C33387  -0.393   5.420   9.532 -0.3353  0.6085 -1.0079
  989MOL0     O33388  -0.533   5.434   9.525 -0.0399 -0.0241 -0.4242
  989MOL0     C33389  -0.626   5.372   9.614  0.3708 -0.5039 -0.0503
  989MOL0     C33390  -0.777   5.363   9.565 -0.0794 -0.1946  0.4157
  989MOL0     C33391  -0.860   5.257   9.645 -0.0113  0.4638  0.7922
  989MOL0     C33392  -1.001   5.311   9.686 -0.4445 -0.4630  1.1063
  989MOL0     C33393  -1.067   5.212   9.785  0.1272 -0.3905 -0.9046
  989MOL0     C33394  -1.216   5.226   9.808  0.2974  0.1721  0.5738
  989MOL0     C33395  -1.301   5.133   9.720 -0.0176 -0.2622 -0.5653
  989MOL0     C33396  -1.444   5.154   9.751  0.5666 -0.9108 -0.5303
  989MOL0     N33397  -1.534   5.077   9.660 -0.2114  0.3058  0.2400
  989MOL0     C33398  -1.579   5.121   9.542  1.0910 -0.4253 -0.2020
  989MOL0     C33399  -1.674   5.035   9.501 -0.2868  0.2283  0.4161
  989MOL0     C33400  -1.756   5.059   9.368 -0.3816 -0.2399 -0.4819
  989MOL0     C33401  -1.906   5.032   9.368 -0.1192 -0.4711 -0.4418
  989MOL0     C33402  -1.983   5.110   9.477 -0.2719 -0.0974  0.3856
  989MOL0     C33403  -2.126   5.098   9.447  0.4320 -0.2886 -0.5873
  989MOL0     O33404  -2.156   5.191   9.340 -0.3097  0.1059 -0.3245
  989MOL0     C33405  -2.290   5.202   9.311  0.0847  0.5823  0.1840
  989MOL0     C33406  -2.394   5.135   9.379  0.2533 -0.2353  0.3961
  989MOL0     C33407  -2.533   5.148   9.362  1.0502 -0.4479  0.5480
  989MOL0     C33408  -2.627   5.067   9.452  0.5478  0.5594 -0.6818
  989MOL0     C33409  -2.576   5.228   9.254  0.8411  0.1192  0.7131
  989MOL0     C33410  -2.723   5.247   9.220 -0.4971 -0.1057 -0.1472
  989MOL0     O33411  -2.746   5.341   9.123 -0.4447 -0.3520 -0.1784
  989MOL0     C33412  -2.878   5.342   9.081 -0.1571  0.8830  0.5083
  989MOL0     C33413  -2.907   5.297   8.954 -1.1913  0.2847 -0.7001
  989MOL0     C33414  -3.038   5.290   8.911  0.5082  0.0489 -0.7866
  989MOL0     C33415  -3.137   5.356   8.985  0.4418  0.0300  0.5971
  989MOL0     O33416  -3.269   5.347   8.942  0.4473 -0.1468 -0.8160
  989MOL0     C33417  -3.300   5.417   8.824  0.5843 -0.7423 -0.2164
  989MOL0     C33418  -3.425   5.365   8.774 -0.1437 -0.9665 -0.1582
  989MOL0     C33419  -3.543   5.413   8.866 -0.0602 -0.7309  0.2398
  989MOL0     C33420  -3.672   5.377   8.808  0.2832 -0.9678  0.4367
  989MOL0     C33421  -3.787   5.494   8.824 -0.2777  1.3276 -0.5011
  989MOL0     C33422  -3.861   5.537   8.695  0.5726 -0.6134  0.3593
  989MOL0     C33423  -3.990   5.608   8.740  0.5300  0.5162  0.2704
  989MOL0     C33424  -4.061   5.677   8.619  0.1539  0.1645 -1.0109
  989MOL0    Cl33425  -4.234   5.716   8.648  0.2909 -0.1252 -0.1983
  989MOL0     C33426  -3.108   5.413   9.103 -0.2945  0.3638  0.5108
  989MOL0     C33427  -2.983   5.406   9.156  0.0522  0.2945  0.2601
  989MOL0     O33428  -2.807   5.177   9.272  0.0226 -0.2773 -0.0910
  989MOL0     C33429  -2.475   5.293   9.179 -0.0453 -0.0116 -0.4321
  989MOL0     C33430  -2.332   5.281   9.208 -0.2413  0.0831  0.4612
  989MOL0     N33431  -1.676   4.924   9.593  0.7400 -0.0510 -0.2088
  989MOL0     N33432  -1.594   4.960   9.689  0.1584  0.4215 -0.2545
  989MOL0     C33433  -0.310   5.422   9.421 -0.1299  0.9400  0.8251
  989MOL0     C33434  -0.175   5.389   9.424  0.5537 -0.0130 -0.0877
  989MOL0     C33435   0.241   5.281   9.588  0.1457  0.3057  0.5561
  989MOL0     C33436   0.355   5.310   9.664  0.3521  0.0351 -0.4349
  989MOL0     C33437   0.482   5.255   9.621  0.3841 -0.8227 -0.0721
  989MOL0     C33438   0.493   5.174   9.514 -0.4805  0.6374 -0.3141
  989MOL0     O33439   0.615   5.110   9.495  0.1431  0.1679 -0.4550
  989MOL0     C33440   0.633   5.030   9.383  0.3265  0.2980 -0.3299
  989MOL0     C33441   0.779   4.980   9.369 -0.0175 -0.8002  0.2850
  989MOL0     C33442   0.822   4.922   9.234 -0.9129  0.1849  0.2613
  989MOL0     C33443   0.966   4.961   9.207  0.4761  0.7513 -0.2455
  989MOL0     C33444   1.061   4.913   9.306  0.2631 -0.3116 -0.0916
  989MOL0     C33445   1.142   4.872   9.389  0.4449 -0.5083  0.3548
  989MOL0     C33446   0.373   5.139   9.443  0.1920  0.5732  0.3461
  989MOL0     C33447   0.254   5.196   9.479  0.3138  0.5254 -0.0791
  989MOL0     H33448  -0.153   5.306   9.755  1.4048  0.8770  0.2596
  989MOL0     H33449  -0.392   5.365   9.744  3.5617 -0.1521  2.8049
  989MOL0     H33450  -0.594   5.268   9.626  0.0817 -0.4618  1.1407
  989MOL0     H33451  -0.626   5.412   9.716 -1.1250 -1.4896  0.3720
  989MOL0     H33452  -0.820   5.463   9.568 -0.4188 -0.0962 -3.1478
  989MOL0     H33453  -0.772   5.338   9.459  0.4225 -1.5774  0.7417
  989MOL0     H33454  -0.880   5.164   9.591 -3.9114  2.5974 -1.8961
  989MOL0     H33455  -0.798   5.225   9.729  1.9867 -2.1570 -1.4735
  989MOL0     H33456  -1.008   5.410   9.731 -1.1466 -0.1281  0.2778
  989MOL0     H33457  -1.067   5.302   9.599  1.2298 -0.1335 -0.2494
  989MOL0     H33458  -1.035   5.111   9.759  1.2076 -0.4644  0.5860
  989MOL0     H33459  -1.026   5.239   9.883  2.2682 -0.8748 -1.6112
  989MOL0     H33460  -1.235   5.198   9.912  2.4107 -0.8913  0.7227
  989MOL0     H33461  -1.252   5.327   9.784  0.4188 -0.1973 -1.3047
  989MOL0     H33462  -1.283   5.170   9.619 -1.6191  1.4217 -0.2957
  989MOL0     H33463  -1.262   5.031   9.724 -0.2668 -0.3254  0.3613
  989MOL0     H33464  -1.462   5.262   9.746 -0.5989 -1.0476  0.3467
  989MOL0     H33465  -1.481   5.128   9.851 -0.5571 -2.1085 -1.2296
  989MOL0     H33466  -1.549   5.212   9.492  0.8490  0.0418  0.5020
  989MOL0     H33467  -1.737   5.162   9.337 -0.0363 -0.1634 -0.0193
  989MOL0     H33468  -1.720   4.987   9.293  1.1344  0.9080 -0.9076
  989MOL0     H33469  -1.924   4.924   9.378 -1.0791 -0.2188  0.8453
  989MOL0     H33470  -1.946   5.058   9.269 -0.5666 -2.1476 -0.7364
  989MOL0     H33471  -1.954   5.214   9.492 -3.0742  1.1711 -2.0150
  989MOL0     H33472  -1.976   5.054   9.571 -2.8314  1.0295  1.3548
  989MOL0     H33473  -2.170   5.130   9.542 -1.4032 -0.3081 -1.3832
  989MOL0     H33474  -2.160   4.996   9.427  2.2350 -0.7308 -1.5543
  989MOL0     H33475  -2.359   5.063   9.452  0.8065 -0.4710 -0.0945
  989MOL0     H33476  -2.699   5.119   9.516  0.3859  0.9166 -1.1454
  989MOL0     H33477  -2.679   4.998   9.385 -0.9299  0.2933  0.6832
  989MOL0     H33478  -2.561   5.010   9.518  0.3332 -0.0765 -1.0119
  989MOL0     H33479  -2.836   5.244   8.891 -2.8465  1.2347 -3.5227
  989MOL0     H33480  -3.069   5.233   8.824  0.5070 -0.6754 -0.3181
  989MOL0     H33481  -3.309   5.523   8.852 -1.2459 -1.1649  0.9487
  989MOL0     H33482  -3.224   5.420   8.746  3.1950  1.4141  2.1884
  989MOL0     H33483  -3.436   5.406   8.673 -0.2481  3.2338  1.3792
  989MOL0     H33484  -3.413   5.257   8.763  2.0131 -0.8265  0.3843
  989MOL0     H33485  -3.543   5.521   8.883  3.0141 -0.7923  1.4226
  989MOL0     H33486  -3.549   5.372   8.967 -0.0353 -0.5959  0.2960
  989MOL0     H33487  -3.652   5.362   8.702  0.1538  0.6072  0.1627
  989MOL0     H33488  -3.702   5.284   8.858  0.5050 -1.3990 -0.2339
  989MOL0     H33489  -3.739   5.581   8.869  1.0256  1.7172 -2.5220
  989MOL0     H33490  -3.857   5.458   8.900  1.9300  0.0249  1.0558
  989MOL0     H33491  -3.815   5.608   8.626 -1.1419 -1.7799 -2.1070
  989MOL0     H33492  -3.887   5.453   8.630 -2.3827  0.6159 -0.2115
  989MOL0     H33493  -3.975   5.691   8.810  3.7142  0.2397  0.0580
  989MOL0     H33494  -4.057   5.529   8.776  0.8697 -0.4460 -1.0875
  989MOL0     H33495  -4.054   5.613   8.530  1.0699 -2.4474  0.8328
  989MOL0     H33496  -4.019   5.776   8.597 -1.0081  0.6020 -1.3164
  989MOL0     H33497  -3.191   5.456   9.156 -1.1889 -0.4889 -0.1603
  989MOL0     H33498  -2.961   5.456   9.250 -0.4426 -1.6216  1.4535
  989MOL0     H33499  -2.494   5.346   9.086  2.6685  1.1991 -0.3801
  989MOL0     H33500  -2.261   5.333   9.144 -2.9770  3.1384 -0.3425
  989MOL0     H33501  -0.360   5.445   9.328  0.8331 -2.6275 -0.7510
  989MOL0     H33502  -0.122   5.392   9.330 -2.2919 -1.8881 -1.8992
  989MOL0     H33503   0.356   5.366   9.757  2.0031  1.4088 -1.2156
  989MOL0     H33504   0.560   5.292   9.686 -3.2474  3.2842  2.5477
  989MOL0     H33505   0.560   4.949   9.389  1.8413 -1.0149  2.5991
  989MOL0     H33506   0.622   5.089   9.291 -1.8030 -1.1018 -1.0172
  989MOL0     H33507   0.801   4.912   9.452 -1.8554 -2.4986 -0.5265
  989MOL0     H33508   0.846   5.066   9.374  0.1177 -0.9612  1.5603
  989MOL0     H33509   0.752   4.947   9.153  0.4012 -1.6693 -1.5320
  989MOL0     H33510   0.824   4.814   9.248 -2.2994  0.1671  0.5147
  989MOL0     H33511   0.975   5.069   9.195  0.5599  0.5615 -2.3000
  989MOL0     H33512   0.998   4.924   9.109 -1.1701 -1.3360 -0.0788
  989MOL0     H33513   1.208   4.835   9.466  0.8781 -0.1538  0.1617
  989MOL0     H33514   0.379   5.066   9.362  0.2119  0.1916  0.6901
  989MOL0     H33515   0.166   5.162   9.426 -0.1106  3.6093 -1.5541
  990MOL0     O33516   0.987   0.587   9.870 -0.7569 -0.4990  0.3257
  990MOL0     C33517   1.042   0.481   9.842 -0.0753 -0.1313  1.0089
  990MOL0     O33518   1.172   0.476   9.803 -0.6801 -0.2016  0.2945
  990MOL0     C33519   1.242   0.587   9.758  0.6640 -0.4780 -0.7891
  990MOL0     C33520   1.365   0.602   9.814  0.2039 -0.1754 -0.6310
  990MOL0     C33521   1.434   0.713   9.782  0.6382 -0.0075  0.3431
  990MOL0     C33522   1.373   0.821   9.702  0.4510  0.8753 -0.6679
  990MOL0     O33523   1.446   0.924   9.664  0.1119 -0.4760 -0.4968
  990MOL0     C33524   1.574   0.892   9.609  0.5989  0.4495 -1.1014
  990MOL0     C33525   1.626   1.003   9.521 -0.1731  0.3438 -0.5155
  990MOL0     C33526   1.654   1.136   9.604  0.6358  0.3402 -0.1143
  990MOL0     C33527   1.673   1.270   9.521  0.6614  0.2004  0.3203
  990MOL0     C33528   1.807   1.268   9.435  0.1134  0.6907  0.1735
  990MOL0     C33529   1.854   1.408   9.396  0.3582 -0.3786  0.8401
  990MOL0     C33530   1.743   1.489   9.322  1.0655  0.7081 -0.8349
  990MOL0     C33531   1.794   1.615   9.257  0.6875 -0.2711 -0.5121
  990MOL0     N33532   1.707   1.684   9.166 -0.0239  0.0708  0.5195
  990MOL0     C33533   1.566   1.690   9.153  0.7306 -0.4394 -0.2596
  990MOL0     C33534   1.539   1.765   9.039  0.6371  0.6194 -0.3383
  990MOL0     C33535   1.406   1.791   8.976 -0.3899 -0.2354  0.7168
  990MOL0     C33536   1.280   1.804   9.060 -1.0006 -0.3950 -0.1457
  990MOL0     C33537   1.142   1.834   8.991 -0.2831 -0.5452  0.1270
  990MOL0     C33538   1.117   1.988   8.981 -0.2651  0.0566  0.6472
  990MOL0     O33539   0.983   1.997   8.938 -0.1846  0.6825  0.1875
  990MOL0     C33540   0.908   2.112   8.956 -1.6383 -0.3339 -0.5374
  990MOL0     C33541   0.971   2.234   8.975 -1.1905 -0.2785 -1.1063
  990MOL0     C33542   0.893   2.350   8.996 -0.6060 -0.3511  0.4511
  990MOL0     C33543   0.963   2.474   9.031  0.1667  0.4353  0.1872
  990MOL0     C33544   0.753   2.345   8.986 -0.1467  0.7464 -0.3619
  990MOL0     C33545   0.677   2.460   9.009  0.1374 -0.3010 -0.1934
  990MOL0     O33546   0.688   2.549   8.914  0.1079 -0.6683 -0.0331
  990MOL0     C33547   0.625   2.672   8.934 -0.0409  0.2434 -0.0243
  990MOL0     C33548   0.676   2.787   8.995 -0.1817  0.7704  0.2580
  990MOL0     C33549   0.590   2.892   9.025  0.1428 -0.4935 -0.1601
  990MOL0     C33550   0.451   2.892   9.000  0.6650  0.2623 -0.8432
  990MOL0     O33551   0.381   2.994   9.055  1.0380  0.1557  0.9383
  990MOL0     C33552   0.236   2.991   9.060  0.5772 -0.6780  0.1015
  990MOL0     C33553   0.172   2.933   9.189  0.1103  1.2714  0.1908
  990MOL0     C33554   0.012   2.936   9.181  0.1052  0.0024  0.8254
  990MOL0     C33555  -0.060   2.864   9.293  0.3591  0.9467 -0.6463
  990MOL0     C33556  -0.070   2.955   9.419 -0.0990  0.1471  0.0281
  990MOL0     C33557  -0.145   2.885   9.534 -0.3949  0.2441  0.2287
  990MOL0     C33558  -0.144   2.976   9.655  0.6403 -0.7165 -0.2182
  990MOL0     C33559  -0.195   2.896   9.779 -0.4769 -1.1635  0.2715
  990MOL0    Cl33560  -0.220   3.000   9.921  0.0285 -0.3692 -0.4865
  990MOL0     C33561   0.399   2.776   8.936 -0.8323  0.3922 -0.6087
  990MOL0     C33562   0.490   2.671   8.904 -0.4143  0.0889  0.4222
  990MOL0     O33563   0.605   2.460   9.106  0.6215  0.8411 -0.4409
  990MOL0     C33564   0.691   2.225   8.947  0.5464  1.0546 -0.6968
  990MOL0     C33565   0.772   2.107   8.928 -0.2518 -0.8476 -1.3075
  990MOL0     N33566   1.661   1.784   8.983  0.2833  0.3175  0.1989
  990MOL0     N33567   1.760   1.754   9.061  0.9779  0.1660 -0.4525
  990MOL0     C33568   1.244   0.811   9.657  0.2727 -0.3707 -0.8212
  990MOL0     C33569   1.182   0.688   9.676 -0.3588  0.2802 -0.2057
  990MOL0     C33570   0.975   0.353   9.846  0.6122 -0.0475  0.3704
  990MOL0     C33571   0.833   0.342   9.851 -0.5441 -0.0356 -0.8543
  990MOL0     C33572   0.771   0.222   9.852  0.1707  1.2599 -0.0502
  990MOL0     C33573   0.837   0.101   9.824 -0.1265  0.1123  0.0227
  990MOL0     O33574   0.773  -0.011   9.810 -0.4842 -0.1352  0.6027
  990MOL0     C33575   0.788  -0.076   9.685  0.0549 -0.1746  0.5877
  990MOL0     C33576   0.661  -0.130   9.635  0.5227 -0.0012  0.1149
  990MOL0     C33577   0.665  -0.185   9.483 -0.3516  0.1951  0.8926
  990MOL0     C33578   0.541  -0.265   9.443 -0.3080 -0.4548  0.0693
  990MOL0     C33579   0.418  -0.189   9.469  0.0305 -0.3042  1.1539
  990MOL0     C33580   0.305  -0.135   9.474  0.4030  0.0205  0.2213
  990MOL0     C33581   0.981   0.107   9.820  0.1787  0.1024  0.5975
  990MOL0     C33582   1.043   0.231   9.830  0.0242 -0.1708 -0.2105
  990MOL0     H33583   1.415   0.524   9.871 -0.3986  1.8999  3.0901
  990MOL0     H33584   1.538   0.722   9.811  0.0932  3.1763  1.7571
  990MOL0     H33585   1.648   0.891   9.689  2.5633  1.8752 -2.7939
  990MOL0     H33586   1.569   0.796   9.558 -1.2539  1.1294 -2.2951
  990MOL0     H33587   1.721   0.971   9.479  0.6823 -2.4552  3.0731
  990MOL0     H33588   1.557   1.016   9.437  3.0439 -2.3198 -3.8774
  990MOL0     H33589   1.571   1.143   9.675  1.6199 -0.8975  1.2139
  990MOL0     H33590   1.743   1.113   9.663  0.7590  1.7990  0.3142
  990MOL0     H33591   1.588   1.280   9.453  0.2593 -0.2411  0.7429
  990MOL0     H33592   1.676   1.352   9.593  1.3167  0.1043  0.4082
  990MOL0     H33593   1.888   1.224   9.493  0.5289  2.4166  0.9538
  990MOL0     H33594   1.785   1.202   9.351 -0.4614  1.4488 -0.2874
  990MOL0     H33595   1.896   1.459   9.484  1.3268  0.6144 -0.1577
  990MOL0     H33596   1.942   1.394   9.333 -0.0076  0.2227  0.1838
  990MOL0     H33597   1.698   1.431   9.241  2.0221 -0.3270 -0.6524
  990MOL0     H33598   1.666   1.521   9.393  2.3634 -0.6037  1.2678
  990MOL0     H33599   1.896   1.602   9.218  1.0900 -2.4193  1.0709
  990MOL0     H33600   1.795   1.686   9.340 -1.7402  0.2010 -0.8087
  990MOL0     H33601   1.493   1.639   9.216  2.6691 -0.8589  1.7951
  990MOL0     H33602   1.421   1.881   8.915  3.7375 -1.9859 -1.2410
  990MOL0     H33603   1.381   1.718   8.898  0.9668  0.0469 -0.0220
  990MOL0     H33604   1.303   1.877   9.138  1.6903  0.7067 -1.8432
  990MOL0     H33605   1.270   1.708   9.111 -1.6424  0.2077  0.9003
  990MOL0     H33606   1.062   1.791   9.053 -0.5403  1.1404  1.0144
  990MOL0     H33607   1.141   1.782   8.895 -0.3474  0.0503 -0.1960
  990MOL0     H33608   1.187   2.033   8.911  2.7926 -1.2073  2.6816
  990MOL0     H33609   1.125   2.039   9.078  0.4634  0.6286  0.2938
  990MOL0     H33610   1.078   2.250   8.978 -1.1551 -0.6329 -0.2281
  990MOL0     H33611   0.955   2.543   8.947 -0.4976  1.7728  1.3155
  990MOL0     H33612   0.927   2.516   9.125  0.6979  2.8652 -0.6252
  990MOL0     H33613   1.072   2.471   9.037  0.1765  1.4386  0.6194
  990MOL0     H33614   0.778   2.788   9.030  0.4613  0.9955 -1.5272
  990MOL0     H33615   0.638   2.974   9.080  0.3611 -0.2541 -0.7006
  990MOL0     H33616   0.217   3.099   9.055  0.9405 -0.5837  0.7307
  990MOL0     H33617   0.198   2.936   8.974  0.8035 -1.3526  0.4238
  990MOL0     H33618   0.210   2.831   9.204 -0.3539  1.2652  1.4859
  990MOL0     H33619   0.207   2.988   9.277  1.2548  2.8687 -1.2095
  990MOL0     H33620  -0.011   2.879   9.090  1.6207  0.0816  0.3650
  990MOL0     H33621  -0.029   3.036   9.163  1.1599  0.4124  0.6059
  990MOL0     H33622  -0.160   2.831   9.262 -0.6673  1.7447  1.5365
  990MOL0     H33623  -0.002   2.780   9.331 -0.3697  1.2891  1.3642
  990MOL0     H33624  -0.132   3.041   9.395 -1.1076 -0.3110  0.9388
  990MOL0     H33625   0.032   2.977   9.452  0.6766 -0.6224 -1.7028
  990MOL0     H33626  -0.246   2.857   9.505  0.6612 -2.6043 -1.0678
  990MOL0     H33627  -0.106   2.789   9.570 -0.7756 -0.3107 -0.8055
  990MOL0     H33628  -0.205   3.067   9.644  2.7835  0.9872  1.1063
  990MOL0     H33629  -0.044   3.014   9.676  0.6595 -0.7654 -0.2210
  990MOL0     H33630  -0.114   2.831   9.814  1.9548  2.1771  1.2928
  990MOL0     H33631  -0.286   2.842   9.753 -1.3657  0.2654  0.3372
  990MOL0     H33632   0.292   2.773   8.920 -0.6225 -0.1552 -2.0416
  990MOL0     H33633   0.452   2.579   8.861  3.4318 -1.2296 -0.5397
  990MOL0     H33634   0.583   2.226   8.941  0.4361 -0.1779  0.6194
  990MOL0     H33635   0.723   2.013   8.904 -1.1267 -0.7424 -0.0222
  990MOL0     H33636   1.193   0.886   9.599  1.4500 -1.5491 -3.5536
  990MOL0     H33637   1.083   0.684   9.634 -0.1217  0.3970 -0.7786
  990MOL0     H33638   0.776   0.434   9.862 -0.6321 -0.3809  3.5192
  990MOL0     H33639   0.663   0.215   9.853  0.2285 -1.0401  2.3085
  990MOL0     H33640   0.830  -0.007   9.612  1.0634  0.5311  1.7993
  990MOL0     H33641   0.861  -0.157   9.679  1.3216  1.0699 -2.6221
  990MOL0     H33642   0.590  -0.047   9.625  0.3008 -0.2908 -0.8265
  990MOL0     H33643   0.621  -0.203   9.706 -1.3411 -0.4203 -1.2850
  990MOL0     H33644   0.752  -0.244   9.455 -0.5885  0.6668 -0.9632
  990MOL0     H33645   0.674  -0.096   9.419  0.4235 -0.7964 -0.4176
  990MOL0     H33646   0.549  -0.363   9.489  3.0325 -0.0985  0.4835
  990MOL0     H33647   0.546  -0.281   9.335 -1.7931  1.3843 -0.3305
  990MOL0     H33648   0.207  -0.093   9.482  0.8909  1.9162 -2.5010
  990MOL0     H33649   1.041   0.018   9.804 -0.4482 -0.0405 -1.1262
  990MOL0     H33650   1.151   0.226   9.834 -0.0583 -3.2049  3.4537
  991MOL0     O33651  11.235   1.974   1.688  0.7019 -0.0948  0.0848
  991MOL0     C33652  11.269   1.881   1.754  0.7812  0.5911  0.1516
  991MOL0     O33653  11.190   1.790   1.812 -0.8422 -0.2493  0.7216
  991MOL0     C33654  11.057   1.817   1.822  0.0910 -0.4195  0.0822
  991MOL0     C33655  11.003   1.814   1.951 -0.2391  0.0914 -0.1021
  991MOL0     C33656  10.871   1.837   1.979 -0.5238 -0.1988  0.2101
  991MOL0     C33657  10.778   1.869   1.876 -0.6780  0.2672  0.9334
  991MOL0     O33658  10.644   1.882   1.901  0.1504 -0.6303 -0.1019
  991MOL0     C33659  10.553   1.947   1.802  0.5786  0.6139  0.5283
  991MOL0     C33660  10.438   1.845   1.773 -0.0387 -0.1288  0.2764
  991MOL0     C33661  10.387   1.883   1.636 -0.3744  0.4908 -0.3203
  991MOL0     C33662  10.294   2.009   1.645  0.2255  0.4193 -0.1300
  991MOL0     C33663  10.209   2.034   1.524  0.4719 -0.1941 -0.1667
  991MOL0     C33664  10.140   2.161   1.540 -1.4722 -0.7534  0.4543
  991MOL0     C33665  10.050   2.186   1.421  0.0457  0.1904 -0.2497
  991MOL0     C33666   9.997   2.332   1.425  0.2353  0.1650 -0.2921
  991MOL0     N33667   9.920   2.378   1.310  0.4978 -0.3047  0.0515
  991MOL0     C33668   9.891   2.300   1.203  0.1280  0.1395  0.3660
  991MOL0     C33669   9.806   2.386   1.130 -0.8516 -0.0683  0.4094
  991MOL0     C33670   9.727   2.357   1.006 -0.3859  0.3056 -0.7680
  991MOL0     C33671   9.761   2.455   0.895 -0.6591  0.8595 -0.4493
  991MOL0     C33672   9.909   2.428   0.839  0.7404 -0.3312 -0.0481
  991MOL0     C33673  10.007   2.493   0.930 -0.3046  0.3928  0.4130
  991MOL0     O33674  10.137   2.501   0.874  0.2076  0.0565 -0.5361
  991MOL0     C33675  10.252   2.485   0.951 -0.6926 -0.9585  0.5187
  991MOL0     C33676  10.263   2.502   1.093 -0.1814 -0.1938  0.6034
  991MOL0     C33677  10.391   2.474   1.151  0.3733  0.1391 -0.9581
  991MOL0     C33678  10.384   2.455   1.308 -0.9655 -0.3007  0.5038
  991MOL0     C33679  10.505   2.429   1.076 -0.0926 -0.7125 -0.6735
  991MOL0     C33680  10.633   2.393   1.138  0.1156 -0.8260 -0.2809
  991MOL0     O33681  10.699   2.287   1.076  0.1221 -0.6525 -0.8180
  991MOL0     C33682  10.815   2.247   1.126 -0.4957 -0.5983  0.2743
  991MOL0     C33683  10.835   2.175   1.247 -0.4665 -0.8848 -0.0212
  991MOL0     C33684  10.964   2.120   1.268  0.1291 -0.6798 -0.8518
  991MOL0     C33685  11.073   2.156   1.184  0.8620  0.2850  0.3259
  991MOL0     O33686  11.199   2.113   1.216 -0.1226 -0.1763  0.2730
  991MOL0     C33687  11.224   2.024   1.330 -0.2464  0.6446  0.2025
  991MOL0     C33688  11.370   1.978   1.315  0.1802  0.3746 -0.6461
  991MOL0     C33689  11.485   2.077   1.350  0.7551  0.0045  0.7424
  991MOL0     C33690  11.611   1.994   1.371  0.4974  0.3621  0.4297
  991MOL0     C33691  11.735   2.079   1.406  0.8725 -0.6276  0.7855
  991MOL0     C33692  11.860   1.996   1.431 -0.1184 -0.1711  0.0954
  991MOL0     C33693  11.978   2.084   1.466  0.2637  0.1903 -0.1215
  991MOL0     C33694  12.076   2.007   1.550  0.3116  0.1926  0.0511
  991MOL0    Cl33695  12.144   1.862   1.482  0.0091  0.2407  0.3965
  991MOL0     C33696  11.047   2.224   1.061  0.7308  0.6661 -0.1009
  991MOL0     C33697  10.919   2.271   1.033 -0.8598 -0.5925  0.6026
  991MOL0     O33698  10.674   2.458   1.233  0.1436  1.2282 -0.8407
  991MOL0     C33699  10.494   2.428   0.932  1.0454  0.1608  1.0259
  991MOL0     C33700  10.369   2.459   0.870  0.5532 -0.1494 -0.6011
  991MOL0     N33701   9.769   2.492   1.212 -0.2055  0.0365 -0.4706
  991MOL0     N33702   9.833   2.482   1.326  0.1311  0.0406 -0.7630
  991MOL0     C33703  10.830   1.861   1.747 -0.2062 -0.8050 -0.8573
  991MOL0     C33704  10.965   1.835   1.720  0.0497 -0.0525  0.3090
  991MOL0     C33705  11.410   1.861   1.781 -0.0702 -0.4014  0.4568
  991MOL0     C33706  11.455   1.751   1.857  0.1448 -0.3102 -0.0359
  991MOL0     C33707  11.593   1.719   1.861 -0.0127 -0.1110 -0.2180
  991MOL0     C33708  11.686   1.807   1.796 -0.6288  0.2152 -0.4666
  991MOL0     O33709  11.824   1.793   1.811  0.0601  0.3679 -0.4791
  991MOL0     C33710  11.865   1.656   1.833 -0.4315 -0.1890 -0.3638
  991MOL0     C33711  12.007   1.649   1.777 -0.3562  0.2452  0.1337
  991MOL0     C33712  12.104   1.737   1.856  1.2761 -0.0331  0.0551
  991MOL0     C33713  12.167   1.671   1.977  0.4813  0.9759 -0.0631
  991MOL0     C33714  12.250   1.777   2.038 -0.6933 -0.5227 -0.4585
  991MOL0     C33715  12.327   1.861   2.086  0.4841  1.0118 -0.1388
  991MOL0     C33716  11.642   1.926   1.747  0.3949  0.8193 -0.4892
  991MOL0     C33717  11.503   1.951   1.731 -0.2528 -0.1925  1.1731
  991MOL0     H33718  11.075   1.789   2.028 -0.2609 -3.4765 -1.0501
  991MOL0     H33719  10.832   1.833   2.081  1.2221  1.0395  0.9871
  991MOL0     H33720  10.505   2.032   1.851 -0.4504 -0.6142  1.7548
  991MOL0     H33721  10.609   1.979   1.714  2.7469 -0.3197  1.4885
  991MOL0     H33722  10.484   1.746   1.763  1.3867  0.3321  1.8072
  991MOL0     H33723  10.371   1.834   1.858 -1.6593  0.5129 -0.8826
  991MOL0     H33724  10.468   1.893   1.563  0.5465 -2.4291  0.1766
  991MOL0     H33725  10.322   1.805   1.596  0.5365 -1.3093  1.5254
  991MOL0     H33726  10.237   2.004   1.738 -0.7292  1.3899 -0.6385
  991MOL0     H33727  10.367   2.090   1.658  0.7230 -0.3595  2.3600
  991MOL0     H33728  10.279   2.040   1.440  0.6053  3.7471  0.0652
  991MOL0     H33729  10.131   1.958   1.514 -0.9197  1.4370 -2.6285
  991MOL0     H33730  10.101   2.165   1.642 -0.1782  1.2441  0.9298
  991MOL0     H33731  10.220   2.235   1.540 -2.9878  0.9591 -0.2473
  991MOL0     H33732  10.111   2.168   1.333 -0.6968 -0.1169 -0.7089
  991MOL0     H33733   9.971   2.110   1.429  0.3020 -0.0227  0.3207
  991MOL0     H33734  10.075   2.409   1.425 -0.2271  0.6370 -1.2346
  991MOL0     H33735   9.939   2.353   1.515  1.8881  0.4049  0.7708
  991MOL0     H33736   9.931   2.204   1.173  0.6127  0.3081  0.4582
  991MOL0     H33737   9.738   2.251   0.982 -1.5770 -1.3090  4.5754
  991MOL0     H33738   9.622   2.377   1.029 -0.6042 -0.0836 -1.4052
  991MOL0     H33739   9.746   2.560   0.919 -1.9887  0.5883  0.0008
  991MOL0     H33740   9.692   2.433   0.813 -2.1563  2.3027  0.3703
  991MOL0     H33741   9.925   2.481   0.745 -0.3309  3.2987  1.6392
  991MOL0     H33742   9.934   2.322   0.824  5.1007  0.7604 -2.4455
  991MOL0     H33743  10.011   2.437   1.024 -0.1897  1.0562  0.8054
  991MOL0     H33744   9.968   2.594   0.939  0.3436  0.6560  0.3295
  991MOL0     H33745  10.168   2.523   1.140 -0.2156 -0.3628  0.6082
  991MOL0     H33746  10.462   2.515   1.355 -1.1158 -2.6232  4.1387
  991MOL0     H33747  10.293   2.488   1.358  0.6548  2.1719  2.0380
  991MOL0     H33748  10.390   2.349   1.336  0.5375 -0.8297 -1.5174
  991MOL0     H33749  10.751   2.154   1.313 -1.6264 -1.4432 -1.6169
  991MOL0     H33750  10.978   2.059   1.357  0.6262 -1.7775 -1.6579
  991MOL0     H33751  11.191   2.067   1.425 -1.1042 -2.2458  1.3406
  991MOL0     H33752  11.161   1.934   1.322 -0.1169  0.7044 -1.9664
  991MOL0     H33753  11.378   1.898   1.389 -0.8220  2.1210  1.4779
  991MOL0     H33754  11.373   1.937   1.214 -3.3020  0.6988 -0.9969
  991MOL0     H33755  11.466   2.137   1.439 -2.5681 -0.5333  0.5063
  991MOL0     H33756  11.489   2.147   1.265 -2.6396 -0.1888  0.3070
  991MOL0     H33757  11.585   1.925   1.452 -0.0994 -1.9028 -1.5821
  991MOL0     H33758  11.630   1.930   1.284 -1.0073 -1.1638  1.1643
  991MOL0     H33759  11.705   2.135   1.495  2.1215  3.1109 -0.9044
  991MOL0     H33760  11.747   2.156   1.329 -0.4756 -1.4499 -0.2933
  991MOL0     H33761  11.846   1.923   1.512 -0.9103 -1.4366 -1.1446
  991MOL0     H33762  11.892   1.942   1.342  0.3419 -0.6104  0.5157
  991MOL0     H33763  11.938   2.171   1.520  1.4946  1.0139 -0.4897
  991MOL0     H33764  12.033   2.122   1.380  1.6202 -1.3606  0.0128
  991MOL0     H33765  12.029   1.981   1.646 -0.2691  1.4172  0.1160
  991MOL0     H33766  12.167   2.066   1.566  1.9584 -1.4972 -2.3938
  991MOL0     H33767  11.132   2.226   0.994 -0.2572 -1.3364 -1.5183
  991MOL0     H33768  10.885   2.325   0.945 -0.0268  2.8601  2.2158
  991MOL0     H33769  10.574   2.410   0.860 -1.8261  2.3353 -3.1170
  991MOL0     H33770  10.356   2.465   0.762 -1.1494 -0.5196 -0.4410
  991MOL0     H33771  10.774   1.880   1.657  1.2706 -1.0438 -1.8653
  991MOL0     H33772  10.989   1.842   1.614  1.2846 -0.1263  0.5735
  991MOL0     H33773  11.380   1.690   1.907 -0.6828 -0.1243 -1.0242
  991MOL0     H33774  11.620   1.639   1.930  0.4413  0.4134  0.2177
  991MOL0     H33775  11.869   1.628   1.938  1.9500  2.6328  0.4237
  991MOL0     H33776  11.798   1.584   1.786 -0.8438 -0.3875  0.5225
  991MOL0     H33777  11.993   1.684   1.674 -4.0750 -0.9548  0.0847
  991MOL0     H33778  12.038   1.544   1.775 -2.2550 -0.4226 -3.3710
  991MOL0     H33779  12.042   1.821   1.887  0.1929 -1.0235  0.6783
  991MOL0     H33780  12.173   1.774   1.779 -1.9561  1.9415 -2.1579
  991MOL0     H33781  12.221   1.585   1.935 -0.4208 -0.2536  1.1911
  991MOL0     H33782  12.090   1.632   2.044 -1.2011 -3.6300 -4.0378
  991MOL0     H33783  12.395   1.939   2.116  1.8381 -0.3686  0.5305
  991MOL0     H33784  11.701   2.013   1.719  1.5283  0.3680  0.3976
  991MOL0     H33785  11.468   2.041   1.680 -2.0577 -1.9028 -0.7915
  992MOL0     O33786   6.552   5.876   3.175  0.2914 -0.0060  0.4816
  992MOL0     C33787   6.622   5.930   3.254  0.1726 -0.1603  0.1009
  992MOL0     O33788   6.603   6.050   3.302  0.1303 -0.1909 -0.2688
  992MOL0     C33789   6.526   6.141   3.243  0.3121 -0.0426  0.7537
  992MOL0     C33790   6.387   6.127   3.254 -0.1777 -0.0541  0.2904
  992MOL0     C33791   6.296   6.206   3.186 -0.7893  0.9871  0.8659
  992MOL0     C33792   6.338   6.300   3.099  0.5373  0.4109 -0.6497
  992MOL0     O33793   6.243   6.371   3.041  0.7172  0.3697 -0.1611
  992MOL0     C33794   6.268   6.514   3.025  0.1181 -0.6166 -0.3084
  992MOL0     C33795   6.136   6.596   3.038 -0.2195  0.2060 -0.7440
  992MOL0     C33796   6.064   6.582   3.166  1.2603  0.0589  0.4976
  992MOL0     C33797   5.989   6.715   3.207  0.5931  0.8757 -0.5043
  992MOL0     C33798   5.911   6.807   3.103  0.3738 -0.6936 -0.4063
  992MOL0     C33799   5.907   6.955   3.145 -0.0435  0.3087  0.0192
  992MOL0     C33800   5.820   7.027   3.044  0.4070  0.3204 -0.4635
  992MOL0     C33801   5.771   7.159   3.099 -0.1940 -0.5169 -0.1538
  992MOL0     N33802   5.652   7.150   3.187 -0.1682  0.9068  0.9880
  992MOL0     C33803   5.562   7.251   3.196  0.6294  0.2624 -0.4437
  992MOL0     C33804   5.474   7.217   3.298 -0.5899  0.6182  0.5024
  992MOL0     C33805   5.366   7.307   3.342 -0.0822 -0.7330  0.2402
  992MOL0     C33806   5.231   7.264   3.264  0.5812 -0.4773 -0.6221
  992MOL0     C33807   5.135   7.167   3.330 -0.0271 -0.2511  0.5487
  992MOL0     C33808   5.097   7.197   3.473 -0.1468 -0.0113  0.7327
  992MOL0     O33809   5.057   7.339   3.494  0.3565 -0.1494 -0.2829
  992MOL0     C33810   4.946   7.397   3.429 -0.2666 -0.2730  0.4272
  992MOL0     C33811   4.840   7.334   3.361 -0.9175 -0.3489 -0.0903
  992MOL0     C33812   4.720   7.402   3.321  0.2280  0.0214  0.7737
  992MOL0     C33813   4.628   7.317   3.238  0.2483  0.6479  0.5858
  992MOL0     C33814   4.699   7.539   3.355 -0.1735 -0.3652 -0.2179
  992MOL0     C33815   4.586   7.620   3.315  0.4853  0.6899  0.1090
  992MOL0     O33816   4.472   7.548   3.299 -0.0546 -0.3469 -0.8499
  992MOL0     C33817   4.348   7.608   3.262  0.3591 -0.0106 -0.3235
  992MOL0     C33818   4.241   7.552   3.329 -0.2608 -0.5704 -0.1042
  992MOL0     C33819   4.109   7.604   3.323 -0.1314 -0.1632 -0.4484
  992MOL0     C33820   4.088   7.713   3.245  0.0236 -0.3933  0.1814
  992MOL0     O33821   3.961   7.760   3.234 -0.1949 -0.3876  0.5468
  992MOL0     C33822   3.927   7.792   3.097  0.3860 -0.6074 -0.5135
  992MOL0     C33823   3.772   7.804   3.090 -0.1275 -0.8055 -0.1987
  992MOL0     C33824   3.717   7.919   3.174  0.8312  0.2909 -0.1280
  992MOL0     C33825   3.570   7.938   3.152 -0.0927 -0.6205  0.1576
  992MOL0     C33826   3.510   8.057   3.223  0.0187 -1.2574 -0.3283
  992MOL0     C33827   3.379   8.097   3.162  0.4044  0.8797 -0.0493
  992MOL0     C33828   3.343   8.235   3.215 -0.2844 -0.1010 -0.7529
  992MOL0     C33829   3.206   8.290   3.164 -0.0742 -0.4284  0.7166
  992MOL0    Cl33830   3.064   8.186   3.235  0.1972 -0.3428 -0.1989
  992MOL0     C33831   4.190   7.768   3.164  0.0524  0.5393 -0.6572
  992MOL0     C33832   4.321   7.723   3.183 -0.0689 -0.1104  0.3858
  992MOL0     O33833   4.583   7.743   3.331 -0.1356 -0.0201 -0.2178
  992MOL0     C33834   4.800   7.605   3.430 -0.2207  0.6678  0.7408
  992MOL0     C33835   4.917   7.533   3.456 -0.0020  0.1559  0.5158
  992MOL0     N33836   5.517   7.095   3.344  0.3622 -0.2606 -0.1487
  992MOL0     N33837   5.624   7.058   3.283 -0.3641 -0.0520 -0.2776
  992MOL0     C33838   6.477   6.315   3.080 -0.2020 -0.0626 -0.3983
  992MOL0     C33839   6.578   6.236   3.150  0.3273 -0.7259  0.2506
  992MOL0     C33840   6.738   5.848   3.313  0.0527  0.5980  0.6239
  992MOL0     C33841   6.763   5.716   3.280 -0.5630  0.8691 -0.0394
  992MOL0     C33842   6.861   5.631   3.337 -0.7948 -0.5212  0.2454
  992MOL0     C33843   6.946   5.693   3.431  0.2748 -1.4100  0.0241
  992MOL0     O33844   7.044   5.631   3.511 -0.0400  0.4779  0.0221
  992MOL0     C33845   7.113   5.524   3.453  0.1153  0.4654  0.5189
  992MOL0     C33846   7.205   5.464   3.564  0.4288  0.3016 -0.2289
  992MOL0     C33847   7.298   5.564   3.632 -0.3181  0.2536  0.3409
  992MOL0     C33848   7.301   5.536   3.779 -0.6820 -0.7285 -0.2443
  992MOL0     C33849   7.378   5.627   3.869  0.8935 -0.2493  0.7277
  992MOL0     C33850   7.445   5.700   3.941  0.4965 -0.1908 -0.2817
  992MOL0     C33851   6.941   5.828   3.455  0.0610 -0.1926 -0.0328
  992MOL0     C33852   6.828   5.908   3.404  0.2819 -0.2773  0.8373
  992MOL0     H33853   6.352   6.043   3.313  1.9662 -2.2778 -1.3795
  992MOL0     H33854   6.190   6.182   3.182 -0.4781 -0.7679  1.8660
  992MOL0     H33855   6.328   6.553   3.108 -1.9099 -2.1899  2.0441
  992MOL0     H33856   6.302   6.542   2.925  0.1632 -1.6067 -0.5787
  992MOL0     H33857   6.167   6.699   3.021  1.0600 -0.0667 -0.1986
  992MOL0     H33858   6.069   6.562   2.958  1.6204 -2.0844 -1.4404
  992MOL0     H33859   5.991   6.502   3.153  1.5884 -0.3320  1.0723
  992MOL0     H33860   6.129   6.545   3.245  2.0612  0.3430 -0.0155
  992MOL0     H33861   5.907   6.685   3.272  0.8111 -0.9352 -1.0144
  992MOL0     H33862   6.058   6.777   3.266 -1.1241  2.6794 -0.2846
  992MOL0     H33863   5.955   6.803   3.003 -1.2940  1.0561 -1.2853
  992MOL0     H33864   5.807   6.771   3.099  0.5291 -1.0406 -1.6397
  992MOL0     H33865   5.860   6.972   3.243 -0.6259 -1.1355  0.0193
  992MOL0     H33866   6.007   7.000   3.142 -0.5742  1.5834  0.8487
  992MOL0     H33867   5.877   7.041   2.952  0.2771  0.1652 -0.5696
  992MOL0     H33868   5.729   6.969   3.026 -0.4484  0.7406  2.1757
  992MOL0     H33869   5.744   7.223   3.014  0.4054 -2.1432 -1.6375
  992MOL0     H33870   5.858   7.206   3.146 -1.4403  0.5713  1.1424
  992MOL0     H33871   5.564   7.353   3.160 -0.5991  0.5262  0.1909
  992MOL0     H33872   5.339   7.298   3.448 -4.9713 -1.9647 -0.8795
  992MOL0     H33873   5.392   7.411   3.319 -1.0378 -0.4855  0.2150
  992MOL0     H33874   5.257   7.220   3.167 -1.2371  0.0428 -1.4053
  992MOL0     H33875   5.186   7.363   3.248  2.3210  0.6497  1.1101
  992MOL0     H33876   5.172   7.065   3.341  0.0212 -0.2029  0.8261
  992MOL0     H33877   5.046   7.159   3.268 -1.3787  2.8133  1.8823
  992MOL0     H33878   5.176   7.164   3.542  0.0912 -1.2154 -0.0831
  992MOL0     H33879   5.017   7.124   3.487  1.1001 -1.9150 -1.3740
  992MOL0     H33880   4.845   7.227   3.343 -2.4567 -1.0943  3.2584
  992MOL0     H33881   4.553   7.265   3.298 -0.0011 -0.6927 -0.8180
  992MOL0     H33882   4.584   7.381   3.161 -1.1883  1.2806  1.8794
  992MOL0     H33883   4.678   7.240   3.178 -1.5392  0.9997 -1.5053
  992MOL0     H33884   4.262   7.486   3.412  1.9596  1.0136  0.6799
  992MOL0     H33885   4.026   7.553   3.370  0.3453 -0.8214 -0.3179
  992MOL0     H33886   3.974   7.888   3.073  0.4040  0.6039  3.5010
  992MOL0     H33887   3.957   7.709   3.033 -0.5404 -1.4222  0.0876
  992MOL0     H33888   3.743   7.811   2.985 -1.2598 -0.5484  0.1095
  992MOL0     H33889   3.732   7.711   3.132 -0.1419 -1.2111 -1.0991
  992MOL0     H33890   3.768   8.009   3.139 -0.1428  0.7549 -0.3904
  992MOL0     H33891   3.724   7.907   3.283 -1.6712  0.0333  0.0660
  992MOL0     H33892   3.567   7.963   3.046  0.3470  4.5805  1.1419
  992MOL0     H33893   3.504   7.851   3.165 -3.3158  1.6589  0.1411
  992MOL0     H33894   3.584   8.138   3.216 -2.1335  1.1856  2.6241
  992MOL0     H33895   3.512   8.043   3.332  1.9373  1.6107  0.1172
  992MOL0     H33896   3.398   8.100   3.054  2.3211  1.4753  0.2541
  992MOL0     H33897   3.319   8.015   3.202  0.8133 -0.7589 -2.5483
  992MOL0     H33898   3.411   8.312   3.177 -2.6132  0.8549 -3.2800
  992MOL0     H33899   3.332   8.242   3.323 -1.4235 -0.2897 -0.8462
  992MOL0     H33900   3.193   8.307   3.057  2.4594  2.6642  0.7494
  992MOL0     H33901   3.201   8.391   3.204 -1.3697 -0.8493  1.7042
  992MOL0     H33902   4.171   7.859   3.109  1.4565  0.5916 -1.0950
  992MOL0     H33903   4.392   7.792   3.138 -1.8426  0.5585 -1.5442
  992MOL0     H33904   4.786   7.710   3.454  0.1381  0.9839 -0.4006
  992MOL0     H33905   4.992   7.579   3.520 -0.6284  1.2509  0.4880
  992MOL0     H33906   6.517   6.395   3.020  1.2970 -0.7810 -0.4244
  992MOL0     H33907   6.679   6.266   3.126 -0.0828  0.9482  0.5406
  992MOL0     H33908   6.687   5.673   3.217 -2.7950  0.7315  2.5476
  992MOL0     H33909   6.862   5.525   3.313  1.9761 -1.3881  3.3823
  992MOL0     H33910   7.050   5.442   3.416  0.0528  0.1312  1.3506
  992MOL0     H33911   7.164   5.550   3.360  0.4117 -2.9558 -0.4053
  992MOL0     H33912   7.266   5.388   3.513 -2.9433 -0.3277 -3.7891
  992MOL0     H33913   7.140   5.416   3.638 -1.6818 -1.5387 -3.0615
  992MOL0     H33914   7.267   5.668   3.622  1.9328  0.7556 -3.2109
  992MOL0     H33915   7.402   5.566   3.601  0.0111 -0.4852  1.3381
  992MOL0     H33916   7.358   5.443   3.783  0.6498  0.0819 -0.0797
  992MOL0     H33917   7.202   5.511   3.821  0.3647 -0.2322  2.7799
  992MOL0     H33918   7.496   5.755   4.017  0.4463  0.1195 -0.4705
  992MOL0     H33919   7.005   5.874   3.530  0.6582  0.8391 -1.1591
  992MOL0     H33920   6.809   6.011   3.431  0.1974  0.2986 -1.2189
  993MOL0     O33921   3.305   9.282   2.308 -0.2909 -0.4613 -0.8906
  993MOL0     C33922   3.273   9.310   2.429 -1.1844 -0.4069  0.2824
  993MOL0     O33923   3.154   9.346   2.470 -0.1722  0.1221  0.0276
  993MOL0     C33924   3.053   9.314   2.382  0.0700 -0.0699 -0.4294
  993MOL0     C33925   3.035   9.189   2.320 -0.1545  0.0337  0.0334
  993MOL0     C33926   2.926   9.171   2.234  0.3737  0.8282  0.4919
  993MOL0     C33927   2.827   9.273   2.221  0.2647 -0.1273  0.2472
  993MOL0     O33928   2.710   9.231   2.149  0.4399  0.0791 -0.4371
  993MOL0     C33929   2.633   9.346   2.091 -0.1237  0.0267 -0.1045
  993MOL0     C33930   2.569   9.276   1.975 -0.2675 -0.8207 -1.0190
  993MOL0     C33931   2.447   9.350   1.911  0.1912 -0.1627  0.3749
  993MOL0     C33932   2.388   9.277   1.791 -0.1994 -0.1100 -0.2858
  993MOL0     C33933   2.258   9.346   1.744 -0.5329 -0.2317 -0.3313
  993MOL0     C33934   2.286   9.497   1.713  0.0149 -0.5331 -0.7546
  993MOL0     C33935   2.178   9.552   1.617 -0.0779  0.4765  0.8752
  993MOL0     C33936   2.046   9.560   1.688 -0.6369  0.2845 -0.0109
  993MOL0     N33937   1.931   9.583   1.601  0.9687  0.5689 -0.4817
  993MOL0     C33938   1.845   9.484   1.558  0.9177 -0.1175  1.0792
  993MOL0     C33939   1.742   9.553   1.496 -0.1896 -0.4411 -0.6714
  993MOL0     C33940   1.621   9.502   1.440  0.8117  0.2907  0.6043
  993MOL0     C33941   1.651   9.401   1.330  0.4207 -0.4149  0.0413
  993MOL0     C33942   1.537   9.407   1.214 -0.2850 -0.3504 -0.1917
  993MOL0     C33943   1.405   9.340   1.257 -0.1657 -0.5863  0.1563
  993MOL0     O33944   1.344   9.397   1.368 -0.5081 -0.5083 -0.1988
  993MOL0     C33945   1.219   9.346   1.417 -0.8692  0.5143  0.3378
  993MOL0     C33946   1.149   9.412   1.518 -0.3113  0.2682  0.6708
  993MOL0     C33947   1.027   9.367   1.576  0.3185 -0.4012 -0.1572
  993MOL0     C33948   0.954   9.463   1.658  0.1172  0.0967 -0.3162
  993MOL0     C33949   0.973   9.246   1.536  0.1107 -0.2213  0.1763
  993MOL0     C33950   0.858   9.177   1.587  0.6091 -0.0432 -0.0445
  993MOL0     O33951   0.806   9.074   1.517 -0.1081 -0.2757 -0.3467
  993MOL0     C33952   0.682   9.012   1.532 -0.3374 -0.0867  0.4301
  993MOL0     C33953   0.582   9.046   1.632  0.0605  0.9001 -0.6252
  993MOL0     C33954   0.460   8.976   1.642 -0.3032  0.3734  0.2846
  993MOL0     C33955   0.440   8.866   1.563  0.5161  0.2833  0.3832
  993MOL0     O33956   0.324   8.793   1.567 -0.1590 -0.6156 -0.0456
  993MOL0     C33957   0.241   8.795   1.688 -1.3241 -0.7469  0.4437
  993MOL0     C33958   0.118   8.883   1.667 -0.1984 -0.0072 -0.1784
  993MOL0     C33959   0.071   8.913   1.524  0.4659  1.0444  0.7777
  993MOL0     C33960  -0.067   8.996   1.539 -1.0192 -0.1578 -0.1433
  993MOL0     C33961  -0.096   9.041   1.396  0.2057 -1.0264 -0.0315
  993MOL0     C33962  -0.239   9.083   1.386 -0.3761  0.5234 -0.3973
  993MOL0     C33963  -0.279   9.215   1.456 -0.3210  0.5384 -0.2927
  993MOL0     C33964  -0.437   9.227   1.453  0.1039 -1.1128  0.1970
  993MOL0    Cl33965  -0.468   9.367   1.559 -0.3809 -0.0564 -0.0176
  993MOL0     C33966   0.526   8.843   1.458  0.0426 -0.2980 -0.5570
  993MOL0     C33967   0.645   8.909   1.447  0.7284  0.2388 -0.2077
  993MOL0     O33968   0.818   9.212   1.694  0.3796 -0.0903 -0.7163
  993MOL0     C33969   1.046   9.172   1.442 -0.0332 -0.1942  0.0324
  993MOL0     C33970   1.166   9.216   1.384  0.4564  0.3852 -0.4176
  993MOL0     N33971   1.780   9.693   1.515 -1.0805  0.3530  0.9836
  993MOL0     N33972   1.893   9.702   1.571 -0.3631  0.5129 -0.2195
  993MOL0     C33973   2.873   9.403   2.255 -0.0104 -0.4264  0.1959
  993MOL0     C33974   2.975   9.416   2.342  0.4561 -0.2148 -0.5529
  993MOL0     C33975   3.385   9.324   2.530  0.4662  0.0141 -0.6417
  993MOL0     C33976   3.381   9.409   2.649  0.2964  0.5512  0.9395
  993MOL0     C33977   3.496   9.446   2.716  0.0962 -0.3060  0.3666
  993MOL0     C33978   3.615   9.384   2.682 -0.1934  0.2006 -0.6481
  993MOL0     O33979   3.714   9.419   2.765 -0.7737  0.0085  0.4199
  993MOL0     C33980   3.844   9.353   2.765 -0.0046  0.1634  0.1173
  993MOL0     C33981   3.839   9.204   2.802 -1.3072 -0.4726  0.1061
  993MOL0     C33982   3.965   9.132   2.749  0.5502 -0.1854 -0.3406
  993MOL0     C33983   3.982   8.993   2.803 -0.9367  0.2342  0.5235
  993MOL0     C33984   4.113   8.940   2.774 -1.1730 -0.1481  0.8043
  993MOL0     C33985   4.214   8.877   2.748 -0.0898  0.0719  0.5285
  993MOL0     C33986   3.628   9.297   2.575  1.1322 -0.4233  0.0510
  993MOL0     C33987   3.506   9.266   2.499 -0.3856 -1.1732  0.0612
  993MOL0     H33988   3.099   9.107   2.353 -1.9574 -1.4637 -0.0321
  993MOL0     H33989   2.909   9.073   2.190 -1.3116  0.7791  1.1565
  993MOL0     H33990   2.553   9.388   2.154  0.6143  1.9402 -0.3573
  993MOL0     H33991   2.697   9.427   2.055 -0.9337  0.9735  0.5266
  993MOL0     H33992   2.651   9.257   1.905  1.4281 -2.6986  1.2831
  993MOL0     H33993   2.546   9.170   1.994  2.0232 -1.3774 -0.9340
  993MOL0     H33994   2.369   9.371   1.985 -0.4593 -2.1410  0.2846
  993MOL0     H33995   2.482   9.441   1.862  0.0670 -0.3667 -0.0914
  993MOL0     H33996   2.452   9.273   1.703 -2.2091 -3.6307 -1.8030
  993MOL0     H33997   2.373   9.172   1.816  1.2758 -0.2676  0.0456
  993MOL0     H33998   2.228   9.299   1.650  0.8858 -0.2722 -0.7883
  993MOL0     H33999   2.176   9.335   1.817  0.5432 -2.5744  0.6326
  993MOL0     H34000   2.285   9.553   1.807  0.3987  2.7495 -2.5380
  993MOL0     H34001   2.385   9.523   1.672 -0.2888  2.6251  0.2106
  993MOL0     H34002   2.202   9.652   1.581  0.3415  0.0298 -0.1265
  993MOL0     H34003   2.181   9.488   1.529  1.4377 -1.0888  1.9694
  993MOL0     H34004   2.057   9.646   1.755 -3.9616  0.2325  0.7641
  993MOL0     H34005   2.029   9.469   1.746 -1.9092  1.2308  1.1676
  993MOL0     H34006   1.851   9.376   1.563 -1.2503 -0.2516  1.4088
  993MOL0     H34007   1.573   9.445   1.520  0.9514 -1.9125 -0.7776
  993MOL0     H34008   1.561   9.587   1.407  0.0700  1.2905  4.1239
  993MOL0     H34009   1.667   9.298   1.362 -2.3333 -0.3729  1.8915
  993MOL0     H34010   1.747   9.428   1.287 -0.6421  1.0570 -1.5214
  993MOL0     H34011   1.575   9.364   1.120 -1.3533 -2.1999  0.1696
  993MOL0     H34012   1.517   9.510   1.186 -0.8539 -1.2085 -3.3443
  993MOL0     H34013   1.429   9.234   1.266 -0.8076 -0.6150  1.8979
  993MOL0     H34014   1.330   9.333   1.178 -1.3737 -1.1611  1.3196
  993MOL0     H34015   1.191   9.508   1.549 -0.2783 -0.0082  1.5333
  993MOL0     H34016   0.964   9.430   1.762 -0.6837 -3.5151 -1.2286
  993MOL0     H34017   0.990   9.566   1.653 -2.0789  0.9780  0.8151
  993MOL0     H34018   0.851   9.478   1.625 -0.0059 -2.3085 -1.2404
  993MOL0     H34019   0.590   9.128   1.703 -1.0555  0.0606  0.5217
  993MOL0     H34020   0.392   8.999   1.724 -2.9891 -1.6575 -1.2096
  993MOL0     H34021   0.218   8.689   1.687  0.8210 -1.2651 -0.5970
  993MOL0     H34022   0.306   8.827   1.771  1.3671  0.9540 -2.0911
  993MOL0     H34023   0.041   8.855   1.739  0.5900  3.2088  2.1273
  993MOL0     H34024   0.138   8.983   1.706 -0.5034 -0.7164  1.9689
  993MOL0     H34025   0.062   8.823   1.464 -0.3903  1.2909  0.5129
  993MOL0     H34026   0.141   8.985   1.480 -0.8965  0.6650 -2.2479
  993MOL0     H34027  -0.146   8.932   1.579 -0.2812 -1.1601 -0.2606
  993MOL0     H34028  -0.054   9.085   1.602  1.4802 -1.8480  1.9489
  993MOL0     H34029  -0.082   8.952   1.334  0.8468 -0.0080 -1.4029
  993MOL0     H34030  -0.034   9.117   1.348 -2.9694  1.1185 -1.1187
  993MOL0     H34031  -0.270   9.084   1.282 -0.8926  1.3377 -0.2438
  993MOL0     H34032  -0.300   8.998   1.418 -0.0721  0.1020 -0.9188
  993MOL0     H34033  -0.231   9.305   1.418  1.2662  0.3624  1.1592
  993MOL0     H34034  -0.257   9.199   1.562 -3.8009 -2.7872  0.1459
  993MOL0     H34035  -0.494   9.146   1.498 -3.3084 -0.2575 -2.1381
  993MOL0     H34036  -0.480   9.235   1.352 -0.4930 -0.1998  0.5028
  993MOL0     H34037   0.496   8.765   1.389  1.4859 -1.9102  0.5521
  993MOL0     H34038   0.711   8.884   1.364  1.2600  0.6194  0.0899
  993MOL0     H34039   1.021   9.072   1.407 -1.7418  0.8718 -1.9748
  993MOL0     H34040   1.204   9.143   1.314  1.3846  0.2803  0.1639
  993MOL0     H34041   2.815   9.493   2.240  1.6870  0.6709  0.0332
  993MOL0     H34042   2.987   9.513   2.389  0.2061 -0.6308  0.3897
  993MOL0     H34043   3.285   9.454   2.670 -1.7503 -2.0751 -1.7927
  993MOL0     H34044   3.496   9.512   2.803  1.2488 -1.9169  1.6566
  993MOL0     H34045   3.883   9.376   2.665  1.7303 -0.7598  0.5332
  993MOL0     H34046   3.920   9.399   2.829  0.9507  0.7016 -1.3559
  993MOL0     H34047   3.743   9.170   2.762 -3.1745  4.8360 -0.6824
  993MOL0     H34048   3.835   9.188   2.910 -1.4032  0.7184  0.2969
  993MOL0     H34049   4.053   9.184   2.787  0.1073  0.0672  0.3662
  993MOL0     H34050   3.972   9.143   2.640 -0.7220  1.9351 -0.2658
  993MOL0     H34051   3.907   8.921   2.771 -0.8495  0.3694  0.0135
  993MOL0     H34052   3.983   9.014   2.911  4.9438 -1.2354  1.0927
  993MOL0     H34053   4.303   8.825   2.722  1.0809  2.1631  0.1084
  993MOL0     H34054   3.726   9.262   2.545  1.5609  1.1342 -0.5024
  993MOL0     H34055   3.520   9.205   2.410 -2.2851 -1.3126 -0.1860
  994MOL0     O34056  11.186   6.243   1.744  0.8327  0.3584 -0.2350
  994MOL0     C34057  11.230   6.149   1.814 -0.7905 -0.4515  1.0151
  994MOL0     O34058  11.166   6.081   1.919 -0.6061 -1.1498  0.6759
  994MOL0     C34059  11.043   6.123   1.936  0.5977 -0.0208  0.5361
  994MOL0     C34060  10.957   6.085   1.834  0.6332  0.1665  0.0511
  994MOL0     C34061  10.824   6.108   1.843  0.3504  0.2724 -0.0655
  994MOL0     C34062  10.778   6.187   1.950  0.1407 -0.7027  1.1361
  994MOL0     O34063  10.645   6.224   1.967 -0.7705  0.4635  0.0925
  994MOL0     C34064  10.546   6.172   1.872 -0.2372  0.3016 -0.0273
  994MOL0     C34065  10.402   6.208   1.912  0.1224  0.3210 -0.1451
  994MOL0     C34066  10.350   6.117   2.022 -0.0564  0.3067 -0.6458
  994MOL0     C34067  10.205   6.145   2.036 -0.4948  0.5968 -0.0285
  994MOL0     C34068  10.128   6.047   1.938 -0.7309  0.7872  0.2101
  994MOL0     C34069   9.985   6.022   1.983 -0.4106 -0.3777  1.0111
  994MOL0     C34070   9.900   6.151   1.999 -0.7167 -0.7175  0.8613
  994MOL0     C34071   9.756   6.111   2.043 -0.1334 -0.3970  0.2690
  994MOL0     N34072   9.681   6.229   2.067 -0.4471  0.1062 -0.1052
  994MOL0     C34073   9.650   6.270   2.197  0.0547 -0.3210  0.2131
  994MOL0     C34074   9.609   6.392   2.186  0.3464 -0.2498  0.1910
  994MOL0     C34075   9.585   6.493   2.298 -0.0340 -0.4995  0.1877
  994MOL0     C34076   9.450   6.459   2.374 -0.0038  0.6470  0.3484
  994MOL0     C34077   9.325   6.497   2.297  0.2176  0.2926  0.5014
  994MOL0     C34078   9.196   6.458   2.364  0.7850  0.5720 -0.4298
  994MOL0     O34079   9.184   6.315   2.355  0.5982  0.5039  0.3617
  994MOL0     C34080   9.057   6.259   2.361  0.1715  0.1349  0.1717
  994MOL0     C34081   9.054   6.127   2.315  0.1601  0.5719 -0.6785
  994MOL0     C34082   8.946   6.047   2.311  0.7625  0.7747 -0.2701
  994MOL0     C34083   8.958   5.897   2.268  0.1552 -0.0664  1.1405
  994MOL0     C34084   8.825   6.104   2.342  0.6124 -0.2295  0.1679
  994MOL0     C34085   8.696   6.026   2.326  0.3367  0.0668 -0.0738
  994MOL0     O34086   8.626   6.008   2.441 -0.2588  0.8305  0.1182
  994MOL0     C34087   8.502   5.947   2.421 -0.9527 -0.5741 -0.5641
  994MOL0     C34088   8.497   5.813   2.369  0.4692  0.1110 -1.0871
  994MOL0     C34089   8.379   5.732   2.365 -0.5503 -0.5506 -0.9190
  994MOL0     C34090   8.260   5.794   2.421  0.0390  0.5503  0.6157
  994MOL0     O34091   8.145   5.715   2.425  0.1831 -0.2083 -0.3714
  994MOL0     C34092   8.046   5.760   2.336  0.0338 -0.1678  0.5645
  994MOL0     C34093   7.974   5.628   2.296 -0.5049 -0.1662 -0.4315
  994MOL0     C34094   7.855   5.662   2.205  0.8136  0.2213 -1.6266
  994MOL0     C34095   7.771   5.539   2.155 -0.3230 -0.3876 -0.3259
  994MOL0     C34096   7.631   5.571   2.102 -0.7198 -0.1973  0.0701
  994MOL0     C34097   7.542   5.454   2.098  0.6389  0.4481 -0.9366
  994MOL0     C34098   7.402   5.506   2.048 -1.3116 -0.7575 -0.8319
  994MOL0     C34099   7.298   5.395   2.023  0.9234 -0.6511  0.2646
  994MOL0    Cl34100   7.242   5.324   2.167 -0.0159  0.0465 -0.2265
  994MOL0     C34101   8.272   5.922   2.478 -0.9355 -0.8987  0.1306
  994MOL0     C34102   8.388   6.004   2.475  0.5675  0.4049 -0.8418
  994MOL0     O34103   8.656   5.991   2.212 -0.2626 -0.1611 -0.4224
  994MOL0     C34104   8.818   6.239   2.394 -0.3956  0.7879  0.1476
  994MOL0     C34105   8.935   6.319   2.407  0.2585  0.5263  0.5050
  994MOL0     N34106   9.604   6.419   2.051 -0.5739  0.1805 -1.0465
  994MOL0     N34107   9.649   6.326   1.976 -0.8367  0.1539  0.2105
  994MOL0     C34108  10.856   6.229   2.049  0.1419  0.9708  0.0421
  994MOL0     C34109  10.998   6.196   2.047 -0.3458  0.7148  0.2541
  994MOL0     C34110  11.369   6.105   1.784 -0.4493  0.1251  0.0018
  994MOL0     C34111  11.447   6.157   1.681  0.0385  0.0924 -0.0523
  994MOL0     C34112  11.580   6.113   1.663  0.2151  0.1473  0.3681
  994MOL0     C34113  11.643   6.021   1.753 -0.3015 -0.2541  0.5799
  994MOL0     O34114  11.764   5.976   1.726  0.4222 -0.1238  0.2358
  994MOL0     C34115  11.865   6.047   1.803  0.8919 -0.3329  0.5841
  994MOL0     C34116  12.000   6.000   1.769 -0.2199 -0.4040 -0.5966
  994MOL0     C34117  12.017   5.854   1.810 -0.5510 -0.5514 -0.1496
  994MOL0     C34118  12.160   5.812   1.828 -0.7391 -0.1012  0.2873
  994MOL0     C34119  12.243   5.874   1.728  0.6819 -0.2904  0.0168
  994MOL0     C34120  12.312   5.916   1.636 -0.9827  1.1362 -0.3955
  994MOL0     C34121  11.568   5.982   1.868 -1.0452 -0.4162 -0.0044
  994MOL0     C34122  11.431   6.027   1.883 -1.2709  1.2658 -0.2577
  994MOL0     H34123  10.980   6.030   1.743 -2.6639  1.4452 -1.7620
  994MOL0     H34124  10.762   6.070   1.762  1.6087  0.9997 -1.4096
  994MOL0     H34125  10.565   6.224   1.778  3.0140  3.6759  2.2280
  994MOL0     H34126  10.550   6.063   1.867  1.6135  0.3478 -0.4301
  994MOL0     H34127  10.385   6.309   1.951 -1.4317 -0.1871  0.5845
  994MOL0     H34128  10.337   6.197   1.825 -1.6882 -0.0403  1.1852
  994MOL0     H34129  10.371   6.010   2.009 -2.8295 -0.3939 -0.1584
  994MOL0     H34130  10.394   6.143   2.119  1.4632 -1.3241 -0.8432
  994MOL0     H34131  10.180   6.124   2.140 -3.0556  1.7157 -0.3285
  994MOL0     H34132  10.176   6.250   2.032 -1.7115  0.4197  2.5011
  994MOL0     H34133  10.131   6.077   1.833 -1.7728 -2.8893 -1.0495
  994MOL0     H34134  10.173   5.947   1.934 -1.6442  0.3806 -2.7520
  994MOL0     H34135   9.934   5.955   1.913 -2.2897  0.1916  1.7892
  994MOL0     H34136   9.993   5.973   2.080 -2.6915 -0.2770  1.3023
  994MOL0     H34137   9.952   6.223   2.063  3.2745 -0.4906 -2.2615
  994MOL0     H34138   9.897   6.205   1.904 -1.3254 -0.0990  1.2177
  994MOL0     H34139   9.754   6.044   2.129 -0.4758 -1.3667 -0.4680
  994MOL0     H34140   9.711   6.048   1.965 -0.3695 -2.3372  1.8912
  994MOL0     H34141   9.665   6.221   2.292  0.7030  0.3395  0.4579
  994MOL0     H34142   9.677   6.490   2.358  0.2869  0.9160 -0.1790
  994MOL0     H34143   9.568   6.595   2.261 -0.3819 -0.3908  0.6287
  994MOL0     H34144   9.464   6.507   2.472  3.3017  1.7712 -0.5401
  994MOL0     H34145   9.449   6.351   2.390  0.3303  0.2464 -2.0514
  994MOL0     H34146   9.329   6.444   2.201 -0.0254 -0.0442  0.6779
  994MOL0     H34147   9.324   6.602   2.264 -0.3768 -0.4644 -2.1717
  994MOL0     H34148   9.115   6.508   2.311 -0.9666  2.0490  3.2362
  994MOL0     H34149   9.195   6.482   2.471  3.1710  0.3969 -0.3174
  994MOL0     H34150   9.142   6.093   2.261 -0.9873  2.9912 -4.4490
  994MOL0     H34151   8.904   5.836   2.342  0.0521  0.2214  1.3062
  994MOL0     H34152   8.922   5.870   2.168  1.3520 -2.3180  1.2394
  994MOL0     H34153   9.065   5.874   2.268 -0.5640 -4.8384 -1.6899
  994MOL0     H34154   8.589   5.763   2.339  1.1991  0.7343  0.0431
  994MOL0     H34155   8.369   5.629   2.333 -2.1321 -0.2596 -1.4380
  994MOL0     H34156   7.980   5.828   2.391  4.6004  4.8693  0.6480
  994MOL0     H34157   8.083   5.821   2.253 -2.7401  0.6876 -0.1494
  994MOL0     H34158   8.047   5.557   2.257  1.2124  0.3860  1.6007
  994MOL0     H34159   7.948   5.574   2.388  3.1669 -1.6806 -0.1251
  994MOL0     H34160   7.878   5.729   2.122  2.0430  1.6053 -0.2243
  994MOL0     H34161   7.805   5.739   2.264 -0.0335 -1.4090 -0.1302
  994MOL0     H34162   7.823   5.490   2.071  0.8305 -0.4061  0.3695
  994MOL0     H34163   7.767   5.467   2.238 -0.5676 -1.2318 -1.0530
  994MOL0     H34164   7.651   5.610   2.002  1.2938 -2.1556 -0.3843
  994MOL0     H34165   7.589   5.647   2.169 -4.5226 -0.9237 -1.2516
  994MOL0     H34166   7.572   5.383   2.021 -2.5537 -1.0954 -0.9244
  994MOL0     H34167   7.537   5.411   2.199  2.5662  0.3230 -0.8539
  994MOL0     H34168   7.423   5.551   1.950  0.0249  1.8973  0.5630
  994MOL0     H34169   7.363   5.588   2.109 -2.4499 -1.0104 -1.1896
  994MOL0     H34170   7.335   5.315   1.959  2.0597 -1.2485  1.6175
  994MOL0     H34171   7.217   5.436   1.962  0.4812 -3.0937 -0.8876
  994MOL0     H34172   8.182   5.969   2.517 -1.9553 -2.1860 -0.5837
  994MOL0     H34173   8.401   6.102   2.520  2.0725 -0.3137  0.3891
  994MOL0     H34174   8.722   6.273   2.431 -0.6228 -1.2838  1.6230
  994MOL0     H34175   8.943   6.423   2.439  1.8809  0.2838  0.9851
  994MOL0     H34176  10.801   6.285   2.124  0.4735  1.5074 -0.1041
  994MOL0     H34177  11.070   6.239   2.116  1.4316  2.0064 -2.2738
  994MOL0     H34178  11.414   6.234   1.612 -0.3976  0.0545  0.1111
  994MOL0     H34179  11.640   6.156   1.584  1.3619 -3.5169 -0.9247
  994MOL0     H34180  11.853   6.151   1.771 -1.3068 -0.8877 -0.6490
  994MOL0     H34181  11.842   6.040   1.910  0.3418  1.7392  0.6451
  994MOL0     H34182  12.071   6.067   1.818  1.0272 -1.6910 -0.5838
  994MOL0     H34183  12.017   6.012   1.662 -2.1693  1.6513 -0.7589
  994MOL0     H34184  11.969   5.809   1.722 -2.0283  1.4556 -0.4379
  994MOL0     H34185  11.955   5.826   1.896 -1.2564  3.3205  0.7905
  994MOL0     H34186  12.171   5.703   1.820 -0.8893  0.0392 -2.8917
  994MOL0     H34187  12.203   5.856   1.918  0.3662  3.1721 -1.6698
  994MOL0     H34188  12.376   5.947   1.556 -0.1877 -1.0572 -0.6741
  994MOL0     H34189  11.614   5.922   1.946 -2.3284 -1.3334  0.0847
  994MOL0     H34190  11.370   6.014   1.972 -1.2139 -0.5843 -0.4397
  995MOL0     O34191  10.567   0.648   2.960  0.6434  0.2656 -0.1665
  995MOL0     C34192  10.618   0.643   3.071  0.2202  0.1289  0.4101
  995MOL0     O34193  10.546   0.645   3.187  0.5695 -1.2774  0.1163
  995MOL0     C34194  10.408   0.630   3.189  0.2268 -0.3901  0.7081
  995MOL0     C34195  10.334   0.737   3.238 -0.5704 -0.3600 -0.1622
  995MOL0     C34196  10.191   0.738   3.227  0.0938  0.5639  0.0492
  995MOL0     C34197  10.130   0.620   3.184  0.5636  0.2084 -0.2449
  995MOL0     O34198   9.999   0.618   3.206 -0.2966  0.1541  0.3612
  995MOL0     C34199   9.925   0.514   3.143  0.3395  0.1666 -0.2319
  995MOL0     C34200   9.785   0.515   3.199  0.2280 -0.5117  0.9690
  995MOL0     C34201   9.691   0.412   3.142  0.0986 -0.1590 -0.6822
  995MOL0     C34202   9.568   0.403   3.225 -0.0241 -0.3417 -0.3346
  995MOL0     C34203   9.441   0.435   3.141  0.1302  0.1517  0.4685
  995MOL0     C34204   9.309   0.409   3.218 -0.3390 -0.7725 -0.2350
  995MOL0     C34205   9.298   0.483   3.352 -0.8637  0.2007 -0.0583
  995MOL0     C34206   9.174   0.428   3.419 -0.0526 -0.1965 -0.2686
  995MOL0     N34207   9.047   0.460   3.345  0.3189 -0.6034 -1.0172
  995MOL0     C34208   9.015   0.583   3.292 -0.8319  1.0460 -0.3212
  995MOL0     C34209   8.903   0.569   3.221  0.1498  0.0376  0.2139
  995MOL0     C34210   8.839   0.658   3.127 -0.0665  0.3364 -0.9461
  995MOL0     C34211   8.746   0.587   3.027 -0.6333  0.0626 -0.2906
  995MOL0     C34212   8.658   0.691   2.938 -0.5107  0.7439 -0.1644
  995MOL0     C34213   8.548   0.616   2.869 -0.3437  0.1432  1.0233
  995MOL0     O34214   8.481   0.702   2.775 -0.4401 -0.1552 -0.1464
  995MOL0     C34215   8.361   0.730   2.821  0.2750 -0.0319  0.5772
  995MOL0     C34216   8.342   0.831   2.911 -0.1444 -0.1285 -0.6635
  995MOL0     C34217   8.217   0.847   2.978  0.0962  0.2959 -0.3238
  995MOL0     C34218   8.215   0.944   3.100  0.0892  0.0350  0.4534
  995MOL0     C34219   8.108   0.759   2.938 -0.1893 -0.1080  0.5714
  995MOL0     C34220   7.966   0.765   2.992  0.5471 -0.2444  0.0253
  995MOL0     O34221   7.891   0.660   2.968  0.1046  0.7790 -0.3194
  995MOL0     C34222   7.764   0.662   2.981  0.0479 -0.8121 -0.3661
  995MOL0     C34223   7.674   0.779   2.976 -0.8138  0.6965  0.4086
  995MOL0     C34224   7.538   0.773   2.991  1.1636  0.3324  0.4108
  995MOL0     C34225   7.474   0.649   3.012  0.3734 -0.4330 -0.5582
  995MOL0     O34226   7.338   0.624   3.043  0.1511 -0.9496 -0.4052
  995MOL0     C34227   7.235   0.672   2.945 -0.3130 -0.1671  0.1801
  995MOL0     C34228   7.128   0.772   2.991  0.6019 -0.6959 -0.3443
  995MOL0     C34229   7.187   0.904   3.039 -0.1839  0.6327 -0.4065
  995MOL0     C34230   7.088   1.014   3.082  1.1615 -0.3706  0.0098
  995MOL0     C34231   6.985   0.986   3.192 -0.5020 -0.3864 -0.3364
  995MOL0     C34232   6.900   1.107   3.228  0.0992  0.5554  0.3900
  995MOL0     C34233   6.775   1.079   3.311 -0.5088  0.5022 -0.5428
  995MOL0     C34234   6.780   0.973   3.431 -0.2968  0.1974  0.4868
  995MOL0    Cl34235   6.873   1.038   3.565 -0.2613 -0.2087 -0.5090
  995MOL0     C34236   7.555   0.539   3.014  0.2264 -0.1756  0.9628
  995MOL0     C34237   7.693   0.544   3.003  0.5021 -0.0489  0.0198
  995MOL0     O34238   7.925   0.872   3.034 -0.6704 -0.0779  0.2040
  995MOL0     C34239   8.132   0.668   2.830 -0.8979 -0.5154  0.5539
  995MOL0     C34240   8.260   0.650   2.776  0.2846  0.3762  0.0535
  995MOL0     N34241   8.852   0.442   3.254  0.0960  0.1758 -0.0787
  995MOL0     N34242   8.941   0.374   3.330 -0.3548  0.4451 -0.7867
  995MOL0     C34243  10.202   0.505   3.146 -0.5627 -0.4386  0.2157
  995MOL0     C34244  10.346   0.519   3.146  0.4611  0.2646  0.0058
  995MOL0     C34245  10.753   0.611   3.083  0.3239 -0.2912 -0.2327
  995MOL0     C34246  10.821   0.631   3.205  0.1244 -0.5261  0.0547
  995MOL0     C34247  10.958   0.616   3.208  0.3140  1.0553 -0.7870
  995MOL0     C34248  11.028   0.561   3.097  0.7697 -0.2199  0.0340
  995MOL0     O34249  11.159   0.525   3.118 -0.8988  0.2976  0.5154
  995MOL0     C34250  11.219   0.433   3.032 -0.1060  0.1036 -0.1642
  995MOL0     C34251  11.371   0.445   3.061 -1.3251 -0.0038  0.6526
  995MOL0     C34252  11.428   0.585   3.043  0.1427  0.1934  0.1508
  995MOL0     C34253  11.583   0.580   3.087  0.3112 -0.1368  0.3640
  995MOL0     C34254  11.669   0.488   3.005  0.2475  0.5004 -0.3623
  995MOL0     C34255  11.755   0.419   2.943  0.3958 -0.6563 -0.6690
  995MOL0     C34256  10.952   0.545   2.981 -0.5046 -0.3202 -0.3698
  995MOL0     C34257  10.825   0.576   2.973  0.3694 -0.3129  0.4279
  995MOL0     H34258  10.385   0.825   3.275  0.8843  0.3485 -3.4914
  995MOL0     H34259  10.128   0.819   3.262  0.8815  2.3574 -2.4008
  995MOL0     H34260   9.921   0.519   3.034 -2.6971 -1.4503 -0.3010
  995MOL0     H34261   9.965   0.418   3.175  0.9188  0.6445  0.5185
  995MOL0     H34262   9.794   0.507   3.307 -0.6165  0.5497  1.1254
  995MOL0     H34263   9.732   0.608   3.178 -3.0250 -2.6551 -1.2520
  995MOL0     H34264   9.671   0.437   3.037 -0.2086 -0.0767 -0.6059
  995MOL0     H34265   9.747   0.319   3.155 -0.0999  0.0561  2.4226
  995MOL0     H34266   9.556   0.301   3.262 -1.1965 -0.4156 -0.8781
  995MOL0     H34267   9.572   0.472   3.310  0.7682  0.6541 -1.1593
  995MOL0     H34268   9.436   0.541   3.114  0.5624  0.1849  0.5227
  995MOL0     H34269   9.445   0.386   3.044  3.4900  2.0632 -0.5295
  995MOL0     H34270   9.246   0.456   3.142 -0.3561 -0.9020 -0.2998
  995MOL0     H34271   9.293   0.301   3.218  2.4761 -1.2652 -1.5452
  995MOL0     H34272   9.385   0.458   3.414 -0.2482 -2.0736 -1.7019
  995MOL0     H34273   9.308   0.591   3.338 -0.4152  0.1658 -0.0135
  995MOL0     H34274   9.159   0.463   3.521  2.2523  0.9510 -0.2475
  995MOL0     H34275   9.180   0.319   3.417  4.1199 -0.1137 -0.9552
  995MOL0     H34276   9.080   0.669   3.302  4.8713 -2.5785 -1.3790
  995MOL0     H34277   8.783   0.726   3.192  0.1037 -0.5904  0.2102
  995MOL0     H34278   8.912   0.713   3.068 -1.4999  2.1474 -1.1312
  995MOL0     H34279   8.672   0.526   3.080 -0.3267  0.5898  0.7645
  995MOL0     H34280   8.802   0.517   2.963 -0.6482 -1.3174  1.1396
  995MOL0     H34281   8.730   0.727   2.863  1.7299  0.1005  1.5633
  995MOL0     H34282   8.628   0.774   3.003  0.3871 -0.0084  1.2852
  995MOL0     H34283   8.485   0.567   2.944 -1.3882 -1.5125 -0.8329
  995MOL0     H34284   8.612   0.544   2.817 -0.2490  1.1450 -0.2904
  995MOL0     H34285   8.435   0.884   2.928 -0.8279  0.6948  0.6977
  995MOL0     H34286   8.152   0.914   3.184  0.4156 -2.0094  0.0126
  995MOL0     H34287   8.315   0.947   3.145 -2.1876  1.4479  6.2981
  995MOL0     H34288   8.189   1.045   3.067  1.0352  0.7083  1.6615
  995MOL0     H34289   7.707   0.879   2.950  0.9008  0.1340  0.3298
  995MOL0     H34290   7.488   0.866   2.971  1.0435 -0.1486 -1.8465
  995MOL0     H34291   7.283   0.715   2.856 -1.4875 -0.9156 -0.8349
  995MOL0     H34292   7.184   0.579   2.919  0.9619 -1.8557  3.2232
  995MOL0     H34293   7.063   0.794   2.907 -0.6336  1.1894  1.0274
  995MOL0     H34294   7.068   0.727   3.071  0.9219 -2.0830 -0.8610
  995MOL0     H34295   7.257   0.943   2.965  2.9508 -1.9855  0.8939
  995MOL0     H34296   7.250   0.882   3.126  0.6396 -0.6061 -1.2758
  995MOL0     H34297   7.146   1.103   3.108 -2.3955  2.6711 -1.4590
  995MOL0     H34298   7.032   1.059   2.999 -0.8584  1.0905  2.0389
  995MOL0     H34299   7.030   0.950   3.286  0.7711 -1.5562 -1.3510
  995MOL0     H34300   6.921   0.906   3.154 -2.0109  0.7148 -0.1870
  995MOL0     H34301   6.966   1.180   3.275  0.3541 -1.0958  2.7581
  995MOL0     H34302   6.868   1.157   3.136  1.5687 -2.6674 -2.0338
  995MOL0     H34303   6.698   1.024   3.255 -0.8234  1.7919 -1.4129
  995MOL0     H34304   6.733   1.174   3.347 -0.4135  1.3533 -2.5437
  995MOL0     H34305   6.825   0.878   3.400 -2.7039 -1.0135  0.4265
  995MOL0     H34306   6.683   0.934   3.465  1.8787 -2.8349  3.9145
  995MOL0     H34307   7.515   0.439   3.026  0.4286 -0.1102  2.2707
  995MOL0     H34308   7.741   0.447   2.995 -2.0845 -1.3314 -1.0616
  995MOL0     H34309   8.056   0.608   2.783 -1.8183  1.1946 -0.2155
  995MOL0     H34310   8.264   0.576   2.696 -2.1896  1.3121 -1.0297
  995MOL0     H34311  10.157   0.412   3.115  1.5088 -2.1201  1.9428
  995MOL0     H34312  10.411   0.436   3.121 -1.9608 -2.0484  0.9257
  995MOL0     H34313  10.779   0.668   3.298 -0.1975  0.4969 -0.4882
  995MOL0     H34314  11.008   0.626   3.304 -1.0398 -1.1457  0.2259
  995MOL0     H34315  11.182   0.335   3.065  0.6057  0.7883  3.0667
  995MOL0     H34316  11.193   0.455   2.928  0.7588  2.5309  0.0738
  995MOL0     H34317  11.429   0.380   2.995  0.0521  1.9431 -0.1611
  995MOL0     H34318  11.403   0.410   3.160  0.0249 -2.6822 -0.6203
  995MOL0     H34319  11.383   0.647   3.121 -0.3547  0.9769 -0.7436
  995MOL0     H34320  11.407   0.628   2.945  2.2410 -2.5594 -1.6818
  995MOL0     H34321  11.591   0.557   3.194 -0.8980  1.6526  0.8866
  995MOL0     H34322  11.623   0.681   3.076 -2.5358  1.1930  1.3153
  995MOL0     H34323  11.827   0.366   2.884  2.1903 -0.4353  1.2011
  995MOL0     H34324  10.991   0.525   2.881 -2.5409 -2.8243 -0.8031
  995MOL0     H34325  10.788   0.575   2.872  1.9993 -0.7307 -0.2033
  996MOL0     O34326   9.732   9.704   4.069 -0.2937 -0.0611  0.4778
  996MOL0     C34327   9.735   9.703   3.942 -0.0751 -0.9236 -0.5900
  996MOL0     O34328   9.631   9.660   3.859  0.0247  0.4259 -0.4944
  996MOL0     C34329   9.524   9.585   3.910 -0.0756  0.8018 -0.7687
  996MOL0     C34330   9.389   9.620   3.891 -0.3423  0.3025 -0.5158
  996MOL0     C34331   9.291   9.535   3.934  0.7803  0.5687  0.3830
  996MOL0     C34332   9.315   9.419   4.003  0.3448 -0.0159  0.3609
  996MOL0     O34333   9.218   9.333   4.039  0.4757  0.0040 -0.1234
  996MOL0     C34334   9.076   9.342   4.006 -0.7284 -0.3380  0.3003
  996MOL0     C34335   8.994   9.256   4.100 -0.1396 -0.5227  0.3317
  996MOL0     C34336   9.007   9.293   4.250  0.0467  0.0604 -0.2235
  996MOL0     C34337   8.962   9.439   4.275 -0.2078  0.8376  0.3207
  996MOL0     C34338   9.077   9.536   4.285 -0.2292 -0.5980  0.4183
  996MOL0     C34339   9.019   9.676   4.313 -0.4359  0.0506  0.2340
  996MOL0     C34340   8.962   9.732   4.179 -0.1913 -0.8226 -1.1009
  996MOL0     C34341   8.909   9.874   4.202 -0.2331 -0.7989  0.9777
  996MOL0     N34342   8.811   9.875   4.305  0.2496 -0.2355  0.1731
  996MOL0     C34343   8.695   9.795   4.305  0.0326  0.9662  0.6629
  996MOL0     C34344   8.647   9.802   4.433 -0.0774  0.0620 -0.2821
  996MOL0     C34345   8.526   9.725   4.486 -0.1666 -0.0554 -0.1492
  996MOL0     C34346   8.389   9.766   4.433 -0.9362 -0.2558  0.4987
  996MOL0     C34347   8.299   9.830   4.529  0.5804 -0.7333  0.2696
  996MOL0     C34348   8.248   9.736   4.644  0.6588 -0.5627  0.2186
  996MOL0     O34349   8.163   9.633   4.593  0.7273 -0.0633 -0.6332
  996MOL0     C34350   8.039   9.652   4.547  0.5002  0.7257  0.3184
  996MOL0     C34351   7.966   9.773   4.566 -0.2056  0.8381 -0.5680
  996MOL0     C34352   7.829   9.777   4.531 -0.0240 -0.1299  0.9504
  996MOL0     C34353   7.760   9.908   4.570  0.0745  0.2511  0.1830
  996MOL0     C34354   7.772   9.674   4.449  0.5074 -0.4635  0.1178
  996MOL0     C34355   7.640   9.685   4.382  0.1766 -0.3564 -0.0359
  996MOL0     O34356   7.596   9.561   4.345  0.9585  0.5810 -0.0294
  996MOL0     C34357   7.483   9.554   4.270  0.7177  0.9408 -0.3075
  996MOL0     C34358   7.489   9.552   4.133 -0.1845 -0.6902 -1.0183
  996MOL0     C34359   7.375   9.522   4.052  0.8153 -0.0657 -0.6123
  996MOL0     C34360   7.247   9.503   4.115  0.1928 -1.2427  0.2533
  996MOL0     O34361   7.130   9.485   4.061  0.4377  0.1131  0.2742
  996MOL0     C34362   7.112   9.392   3.950  0.9247  0.3110 -0.1151
  996MOL0     C34363   6.964   9.387   3.911 -0.2973 -0.3933  0.6008
  996MOL0     C34364   6.920   9.532   3.863  0.0270 -0.1168 -0.8532
  996MOL0     C34365   6.765   9.533   3.832  0.0158 -0.1109  0.9545
  996MOL0     C34366   6.716   9.652   3.756  0.0943  0.2240 -0.0445
  996MOL0     C34367   6.682   9.631   3.607  0.3321 -0.0903  0.4428
  996MOL0     C34368   6.662   9.759   3.534 -0.3912 -0.4937 -0.2804
  996MOL0     C34369   6.783   9.793   3.451 -0.3018 -0.0701 -0.2022
  996MOL0    Cl34370   6.918   9.841   3.556 -0.1173  0.3039 -0.2272
  996MOL0     C34371   7.250   9.518   4.259 -0.3349  0.1550  0.5113
  996MOL0     C34372   7.362   9.539   4.332 -0.4409 -0.0070  0.2770
  996MOL0     O34373   7.587   9.794   4.361 -0.0894  0.0934  0.0822
  996MOL0     C34374   7.846   9.552   4.444 -0.3147  0.5614  0.7117
  996MOL0     C34375   7.970   9.551   4.484  0.4629 -0.0074 -0.3698
  996MOL0     N34376   8.722   9.889   4.498  0.3444  0.0955  0.1685
  996MOL0     N34377   8.816   9.934   4.421  0.1323  0.0809  0.1650
  996MOL0     C34378   9.445   9.390   4.044 -0.2344  0.2275 -0.2767
  996MOL0     C34379   9.543   9.472   3.997 -0.5764 -0.3422 -0.8690
  996MOL0     C34380   9.850   9.786   3.891  0.2562  1.0230 -0.5556
  996MOL0     C34381   9.967   9.804   3.963  0.1955 -0.8316  0.6031
  996MOL0     C34382  10.074   9.872   3.894  0.3394 -1.0748 -0.0240
  996MOL0     C34383  10.057   9.925   3.763 -0.1665  0.1215  0.6762
  996MOL0     O34384  10.167   9.999   3.718 -0.0721  0.6360  0.4369
  996MOL0     C34385  10.161  10.063   3.592 -0.8628  0.3086 -0.0657
  996MOL0     C34386  10.261  10.176   3.577 -0.4434 -0.1746 -0.4239
  996MOL0     C34387  10.416  10.126   3.588  0.0452 -0.0700 -0.9109
  996MOL0     C34388  10.470  10.061   3.465 -0.0366  0.2865 -0.2536
  996MOL0     C34389  10.613  10.016   3.469 -0.7195  0.0666 -0.8062
  996MOL0     C34390  10.728   9.979   3.489 -0.2891  0.0652 -0.5537
  996MOL0     C34391   9.933   9.904   3.698 -0.0637 -0.1097  0.6237
  996MOL0     C34392   9.833   9.834   3.759  0.0448 -0.4481  0.3732
  996MOL0     H34393   9.374   9.719   3.850 -0.2390 -0.1687 -1.7131
  996MOL0     H34394   9.189   9.571   3.923  0.1826 -0.8704  1.0502
  996MOL0     H34395   9.031   9.441   4.014 -0.3300  0.1690 -2.6645
  996MOL0     H34396   9.067   9.324   3.899  4.3646 -1.0776 -0.2450
  996MOL0     H34397   8.896   9.242   4.052  0.6782 -0.0290 -1.5602
  996MOL0     H34398   9.030   9.153   4.097  0.7651 -0.3080  2.2783
  996MOL0     H34399   8.939   9.225   4.303 -2.9066  0.4096 -3.2016
  996MOL0     H34400   9.111   9.282   4.279  0.5817 -0.7952 -2.3285
  996MOL0     H34401   8.894   9.464   4.194 -1.3944 -0.0910  0.9992
  996MOL0     H34402   8.897   9.448   4.362 -1.4060 -2.3724 -0.0882
  996MOL0     H34403   9.133   9.506   4.374  0.5797 -0.8046 -0.1510
  996MOL0     H34404   9.145   9.541   4.199 -0.1556 -1.7407  0.3882
  996MOL0     H34405   8.945   9.671   4.393  0.7160 -1.5641  1.2607
  996MOL0     H34406   9.093   9.750   4.341  0.8366 -2.0019  2.6552
  996MOL0     H34407   9.048   9.746   4.113  2.8051 -0.0111  2.6162
  996MOL0     H34408   8.889   9.663   4.137 -0.4442 -3.3503  2.9937
  996MOL0     H34409   8.848   9.888   4.112  0.4752 -1.4675  0.3968
  996MOL0     H34410   8.989   9.945   4.224  1.2431 -2.4735  1.1394
  996MOL0     H34411   8.663   9.728   4.226  0.3322  1.1437  0.3893
  996MOL0     H34412   8.539   9.625   4.441 -1.2577  0.0834 -0.8239
  996MOL0     H34413   8.520   9.710   4.594 -2.9938  0.7825 -0.1051
  996MOL0     H34414   8.342   9.674   4.396  0.3061 -0.0299 -1.8238
  996MOL0     H34415   8.407   9.839   4.353 -0.9177  0.7405  1.3922
  996MOL0     H34416   8.211   9.862   4.470 -0.1258 -1.9249  0.6474
  996MOL0     H34417   8.348   9.912   4.582  1.2230 -1.3075  0.5748
  996MOL0     H34418   8.188   9.791   4.717 -1.0437 -0.6512 -1.0738
  996MOL0     H34419   8.327   9.693   4.707 -0.2966  1.0684  2.7094
  996MOL0     H34420   8.014   9.867   4.593 -0.9564  1.2935 -0.7618
  996MOL0     H34421   7.659   9.869   4.586  0.1442 -0.0083  0.0031
  996MOL0     H34422   7.801   9.944   4.664  1.3856 -0.6839  0.0005
  996MOL0     H34423   7.774   9.975   4.484  3.0878 -1.3036 -0.6632
  996MOL0     H34424   7.586   9.563   4.086 -0.2252 -0.8995 -1.1499
  996MOL0     H34425   7.371   9.506   3.944 -2.3150 -3.5561 -0.2082
  996MOL0     H34426   7.165   9.440   3.867  2.4439  3.5411  2.4787
  996MOL0     H34427   7.156   9.294   3.971 -0.9582 -0.5623 -0.0577
  996MOL0     H34428   6.946   9.315   3.831 -1.8800  0.3594  0.2431
  996MOL0     H34429   6.905   9.351   3.996 -0.4433  0.7990  1.0266
  996MOL0     H34430   6.976   9.543   3.769 -2.6354 -0.0514 -2.5420
  996MOL0     H34431   6.936   9.610   3.938  1.2536  0.2649 -1.4805
  996MOL0     H34432   6.737   9.441   3.781 -0.9548  0.4400  0.4524
  996MOL0     H34433   6.712   9.541   3.928 -0.1752 -0.5073  0.8846
  996MOL0     H34434   6.794   9.728   3.758 -4.5003  5.5690 -0.1264
  996MOL0     H34435   6.621   9.685   3.798 -1.4770 -3.2659 -0.4350
  996MOL0     H34436   6.756   9.564   3.564 -1.7219 -3.4323  1.7491
  996MOL0     H34437   6.583   9.586   3.596  0.2893 -0.5933  2.4763
  996MOL0     H34438   6.640   9.846   3.597 -0.6510 -0.0635 -0.9583
  996MOL0     H34439   6.578   9.752   3.464  0.2753 -2.2829 -0.9562
  996MOL0     H34440   6.764   9.880   3.388  1.8793  1.8303  1.5485
  996MOL0     H34441   6.808   9.701   3.397 -0.7943  1.0780 -2.5078
  996MOL0     H34442   7.163   9.509   4.324 -1.1317  0.0028 -0.5577
  996MOL0     H34443   7.341   9.554   4.437  1.1194  0.3967  0.5547
  996MOL0     H34444   7.816   9.463   4.388 -1.2455  0.7565  0.8701
  996MOL0     H34445   8.032   9.468   4.453 -1.3393 -0.5882 -2.7656
  996MOL0     H34446   9.465   9.303   4.106  1.2585  0.5319 -0.3014
  996MOL0     H34447   9.644   9.448   4.030 -0.6697 -2.5115 -1.9803
  996MOL0     H34448   9.989   9.775   4.065 -0.8943 -0.9015  0.8311
  996MOL0     H34449  10.165   9.899   3.947 -0.6803 -1.2475  1.8708
  996MOL0     H34450  10.174   9.988   3.513 -2.2683  1.0102 -1.0171
  996MOL0     H34451  10.060  10.103   3.578 -1.6483 -0.5011  2.6913
  996MOL0     H34452  10.239  10.240   3.663 -5.4316 -0.9834 -0.8356
  996MOL0     H34453  10.245  10.239   3.490  1.8367 -0.4085 -1.0903
  996MOL0     H34454  10.420  10.053   3.669  2.7472 -0.5689 -1.4167
  996MOL0     H34455  10.473  10.218   3.604 -0.4846  0.2041 -0.5422
  996MOL0     H34456  10.467  10.143   3.393  0.2428 -0.6003 -1.3223
  996MOL0     H34457  10.399   9.982   3.437  3.2525 -3.2333  0.4616
  996MOL0     H34458  10.830   9.945   3.495  1.1093  3.7053 -1.0526
  996MOL0     H34459   9.917   9.940   3.597  0.5254 -4.0762 -1.0843
  996MOL0     H34460   9.750   9.811   3.693  1.1525 -4.1349  0.0069
  997MOL0     O34461   0.605   9.501   7.063 -0.3488  0.2982 -0.2528
  997MOL0     C34462   0.687   9.586   7.025  0.7263  0.1420  0.5503
  997MOL0     O34463   0.662   9.719   7.008  0.0451  0.5575 -0.4239
  997MOL0     C34464   0.533   9.761   7.029  0.1630 -0.5281 -0.0453
  997MOL0     C34465   0.475   9.770   7.156 -1.1888 -0.3775  0.1110
  997MOL0     C34466   0.338   9.790   7.163  0.2971  0.7391 -0.1604
  997MOL0     C34467   0.253   9.809   7.050  0.3663  0.4540 -0.1848
  997MOL0     O34468   0.119   9.826   7.080 -0.1117 -0.5832 -0.1973
  997MOL0     C34469   0.061   9.788   7.203  0.6030 -0.1137 -0.1834
  997MOL0     C34470  -0.099   9.782   7.188  0.3896  0.0672 -0.4246
  997MOL0     C34471  -0.162   9.918   7.156  0.7614  0.5782  0.4832
  997MOL0     C34472  -0.299   9.940   7.223 -0.4963  0.9470 -0.4764
  997MOL0     C34473  -0.366  10.073   7.184 -0.5365  0.7761 -0.6908
  997MOL0     C34474  -0.460  10.132   7.287  0.5840 -0.0630  0.2721
  997MOL0     C34475  -0.591  10.043   7.296  0.9798  0.8304  0.2436
  997MOL0     C34476  -0.699  10.082   7.193  0.2780  0.7664 -0.0096
  997MOL0     N34477  -0.761  10.201   7.237  0.4237 -0.6062  0.3484
  997MOL0     C34478  -0.719  10.329   7.206  0.1630 -0.0906 -1.0912
  997MOL0     C34479  -0.810  10.407   7.265  0.2149  0.2319 -0.0268
  997MOL0     C34480  -0.803  10.549   7.261 -0.0158 -0.1421  0.1091
  997MOL0     C34481  -0.815  10.615   7.122 -1.0985  0.1568 -0.3218
  997MOL0     C34482  -0.961  10.618   7.088 -0.1128 -0.0201  0.1704
  997MOL0     C34483  -0.990  10.695   6.962  0.1308 -0.1324  1.1194
  997MOL0     O34484  -1.128  10.705   6.937  0.1512  1.2562  0.4370
  997MOL0     C34485  -1.157  10.795   6.842  0.1191 -0.3545 -0.0836
  997MOL0     C34486  -1.157  10.764   6.709  1.0427 -0.2839  0.2437
  997MOL0     C34487  -1.175  10.854   6.608 -0.4060 -0.8097 -0.1855
  997MOL0     C34488  -1.182  10.797   6.473 -0.6172 -0.0356 -0.6918
  997MOL0     C34489  -1.189  10.987   6.638  0.4185  0.1106 -0.2253
  997MOL0     C34490  -1.216  11.095   6.539  0.4795 -0.5052 -0.8820
  997MOL0     O34491  -1.235  11.217   6.592  0.0167  0.0612  0.6639
  997MOL0     C34492  -1.266  11.320   6.507  0.3752 -0.3251 -0.1562
  997MOL0     C34493  -1.395  11.310   6.443 -0.0915 -0.0788 -0.2423
  997MOL0     C34494  -1.444  11.412   6.369 -0.7069  0.2069  0.1787
  997MOL0     C34495  -1.364  11.531   6.365  1.3748  0.3041 -0.0922
  997MOL0     O34496  -1.415  11.621   6.275  0.4732 -0.9112 -1.0110
  997MOL0     C34497  -1.365  11.757   6.261  0.2033  0.9314 -0.4177
  997MOL0     C34498  -1.422  11.818   6.131 -0.6812 -0.3997  0.4454
  997MOL0     C34499  -1.544  11.899   6.161  0.6488 -0.8074  0.6252
  997MOL0     C34500  -1.616  11.963   6.036  0.8324  0.5230 -0.3423
  997MOL0     C34501  -1.735  12.055   6.088  0.1151 -0.2237  0.2581
  997MOL0     C34502  -1.813  12.142   5.984  0.4005 -0.0892 -0.3303
  997MOL0     C34503  -1.934  12.202   6.064 -0.6570  0.1146  0.1293
  997MOL0     C34504  -2.031  12.276   5.974 -1.0522  0.4008 -0.1404
  997MOL0    Cl34505  -2.172  12.341   6.072 -0.6253  0.1921 -0.4722
  997MOL0     C34506  -1.235  11.538   6.412 -0.3485 -0.4555 -0.4572
  997MOL0     C34507  -1.184  11.431   6.495  0.4014  0.7963  0.7346
  997MOL0     O34508  -1.181  11.080   6.430  0.3188  0.0410  1.2554
  997MOL0     C34509  -1.191  11.024   6.776  0.5798  0.5948 -0.8789
  997MOL0     C34510  -1.186  10.923   6.876 -0.2493  0.1729  1.3416
  997MOL0     N34511  -0.899  10.329   7.333 -0.2018  0.1639 -0.2963
  997MOL0     N34512  -0.870  10.204   7.317  0.5903 -0.6691 -0.2318
  997MOL0     C34513   0.326   9.807   6.924 -0.1519 -0.9512 -0.2568
  997MOL0     C34514   0.462   9.789   6.915 -0.4629 -0.5267  0.5777
  997MOL0     C34515   0.820   9.536   6.991 -0.1285  0.0569  0.4686
  997MOL0     C34516   0.847   9.405   7.024  1.3451 -0.5731 -0.2937
  997MOL0     C34517   0.968   9.349   6.993 -0.4058  0.6483  0.4909
  997MOL0     C34518   1.070   9.426   6.943  0.3789 -0.1277  0.0026
  997MOL0     O34519   1.194   9.363   6.945  0.0452  0.2147 -1.2451
  997MOL0     C34520   1.277   9.435   7.039  0.3125 -0.8463  0.2948
  997MOL0     C34521   1.416   9.372   7.044 -0.6292 -0.1516  0.2735
  997MOL0     C34522   1.484   9.398   6.911  0.0150  0.9908  0.6588
  997MOL0     C34523   1.643   9.383   6.910 -0.4159  0.2706 -0.4052
  997MOL0     C34524   1.693   9.257   6.977 -0.0656  0.4331 -0.4405
  997MOL0     C34525   1.725   9.146   7.030  0.2341 -0.1856 -0.2718
  997MOL0     C34526   1.047   9.552   6.906  0.7070  0.4007 -0.0553
  997MOL0     C34527   0.919   9.609   6.916  0.4592  0.6817  0.1573
  997MOL0     H34528   0.545   9.749   7.236  0.1757 -0.0517 -0.9490
  997MOL0     H34529   0.300   9.810   7.263 -0.4570  3.6841 -0.9426
  997MOL0     H34530   0.092   9.694   7.251 -0.0789 -0.9030 -1.2352
  997MOL0     H34531   0.095   9.870   7.267  3.1174 -1.0621 -0.1596
  997MOL0     H34532  -0.139   9.714   7.112 -3.1667  3.4121 -1.8477
  997MOL0     H34533  -0.130   9.744   7.285  1.5344  0.2885  0.0442
  997MOL0     H34534  -0.096  10.003   7.175  0.3196  0.9615  0.3023
  997MOL0     H34535  -0.181   9.916   7.048  0.5757 -2.5337  0.4732
  997MOL0     H34536  -0.368   9.859   7.199  0.6905 -0.4721  0.6868
  997MOL0     H34537  -0.287   9.939   7.331 -1.0910 -3.2908 -0.2819
  997MOL0     H34538  -0.283  10.137   7.154  1.9422 -1.2604  1.3808
  997MOL0     H34539  -0.422  10.049   7.093 -1.5390 -0.7404  0.2705
  997MOL0     H34540  -0.405  10.128   7.381  0.8025 -2.6913  0.0878
  997MOL0     H34541  -0.469  10.241   7.273  0.9919  0.1080  1.2196
  997MOL0     H34542  -0.580   9.935   7.288 -1.0317  0.6527 -1.0730
  997MOL0     H34543  -0.638  10.054   7.394  1.1785 -1.1710  0.6085
  997MOL0     H34544  -0.767   9.998   7.174  1.0521  0.7593 -3.4306
  997MOL0     H34545  -0.663  10.097   7.091 -3.3751  0.0993 -1.5623
  997MOL0     H34546  -0.630  10.356   7.150  0.7506 -0.4528 -0.3419
  997MOL0     H34547  -0.877  10.589   7.330 -0.1872 -0.4281  0.0940
  997MOL0     H34548  -0.707  10.577   7.306  0.0080 -0.4527  0.2542
  997MOL0     H34549  -0.750  10.559   7.053  0.2865 -1.8248  2.4027
  997MOL0     H34550  -0.774  10.716   7.124  0.8159 -0.5693 -0.7562
  997MOL0     H34551  -1.008  10.669   7.172  1.6373 -1.9198  2.4884
  997MOL0     H34552  -1.004  10.518   7.081 -0.5444  0.1339  0.6384
  997MOL0     H34553  -0.939  10.625   6.895 -0.3713  0.4344  0.1282
  997MOL0     H34554  -0.931  10.788   6.966  1.3682 -0.8848  0.9452
  997MOL0     H34555  -1.152  10.660   6.678  0.1019 -0.1896 -0.2732
  997MOL0     H34556  -1.283  10.811   6.433  0.6071  1.3607 -3.6732
  997MOL0     H34557  -1.113  10.856   6.413 -0.0191  3.9974  3.4275
  997MOL0     H34558  -1.164  10.689   6.466 -2.9655 -0.6834  1.6018
  997MOL0     H34559  -1.453  11.219   6.456  0.7033 -0.8110 -1.6372
  997MOL0     H34560  -1.530  11.408   6.304 -0.7767  0.1218  0.2771
  997MOL0     H34561  -1.381  11.806   6.358  0.4037  0.5355 -0.1832
  997MOL0     H34562  -1.257  11.748   6.248  0.2680 -4.4756  1.5183
  997MOL0     H34563  -1.349  11.886   6.085 -0.3277 -0.1730  1.3167
  997MOL0     H34564  -1.445  11.735   6.064 -1.2586 -0.3464  0.5726
  997MOL0     H34565  -1.515  11.977   6.232  0.6114 -0.7200  0.5434
  997MOL0     H34566  -1.616  11.840   6.219 -0.7233 -1.6677 -1.8380
  997MOL0     H34567  -1.544  12.019   5.976 -0.5487  2.8600  0.0354
  997MOL0     H34568  -1.660  11.881   5.979 -0.4410  0.6511  0.3985
  997MOL0     H34569  -1.683  12.131   6.148  1.6622 -0.2111 -1.0160
  997MOL0     H34570  -1.806  11.997   6.148 -1.4829  2.0659  0.7077
  997MOL0     H34571  -1.764  12.223   5.929 -2.6484  2.4601  0.4034
  997MOL0     H34572  -1.839  12.068   5.908  2.4672  2.1330 -3.4176
  997MOL0     H34573  -1.889  12.278   6.129 -0.1264  0.0934 -0.2120
  997MOL0     H34574  -1.990  12.121   6.113 -3.1467  0.5639 -1.7477
  997MOL0     H34575  -2.077  12.211   5.899  0.8022 -3.2027  1.5583
  997MOL0     H34576  -1.988  12.363   5.923 -1.3629  0.8203  0.3014
  997MOL0     H34577  -1.173  11.626   6.402  0.0340 -0.0195  3.8626
  997MOL0     H34578  -1.082  11.434   6.532 -0.0096  0.7730  1.9306
  997MOL0     H34579  -1.214  11.125   6.809  3.4863  1.0976 -0.1262
  997MOL0     H34580  -1.193  10.940   6.983 -2.8368  0.9945  1.1132
  997MOL0     H34581   0.277   9.834   6.831  1.1484 -1.0028 -0.9937
  997MOL0     H34582   0.501   9.785   6.814 -1.5131 -0.0365  0.1400
  997MOL0     H34583   0.780   9.326   7.056  0.8018 -0.7554 -1.7876
  997MOL0     H34584   1.002   9.250   7.023 -1.1189  0.2665  0.0834
  997MOL0     H34585   1.295   9.535   6.998  0.1275 -0.5612  0.9094
  997MOL0     H34586   1.237   9.436   7.140  2.1129  1.2643  1.0533
  997MOL0     H34587   1.398   9.264   7.048  0.3542 -0.3130  0.5805
  997MOL0     H34588   1.474   9.401   7.132 -1.3900  1.1856  0.3611
  997MOL0     H34589   1.461   9.500   6.882  0.7337  1.0570  0.2870
  997MOL0     H34590   1.448   9.328   6.836 -1.4584 -0.4296  2.5976
  997MOL0     H34591   1.687   9.461   6.974  0.0396 -0.0744 -0.2861
  997MOL0     H34592   1.691   9.387   6.812  1.1194 -1.9034  0.1576
  997MOL0     H34593   1.767   9.056   7.069  1.8174  0.7938  0.3296
  997MOL0     H34594   1.117   9.619   6.858  0.7209 -0.2589 -0.9723
  997MOL0     H34595   0.896   9.706   6.873  1.1221  1.1691  0.8822
  998MOL0     O34596   8.762   3.036   2.730  0.1659 -0.0774  0.6607
  998MOL0     C34597   8.869   3.082   2.680  0.0351  0.8259 -0.2201
  998MOL0     O34598   8.907   3.102   2.548 -0.2331 -0.0645 -0.3987
  998MOL0     C34599   8.822   3.070   2.437 -0.2846  0.6677 -1.0794
  998MOL0     C34600   8.878   3.090   2.318 -0.1661  0.1879  0.5835
  998MOL0     C34601   8.814   3.075   2.196  0.3781  0.0640 -1.0977
  998MOL0     C34602   8.683   3.024   2.202 -0.0120  0.0296 -0.0710
  998MOL0     O34603   8.607   3.006   2.091 -0.0771  0.1837 -0.6625
  998MOL0     C34604   8.668   2.963   1.972 -0.6789  0.3004  0.3761
  998MOL0     C34605   8.566   2.954   1.861  0.2136 -0.2593  0.2402
  998MOL0     C34606   8.566   3.083   1.773 -0.1509 -0.0035 -0.1933
  998MOL0     C34607   8.457   3.083   1.669  0.2806 -0.3146  0.0117
  998MOL0     C34608   8.431   3.211   1.592  0.2744 -0.7186 -0.2470
  998MOL0     C34609   8.328   3.208   1.482  1.9029 -0.0166  0.2136
  998MOL0     C34610   8.189   3.146   1.521 -0.2290 -0.4563  0.3168
  998MOL0     C34611   8.106   3.132   1.397  0.7127 -0.1886 -0.2681
  998MOL0     N34612   7.981   3.076   1.429 -0.1906  0.3532  0.2856
  998MOL0     C34613   7.935   2.944   1.423 -0.7100 -0.9253 -0.2952
  998MOL0     C34614   7.803   2.955   1.416 -0.3806 -0.2385  0.1287
  998MOL0     C34615   7.701   2.839   1.420 -0.8933 -0.0090  0.0108
  998MOL0     C34616   7.554   2.887   1.427 -0.7923  0.2619 -0.1215
  998MOL0     C34617   7.487   2.806   1.537 -0.7043 -0.1998  0.1866
  998MOL0     C34618   7.345   2.852   1.577 -0.2213  0.3293  0.3475
  998MOL0     O34619   7.277   2.853   1.448  0.5499 -0.3920 -0.0271
  998MOL0     C34620   7.146   2.871   1.454  1.1371 -0.2158  0.3872
  998MOL0     C34621   7.083   2.826   1.341  1.5616  0.4249  0.0288
  998MOL0     C34622   6.943   2.817   1.339  0.1974 -0.4576  0.5768
  998MOL0     C34623   6.890   2.768   1.205 -0.2148  0.1627  0.3556
  998MOL0     C34624   6.860   2.858   1.457  0.1025  0.0602  0.2059
  998MOL0     C34625   6.715   2.840   1.469 -0.0272 -0.3588  0.6567
  998MOL0     O34626   6.657   2.887   1.591 -0.3976  0.0631  0.6043
  998MOL0     C34627   6.537   2.827   1.636  0.1831  0.7603  0.2725
  998MOL0     C34628   6.537   2.719   1.732  0.2342  0.2107  0.1780
  998MOL0     C34629   6.412   2.670   1.774  0.5313  0.4621  0.3417
  998MOL0     C34630   6.290   2.731   1.722 -0.0871 -0.6447  0.4167
  998MOL0     O34631   6.172   2.668   1.759 -0.1409  0.2171  0.1579
  998MOL0     C34632   6.051   2.729   1.720  0.2261 -0.8149 -0.0857
  998MOL0     C34633   5.935   2.656   1.784  1.0517  0.7353 -0.4559
  998MOL0     C34634   5.917   2.508   1.747  0.2599 -0.6603  0.1248
  998MOL0     C34635   5.796   2.448   1.811  0.0968  0.9192  0.2377
  998MOL0     C34636   5.765   2.327   1.744 -0.0932  0.2570  0.4815
  998MOL0     C34637   5.648   2.251   1.816 -0.1506 -0.1155  0.5456
  998MOL0     C34638   5.526   2.344   1.829 -0.6196 -0.5147 -0.1368
  998MOL0     C34639   5.411   2.266   1.891  0.4673  0.4075  0.3595
  998MOL0    Cl34640   5.265   2.375   1.881 -0.3888  0.4066 -0.2002
  998MOL0     C34641   6.302   2.844   1.640  0.2161 -0.0947  0.4376
  998MOL0     C34642   6.425   2.897   1.595 -0.5999  0.1878 -0.5872
  998MOL0     O34643   6.657   2.774   1.389  0.7318 -0.2018 -0.0462
  998MOL0     C34644   6.930   2.920   1.560  0.0414  0.0854 -0.2615
  998MOL0     C34645   7.068   2.921   1.561  0.0250  0.4324  0.3954
  998MOL0     N34646   7.762   3.086   1.425 -0.6683 -0.0537  0.6569
  998MOL0     N34647   7.867   3.155   1.431 -0.2169 -0.0875  0.4965
  998MOL0     C34648   8.616   3.008   2.324  0.2038 -0.3368 -0.9426
  998MOL0     C34649   8.692   3.023   2.441 -0.3017 -0.4547 -0.2621
  998MOL0     C34650   8.975   3.111   2.767  0.1018 -0.2145  0.5302
  998MOL0     C34651   9.102   3.151   2.731 -0.2273  0.1780 -0.0173
  998MOL0     C34652   9.194   3.202   2.818 -0.7051  0.6217  0.8257
  998MOL0     C34653   9.166   3.197   2.957 -0.5947  0.4029 -0.0670
  998MOL0     O34654   9.266   3.243   3.038  0.0957 -0.5799  0.3018
  998MOL0     C34655   9.211   3.323   3.149 -0.6380 -0.0156 -0.0416
  998MOL0     C34656   9.332   3.396   3.211 -0.6407  1.0127 -0.3737
  998MOL0     C34657   9.444   3.307   3.270  0.4041 -0.8544 -0.0649
  998MOL0     C34658   9.585   3.334   3.215 -0.2026 -0.3731 -0.2217
  998MOL0     C34659   9.586   3.268   3.090  0.8277 -0.1039 -0.4883
  998MOL0     C34660   9.580   3.208   2.993 -0.4791 -0.0494  0.5365
  998MOL0     C34661   9.049   3.140   2.999 -0.4863  0.2621 -0.0974
  998MOL0     C34662   8.947   3.101   2.902 -0.3817  0.3798  0.1938
  998MOL0     H34663   8.981   3.126   2.315 -0.5338  1.2235 -0.3857
  998MOL0     H34664   8.862   3.087   2.100 -1.6369 -0.1895 -2.1920
  998MOL0     H34665   8.738   3.036   1.931 -1.2760 -0.4224 -2.0772
  998MOL0     H34666   8.721   2.870   1.996 -0.6808  0.8271  2.5806
  998MOL0     H34667   8.590   2.854   1.821  0.5557  0.2275 -0.8152
  998MOL0     H34668   8.461   2.953   1.892 -0.1550 -0.0943 -0.9405
  998MOL0     H34669   8.557   3.163   1.846  2.8768 -1.1682  1.6296
  998MOL0     H34670   8.658   3.103   1.719  0.9121  0.5877  1.7518
  998MOL0     H34671   8.473   3.008   1.590 -0.6998 -0.2572 -0.2532
  998MOL0     H34672   8.367   3.055   1.725  0.7240 -1.5318  0.1410
  998MOL0     H34673   8.395   3.283   1.666  1.2450 -2.0525  1.6078
  998MOL0     H34674   8.526   3.238   1.546  1.2647 -0.6459  1.7641
  998MOL0     H34675   8.302   3.310   1.454  3.6152  0.7989  1.4370
  998MOL0     H34676   8.375   3.166   1.392  1.3310 -3.3367  1.3050
  998MOL0     H34677   8.204   3.043   1.555  2.4833 -0.5386 -0.9086
  998MOL0     H34678   8.145   3.213   1.595 -0.6110 -0.0904 -0.2318
  998MOL0     H34679   8.163   3.068   1.329  2.8784  1.4885 -0.1218
  998MOL0     H34680   8.097   3.224   1.338  0.4218  0.1584  0.3041
  998MOL0     H34681   7.990   2.850   1.425  0.1767 -0.4671 -1.7068
  998MOL0     H34682   7.716   2.788   1.325  0.5543 -0.5243  0.4961
  998MOL0     H34683   7.727   2.778   1.507 -3.4584  0.3252  1.1033
  998MOL0     H34684   7.513   2.858   1.329 -1.8714  1.0384  0.0851
  998MOL0     H34685   7.544   2.995   1.442 -0.8941  0.3230 -0.5964
  998MOL0     H34686   7.551   2.823   1.624 -0.0342  2.3952 -0.7240
  998MOL0     H34687   7.489   2.701   1.506  0.8256 -0.0882 -0.1523
  998MOL0     H34688   7.365   2.950   1.622 -1.9180  0.2058  1.4440
  998MOL0     H34689   7.305   2.780   1.650  0.3054  1.2569  1.6011
  998MOL0     H34690   7.142   2.792   1.256 -2.9354 -1.4904 -2.6511
  998MOL0     H34691   6.954   2.784   1.118 -1.0301  0.1531 -0.2606
  998MOL0     H34692   6.864   2.664   1.223  0.9254 -0.0956  0.5565
  998MOL0     H34693   6.804   2.830   1.176  0.1845  0.7616  0.4168
  998MOL0     H34694   6.633   2.682   1.765  0.3068  0.4641  0.2508
  998MOL0     H34695   6.407   2.592   1.849  2.2991  2.3532  2.6100
  998MOL0     H34696   6.046   2.837   1.735 -1.6664 -1.0375  1.3033
  998MOL0     H34697   6.041   2.718   1.612 -1.5716 -2.1416  0.1643
  998MOL0     H34698   5.933   2.659   1.893  0.7683  1.4616 -0.4737
  998MOL0     H34699   5.838   2.704   1.766  0.6986  0.0203 -0.4782
  998MOL0     H34700   6.001   2.448   1.785  1.7799  2.2853  1.7193
  998MOL0     H34701   5.909   2.498   1.639 -0.8884  2.2964 -0.1364
  998MOL0     H34702   5.810   2.435   1.918 -2.7008  1.8666  0.7945
  998MOL0     H34703   5.714   2.518   1.795  1.0483  2.0988  0.3935
  998MOL0     H34704   5.851   2.261   1.728  1.4492  1.2289  3.8459
  998MOL0     H34705   5.733   2.347   1.641 -3.1230 -0.8457  1.1184
  998MOL0     H34706   5.621   2.166   1.752 -2.9180  1.6722 -0.8863
  998MOL0     H34707   5.674   2.223   1.918  2.8714  2.8229  0.7545
  998MOL0     H34708   5.500   2.384   1.730 -0.4324 -1.6010 -0.6434
  998MOL0     H34709   5.540   2.435   1.888 -0.5406 -0.6255  0.0158
  998MOL0     H34710   5.426   2.235   1.994 -0.9903  0.1237  0.5074
  998MOL0     H34711   5.374   2.183   1.830 -1.2155  1.5854 -0.3046
  998MOL0     H34712   6.210   2.889   1.603  1.3324 -0.6604 -3.4858
  998MOL0     H34713   6.429   2.981   1.527  2.7151  0.8703  0.3040
  998MOL0     H34714   6.872   2.958   1.643 -1.9525  0.1335 -1.6132
  998MOL0     H34715   7.126   2.948   1.649  1.3844 -1.7295  0.2537
  998MOL0     H34716   8.515   2.970   2.339  0.1154  0.8421  2.0739
  998MOL0     H34717   8.630   2.996   2.525 -2.5622  0.5791 -1.5280
  998MOL0     H34718   9.133   3.161   2.627 -3.6883  2.4934 -1.0056
  998MOL0     H34719   9.295   3.218   2.781  0.4213 -1.6521  2.6838
  998MOL0     H34720   9.133   3.390   3.112 -0.9096 -0.7786 -0.8742
  998MOL0     H34721   9.156   3.264   3.223  1.9540 -3.4074 -0.5518
  998MOL0     H34722   9.289   3.464   3.285 -0.5953 -0.3596  0.9750
  998MOL0     H34723   9.384   3.451   3.133  1.6329 -1.4251 -0.7111
  998MOL0     H34724   9.413   3.202   3.264  2.0113 -1.2856 -2.0489
  998MOL0     H34725   9.451   3.338   3.375 -0.7145  0.8670 -0.4478
  998MOL0     H34726   9.658   3.302   3.290  1.2128  2.9406 -0.0306
  998MOL0     H34727   9.600   3.440   3.193 -0.7341  0.4768  3.0108
  998MOL0     H34728   9.559   3.124   2.931  0.9457  1.2593 -1.8364
  998MOL0     H34729   9.050   3.132   3.107 -0.2454 -1.9087 -0.2127
  998MOL0     H34730   8.853   3.080   2.952  0.2353  2.9293  2.7186
  999MOL0     O34731   0.445   4.577   7.340 -0.2205 -0.2466  0.4644
  999MOL0     C34732   0.486   4.592   7.453  0.7412 -0.7935  0.3314
  999MOL0     O34733   0.400   4.614   7.567  0.1543  0.6591 -0.0940
  999MOL0     C34734   0.264   4.618   7.546 -0.0170  0.4660  0.1342
  999MOL0     C34735   0.204   4.695   7.439  0.8781 -0.4489 -0.0108
  999MOL0     C34736   0.065   4.705   7.421  0.5666  0.9536 -0.3332
  999MOL0     C34737  -0.024   4.632   7.504 -0.7972  0.4303 -0.6776
  999MOL0     O34738  -0.160   4.617   7.488  0.3572 -0.7870  0.5722
  999MOL0     C34739  -0.232   4.698   7.398 -0.2235  1.0986 -0.0335
  999MOL0     C34740  -0.361   4.636   7.353  0.1841 -0.2016 -0.3974
  999MOL0     C34741  -0.476   4.727   7.382 -0.3711  0.5357  0.1825
  999MOL0     C34742  -0.606   4.668   7.325 -0.6542  0.0947  0.0799
  999MOL0     C34743  -0.719   4.773   7.330  0.1286 -0.0071  0.8470
  999MOL0     C34744  -0.853   4.708   7.301 -0.1243 -0.7918 -0.4311
  999MOL0     C34745  -0.970   4.807   7.307 -0.4365  0.7129 -0.8080
  999MOL0     C34746  -1.102   4.734   7.269  0.1082  0.2008  1.0362
  999MOL0     N34747  -1.129   4.615   7.352 -0.4215  0.3556  0.5025
  999MOL0     C34748  -1.226   4.623   7.454  0.2763 -0.7198 -0.1749
  999MOL0     C34749  -1.236   4.504   7.505 -0.2091  0.2272  0.1852
  999MOL0     C34750  -1.302   4.482   7.634  0.6589 -0.3991 -0.8635
  999MOL0     C34751  -1.390   4.361   7.647  0.2916 -0.5005 -0.1226
  999MOL0     C34752  -1.510   4.378   7.559  1.3586  0.8626  0.4701
  999MOL0     C34753  -1.629   4.294   7.602 -0.0298 -0.2666 -0.1028
  999MOL0     O34754  -1.741   4.323   7.514  0.1476 -0.1358  0.5369
  999MOL0     C34755  -1.866   4.266   7.541  0.3336 -0.4585 -0.4743
  999MOL0     C34756  -1.885   4.167   7.641 -0.7791 -0.7440 -0.0341
  999MOL0     C34757  -2.005   4.095   7.656 -0.3568 -0.0878  1.0274
  999MOL0     C34758  -2.007   3.983   7.757 -0.0240  0.7984  0.0462
  999MOL0     C34759  -2.109   4.124   7.568 -0.7706 -0.2699 -0.2402
  999MOL0     C34760  -2.250   4.063   7.585 -0.8762 -0.6967  0.1704
  999MOL0     O34761  -2.294   4.043   7.710  0.8035 -0.1038 -0.2248
  999MOL0     C34762  -2.434   4.008   7.734  0.5757 -0.0211 -0.4891
  999MOL0     C34763  -2.505   4.076   7.831  1.0500  0.2162  0.1726
  999MOL0     C34764  -2.639   4.022   7.871 -0.2429  0.0267  0.4131
  999MOL0     C34765  -2.699   3.915   7.801 -0.6177 -0.6377 -0.3765
  999MOL0     O34766  -2.822   3.884   7.848 -0.1927 -0.2036  0.4858
  999MOL0     C34767  -2.903   3.798   7.761 -0.0968  0.5304  0.5306
  999MOL0     C34768  -3.047   3.771   7.825  0.2775 -0.0957 -0.3250
  999MOL0     C34769  -3.141   3.685   7.734  0.0907 -0.2648 -0.2753
  999MOL0     C34770  -3.284   3.710   7.778 -0.0646 -0.3759 -0.7474
  999MOL0     C34771  -3.385   3.616   7.715 -0.7975  0.1416  0.0371
  999MOL0     C34772  -3.523   3.659   7.745 -0.6685  0.0168  0.4916
  999MOL0     C34773  -3.622   3.553   7.707 -0.3178 -0.0044 -0.5441
  999MOL0     C34774  -3.748   3.544   7.795  0.4012 -0.6367  0.0357
  999MOL0    Cl34775  -3.835   3.698   7.781 -0.5562  0.3373  0.0755
  999MOL0     C34776  -2.622   3.857   7.698  0.2530 -0.3334 -0.1896
  999MOL0     C34777  -2.496   3.901   7.675  0.1886  0.7563 -0.5118
  999MOL0     O34778  -2.304   4.036   7.478 -0.5354 -0.0740 -0.1879
  999MOL0     C34779  -2.094   4.224   7.468  0.3863  0.3239 -0.2796
  999MOL0     C34780  -1.975   4.291   7.458  0.4497 -0.9947 -0.6802
  999MOL0     N34781  -1.147   4.425   7.434  0.1337  0.3186 -0.1898
  999MOL0     N34782  -1.080   4.487   7.341  0.8681  0.3459  0.5781
  999MOL0     C34783   0.025   4.553   7.609 -0.6258 -1.1981 -0.6841
  999MOL0     C34784   0.168   4.557   7.630 -0.3059 -0.7090 -0.3097
  999MOL0     C34785   0.634   4.584   7.479  0.4175  0.4824 -0.3484
  999MOL0     C34786   0.688   4.617   7.608  0.3183  0.0651  0.3938
  999MOL0     C34787   0.824   4.615   7.632  0.1078  0.2199  0.1125
  999MOL0     C34788   0.908   4.594   7.524 -0.0448 -0.1181  0.6704
  999MOL0     O34789   1.038   4.601   7.551 -0.5425  0.4643  0.6230
  999MOL0     C34790   1.138   4.591   7.446  0.0051  0.4876  0.1666
  999MOL0     C34791   1.285   4.597   7.484 -0.3659  0.3555  0.2400
  999MOL0     C34792   1.316   4.724   7.571  0.2899 -0.3359  0.5098
  999MOL0     C34793   1.465   4.727   7.587 -0.3869  0.7657  0.5060
  999MOL0     C34794   1.500   4.840   7.670  0.0610 -0.9815  0.6181
  999MOL0     C34795   1.536   4.926   7.742  0.2998 -0.6221 -0.2848
  999MOL0     C34796   0.855   4.570   7.391  0.4378  0.0580 -0.8531
  999MOL0     C34797   0.720   4.548   7.377  0.1867  0.2535 -0.2328
  999MOL0     H34798   0.256   4.762   7.371 -0.7178 -0.5618 -1.3989
  999MOL0     H34799   0.031   4.772   7.342  0.2325  0.0271 -0.9883
  999MOL0     H34800  -0.255   4.784   7.462  0.8655  1.1421  0.3204
  999MOL0     H34801  -0.175   4.735   7.312 -1.9524  1.8981 -0.8927
  999MOL0     H34802  -0.348   4.605   7.249  0.2566  2.0557 -1.1124
  999MOL0     H34803  -0.387   4.547   7.411 -4.2279 -1.2871 -3.4701
  999MOL0     H34804  -0.485   4.734   7.491  1.5192  0.0457  0.3995
  999MOL0     H34805  -0.450   4.821   7.334  3.2156 -0.2353  0.3419
  999MOL0     H34806  -0.592   4.651   7.218 -2.1531  2.3607 -0.5647
  999MOL0     H34807  -0.627   4.568   7.364  3.1115 -0.1350  1.9265
  999MOL0     H34808  -0.726   4.821   7.428 -2.5194 -0.1417  0.7812
  999MOL0     H34809  -0.697   4.847   7.252  0.1260  1.5481  2.2753
  999MOL0     H34810  -0.843   4.665   7.201  1.1314 -2.0092  0.1780
  999MOL0     H34811  -0.863   4.635   7.382  0.3890  0.8759  1.2143
  999MOL0     H34812  -0.975   4.854   7.406  1.2594 -1.9520  0.6712
  999MOL0     H34813  -0.963   4.889   7.236 -2.0892 -1.2719 -3.4619
  999MOL0     H34814  -1.095   4.694   7.167 -1.4595 -1.2056  1.4381
  999MOL0     H34815  -1.188   4.801   7.254 -0.5354 -1.0126 -1.2339
  999MOL0     H34816  -1.272   4.716   7.486  0.1355 -0.6906 -0.4657
  999MOL0     H34817  -1.223   4.467   7.708  0.0814 -1.9892 -0.5280
  999MOL0     H34818  -1.368   4.562   7.670 -3.1017 -3.7805  0.5382
  999MOL0     H34819  -1.415   4.355   7.753 -3.7823  0.5768 -0.8628
  999MOL0     H34820  -1.321   4.287   7.605  1.7014  1.7474 -2.0130
  999MOL0     H34821  -1.476   4.344   7.460  0.6834  1.1639  0.1330
  999MOL0     H34822  -1.549   4.480   7.563  0.8094  0.6551  0.4474
  999MOL0     H34823  -1.658   4.316   7.705  1.2083  2.2584 -0.2141
  999MOL0     H34824  -1.596   4.190   7.602 -2.4372 -1.0894  0.5531
  999MOL0     H34825  -1.798   4.145   7.702 -1.4084  0.3942  1.3358
  999MOL0     H34826  -1.910   3.985   7.807 -0.1393  2.1403  0.2380
  999MOL0     H34827  -2.081   4.008   7.834  0.4927 -0.4068  0.9624
  999MOL0     H34828  -2.019   3.888   7.704  0.0571  1.7931 -1.8289
  999MOL0     H34829  -2.462   4.157   7.888  2.8454  0.5994 -1.6137
  999MOL0     H34830  -2.701   4.075   7.943 -0.7467  0.3641 -0.2629
  999MOL0     H34831  -2.914   3.847   7.664 -4.0710  1.0811  1.0857
  999MOL0     H34832  -2.850   3.703   7.751 -4.6593 -2.4819  1.3924
  999MOL0     H34833  -3.043   3.706   7.913 -0.7670 -1.0550 -0.9623
  999MOL0     H34834  -3.086   3.871   7.848  2.4356  0.3340  1.9477
  999MOL0     H34835  -3.106   3.583   7.749  2.4642  0.0635 -2.6885
  999MOL0     H34836  -3.137   3.715   7.629  1.2130 -1.2482 -0.5425
  999MOL0     H34837  -3.286   3.708   7.887  0.6678  0.7887 -0.6972
  999MOL0     H34838  -3.302   3.816   7.755  2.3482  0.6843  1.7689
  999MOL0     H34839  -3.356   3.522   7.762 -0.5933  1.2968  2.3516
  999MOL0     H34840  -3.376   3.595   7.608 -2.5964  0.8871 -0.2912
  999MOL0     H34841  -3.524   3.689   7.850 -3.0826  0.1494  0.5038
  999MOL0     H34842  -3.561   3.750   7.697  0.3595  1.2918  1.9992
  999MOL0     H34843  -3.570   3.458   7.690 -1.8327 -0.8309 -0.6720
  999MOL0     H34844  -3.655   3.598   7.612  1.6437  1.8538 -0.4333
  999MOL0     H34845  -3.729   3.527   7.902 -1.6412 -0.0573  0.5498
  999MOL0     H34846  -3.809   3.465   7.751  1.1634 -1.1311 -0.1532
  999MOL0     H34847  -2.656   3.763   7.655 -0.1271  0.6390 -2.1521
  999MOL0     H34848  -2.432   3.854   7.601 -0.5141  0.8756 -1.2063
  999MOL0     H34849  -2.185   4.248   7.413 -0.8430 -1.5425  0.8372
  999MOL0     H34850  -1.965   4.361   7.376  2.7422 -0.9983 -0.4491
  999MOL0     H34851  -0.043   4.513   7.682 -1.2274  0.3959 -0.3240
  999MOL0     H34852   0.210   4.509   7.718 -0.5066  0.7841  0.6365
  999MOL0     H34853   0.634   4.638   7.700  1.4386 -0.8462  1.2955
  999MOL0     H34854   0.861   4.639   7.731  1.2124 -0.0531 -0.2167
  999MOL0     H34855   1.116   4.504   7.384 -0.1754  2.0330 -2.0775
  999MOL0     H34856   1.115   4.678   7.383 -1.1231  0.0973  0.0089
  999MOL0     H34857   1.345   4.597   7.392  0.8910 -0.7310  1.0192
  999MOL0     H34858   1.312   4.509   7.544  2.1544  0.6003 -0.4223
  999MOL0     H34859   1.280   4.722   7.674  0.7316  0.4630  0.6898
  999MOL0     H34860   1.288   4.814   7.516 -1.5111 -0.4843  1.1386
  999MOL0     H34861   1.501   4.738   7.485  0.6412 -1.1195  0.6341
  999MOL0     H34862   1.506   4.639   7.637 -1.9801  0.4891  1.3884
  999MOL0     H34863   1.557   5.009   7.807  2.2416 -1.5989  0.3998
  999MOL0     H34864   0.923   4.549   7.309  2.0546  3.1387 -0.4660
  999MOL0     H34865   0.676   4.525   7.281 -2.8831  1.1830  0.8322
 1000MOL0     O34866   6.501   3.131   2.643  0.3206 -0.3068 -0.0004
 1000MOL0     C34867   6.557   3.061   2.728  0.8833 -0.6746 -0.0846
 1000MOL0     O34868   6.488   2.997   2.823 -0.1080 -0.1899 -0.2345
 1000MOL0     C34869   6.347   2.974   2.811 -0.3182  0.0763 -0.5020
 1000MOL0     C34870   6.277   2.973   2.927 -0.1375 -0.0340 -0.8805
 1000MOL0     C34871   6.140   2.959   2.925  0.4203 -0.7062 -0.0553
 1000MOL0     C34872   6.075   2.920   2.804 -0.2875  0.4017 -0.6518
 1000MOL0     O34873   5.943   2.878   2.802 -0.3758  0.2648  0.4711
 1000MOL0     C34874   5.851   2.957   2.882 -0.8111  0.2305  0.0875
 1000MOL0     C34875   5.710   2.943   2.820 -0.3317  0.1989 -0.1621
 1000MOL0     C34876   5.695   3.044   2.700 -0.2246 -0.4708  0.1927
 1000MOL0     C34877   5.559   3.054   2.627  0.4333 -0.5286  0.1221
 1000MOL0     C34878   5.540   3.182   2.541 -0.2799  0.5940 -0.0478
 1000MOL0     C34879   5.411   3.189   2.454 -0.3805 -0.4813 -0.0783
 1000MOL0     C34880   5.434   3.112   2.321 -0.2631 -0.1784  0.1396
 1000MOL0     C34881   5.361   3.174   2.201  0.0132 -0.5015 -0.2564
 1000MOL0     N34882   5.454   3.287   2.153 -0.1572 -0.1204  0.1088
 1000MOL0     C34883   5.554   3.250   2.074  0.6554 -0.4254 -0.1604
 1000MOL0     C34884   5.591   3.372   2.027  0.7759 -0.1800  0.1872
 1000MOL0     C34885   5.702   3.391   1.922 -0.8307  0.0442  0.4235
 1000MOL0     C34886   5.844   3.395   1.989  0.7973 -0.4550 -0.2356
 1000MOL0     C34887   5.960   3.397   1.891  0.3941 -0.8824 -0.1942
 1000MOL0     C34888   6.085   3.447   1.957 -1.0053 -0.3387 -0.6228
 1000MOL0     O34889   6.164   3.530   1.865  0.2472 -0.7202 -0.2153
 1000MOL0     C34890   6.293   3.502   1.847 -0.3913 -0.1822 -0.9576
 1000MOL0     C34891   6.354   3.379   1.867  0.4357 -0.0348 -0.3395
 1000MOL0     C34892   6.490   3.370   1.840 -0.3250  0.5277 -0.9233
 1000MOL0     C34893   6.541   3.227   1.848  0.5013 -0.5786 -0.3766
 1000MOL0     C34894   6.564   3.473   1.787  0.3405 -0.2563 -0.5220
 1000MOL0     C34895   6.707   3.464   1.766 -0.8708 -1.3759  0.6373
 1000MOL0     O34896   6.763   3.580   1.722  0.1649 -0.0805 -0.7576
 1000MOL0     C34897   6.904   3.587   1.737 -0.2967  0.3118  0.3506
 1000MOL0     C34898   6.967   3.607   1.863 -0.9812  0.4699 -0.1071
 1000MOL0     C34899   7.107   3.632   1.868 -0.1757  0.3850  0.0492
 1000MOL0     C34900   7.183   3.635   1.746  0.3323  0.2782  0.2816
 1000MOL0     O34901   7.316   3.654   1.755 -0.0487  0.1706 -0.1288
 1000MOL0     C34902   7.384   3.575   1.654 -0.4145 -0.7107  0.0373
 1000MOL0     C34903   7.520   3.544   1.727 -0.2391  1.8971  0.0904
 1000MOL0     C34904   7.621   3.660   1.732  0.0432 -0.1554 -0.1628
 1000MOL0     C34905   7.748   3.603   1.805 -0.5501  0.0321 -0.6874
 1000MOL0     C34906   7.837   3.720   1.835  0.2475 -0.3441  0.1260
 1000MOL0     C34907   7.946   3.682   1.940  1.1192 -0.1622  0.8358
 1000MOL0     C34908   8.024   3.561   1.901 -0.1722  0.1164  0.5517
 1000MOL0     C34909   8.129   3.517   2.000  0.7954  0.2022  0.9703
 1000MOL0    Cl34910   8.238   3.402   1.902 -0.1027 -0.2089 -0.3679
 1000MOL0     C34911   7.118   3.612   1.623  0.2234 -0.8088 -0.6284
 1000MOL0     C34912   6.979   3.586   1.622  0.3970 -0.6292  0.0947
 1000MOL0     O34913   6.761   3.354   1.761  0.9152 -0.5794  0.2086
 1000MOL0     C34914   6.490   3.594   1.760 -0.3806  0.4173  0.8423
 1000MOL0     C34915   6.361   3.611   1.792 -0.1304  0.2825  0.2863
 1000MOL0     N34916   5.524   3.475   2.086  0.8253  0.5219 -0.6247
 1000MOL0     N34917   5.422   3.417   2.147  0.1155  0.0765 -0.3597
 1000MOL0     C34918   6.147   2.910   2.688 -0.4653  0.3959  0.5343
 1000MOL0     C34919   6.281   2.946   2.683  0.4105 -0.3346 -0.0674
 1000MOL0     C34920   6.696   3.044   2.704 -0.7800  0.5536 -0.7105
 1000MOL0     C34921   6.768   3.087   2.584  0.1883 -0.0670 -0.6189
 1000MOL0     C34922   6.901   3.061   2.564  0.1106 -0.2184 -0.4236
 1000MOL0     C34923   6.972   2.986   2.657 -0.2030  0.6754 -0.2345
 1000MOL0     O34924   7.105   2.948   2.650  0.7692  0.2450 -0.1341
 1000MOL0     C34925   7.144   2.907   2.515  0.1336 -0.2037  0.8989
 1000MOL0     C34926   7.234   2.781   2.516  0.2451 -0.8171  0.5224
 1000MOL0     C34927   7.165   2.659   2.570  0.1557 -0.2035 -0.4866
 1000MOL0     C34928   7.235   2.528   2.526  0.0077  0.6004  0.5468
 1000MOL0     C34929   7.355   2.531   2.603  0.4007  0.2088  0.7515
 1000MOL0     C34930   7.444   2.547   2.676  0.3324  0.4719 -0.7731
 1000MOL0     C34931   6.911   2.955   2.784 -0.4858  0.1426 -0.1077
 1000MOL0     C34932   6.776   2.970   2.802  0.1107 -0.2481  0.5840
 1000MOL0     H34933   6.323   2.997   3.022 -2.0000  0.2678 -0.0052
 1000MOL0     H34934   6.090   2.971   3.020  1.6197  0.5833  0.4456
 1000MOL0     H34935   5.840   2.906   2.978  1.7248 -0.5757  0.0266
 1000MOL0     H34936   5.883   3.061   2.895 -2.3773  1.0411 -1.9947
 1000MOL0     H34937   5.689   2.839   2.795 -1.0754 -0.0334  1.2897
 1000MOL0     H34938   5.632   2.958   2.895 -3.3391 -2.2103 -2.5550
 1000MOL0     H34939   5.707   3.149   2.730 -1.9452 -0.6291  1.5560
 1000MOL0     H34940   5.779   3.027   2.632  0.8717  1.8761  0.8236
 1000MOL0     H34941   5.556   2.968   2.560 -1.0216 -0.9170  0.6496
 1000MOL0     H34942   5.487   3.051   2.710 -1.4037  1.9305 -1.2470
 1000MOL0     H34943   5.541   3.272   2.604 -3.8573  1.7862 -1.3962
 1000MOL0     H34944   5.633   3.186   2.484  1.5247 -2.5790  2.3701
 1000MOL0     H34945   5.325   3.150   2.510  0.8456 -1.7285  1.0183
 1000MOL0     H34946   5.400   3.294   2.426 -1.2523 -1.2098 -2.7880
 1000MOL0     H34947   5.539   3.089   2.301  0.4368  0.4022  2.7418
 1000MOL0     H34948   5.391   3.012   2.320  1.4210 -0.9829  1.7272
 1000MOL0     H34949   5.260   3.204   2.228  0.0203 -1.7418  1.2755
 1000MOL0     H34950   5.355   3.099   2.122 -0.6460  2.5085 -3.2869
 1000MOL0     H34951   5.593   3.155   2.038 -1.2123 -0.1268 -3.3254
 1000MOL0     H34952   5.691   3.298   1.866  0.1702  0.9549 -1.3943
 1000MOL0     H34953   5.678   3.482   1.867 -1.2958  1.2419  2.5243
 1000MOL0     H34954   5.851   3.308   2.055 -2.2792  1.4284  2.9185
 1000MOL0     H34955   5.856   3.480   2.056  1.5325 -0.8279  0.1182
 1000MOL0     H34956   5.944   3.461   1.804 -1.8196  0.6159  1.2038
 1000MOL0     H34957   5.994   3.299   1.855  0.8614 -1.1156  0.8394
 1000MOL0     H34958   6.143   3.367   2.004 -0.5700  0.6462  0.5737
 1000MOL0     H34959   6.053   3.507   2.044 -2.4245 -0.0444 -1.3110
 1000MOL0     H34960   6.302   3.285   1.881 -0.4736  0.7196  1.7384
 1000MOL0     H34961   6.634   3.217   1.904  0.3957  1.8186  0.3548
 1000MOL0     H34962   6.465   3.160   1.890 -3.0569  1.1879 -3.3894
 1000MOL0     H34963   6.548   3.195   1.744  3.2308  0.0425 -0.4620
 1000MOL0     H34964   6.903   3.598   1.950 -2.8793 -0.2426 -1.4895
 1000MOL0     H34965   7.167   3.639   1.959 -2.0925 -1.3252  1.5597
 1000MOL0     H34966   7.332   3.482   1.629 -1.8773 -0.0898  0.6642
 1000MOL0     H34967   7.415   3.625   1.562  0.8759 -1.0433  0.2722
 1000MOL0     H34968   7.503   3.523   1.833 -1.8976  1.4861 -0.2372
 1000MOL0     H34969   7.565   3.458   1.678  1.1301  3.6253 -1.8715
 1000MOL0     H34970   7.575   3.743   1.787 -0.4181  0.6689 -1.7168
 1000MOL0     H34971   7.646   3.705   1.636 -2.0270  0.8531 -0.2919
 1000MOL0     H34972   7.724   3.546   1.895  1.3878  0.8227  0.3800
 1000MOL0     H34973   7.809   3.532   1.750 -1.0313 -1.2372  0.3637
 1000MOL0     H34974   7.769   3.793   1.880 -0.2909 -1.4739  1.2376
 1000MOL0     H34975   7.888   3.754   1.745  1.0388 -0.7683  0.4082
 1000MOL0     H34976   8.012   3.766   1.965  1.8501 -1.2699  2.8854
 1000MOL0     H34977   7.895   3.670   2.036 -1.1456 -0.3156 -0.3115
 1000MOL0     H34978   8.076   3.595   1.810 -1.1908  0.6987  0.1748
 1000MOL0     H34979   7.973   3.469   1.874 -1.0819  0.9991 -0.8768
 1000MOL0     H34980   8.076   3.459   2.075  0.7312 -0.2348  0.5916
 1000MOL0     H34981   8.190   3.594   2.048  2.4625 -0.0132 -0.6763
 1000MOL0     H34982   7.183   3.605   1.536  2.8126  1.1861  0.9975
 1000MOL0     H34983   6.931   3.576   1.526  0.0914  3.0214 -0.2549
 1000MOL0     H34984   6.539   3.679   1.715 -0.2096  0.7671  1.6670
 1000MOL0     H34985   6.309   3.704   1.772 -2.5504 -0.7459  1.3394
 1000MOL0     H34986   6.103   2.885   2.592 -3.6890  1.7135  1.5414
 1000MOL0     H34987   6.337   2.943   2.590 -0.3113  0.5381 -0.5390
 1000MOL0     H34988   6.715   3.126   2.497 -0.8585 -2.0731 -0.9489
 1000MOL0     H34989   6.963   3.100   2.483  0.8018 -0.5188 -0.0467
 1000MOL0     H34990   7.057   2.895   2.450  0.7836 -0.4107  0.0653
 1000MOL0     H34991   7.194   2.994   2.471 -2.7220 -0.6496 -3.8452
 1000MOL0     H34992   7.323   2.807   2.574  1.2118 -0.6448 -0.9648
 1000MOL0     H34993   7.264   2.772   2.411 -1.3819  0.8705 -0.1496
 1000MOL0     H34994   7.060   2.649   2.539  0.3743 -2.0199 -0.7704
 1000MOL0     H34995   7.170   2.670   2.678  2.1583 -2.4717 -0.2677
 1000MOL0     H34996   7.250   2.521   2.418  0.1999  1.4390  0.5119
 1000MOL0     H34997   7.181   2.436   2.551  2.0607 -1.1656 -1.0934
 1000MOL0     H34998   7.533   2.552   2.736  0.0910  0.6217 -0.4270
 1000MOL0     H34999   6.977   2.908   2.856  0.9580  1.8721 -0.2356
 1000MOL0     H35000   6.738   2.936   2.898 -0.9841  3.6456  1.7274
 1001MOL0     O35001   5.409   1.129   3.966  1.0302  0.0749  0.2904
 1001MOL0     C35002   5.447   1.202   3.873 -0.1129  0.5823 -0.6233
 1001MOL0     O35003   5.372   1.235   3.764  0.2202 -0.5251 -0.6688
 1001MOL0     C35004   5.239   1.194   3.740 -0.1867  0.3789 -0.4275
 1001MOL0     C35005   5.156   1.125   3.838 -0.9330  0.0649  0.0673
 1001MOL0     C35006   5.036   1.072   3.789 -0.6107  1.0481  0.4273
 1001MOL0     C35007   4.991   1.089   3.657 -0.0489 -0.0236  0.2733
 1001MOL0     O35008   4.872   1.026   3.622 -0.6993 -0.0251 -0.2394
 1001MOL0     C35009   4.795   1.074   3.511 -0.0652  0.3620 -0.7321
 1001MOL0     C35010   4.685   0.975   3.478  0.1355  0.3160 -0.7125
 1001MOL0     C35011   4.584   0.948   3.598  0.0042 -0.1643  0.1723
 1001MOL0     C35012   4.464   0.869   3.543 -0.1872  0.2684  0.3854
 1001MOL0     C35013   4.415   0.756   3.629  0.1953  0.2528 -0.4075
 1001MOL0     C35014   4.299   0.676   3.568  0.2309  0.5067  0.0708
 1001MOL0     C35015   4.269   0.555   3.657  0.2083  0.2099 -0.2758
 1001MOL0     C35016   4.135   0.486   3.629  0.8521 -1.0663 -0.0913
 1001MOL0     N35017   4.142   0.416   3.496  0.2613  0.7432  0.4846
 1001MOL0     C35018   4.111   0.482   3.380  0.3155  0.4121  0.3160
 1001MOL0     C35019   4.095   0.383   3.289 -1.3300 -0.1126 -0.2058
 1001MOL0     C35020   4.095   0.400   3.142 -0.2239  0.4280 -0.5702
 1001MOL0     C35021   3.965   0.333   3.086  0.0396 -0.5910  0.7648
 1001MOL0     C35022   3.949   0.181   3.107 -0.2581  0.3313  0.0881
 1001MOL0     C35023   3.820   0.127   3.042 -0.8055 -0.8694  0.0148
 1001MOL0     O35024   3.732   0.134   3.148  0.1934  0.1277 -0.7311
 1001MOL0     C35025   3.622   0.060   3.152  0.1508 -0.3136  0.1896
 1001MOL0     C35026   3.558   0.058   3.273 -0.6696  0.7271  0.2852
 1001MOL0     C35027   3.429   0.014   3.268 -0.0049  0.8290  0.2589
 1001MOL0     C35028   3.344   0.021   3.395  0.6460 -0.1504 -0.8118
 1001MOL0     C35029   3.365  -0.032   3.151 -0.3302  0.7822  0.4640
 1001MOL0     C35030   3.225  -0.062   3.138  0.2948  0.9754  0.4974
 1001MOL0     O35031   3.182  -0.154   3.044  0.3719  0.0266  0.0769
 1001MOL0     C35032   3.042  -0.167   3.041 -0.3877 -0.0579  0.6013
 1001MOL0     C35033   2.964  -0.087   2.960  0.1391  0.2051 -0.3365
 1001MOL0     C35034   2.818  -0.096   2.971  0.2075 -0.6106  0.0611
 1001MOL0     C35035   2.759  -0.193   3.061 -0.3996 -0.3402 -0.3542
 1001MOL0     O35036   2.621  -0.203   3.092  0.6484  0.4302 -0.4028
 1001MOL0     C35037   2.530  -0.097   3.056 -0.0216 -0.7181 -0.5702
 1001MOL0     C35038   2.416  -0.092   3.159  0.4106  0.2684  0.4739
 1001MOL0     C35039   2.469  -0.008   3.273  1.0859 -0.4662  0.7673
 1001MOL0     C35040   2.374   0.035   3.387  0.2115  0.1830  0.0466
 1001MOL0     C35041   2.439   0.128   3.485 -0.3539  0.6600 -0.0269
 1001MOL0     C35042   2.317   0.163   3.582 -0.2971  0.6691  0.1542
 1001MOL0     C35043   2.376   0.250   3.688  0.9149 -0.3042  0.1877
 1001MOL0     C35044   2.463   0.366   3.653 -0.1166 -0.9714  0.4755
 1001MOL0    Cl35045   2.628   0.321   3.640  0.0607 -0.1664 -0.1480
 1001MOL0     C35046   2.847  -0.265   3.145  0.5165 -0.1859  0.5266
 1001MOL0     C35047   2.983  -0.258   3.125  0.8407  0.5778 -0.4497
 1001MOL0     O35048   3.147  -0.000   3.216  1.0089  0.5068 -0.6264
 1001MOL0     C35049   3.441  -0.048   3.033  0.0357 -0.0775  0.8480
 1001MOL0     C35050   3.575  -0.004   3.036 -0.3096  1.1644 -0.1530
 1001MOL0     N35051   4.115   0.267   3.356 -0.7586  0.6947 -0.0544
 1001MOL0     N35052   4.145   0.285   3.470 -0.1412  0.0890 -0.1771
 1001MOL0     C35053   5.067   1.161   3.568 -0.2915 -0.0039  0.3958
 1001MOL0     C35054   5.185   1.217   3.610  0.5714  0.0510 -0.9679
 1001MOL0     C35055   5.583   1.241   3.868 -0.0641 -0.0808 -0.2086
 1001MOL0     C35056   5.669   1.178   3.951  0.3316 -0.3651  0.8150
 1001MOL0     C35057   5.809   1.197   3.946  0.1254  0.6069 -1.2342
 1001MOL0     C35058   5.859   1.294   3.858  0.6675 -0.6850  0.0698
 1001MOL0     O35059   5.986   1.351   3.868  0.5825 -0.4232 -0.0281
 1001MOL0     C35060   6.059   1.332   3.986  0.3624 -0.0424 -0.0089
 1001MOL0     C35061   6.172   1.228   3.977 -0.2205  0.4362  0.4908
 1001MOL0     C35062   6.289   1.271   3.883 -0.7758  0.0063  0.6025
 1001MOL0     C35063   6.387   1.160   3.864 -0.0107  0.5739 -0.0635
 1001MOL0     C35064   6.489   1.185   3.761  0.0359  0.4448  0.6089
 1001MOL0     C35065   6.572   1.201   3.666  0.5230 -1.0667  0.5707
 1001MOL0     C35066   5.776   1.354   3.771 -0.1864  0.1754  0.1269
 1001MOL0     C35067   5.642   1.330   3.770  0.1924  0.8340 -0.3518
 1001MOL0     H35068   5.188   1.108   3.940 -0.4148 -0.5792 -0.1976
 1001MOL0     H35069   4.967   1.023   3.858  0.4000 -1.4134 -0.1976
 1001MOL0     H35070   4.740   1.165   3.537 -1.5494 -0.5299 -0.6506
 1001MOL0     H35071   4.846   1.101   3.418 -2.6187  1.3719 -1.9553
 1001MOL0     H35072   4.623   1.024   3.403  0.9665 -0.6134 -2.0661
 1001MOL0     H35073   4.727   0.882   3.437 -1.8485 -1.4622  1.0165
 1001MOL0     H35074   4.640   0.885   3.668  1.7633  0.7574 -0.3446
 1001MOL0     H35075   4.552   1.042   3.644 -0.3257 -0.4006  0.4304
 1001MOL0     H35076   4.384   0.943   3.547 -0.2923  0.1160  1.2266
 1001MOL0     H35077   4.478   0.834   3.440 -0.1207  0.0537  0.4670
 1001MOL0     H35078   4.488   0.676   3.646 -1.5824 -0.8726  2.7431
 1001MOL0     H35079   4.376   0.796   3.724  1.0509  1.3509 -0.4888
 1001MOL0     H35080   4.213   0.743   3.576 -0.9551 -1.0862  1.2607
 1001MOL0     H35081   4.308   0.645   3.463 -0.1295 -3.6449  1.0868
 1001MOL0     H35082   4.347   0.479   3.645  2.8596  3.1127 -3.0992
 1001MOL0     H35083   4.256   0.595   3.758  1.4836  1.2031 -0.4794
 1001MOL0     H35084   4.051   0.555   3.619  1.4262 -0.5693 -1.6724
 1001MOL0     H35085   4.112   0.413   3.708 -2.0968 -2.2914 -1.9285
 1001MOL0     H35086   4.115   0.586   3.349 -0.2406  0.4600  0.3925
 1001MOL0     H35087   4.080   0.505   3.115  0.2803  1.0561  1.4211
 1001MOL0     H35088   4.185   0.359   3.097  0.4976 -1.1075  2.0799
 1001MOL0     H35089   3.977   0.359   2.980  0.9269  0.7073  1.1594
 1001MOL0     H35090   3.867   0.365   3.122 -1.8979 -4.9739  0.0713
 1001MOL0     H35091   3.951   0.144   3.210 -3.2762 -1.3840 -0.3449
 1001MOL0     H35092   4.037   0.142   3.055 -1.0277  0.6171 -1.4673
 1001MOL0     H35093   3.822   0.027   3.000 -0.9824 -1.5825  1.6418
 1001MOL0     H35094   3.785   0.196   2.964 -2.9553 -1.5844  0.2823
 1001MOL0     H35095   3.601   0.107   3.359  3.7260 -1.6586 -0.2818
 1001MOL0     H35096   3.283  -0.068   3.412  0.7551  0.0342  0.7292
 1001MOL0     H35097   3.409   0.026   3.483 -1.0170 -0.3749  0.4747
 1001MOL0     H35098   3.269   0.098   3.379 -0.2121 -1.4353 -3.6165
 1001MOL0     H35099   3.016  -0.008   2.907  0.4164  2.4705  2.9651
 1001MOL0     H35100   2.752  -0.031   2.913 -0.7586 -1.7283 -0.1336
 1001MOL0     H35101   2.581  -0.003   3.034  1.6224 -1.6164 -0.6883
 1001MOL0     H35102   2.475  -0.124   2.966 -1.4499 -1.3302  0.4426
 1001MOL0     H35103   2.326  -0.053   3.109  0.0475 -0.4250  0.5747
 1001MOL0     H35104   2.373  -0.189   3.185  0.6218 -0.2619 -1.0794
 1001MOL0     H35105   2.507   0.082   3.225  3.0124 -1.2010  0.8201
 1001MOL0     H35106   2.558  -0.053   3.318  1.6050 -1.1511 -0.8948
 1001MOL0     H35107   2.293   0.095   3.344 -0.2324  1.3505  2.3258
 1001MOL0     H35108   2.343  -0.057   3.437  0.5573  0.3567  0.5823
 1001MOL0     H35109   2.485   0.203   3.420  1.8340 -0.1418  0.5131
 1001MOL0     H35110   2.521   0.079   3.538 -0.0460  1.0680 -0.1199
 1001MOL0     H35111   2.240   0.219   3.528 -0.3875  3.2355  2.7368
 1001MOL0     H35112   2.274   0.070   3.619 -0.6861  0.2966 -1.1615
 1001MOL0     H35113   2.426   0.190   3.765 -0.5220  0.4805  1.7884
 1001MOL0     H35114   2.294   0.304   3.735  1.5102  1.1378 -0.3622
 1001MOL0     H35115   2.458   0.443   3.731  0.0571  2.3404 -2.5295
 1001MOL0     H35116   2.430   0.416   3.561  0.0765  1.5441  1.6817
 1001MOL0     H35117   2.797  -0.313   3.228 -1.2096  0.3761 -0.1373
 1001MOL0     H35118   3.053  -0.308   3.192 -0.9842  0.3730  1.3863
 1001MOL0     H35119   3.407  -0.072   2.933  3.5593 -1.3231 -0.2053
 1001MOL0     H35120   3.620   0.019   2.939 -0.0224  0.1776 -0.2637
 1001MOL0     H35121   5.032   1.167   3.465  0.5514 -2.9144 -0.1554
 1001MOL0     H35122   5.260   1.252   3.540 -0.0640 -0.0588 -1.7200
 1001MOL0     H35123   5.638   1.104   4.024 -1.9782 -1.4707 -1.1267
 1001MOL0     H35124   5.881   1.142   4.006 -2.4989 -0.6263  0.9888
 1001MOL0     H35125   6.100   1.431   4.007 -3.0863  2.4563 -3.7375
 1001MOL0     H35126   6.004   1.313   4.078  0.9194 -0.1446  0.3069
 1001MOL0     H35127   6.136   1.128   3.952  1.9600 -0.3088  0.0866
 1001MOL0     H35128   6.217   1.219   4.076  0.5574 -2.2452 -0.0084
 1001MOL0     H35129   6.340   1.358   3.923  1.6178 -0.0885 -1.8995
 1001MOL0     H35130   6.234   1.291   3.790 -0.3728  0.4111  0.4453
 1001MOL0     H35131   6.329   1.071   3.836 -0.1888  0.7692 -0.3140
 1001MOL0     H35132   6.439   1.151   3.960 -2.0038  0.2283  1.0404
 1001MOL0     H35133   6.630   1.211   3.577 -0.2128 -5.1885 -0.6079
 1001MOL0     H35134   5.817   1.433   3.709  0.3327 -0.0845  0.1374
 1001MOL0     H35135   5.580   1.377   3.695  2.1833  0.2572 -2.4456
 1002MOL0     O35136  11.292   8.609   2.284 -0.0848 -0.0826  0.6368
 1002MOL0     C35137  11.337   8.656   2.182 -0.1601  0.2632 -0.3754
 1002MOL0     O35138  11.274   8.671   2.062  0.3833  0.3328 -0.6071
 1002MOL0     C35139  11.150   8.622   2.058  0.0545 -0.1532 -0.0265
 1002MOL0     C35140  11.044   8.701   2.119 -0.0221  0.1599 -0.1339
 1002MOL0     C35141  10.924   8.642   2.125  1.0541  0.5559 -0.8107
 1002MOL0     C35142  10.900   8.511   2.087  0.3465 -0.4573 -0.1033
 1002MOL0     O35143  10.780   8.454   2.131  0.3429 -0.1338  0.4452
 1002MOL0     C35144  10.734   8.343   2.056 -0.3843 -0.4661  0.7213
 1002MOL0     C35145  10.595   8.331   2.114  1.0220  0.2335  0.1704
 1002MOL0     C35146  10.534   8.199   2.073  0.8525  0.4561  1.0580
 1002MOL0     C35147  10.447   8.220   1.952 -0.5601  0.1936 -0.3972
 1002MOL0     C35148  10.382   8.084   1.919 -0.8518  0.1152  0.1586
 1002MOL0     C35149  10.311   8.080   1.781 -0.1458 -0.7654 -0.7260
 1002MOL0     C35150  10.172   8.146   1.784  0.3875 -0.3102  0.2120
 1002MOL0     C35151  10.091   8.148   1.651  0.5445  0.1209 -0.4632
 1002MOL0     N35152   9.961   8.223   1.661  0.3314  0.7295  0.2010
 1002MOL0     C35153   9.944   8.348   1.626  0.4950 -0.1820 -0.2374
 1002MOL0     C35154   9.846   8.391   1.703 -0.3778  1.1031 -0.1856
 1002MOL0     C35155   9.799   8.533   1.729  0.4269 -0.2528  0.8506
 1002MOL0     C35156   9.708   8.585   1.618 -0.2005 -0.7087 -0.8755
 1002MOL0     C35157   9.578   8.512   1.590 -0.3425 -0.0706  0.5809
 1002MOL0     C35158   9.496   8.493   1.712  0.7843  0.2782  0.1949
 1002MOL0     O35159   9.462   8.599   1.793 -0.1783 -0.1946 -0.2647
 1002MOL0     C35160   9.331   8.644   1.778 -0.0329 -1.0714 -0.4491
 1002MOL0     C35161   9.224   8.619   1.865  0.3137  0.3815  0.3296
 1002MOL0     C35162   9.097   8.672   1.837 -0.2560  0.5012  0.3838
 1002MOL0     C35163   8.993   8.653   1.940 -0.4024  0.8602 -1.0264
 1002MOL0     C35164   9.071   8.740   1.719 -0.4729 -0.2366 -1.3290
 1002MOL0     C35165   8.936   8.781   1.678 -0.3025  0.9392  0.3236
 1002MOL0     O35166   8.843   8.678   1.683 -0.2502 -0.0391 -0.3374
 1002MOL0     C35167   8.714   8.696   1.671 -0.4797 -0.7307 -0.3305
 1002MOL0     C35168   8.652   8.810   1.728  0.0369 -0.1492  0.7042
 1002MOL0     C35169   8.509   8.826   1.722  0.0284  0.4085  0.1143
 1002MOL0     C35170   8.437   8.726   1.655  0.4993 -0.1758  0.2509
 1002MOL0     O35171   8.298   8.751   1.632  0.3005 -0.3811  0.2850
 1002MOL0     C35172   8.233   8.861   1.695 -0.0672 -0.1347 -0.3363
 1002MOL0     C35173   8.078   8.853   1.671 -0.1682  0.2695  0.4059
 1002MOL0     C35174   8.018   8.718   1.700  0.2019 -0.3309  0.8546
 1002MOL0     C35175   8.029   8.613   1.583 -0.6695 -0.4797  0.5033
 1002MOL0     C35176   8.077   8.479   1.640 -0.0822 -0.1817 -0.2592
 1002MOL0     C35177   8.120   8.393   1.518 -0.7634  0.2902 -0.0951
 1002MOL0     C35178   8.161   8.244   1.552  0.3483 -0.5806 -0.1350
 1002MOL0     C35179   8.273   8.186   1.468  0.2828 -0.2907 -0.2037
 1002MOL0    Cl35180   8.323   8.018   1.503  0.3045  0.0041 -0.7731
 1002MOL0     C35181   8.506   8.613   1.607  0.9055 -0.8870  0.0957
 1002MOL0     C35182   8.635   8.593   1.621  0.2077  0.3001 -0.0164
 1002MOL0     O35183   8.922   8.882   1.614 -0.5600  0.7194  0.2583
 1002MOL0     C35184   9.181   8.766   1.632  0.5526 -0.2593  0.5590
 1002MOL0     C35185   9.308   8.714   1.666  0.3761 -1.0606  0.4338
 1002MOL0     N35186   9.793   8.290   1.771  0.0707 -0.0099  0.1771
 1002MOL0     N35187   9.861   8.185   1.745 -0.4597 -0.1159  0.3914
 1002MOL0     C35188  11.002   8.436   2.025 -0.0199  0.4585 -0.8783
 1002MOL0     C35189  11.127   8.496   2.011  0.3989 -0.3315 -0.4637
 1002MOL0     C35190  11.488   8.676   2.171 -0.2611  0.3552 -0.7038
 1002MOL0     C35191  11.543   8.767   2.086  0.3850 -0.0058  1.1669
 1002MOL0     C35192  11.684   8.779   2.077 -0.2514  0.0972 -0.4390
 1002MOL0     C35193  11.769   8.705   2.157  0.2428 -0.0057 -0.0174
 1002MOL0     O35194  11.902   8.738   2.142  0.0189  0.0205  0.5896
 1002MOL0     C35195  11.976   8.733   2.259 -0.5867  0.6501 -0.1431
 1002MOL0     C35196  12.067   8.617   2.237  0.4022 -0.1186  0.5259
 1002MOL0     C35197  12.190   8.638   2.151  0.1845  0.5980  0.6073
 1002MOL0     C35198  12.306   8.699   2.226 -0.1894  0.7837  0.6247
 1002MOL0     C35199  12.417   8.725   2.130 -0.8491 -1.1988  0.4306
 1002MOL0     C35200  12.494   8.744   2.035 -0.1017 -0.1646 -0.1710
 1002MOL0     C35201  11.716   8.600   2.232  0.2470  0.6575 -0.8526
 1002MOL0     C35202  11.578   8.586   2.237 -0.0121  0.3090 -0.5666
 1002MOL0     H35203  11.059   8.803   2.154  2.2320 -0.3899  0.7063
 1002MOL0     H35204  10.836   8.692   2.165  0.4484 -0.4325 -0.8782
 1002MOL0     H35205  10.713   8.363   1.951 -0.0480  1.1703  0.9386
 1002MOL0     H35206  10.795   8.253   2.069 -2.6251 -2.0085  1.1783
 1002MOL0     H35207  10.617   8.331   2.221  2.7883 -1.7040 -0.1167
 1002MOL0     H35208  10.538   8.418   2.079 -1.6942 -2.2169 -2.0996
 1002MOL0     H35209  10.609   8.123   2.049 -1.1439 -1.7398  1.4094
 1002MOL0     H35210  10.468   8.170   2.155  0.7662 -1.1842  0.4432
 1002MOL0     H35211  10.366   8.293   1.959 -2.1221 -1.4995 -0.0837
 1002MOL0     H35212  10.511   8.250   1.868 -1.1096  0.6602 -0.6500
 1002MOL0     H35213  10.459   8.007   1.917 -1.1454 -0.3269 -4.3971
 1002MOL0     H35214  10.311   8.052   1.997  1.4332 -2.9841  1.1803
 1002MOL0     H35215  10.375   8.124   1.703 -2.9534  0.7579 -2.3464
 1002MOL0     H35216  10.299   7.972   1.774  1.1419 -1.0987  1.4402
 1002MOL0     H35217  10.121   8.094   1.866  1.2744  0.4230  1.2677
 1002MOL0     H35218  10.180   8.243   1.835 -1.3055 -0.1972  0.3135
 1002MOL0     H35219  10.076   8.043   1.624 -0.3504  0.7800 -2.7086
 1002MOL0     H35220  10.150   8.207   1.581  1.0485  0.5676  0.3204
 1002MOL0     H35221  10.019   8.402   1.569  1.7781 -3.2929 -1.7215
 1002MOL0     H35222   9.738   8.534   1.821  1.6444  0.1916  1.6811
 1002MOL0     H35223   9.885   8.596   1.751  0.6502 -1.0995  2.5632
 1002MOL0     H35224   9.766   8.607   1.528 -0.5508  1.5792 -0.5803
 1002MOL0     H35225   9.686   8.689   1.643  0.4316 -0.7245 -0.2309
 1002MOL0     H35226   9.583   8.420   1.531 -3.6534  0.7488 -1.1881
 1002MOL0     H35227   9.525   8.584   1.528 -0.3836 -0.4999  0.1081
 1002MOL0     H35228   9.554   8.426   1.778 -1.8171 -3.7148 -1.2021
 1002MOL0     H35229   9.406   8.436   1.688 -0.5636 -0.2831  5.3358
 1002MOL0     H35230   9.235   8.562   1.956  2.9199  0.8140  0.3525
 1002MOL0     H35231   8.922   8.736   1.944 -1.9512 -0.3774  3.0306
 1002MOL0     H35232   8.936   8.563   1.917 -0.1779 -0.1072  1.7904
 1002MOL0     H35233   9.030   8.635   2.042  0.7534  1.3119 -1.3396
 1002MOL0     H35234   8.710   8.884   1.782  1.4840 -2.1063  1.9236
 1002MOL0     H35235   8.455   8.910   1.766  0.7158  0.7566  0.3006
 1002MOL0     H35236   8.260   8.855   1.801  3.7460 -2.1428 -1.2277
 1002MOL0     H35237   8.272   8.955   1.655 -2.1285  1.2016  0.6283
 1002MOL0     H35238   8.024   8.926   1.733  2.2883  1.6908  1.0363
 1002MOL0     H35239   8.058   8.879   1.567 -2.7569 -1.0486  0.4949
 1002MOL0     H35240   7.913   8.727   1.728  1.1188  2.7139  3.9181
 1002MOL0     H35241   8.062   8.683   1.794  1.2784  0.1608  0.5428
 1002MOL0     H35242   7.933   8.611   1.530  0.0273 -1.0934 -0.7574
 1002MOL0     H35243   8.095   8.657   1.508 -0.2123 -1.6992  0.1765
 1002MOL0     H35244   7.996   8.427   1.691  0.6669 -0.8608  0.2513
 1002MOL0     H35245   8.169   8.491   1.699 -1.5237 -1.8474  2.4989
 1002MOL0     H35246   8.029   8.383   1.457 -2.0316  0.5966  1.6672
 1002MOL0     H35247   8.196   8.446   1.460 -1.2967  1.0499 -0.1128
 1002MOL0     H35248   8.070   8.185   1.539 -3.2212  3.2886  3.8443
 1002MOL0     H35249   8.195   8.244   1.656  1.3550 -1.4000 -0.4483
 1002MOL0     H35250   8.359   8.252   1.484 -0.3087  0.3084  0.6011
 1002MOL0     H35251   8.235   8.202   1.367  3.1762 -1.7345 -1.6301
 1002MOL0     H35252   8.447   8.530   1.569  4.1299 -4.1019  1.4469
 1002MOL0     H35253   8.679   8.499   1.588 -1.4867  0.0425 -1.7107
 1002MOL0     H35254   9.173   8.812   1.534  1.1054 -0.7253  0.2965
 1002MOL0     H35255   9.394   8.725   1.601 -0.4023  1.9815 -0.2329
 1002MOL0     H35256  11.003   8.333   1.991 -0.6221 -0.2339  1.1129
 1002MOL0     H35257  11.210   8.435   1.978 -0.3771 -1.1113 -1.0212
 1002MOL0     H35258  11.472   8.835   2.042  1.8196  0.7318 -0.1258
 1002MOL0     H35259  11.734   8.858   2.023 -0.5198  1.5802  1.3673
 1002MOL0     H35260  12.028   8.828   2.275 -1.7184  1.2680  0.0026
 1002MOL0     H35261  11.907   8.710   2.341 -2.1947 -1.9796 -2.0481
 1002MOL0     H35262  12.015   8.537   2.184  2.3810 -1.1368  0.0152
 1002MOL0     H35263  12.098   8.564   2.327 -0.3898 -2.5514 -0.5545
 1002MOL0     H35264  12.169   8.710   2.071  2.0272  1.5860  0.9443
 1002MOL0     H35265  12.225   8.539   2.120  1.7112  0.3222  2.8805
 1002MOL0     H35266  12.350   8.640   2.307  0.5486  0.3047 -0.1040
 1002MOL0     H35267  12.272   8.794   2.268 -2.9901 -0.1814  0.7701
 1002MOL0     H35268  12.566   8.739   1.955  3.1015 -1.0634  2.5204
 1002MOL0     H35269  11.784   8.543   2.295 -1.3181 -0.0390  0.2829
 1002MOL0     H35270  11.540   8.504   2.298  4.4398 -1.6472 -0.0584
 1003MOL0     O35271   5.046   8.576   1.418 -0.0119  0.2021 -0.5299
 1003MOL0     C35272   5.119   8.665   1.455  0.7892 -0.8033 -0.1280
 1003MOL0     O35273   5.067   8.784   1.506  0.3309  0.0952 -0.3888
 1003MOL0     C35274   4.951   8.803   1.578 -0.2598  0.5780 -0.2367
 1003MOL0     C35275   4.918   8.727   1.690  0.2197  0.6983  0.5969
 1003MOL0     C35276   4.805   8.750   1.769 -0.2373 -0.6252  0.4636
 1003MOL0     C35277   4.723   8.858   1.741  0.2148  0.2378 -0.5817
 1003MOL0     O35278   4.627   8.884   1.835 -0.6995  0.0744  0.0279
 1003MOL0     C35279   4.513   8.942   1.773  0.2659  0.1958 -0.7843
 1003MOL0     C35280   4.391   8.918   1.870  1.1703 -0.5489  0.2974
 1003MOL0     C35281   4.385   9.017   1.988 -0.8193  1.2155  0.3549
 1003MOL0     C35282   4.246   8.997   2.060  0.5562  0.3514  0.4502
 1003MOL0     C35283   4.224   9.079   2.187 -0.3687  0.2222  0.6621
 1003MOL0     C35284   4.084   9.058   2.233 -0.4104  0.7752  0.0853
 1003MOL0     C35285   4.097   9.061   2.384  1.0055  0.9743  0.4614
 1003MOL0     C35286   4.152   9.196   2.434  0.5516  0.5017 -0.8231
 1003MOL0     N35287   4.067   9.310   2.397 -0.3723 -0.7843 -0.5160
 1003MOL0     C35288   4.102   9.445   2.424 -0.1753 -0.0131  0.1517
 1003MOL0     C35289   3.989   9.503   2.406  0.9732  0.0654 -0.8159
 1003MOL0     C35290   3.983   9.656   2.413  0.3221  0.1906 -0.6426
 1003MOL0     C35291   3.855   9.718   2.467 -0.1637  0.4062  0.3708
 1003MOL0     C35292   3.748   9.736   2.358  0.6878 -0.5788 -0.0725
 1003MOL0     C35293   3.613   9.695   2.415 -0.2300 -0.3460  0.7484
 1003MOL0     O35294   3.582   9.789   2.506 -0.0196 -0.0188  0.1378
 1003MOL0     C35295   3.461   9.793   2.570  0.2948 -0.2389  0.0265
 1003MOL0     C35296   3.436   9.901   2.658 -0.6716  0.4793  0.9242
 1003MOL0     C35297   3.307   9.938   2.699 -0.4094 -0.4920  0.2741
 1003MOL0     C35298   3.290  10.064   2.784  0.5018  0.0884  0.1656
 1003MOL0     C35299   3.198   9.855   2.665 -0.6513  0.3291 -0.5092
 1003MOL0     C35300   3.059   9.878   2.723  0.0753  0.9583 -0.7974
 1003MOL0     O35301   3.044   9.935   2.848  0.0115 -1.0380  0.4614
 1003MOL0     C35302   2.918   9.984   2.884 -0.9606  0.2230  0.1080
 1003MOL0     C35303   2.843  10.077   2.804 -0.3700 -0.1520  0.9679
 1003MOL0     C35304   2.719  10.112   2.858  0.5396  0.6408  0.4033
 1003MOL0     C35305   2.681  10.100   2.990 -0.3586 -0.1642  0.7706
 1003MOL0     O35306   2.570  10.173   3.027  0.3980  0.0278 -0.0791
 1003MOL0     C35307   2.521  10.154   3.171 -0.6507 -0.2666  0.6477
 1003MOL0     C35308   2.450  10.023   3.187  1.0292  0.4396  0.4235
 1003MOL0     C35309   2.336  10.004   3.093  0.4279 -0.1255  0.3193
 1003MOL0     C35310   2.253   9.877   3.114  0.1281  0.2736 -0.4058
 1003MOL0     C35311   2.318   9.734   3.107 -0.2610 -0.3962  0.3593
 1003MOL0     C35312   2.381   9.694   2.970 -0.0301  0.0671  0.0667
 1003MOL0     C35313   2.271   9.659   2.871 -0.0440  0.2168  0.2274
 1003MOL0     C35314   2.306   9.674   2.726 -0.1695  0.2706 -0.3655
 1003MOL0    Cl35315   2.159   9.653   2.633 -0.3524 -0.4580 -0.0141
 1003MOL0     C35316   2.771  10.027   3.068  0.5795  0.1306 -0.9419
 1003MOL0     C35317   2.887   9.970   3.019  0.5500 -0.2492  0.1037
 1003MOL0     O35318   2.968   9.824   2.651  0.5586  0.0263 -0.0938
 1003MOL0     C35319   3.222   9.747   2.578  0.5382  0.3481  0.6122
 1003MOL0     C35320   3.348   9.717   2.531 -0.1378  0.0121 -0.1429
 1003MOL0     N35321   3.891   9.416   2.359  0.0635  0.2149  0.2527
 1003MOL0     N35322   3.931   9.299   2.373 -0.9793 -0.0309  0.2170
 1003MOL0     C35323   4.752   8.937   1.631  0.6763  0.2524  0.8058
 1003MOL0     C35324   4.868   8.911   1.555  0.7666  0.1244  0.3744
 1003MOL0     C35325   5.263   8.670   1.434  0.0086  0.6169 -0.5204
 1003MOL0     C35326   5.354   8.737   1.520  0.3955  0.3315  0.2478
 1003MOL0     C35327   5.491   8.746   1.490  0.2698  0.1405  0.0125
 1003MOL0     C35328   5.539   8.674   1.380  0.3286 -0.6284 -0.2375
 1003MOL0     O35329   5.675   8.673   1.345 -0.2626 -0.8168 -0.3812
 1003MOL0     C35330   5.762   8.679   1.459  0.9260 -0.1186  0.0356
 1003MOL0     C35331   5.884   8.592   1.434  0.5422 -0.3977  0.1514
 1003MOL0     C35332   5.940   8.540   1.571 -0.4179  0.2231 -0.6573
 1003MOL0     C35333   6.060   8.445   1.533  0.3539  0.8504  0.2107
 1003MOL0     C35334   6.185   8.519   1.507 -0.1011 -0.1490  0.1790
 1003MOL0     C35335   6.289   8.583   1.486  0.2607  1.2204 -0.0897
 1003MOL0     C35336   5.448   8.605   1.300 -0.3161 -0.5848 -0.4008
 1003MOL0     C35337   5.312   8.602   1.322 -0.1489  0.4835 -0.6198
 1003MOL0     H35338   4.964   8.634   1.721 -1.1067  0.1789  1.0757
 1003MOL0     H35339   4.787   8.684   1.853 -0.2670 -2.2787 -0.8077
 1003MOL0     H35340   4.518   9.051   1.766 -0.3512  0.2524 -0.4479
 1003MOL0     H35341   4.492   8.904   1.672 -1.7903  1.0576 -0.7397
 1003MOL0     H35342   4.304   8.945   1.808  0.4597 -1.1679  0.9959
 1003MOL0     H35343   4.384   8.813   1.901  0.6755 -0.4570  0.5072
 1003MOL0     H35344   4.465   8.995   2.059  2.5327 -0.3520 -3.4632
 1003MOL0     H35345   4.387   9.118   1.946 -1.7276  0.2994 -2.1347
 1003MOL0     H35346   4.172   9.029   1.986  0.4374  0.0085  0.4191
 1003MOL0     H35347   4.222   8.891   2.078  0.1844 -0.2754 -2.9794
 1003MOL0     H35348   4.306   9.054   2.255 -0.4561 -2.6886 -0.1695
 1003MOL0     H35349   4.239   9.187   2.175  1.5923 -0.0323  0.4285
 1003MOL0     H35350   4.023   9.137   2.188 -1.9837  0.3475  1.3605
 1003MOL0     H35351   4.044   8.958   2.216  1.3835 -0.2799  1.6608
 1003MOL0     H35352   4.001   9.036   2.430 -0.2431 -0.1131 -2.4602
 1003MOL0     H35353   4.165   8.980   2.411  1.7604  0.8626 -1.5878
 1003MOL0     H35354   4.256   9.215   2.406  0.9838  0.4786  0.6396
 1003MOL0     H35355   4.141   9.187   2.543 -1.5806  0.3385 -1.0185
 1003MOL0     H35356   4.198   9.483   2.458  1.0539 -0.9150 -2.0740
 1003MOL0     H35357   4.056   9.695   2.483 -0.0797  2.7970 -1.5751
 1003MOL0     H35358   4.010   9.687   2.311  3.1238  0.5745  0.1388
 1003MOL0     H35359   3.881   9.817   2.504  1.9005 -0.1960  0.6856
 1003MOL0     H35360   3.832   9.663   2.559 -3.5970  2.6350  1.0105
 1003MOL0     H35361   3.768   9.666   2.277  2.5553  1.3634 -1.3992
 1003MOL0     H35362   3.749   9.837   2.317  0.7913 -0.5363  0.0342
 1003MOL0     H35363   3.595   9.596   2.459  0.0845  1.1341  4.5802
 1003MOL0     H35364   3.541   9.702   2.333  0.8196 -1.1483 -0.2953
 1003MOL0     H35365   3.530   9.945   2.692  1.8405 -1.7710 -2.4291
 1003MOL0     H35366   3.388  10.113   2.789  0.9776 -0.5053 -2.1258
 1003MOL0     H35367   3.219  10.124   2.727 -0.7769 -2.5443 -1.1657
 1003MOL0     H35368   3.242  10.046   2.880 -2.0623  0.5114 -0.9654
 1003MOL0     H35369   2.863  10.095   2.699  3.2214  0.6162  1.6525
 1003MOL0     H35370   2.655  10.175   2.797  0.2888 -0.1481 -0.1618
 1003MOL0     H35371   2.610  10.152   3.235  2.2705 -2.9937 -2.9424
 1003MOL0     H35372   2.462  10.243   3.191  0.2469  0.3973  0.4301
 1003MOL0     H35373   2.530   9.949   3.183  1.9595  1.4442 -0.2165
 1003MOL0     H35374   2.399  10.011   3.283 -0.9432 -2.5763 -0.8635
 1003MOL0     H35375   2.381  10.017   2.995 -0.8729  1.2277 -0.1481
 1003MOL0     H35376   2.267  10.088   3.109  0.5078  0.3553 -1.6645
 1003MOL0     H35377   2.209   9.876   3.215  0.8539 -2.9108 -0.0165
 1003MOL0     H35378   2.166   9.876   3.048 -2.1598  1.6834  2.3638
 1003MOL0     H35379   2.250   9.653   3.137  1.3292 -1.1174  2.3033
 1003MOL0     H35380   2.400   9.743   3.179 -0.6286 -1.6367  0.9719
 1003MOL0     H35381   2.441   9.778   2.933  1.5145 -1.2669 -0.5520
 1003MOL0     H35382   2.446   9.611   2.994 -1.7498 -0.4107  3.7193
 1003MOL0     H35383   2.179   9.715   2.891 -0.2821 -1.0288  2.9798
 1003MOL0     H35384   2.242   9.555   2.891  1.3508 -1.0065 -3.3290
 1003MOL0     H35385   2.372   9.592   2.696 -1.2879 -0.4764 -0.8895
 1003MOL0     H35386   2.353   9.769   2.699 -0.5994 -0.2107 -3.0612
 1003MOL0     H35387   2.747  10.024   3.174 -2.0019  2.2818 -1.3368
 1003MOL0     H35388   2.950   9.907   3.081  1.0579  0.7310  0.6083
 1003MOL0     H35389   3.136   9.686   2.550  1.8400 -0.6523 -1.5202
 1003MOL0     H35390   3.357   9.640   2.455 -1.5634  0.1561 -0.4744
 1003MOL0     H35391   4.692   9.023   1.603  1.2670  0.2351 -0.6020
 1003MOL0     H35392   4.895   8.956   1.461  1.9133 -1.8666 -0.3050
 1003MOL0     H35393   5.312   8.788   1.606  0.2506  1.7494 -0.6147
 1003MOL0     H35394   5.552   8.811   1.552  0.3866 -1.4232  1.6048
 1003MOL0     H35395   5.805   8.778   1.473  0.8775 -0.2153  0.9219
 1003MOL0     H35396   5.720   8.636   1.550 -0.7961  1.1694 -0.1042
 1003MOL0     H35397   5.966   8.649   1.388 -1.1084  0.3217 -2.0757
 1003MOL0     H35398   5.849   8.517   1.363 -2.1184 -1.2378  2.1831
 1003MOL0     H35399   5.865   8.478   1.621  0.0550  0.9737  1.0591
 1003MOL0     H35400   5.959   8.623   1.640  0.2328 -0.4864  0.0485
 1003MOL0     H35401   6.031   8.388   1.445 -0.0152  2.7077 -0.9259
 1003MOL0     H35402   6.067   8.366   1.609 -1.6679 -1.0241 -1.4390
 1003MOL0     H35403   6.377   8.638   1.461 -1.2052  2.2292 -3.8544
 1003MOL0     H35404   5.485   8.551   1.213  1.4921 -4.7295  2.6236
 1003MOL0     H35405   5.248   8.531   1.270 -1.6033  1.6620 -0.4830
 1004MOL0     O35406   5.328   9.635   4.213  0.6354  0.3228  0.5746
 1004MOL0     C35407   5.237   9.649   4.129 -0.0331 -0.0540  0.1886
 1004MOL0     O35408   5.248   9.625   3.996 -0.3003  1.0589  0.4127
 1004MOL0     C35409   5.382   9.607   3.952  0.3988  0.3283  0.1283
 1004MOL0     C35410   5.426   9.700   3.857 -0.2714  0.5668 -1.6086
 1004MOL0     C35411   5.548   9.687   3.793 -0.5129  0.4945 -1.0393
 1004MOL0     C35412   5.638   9.576   3.825  0.6823 -0.4874 -0.7505
 1004MOL0     O35413   5.765   9.568   3.775 -0.1876 -0.1014 -0.1077
 1004MOL0     C35414   5.847   9.693   3.782 -0.1266  0.1889  0.2736
 1004MOL0     C35415   5.972   9.675   3.871  0.1906  0.4823 -0.4072
 1004MOL0     C35416   6.048   9.555   3.815 -0.8392  0.0601  0.5858
 1004MOL0     C35417   6.197   9.580   3.841  0.0448 -0.4926 -1.1789
 1004MOL0     C35418   6.283   9.461   3.803 -0.1327 -0.7465  0.1485
 1004MOL0     C35419   6.294   9.350   3.911  0.1392 -0.4828 -0.1638
 1004MOL0     C35420   6.381   9.376   4.043  0.0409  0.5625  0.4984
 1004MOL0     C35421   6.306   9.310   4.164 -0.5500  0.0085  0.6696
 1004MOL0     N35422   6.183   9.382   4.200  0.7024 -0.3221  0.3760
 1004MOL0     C35423   6.054   9.336   4.185 -0.0830  0.0054 -0.5801
 1004MOL0     C35424   5.982   9.449   4.204 -0.8643 -0.4198 -0.7949
 1004MOL0     C35425   5.829   9.451   4.215  0.0341  0.4803 -0.2080
 1004MOL0     C35426   5.771   9.568   4.297 -0.5559  1.4162  0.0623
 1004MOL0     C35427   5.784   9.680   4.203  0.4326 -1.0614 -1.1659
 1004MOL0     C35428   5.679   9.790   4.247  0.5878  0.2757  0.1648
 1004MOL0     O35429   5.692   9.910   4.175  0.8461 -0.2732  0.2801
 1004MOL0     C35430   5.615  10.014   4.211  0.4963 -0.5360  0.1680
 1004MOL0     C35431   5.506  10.018   4.300  0.1247 -0.3949  0.2425
 1004MOL0     C35432   5.444  10.144   4.322  0.2320  0.0359 -0.9654
 1004MOL0     C35433   5.322  10.137   4.409 -0.5696  0.6905 -0.1166
 1004MOL0     C35434   5.489  10.266   4.266 -0.0309  0.0246 -0.7008
 1004MOL0     C35435   5.432  10.397   4.299 -0.1095  0.3664 -0.5469
 1004MOL0     O35436   5.376  10.412   4.421 -0.4566  0.0380  0.4289
 1004MOL0     C35437   5.322  10.530   4.463  0.6128  0.1612  0.3804
 1004MOL0     C35438   5.191  10.550   4.430  1.5268  0.4626  0.2311
 1004MOL0     C35439   5.119  10.659   4.486 -0.8151 -0.5042  0.6658
 1004MOL0     C35440   5.178  10.746   4.577 -0.7284 -0.2615 -0.1770
 1004MOL0     O35441   5.102  10.849   4.636  0.8293 -0.7267  0.6916
 1004MOL0     C35442   4.967  10.861   4.594  0.2656 -0.3286 -0.4079
 1004MOL0     C35443   4.916  11.000   4.636  0.4162 -0.2278 -0.5287
 1004MOL0     C35444   4.769  11.010   4.611 -0.8174  0.0595  0.2199
 1004MOL0     C35445   4.714  11.134   4.693 -0.0823  0.8698  0.8814
 1004MOL0     C35446   4.695  11.083   4.834  0.3108  0.1216  0.3081
 1004MOL0     C35447   4.554  11.027   4.856 -0.2219 -0.5559 -0.3244
 1004MOL0     C35448   4.544  11.003   5.003  0.0289  0.0342  0.1952
 1004MOL0     C35449   4.406  10.975   5.042  1.1230  0.8278 -0.3159
 1004MOL0    Cl35450   4.353  10.815   4.975  0.3091 -0.0440  0.0059
 1004MOL0     C35451   5.312  10.714   4.614  0.1518 -0.2099 -0.9655
 1004MOL0     C35452   5.379  10.608   4.561  0.6736  0.0869 -0.5682
 1004MOL0     O35453   5.437  10.490   4.219 -0.0953  0.2773 -0.1183
 1004MOL0     C35454   5.589  10.253   4.168  0.2518 -0.3600 -0.2214
 1004MOL0     C35455   5.657  10.136   4.151 -0.5679 -0.4630  0.0437
 1004MOL0     N35456   6.064   9.548   4.258 -0.0550  0.2550  0.3703
 1004MOL0     N35457   6.186   9.507   4.253  0.4438  0.6066  0.3774
 1004MOL0     C35458   5.596   9.489   3.926  0.5740  0.1919  0.3627
 1004MOL0     C35459   5.464   9.503   3.980  0.0775  0.5843  0.0652
 1004MOL0     C35460   5.100   9.686   4.188 -0.4822  0.0421  0.5640
 1004MOL0     C35461   4.991   9.699   4.091 -0.0679  0.2648 -0.1378
 1004MOL0     C35462   4.866   9.736   4.133  0.1470  0.2386 -0.2124
 1004MOL0     C35463   4.844   9.767   4.273  0.3481 -0.1356  0.5915
 1004MOL0     O35464   4.719   9.821   4.309 -0.3296 -0.1755 -0.7333
 1004MOL0     C35465   4.599   9.775   4.243 -0.5351 -0.1229  0.6783
 1004MOL0     C35466   4.478   9.838   4.315  0.1935  0.7820 -0.6253
 1004MOL0     C35467   4.355   9.790   4.242  0.2809 -0.1233  0.1633
 1004MOL0     C35468   4.232   9.836   4.315  0.1305  0.6637  0.0407
 1004MOL0     C35469   4.107   9.818   4.228  0.2290 -0.6816  0.8386
 1004MOL0     C35470   4.018   9.780   4.158 -0.0097 -0.2065  0.4004
 1004MOL0     C35471   4.952   9.767   4.365  1.3416 -0.0094  0.3575
 1004MOL0     C35472   5.075   9.717   4.326  0.3074  0.0243  0.3860
 1004MOL0     H35473   5.355   9.777   3.827 -3.1778 -0.8455  1.0460
 1004MOL0     H35474   5.565   9.756   3.711  0.8786  0.1540 -1.0612
 1004MOL0     H35475   5.881   9.714   3.680 -1.7803  4.1586  0.3414
 1004MOL0     H35476   5.794   9.781   3.819  2.7116  0.8717  3.2079
 1004MOL0     H35477   6.028   9.770   3.868 -0.2876  0.7433 -1.3609
 1004MOL0     H35478   5.931   9.650   3.969 -1.5012  2.6342 -0.4874
 1004MOL0     H35479   6.031   9.455   3.857 -1.8338  0.3014  0.7885
 1004MOL0     H35480   6.031   9.550   3.707  0.3512 -0.7736  0.4167
 1004MOL0     H35481   6.229   9.669   3.787 -1.9395  1.0636  0.0439
 1004MOL0     H35482   6.206   9.592   3.950  1.3929 -1.0475 -1.2121
 1004MOL0     H35483   6.248   9.412   3.711 -3.5045 -1.8005  1.8393
 1004MOL0     H35484   6.384   9.502   3.792 -0.3492 -0.6302 -1.6410
 1004MOL0     H35485   6.193   9.335   3.951  0.3586 -0.7971  0.2808
 1004MOL0     H35486   6.326   9.256   3.866 -1.0753 -0.9400 -0.1089
 1004MOL0     H35487   6.475   9.321   4.038 -1.0307 -2.0105  4.1344
 1004MOL0     H35488   6.410   9.481   4.051  0.2201  0.4767  1.0051
 1004MOL0     H35489   6.364   9.307   4.256 -4.9156  0.4812  3.7792
 1004MOL0     H35490   6.297   9.206   4.131 -1.4088  0.6083 -1.1290
 1004MOL0     H35491   6.026   9.237   4.151  0.7938 -0.0531 -1.1716
 1004MOL0     H35492   5.789   9.449   4.113 -2.3604 -0.7813  0.6884
 1004MOL0     H35493   5.789   9.357   4.255 -0.5778  1.2489  1.0357
 1004MOL0     H35494   5.828   9.579   4.389  1.3150 -0.9592 -0.7234
 1004MOL0     H35495   5.668   9.540   4.322  0.4478 -2.2394  0.7235
 1004MOL0     H35496   5.759   9.655   4.100 -0.2266  1.0774 -1.5764
 1004MOL0     H35497   5.883   9.726   4.212  0.6677 -1.5421 -1.2693
 1004MOL0     H35498   5.678   9.802   4.356 -0.5837 -2.2134  0.5069
 1004MOL0     H35499   5.580   9.748   4.225  0.1023  1.9260 -1.0071
 1004MOL0     H35500   5.464   9.927   4.341 -1.8684  0.4405  0.2115
 1004MOL0     H35501   5.242  10.204   4.377 -0.2125  1.7617  1.1760
 1004MOL0     H35502   5.282  10.035   4.405  1.5713 -0.1776 -0.4541
 1004MOL0     H35503   5.356  10.157   4.511  1.0072  1.9938 -0.8577
 1004MOL0     H35504   5.151  10.476   4.362  4.9347 -0.0634 -1.4151
 1004MOL0     H35505   5.020  10.673   4.442  0.5009  2.8275 -1.6507
 1004MOL0     H35506   4.939  10.852   4.489 -3.6371  1.1796  0.2976
 1004MOL0     H35507   4.912  10.781   4.645  1.9765 -2.3669 -1.6078
 1004MOL0     H35508   4.938  11.020   4.741  1.2377  0.0255 -0.7492
 1004MOL0     H35509   4.970  11.083   4.591 -1.0540  0.3683 -1.2601
 1004MOL0     H35510   4.716  10.917   4.634 -0.5417 -0.0353  0.4786
 1004MOL0     H35511   4.749  11.038   4.507 -0.0475  3.3960  0.8604
 1004MOL0     H35512   4.788  11.214   4.684  2.1047 -1.2228 -1.3702
 1004MOL0     H35513   4.617  11.171   4.657 -1.5092 -1.6653  1.8264
 1004MOL0     H35514   4.697  11.170   4.900 -2.9089 -0.7978  1.8689
 1004MOL0     H35515   4.763  11.000   4.854 -0.0781 -0.0776  0.8444
 1004MOL0     H35516   4.486  11.107   4.826  2.4573  1.5316 -1.3024
 1004MOL0     H35517   4.533  10.938   4.796 -0.6470 -0.7163  0.0593
 1004MOL0     H35518   4.578  11.091   5.058  0.4254 -1.3095  2.1967
 1004MOL0     H35519   4.612  10.922   5.029 -1.0692 -0.9268  0.1879
 1004MOL0     H35520   4.322  11.042   5.021 -1.3863 -2.2913 -1.1753
 1004MOL0     H35521   4.404  10.960   5.150  2.5275 -1.1002 -0.4935
 1004MOL0     H35522   5.360  10.767   4.696  2.6825  0.7743 -2.9458
 1004MOL0     H35523   5.476  10.584   4.603  1.2675  0.2260 -1.8135
 1004MOL0     H35524   5.625  10.334   4.105  0.5394 -1.3786 -1.4039
 1004MOL0     H35525   5.745  10.126   4.088  0.4952  1.1232  1.2142
 1004MOL0     H35526   5.652   9.397   3.937  3.3451  1.4127 -2.1689
 1004MOL0     H35527   5.421   9.431   4.049 -0.4770  1.1254  0.2850
 1004MOL0     H35528   5.008   9.674   3.987  1.4781  1.5040 -0.2187
 1004MOL0     H35529   4.786   9.762   4.063  0.0545 -1.5327 -0.8071
 1004MOL0     H35530   4.589   9.827   4.147 -0.4672  2.1173  1.8245
 1004MOL0     H35531   4.600   9.666   4.232  0.7259 -0.2229  1.5750
 1004MOL0     H35532   4.491   9.947   4.316  2.3771  0.5586 -0.0684
 1004MOL0     H35533   4.469   9.799   4.417  0.6844 -3.0156 -1.8858
 1004MOL0     H35534   4.356   9.681   4.245 -3.4604 -0.2810 -0.4297
 1004MOL0     H35535   4.351   9.822   4.137  0.5682  0.1827  0.2395
 1004MOL0     H35536   4.243   9.943   4.332 -0.2071  1.3185 -3.1691
 1004MOL0     H35537   4.203   9.786   4.408 -3.0915  0.1472 -1.1056
 1004MOL0     H35538   3.937   9.763   4.090 -0.0494  1.5874 -0.0376
 1004MOL0     H35539   4.945   9.792   4.470  0.8737 -0.3083  0.3990
 1004MOL0     H35540   5.166   9.713   4.386  1.3841 -0.7116 -1.2198
 1005MOL0     O35541   5.704   1.782   7.384 -0.0551  0.4010 -0.5205
 1005MOL0     C35542   5.781   1.705   7.324  0.2594 -0.0273 -0.0395
 1005MOL0     O35543   5.745   1.593   7.264 -0.5558  0.2441 -0.0717
 1005MOL0     C35544   5.623   1.533   7.306 -0.2083  0.6328 -0.9747
 1005MOL0     C35545   5.497   1.581   7.256 -0.1972  0.1090  1.1466
 1005MOL0     C35546   5.379   1.531   7.314  0.1352 -0.9648  0.6617
 1005MOL0     C35547   5.379   1.442   7.423 -0.5853  0.5860  0.7341
 1005MOL0     O35548   5.280   1.385   7.495 -0.0697  0.1922  0.5848
 1005MOL0     C35549   5.147   1.413   7.457  0.3038 -0.2510  0.2178
 1005MOL0     C35550   5.049   1.330   7.546 -0.2357  0.0340 -0.3078
 1005MOL0     C35551   4.906   1.339   7.490 -0.1984 -0.0544  0.6380
 1005MOL0     C35552   4.835   1.480   7.527 -0.2456  0.0145 -0.4720
 1005MOL0     C35553   4.687   1.503   7.478  0.2930  0.3020  1.0871
 1005MOL0     C35554   4.577   1.404   7.527  1.0059  1.3854 -0.2078
 1005MOL0     C35555   4.433   1.429   7.472 -0.2543  0.8099  0.2277
 1005MOL0     C35556   4.326   1.335   7.530 -0.7705  0.0037  0.1564
 1005MOL0     N35557   4.183   1.362   7.482  0.6571 -0.6679  0.4264
 1005MOL0     C35558   4.063   1.325   7.541 -0.3582 -0.4445 -0.1603
 1005MOL0     C35559   3.966   1.368   7.456  0.9797 -0.1569 -0.7688
 1005MOL0     C35560   3.822   1.379   7.504  0.4903 -0.6327 -0.3103
 1005MOL0     C35561   3.729   1.364   7.380 -0.0322  1.0555 -0.2597
 1005MOL0     C35562   3.584   1.336   7.429  0.4033 -0.1092 -0.0135
 1005MOL0     C35563   3.482   1.431   7.375  0.6301  0.7132  0.0856
 1005MOL0     O35564   3.449   1.403   7.245  0.0079  0.6264  0.5882
 1005MOL0     C35565   3.318   1.401   7.208 -0.8308  0.6237  0.1345
 1005MOL0     C35566   3.293   1.324   7.093  0.0906 -0.5877  0.2788
 1005MOL0     C35567   3.165   1.294   7.050 -0.4894 -0.5202 -0.6439
 1005MOL0     C35568   3.152   1.193   6.945  0.8588  0.5343  1.2204
 1005MOL0     C35569   3.058   1.347   7.130  0.6078 -0.3039  0.1501
 1005MOL0     C35570   2.918   1.318   7.108  0.0692 -0.3011 -0.6403
 1005MOL0     O35571   2.878   1.286   6.976  0.6939  0.2347  0.5059
 1005MOL0     C35572   2.752   1.307   6.937 -0.1318 -0.0253  0.7275
 1005MOL0     C35573   2.692   1.214   6.846 -0.6165  0.4252  0.4119
 1005MOL0     C35574   2.566   1.233   6.791  0.1603 -0.8058 -0.6963
 1005MOL0     C35575   2.492   1.338   6.838  0.5907 -0.7048 -0.0873
 1005MOL0     O35576   2.362   1.369   6.807  0.5173  0.3448 -0.2638
 1005MOL0     C35577   2.274   1.270   6.753 -0.5007  0.3653 -0.2646
 1005MOL0     C35578   2.145   1.345   6.746 -0.2022  0.1335 -0.1564
 1005MOL0     C35579   2.052   1.251   6.667  0.7511  0.6096 -0.3618
 1005MOL0     C35580   1.932   1.351   6.650  0.0818 -0.5154  0.0317
 1005MOL0     C35581   1.804   1.289   6.595  0.4279 -0.6918 -0.9522
 1005MOL0     C35582   1.819   1.226   6.458  0.1610  1.0560  0.8852
 1005MOL0     C35583   1.816   1.335   6.355  0.3324  0.0095 -0.1127
 1005MOL0     C35584   1.815   1.262   6.216  0.1284  0.8877 -0.7095
 1005MOL0    Cl35585   1.828   1.365   6.087 -0.3322  0.2806 -0.0228
 1005MOL0     C35586   2.543   1.431   6.928  0.8267  0.1672  0.4999
 1005MOL0     C35587   2.672   1.416   6.980  0.2578 -0.1409  0.3868
 1005MOL0     O35588   2.839   1.317   7.210 -0.7032 -0.5844 -0.3529
 1005MOL0     C35589   3.090   1.442   7.230  1.2282 -0.6868 -0.3595
 1005MOL0     C35590   3.221   1.465   7.274 -0.1201 -0.0972  0.2601
 1005MOL0     N35591   4.021   1.409   7.344 -0.4386  0.6214  1.5900
 1005MOL0     N35592   4.157   1.410   7.361  0.0922 -0.0534  0.2478
 1005MOL0     C35593   5.505   1.394   7.464 -0.6372 -0.1315 -0.0080
 1005MOL0     C35594   5.627   1.443   7.406  0.2174 -0.0988 -0.8645
 1005MOL0     C35595   5.918   1.748   7.299 -1.1486  0.3310  0.1520
 1005MOL0     C35596   5.992   1.693   7.194 -0.8381  0.2837 -0.0786
 1005MOL0     C35597   6.129   1.727   7.175  0.0971  0.2097 -0.3504
 1005MOL0     C35598   6.193   1.818   7.263  0.1974 -0.3346  0.3693
 1005MOL0     O35599   6.328   1.839   7.260  0.5407 -0.5384  0.6124
 1005MOL0     C35600   6.397   1.811   7.381  0.0096 -0.0077 -0.0276
 1005MOL0     C35601   6.472   1.940   7.418 -0.6679  0.2870  0.5449
 1005MOL0     C35602   6.581   1.932   7.527  0.3254  1.0563 -0.6272
 1005MOL0     C35603   6.638   2.076   7.567 -0.1199  1.2445 -0.4577
 1005MOL0     C35604   6.715   2.068   7.688  0.5807 -0.2132 -1.4232
 1005MOL0     C35605   6.783   2.059   7.794  0.5960 -0.5930 -0.4900
 1005MOL0     C35606   6.117   1.865   7.373  0.4646  0.3053  0.1744
 1005MOL0     C35607   5.984   1.831   7.389  0.5692  0.3208  0.2363
 1005MOL0     H35608   5.504   1.644   7.168 -1.6291  0.6547  1.3883
 1005MOL0     H35609   5.284   1.559   7.270 -0.1851 -0.2594  1.7605
 1005MOL0     H35610   5.128   1.519   7.474  0.4033 -0.2076  0.0624
 1005MOL0     H35611   5.123   1.390   7.352 -2.6786 -0.4201  0.8737
 1005MOL0     H35612   5.084   1.227   7.537 -0.0111  0.2000 -1.5569
 1005MOL0     H35613   5.063   1.361   7.650  0.4856  1.1701 -0.7153
 1005MOL0     H35614   4.901   1.307   7.386  0.0102 -3.0654  1.4713
 1005MOL0     H35615   4.854   1.258   7.542  0.6938  0.6109  2.7200
 1005MOL0     H35616   4.843   1.494   7.636  1.4982 -0.6674 -0.4794
 1005MOL0     H35617   4.893   1.560   7.480 -0.0991  0.8461  1.0478
 1005MOL0     H35618   4.654   1.605   7.504  1.5588  0.7089  1.1608
 1005MOL0     H35619   4.690   1.498   7.369  0.0395 -0.9219  1.1277
 1005MOL0     H35620   4.600   1.298   7.514 -2.1869  0.4359  0.9254
 1005MOL0     H35621   4.572   1.423   7.634 -1.9124  1.5506 -0.2812
 1005MOL0     H35622   4.413   1.531   7.505  1.1246  1.1471  0.0735
 1005MOL0     H35623   4.435   1.429   7.363 -1.7528 -0.6127  0.1653
 1005MOL0     H35624   4.330   1.356   7.637  1.8608  0.3258  0.0659
 1005MOL0     H35625   4.356   1.232   7.511  1.8623  0.6744  0.2263
 1005MOL0     H35626   4.060   1.293   7.645  0.7602 -1.9943 -0.5612
 1005MOL0     H35627   3.816   1.300   7.579 -1.1425 -0.0525  0.2075
 1005MOL0     H35628   3.799   1.476   7.550 -0.5102  0.1121 -2.2643
 1005MOL0     H35629   3.766   1.278   7.322 -2.1491  0.5456 -0.9280
 1005MOL0     H35630   3.740   1.454   7.319  1.4358  1.2284  0.2251
 1005MOL0     H35631   3.579   1.322   7.538  2.2132  0.1710  0.1363
 1005MOL0     H35632   3.562   1.233   7.398 -0.7987  0.7055 -2.0947
 1005MOL0     H35633   3.524   1.532   7.380 -0.6252  1.2307  0.4907
 1005MOL0     H35634   3.398   1.436   7.445 -0.6890 -0.9176 -1.3279
 1005MOL0     H35635   3.382   1.282   7.048 -0.3018 -0.5060 -0.5915
 1005MOL0     H35636   3.101   1.225   6.854  1.3872 -1.9458 -0.0331
 1005MOL0     H35637   3.247   1.153   6.911  1.1312 -1.8535  4.3173
 1005MOL0     H35638   3.091   1.110   6.982  1.3558 -0.0902  0.6604
 1005MOL0     H35639   2.746   1.122   6.826 -2.6679 -0.9430  0.9063
 1005MOL0     H35640   2.523   1.154   6.730 -1.3105  0.4142 -1.2968
 1005MOL0     H35641   2.306   1.227   6.657  1.9242  0.3798  0.4736
 1005MOL0     H35642   2.267   1.188   6.824  0.3132 -1.2046 -1.9230
 1005MOL0     H35643   2.093   1.352   6.842 -2.0159  1.3356 -1.1627
 1005MOL0     H35644   2.151   1.441   6.694 -0.1632  0.1761 -0.0739
 1005MOL0     H35645   2.032   1.158   6.722 -0.9913 -0.4073 -2.5234
 1005MOL0     H35646   2.092   1.221   6.569 -1.8822 -1.7181 -0.8644
 1005MOL0     H35647   1.902   1.373   6.753  1.6162 -3.5193  1.2545
 1005MOL0     H35648   1.965   1.446   6.607  2.5347 -1.0227  0.6461
 1005MOL0     H35649   1.730   1.368   6.609 -0.3900 -1.6846  0.6234
 1005MOL0     H35650   1.756   1.212   6.656 -3.2724  1.8489 -0.3728
 1005MOL0     H35651   1.904   1.158   6.459 -0.9576 -0.3816  1.9873
 1005MOL0     H35652   1.731   1.162   6.447  1.5723 -0.8899  0.4339
 1005MOL0     H35653   1.908   1.392   6.363  2.5212 -3.3159  0.5308
 1005MOL0     H35654   1.733   1.405   6.365  1.2672  1.1650 -0.2874
 1005MOL0     H35655   1.722   1.205   6.207  0.0042  0.9862 -0.1164
 1005MOL0     H35656   1.888   1.181   6.210 -3.1797 -2.3185 -1.7864
 1005MOL0     H35657   2.487   1.517   6.966  0.0609 -1.6691  3.9075
 1005MOL0     H35658   2.715   1.484   7.052  1.2513  0.2370 -0.5434
 1005MOL0     H35659   3.010   1.500   7.275  0.6307 -1.0935 -0.8705
 1005MOL0     H35660   3.243   1.535   7.355 -1.8263  1.2281 -0.3574
 1005MOL0     H35661   5.498   1.321   7.543 -2.2990 -0.1859 -0.1646
 1005MOL0     H35662   5.723   1.414   7.447 -0.1753 -0.4730 -0.1774
 1005MOL0     H35663   5.945   1.619   7.130 -3.3956  1.8901 -0.2070
 1005MOL0     H35664   6.193   1.676   7.104  0.3283  0.6542 -0.4640
 1005MOL0     H35665   6.330   1.786   7.465 -0.8146  2.5109  0.1455
 1005MOL0     H35666   6.458   1.720   7.372  0.7963  0.5199 -0.0922
 1005MOL0     H35667   6.396   2.016   7.443  0.1337  1.3383 -0.1321
 1005MOL0     H35668   6.524   1.968   7.326  2.6326  2.3680  2.7913
 1005MOL0     H35669   6.646   1.852   7.491  0.5455  0.0495  1.8024
 1005MOL0     H35670   6.537   1.895   7.620  2.1156  3.0566  1.1207
 1005MOL0     H35671   6.551   2.141   7.578 -0.1543  1.1200  0.0398
 1005MOL0     H35672   6.698   2.106   7.480 -1.8005 -0.0869 -2.1757
 1005MOL0     H35673   6.835   2.036   7.885  1.2641 -0.0412 -0.7220
 1005MOL0     H35674   6.159   1.938   7.441 -1.9092  2.0910 -0.1343
 1005MOL0     H35675   5.934   1.875   7.475  0.4412  0.3659  0.1401
 1006MOL0     O35676   9.901   7.513   4.017 -0.9504  0.9012  0.3646
 1006MOL0     C35677   9.915   7.628   3.973  0.8390  0.2043  0.7684
 1006MOL0     O35678   9.806   7.697   3.912 -0.3588  0.3881  0.4361
 1006MOL0     C35679   9.701   7.626   3.864 -0.2279 -0.0465  0.7385
 1006MOL0     C35680   9.590   7.586   3.943 -1.2768 -0.8052 -0.1735
 1006MOL0     C35681   9.487   7.520   3.882  0.1376  0.9544 -0.6366
 1006MOL0     C35682   9.500   7.478   3.748  0.4405 -0.7368 -0.0804
 1006MOL0     O35683   9.389   7.409   3.701 -0.5352 -0.6599  0.0640
 1006MOL0     C35684   9.380   7.370   3.562 -0.2303  0.1869  1.2736
 1006MOL0     C35685   9.320   7.232   3.558 -0.0995  0.0639 -0.0578
 1006MOL0     C35686   9.166   7.220   3.595 -1.0295 -0.2469  1.5279
 1006MOL0     C35687   9.111   7.096   3.534 -0.1058  0.1289  0.0138
 1006MOL0     C35688   9.050   7.000   3.646 -0.3566  0.1672  0.1121
 1006MOL0     C35689   8.903   7.029   3.669  0.0358 -0.1583  0.1376
 1006MOL0     C35690   8.883   7.174   3.705 -0.8679 -0.1108  0.0212
 1006MOL0     C35691   8.734   7.193   3.756  0.1421  0.1601  0.5101
 1006MOL0     N35692   8.635   7.156   3.657 -0.3350  0.5247  0.2172
 1006MOL0     C35693   8.619   7.217   3.532  0.3187 -0.3727  0.5123
 1006MOL0     C35694   8.519   7.140   3.478  0.7430  0.8736  0.3995
 1006MOL0     C35695   8.469   7.141   3.338 -0.4981 -0.7060  0.2580
 1006MOL0     C35696   8.313   7.143   3.323 -0.2022  0.0656 -0.2766
 1006MOL0     C35697   8.247   7.270   3.389 -0.0736 -0.1751 -0.7668
 1006MOL0     C35698   8.098   7.285   3.339  0.0318 -0.0685 -0.2454
 1006MOL0     O35699   8.119   7.316   3.202  0.3869  0.1453  0.2514
 1006MOL0     C35700   8.018   7.298   3.114  0.0513 -0.8639  0.3353
 1006MOL0     C35701   7.884   7.296   3.148 -0.4289  0.3442  0.0807
 1006MOL0     C35702   7.784   7.290   3.055 -0.8056 -1.0196  0.6908
 1006MOL0     C35703   7.645   7.304   3.110 -0.5683 -0.0388  0.7682
 1006MOL0     C35704   7.824   7.282   2.916  0.2834 -0.2497 -0.3396
 1006MOL0     C35705   7.734   7.257   2.808 -0.5417 -0.2604  0.0104
 1006MOL0     O35706   7.646   7.158   2.828  0.3113 -0.4009 -0.0205
 1006MOL0     C35707   7.547   7.155   2.737  0.4550  0.7043 -0.0561
 1006MOL0     C35708   7.427   7.220   2.760  0.8436  0.4083 -0.1355
 1006MOL0     C35709   7.326   7.219   2.664 -0.3317 -0.7066 -0.6558
 1006MOL0     C35710   7.333   7.138   2.552 -0.2198 -0.7761 -0.4748
 1006MOL0     O35711   7.230   7.142   2.464  0.3288  0.5503 -0.0401
 1006MOL0     C35712   7.256   7.110   2.322  0.6170 -0.2100 -0.4095
 1006MOL0     C35713   7.336   7.222   2.255  0.0410  0.2511  1.0976
 1006MOL0     C35714   7.271   7.364   2.283  0.3596 -0.6590  0.2098
 1006MOL0     C35715   7.138   7.382   2.199  0.4188  0.1782 -0.6682
 1006MOL0     C35716   7.151   7.369   2.046  0.1281  0.3288  0.5176
 1006MOL0     C35717   7.249   7.464   1.983  0.4929  0.4587  1.2149
 1006MOL0     C35718   7.233   7.486   1.834  0.2555  0.0659  0.1104
 1006MOL0     C35719   7.332   7.584   1.766  0.3270  0.2130  0.0772
 1006MOL0    Cl35720   7.502   7.534   1.803  0.0202  0.5465 -0.2541
 1006MOL0     C35721   7.447   7.053   2.544 -0.2644 -0.7483  0.2988
 1006MOL0     C35722   7.558   7.075   2.626 -0.2541  1.5054 -0.0701
 1006MOL0     O35723   7.738   7.332   2.711 -0.4259 -0.0942  0.1231
 1006MOL0     C35724   7.960   7.271   2.884  0.8647 -0.4944  0.0171
 1006MOL0     C35725   8.057   7.287   2.983  0.1354  0.0939  0.2955
 1006MOL0     N35726   8.463   7.054   3.573  0.1218  0.0250  0.3699
 1006MOL0     N35727   8.539   7.067   3.678  0.2341  0.9417 -0.3075
 1006MOL0     C35728   9.610   7.506   3.674 -0.4588  0.6012 -0.9890
 1006MOL0     C35729   9.707   7.582   3.731 -0.5584 -0.6381 -0.5169
 1006MOL0     C35730  10.036   7.697   3.998  0.0282  0.3487 -0.1308
 1006MOL0     C35731  10.140   7.628   4.072  0.3015 -0.2700 -0.1736
 1006MOL0     C35732  10.263   7.703   4.084 -0.0539  0.1795  0.8091
 1006MOL0     C35733  10.274   7.835   4.053 -0.9448  0.1264  1.3603
 1006MOL0     O35734  10.387   7.905   4.060  0.0510  0.4103  0.4335
 1006MOL0     C35735  10.518   7.837   4.083 -0.0301 -0.0686 -0.3701
 1006MOL0     C35736  10.639   7.935   4.050  0.4121 -0.1407  0.3375
 1006MOL0     C35737  10.766   7.910   4.119  0.1825 -0.3730 -0.0312
 1006MOL0     C35738  10.876   7.993   4.050  0.1128  0.2206 -0.4326
 1006MOL0     C35739  10.839   8.144   4.058  0.5848  0.3893  0.1675
 1006MOL0     C35740  10.804   8.264   4.071  0.6420  0.3775 -0.3078
 1006MOL0     C35741  10.174   7.901   3.981 -0.3201 -0.4670 -0.2016
 1006MOL0     C35742  10.055   7.829   3.954  0.7429 -0.5578  0.1092
 1006MOL0     H35743   9.595   7.613   4.048  0.5373 -0.2869 -0.3748
 1006MOL0     H35744   9.410   7.484   3.949  3.5626 -2.2319  2.0171
 1006MOL0     H35745   9.318   7.433   3.498  0.5085  0.7648  1.1159
 1006MOL0     H35746   9.471   7.359   3.502 -1.5713  2.7246 -1.4911
 1006MOL0     H35747   9.342   7.186   3.462  0.2580 -0.3529  0.2191
 1006MOL0     H35748   9.378   7.167   3.624 -0.8144 -0.4573  0.0672
 1006MOL0     H35749   9.166   7.234   3.704 -0.3617  0.9163  1.4018
 1006MOL0     H35750   9.122   7.309   3.550  1.8531  0.6757  0.2610
 1006MOL0     H35751   9.035   7.117   3.459 -0.4455  0.8628  0.5568
 1006MOL0     H35752   9.188   7.033   3.490  2.2307  2.3589  0.6137
 1006MOL0     H35753   9.074   6.894   3.631  2.3089  0.3314  2.4617
 1006MOL0     H35754   9.093   7.022   3.744 -1.8676  0.8955  0.6292
 1006MOL0     H35755   8.838   7.010   3.583 -0.2568  0.2640  0.2629
 1006MOL0     H35756   8.872   6.970   3.756 -0.0140 -0.1066  0.1549
 1006MOL0     H35757   8.955   7.204   3.782  0.4278  1.7832 -1.8225
 1006MOL0     H35758   8.892   7.231   3.612 -2.3325 -1.4215 -0.9785
 1006MOL0     H35759   8.712   7.298   3.777 -2.1060 -0.0878 -0.3834
 1006MOL0     H35760   8.721   7.129   3.844  1.5007 -0.3911  0.3344
 1006MOL0     H35761   8.679   7.288   3.477  1.5730 -3.4278 -2.4320
 1006MOL0     H35762   8.503   7.231   3.286  1.3298 -1.2650  0.3942
 1006MOL0     H35763   8.521   7.058   3.291  1.9666  1.0483 -0.3386
 1006MOL0     H35764   8.275   7.052   3.371  0.6685 -1.1232 -1.7624
 1006MOL0     H35765   8.289   7.137   3.217  1.1522  3.1220 -0.8350
 1006MOL0     H35766   8.316   7.350   3.362  0.9407 -0.3847  1.0331
 1006MOL0     H35767   8.245   7.270   3.499 -0.5004  1.0419 -0.7588
 1006MOL0     H35768   8.064   7.378   3.386 -1.1868 -1.1869  1.1702
 1006MOL0     H35769   8.057   7.186   3.362 -1.2069 -1.1189 -5.4501
 1006MOL0     H35770   7.855   7.310   3.251 -0.3326 -1.9601  0.4767
 1006MOL0     H35771   7.641   7.212   3.170 -1.5886 -1.1125 -0.8550
 1006MOL0     H35772   7.632   7.391   3.174  0.0184  0.5899  0.0531
 1006MOL0     H35773   7.562   7.309   3.039  0.1644  1.6204 -0.0416
 1006MOL0     H35774   7.418   7.291   2.841 -1.5450  1.2835 -1.0721
 1006MOL0     H35775   7.234   7.275   2.673 -1.3098 -2.2325 -0.8077
 1006MOL0     H35776   7.300   7.010   2.325  2.1483  0.4103 -1.1211
 1006MOL0     H35777   7.173   7.084   2.257  0.7760 -1.6825 -0.0478
 1006MOL0     H35778   7.433   7.226   2.305 -0.7634  1.1527  2.6511
 1006MOL0     H35779   7.347   7.210   2.146 -0.1634  1.9755  0.8455
 1006MOL0     H35780   7.339   7.447   2.262  2.5573 -1.7719  2.4756
 1006MOL0     H35781   7.254   7.380   2.390  0.3605 -0.6254  0.2051
 1006MOL0     H35782   7.069   7.302   2.228  1.8707 -0.3190  1.6269
 1006MOL0     H35783   7.095   7.480   2.221 -0.4778  0.4224 -3.1488
 1006MOL0     H35784   7.050   7.373   2.006 -0.8202  0.1458  2.7443
 1006MOL0     H35785   7.189   7.270   2.016  0.9413  0.8587 -0.2475
 1006MOL0     H35786   7.229   7.560   2.031  0.6901  2.2676 -2.0962
 1006MOL0     H35787   7.353   7.434   2.001  1.1260  0.4720 -1.8998
 1006MOL0     H35788   7.131   7.518   1.808  0.4554 -1.1373 -2.4860
 1006MOL0     H35789   7.255   7.393   1.782  1.0963 -0.2367  0.9888
 1006MOL0     H35790   7.314   7.682   1.810 -1.6075  0.0904 -0.3459
 1006MOL0     H35791   7.303   7.581   1.661 -0.7609 -3.5796  0.3141
 1006MOL0     H35792   7.437   6.970   2.475  0.8841 -0.6645  0.0249
 1006MOL0     H35793   7.649   7.016   2.623 -0.4690  1.0240  1.6918
 1006MOL0     H35794   7.985   7.270   2.778  0.4092  3.5831 -0.3188
 1006MOL0     H35795   8.161   7.290   2.951  0.2205  0.2751  0.5822
 1006MOL0     H35796   9.614   7.477   3.570 -1.9227 -3.7954 -0.0334
 1006MOL0     H35797   9.802   7.607   3.685  0.1125  3.7589  2.5844
 1006MOL0     H35798  10.132   7.522   4.092 -0.2329 -0.4649 -1.3370
 1006MOL0     H35799  10.350   7.651   4.121 -0.1282  0.3966  1.2914
 1006MOL0     H35800  10.530   7.818   4.190  0.4238  3.3827  0.3398
 1006MOL0     H35801  10.534   7.753   4.014 -0.0947  1.7331 -2.7282
 1006MOL0     H35802  10.607   8.037   4.071 -0.6914 -0.1883 -0.9611
 1006MOL0     H35803  10.660   7.922   3.943 -1.5040  5.0314 -0.9495
 1006MOL0     H35804  10.797   7.805   4.124  0.8700 -0.1637  0.3206
 1006MOL0     H35805  10.765   7.941   4.224  0.5971  0.7545 -0.3502
 1006MOL0     H35806  10.876   7.958   3.946 -1.5235 -1.7072  0.1414
 1006MOL0     H35807  10.972   7.976   4.098 -0.5033 -2.4373  0.0128
 1006MOL0     H35808  10.780   8.368   4.082 -1.9763 -0.3687  2.5808
 1006MOL0     H35809  10.196   8.001   3.946  1.2831 -2.3825 -5.5502
 1006MOL0     H35810   9.977   7.888   3.908  0.4900  1.5908  2.9880
 1007MOL0     O35811   8.844   3.775   2.985 -0.0924 -0.6096  0.3550
 1007MOL0     C35812   8.927   3.850   2.933 -0.4008 -0.3543 -0.7513
 1007MOL0     O35813   8.898   3.961   2.850 -0.0456  0.0193  0.3435
 1007MOL0     C35814   8.766   3.981   2.821  0.9193  0.4377 -0.2815
 1007MOL0     C35815   8.737   4.005   2.685  0.3607 -0.7174 -0.0498
 1007MOL0     C35816   8.610   4.042   2.647 -0.0514 -0.0156  0.0691
 1007MOL0     C35817   8.500   4.042   2.737 -0.2926  0.0219 -0.2243
 1007MOL0     O35818   8.369   4.063   2.704  0.2828 -0.2727 -0.4333
 1007MOL0     C35819   8.350   4.161   2.603  0.3074  0.5314 -0.7922
 1007MOL0     C35820   8.205   4.199   2.621 -0.2940  0.0024 -0.1558
 1007MOL0     C35821   8.178   4.329   2.539 -0.2186  0.3979  0.2335
 1007MOL0     C35822   8.042   4.382   2.563 -1.2039  0.1491  0.3123
 1007MOL0     C35823   7.928   4.292   2.513 -0.2732 -1.3164  0.1085
 1007MOL0     C35824   7.803   4.376   2.482  0.4833 -0.1002 -0.2591
 1007MOL0     C35825   7.733   4.415   2.604 -0.2465  0.3045 -0.7309
 1007MOL0     C35826   7.604   4.497   2.560  1.2796  0.6223 -0.0199
 1007MOL0     N35827   7.636   4.606   2.471  0.5263  0.9593 -0.0319
 1007MOL0     C35828   7.610   4.604   2.329 -0.6680 -0.2120  0.0416
 1007MOL0     C35829   7.657   4.729   2.303 -0.4781 -0.8063 -0.3691
 1007MOL0     C35830   7.657   4.794   2.173 -0.1913 -0.7985 -0.4516
 1007MOL0     C35831   7.510   4.839   2.141  0.0091  0.1986  0.5690
 1007MOL0     C35832   7.506   4.947   2.041  0.4756  0.1325  0.4080
 1007MOL0     C35833   7.368   4.973   1.987  0.4857  0.6423 -0.5214
 1007MOL0     O35834   7.312   4.850   1.936 -0.8442 -0.3840 -0.4557
 1007MOL0     C35835   7.176   4.830   1.932  0.1193  0.8069 -0.1876
 1007MOL0     C35836   7.132   4.697   1.933 -0.7441  0.5350 -0.7919
 1007MOL0     C35837   6.997   4.662   1.942  0.0508 -0.3890 -0.0024
 1007MOL0     C35838   6.964   4.522   1.953  0.0219  0.5264 -0.4687
 1007MOL0     C35839   6.896   4.761   1.961  1.1809 -0.2603  0.2287
 1007MOL0     C35840   6.756   4.734   1.999  0.7851 -0.0367 -0.0979
 1007MOL0     O35841   6.669   4.837   1.967  0.4036 -0.0492  0.1922
 1007MOL0     C35842   6.542   4.845   2.008 -0.8430  0.3770  0.3459
 1007MOL0     C35843   6.461   4.753   2.075  0.1576 -0.6162  0.6495
 1007MOL0     C35844   6.327   4.788   2.114 -0.5186 -0.0122  0.0697
 1007MOL0     C35845   6.274   4.916   2.090  0.2413  0.6312  0.3744
 1007MOL0     O35846   6.143   4.942   2.114 -0.1030 -1.0116 -0.2901
 1007MOL0     C35847   6.043   4.855   2.065  0.3231  0.4494 -0.3009
 1007MOL0     C35848   5.966   4.800   2.187  0.6211 -0.4063  0.3484
 1007MOL0     C35849   5.872   4.682   2.145  0.1155 -0.6300 -0.2513
 1007MOL0     C35850   5.790   4.653   2.269 -0.5030  0.1942  0.1621
 1007MOL0     C35851   5.682   4.550   2.238 -1.4914  0.5798  0.4139
 1007MOL0     C35852   5.614   4.488   2.366 -0.1772  0.6755  0.2135
 1007MOL0     C35853   5.707   4.458   2.484  0.3970  0.8494 -0.4139
 1007MOL0     C35854   5.638   4.360   2.578 -0.3047 -0.0712  0.0742
 1007MOL0    Cl35855   5.745   4.307   2.713  0.2622 -0.0955 -0.3004
 1007MOL0     C35856   6.351   5.009   2.022 -0.6350 -0.4456  0.3506
 1007MOL0     C35857   6.476   4.968   1.980 -0.9125 -0.1611 -0.2110
 1007MOL0     O35858   6.737   4.638   2.070  0.3218  0.6300  0.0709
 1007MOL0     C35859   6.946   4.895   1.952 -0.4739 -0.4648  0.7052
 1007MOL0     C35860   7.082   4.930   1.941  0.0808  0.6289 -0.4220
 1007MOL0     N35861   7.695   4.797   2.418  0.0855  0.2987  0.1505
 1007MOL0     N35862   7.682   4.720   2.519 -0.0561  0.1311 -0.0201
 1007MOL0     C35863   8.529   4.010   2.866  0.2804  0.0951 -0.0498
 1007MOL0     C35864   8.662   4.005   2.912 -0.2247 -0.1871  0.1125
 1007MOL0     C35865   9.064   3.846   2.987  0.5435 -0.4971  0.3421
 1007MOL0     C35866   9.167   3.931   2.950  0.0498 -0.2355  0.3541
 1007MOL0     C35867   9.302   3.913   2.990  0.0642 -0.9346 -0.8959
 1007MOL0     C35868   9.335   3.809   3.079  0.5959  0.5186  0.6687
 1007MOL0     O35869   9.458   3.790   3.125 -0.3561 -0.5900 -0.4161
 1007MOL0     C35870   9.573   3.849   3.061 -0.3628 -0.2414  0.0341
 1007MOL0     C35871   9.702   3.766   3.105  0.1171  0.0486  0.9854
 1007MOL0     C35872   9.698   3.739   3.253  0.8012 -0.5516 -0.1155
 1007MOL0     C35873   9.838   3.695   3.306  0.6963  0.2133 -0.2935
 1007MOL0     C35874   9.888   3.578   3.240 -0.0881  0.2362 -0.3538
 1007MOL0     C35875   9.922   3.485   3.165 -0.1033 -0.4133 -0.3002
 1007MOL0     C35876   9.234   3.727   3.111 -0.7755  0.0521 -0.0492
 1007MOL0     C35877   9.102   3.741   3.065 -0.7730  0.4505 -0.2387
 1007MOL0     H35878   8.825   4.005   2.622  0.1040  1.0719 -0.4592
 1007MOL0     H35879   8.588   4.064   2.543  0.5335 -1.0036 -0.2729
 1007MOL0     H35880   8.415   4.249   2.608 -0.8637  1.4091 -0.6508
 1007MOL0     H35881   8.364   4.119   2.503  2.8410  1.0857 -0.7236
 1007MOL0     H35882   8.131   4.126   2.586 -0.3945  0.6914 -1.4148
 1007MOL0     H35883   8.186   4.226   2.726  0.6869 -1.5140  0.4428
 1007MOL0     H35884   8.252   4.407   2.561  1.0987 -0.5569 -0.6938
 1007MOL0     H35885   8.197   4.306   2.434  0.2070  0.7312  0.2334
 1007MOL0     H35886   8.023   4.386   2.670 -2.0764  0.9035  0.1436
 1007MOL0     H35887   8.030   4.486   2.532  2.0113  1.1475  1.9669
 1007MOL0     H35888   7.961   4.242   2.421 -1.9359 -0.7152 -0.8731
 1007MOL0     H35889   7.922   4.220   2.595 -0.9676 -1.2166  0.1468
 1007MOL0     H35890   7.841   4.466   2.433  1.7919 -1.3690 -1.6438
 1007MOL0     H35891   7.731   4.322   2.420  1.0050 -3.5964  1.8813
 1007MOL0     H35892   7.697   4.328   2.660  0.3797 -0.4144 -1.4137
 1007MOL0     H35893   7.803   4.468   2.669  0.7509  1.8999 -2.9733
 1007MOL0     H35894   7.554   4.534   2.650 -0.7692  2.3271 -1.7433
 1007MOL0     H35895   7.540   4.429   2.502  1.2118  1.2932 -0.7364
 1007MOL0     H35896   7.574   4.520   2.270 -0.1412 -1.5230  1.5157
 1007MOL0     H35897   7.714   4.888   2.172 -2.0721  0.3869 -1.2657
 1007MOL0     H35898   7.706   4.742   2.090  2.7355  0.6756  0.1895
 1007MOL0     H35899   7.464   4.890   2.226 -0.3934  0.8405 -0.0281
 1007MOL0     H35900   7.445   4.754   2.116 -0.7784  1.3391 -1.4630
 1007MOL0     H35901   7.572   4.934   1.954  1.8363  1.2232  1.2299
 1007MOL0     H35902   7.546   5.035   2.092  0.7836  0.6393 -0.6672
 1007MOL0     H35903   7.378   5.062   1.925 -0.7248  2.2202  1.4056
 1007MOL0     H35904   7.296   5.001   2.065 -0.5768 -2.5899 -0.1661
 1007MOL0     H35905   7.204   4.617   1.924 -0.4566  0.5348  1.1713
 1007MOL0     H35906   6.945   4.498   2.058  0.7583  3.0000  0.3068
 1007MOL0     H35907   6.883   4.490   1.888  1.8969 -0.3273 -2.5256
 1007MOL0     H35908   7.050   4.461   1.923  0.6746 -0.0226  2.2618
 1007MOL0     H35909   6.495   4.652   2.096  0.5048 -0.0802  2.9803
 1007MOL0     H35910   6.265   4.705   2.147  1.0618 -1.6968 -0.9963
 1007MOL0     H35911   5.969   4.905   2.001  2.1539 -0.2594 -3.1471
 1007MOL0     H35912   6.081   4.780   1.995  0.9948  0.5390 -0.0298
 1007MOL0     H35913   6.036   4.763   2.262 -0.1112  0.4408  1.4757
 1007MOL0     H35914   5.909   4.885   2.225  0.8866 -0.9769  2.0978
 1007MOL0     H35915   5.932   4.602   2.101 -0.8829 -2.1123  0.9678
 1007MOL0     H35916   5.805   4.724   2.070 -1.5577 -0.3115  1.3514
 1007MOL0     H35917   5.863   4.614   2.341 -0.5574 -4.0359 -1.7532
 1007MOL0     H35918   5.748   4.749   2.301  1.6396  1.7195 -1.2830
 1007MOL0     H35919   5.727   4.463   2.188 -1.6009  0.0998  1.1310
 1007MOL0     H35920   5.608   4.594   2.171 -3.3245 -4.1097 -1.1096
 1007MOL0     H35921   5.542   4.562   2.403  0.1912 -0.2153  2.9915
 1007MOL0     H35922   5.562   4.405   2.317  3.2389 -1.5178  0.0236
 1007MOL0     H35923   5.730   4.551   2.538  2.1709 -0.3571  1.0460
 1007MOL0     H35924   5.801   4.415   2.447 -1.2740 -3.1105 -0.5710
 1007MOL0     H35925   5.603   4.271   2.525 -0.9370  0.7695 -0.9706
 1007MOL0     H35926   5.545   4.395   2.624 -0.5247 -2.8285  1.9513
 1007MOL0     H35927   6.304   5.104   1.999  1.1897 -0.1973 -3.0426
 1007MOL0     H35928   6.525   5.041   1.917  0.9340 -0.5670  0.6943
 1007MOL0     H35929   6.879   4.979   1.965  1.8548  1.9170 -1.6416
 1007MOL0     H35930   7.117   5.033   1.938 -0.8391  1.0770  1.8206
 1007MOL0     H35931   8.452   4.002   2.941 -0.5092  2.5043 -0.5386
 1007MOL0     H35932   8.683   3.999   3.019  0.2519  1.5930  0.1406
 1007MOL0     H35933   9.135   4.008   2.880 -3.2050 -0.8170  1.0343
 1007MOL0     H35934   9.381   3.979   2.955  0.4211  1.1072  3.2237
 1007MOL0     H35935   9.573   3.847   2.952 -0.2907 -2.4347  0.0280
 1007MOL0     H35936   9.581   3.952   3.097  1.6108  0.4298 -2.0540
 1007MOL0     H35937   9.794   3.822   3.088 -0.3866  0.4457 -0.5361
 1007MOL0     H35938   9.705   3.677   3.041 -2.0838  0.3631  0.3794
 1007MOL0     H35939   9.627   3.662   3.283  2.4482 -0.8299  3.5982
 1007MOL0     H35940   9.672   3.836   3.296  2.0858  0.3285 -1.2336
 1007MOL0     H35941   9.821   3.665   3.410  2.0933 -0.5883 -0.2728
 1007MOL0     H35942   9.906   3.781   3.301  0.3336  0.7725  2.6079
 1007MOL0     H35943   9.938   3.397   3.107 -0.7818 -0.5479 -0.2963
 1007MOL0     H35944   9.253   3.633   3.162 -1.7223 -0.0280  0.1761
 1007MOL0     H35945   9.032   3.663   3.090 -1.5007  1.3444  0.6146
 1008MOL0     O35946   6.235   4.219   1.439 -0.6902 -0.5828 -0.1196
 1008MOL0     C35947   6.199   4.267   1.332 -0.0348 -0.0212  0.1812
 1008MOL0     O35948   6.071   4.289   1.292 -0.5301 -1.0342 -0.5028
 1008MOL0     C35949   5.970   4.269   1.382 -0.8936  0.6040 -0.6821
 1008MOL0     C35950   5.956   4.179   1.491  0.1173 -0.5055  0.1180
 1008MOL0     C35951   5.835   4.175   1.555  0.1432  0.6125 -0.3209
 1008MOL0     C35952   5.737   4.265   1.537  1.0660 -0.3981 -0.1441
 1008MOL0     O35953   5.647   4.282   1.639 -0.0427  0.3424 -0.2201
 1008MOL0     C35954   5.506   4.290   1.607 -0.2937  0.3695  0.2507
 1008MOL0     C35955   5.437   4.155   1.592 -0.9316 -0.0475 -0.1057
 1008MOL0     C35956   5.279   4.166   1.591  0.2456 -0.6380  0.3981
 1008MOL0     C35957   5.206   4.155   1.730 -0.0049  0.1338  0.2826
 1008MOL0     C35958   5.058   4.137   1.708  0.0402  0.5197 -0.3069
 1008MOL0     C35959   4.987   4.117   1.843 -0.1746 -0.4128  0.0844
 1008MOL0     C35960   4.841   4.121   1.821  0.6817  0.1342  0.1703
 1008MOL0     C35961   4.765   4.095   1.956  0.0053 -0.3291 -0.5063
 1008MOL0     N35962   4.621   4.064   1.947  0.2253  0.5146  0.2210
 1008MOL0     C35963   4.547   4.072   1.835 -0.4788  0.0205  0.4845
 1008MOL0     C35964   4.430   4.009   1.869 -1.2785 -0.2074 -0.1633
 1008MOL0     C35965   4.313   3.997   1.782 -0.1663 -0.6640 -0.0622
 1008MOL0     C35966   4.329   3.915   1.651 -0.1253 -0.5056 -0.7060
 1008MOL0     C35967   4.199   3.868   1.595  0.9965  1.0856  1.1118
 1008MOL0     C35968   4.150   3.731   1.640  0.3374  0.2706  0.7370
 1008MOL0     O35969   4.037   3.692   1.557 -0.3405 -0.2577 -0.2815
 1008MOL0     C35970   3.919   3.765   1.548 -0.6231  0.5006  0.4466
 1008MOL0     C35971   3.870   3.823   1.664  0.2545 -0.2928 -0.2619
 1008MOL0     C35972   3.750   3.903   1.652 -0.2734 -0.4845 -0.1632
 1008MOL0     C35973   3.693   3.949   1.781  0.2326 -1.1883 -0.2419
 1008MOL0     C35974   3.689   3.933   1.531 -0.2209  1.0069  0.5148
 1008MOL0     C35975   3.577   4.021   1.517  0.4410 -0.4018 -1.1592
 1008MOL0     O35976   3.486   3.979   1.419  0.4859  0.3949 -0.4710
 1008MOL0     C35977   3.383   4.060   1.380  0.3093 -0.2552  0.2301
 1008MOL0     C35978   3.388   4.114   1.255  0.4607 -0.2736 -0.3696
 1008MOL0     C35979   3.289   4.192   1.197  0.8201 -0.4935 -0.1927
 1008MOL0     C35980   3.187   4.234   1.285  0.3538  0.5274  0.5650
 1008MOL0     O35981   3.108   4.330   1.233  0.5128 -0.8420  0.1681
 1008MOL0     C35982   3.062   4.428   1.322  0.6314  0.2123 -0.1581
 1008MOL0     C35983   3.035   4.547   1.232 -0.0720 -0.1329  0.1930
 1008MOL0     C35984   3.152   4.655   1.212 -1.3734 -0.2583 -0.9652
 1008MOL0     C35985   3.286   4.591   1.155  0.5055 -0.0997 -0.1638
 1008MOL0     C35986   3.398   4.691   1.174 -0.0643  0.9710 -0.2363
 1008MOL0     C35987   3.389   4.812   1.075  0.4086  0.1360 -0.2948
 1008MOL0     C35988   3.405   4.790   0.925  0.1558  0.0269  0.3444
 1008MOL0     C35989   3.336   4.900   0.857 -0.1798 -0.4836  0.8367
 1008MOL0    Cl35990   3.438   5.039   0.803  0.1492 -0.3345 -0.0454
 1008MOL0     C35991   3.177   4.181   1.416 -0.2846 -0.3748  0.1297
 1008MOL0     C35992   3.274   4.098   1.457 -1.0764 -0.5236 -0.4599
 1008MOL0     O35993   3.562   4.118   1.592 -0.0749  0.1828  0.5817
 1008MOL0     C35994   3.739   3.861   1.422  0.1971 -0.0388 -0.1013
 1008MOL0     C35995   3.856   3.784   1.427  0.7109  0.1281  0.4655
 1008MOL0     N35996   4.436   3.957   1.996  0.1222  0.0862  0.4247
 1008MOL0     N35997   4.550   3.988   2.034 -0.3124 -0.6773 -0.2657
 1008MOL0     C35998   5.753   4.368   1.444  0.2498 -0.0982  0.6156
 1008MOL0     C35999   5.862   4.366   1.355  0.0555  0.2282 -1.0308
 1008MOL0     C36000   6.309   4.288   1.231 -0.2611 -0.2457  0.5342
 1008MOL0     C36001   6.297   4.393   1.134  0.2553 -0.5623  0.2490
 1008MOL0     C36002   6.408   4.416   1.052 -0.1648 -0.3327  0.1565
 1008MOL0     C36003   6.525   4.330   1.058 -0.8691 -0.5363 -0.3740
 1008MOL0     O36004   6.629   4.358   0.961  0.2585 -0.2407 -0.5261
 1008MOL0     C36005   6.736   4.264   0.937 -1.6473 -0.4065 -0.8356
 1008MOL0     C36006   6.845   4.348   0.878 -0.4869  0.3935  0.6115
 1008MOL0     C36007   6.818   4.378   0.723 -1.0868 -0.8041 -0.5993
 1008MOL0     C36008   6.834   4.527   0.685 -0.2265  0.1682 -0.6104
 1008MOL0     C36009   6.970   4.561   0.648 -0.0695  0.2510  0.5227
 1008MOL0     C36010   7.075   4.586   0.592 -0.0740 -0.4009  0.2170
 1008MOL0     C36011   6.543   4.252   1.175  0.4709 -0.6233  0.4275
 1008MOL0     C36012   6.433   4.223   1.249 -0.3040  0.1115  1.5222
 1008MOL0     H36013   6.043   4.118   1.514 -0.2243 -0.8670  0.4599
 1008MOL0     H36014   5.835   4.107   1.639 -0.8685 -0.8624 -1.4542
 1008MOL0     H36015   5.456   4.342   1.689 -0.2447  0.1080  0.4490
 1008MOL0     H36016   5.496   4.344   1.513 -1.6858 -1.1073 -0.4949
 1008MOL0     H36017   5.477   4.108   1.502 -0.0450 -0.5003  0.5084
 1008MOL0     H36018   5.468   4.088   1.674 -2.2395  0.7341  1.0760
 1008MOL0     H36019   5.249   4.254   1.532  2.5729 -1.4500 -2.2279
 1008MOL0     H36020   5.249   4.076   1.537 -0.7310  0.1805 -0.4928
 1008MOL0     H36021   5.244   4.076   1.794  1.7537  2.6257  2.5548
 1008MOL0     H36022   5.229   4.246   1.787 -0.7131  1.1528 -0.9916
 1008MOL0     H36023   5.023   4.218   1.643 -4.1598 -2.2591 -1.9567
 1008MOL0     H36024   5.037   4.043   1.656 -0.0620  0.4825 -0.1969
 1008MOL0     H36025   5.025   4.018   1.869  3.0672 -0.6896 -4.5177
 1008MOL0     H36026   5.024   4.196   1.909 -0.9529 -0.9770  1.2382
 1008MOL0     H36027   4.812   4.217   1.777 -0.3148  0.3375  1.2218
 1008MOL0     H36028   4.798   4.044   1.757  1.2411  0.2308 -0.3316
 1008MOL0     H36029   4.774   4.178   2.027 -0.6214  1.0881 -2.0143
 1008MOL0     H36030   4.819   4.012   2.002  1.5507  1.5660  1.3534
 1008MOL0     H36031   4.574   4.121   1.742 -0.3520  2.1044  1.5618
 1008MOL0     H36032   4.236   3.945   1.839 -0.1495 -0.6090  0.0105
 1008MOL0     H36033   4.278   4.098   1.758  2.1191  1.7593  5.2259
 1008MOL0     H36034   4.385   3.825   1.677  1.0498  1.2597  3.8530
 1008MOL0     H36035   4.370   3.983   1.575  0.5474 -1.5186 -1.2627
 1008MOL0     H36036   4.207   3.870   1.486  1.1722  0.3688  1.1118
 1008MOL0     H36037   4.122   3.938   1.631 -0.0717  0.6436 -0.2464
 1008MOL0     H36038   4.142   3.740   1.749 -1.9625  0.0636  0.6231
 1008MOL0     H36039   4.222   3.651   1.623 -0.1452 -0.6109  2.6314
 1008MOL0     H36040   3.925   3.823   1.757  0.1412  0.1766 -0.1933
 1008MOL0     H36041   3.584   3.958   1.785  0.1787 -1.9763  0.3729
 1008MOL0     H36042   3.727   3.878   1.857  0.6766 -2.5337 -1.6524
 1008MOL0     H36043   3.736   4.045   1.811 -0.5951 -0.8333 -0.1497
 1008MOL0     H36044   3.461   4.080   1.182 -1.1050  0.0995 -2.2061
 1008MOL0     H36045   3.286   4.218   1.092 -3.7258  0.2122 -0.1140
 1008MOL0     H36046   2.971   4.390   1.368  0.9299  1.4912  1.5960
 1008MOL0     H36047   3.142   4.461   1.389  0.9251  2.2119 -1.3996
 1008MOL0     H36048   3.015   4.505   1.133  3.2889  0.1113 -0.7032
 1008MOL0     H36049   2.952   4.607   1.272 -0.1559  0.1397 -0.3879
 1008MOL0     H36050   3.181   4.708   1.303  0.9294  0.4276 -2.0271
 1008MOL0     H36051   3.109   4.734   1.150 -3.1868 -2.2199 -2.3487
 1008MOL0     H36052   3.301   4.496   1.207  1.6688 -0.5011 -1.1781
 1008MOL0     H36053   3.272   4.569   1.049  0.2215 -1.9856  0.2238
 1008MOL0     H36054   3.489   4.635   1.150 -0.5509  0.6241 -1.3420
 1008MOL0     H36055   3.408   4.729   1.276  0.0995  2.1530 -0.6807
 1008MOL0     H36056   3.296   4.863   1.098 -1.6694 -3.5391  0.2686
 1008MOL0     H36057   3.465   4.887   1.099 -1.7565  1.8286  1.6227
 1008MOL0     H36058   3.361   4.691   0.907 -0.0627  0.2901 -0.6339
 1008MOL0     H36059   3.514   4.791   0.921  0.2430  1.7864  1.9447
 1008MOL0     H36060   3.258   4.952   0.914  0.2575  2.1194 -0.7730
 1008MOL0     H36061   3.286   4.855   0.770  2.4927 -2.2233  0.0606
 1008MOL0     H36062   3.096   4.214   1.480 -0.6622  0.3078 -0.6781
 1008MOL0     H36063   3.282   4.079   1.564  0.2988 -1.5164 -0.7096
 1008MOL0     H36064   3.696   3.866   1.323 -0.1417  0.2444  0.0617
 1008MOL0     H36065   3.883   3.752   1.327 -3.7046 -0.9389 -0.6015
 1008MOL0     H36066   5.684   4.451   1.435  0.2043 -0.3440 -1.8518
 1008MOL0     H36067   5.864   4.440   1.276 -3.0660  0.4375 -1.0516
 1008MOL0     H36068   6.204   4.444   1.110 -0.2945 -2.1656 -1.2923
 1008MOL0     H36069   6.395   4.497   0.980 -3.9238  0.7201  1.7381
 1008MOL0     H36070   6.780   4.228   1.030  2.1046 -1.3389 -2.7839
 1008MOL0     H36071   6.698   4.181   0.876 -3.2295 -1.1703  1.0994
 1008MOL0     H36072   6.943   4.301   0.890 -1.0900 -0.7438  1.2257
 1008MOL0     H36073   6.872   4.439   0.933  1.4109  1.2719 -1.5993
 1008MOL0     H36074   6.710   4.366   0.713 -1.5041  1.0559  0.9261
 1008MOL0     H36075   6.883   4.317   0.659  0.4656  0.7901 -0.6241
 1008MOL0     H36076   6.796   4.596   0.761  0.8081  0.3342 -0.2234
 1008MOL0     H36077   6.766   4.540   0.601  2.7793 -3.5361 -4.0155
 1008MOL0     H36078   7.168   4.615   0.547 -0.0769  0.7870  0.9154
 1008MOL0     H36079   6.636   4.196   1.186 -0.9567 -3.3827 -0.4764
 1008MOL0     H36080   6.453   4.150   1.327 -0.1596  1.5209  2.8624
 1009MOL0     O36081   8.089   0.370   8.753  0.9697 -0.1380  0.2063
 1009MOL0     C36082   8.098   0.292   8.847 -0.2362 -0.2253 -0.4077
 1009MOL0     O36083   7.993   0.225   8.912 -1.0487  0.5336 -0.7824
 1009MOL0     C36084   7.877   0.212   8.841  0.3425 -0.3029  0.9789
 1009MOL0     C36085   7.752   0.214   8.903 -0.6707 -0.1629  0.0503
 1009MOL0     C36086   7.632   0.196   8.829  0.6689  0.2903 -1.0857
 1009MOL0     C36087   7.629   0.179   8.694 -0.1588  0.4043  0.3150
 1009MOL0     O36088   7.505   0.192   8.642  0.3552 -0.0587  0.3766
 1009MOL0     C36089   7.444   0.078   8.575  0.0705 -0.2211  0.8820
 1009MOL0     C36090   7.301   0.059   8.630  0.4914  0.2293 -1.6875
 1009MOL0     C36091   7.288  -0.012   8.769 -0.1757 -0.9328  0.3648
 1009MOL0     C36092   7.314  -0.159   8.741 -0.5190 -0.1254 -0.8217
 1009MOL0     C36093   7.258  -0.232   8.868  1.0240  0.3445 -0.7644
 1009MOL0     C36094   7.275  -0.380   8.852  0.4335 -0.3901  0.1104
 1009MOL0     C36095   7.222  -0.454   8.974 -0.1573 -0.0211 -0.5760
 1009MOL0     C36096   7.072  -0.486   8.977 -0.0816  0.6174 -0.3573
 1009MOL0     N36097   7.014  -0.431   9.104  0.6008  0.1547  0.8869
 1009MOL0     C36098   6.978  -0.295   9.127  0.0713  0.3922 -0.7316
 1009MOL0     C36099   6.961  -0.289   9.263  0.2034 -0.2561 -0.4266
 1009MOL0     C36100   6.954  -0.168   9.348  0.0264 -0.8243  0.8629
 1009MOL0     C36101   6.809  -0.103   9.367  0.6276  0.3804  0.7847
 1009MOL0     C36102   6.744  -0.052   9.232 -0.3830 -0.6049 -0.6223
 1009MOL0     C36103   6.792   0.097   9.201 -0.9083 -0.0586  0.5787
 1009MOL0     O36104   6.777   0.183   9.319 -0.2672 -0.0920  0.1390
 1009MOL0     C36105   6.673   0.275   9.325  0.2866 -0.8639 -0.0379
 1009MOL0     C36106   6.529   0.263   9.306 -0.2207  0.5993  0.1061
 1009MOL0     C36107   6.444   0.370   9.320  0.9289  0.1640  0.2243
 1009MOL0     C36108   6.294   0.340   9.283 -0.8015  0.3389  0.2123
 1009MOL0     C36109   6.499   0.495   9.360  1.0811  0.4358  0.3732
 1009MOL0     C36110   6.416   0.623   9.374  0.0887  0.0325  0.2612
 1009MOL0     O36111   6.474   0.744   9.403 -1.0285 -0.4194 -0.1507
 1009MOL0     C36112   6.425   0.873   9.383 -0.2881  0.3014  0.2026
 1009MOL0     C36113   6.308   0.908   9.316 -0.0981 -0.5019 -0.2415
 1009MOL0     C36114   6.277   1.046   9.295  0.4413 -0.0031 -0.2010
 1009MOL0     C36115   6.360   1.145   9.347  0.2493  0.2864  0.4402
 1009MOL0     O36116   6.328   1.287   9.344  0.0067  0.1326  0.3627
 1009MOL0     C36117   6.374   1.378   9.241 -0.0057  1.0544 -0.3347
 1009MOL0     C36118   6.283   1.484   9.185 -0.3411 -0.2575 -0.0894
 1009MOL0     C36119   6.163   1.428   9.107 -0.7895 -0.4404  0.0327
 1009MOL0     C36120   6.206   1.397   8.960 -0.5776 -0.1228 -0.8489
 1009MOL0     C36121   6.089   1.365   8.874  0.3642 -0.2651  0.4901
 1009MOL0     C36122   6.007   1.478   8.823 -1.2653 -0.6424 -0.3695
 1009MOL0     C36123   5.888   1.432   8.746  0.1172  0.4091  0.3502
 1009MOL0     C36124   5.915   1.357   8.618  0.2784  0.3665  0.0406
 1009MOL0    Cl36125   5.970   1.183   8.641 -0.5446 -0.2257 -0.3222
 1009MOL0     C36126   6.475   1.112   9.418  0.2309  1.3938 -0.9854
 1009MOL0     C36127   6.511   0.967   9.430 -0.4363  0.0911 -0.0816
 1009MOL0     O36128   6.292   0.616   9.364 -0.2111  0.5878 -0.1319
 1009MOL0     C36129   6.639   0.512   9.374  0.4755  0.4085 -0.7857
 1009MOL0     C36130   6.723   0.403   9.361 -0.7906  0.2324  0.4176
 1009MOL0     N36131   6.973  -0.422   9.307 -0.2157 -0.0722 -0.3956
 1009MOL0     N36132   6.999  -0.502   9.219 -0.2781  0.8514  0.3587
 1009MOL0     C36133   7.748   0.174   8.623 -0.6519 -0.3161 -0.1973
 1009MOL0     C36134   7.876   0.201   8.699  0.9010  0.4287  0.5993
 1009MOL0     C36135   8.222   0.303   8.925  0.0933 -0.1237 -0.1128
 1009MOL0     C36136   8.308   0.414   8.909  0.1100  0.2764 -0.4489
 1009MOL0     C36137   8.430   0.430   8.977 -0.6833 -0.0949 -0.2624
 1009MOL0     C36138   8.483   0.318   9.045  0.0152  0.7465 -0.1528
 1009MOL0     O36139   8.604   0.330   9.104  0.7631 -0.4991  0.3092
 1009MOL0     C36140   8.655   0.239   9.207  0.0327  0.2355  0.0450
 1009MOL0     C36141   8.804   0.270   9.237 -0.1769 -0.0911  0.3705
 1009MOL0     C36142   8.907   0.264   9.125 -0.3669  0.3159  0.1138
 1009MOL0     C36143   8.896   0.140   9.031  0.0133 -0.3079 -0.3264
 1009MOL0     C36144   8.998   0.116   8.927  0.4250  0.0476  0.2476
 1009MOL0     C36145   9.079   0.080   8.843  0.8095 -0.6820  0.9450
 1009MOL0     C36146   8.400   0.196   9.054  0.0561 -0.7810  0.4639
 1009MOL0     C36147   8.268   0.193   8.993 -0.3598 -0.9084  0.2170
 1009MOL0     H36148   7.741   0.220   9.010  1.1684  2.5748  0.2038
 1009MOL0     H36149   7.535   0.181   8.877  0.9854 -1.4394 -0.9147
 1009MOL0     H36150   7.432   0.102   8.469  0.2623  0.0916  0.9271
 1009MOL0     H36151   7.509  -0.009   8.593  3.3828  1.6681 -0.8686
 1009MOL0     H36152   7.261   0.159   8.647 -2.4152 -1.2179  1.1495
 1009MOL0     H36153   7.252   0.005   8.548 -0.6320  0.8990 -1.4816
 1009MOL0     H36154   7.350   0.038   8.845 -2.9955 -0.0901  2.2973
 1009MOL0     H36155   7.188   0.001   8.812  0.3723 -5.3706  3.7325
 1009MOL0     H36156   7.252  -0.175   8.652 -0.3598  2.0122 -1.3872
 1009MOL0     H36157   7.420  -0.179   8.726 -0.7576 -1.9957 -0.1560
 1009MOL0     H36158   7.315  -0.211   8.959 -2.9646  0.8912  1.8537
 1009MOL0     H36159   7.156  -0.193   8.881  1.5793  2.1012 -1.4306
 1009MOL0     H36160   7.218  -0.398   8.760  0.5536  1.0494 -0.2709
 1009MOL0     H36161   7.380  -0.404   8.831  0.8262  0.1430  1.4037
 1009MOL0     H36162   7.277  -0.548   8.964 -0.5320 -0.5668  1.9164
 1009MOL0     H36163   7.263  -0.418   9.068  1.1724 -3.5856  0.3631
 1009MOL0     H36164   7.065  -0.594   8.959  2.6417 -0.2615  2.9508
 1009MOL0     H36165   7.036  -0.435   8.887  1.4738 -0.3290 -1.5760
 1009MOL0     H36166   6.976  -0.220   9.049 -2.3085  0.0227 -1.0849
 1009MOL0     H36167   6.994  -0.194   9.446 -0.5970  1.7569  1.8890
 1009MOL0     H36168   7.018  -0.088   9.309  1.8050 -1.0807  3.0952
 1009MOL0     H36169   6.811  -0.024   9.443 -1.0354  1.1765  0.0582
 1009MOL0     H36170   6.741  -0.184   9.396  0.8883 -0.3324 -0.5391
 1009MOL0     H36171   6.636  -0.045   9.248 -0.2117 -0.0626  0.3584
 1009MOL0     H36172   6.764  -0.114   9.144 -2.6835  1.8211 -3.0188
 1009MOL0     H36173   6.726   0.132   9.121 -1.3004  0.7071  1.2165
 1009MOL0     H36174   6.896   0.092   9.171 -0.3280 -1.1206  2.5486
 1009MOL0     H36175   6.487   0.164   9.288 -2.5974  0.7298  3.7627
 1009MOL0     H36176   6.217   0.374   9.353 -1.2167  1.6254 -0.8280
 1009MOL0     H36177   6.271   0.399   9.194 -0.1349  1.0399  0.5006
 1009MOL0     H36178   6.282   0.231   9.284 -1.8047  0.4387  0.4691
 1009MOL0     H36179   6.242   0.835   9.270 -0.1535 -0.0131 -0.9541
 1009MOL0     H36180   6.176   1.076   9.267  0.3347 -0.0675  0.1178
 1009MOL0     H36181   6.459   1.428   9.287 -0.5158 -2.2846  5.1290
 1009MOL0     H36182   6.415   1.323   9.156  1.7591 -0.4161  1.3711
 1009MOL0     H36183   6.248   1.543   9.271  0.4108  1.0246 -0.6374
 1009MOL0     H36184   6.350   1.550   9.129  1.4410 -3.7705 -2.4675
 1009MOL0     H36185   6.080   1.500   9.112  0.7332  1.5938 -1.9018
 1009MOL0     H36186   6.121   1.348   9.169  0.2088  0.5913  2.1371
 1009MOL0     H36187   6.248   1.492   8.924 -0.4696 -0.2801 -1.1362
 1009MOL0     H36188   6.274   1.311   8.962  3.5475  2.8283  0.6409
 1009MOL0     H36189   6.016   1.299   8.922  2.2809 -3.0350 -0.1767
 1009MOL0     H36190   6.133   1.318   8.785  2.1053  2.5426 -0.2592
 1009MOL0     H36191   5.958   1.525   8.909 -0.6479 -0.6549 -0.0047
 1009MOL0     H36192   6.076   1.545   8.771 -0.2894  1.4830  3.2590
 1009MOL0     H36193   5.831   1.521   8.717 -1.6818 -0.6015  0.6408
 1009MOL0     H36194   5.822   1.380   8.816  0.8933  0.3396  1.0421
 1009MOL0     H36195   5.992   1.401   8.555  1.5761 -0.7996  0.7580
 1009MOL0     H36196   5.825   1.338   8.557  1.0322 -1.6972 -0.5332
 1009MOL0     H36197   6.535   1.188   9.469  1.6357  1.8053 -3.1316
 1009MOL0     H36198   6.602   0.924   9.471 -0.6039 -3.0367 -2.5807
 1009MOL0     H36199   6.684   0.599   9.420 -0.1534  0.5502 -0.4265
 1009MOL0     H36200   6.829   0.412   9.385 -0.4079 -2.2455 -0.0400
 1009MOL0     H36201   7.753   0.177   8.514  0.8978  3.4552 -0.1742
 1009MOL0     H36202   7.961   0.205   8.631 -0.4918  0.2573 -1.2328
 1009MOL0     H36203   8.279   0.495   8.843 -2.0930 -0.3015 -0.2847
 1009MOL0     H36204   8.491   0.519   8.960  0.8202 -1.3849 -1.8699
 1009MOL0     H36205   8.598   0.255   9.299  0.2630 -1.7404  0.5811
 1009MOL0     H36206   8.643   0.137   9.170 -1.9399 -0.1351  1.4990
 1009MOL0     H36207   8.841   0.199   9.311  0.6966 -0.0468 -0.0082
 1009MOL0     H36208   8.822   0.368   9.281  0.9558 -0.2142  0.1921
 1009MOL0     H36209   9.010   0.256   9.160  0.0403 -0.1291 -1.1608
 1009MOL0     H36210   8.897   0.346   9.053 -4.0532 -1.1767 -1.3482
 1009MOL0     H36211   8.807   0.167   8.974  0.9647  2.1358 -0.7779
 1009MOL0     H36212   8.874   0.057   9.099  0.8164  1.1004  1.7465
 1009MOL0     H36213   9.145   0.042   8.768 -2.9041  0.2639 -3.2123
 1009MOL0     H36214   8.432   0.102   9.098  2.0444  0.2176  1.2953
 1009MOL0     H36215   8.207   0.104   9.002 -2.7875  0.5808 -0.3774
 1010MOL0     O36216   4.747   0.465  10.160 -0.0426  0.1985  0.1692
 1010MOL0     C36217   4.835   0.382  10.180 -0.3431  0.0857  0.3937
 1010MOL0     O36218   4.962   0.411  10.227 -0.6851 -0.0452  0.3158
 1010MOL0     C36219   4.998   0.533  10.253  0.5178 -0.1092 -0.3403
 1010MOL0     C36220   4.926   0.624  10.340 -0.1891 -0.1922  1.0503
 1010MOL0     C36221   4.988   0.744  10.389 -0.3416 -0.1987  0.1104
 1010MOL0     C36222   5.112   0.783  10.341  0.7446 -0.0770 -0.2838
 1010MOL0     O36223   5.149   0.906  10.383  0.7125  0.3168  0.3631
 1010MOL0     C36224   5.290   0.947  10.354 -0.1298  0.0648  0.2599
 1010MOL0     C36225   5.309   1.079  10.430 -0.2694 -0.4682  0.1959
 1010MOL0     C36226   5.224   1.181  10.348 -0.2649 -0.5419 -0.1065
 1010MOL0     C36227   5.215   1.312  10.434 -0.2857 -0.5271  0.4293
 1010MOL0     C36228   5.155   1.411  10.337 -0.3396 -0.6526  0.9858
 1010MOL0     C36229   5.153   1.546  10.409 -0.3811 -0.3338 -0.2697
 1010MOL0     C36230   5.087   1.639  10.319  0.2531 -1.2628  0.6578
 1010MOL0     C36231   5.042   1.768  10.385  0.0236  0.5352  0.4101
 1010MOL0     N36232   4.929   1.736  10.475  0.0577 -0.0827  0.7455
 1010MOL0     C36233   4.953   1.727  10.612 -0.0312 -0.5878  0.0009
 1010MOL0     C36234   4.839   1.682  10.664 -0.3865 -0.0239  0.7297
 1010MOL0     C36235   4.812   1.656  10.805  0.3767 -1.2939 -0.2797
 1010MOL0     C36236   4.904   1.553  10.865 -0.6374  0.6373 -0.5624
 1010MOL0     C36237   4.889   1.418  10.792 -0.5110 -0.2527 -0.4412
 1010MOL0     C36238   4.751   1.358  10.802 -0.8579 -0.0599 -1.4014
 1010MOL0     O36239   4.712   1.345  10.948 -0.0008  0.5643  0.2858
 1010MOL0     C36240   4.580   1.331  10.980 -0.3291  0.4702 -0.6952
 1010MOL0     C36241   4.545   1.348  11.116 -0.3554  0.1092 -0.3357
 1010MOL0     C36242   4.414   1.316  11.165  0.9625  0.2408  0.7107
 1010MOL0     C36243   4.376   1.354  11.309 -0.3595  0.3491 -0.0143
 1010MOL0     C36244   4.317   1.270  11.076  0.5127  0.6103  0.7190
 1010MOL0     C36245   4.178   1.227  11.121  0.3781 -0.5774  0.8134
 1010MOL0     O36246   4.075   1.274  11.043  0.7738 -0.8012  0.5800
 1010MOL0     C36247   3.947   1.268  11.093 -1.0782 -0.7502 -0.0294
 1010MOL0     C36248   3.920   1.315  11.227 -0.1992 -0.2131  0.5821
 1010MOL0     C36249   3.789   1.308  11.277 -0.2365 -0.5133  0.6703
 1010MOL0     C36250   3.679   1.262  11.210  0.8911 -0.0649  0.3818
 1010MOL0     O36251   3.559   1.236  11.271 -0.4670 -0.0296 -0.3865
 1010MOL0     C36252   3.511   1.326  11.380  0.9477  0.3093  0.4038
 1010MOL0     C36253   3.355   1.316  11.394  0.5708  0.9047  0.0037
 1010MOL0     C36254   3.299   1.393  11.272 -0.7986 -0.2985 -0.2073
 1010MOL0     C36255   3.147   1.374  11.266 -0.3556  0.0210 -0.3822
 1010MOL0     C36256   3.075   1.395  11.396  0.4799  0.2599 -0.6096
 1010MOL0     C36257   2.921   1.397  11.381  0.4052 -0.2362  0.6125
 1010MOL0     C36258   2.860   1.497  11.284  0.1038  0.0747 -0.2298
 1010MOL0     C36259   2.709   1.493  11.289  0.4443 -0.3781  0.2126
 1010MOL0    Cl36260   2.642   1.644  11.223 -0.5100  0.4431  0.5789
 1010MOL0     C36261   3.706   1.206  11.080  0.3951  0.0684  0.6669
 1010MOL0     C36262   3.835   1.219  11.025 -0.8165 -0.3585 -0.1055
 1010MOL0     O36263   4.163   1.167  11.225 -0.3785 -0.3943 -0.6271
 1010MOL0     C36264   4.354   1.263  10.939 -0.4066  0.6927 -0.4253
 1010MOL0     C36265   4.485   1.289  10.894 -0.4096 -0.7804  0.0567
 1010MOL0     N36266   4.747   1.675  10.561  0.1827 -0.8652  0.4312
 1010MOL0     N36267   4.803   1.706  10.451  0.6950  0.2232 -0.3905
 1010MOL0     C36268   5.182   0.692  10.257 -0.2066 -0.6220  0.1816
 1010MOL0     C36269   5.121   0.577  10.213  0.0956  0.0988  0.3373
 1010MOL0     C36270   4.788   0.247  10.196 -0.9489 -0.4136 -0.8413
 1010MOL0     C36271   4.663   0.203  10.142  1.2890 -0.2231 -0.4320
 1010MOL0     C36272   4.628   0.069  10.171 -0.0206 -0.2030 -0.0281
 1010MOL0     C36273   4.702  -0.013  10.255  0.0910  0.3836  0.3720
 1010MOL0     O36274   4.661  -0.142  10.279  0.6490 -0.0425 -0.0981
 1010MOL0     C36275   4.621  -0.171  10.412  0.0190 -0.4995  0.5836
 1010MOL0     C36276   4.667  -0.301  10.460 -0.5991  1.0161  0.0730
 1010MOL0     C36277   4.639  -0.416  10.374 -1.3184  0.1115  0.5520
 1010MOL0     C36278   4.496  -0.442  10.332  0.6312 -0.1212 -0.4585
 1010MOL0     C36279   4.416  -0.490  10.446  0.4156 -0.7027  0.4298
 1010MOL0     C36280   4.347  -0.496  10.543 -1.1825 -0.7084  0.3612
 1010MOL0     C36281   4.823   0.023  10.290 -0.3617 -1.6026  0.0398
 1010MOL0     C36282   4.879   0.154  10.257  0.4993 -0.5079  0.3785
 1010MOL0     H36283   4.823   0.614  10.373 -0.3494  1.0537  0.9789
 1010MOL0     H36284   4.948   0.804  10.470 -0.8613  1.2588 -1.1770
 1010MOL0     H36285   5.362   0.874  10.394  1.2079  1.1337 -0.0903
 1010MOL0     H36286   5.313   0.967  10.249 -2.7998  2.9609  0.0897
 1010MOL0     H36287   5.279   1.082  10.536 -1.4486 -0.6034 -0.1216
 1010MOL0     H36288   5.414   1.102  10.411 -0.9601  0.3770 -3.1889
 1010MOL0     H36289   5.288   1.203  10.261 -0.8583 -1.3851 -0.7711
 1010MOL0     H36290   5.124   1.146  10.322 -0.9871  0.0719  1.6902
 1010MOL0     H36291   5.143   1.304  10.516 -1.3593  0.3619 -0.3934
 1010MOL0     H36292   5.308   1.347  10.479 -0.5402 -0.3262  0.8020
 1010MOL0     H36293   5.202   1.408  10.239 -2.0715  1.3073  0.0121
 1010MOL0     H36294   5.051   1.380  10.319 -1.7284  3.3052  1.3071
 1010MOL0     H36295   5.097   1.537  10.503 -0.3720 -3.5709 -0.4351
 1010MOL0     H36296   5.259   1.568  10.424 -0.8768  1.1258  1.4299
 1010MOL0     H36297   5.154   1.675  10.240 -0.1439 -1.0883  0.3942
 1010MOL0     H36298   5.002   1.587  10.274  1.5808 -1.6651 -1.5077
 1010MOL0     H36299   5.006   1.837  10.308  1.7322  3.1297  1.7766
 1010MOL0     H36300   5.130   1.811  10.432 -1.8473  2.0504  2.7938
 1010MOL0     H36301   5.043   1.743  10.670  1.5344  1.0726 -2.6477
 1010MOL0     H36302   4.820   1.743  10.870 -1.4471 -0.4026 -1.1767
 1010MOL0     H36303   4.709   1.617  10.807  0.4683 -1.5123  0.4623
 1010MOL0     H36304   4.886   1.533  10.971 -0.2720 -1.0966 -0.8085
 1010MOL0     H36305   5.005   1.594  10.857 -0.3905  0.5368  1.4197
 1010MOL0     H36306   4.960   1.343  10.830 -0.8305  0.8676  2.6651
 1010MOL0     H36307   4.916   1.427  10.687  0.3703 -0.0138 -0.2031
 1010MOL0     H36308   4.765   1.256  10.766 -3.1202 -0.1848 -2.0705
 1010MOL0     H36309   4.674   1.411  10.744  0.6431 -0.1932 -3.6429
 1010MOL0     H36310   4.628   1.368  11.183  0.4613  1.8534 -1.7570
 1010MOL0     H36311   4.453   1.413  11.359 -0.7738  2.6599 -1.9059
 1010MOL0     H36312   4.285   1.414  11.319  0.3223  1.2056  1.3432
 1010MOL0     H36313   4.370   1.267  11.375 -0.6681  0.1959 -0.2401
 1010MOL0     H36314   3.995   1.360  11.291  0.4239  0.9057 -0.8541
 1010MOL0     H36315   3.779   1.343  11.379 -0.0479  0.8039  0.2590
 1010MOL0     H36316   3.552   1.284  11.472  0.7230  0.4703  0.5776
 1010MOL0     H36317   3.556   1.425  11.379  2.4878 -0.3546  0.2333
 1010MOL0     H36318   3.313   1.216  11.402 -2.0758  1.9414  0.2806
 1010MOL0     H36319   3.324   1.357  11.491 -3.4537 -0.5817 -0.4527
 1010MOL0     H36320   3.353   1.364  11.181  2.0682  1.7211  0.6994
 1010MOL0     H36321   3.330   1.498  11.282 -1.6464 -0.2567  3.3740
 1010MOL0     H36322   3.118   1.454  11.197 -0.5185 -0.4837 -0.9037
 1010MOL0     H36323   3.129   1.279  11.215  2.4635  0.4706 -2.4369
 1010MOL0     H36324   3.092   1.497  11.430  0.8019 -0.4660  1.6107
 1010MOL0     H36325   3.101   1.316  11.467 -1.9657  1.2457  1.5736
 1010MOL0     H36326   2.880   1.296  11.373  0.8767 -0.3565 -0.3881
 1010MOL0     H36327   2.892   1.428  11.482 -0.4851  3.7060 -0.6958
 1010MOL0     H36328   2.902   1.478  11.184  1.3564  0.5976  0.1763
 1010MOL0     H36329   2.888   1.598  11.318  0.7949  0.5271 -2.0119
 1010MOL0     H36330   2.666   1.479  11.388  1.3235 -0.5457  0.5841
 1010MOL0     H36331   2.678   1.412  11.223 -0.3838 -0.7416  1.0208
 1010MOL0     H36332   3.618   1.157  11.040 -1.6846  1.4414  3.2828
 1010MOL0     H36333   3.856   1.190  10.922 -0.1514  2.5440 -0.8755
 1010MOL0     H36334   4.284   1.232  10.862  0.1115  1.1895 -1.1015
 1010MOL0     H36335   4.517   1.281  10.791  0.4653  0.8782  0.1707
 1010MOL0     H36336   5.275   0.716  10.207 -0.9951 -0.8733 -1.4660
 1010MOL0     H36337   5.184   0.513  10.152 -0.5485 -0.7465  0.5490
 1010MOL0     H36338   4.591   0.261  10.086  2.6639 -0.0025 -2.0511
 1010MOL0     H36339   4.532   0.027  10.144 -0.3078 -1.1929  2.3005
 1010MOL0     H36340   4.652  -0.085  10.472  0.4546  0.4898 -0.9959
 1010MOL0     H36341   4.512  -0.161  10.417  0.0754  2.4289 -1.6962
 1010MOL0     H36342   4.614  -0.302  10.555  1.4062 -1.3046  1.2691
 1010MOL0     H36343   4.774  -0.295  10.481 -0.6830 -1.3809  1.5352
 1010MOL0     H36344   4.674  -0.516  10.402 -3.6322 -1.6537 -2.3566
 1010MOL0     H36345   4.700  -0.404  10.284 -0.9237 -1.1626  0.6244
 1010MOL0     H36346   4.481  -0.507  10.245 -2.0953  2.3052 -1.9779
 1010MOL0     H36347   4.460  -0.345  10.297 -0.5464 -0.3627  0.0507
 1010MOL0     H36348   4.285  -0.475  10.627 -1.0345 -2.0017  0.8121
 1010MOL0     H36349   4.893  -0.046  10.337 -0.2481 -0.9716  0.8314
 1010MOL0     H36350   4.982   0.182  10.278  0.6188  1.7501 -2.5638
 1011MOL0     O36351   6.873   8.920   8.552 -0.5349  0.5230  0.7831
 1011MOL0     C36352   6.862   8.988   8.451 -0.4476  0.8695 -0.0812
 1011MOL0     O36353   6.758   8.979   8.363  0.6007 -0.1785 -0.1947
 1011MOL0     C36354   6.645   8.895   8.367 -0.2149  0.7527 -0.7985
 1011MOL0     C36355   6.559   8.922   8.270  0.1583 -0.8785  0.6481
 1011MOL0     C36356   6.458   8.830   8.233  0.6578  0.7392 -0.2805
 1011MOL0     C36357   6.437   8.708   8.299  0.6139 -0.1903 -0.2906
 1011MOL0     O36358   6.341   8.621   8.273  0.0610  0.7519 -0.6630
 1011MOL0     C36359   6.263   8.614   8.149  0.1823  0.1904  0.2125
 1011MOL0     C36360   6.179   8.485   8.148 -0.5596 -0.4446  0.0016
 1011MOL0     C36361   6.260   8.357   8.125 -0.6408  0.1309  0.3909
 1011MOL0     C36362   6.176   8.239   8.091 -1.1756  0.7388 -0.2520
 1011MOL0     C36363   6.258   8.106   8.090 -0.0227  0.3800  0.7332
 1011MOL0     C36364   6.348   8.086   7.972  0.7403 -0.5791  0.3023
 1011MOL0     C36365   6.450   7.976   7.982  0.6322  0.3163 -0.6537
 1011MOL0     C36366   6.521   7.957   7.851 -0.8174  1.2477 -0.2676
 1011MOL0     N36367   6.538   7.811   7.820 -0.3934 -0.5552 -0.7467
 1011MOL0     C36368   6.659   7.746   7.821  0.7760 -0.2394 -0.7521
 1011MOL0     C36369   6.615   7.612   7.799 -0.3550 -0.2810 -0.1188
 1011MOL0     C36370   6.705   7.494   7.781 -0.3922 -0.0616 -1.0840
 1011MOL0     C36371   6.662   7.380   7.873  0.1351 -0.2829  0.6517
 1011MOL0     C36372   6.724   7.247   7.830  0.7171 -0.3366  0.6484
 1011MOL0     C36373   6.672   7.137   7.930  0.2578 -0.3784  0.2448
 1011MOL0     O36374   6.535   7.099   7.903 -0.0120  0.2988  0.7707
 1011MOL0     C36375   6.460   7.037   7.997  0.2309  0.4712 -0.2968
 1011MOL0     C36376   6.465   7.063   8.134  0.3818 -0.6723  0.2784
 1011MOL0     C36377   6.385   6.995   8.222 -0.4499  0.3669 -0.3233
 1011MOL0     C36378   6.410   7.015   8.372  0.5854 -0.0549 -0.6193
 1011MOL0     C36379   6.290   6.899   8.175  0.0733  0.2689 -0.0852
 1011MOL0     C36380   6.195   6.823   8.256 -0.0092  0.2007  0.6986
 1011MOL0     O36381   6.088   6.772   8.189 -0.3831 -0.2195 -0.2359
 1011MOL0     C36382   5.976   6.732   8.249 -0.2494  0.9583  0.8020
 1011MOL0     C36383   5.931   6.774   8.373 -0.1877 -0.8991  0.1147
 1011MOL0     C36384   5.811   6.724   8.429  0.3491  0.0823  0.5233
 1011MOL0     C36385   5.716   6.667   8.351 -0.5334 -0.4948 -0.7325
 1011MOL0     O36386   5.591   6.650   8.396 -0.6800 -0.0344  0.0241
 1011MOL0     C36387   5.481   6.609   8.316  0.1797 -0.0422  1.1675
 1011MOL0     C36388   5.361   6.556   8.401  0.4781  0.1209 -0.1523
 1011MOL0     C36389   5.299   6.419   8.351  0.3498 -1.4322 -0.1437
 1011MOL0     C36390   5.211   6.430   8.227  0.5427 -0.5428 -0.9558
 1011MOL0     C36391   5.119   6.313   8.197 -0.2804 -0.2535  0.2744
 1011MOL0     C36392   5.008   6.296   8.302  0.7104 -0.2785 -0.1766
 1011MOL0     C36393   4.904   6.189   8.261  0.3927  0.3581  0.3780
 1011MOL0     C36394   4.768   6.242   8.285 -0.6313 -0.1344  0.4249
 1011MOL0    Cl36395   4.654   6.103   8.243 -0.5519  0.4915 -0.6242
 1011MOL0     C36396   5.750   6.649   8.213 -0.6426 -0.5262 -0.6978
 1011MOL0     C36397   5.880   6.674   8.168  0.7686  1.1841  0.4285
 1011MOL0     O36398   6.223   6.789   8.373 -1.0405 -0.2610  0.6718
 1011MOL0     C36399   6.290   6.873   8.032 -0.2078  0.6095 -0.6120
 1011MOL0     C36400   6.371   6.938   7.948  0.0931 -0.0869  0.3581
 1011MOL0     N36401   6.477   7.609   7.790  0.7477  0.4539 -0.3254
 1011MOL0     N36402   6.428   7.729   7.801  0.4114 -0.4868  0.1510
 1011MOL0     C36403   6.524   8.692   8.412 -0.3846  1.0132 -0.0801
 1011MOL0     C36404   6.625   8.783   8.448 -0.5708 -0.2805  0.7991
 1011MOL0     C36405   6.976   9.090   8.427  1.1750 -0.0006  0.5079
 1011MOL0     C36406   7.096   9.090   8.504 -0.0908  0.9787  1.6199
 1011MOL0     C36407   7.200   9.177   8.472 -0.2794 -0.2075  0.2476
 1011MOL0     C36408   7.184   9.274   8.367  0.0922  0.6613  0.2621
 1011MOL0     O36409   7.288   9.357   8.337 -0.0473  0.9744  0.2118
 1011MOL0     C36410   7.281   9.428   8.219 -0.0274 -0.5024  0.4009
 1011MOL0     C36411   7.403   9.498   8.171  0.7295  0.0222  0.2985
 1011MOL0     C36412   7.365   9.583   8.048  0.0475  0.0451  0.2317
 1011MOL0     C36413   7.340   9.512   7.912  0.1198  0.9948 -0.4391
 1011MOL0     C36414   7.447   9.424   7.867  0.1313 -0.1979 -0.0928
 1011MOL0     C36415   7.548   9.374   7.831 -0.1988  0.6063  0.8264
 1011MOL0     C36416   7.061   9.278   8.301 -0.7444 -1.2477 -1.1379
 1011MOL0     C36417   6.957   9.197   8.341  1.0053 -0.3766 -0.3398
 1011MOL0     H36418   6.579   9.016   8.218 -1.4937 -0.2008  1.1650
 1011MOL0     H36419   6.393   8.858   8.150  0.7677  0.8299 -0.3359
 1011MOL0     H36420   6.190   8.696   8.151 -1.2926 -1.0618 -0.0988
 1011MOL0     H36421   6.327   8.618   8.061 -1.3616  1.8788 -0.8897
 1011MOL0     H36422   6.136   8.475   8.248 -0.4767  1.8358  0.3311
 1011MOL0     H36423   6.106   8.506   8.069  0.7971  1.5955 -0.7715
 1011MOL0     H36424   6.323   8.376   8.038 -2.5960  0.7580 -0.9528
 1011MOL0     H36425   6.319   8.334   8.214 -0.1799 -0.8411 -0.1554
 1011MOL0     H36426   6.110   8.227   8.177  0.0356 -2.0539  0.4150
 1011MOL0     H36427   6.131   8.248   7.992 -2.0034  1.5312  0.1843
 1011MOL0     H36428   6.309   8.090   8.185 -0.4746 -0.5867  0.8230
 1011MOL0     H36429   6.190   8.022   8.078 -0.1197  0.7857 -2.3860
 1011MOL0     H36430   6.276   8.064   7.893 -0.8235 -4.2372  2.4514
 1011MOL0     H36431   6.396   8.181   7.948  0.5782 -0.8751 -1.2765
 1011MOL0     H36432   6.527   8.002   8.055  1.6046  0.5440 -1.7362
 1011MOL0     H36433   6.403   7.879   8.003 -1.9917  1.1725 -2.1452
 1011MOL0     H36434   6.619   8.004   7.854 -0.7668  1.1025  0.4827
 1011MOL0     H36435   6.466   8.013   7.774 -0.9078 -1.5687 -2.3893
 1011MOL0     H36436   6.762   7.781   7.821 -0.2342  3.2110  1.2511
 1011MOL0     H36437   6.696   7.453   7.681  0.7181 -0.3520 -1.0874
 1011MOL0     H36438   6.807   7.522   7.811 -0.3979  0.6178 -1.6666
 1011MOL0     H36439   6.553   7.375   7.870 -0.0276  2.4451 -0.7691
 1011MOL0     H36440   6.695   7.417   7.970  3.2184  1.1929 -0.8050
 1011MOL0     H36441   6.833   7.253   7.822  0.6580  0.3255  0.2789
 1011MOL0     H36442   6.700   7.219   7.727 -1.9263 -1.2037  1.4123
 1011MOL0     H36443   6.691   7.172   8.031  1.1536 -2.5657  0.8833
 1011MOL0     H36444   6.721   7.041   7.910 -0.1854 -0.9865  1.9249
 1011MOL0     H36445   6.531   7.141   8.170 -1.3757  1.2035 -0.3076
 1011MOL0     H36446   6.341   7.091   8.412 -0.0963  0.8371 -3.2927
 1011MOL0     H36447   6.411   6.918   8.422  3.9391 -1.2644 -2.7020
 1011MOL0     H36448   6.514   7.049   8.377  1.0271 -0.8184 -3.1268
 1011MOL0     H36449   5.982   6.835   8.447 -3.4547  2.7857 -0.3178
 1011MOL0     H36450   5.782   6.743   8.532 -1.4478 -0.4931  0.1668
 1011MOL0     H36451   5.429   6.691   8.265 -3.7563 -3.2141 -0.3740
 1011MOL0     H36452   5.521   6.540   8.241  2.2629  0.1800  1.9872
 1011MOL0     H36453   5.393   6.535   8.503 -4.4636 -1.2896  1.3862
 1011MOL0     H36454   5.283   6.633   8.397 -1.3600 -1.6717 -0.3476
 1011MOL0     H36455   5.241   6.379   8.435  0.3751 -1.3099 -0.0693
 1011MOL0     H36456   5.382   6.350   8.336 -0.2727 -2.2702  0.1557
 1011MOL0     H36457   5.154   6.523   8.235  0.5083 -0.5231 -1.4032
 1011MOL0     H36458   5.284   6.432   8.145 -1.0738  2.0514 -2.4588
 1011MOL0     H36459   5.178   6.226   8.167 -0.5114  0.3914 -2.2717
 1011MOL0     H36460   5.061   6.329   8.106  1.1332  0.8633 -0.4712
 1011MOL0     H36461   5.050   6.243   8.388 -1.8591 -3.6346 -0.7538
 1011MOL0     H36462   4.967   6.392   8.334  4.1208  0.7807  1.4696
 1011MOL0     H36463   4.918   6.091   8.308  0.3553  0.0731 -0.2017
 1011MOL0     H36464   4.911   6.168   8.154  0.8984 -0.0487  0.4890
 1011MOL0     H36465   4.750   6.327   8.219 -4.4970 -1.1836 -0.1197
 1011MOL0     H36466   4.762   6.276   8.388  0.7174  0.4631  0.3206
 1011MOL0     H36467   5.686   6.607   8.136 -2.4122  0.4851  0.1594
 1011MOL0     H36468   5.906   6.643   8.068 -2.4020 -0.6033  0.0381
 1011MOL0     H36469   6.234   6.785   8.003  1.3876 -2.3419  3.9835
 1011MOL0     H36470   6.383   6.909   7.844 -3.0500 -1.0069  0.1785
 1011MOL0     H36471   6.510   8.609   8.481  3.8564 -0.4497 -0.7003
 1011MOL0     H36472   6.687   8.758   8.533  0.1727  0.1813  0.3978
 1011MOL0     H36473   7.117   9.018   8.582 -1.7006 -3.7890 -1.8499
 1011MOL0     H36474   7.289   9.174   8.534 -0.8163  0.3642  1.0666
 1011MOL0     H36475   7.256   9.356   8.140  0.8498 -0.6718  0.2615
 1011MOL0     H36476   7.210   9.510   8.226 -1.4001 -1.1828 -3.1709
 1011MOL0     H36477   7.491   9.438   8.146  1.8178  1.8675 -0.4864
 1011MOL0     H36478   7.432   9.553   8.262  1.1095 -0.1617  0.2906
 1011MOL0     H36479   7.439   9.659   8.023 -1.1940  1.9715  2.0643
 1011MOL0     H36480   7.283   9.651   8.073 -0.2618 -1.1424  2.7227
 1011MOL0     H36481   7.340   9.583   7.829  4.4507  0.1854 -1.3644
 1011MOL0     H36482   7.245   9.458   7.918  0.7540 -0.2500 -1.4537
 1011MOL0     H36483   7.636   9.323   7.797 -1.0783  0.0941 -0.7821
 1011MOL0     H36484   7.038   9.350   8.223  1.3251  0.2007 -0.4874
 1011MOL0     H36485   6.874   9.205   8.271  1.6193 -1.4215 -1.2206
 1012MOL0     O36486   6.749   9.112   1.450  0.0780  0.1411  0.4477
 1012MOL0     C36487   6.794   9.106   1.558  0.2474  0.5096 -0.5919
 1012MOL0     O36488   6.715   9.090   1.672  1.2696  0.0355  0.4034
 1012MOL0     C36489   6.585   9.104   1.662  0.7192 -0.4983 -0.1639
 1012MOL0     C36490   6.508   8.996   1.611  0.0628  0.5495  0.0819
 1012MOL0     C36491   6.373   9.018   1.590  0.7681  0.5083  0.2532
 1012MOL0     C36492   6.307   9.143   1.608 -0.1111  0.0641 -0.1557
 1012MOL0     O36493   6.174   9.164   1.604 -0.1413  0.3499  0.2372
 1012MOL0     C36494   6.122   9.295   1.569  1.3363 -0.4199  0.1500
 1012MOL0     C36495   5.986   9.261   1.493 -0.3857  0.4791  0.0773
 1012MOL0     C36496   5.871   9.225   1.583  0.0364  0.0929 -0.1376
 1012MOL0     C36497   5.734   9.258   1.528  0.4294  0.9804 -0.4264
 1012MOL0     C36498   5.634   9.237   1.645 -0.0062 -0.2867  0.4985
 1012MOL0     C36499   5.486   9.245   1.589  0.1207 -0.2117  0.2088
 1012MOL0     C36500   5.432   9.098   1.564  0.5735  0.4990 -0.2683
 1012MOL0     C36501   5.277   9.100   1.518  0.3180  0.0925 -0.1427
 1012MOL0     N36502   5.183   9.163   1.606 -0.2361 -0.4037 -0.5334
 1012MOL0     C36503   5.116   9.114   1.713  0.7985  0.6357  0.0163
 1012MOL0     C36504   5.020   9.207   1.739  0.5759 -0.0353  0.3403
 1012MOL0     C36505   4.922   9.192   1.856  0.5531 -0.6160  0.3555
 1012MOL0     C36506   4.781   9.237   1.821  0.4285 -0.0470 -0.3726
 1012MOL0     C36507   4.682   9.231   1.933  0.9798 -0.1479  0.5772
 1012MOL0     C36508   4.564   9.328   1.914  0.3688 -0.7822  0.1978
 1012MOL0     O36509   4.586   9.467   1.883 -0.0945 -0.1942  0.3396
 1012MOL0     C36510   4.472   9.544   1.890  0.7380  0.4342 -1.0681
 1012MOL0     C36511   4.345   9.500   1.937 -0.1581 -0.3527  0.0209
 1012MOL0     C36512   4.248   9.583   1.991  0.3604  0.4025  0.8472
 1012MOL0     C36513   4.123   9.520   2.053 -0.2371  0.6223  0.0536
 1012MOL0     C36514   4.272   9.723   2.005  0.4673 -0.7915 -0.7741
 1012MOL0     C36515   4.179   9.818   2.074 -0.2860  0.0784  0.1662
 1012MOL0     O36516   4.243   9.885   2.169  0.0517 -0.2525 -0.0224
 1012MOL0     C36517   4.178   9.992   2.225 -0.5476 -0.3500  0.7357
 1012MOL0     C36518   4.114  10.100   2.156  0.2048  0.0785 -0.1509
 1012MOL0     C36519   4.060  10.202   2.229 -1.3663  0.3560  0.3434
 1012MOL0     C36520   4.061  10.197   2.373  0.3771 -0.8986  0.7857
 1012MOL0     O36521   4.004  10.305   2.439  0.1193 -0.4843 -0.4373
 1012MOL0     C36522   3.893  10.377   2.380  0.1448  0.3088  0.1271
 1012MOL0     C36523   3.794  10.432   2.478  0.2501 -0.8767 -0.3202
 1012MOL0     C36524   3.706  10.539   2.406  0.3248  0.6709  0.6681
 1012MOL0     C36525   3.605  10.575   2.515 -0.1908  0.4946  0.1483
 1012MOL0     C36526   3.501  10.674   2.475 -0.6537  0.2617 -0.3407
 1012MOL0     C36527   3.539  10.822   2.511  0.4369 -0.0200  0.2752
 1012MOL0     C36528   3.682  10.872   2.477 -0.4347 -0.3758 -0.0226
 1012MOL0     C36529   3.703  10.906   2.324  0.1165 -0.3546 -0.7221
 1012MOL0    Cl36530   3.880  10.871   2.303 -0.3484 -0.2683 -0.1219
 1012MOL0     C36531   4.106  10.082   2.429  0.0394 -0.1095 -0.2422
 1012MOL0     C36532   4.172   9.980   2.366  0.3741  0.5074 -0.3598
 1012MOL0     O36533   4.063   9.840   2.031 -0.5936 -0.3040 -0.3192
 1012MOL0     C36534   4.400   9.766   1.969 -0.3762 -0.0855 -0.3296
 1012MOL0     C36535   4.488   9.684   1.904 -0.3791  0.7422 -0.2357
 1012MOL0     N36536   5.035   9.308   1.654  0.1749  0.1277  0.2407
 1012MOL0     N36537   5.138   9.291   1.579  0.3071 -0.3698 -0.4616
 1012MOL0     C36538   6.384   9.247   1.664  0.1340 -0.4272  0.2454
 1012MOL0     C36539   6.520   9.227   1.686 -0.2470  0.3794  0.2707
 1012MOL0     C36540   6.943   9.086   1.580 -0.0172 -0.1820 -0.0835
 1012MOL0     C36541   7.032   9.075   1.474  0.0873  0.1963 -0.1254
 1012MOL0     C36542   7.165   9.049   1.500  0.6741  0.4207  0.7544
 1012MOL0     C36543   7.208   9.018   1.626 -0.7676  0.5963  0.4642
 1012MOL0     O36544   7.336   8.979   1.649  0.1102  0.3450  1.1744
 1012MOL0     C36545   7.436   8.997   1.550 -0.5715  0.3483 -0.1762
 1012MOL0     C36546   7.478   8.859   1.513 -0.4997  1.4406 -0.9869
 1012MOL0     C36547   7.598   8.856   1.420 -0.3352  0.0490 -0.4791
 1012MOL0     C36548   7.732   8.853   1.491 -0.2021 -0.2902 -1.0841
 1012MOL0     C36549   7.821   8.885   1.387 -1.0574 -0.8362  0.6837
 1012MOL0     C36550   7.892   8.904   1.292 -0.4953 -0.2237 -0.3044
 1012MOL0     C36551   7.131   9.047   1.737  0.6639  0.7516  0.3658
 1012MOL0     C36552   7.000   9.076   1.718  0.5873 -0.1796  0.0299
 1012MOL0     H36553   6.551   8.897   1.602  1.9817  1.3515 -0.1313
 1012MOL0     H36554   6.318   8.931   1.554  4.4489 -1.5385 -0.9333
 1012MOL0     H36555   6.106   9.343   1.666  1.1152 -2.0151  0.9336
 1012MOL0     H36556   6.184   9.353   1.500 -1.2335  1.4440 -0.7350
 1012MOL0     H36557   5.960   9.358   1.448  1.3644  1.5706  1.2468
 1012MOL0     H36558   6.009   9.191   1.413 -0.9589 -1.3839  1.4867
 1012MOL0     H36559   5.878   9.118   1.604  0.1863  0.3034  0.9248
 1012MOL0     H36560   5.871   9.286   1.674 -0.3759  1.4469 -1.0184
 1012MOL0     H36561   5.736   9.363   1.497 -0.8293  1.2576  0.3510
 1012MOL0     H36562   5.713   9.191   1.445  1.2416 -0.7827  0.7345
 1012MOL0     H36563   5.649   9.147   1.705  0.6277  2.4437  4.8689
 1012MOL0     H36564   5.641   9.315   1.721 -0.6938 -0.6887  0.9833
 1012MOL0     H36565   5.426   9.294   1.666 -0.0344 -1.4240  0.8788
 1012MOL0     H36566   5.494   9.309   1.500  1.1223  0.8011  0.9876
 1012MOL0     H36567   5.506   9.047   1.502 -0.0156  2.3035 -2.5711
 1012MOL0     H36568   5.438   9.061   1.667 -0.2278  4.5691  1.4771
 1012MOL0     H36569   5.238   8.998   1.520 -3.4476  1.2982 -2.7218
 1012MOL0     H36570   5.270   9.146   1.419  0.3674  0.5035  0.0398
 1012MOL0     H36571   5.132   9.014   1.751 -0.2551 -0.7871 -2.9998
 1012MOL0     H36572   4.921   9.087   1.889  1.1283 -0.3697  1.1891
 1012MOL0     H36573   4.960   9.253   1.938  2.1797  0.2474 -0.9715
 1012MOL0     H36574   4.737   9.176   1.742 -2.8154  2.0014 -0.3169
 1012MOL0     H36575   4.787   9.341   1.787 -1.0877 -0.2226 -1.2325
 1012MOL0     H36576   4.730   9.258   2.028 -1.3159 -3.6479  2.9716
 1012MOL0     H36577   4.635   9.133   1.938 -0.9464  0.7501  1.2859
 1012MOL0     H36578   4.516   9.318   2.012 -3.7224  0.9444 -1.4095
 1012MOL0     H36579   4.503   9.281   1.836 -0.4007  0.7496 -0.1683
 1012MOL0     H36580   4.326   9.394   1.947 -3.7022  0.1824  0.1829
 1012MOL0     H36581   4.029   9.546   2.003 -0.6389  1.9214  1.4088
 1012MOL0     H36582   4.147   9.413   2.046  3.6975  1.2079  2.0133
 1012MOL0     H36583   4.112   9.555   2.156  0.3266 -0.1843  0.3980
 1012MOL0     H36584   4.114  10.107   2.047  1.4250  0.2382 -0.1503
 1012MOL0     H36585   4.027  10.296   2.184 -0.7490  1.8136  2.7467
 1012MOL0     H36586   3.927  10.457   2.314 -1.5182 -0.5455 -1.8553
 1012MOL0     H36587   3.843  10.306   2.313  2.4582  0.9277 -2.4444
 1012MOL0     H36588   3.732  10.356   2.526  2.7649 -1.4810  2.2963
 1012MOL0     H36589   3.841  10.485   2.562  1.7008 -0.7750 -1.1557
 1012MOL0     H36590   3.661  10.491   2.318 -0.9170 -0.5720  1.9312
 1012MOL0     H36591   3.748  10.634   2.373  0.0246  2.1108  4.0965
 1012MOL0     H36592   3.554  10.483   2.545  1.3734  0.1250  1.8237
 1012MOL0     H36593   3.659  10.624   2.597  0.5179  0.5088 -0.3243
 1012MOL0     H36594   3.411  10.642   2.529 -0.5373 -0.7791 -0.7619
 1012MOL0     H36595   3.484  10.672   2.367 -0.5621  0.4021 -0.3586
 1012MOL0     H36596   3.465  10.891   2.469  1.2046  1.9235  1.9365
 1012MOL0     H36597   3.531  10.826   2.620  1.9868  4.9247  0.4514
 1012MOL0     H36598   3.757  10.797   2.504 -0.4293  0.0586  1.2143
 1012MOL0     H36599   3.712  10.963   2.528  1.1673  1.4302 -3.7597
 1012MOL0     H36600   3.672  11.009   2.306 -0.7289 -0.7940 -1.9280
 1012MOL0     H36601   3.643  10.841   2.259 -3.7221  0.9057  1.2649
 1012MOL0     H36602   4.098  10.078   2.537 -5.3791  1.0634 -0.2982
 1012MOL0     H36603   4.197   9.895   2.428 -0.3665  0.7635  0.3081
 1012MOL0     H36604   4.417   9.872   1.982 -1.5953 -0.2446  3.9446
 1012MOL0     H36605   4.580   9.733   1.874  0.9212  0.7155  3.2613
 1012MOL0     H36606   6.351   9.347   1.689 -0.8515 -0.7040  0.1056
 1012MOL0     H36607   6.588   9.303   1.722  0.0106 -0.0437  0.6875
 1012MOL0     H36608   6.996   9.080   1.372  0.3912  0.4194 -0.2238
 1012MOL0     H36609   7.224   9.037   1.410 -2.5962  0.0144 -1.5456
 1012MOL0     H36610   7.404   9.052   1.461  1.7083 -0.3647 -1.5449
 1012MOL0     H36611   7.522   9.054   1.587 -1.6506  1.3173  0.9498
 1012MOL0     H36612   7.390   8.807   1.474 -0.0116 -0.1127 -0.1231
 1012MOL0     H36613   7.507   8.800   1.601 -0.1500  1.3246 -1.1739
 1012MOL0     H36614   7.583   8.928   1.339 -1.2380  1.6164  1.0117
 1012MOL0     H36615   7.583   8.763   1.363 -0.3504  1.3535 -2.7400
 1012MOL0     H36616   7.757   8.752   1.525 -2.2744 -1.1080 -1.8394
 1012MOL0     H36617   7.746   8.935   1.562  2.1714  0.7191 -2.5780
 1012MOL0     H36618   7.947   8.901   1.200 -0.4015 -0.4974 -0.2394
 1012MOL0     H36619   7.159   9.026   1.840  0.3716  0.2220  0.3417
 1012MOL0     H36620   6.927   9.073   1.798  0.7916  1.5240  0.3260
 1013MOL0     O36621   3.591   5.534   2.215  0.2135  0.6549 -0.9676
 1013MOL0     C36622   3.678   5.588   2.276 -0.5393  0.1059  0.5403
 1013MOL0     O36623   3.681   5.607   2.410 -0.8810 -0.1471 -0.5871
 1013MOL0     C36624   3.569   5.575   2.486  0.4712  0.2816  0.2953
 1013MOL0     C36625   3.572   5.480   2.592 -0.4937 -1.0190 -0.3939
 1013MOL0     C36626   3.459   5.456   2.671  0.3147 -0.9004 -0.9818
 1013MOL0     C36627   3.335   5.516   2.649 -0.3497 -0.8052  0.1036
 1013MOL0     O36628   3.218   5.494   2.719  0.3811 -0.0055 -0.0438
 1013MOL0     C36629   3.182   5.356   2.732  1.5055  1.3504  0.2631
 1013MOL0     C36630   3.027   5.338   2.705 -0.0705  1.2887  0.1949
 1013MOL0     C36631   2.962   5.410   2.823  0.2009  0.5634  0.2224
 1013MOL0     C36632   2.809   5.389   2.817 -0.1968  0.1014 -0.2659
 1013MOL0     C36633   2.754   5.471   2.943 -0.8142 -0.0185  0.7400
 1013MOL0     C36634   2.601   5.436   2.960  0.3854 -0.3778  0.1201
 1013MOL0     C36635   2.522   5.512   3.067  0.0127 -0.6373  0.3681
 1013MOL0     C36636   2.399   5.437   3.104 -0.6256  0.8662  0.0582
 1013MOL0     N36637   2.310   5.507   3.204 -0.1022 -0.3154  0.4698
 1013MOL0     C36638   2.216   5.601   3.170  1.1522 -0.2057 -0.5715
 1013MOL0     C36639   2.178   5.657   3.289  0.2908  0.0498  0.8980
 1013MOL0     C36640   2.091   5.780   3.321 -0.2625 -0.1376  0.2739
 1013MOL0     C36641   1.933   5.759   3.311 -0.1706 -0.1295 -0.3000
 1013MOL0     C36642   1.862   5.886   3.347  0.2440  0.3711 -0.5830
 1013MOL0     C36643   1.711   5.870   3.323  0.2455  0.2733 -0.6553
 1013MOL0     O36644   1.674   5.823   3.189  0.5154  0.3119  0.2080
 1013MOL0     C36645   1.552   5.756   3.184 -0.8801  0.3291 -0.7118
 1013MOL0     C36646   1.443   5.823   3.239  1.1137  0.9606  0.5780
 1013MOL0     C36647   1.319   5.764   3.245 -0.5097  0.5822  0.2912
 1013MOL0     C36648   1.208   5.840   3.308  0.0029  0.4305 -0.9997
 1013MOL0     C36649   1.295   5.634   3.184 -1.1287  0.3705 -0.2924
 1013MOL0     C36650   1.169   5.566   3.200  0.7096  0.7226 -0.7612
 1013MOL0     O36651   1.174   5.431   3.218  0.3836  0.5999  0.2975
 1013MOL0     C36652   1.060   5.361   3.237 -0.1182 -0.1119  0.7454
 1013MOL0     C36653   0.972   5.403   3.337  0.7913  0.2747 -0.5204
 1013MOL0     C36654   0.862   5.318   3.379  0.4501 -0.4503  0.7171
 1013MOL0     C36655   0.831   5.200   3.310 -0.2250  0.4044  0.7068
 1013MOL0     O36656   0.734   5.106   3.338 -0.5134  0.4982 -0.9894
 1013MOL0     C36657   0.607   5.163   3.385  0.3325  0.1440 -0.7826
 1013MOL0     C36658   0.501   5.062   3.358 -0.2125 -0.4929 -0.0023
 1013MOL0     C36659   0.517   4.942   3.453 -0.4137  0.2765 -0.7305
 1013MOL0     C36660   0.410   4.832   3.414 -0.5235  0.5393 -0.5886
 1013MOL0     C36661   0.281   4.873   3.487  0.7974  0.2829 -0.1623
 1013MOL0     C36662   0.171   4.755   3.471 -0.0775 -0.6767 -0.4984
 1013MOL0     C36663   0.036   4.806   3.516 -0.1958 -0.1244  0.0709
 1013MOL0     C36664  -0.057   4.686   3.509  0.2853  0.0576  0.6750
 1013MOL0    Cl36665  -0.211   4.743   3.580 -0.9084  0.4224 -0.1298
 1013MOL0     C36666   0.910   5.169   3.197 -0.1794 -0.4346  0.2831
 1013MOL0     C36667   1.020   5.248   3.164  0.2368  0.0631 -0.6162
 1013MOL0     O36668   1.071   5.629   3.163  0.0890  0.7265  0.6941
 1013MOL0     C36669   1.412   5.574   3.123  0.1510 -0.3760 -0.0723
 1013MOL0     C36670   1.541   5.629   3.123  0.6908 -0.6709  0.1577
 1013MOL0     N36671   2.244   5.587   3.390  0.0561  0.3557  0.0857
 1013MOL0     N36672   2.328   5.498   3.341  0.0447  0.1867 -0.5739
 1013MOL0     C36673   3.333   5.615   2.552  0.4902 -0.2668  0.0283
 1013MOL0     C36674   3.447   5.643   2.477 -0.2637  0.1660  0.0271
 1013MOL0     C36675   3.801   5.631   2.215  0.9580 -0.1548 -0.4827
 1013MOL0     C36676   3.889   5.715   2.277  0.5912 -0.1224  0.5993
 1013MOL0     C36677   4.003   5.754   2.210  0.7477  0.0971  0.7759
 1013MOL0     C36678   4.033   5.703   2.075  0.0653  0.2982 -0.2827
 1013MOL0     O36679   4.150   5.719   2.010 -0.2948  0.7162 -0.4844
 1013MOL0     C36680   4.246   5.805   2.072 -0.7496  0.1209  0.3465
 1013MOL0     C36681   4.326   5.728   2.176  0.2751 -0.0336  0.5191
 1013MOL0     C36682   4.470   5.786   2.186 -0.1431  0.6532 -0.3052
 1013MOL0     C36683   4.537   5.779   2.331 -1.4448  0.4239  0.8050
 1013MOL0     C36684   4.686   5.810   2.328  0.3071 -0.3753 -0.3243
 1013MOL0     C36685   4.796   5.845   2.322 -0.0236  0.1153 -0.3325
 1013MOL0     C36686   3.944   5.616   2.017  0.2050  0.0424  0.2638
 1013MOL0     C36687   3.821   5.581   2.085 -0.7621 -0.2119 -0.4024
 1013MOL0     H36688   3.666   5.430   2.610 -1.5174 -3.6364 -1.7410
 1013MOL0     H36689   3.458   5.394   2.760 -1.7240 -1.0130 -1.0451
 1013MOL0     H36690   3.243   5.288   2.673  0.3370 -2.3545  2.9189
 1013MOL0     H36691   3.202   5.323   2.835 -0.6413 -0.6343  0.1182
 1013MOL0     H36692   3.000   5.397   2.617  0.2587  0.4297 -0.4910
 1013MOL0     H36693   3.008   5.231   2.701  4.5326  0.2964 -0.8374
 1013MOL0     H36694   3.008   5.390   2.920 -0.2158  1.4639  0.6222
 1013MOL0     H36695   2.982   5.517   2.811 -1.7460  0.6965 -2.7236
 1013MOL0     H36696   2.776   5.428   2.720  2.1825  0.6709 -0.9315
 1013MOL0     H36697   2.783   5.284   2.828  3.3055 -0.9211 -0.3119
 1013MOL0     H36698   2.805   5.439   3.035 -0.1802 -0.9614  0.0815
 1013MOL0     H36699   2.774   5.577   2.926 -3.5466  0.4811  0.2203
 1013MOL0     H36700   2.563   5.467   2.862  3.4225 -0.8555 -1.3113
 1013MOL0     H36701   2.580   5.329   2.969 -1.7234 -0.0472 -0.3637
 1013MOL0     H36702   2.592   5.529   3.149 -0.1156 -0.8829  0.5303
 1013MOL0     H36703   2.500   5.616   3.041  3.9185  0.1755 -0.2807
 1013MOL0     H36704   2.433   5.344   3.150  0.2613  1.0614 -0.1931
 1013MOL0     H36705   2.343   5.415   3.012 -0.5196  3.0105 -0.5661
 1013MOL0     H36706   2.191   5.637   3.071 -0.2834  1.0411  0.2087
 1013MOL0     H36707   2.109   5.813   3.424  0.0243  2.3386 -0.5018
 1013MOL0     H36708   2.130   5.867   3.268  2.5873 -0.0014  2.3725
 1013MOL0     H36709   1.902   5.682   3.382 -1.4349  0.3411 -0.3118
 1013MOL0     H36710   1.895   5.727   3.214 -3.6986  1.8980  0.2420
 1013MOL0     H36711   1.897   5.961   3.276 -0.2802 -0.8428 -2.1832
 1013MOL0     H36712   1.883   5.912   3.451  0.5876 -3.1699  0.3685
 1013MOL0     H36713   1.658   5.965   3.334 -0.0796  0.0629 -0.3784
 1013MOL0     H36714   1.673   5.798   3.396 -1.1884  1.0199 -0.6364
 1013MOL0     H36715   1.457   5.922   3.280  0.4792  1.7132 -0.9188
 1013MOL0     H36716   1.137   5.880   3.236 -0.6758 -0.5733 -0.9029
 1013MOL0     H36717   1.145   5.771   3.365 -0.3055 -0.2426 -2.1241
 1013MOL0     H36718   1.257   5.906   3.382  2.1535 -0.6378 -1.3907
 1013MOL0     H36719   1.007   5.493   3.386  0.4460  0.2990 -0.3113
 1013MOL0     H36720   0.816   5.341   3.475 -0.5372 -1.4133  0.4881
 1013MOL0     H36721   0.594   5.196   3.488 -0.8729  0.4402 -1.0119
 1013MOL0     H36722   0.591   5.249   3.319 -0.3903  1.4350  1.0122
 1013MOL0     H36723   0.399   5.096   3.377 -1.0439 -1.8416 -1.6690
 1013MOL0     H36724   0.508   5.039   3.251 -1.1941 -0.0955 -0.1621
 1013MOL0     H36725   0.504   4.976   3.556 -1.0811  1.5626 -1.2100
 1013MOL0     H36726   0.613   4.894   3.431 -0.1724  0.4019  0.0210
 1013MOL0     H36727   0.398   4.837   3.306  0.6741  2.4909 -0.6783
 1013MOL0     H36728   0.450   4.735   3.447 -2.3188 -0.9183 -2.4503
 1013MOL0     H36729   0.232   4.960   3.442 -3.3894 -2.8809 -2.5239
 1013MOL0     H36730   0.296   4.888   3.594  0.1953  0.3062 -0.0802
 1013MOL0     H36731   0.165   4.721   3.367 -0.1556 -1.2005 -0.3239
 1013MOL0     H36732   0.197   4.671   3.536 -1.8553 -1.4461 -0.7133
 1013MOL0     H36733   0.012   4.886   3.446  2.1847 -1.4272 -2.4396
 1013MOL0     H36734   0.042   4.858   3.612 -1.9401  0.5864 -0.1705
 1013MOL0     H36735  -0.019   4.607   3.574  2.4801  0.0527 -0.5389
 1013MOL0     H36736  -0.067   4.653   3.405 -1.5249  1.0686  0.4865
 1013MOL0     H36737   0.891   5.088   3.128  1.6733 -0.8600  0.2090
 1013MOL0     H36738   1.083   5.214   3.083 -0.3572 -2.2983 -0.1694
 1013MOL0     H36739   1.407   5.470   3.092  0.4287 -0.8012  1.2567
 1013MOL0     H36740   1.632   5.584   3.085 -0.9715 -0.3657 -5.0787
 1013MOL0     H36741   3.242   5.667   2.524  0.5846 -1.4144 -2.7291
 1013MOL0     H36742   3.438   5.720   2.401 -0.0534 -2.7646 -3.2084
 1013MOL0     H36743   3.864   5.760   2.373 -0.8215 -0.1360  0.2661
 1013MOL0     H36744   4.072   5.824   2.256  3.3799 -2.0603  0.3096
 1013MOL0     H36745   4.315   5.825   1.990  0.3017 -0.6593  1.0203
 1013MOL0     H36746   4.200   5.898   2.106 -0.2627 -0.2790  2.1858
 1013MOL0     H36747   4.332   5.624   2.142  0.8616  0.6564 -1.7193
 1013MOL0     H36748   4.280   5.734   2.275  1.6177  0.2393  1.1553
 1013MOL0     H36749   4.458   5.894   2.174  0.4542  0.6092 -1.4122
 1013MOL0     H36750   4.533   5.732   2.114 -0.7503 -1.3436  0.5800
 1013MOL0     H36751   4.535   5.683   2.383  0.8137 -0.4451 -0.5630
 1013MOL0     H36752   4.488   5.854   2.394  0.9048  1.7199  1.2266
 1013MOL0     H36753   4.898   5.880   2.318 -0.8199  2.8692  0.7619
 1013MOL0     H36754   3.972   5.585   1.917  0.1877  1.9372 -0.3821
 1013MOL0     H36755   3.755   5.514   2.032  0.1424 -0.5450 -1.1419
 1014MOL0     O36756   9.537  10.848   1.553  0.5636 -0.8837 -0.0483
 1014MOL0     C36757   9.655  10.851   1.599 -0.0570 -0.8755  0.0610
 1014MOL0     O36758   9.757  10.938   1.565 -0.1740 -0.7903  0.0217
 1014MOL0     C36759   9.752  11.010   1.443  0.3715  0.6204 -0.1157
 1014MOL0     C36760   9.830  11.121   1.439 -0.4199 -0.8490 -0.3935
 1014MOL0     C36761   9.826  11.205   1.320 -2.2984 -0.3129 -0.3622
 1014MOL0     C36762   9.759  11.158   1.203 -0.1259 -0.0613 -0.5839
 1014MOL0     O36763   9.755  11.226   1.084 -0.1043 -0.1390  0.0685
 1014MOL0     C36764   9.748  11.363   1.090  0.6198 -0.1816 -0.3634
 1014MOL0     C36765   9.597  11.405   1.071  0.2081 -0.1974  0.1432
 1014MOL0     C36766   9.504  11.381   1.190  0.3406 -0.2347  0.0416
 1014MOL0     C36767   9.356  11.374   1.127  0.6670 -0.9491  0.0657
 1014MOL0     C36768   9.250  11.354   1.240 -1.0624 -0.2295  0.6525
 1014MOL0     C36769   9.113  11.367   1.178  0.5329 -0.2119 -0.8397
 1014MOL0     C36770   9.005  11.305   1.263  0.7815 -0.1970 -0.5476
 1014MOL0     C36771   8.975  11.361   1.402  0.9809 -0.6549 -0.5854
 1014MOL0     N36772   8.944  11.502   1.402 -0.5917 -1.4365 -0.3280
 1014MOL0     C36773   9.019  11.607   1.459  0.5060 -1.0252 -0.3241
 1014MOL0     C36774   8.965  11.722   1.415  0.9667 -0.6597 -0.9179
 1014MOL0     C36775   9.014  11.867   1.421 -0.5120 -0.6977 -0.5295
 1014MOL0     C36776   8.898  11.960   1.368 -0.7458  0.1954 -0.0265
 1014MOL0     C36777   8.931  12.107   1.404  0.0172 -0.6904 -0.4816
 1014MOL0     C36778   8.806  12.208   1.376 -0.0166  0.0399 -0.1899
 1014MOL0     O36779   8.705  12.174   1.471  0.5920  0.1949  0.2112
 1014MOL0     C36780   8.578  12.223   1.470 -0.0095 -0.4506 -0.2178
 1014MOL0     C36781   8.480  12.124   1.507 -1.1803 -0.0363  0.1319
 1014MOL0     C36782   8.343  12.143   1.499 -0.5386  0.0547  0.6294
 1014MOL0     C36783   8.239  12.031   1.529 -0.4297 -0.1595  0.4428
 1014MOL0     C36784   8.301  12.274   1.469  0.9602 -0.2085 -0.2572
 1014MOL0     C36785   8.159  12.325   1.467 -0.1493 -0.3510 -0.3071
 1014MOL0     O36786   8.137  12.447   1.406 -0.2239  0.1837 -0.4225
 1014MOL0     C36787   8.017  12.513   1.407 -0.3354  0.4708 -1.2992
 1014MOL0     C36788   8.029  12.635   1.335 -0.4667 -0.5621  0.5611
 1014MOL0     C36789   7.910  12.723   1.330 -0.2750  0.0515  0.1087
 1014MOL0     C36790   7.780  12.686   1.370  0.2439 -0.5274  1.4333
 1014MOL0     O36791   7.679  12.786   1.360 -0.0618 -0.1487  0.0028
 1014MOL0     C36792   7.545  12.752   1.403  0.0484  0.4507  0.4638
 1014MOL0     C36793   7.448  12.875   1.374 -0.0936  0.1214 -0.6610
 1014MOL0     C36794   7.304  12.834   1.434  0.1715  0.4977  1.0183
 1014MOL0     C36795   7.202  12.940   1.428 -0.1045 -0.2749 -0.1865
 1014MOL0     C36796   7.072  12.919   1.504  0.4901 -0.2170 -0.4079
 1014MOL0     C36797   7.022  13.056   1.538 -0.0368 -0.7329 -0.3225
 1014MOL0     C36798   6.867  13.044   1.562 -0.8474  1.3569 -0.5106
 1014MOL0     C36799   6.799  13.182   1.577  0.9589 -0.0332  0.6528
 1014MOL0    Cl36800   6.615  13.170   1.546  0.0959  0.2712 -0.1821
 1014MOL0     C36801   7.787  12.568   1.445  1.1601  0.3098 -0.6144
 1014MOL0     C36802   7.891  12.483   1.468 -0.1125  0.2478  0.4366
 1014MOL0     O36803   8.072  12.246   1.505  0.6164  0.4249 -0.3768
 1014MOL0     C36804   8.394  12.379   1.442  0.0375  0.4696  0.3105
 1014MOL0     C36805   8.531  12.344   1.432  0.4161 -0.5984  0.1435
 1014MOL0     N36806   8.855  11.691   1.345 -0.1734  0.2899 -0.0694
 1014MOL0     N36807   8.840  11.564   1.346 -0.2858  0.1523 -0.0317
 1014MOL0     C36808   9.687  11.040   1.210 -0.3533  0.3506  0.8278
 1014MOL0     C36809   9.682  10.962   1.329 -0.4054 -0.6204 -0.7689
 1014MOL0     C36810   9.693  10.755   1.702 -0.4739  0.2533 -0.1506
 1014MOL0     C36811   9.591  10.675   1.759 -0.4103 -0.0151  0.3538
 1014MOL0     C36812   9.620  10.563   1.842  0.4850  0.6207 -0.0418
 1014MOL0     C36813   9.753  10.535   1.875 -0.5136  0.7050 -0.4153
 1014MOL0     O36814   9.760  10.425   1.960 -0.2333  0.3897  0.0777
 1014MOL0     C36815   9.885  10.397   2.019 -0.2493 -0.5029 -0.1957
 1014MOL0     C36816   9.886  10.252   2.072  0.4116  0.2500  0.0623
 1014MOL0     C36817  10.015  10.233   2.151  0.6524 -0.0080  0.0744
 1014MOL0     C36818  10.029  10.087   2.217  0.2522 -0.8763  0.5866
 1014MOL0     C36819  10.060  10.000   2.103 -0.0715  0.1231  0.1932
 1014MOL0     C36820  10.078   9.944   1.998  0.4513 -0.0377  0.0591
 1014MOL0     C36821   9.857  10.621   1.828  1.0528 -0.1719 -0.5689
 1014MOL0     C36822   9.825  10.724   1.740 -0.6324 -0.1202  0.3168
 1014MOL0     H36823   9.887  11.147   1.528  0.3705  1.7394 -1.5434
 1014MOL0     H36824   9.900  11.283   1.314 -1.0443 -1.4166  0.3042
 1014MOL0     H36825   9.767  11.398   1.192 -1.6210 -1.0640  0.4212
 1014MOL0     H36826   9.820  11.413   1.024  1.4239  2.0769  2.0558
 1014MOL0     H36827   9.608  11.514   1.067  3.0340 -0.3637  1.2383
 1014MOL0     H36828   9.551  11.372   0.977 -0.4742  2.5581 -0.5880
 1014MOL0     H36829   9.514  11.288   1.248 -1.2184  0.2450  1.1537
 1014MOL0     H36830   9.503  11.468   1.255  2.1325  2.5040 -3.2908
 1014MOL0     H36831   9.331  11.465   1.071  0.1499 -0.7605  0.5943
 1014MOL0     H36832   9.350  11.292   1.054  0.1312  0.9717 -2.1696
 1014MOL0     H36833   9.252  11.249   1.271  1.9612 -0.0633  1.3556
 1014MOL0     H36834   9.260  11.430   1.318 -4.0500  1.8515 -0.8010
 1014MOL0     H36835   9.084  11.471   1.159 -2.6505 -0.9437 -0.5199
 1014MOL0     H36836   9.122  11.324   1.078  3.3698  0.3889 -0.9387
 1014MOL0     H36837   8.915  11.318   1.203  1.2893  2.2534 -0.8844
 1014MOL0     H36838   9.024  11.198   1.273  3.2159  0.2919  0.9734
 1014MOL0     H36839   9.058  11.347   1.473  2.9148  3.2488 -1.7788
 1014MOL0     H36840   8.888  11.302   1.432  0.9362 -0.4875 -0.3808
 1014MOL0     H36841   9.120  11.596   1.498  0.5761  0.1032 -0.1528
 1014MOL0     H36842   9.040  11.890   1.525 -0.0630  1.5178 -1.0688
 1014MOL0     H36843   9.093  11.892   1.350 -1.1162  2.0774 -0.3518
 1014MOL0     H36844   8.795  11.946   1.401  0.4459 -2.1492  3.2513
 1014MOL0     H36845   8.897  11.946   1.260  1.7674 -1.8454  0.0990
 1014MOL0     H36846   9.007  12.158   1.344 -0.3707 -0.3951 -0.7255
 1014MOL0     H36847   8.951  12.114   1.512 -1.1236 -0.1139 -0.2852
 1014MOL0     H36848   8.754  12.199   1.280 -3.0336 -0.7094  1.3964
 1014MOL0     H36849   8.845  12.309   1.396 -0.1419  0.1629 -0.5676
 1014MOL0     H36850   8.524  12.030   1.540  1.0527 -0.8411 -4.3234
 1014MOL0     H36851   8.178  12.048   1.618  0.6504  4.7028  0.5259
 1014MOL0     H36852   8.165  12.025   1.448 -0.8748 -1.8749  0.9213
 1014MOL0     H36853   8.294  11.937   1.523 -1.3203 -0.7441  1.0799
 1014MOL0     H36854   8.118  12.663   1.279 -1.4206 -0.0805 -0.7643
 1014MOL0     H36855   7.920  12.822   1.286 -1.8646  1.3716  2.4661
 1014MOL0     H36856   7.501  12.661   1.362 -1.4124  1.8974 -1.3768
 1014MOL0     H36857   7.554  12.742   1.512 -0.2118 -2.0930  0.3084
 1014MOL0     H36858   7.486  12.967   1.420 -0.2071  0.1334 -0.5902
 1014MOL0     H36859   7.446  12.880   1.265  2.5231  2.6915 -0.7020
 1014MOL0     H36860   7.321  12.804   1.537 -0.9861  2.0776  1.7258
 1014MOL0     H36861   7.259  12.752   1.379  0.4103  1.1918 -0.2570
 1014MOL0     H36862   7.248  13.027   1.473 -1.7842  0.4283  0.2422
 1014MOL0     H36863   7.174  12.967   1.325 -0.7370 -0.9330 -0.2018
 1014MOL0     H36864   7.083  12.847   1.586  0.8496  0.5599  0.2340
 1014MOL0     H36865   7.007  12.865   1.435  0.9231 -1.1394 -0.1180
 1014MOL0     H36866   7.078  13.088   1.627  1.7074 -0.9162 -1.3064
 1014MOL0     H36867   7.045  13.131   1.462 -2.0611  1.7720  1.3386
 1014MOL0     H36868   6.853  12.980   1.649  2.4073 -0.5331 -1.2058
 1014MOL0     H36869   6.815  12.982   1.488  2.8389 -1.5734 -0.9713
 1014MOL0     H36870   6.834  13.253   1.501 -0.2988  0.8423  0.8594
 1014MOL0     H36871   6.825  13.229   1.672  5.1323 -1.5100  0.4638
 1014MOL0     H36872   7.690  12.547   1.491  0.4640  5.3039  0.9367
 1014MOL0     H36873   7.879  12.405   1.542 -0.5232  0.5805  0.7216
 1014MOL0     H36874   8.355  12.478   1.419 -0.7511  0.6333  2.1439
 1014MOL0     H36875   8.607  12.414   1.400  1.6152 -0.8603  2.2447
 1014MOL0     H36876   9.633  11.005   1.123  0.4074  0.3775  0.3437
 1014MOL0     H36877   9.622  10.872   1.337 -0.9822 -0.0815  4.1945
 1014MOL0     H36878   9.491  10.694   1.723 -0.1948  3.6789  1.2967
 1014MOL0     H36879   9.537  10.499   1.868  0.7262  0.6287  0.7793
 1014MOL0     H36880   9.969  10.407   1.949  0.6575 -0.9404  0.7997
 1014MOL0     H36881   9.903  10.471   2.098  1.3969  2.2300 -2.9103
 1014MOL0     H36882   9.881  10.177   1.993  0.1792  0.0503  0.2673
 1014MOL0     H36883   9.805  10.246   2.145 -0.5948  1.0236 -0.9506
 1014MOL0     H36884  10.024  10.316   2.221 -2.0540  1.0292 -0.6947
 1014MOL0     H36885  10.093  10.254   2.077 -0.5039 -0.4744 -1.3217
 1014MOL0     H36886   9.939  10.059   2.273 -0.6949  0.4705 -0.2009
 1014MOL0     H36887  10.114  10.086   2.286  1.5013  2.4914 -0.7005
 1014MOL0     H36888  10.089   9.901   1.900  1.8305  0.5742 -0.0830
 1014MOL0     H36889   9.960  10.602   1.855  0.9412  0.5862  0.4843
 1014MOL0     H36890   9.911  10.769   1.691 -0.3566  0.4428  1.3001
 1015MOL0     O36891   1.265   8.597   9.459 -0.2642  0.8224  0.0591
 1015MOL0     C36892   1.326   8.513   9.391  0.2024 -0.0142 -0.6736
 1015MOL0     O36893   1.322   8.513   9.259  0.5510  0.5062 -0.4283
 1015MOL0     C36894   1.236   8.609   9.198 -1.0623  0.9564  0.8243
 1015MOL0     C36895   1.262   8.736   9.151 -0.3688  0.5298  0.2787
 1015MOL0     C36896   1.167   8.821   9.097  0.5671 -0.4176 -0.5356
 1015MOL0     C36897   1.028   8.786   9.083  0.8200  1.2768  0.9226
 1015MOL0     O36898   0.937   8.863   9.009 -0.7807 -0.6553 -0.3640
 1015MOL0     C36899   0.982   8.995   8.951  0.5241 -0.1416  0.7861
 1015MOL0     C36900   0.852   9.068   8.889  0.5709 -0.0354  1.0185
 1015MOL0     C36901   0.774   9.003   8.772 -0.3881  0.6411 -0.1871
 1015MOL0     C36902   0.689   9.098   8.698  0.9182 -0.6691  0.9465
 1015MOL0     C36903   0.752   9.203   8.599  0.3636 -0.4217 -0.7985
 1015MOL0     C36904   0.649   9.291   8.528  0.1865 -0.2335 -0.5776
 1015MOL0     C36905   0.563   9.379   8.618 -0.5785 -0.1568 -0.9990
 1015MOL0     C36906   0.511   9.496   8.548  0.8897  0.6251  0.9158
 1015MOL0     N36907   0.438   9.574   8.651 -0.3363 -0.1092 -0.2089
 1015MOL0     C36908   0.348   9.524   8.748 -0.3056  0.6769  0.6542
 1015MOL0     C36909   0.253   9.619   8.771 -0.0339  0.8633 -0.3174
 1015MOL0     C36910   0.143   9.598   8.872 -0.0390 -0.1048 -0.0661
 1015MOL0     C36911   0.016   9.626   8.788  0.4151 -0.4858 -0.2069
 1015MOL0     C36912  -0.105   9.626   8.882  0.6116  0.2587 -0.3925
 1015MOL0     C36913  -0.240   9.655   8.811  0.4078 -0.5517 -0.0992
 1015MOL0     O36914  -0.348   9.639   8.900  0.1136  0.5579  0.3147
 1015MOL0     C36915  -0.472   9.692   8.859  0.0568 -0.4030  0.2232
 1015MOL0     C36916  -0.502   9.749   8.737 -0.1760 -0.2843  0.0441
 1015MOL0     C36917  -0.641   9.779   8.705 -0.1143  1.2585  0.3210
 1015MOL0     C36918  -0.668   9.835   8.571 -0.1654 -0.1286 -0.0919
 1015MOL0     C36919  -0.742   9.746   8.795 -1.1613  0.1753 -0.5184
 1015MOL0     C36920  -0.886   9.754   8.758 -0.2842  0.4562  1.0488
 1015MOL0     O36921  -0.924   9.885   8.726  0.7680  0.1353 -1.1006
 1015MOL0     C36922  -1.058   9.893   8.704 -0.1824  0.6278 -0.1227
 1015MOL0     C36923  -1.159   9.887   8.801 -0.3853 -0.4869  0.4070
 1015MOL0     C36924  -1.296   9.902   8.762  0.0677  0.2671 -0.0271
 1015MOL0     C36925  -1.330   9.921   8.630  1.0978 -0.2804  0.5121
 1015MOL0     O36926  -1.455   9.953   8.585 -0.0776  0.1980  0.6583
 1015MOL0     C36927  -1.560   9.959   8.692 -0.2422 -0.8744 -0.9821
 1015MOL0     C36928  -1.633   9.828   8.727  0.0101 -0.0209  0.6010
 1015MOL0     C36929  -1.751   9.832   8.818 -0.7752  0.0681 -0.3406
 1015MOL0     C36930  -1.882   9.906   8.758 -0.4650  0.4049 -0.2123
 1015MOL0     C36931  -1.995   9.882   8.856 -0.6379  0.1844  0.1768
 1015MOL0     C36932  -2.129   9.951   8.833 -0.0665  0.8690 -0.1598
 1015MOL0     C36933  -2.106  10.098   8.789 -1.1887 -0.3809  0.0226
 1015MOL0     C36934  -2.235  10.174   8.786  0.0613  0.3379  0.4556
 1015MOL0    Cl36935  -2.301  10.167   8.631  0.7059 -0.0381 -0.2124
 1015MOL0     C36936  -1.229   9.934   8.537  0.2082  0.2713 -0.6036
 1015MOL0     C36937  -1.095   9.913   8.573  0.3304  0.8762  0.8387
 1015MOL0     O36938  -0.957   9.656   8.767 -0.2723 -0.2025 -0.2475
 1015MOL0     C36939  -0.712   9.681   8.916 -0.2944  0.6005 -0.7859
 1015MOL0     C36940  -0.576   9.649   8.945 -0.5461  0.0697 -0.1018
 1015MOL0     N36941   0.277   9.721   8.682 -0.8638  0.3750  0.4644
 1015MOL0     N36942   0.385   9.693   8.612 -0.0079 -0.9919 -0.2568
 1015MOL0     C36943   1.001   8.662   9.132 -0.1038  0.7921  0.6767
 1015MOL0     C36944   1.101   8.577   9.194  1.1336 -0.4131  0.5720
 1015MOL0     C36945   1.408   8.410   9.462 -0.8214 -0.9025  0.0700
 1015MOL0     C36946   1.444   8.423   9.597  0.0609  0.5109  0.2593
 1015MOL0     C36947   1.535   8.337   9.657 -0.3109  0.0080  0.8931
 1015MOL0     C36948   1.602   8.245   9.575 -0.4033  0.8544  0.1716
 1015MOL0     O36949   1.694   8.178   9.653 -0.0178  0.0411 -0.1750
 1015MOL0     C36950   1.700   8.043   9.618 -0.0329  0.4875 -0.1748
 1015MOL0     C36951   1.830   8.017   9.538 -0.2247  0.4390 -0.4279
 1015MOL0     C36952   1.871   7.867   9.526 -0.3150 -0.3382  0.3288
 1015MOL0     C36953   1.757   7.786   9.476 -0.3143  0.9511  0.5512
 1015MOL0     C36954   1.716   7.821   9.336  0.0244 -0.6651 -1.2931
 1015MOL0     C36955   1.685   7.856   9.225 -0.4934  0.5986 -0.6671
 1015MOL0     C36956   1.578   8.230   9.437  0.0687  0.4973  0.2228
 1015MOL0     C36957   1.476   8.310   9.386  1.2133  0.1801 -0.3694
 1015MOL0     H36958   1.362   8.777   9.161 -0.2294  0.1870  0.2766
 1015MOL0     H36959   1.201   8.917   9.058 -2.8472  1.7562  1.3345
 1015MOL0     H36960   1.019   9.065   9.026  2.0691 -2.1490  1.9827
 1015MOL0     H36961   1.057   8.979   8.874 -2.2776  0.7454 -2.3878
 1015MOL0     H36962   0.782   9.071   8.973 -1.8874 -1.4224 -0.8321
 1015MOL0     H36963   0.886   9.168   8.862  0.4854 -0.4003 -0.5155
 1015MOL0     H36964   0.851   8.978   8.699  0.8567  2.3916  0.4517
 1015MOL0     H36965   0.721   8.915   8.811  0.5875  1.6186  3.8695
 1015MOL0     H36966   0.617   9.050   8.632  2.0408  1.3215 -1.9253
 1015MOL0     H36967   0.636   9.148   8.780  1.3994 -1.5675  1.8245
 1015MOL0     H36968   0.835   9.250   8.653 -0.1682 -1.5165  1.0857
 1015MOL0     H36969   0.795   9.154   8.511 -0.5683  1.2411 -2.2482
 1015MOL0     H36970   0.706   9.348   8.454  1.9378 -2.2730 -0.8833
 1015MOL0     H36971   0.584   9.225   8.470 -2.3760  1.3471  0.3027
 1015MOL0     H36972   0.480   9.311   8.640 -0.0596  0.8398  7.1200
 1015MOL0     H36973   0.624   9.404   8.705  0.4473 -3.2011 -0.7014
 1015MOL0     H36974   0.451   9.474   8.459  3.6910  0.7063 -1.1336
 1015MOL0     H36975   0.591   9.550   8.497 -0.0040  0.7447 -0.4140
 1015MOL0     H36976   0.357   9.429   8.801 -3.4587  0.0589  0.2433
 1015MOL0     H36977   0.149   9.496   8.910 -0.9846  0.3131  1.2839
 1015MOL0     H36978   0.163   9.674   8.949 -3.1483  0.6658  0.1119
 1015MOL0     H36979   0.018   9.563   8.699 -1.2110 -2.3858  1.0210
 1015MOL0     H36980   0.010   9.730   8.755  0.0075 -1.2233 -2.6043
 1015MOL0     H36981  -0.075   9.689   8.967  0.2184  1.4042 -1.0949
 1015MOL0     H36982  -0.109   9.523   8.921  2.7329  0.8171  1.5168
 1015MOL0     H36983  -0.246   9.577   8.734 -0.6194 -0.3275 -0.2720
 1015MOL0     H36984  -0.233   9.747   8.752  0.4553 -1.1981 -1.1325
 1015MOL0     H36985  -0.417   9.772   8.673 -1.3099  1.4811 -0.8900
 1015MOL0     H36986  -0.605   9.792   8.492 -0.0644  0.8515 -0.5548
 1015MOL0     H36987  -0.771   9.827   8.537 -0.0343 -2.2254 -0.1178
 1015MOL0     H36988  -0.649   9.942   8.583  1.6796 -0.3756 -0.4937
 1015MOL0     H36989  -1.128   9.876   8.905  3.3055  1.0465 -0.3625
 1015MOL0     H36990  -1.378   9.893   8.833 -0.7119  1.4505 -0.7454
 1015MOL0     H36991  -1.547  10.024   8.779 -0.1468  0.2680 -1.8204
 1015MOL0     H36992  -1.638  10.020   8.646 -1.7150 -0.4117  1.9519
 1015MOL0     H36993  -1.667   9.781   8.634 -1.4427  2.4653 -0.2117
 1015MOL0     H36994  -1.552   9.767   8.768 -0.2682 -0.3580  0.6613
 1015MOL0     H36995  -1.721   9.882   8.911  1.6613 -1.9301  0.0539
 1015MOL0     H36996  -1.786   9.732   8.843 -2.8386  0.4835 -1.3372
 1015MOL0     H36997  -1.859  10.012   8.745  0.1671 -0.0032 -2.9478
 1015MOL0     H36998  -1.899   9.858   8.661  0.9895  0.6460 -0.6091
 1015MOL0     H36999  -1.959   9.899   8.958  0.8734  0.0480 -0.3072
 1015MOL0     H37000  -2.013   9.775   8.843 -3.7008  0.5644  0.6450
 1015MOL0     H37001  -2.182   9.891   8.759  0.5555  0.8585 -0.5984
 1015MOL0     H37002  -2.182   9.953   8.929 -0.4283  1.8047 -0.3701
 1015MOL0     H37003  -2.056  10.092   8.692  0.0387 -0.6008  0.6495
 1015MOL0     H37004  -2.029  10.145   8.851 -2.0354 -0.0835  0.8774
 1015MOL0     H37005  -2.213  10.276   8.817 -2.6762  0.4907  2.3156
 1015MOL0     H37006  -2.309  10.144   8.862  0.7448  0.8973  1.3573
 1015MOL0     H37007  -1.244   9.961   8.433  0.8333  2.7616 -0.1351
 1015MOL0     H37008  -1.013   9.919   8.502  1.2184 -1.3299  1.5737
 1015MOL0     H37009  -0.795   9.652   8.979 -0.5512 -0.9739 -1.7868
 1015MOL0     H37010  -0.543   9.587   9.027  0.2964 -2.9955 -2.5727
 1015MOL0     H37011   0.901   8.621   9.137 -0.5118  1.6833  0.1080
 1015MOL0     H37012   1.061   8.480   9.221  2.4878 -1.3428 -0.5789
 1015MOL0     H37013   1.396   8.507   9.647 -0.0495  1.9858 -2.1566
 1015MOL0     H37014   1.572   8.343   9.759 -0.8445 -2.7535  1.3171
 1015MOL0     H37015   1.694   7.996   9.716 -2.5385 -0.4918 -0.7114
 1015MOL0     H37016   1.620   8.016   9.548  1.9848  0.5829 -2.6723
 1015MOL0     H37017   1.919   8.071   9.572 -0.1743  0.4751 -0.6181
 1015MOL0     H37018   1.813   8.054   9.436  0.0981 -2.2987 -1.5656
 1015MOL0     H37019   1.903   7.829   9.624  2.0876 -0.9448 -0.6097
 1015MOL0     H37020   1.947   7.854   9.449 -1.9447 -2.5569 -1.0108
 1015MOL0     H37021   1.667   7.791   9.538 -0.0322 -2.3924  1.4238
 1015MOL0     H37022   1.784   7.680   9.485 -1.6913  0.3770 -1.3749
 1015MOL0     H37023   1.668   7.891   9.125  1.9404  1.5535 -0.8216
 1015MOL0     H37024   1.633   8.157   9.381 -1.1959 -0.2806 -0.0385
 1015MOL0     H37025   1.455   8.296   9.281  0.1805 -2.1572  0.0884
 1016MOL0     O37026   9.953  10.672   5.520 -0.0883 -0.8263  0.3966
 1016MOL0     C37027   9.955  10.666   5.641 -0.8434 -0.7206 -1.0006
 1016MOL0     O37028   9.864  10.730   5.734 -0.2139  0.1714 -0.3226
 1016MOL0     C37029   9.747  10.788   5.693  0.4382 -0.4793 -0.4707
 1016MOL0     C37030   9.646  10.787   5.787  0.3307 -0.6781 -0.1473
 1016MOL0     C37031   9.517  10.831   5.757 -0.5622 -0.1900 -0.3202
 1016MOL0     C37032   9.483  10.863   5.628 -0.3015 -0.0967  0.2682
 1016MOL0     O37033   9.350  10.903   5.586  0.0589 -0.1034 -0.5836
 1016MOL0     C37034   9.319  11.038   5.623 -0.7679  0.8802  0.0124
 1016MOL0     C37035   9.167  11.068   5.618  1.2075 -0.5680 -0.3351
 1016MOL0     C37036   9.134  11.212   5.650 -0.2428 -0.3228 -0.6209
 1016MOL0     C37037   9.177  11.259   5.789 -1.1939  0.1005  0.7253
 1016MOL0     C37038   9.091  11.374   5.851  0.0866  0.4122  0.4783
 1016MOL0     C37039   8.959  11.312   5.898 -0.0167 -0.0860  0.2392
 1016MOL0     C37040   8.903  11.413   5.998 -0.1565  0.7692 -0.2316
 1016MOL0     C37041   8.806  11.514   5.937  0.5896  0.4367 -0.8772
 1016MOL0     N37042   8.732  11.590   6.045  0.0054 -0.6584  0.0080
 1016MOL0     C37043   8.788  11.667   6.148 -0.3338  0.6862 -1.3172
 1016MOL0     C37044   8.678  11.718   6.206 -0.0230 -0.0524  1.0803
 1016MOL0     C37045   8.676  11.815   6.321 -0.0715  0.1293 -0.5914
 1016MOL0     C37046   8.670  11.957   6.274 -0.5870 -0.0856 -0.3818
 1016MOL0     C37047   8.670  12.047   6.395 -0.6277 -0.6567 -0.2640
 1016MOL0     C37048   8.546  12.038   6.486 -0.3525  0.1036  0.2516
 1016MOL0     O37049   8.430  12.020   6.409  0.4568 -0.6066 -0.2328
 1016MOL0     C37050   8.322  12.096   6.442 -0.2675 -0.4719  0.4076
 1016MOL0     C37051   8.223  12.127   6.346 -0.5740 -0.5278  0.0546
 1016MOL0     C37052   8.104  12.192   6.385 -0.3878  0.6123 -0.4637
 1016MOL0     C37053   7.994  12.220   6.269 -0.1819 -0.3639  0.3033
 1016MOL0     C37054   8.092  12.240   6.517 -0.9151 -0.2062 -0.1726
 1016MOL0     C37055   7.988  12.339   6.558  0.0415  0.2665 -0.1305
 1016MOL0     O37056   7.979  12.361   6.690  0.2092  0.2233 -0.1670
 1016MOL0     C37057   7.886  12.435   6.750  0.8888  0.7658  0.0579
 1016MOL0     C37058   7.918  12.501   6.871  0.4649 -0.6672 -0.7777
 1016MOL0     C37059   7.819  12.570   6.948 -0.5750 -0.8692 -0.5014
 1016MOL0     C37060   7.690  12.578   6.916 -0.1051  0.6152 -0.0356
 1016MOL0     O37061   7.598  12.636   7.003  0.1835 -0.1825  0.5766
 1016MOL0     C37062   7.460  12.620   6.969 -0.0172 -0.4733  0.6014
 1016MOL0     C37063   7.381  12.697   7.074  0.8534  0.7085 -0.6485
 1016MOL0     C37064   7.236  12.708   7.029  0.2775 -1.4595  0.9503
 1016MOL0     C37065   7.140  12.783   7.123  0.7089  0.6132 -0.3948
 1016MOL0     C37066   6.993  12.753   7.082  0.9114  0.5825 -0.2857
 1016MOL0     C37067   6.886  12.834   7.160  1.7662  0.1700 -0.5941
 1016MOL0     C37068   6.746  12.783   7.127 -0.8030  0.5501 -0.0835
 1016MOL0     C37069   6.641  12.870   7.187  0.5141  0.0662 -0.2823
 1016MOL0    Cl37070   6.625  12.806   7.356  0.0802  0.2679 -0.3216
 1016MOL0     C37071   7.649  12.503   6.797 -1.2500 -0.2902 -0.7491
 1016MOL0     C37072   7.745  12.434   6.715  0.7458  0.1166  0.5172
 1016MOL0     O37073   7.910  12.387   6.476 -0.6667  0.2818  0.0526
 1016MOL0     C37074   8.187  12.210   6.602  0.0515 -0.5539  0.4868
 1016MOL0     C37075   8.299  12.144   6.567  0.3804  1.1918 -0.3992
 1016MOL0     N37076   8.566  11.665   6.144  0.2920 -0.3791 -0.6605
 1016MOL0     N37077   8.604  11.584   6.049  0.4768  0.4497 -0.1202
 1016MOL0     C37078   9.584  10.862   5.533  0.2423 -0.1392  0.1842
 1016MOL0     C37079   9.714  10.837   5.570 -0.6880 -0.1610  0.3095
 1016MOL0     C37080  10.042  10.555   5.708  0.0116 -0.7913  1.2989
 1016MOL0     C37081   9.994  10.489   5.821 -0.1041  0.1128 -0.4385
 1016MOL0     C37082  10.046  10.368   5.858  0.3903  0.3587 -0.4908
 1016MOL0     C37083  10.158  10.320   5.788  0.6323  0.1743  0.1658
 1016MOL0     O37084  10.223  10.203   5.818  0.5657 -0.4669 -1.2630
 1016MOL0     C37085  10.221  10.158   5.956  0.1537 -0.6009  0.6670
 1016MOL0     C37086  10.332  10.049   5.983  0.6092 -0.0605 -0.4639
 1016MOL0     C37087  10.464  10.118   5.962 -0.6303  0.7006  0.8413
 1016MOL0     C37088  10.579  10.013   5.968 -0.3240  0.3254 -0.1325
 1016MOL0     C37089  10.699  10.082   6.003 -0.6570 -0.1793 -0.6953
 1016MOL0     C37090  10.805  10.133   6.023 -0.4966 -0.7577  0.3987
 1016MOL0     C37091  10.216  10.390   5.685  0.3146 -0.4869  0.7457
 1016MOL0     C37092  10.160  10.512   5.641 -0.4942  0.9946 -0.7310
 1016MOL0     H37093   9.662  10.744   5.885 -0.3572 -2.8671 -0.9313
 1016MOL0     H37094   9.436  10.818   5.828  0.5383 -1.5068  0.7523
 1016MOL0     H37095   9.353  11.063   5.724 -1.0660  1.3956 -0.0087
 1016MOL0     H37096   9.373  11.105   5.555 -3.4207  0.8807 -2.2703
 1016MOL0     H37097   9.130  11.036   5.520  0.6535 -2.1116  0.3323
 1016MOL0     H37098   9.112  11.001   5.686 -2.2516  1.8514 -0.4854
 1016MOL0     H37099   9.190  11.268   5.575  0.0634 -0.3089 -0.3850
 1016MOL0     H37100   9.027  11.225   5.631 -0.6620 -3.3191 -0.8767
 1016MOL0     H37101   9.195  11.173   5.854 -2.8930 -0.7902  0.0712
 1016MOL0     H37102   9.276  11.303   5.771 -2.1685  1.6701 -1.2923
 1016MOL0     H37103   9.145  11.418   5.935  1.4829 -1.8675  0.8705
 1016MOL0     H37104   9.072  11.452   5.777 -3.0871  0.4704  1.1918
 1016MOL0     H37105   8.882  11.309   5.820  0.0824  0.0573  0.1350
 1016MOL0     H37106   8.964  11.212   5.940 -1.1471  0.3065  1.3819
 1016MOL0     H37107   8.847  11.362   6.076 -0.9903  2.2227  0.1563
 1016MOL0     H37108   8.978  11.477   6.046 -0.6002  1.0009  0.1556
 1016MOL0     H37109   8.739  11.474   5.860 -0.7019  1.6597 -0.4216
 1016MOL0     H37110   8.868  11.590   5.888 -1.1994  1.5475 -1.5073
 1016MOL0     H37111   8.892  11.671   6.179  0.1199  1.4456 -2.8674
 1016MOL0     H37112   8.583  11.790   6.373 -1.2010  0.1012 -2.5613
 1016MOL0     H37113   8.758  11.800   6.392 -0.7680  1.2578  0.4923
 1016MOL0     H37114   8.579  11.974   6.214 -0.3670  3.0992  0.0235
 1016MOL0     H37115   8.757  11.986   6.214  0.6442 -0.3074  1.2439
 1016MOL0     H37116   8.667  12.148   6.354 -0.0098 -0.5628 -0.0855
 1016MOL0     H37117   8.767  12.033   6.444 -1.2218 -1.0398  0.8327
 1016MOL0     H37118   8.547  12.124   6.553  0.4851  0.8467 -0.6812
 1016MOL0     H37119   8.550  11.945   6.543  0.9727 -0.4867 -0.7591
 1016MOL0     H37120   8.235  12.095   6.243  1.4454 -3.0384  0.9703
 1016MOL0     H37121   8.013  12.318   6.224 -2.5161 -0.9560 -2.2587
 1016MOL0     H37122   8.011  12.146   6.190  1.5182  0.1339  0.1596
 1016MOL0     H37123   7.888  12.216   6.293 -0.4997  0.9338 -0.7513
 1016MOL0     H37124   8.021  12.489   6.904  0.1297 -3.9617 -0.5072
 1016MOL0     H37125   7.865  12.613   7.037  1.5708  0.0501 -1.9594
 1016MOL0     H37126   7.440  12.668   6.873  0.8406 -1.7533 -0.2522
 1016MOL0     H37127   7.419  12.519   6.964  0.8711 -0.8543  0.7996
 1016MOL0     H37128   7.366  12.642   7.167  2.2239  1.6116  0.1312
 1016MOL0     H37129   7.422  12.796   7.094  0.6381  1.4151 -3.2385
 1016MOL0     H37130   7.203  12.606   7.006  0.6959 -1.1724 -1.2183
 1016MOL0     H37131   7.238  12.763   6.934 -0.7564 -0.7641  1.3140
 1016MOL0     H37132   7.160  12.773   7.230 -0.9346  4.5712  0.4654
 1016MOL0     H37133   7.162  12.887   7.095  0.6886  0.5974 -0.4696
 1016MOL0     H37134   6.979  12.646   7.100  1.2144  0.6998  0.7201
 1016MOL0     H37135   6.970  12.770   6.977  1.3839 -0.0981 -0.5013
 1016MOL0     H37136   6.907  12.819   7.267  2.4244  1.4426 -0.5218
 1016MOL0     H37137   6.894  12.942   7.146  1.6091  0.2439 -0.1295
 1016MOL0     H37138   6.747  12.678   7.156 -2.4360  1.1295  2.3425
 1016MOL0     H37139   6.724  12.791   7.020  0.2370 -1.8218 -0.5380
 1016MOL0     H37140   6.550  12.872   7.127  0.9808 -0.3781 -1.0325
 1016MOL0     H37141   6.676  12.973   7.193  0.4941  0.2042 -2.0239
 1016MOL0     H37142   7.544  12.491   6.770 -2.7508 -0.4454  4.1660
 1016MOL0     H37143   7.714  12.379   6.626  1.8588  0.4520 -0.0959
 1016MOL0     H37144   8.181  12.234   6.708 -0.3752  0.5025  0.2297
 1016MOL0     H37145   8.362  12.119   6.652  0.6358 -1.8120 -1.3619
 1016MOL0     H37146   9.567  10.887   5.429  0.2521 -1.6598 -0.2101
 1016MOL0     H37147   9.793  10.841   5.496 -2.4713  0.0628 -1.6862
 1016MOL0     H37148   9.909  10.533   5.872 -0.5114 -1.8748  0.6974
 1016MOL0     H37149  10.001  10.304   5.933  1.6741  3.1415  2.9296
 1016MOL0     H37150  10.236  10.241   6.026  0.4546  0.1727 -0.3009
 1016MOL0     H37151  10.120  10.117   5.968  0.2620 -0.2004  3.7159
 1016MOL0     H37152  10.303   9.967   5.917 -0.4206  1.1280 -1.5687
 1016MOL0     H37153  10.316  10.018   6.086 -2.4940  0.2840 -0.7323
 1016MOL0     H37154  10.465  10.194   6.040 -1.9762  1.4152  0.1999
 1016MOL0     H37155  10.472  10.170   5.866 -0.6777  1.1376  1.0736
 1016MOL0     H37156  10.588   9.963   5.871  1.0300 -1.3656  0.8113
 1016MOL0     H37157  10.541   9.938   6.038 -0.5684 -0.2948 -0.9168
 1016MOL0     H37158  10.906  10.165   6.032 -1.0871  0.5940  3.8174
 1016MOL0     H37159  10.314  10.361   5.650  1.6301 -0.7366  4.1930
 1016MOL0     H37160  10.191  10.554   5.546 -0.6394 -1.2941 -1.8521
 1017MOL0     O37161   5.345   8.571   8.479 -0.9130  0.4722  0.7731
 1017MOL0     C37162   5.292   8.622   8.573 -0.2982 -0.2405  0.1804
 1017MOL0     O37163   5.167   8.593   8.620  0.6560  0.2154 -1.1203
 1017MOL0     C37164   5.079   8.517   8.544  1.4945  0.3013 -0.1196
 1017MOL0     C37165   4.949   8.557   8.569 -0.1735  0.8272  0.0802
 1017MOL0     C37166   4.836   8.498   8.513  0.5350  0.1374 -0.3880
 1017MOL0     C37167   4.858   8.402   8.413 -0.6500  0.0671  1.1634
 1017MOL0     O37168   4.764   8.343   8.332 -0.6470 -0.2671  0.8317
 1017MOL0     C37169   4.628   8.381   8.330 -0.7851  0.2772 -0.1699
 1017MOL0     C37170   4.571   8.298   8.220  0.2219 -0.0966 -0.2228
 1017MOL0     C37171   4.415   8.329   8.200  0.1391 -0.6959  0.2436
 1017MOL0     C37172   4.383   8.234   8.085 -0.3210  0.0247  0.8709
 1017MOL0     C37173   4.229   8.240   8.057 -0.4991  0.2286  1.0708
 1017MOL0     C37174   4.198   8.371   7.992  0.0753 -0.7384  0.4034
 1017MOL0     C37175   4.051   8.381   7.959 -0.5040 -0.0912  0.8246
 1017MOL0     C37176   4.009   8.504   7.879  0.3234 -0.0481 -0.5392
 1017MOL0     N37177   3.871   8.474   7.825  0.0295 -0.0658 -0.3435
 1017MOL0     C37178   3.824   8.480   7.695  0.3517 -0.5001 -0.4895
 1017MOL0     C37179   3.694   8.463   7.709  0.4139 -0.5508  0.8374
 1017MOL0     C37180   3.603   8.454   7.583  0.3629  0.1897 -0.2209
 1017MOL0     C37181   3.617   8.588   7.514  0.4157 -0.1408  0.2056
 1017MOL0     C37182   3.599   8.719   7.600 -0.6435  0.0940  0.3161
 1017MOL0     C37183   3.462   8.738   7.676  0.6008 -1.2846  0.2465
 1017MOL0     O37184   3.483   8.861   7.745 -0.1666 -0.3987 -0.0313
 1017MOL0     C37185   3.380   8.924   7.808 -0.2960 -0.5252 -0.0112
 1017MOL0     C37186   3.434   8.998   7.913  0.5282  0.2138  0.1045
 1017MOL0     C37187   3.336   9.061   7.992 -0.1400  1.0975  0.1480
 1017MOL0     C37188   3.393   9.146   8.098  0.7733  0.0391 -0.0486
 1017MOL0     C37189   3.198   9.037   7.973 -0.5534 -0.5225 -0.0894
 1017MOL0     C37190   3.087   9.103   8.056 -0.3511 -0.1894  0.7843
 1017MOL0     O37191   3.113   9.226   8.094 -0.7859 -0.1050  1.0905
 1017MOL0     C37192   3.024   9.303   8.164  0.1339 -0.8692  0.4424
 1017MOL0     C37193   2.963   9.257   8.273  0.5223  0.3957  0.0374
 1017MOL0     C37194   2.875   9.326   8.355 -0.3892 -0.3046 -0.4087
 1017MOL0     C37195   2.855   9.467   8.325 -0.3193  0.1894  0.0917
 1017MOL0     O37196   2.775   9.550   8.389 -0.2374  0.1813  0.4575
 1017MOL0     C37197   2.669   9.493   8.466 -0.1463 -0.0329 -0.2142
 1017MOL0     C37198   2.540   9.469   8.388  0.5566  0.4228  0.8964
 1017MOL0     C37199   2.418   9.454   8.472  0.3280 -0.0858  0.7642
 1017MOL0     C37200   2.294   9.417   8.389  0.8952  0.0509 -0.3640
 1017MOL0     C37201   2.178   9.407   8.488 -0.0416  1.3424  0.3259
 1017MOL0     C37202   2.055   9.359   8.418 -0.0090  1.6733 -0.4993
 1017MOL0     C37203   1.935   9.339   8.520  1.0355  0.5231  1.2908
 1017MOL0     C37204   1.808   9.366   8.445 -1.1827 -0.0755  0.2778
 1017MOL0    Cl37205   1.666   9.331   8.547  0.2197 -0.0238 -0.0491
 1017MOL0     C37206   2.927   9.524   8.221  0.6976  0.7309  0.7306
 1017MOL0     C37207   3.008   9.437   8.143  0.8321 -0.8425  0.5713
 1017MOL0     O37208   2.976   9.050   8.059 -0.4531  0.2096  0.1049
 1017MOL0     C37209   3.151   8.952   7.875  0.0800 -0.2788 -0.0865
 1017MOL0     C37210   3.243   8.901   7.792  0.2980  0.8314 -0.0761
 1017MOL0     N37211   3.663   8.451   7.846  0.1648  0.6778  0.5363
 1017MOL0     N37212   3.771   8.453   7.913 -0.6054  0.1178 -0.1344
 1017MOL0     C37213   4.985   8.360   8.383  0.0401 -0.0967 -0.0415
 1017MOL0     C37214   5.099   8.415   8.447  0.5267 -1.0290 -0.2739
 1017MOL0     C37215   5.371   8.721   8.656 -0.5837  0.0110  0.7003
 1017MOL0     C37216   5.489   8.780   8.612 -0.3476  0.1401 -0.0995
 1017MOL0     C37217   5.560   8.869   8.699  0.0009 -0.0322  0.5794
 1017MOL0     C37218   5.517   8.891   8.832 -0.3815 -0.5825  0.0139
 1017MOL0     O37219   5.605   8.950   8.935  0.6458  0.5136 -0.0022
 1017MOL0     C37220   5.739   8.898   8.949  0.4783  0.0715 -0.1848
 1017MOL0     C37221   5.738   8.756   9.006 -0.6024 -0.6999  0.7107
 1017MOL0     C37222   5.861   8.737   9.097 -0.2718 -0.8643  1.0861
 1017MOL0     C37223   5.870   8.591   9.140 -0.4285 -0.0907  0.1005
 1017MOL0     C37224   5.762   8.551   9.231  0.2055 -0.6175 -0.3189
 1017MOL0     C37225   5.671   8.512   9.303 -0.6231  1.1790 -0.2306
 1017MOL0     C37226   5.394   8.847   8.871 -0.0539  0.5482 -0.8331
 1017MOL0     C37227   5.320   8.762   8.782  0.4832 -0.1606 -0.1180
 1017MOL0     H37228   4.934   8.644   8.633 -0.5614  2.6033 -2.3192
 1017MOL0     H37229   4.734   8.518   8.544  0.8507  0.7186  0.3136
 1017MOL0     H37230   4.576   8.367   8.426  2.3073  1.1214  1.8022
 1017MOL0     H37231   4.615   8.486   8.303  0.0618  0.2303 -0.8121
 1017MOL0     H37232   4.611   8.334   8.125  2.3893  0.2802  0.7733
 1017MOL0     H37233   4.574   8.188   8.223 -2.1416 -0.1921  0.4178
 1017MOL0     H37234   4.350   8.303   8.284 -0.6778  1.9953  0.5421
 1017MOL0     H37235   4.405   8.436   8.183 -0.2777 -0.8596 -0.5907
 1017MOL0     H37236   4.441   8.264   7.998  1.1326  2.2700  2.4971
 1017MOL0     H37237   4.405   8.133   8.122  0.6743 -0.3305 -0.6157
 1017MOL0     H37238   4.197   8.172   7.977  0.9995  0.9163 -0.1519
 1017MOL0     H37239   4.170   8.211   8.144 -1.8500 -1.3357 -0.2842
 1017MOL0     H37240   4.209   8.456   8.060 -3.3917 -0.0277  0.2638
 1017MOL0     H37241   4.260   8.380   7.901  1.1056 -1.1878  1.0405
 1017MOL0     H37242   4.022   8.292   7.904 -1.5597 -0.7762  2.3946
 1017MOL0     H37243   3.990   8.377   8.050 -2.5863  0.5637 -0.4705
 1017MOL0     H37244   4.069   8.543   7.796  0.4900  1.5362  0.2696
 1017MOL0     H37245   4.006   8.588   7.950  0.7370 -0.8546  0.4583
 1017MOL0     H37246   3.883   8.516   7.611 -2.5139  3.9083 -0.9722
 1017MOL0     H37247   3.649   8.381   7.515  0.8700  1.6444 -1.5026
 1017MOL0     H37248   3.498   8.437   7.610  1.3939 -0.6645  3.8586
 1017MOL0     H37249   3.550   8.585   7.428 -0.6170  0.3770  0.9666
 1017MOL0     H37250   3.710   8.595   7.457  1.5582 -0.8812  1.8965
 1017MOL0     H37251   3.616   8.795   7.523  0.0229  0.5446  0.8911
 1017MOL0     H37252   3.678   8.711   7.676 -2.1011 -4.2032  1.6680
 1017MOL0     H37253   3.449   8.662   7.753  0.6852 -1.7703 -0.2177
 1017MOL0     H37254   3.385   8.727   7.599  1.7270  1.2322 -1.3662
 1017MOL0     H37255   3.540   9.014   7.932 -0.1098  1.5834  3.0957
 1017MOL0     H37256   3.500   9.134   8.116  0.8763  0.7755 -0.1294
 1017MOL0     H37257   3.375   9.252   8.075 -1.3056 -0.1662  0.4541
 1017MOL0     H37258   3.349   9.119   8.195  0.8816 -0.1406 -0.0507
 1017MOL0     H37259   2.978   9.150   8.287  1.3760 -0.1280 -3.7685
 1017MOL0     H37260   2.817   9.267   8.425  0.3773 -0.6297 -0.0400
 1017MOL0     H37261   2.689   9.406   8.529 -1.3845  0.0630  0.3350
 1017MOL0     H37262   2.646   9.576   8.533  1.7691  1.0920 -0.8788
 1017MOL0     H37263   2.525   9.548   8.313 -0.1884  1.1521  1.7892
 1017MOL0     H37264   2.570   9.383   8.328  2.6383  0.0945  2.3338
 1017MOL0     H37265   2.399   9.555   8.508 -0.9333  0.6505 -1.7766
 1017MOL0     H37266   2.442   9.383   8.552  1.2122 -0.2246  0.3877
 1017MOL0     H37267   2.264   9.491   8.314 -1.6349  1.0065  1.4507
 1017MOL0     H37268   2.308   9.316   8.349 -0.1730  0.3471 -1.5470
 1017MOL0     H37269   2.156   9.505   8.532 -0.1436  1.7072 -0.5314
 1017MOL0     H37270   2.201   9.331   8.563 -1.1119  0.8263  0.1495
 1017MOL0     H37271   2.038   9.430   8.337  0.1492  2.1381 -0.1302
 1017MOL0     H37272   2.085   9.257   8.390  0.9531  0.6133  3.6676
 1017MOL0     H37273   1.948   9.391   8.615 -0.4829  0.2470  1.6676
 1017MOL0     H37274   1.927   9.237   8.558  0.1375  1.3943  3.6103
 1017MOL0     H37275   1.804   9.305   8.354 -0.8960  1.2899 -0.6918
 1017MOL0     H37276   1.810   9.473   8.421  2.4699  0.2760  1.5229
 1017MOL0     H37277   2.930   9.632   8.207 -0.9654  0.6250 -0.8978
 1017MOL0     H37278   3.063   9.477   8.059  2.2098 -0.0057  1.8164
 1017MOL0     H37279   3.044   8.945   7.857  0.2742 -0.7462 -1.1566
 1017MOL0     H37280   3.207   8.845   7.705 -0.1809  3.6123 -1.7845
 1017MOL0     H37281   4.983   8.300   8.292 -3.6789  1.2854 -1.0408
 1017MOL0     H37282   5.195   8.383   8.410  2.3844  2.5088  0.9824
 1017MOL0     H37283   5.527   8.753   8.513  0.9801 -5.1145  1.5287
 1017MOL0     H37284   5.657   8.913   8.676  0.1086  0.4340  1.8516
 1017MOL0     H37285   5.787   8.901   8.850 -0.4100 -0.6202 -0.6463
 1017MOL0     H37286   5.795   8.968   9.012  0.1554 -0.7021  0.9787
 1017MOL0     H37287   5.753   8.679   8.929 -1.3692 -0.5137  0.3624
 1017MOL0     H37288   5.648   8.739   9.066 -1.9726  0.8275 -0.7885
 1017MOL0     H37289   5.861   8.795   9.190  2.0589  1.1462 -0.0331
 1017MOL0     H37290   5.956   8.748   9.044 -0.7274 -5.4211 -1.1467
 1017MOL0     H37291   5.961   8.568   9.196 -0.1749  1.5472  0.4091
 1017MOL0     H37292   5.870   8.524   9.053 -1.4075  2.1300 -1.7167
 1017MOL0     H37293   5.593   8.489   9.372  0.9173 -0.4960  1.0406
 1017MOL0     H37294   5.352   8.858   8.971  2.9437 -0.1868  0.6220
 1017MOL0     H37295   5.222   8.727   8.809  1.2453 -2.6798 -0.3883
 1018MOL0     O37296   8.497   3.504   5.014  0.9251  0.3096  0.8727
 1018MOL0     C37297   8.594   3.520   5.084 -0.8883  0.0484  0.2222
 1018MOL0     O37298   8.587   3.574   5.208 -0.0515 -0.6165  0.0959
 1018MOL0     C37299   8.459   3.597   5.254  0.2967 -0.9528  0.0970
 1018MOL0     C37300   8.374   3.491   5.270  0.4502  0.8980 -0.0954
 1018MOL0     C37301   8.240   3.518   5.301 -0.2174  1.0472  0.1879
 1018MOL0     C37302   8.186   3.650   5.307  0.6033 -0.2027 -0.9419
 1018MOL0     O37303   8.059   3.667   5.336 -0.6077 -0.6881 -0.3542
 1018MOL0     C37304   7.977   3.764   5.267 -0.2850 -0.4402 -0.1417
 1018MOL0     C37305   7.821   3.735   5.284  0.5070  0.6973  0.1645
 1018MOL0     C37306   7.771   3.609   5.213  0.0073  0.0817  0.6145
 1018MOL0     C37307   7.861   3.481   5.213  0.2490  0.5294  0.4036
 1018MOL0     C37308   7.787   3.351   5.193 -0.2939 -0.3666 -0.3894
 1018MOL0     C37309   7.880   3.234   5.170  0.5898 -1.0229 -0.0357
 1018MOL0     C37310   7.958   3.250   5.029 -0.3436 -0.1809  0.2620
 1018MOL0     C37311   8.051   3.137   4.971 -0.0218  0.3907  0.8623
 1018MOL0     N37312   7.965   3.024   4.923 -0.1997 -0.6988 -0.5065
 1018MOL0     C37313   7.860   3.044   4.831  0.8830 -0.1153  0.2010
 1018MOL0     C37314   7.820   2.922   4.799  0.0799  0.4723 -0.5122
 1018MOL0     C37315   7.695   2.887   4.716 -0.0151 -0.1236 -0.1736
 1018MOL0     C37316   7.647   2.749   4.768 -0.3384  0.7425  0.9693
 1018MOL0     C37317   7.520   2.704   4.678 -0.1085  0.1039 -0.6511
 1018MOL0     C37318   7.506   2.548   4.687 -0.1859  0.6757 -0.2821
 1018MOL0     O37319   7.450   2.500   4.801  0.6594 -0.0870  0.0406
 1018MOL0     C37320   7.320   2.460   4.784 -0.3116 -0.4810 -0.3006
 1018MOL0     C37321   7.293   2.342   4.865  0.4161  1.2133  0.4154
 1018MOL0     C37322   7.163   2.279   4.853 -0.1266  0.2702 -0.3260
 1018MOL0     C37323   7.161   2.149   4.930  0.0200  0.8145  0.2263
 1018MOL0     C37324   7.067   2.334   4.763  0.0474  0.4365 -0.6220
 1018MOL0     C37325   6.930   2.277   4.749 -0.0675  1.0531 -0.7416
 1018MOL0     O37326   6.845   2.329   4.644  0.2624  0.7810 -0.3533
 1018MOL0     C37327   6.711   2.334   4.662 -0.3102 -0.4937 -0.3339
 1018MOL0     C37328   6.635   2.334   4.555  0.0530  0.7613  0.2448
 1018MOL0     C37329   6.495   2.356   4.575 -0.7995  0.0594  0.5666
 1018MOL0     C37330   6.441   2.378   4.693 -0.0852 -0.4660  0.2952
 1018MOL0     O37331   6.310   2.407   4.715 -0.3615  0.4098  0.1943
 1018MOL0     C37332   6.211   2.438   4.615 -0.0924  0.2600 -0.3510
 1018MOL0     C37333   6.250   2.581   4.565 -0.6805  0.5536  0.1555
 1018MOL0     C37334   6.170   2.643   4.453  0.9052  0.0731  0.1570
 1018MOL0     C37335   6.050   2.727   4.525  0.1580  0.3377  0.8362
 1018MOL0     C37336   5.939   2.771   4.435  0.3224 -0.0710 -0.3055
 1018MOL0     C37337   5.857   2.872   4.516  0.2565  0.3257 -0.9317
 1018MOL0     C37338   5.741   2.928   4.439  0.5688  0.0223 -0.0907
 1018MOL0     C37339   5.654   3.033   4.505  0.5686 -0.1981  0.1507
 1018MOL0    Cl37340   5.563   3.112   4.375  0.0568  0.4528 -0.1791
 1018MOL0     C37341   6.527   2.409   4.799  0.7312  1.0203 -0.1114
 1018MOL0     C37342   6.659   2.374   4.791  0.0010 -0.7839  0.0764
 1018MOL0     O37343   6.897   2.184   4.822  0.4501 -0.2929  0.0134
 1018MOL0     C37344   7.105   2.451   4.688  0.1737  1.1421 -0.3371
 1018MOL0     C37345   7.223   2.509   4.701 -0.0315 -0.2361 -0.0614
 1018MOL0     N37346   7.907   2.833   4.843 -1.2105 -0.2127  0.9544
 1018MOL0     N37347   7.998   2.894   4.916 -0.4841  0.5639  0.8079
 1018MOL0     C37348   8.281   3.750   5.276  0.3001  0.8252 -0.6238
 1018MOL0     C37349   8.415   3.722   5.261  0.7349 -0.3146  0.1150
 1018MOL0     C37350   8.720   3.457   5.033 -0.2375 -0.2671 -0.7439
 1018MOL0     C37351   8.733   3.407   4.907 -0.0723  0.2935 -0.0006
 1018MOL0     C37352   8.855   3.349   4.860  0.5632 -0.7671  0.3876
 1018MOL0     C37353   8.967   3.332   4.946 -0.1013  0.7546  1.2977
 1018MOL0     O37354   9.085   3.276   4.906  0.5448 -0.3071  0.2032
 1018MOL0     C37355   9.080   3.169   4.814 -0.3353 -0.6985 -0.2038
 1018MOL0     C37356   9.212   3.095   4.792 -0.6685  0.8730 -0.0379
 1018MOL0     C37357   9.282   3.041   4.915 -0.1355 -0.1118  0.2428
 1018MOL0     C37358   9.401   2.948   4.880 -0.8029  0.0685  0.5989
 1018MOL0     C37359   9.516   3.038   4.853 -0.6672  0.8440  0.7978
 1018MOL0     C37360   9.601   3.116   4.833 -0.2114  0.5038 -0.0264
 1018MOL0     C37361   8.956   3.373   5.079 -0.1837  0.5523  0.7837
 1018MOL0     C37362   8.832   3.434   5.116  0.4778  0.2382 -0.1388
 1018MOL0     H37363   8.409   3.389   5.259 -0.9181  0.3113  0.7601
 1018MOL0     H37364   8.167   3.440   5.317 -0.0307  0.4261 -1.7315
 1018MOL0     H37365   8.006   3.864   5.302  1.6761 -1.1262  0.2867
 1018MOL0     H37366   8.006   3.768   5.161 -0.1470 -0.9248 -0.1251
 1018MOL0     H37367   7.792   3.718   5.388  0.0829  0.1403 -0.0383
 1018MOL0     H37368   7.778   3.828   5.246  0.6761  0.7385  0.0736
 1018MOL0     H37369   7.672   3.586   5.254 -0.3747  0.3268 -0.1471
 1018MOL0     H37370   7.765   3.641   5.109  1.2934  2.4899  1.2342
 1018MOL0     H37371   7.943   3.507   5.145 -0.0106 -0.6568 -0.3808
 1018MOL0     H37372   7.903   3.469   5.313 -1.5358  3.0450  1.5670
 1018MOL0     H37373   7.730   3.344   5.286  0.3934  0.6201  0.1238
 1018MOL0     H37374   7.713   3.351   5.112  0.4882 -4.2306 -1.3356
 1018MOL0     H37375   7.955   3.241   5.250  0.6392  1.5767 -0.2032
 1018MOL0     H37376   7.831   3.138   5.157 -1.2528 -0.0469 -0.6786
 1018MOL0     H37377   7.892   3.283   4.949 -0.4956  1.6649  1.1132
 1018MOL0     H37378   8.029   3.332   5.043 -0.2073  0.8852 -4.7783
 1018MOL0     H37379   8.125   3.095   5.040 -0.5158 -1.3720  0.3761
 1018MOL0     H37380   8.104   3.177   4.884  2.9199  0.4348  2.5281
 1018MOL0     H37381   7.810   3.132   4.792  2.9642  0.0501 -2.3749
 1018MOL0     H37382   7.630   2.974   4.729  1.7201  1.1397  0.3303
 1018MOL0     H37383   7.718   2.882   4.610 -1.6756 -0.5105 -0.5424
 1018MOL0     H37384   7.608   2.752   4.870  1.5948 -0.2728  1.7899
 1018MOL0     H37385   7.725   2.673   4.773 -2.4776 -1.7513 -0.8887
 1018MOL0     H37386   7.542   2.732   4.574  1.0980 -1.1601 -0.7684
 1018MOL0     H37387   7.430   2.753   4.716  0.4870  0.3043  0.5294
 1018MOL0     H37388   7.609   2.512   4.687 -1.1460 -2.6064  2.8182
 1018MOL0     H37389   7.452   2.517   4.597 -1.6043 -0.6593  0.9872
 1018MOL0     H37390   7.368   2.296   4.928 -0.8125  2.3752  2.8674
 1018MOL0     H37391   7.108   2.082   4.862  3.3898 -1.7783 -0.1464
 1018MOL0     H37392   7.262   2.110   4.948 -0.1009 -0.4284 -1.5524
 1018MOL0     H37393   7.106   2.165   5.023 -2.8082 -5.4074  0.1438
 1018MOL0     H37394   6.691   2.309   4.466  0.0094 -1.0676  0.6783
 1018MOL0     H37395   6.445   2.377   4.481  2.3344 -0.6395 -1.4326
 1018MOL0     H37396   6.222   2.370   4.530  5.1947  0.4336 -0.1461
 1018MOL0     H37397   6.109   2.444   4.653 -0.9834  0.5606 -2.6315
 1018MOL0     H37398   6.246   2.650   4.650  1.0350  2.7793 -1.4687
 1018MOL0     H37399   6.356   2.587   4.538 -0.6660 -0.0847  0.0501
 1018MOL0     H37400   6.130   2.566   4.386 -2.1985  1.5859  0.1008
 1018MOL0     H37401   6.235   2.702   4.388  1.8872 -1.0777  0.0618
 1018MOL0     H37402   6.010   2.663   4.604  2.1772 -1.2788  0.6461
 1018MOL0     H37403   6.100   2.815   4.566  0.9156 -0.0094  0.6724
 1018MOL0     H37404   5.878   2.685   4.405  1.7156 -0.8315 -1.0955
 1018MOL0     H37405   5.986   2.826   4.353  1.0932  0.8571  0.7269
 1018MOL0     H37406   5.819   2.824   4.607 -0.2124  2.4270  0.0412
 1018MOL0     H37407   5.919   2.956   4.551  1.4626 -0.1952 -1.7506
 1018MOL0     H37408   5.673   2.852   4.398 -0.0182  1.0085 -1.0048
 1018MOL0     H37409   5.786   2.988   4.359  1.1954  0.1385  0.3499
 1018MOL0     H37410   5.714   3.101   4.566 -0.4655  0.6808  0.2385
 1018MOL0     H37411   5.583   2.986   4.573 -1.6388  0.5361 -1.5110
 1018MOL0     H37412   6.480   2.443   4.891 -0.3944 -1.5203  0.3455
 1018MOL0     H37413   6.726   2.377   4.877  0.4911 -1.4020 -0.2782
 1018MOL0     H37414   7.028   2.493   4.624 -0.9104  0.9285  0.8032
 1018MOL0     H37415   7.235   2.600   4.642  1.8643 -0.0442  0.5413
 1018MOL0     H37416   8.240   3.847   5.248 -3.7064 -0.7230 -0.8258
 1018MOL0     H37417   8.477   3.805   5.228  0.9200  1.0038  3.4487
 1018MOL0     H37418   8.656   3.434   4.836  0.4808 -0.4864 -0.9154
 1018MOL0     H37419   8.862   3.315   4.758  1.3486 -0.6955  0.4081
 1018MOL0     H37420   9.009   3.094   4.848  1.0665 -1.2257  1.7242
 1018MOL0     H37421   9.040   3.223   4.727  3.0857  2.8963  0.1667
 1018MOL0     H37422   9.289   3.162   4.752  3.2462 -1.2757  3.1131
 1018MOL0     H37423   9.194   3.010   4.725  0.6036  0.7847 -0.3012
 1018MOL0     H37424   9.210   2.974   4.962 -0.5508  0.3587  0.2969
 1018MOL0     H37425   9.302   3.116   4.992 -0.3238  0.6791 -0.4540
 1018MOL0     H37426   9.375   2.892   4.789  0.6230 -1.0892  0.8739
 1018MOL0     H37427   9.429   2.886   4.966 -1.1746 -0.2837  0.4686
 1018MOL0     H37428   9.691   3.173   4.827  0.8564 -1.1657 -0.3709
 1018MOL0     H37429   9.039   3.358   5.147  0.4354  0.7402  0.0797
 1018MOL0     H37430   8.823   3.464   5.220  0.0415 -1.5573  0.3874
 1019MOL0     O37431   3.919   2.717   6.891  0.2842  0.7221 -0.3303
 1019MOL0     C37432   3.877   2.683   6.781 -0.5364  0.7042  0.1187
 1019MOL0     O37433   3.749   2.649   6.754  0.6568  0.5033  0.0417
 1019MOL0     C37434   3.671   2.605   6.863 -0.0864 -0.1095  0.0945
 1019MOL0     C37435   3.541   2.648   6.862 -0.4186  0.0699  0.4147
 1019MOL0     C37436   3.462   2.603   6.963  0.0143  0.0277  0.5164
 1019MOL0     C37437   3.509   2.517   7.065 -0.1191 -0.4923  0.2766
 1019MOL0     O37438   3.442   2.476   7.180 -0.7059  0.1420 -0.7144
 1019MOL0     C37439   3.301   2.503   7.207 -0.6715 -0.3984 -0.1310
 1019MOL0     C37440   3.243   2.413   7.325 -0.0082 -0.4352 -0.5631
 1019MOL0     C37441   3.339   2.442   7.447  0.1913  0.9069 -0.2479
 1019MOL0     C37442   3.283   2.394   7.582  0.5227  0.4226 -0.7133
 1019MOL0     C37443   3.378   2.424   7.691 -0.4871  0.0902 -0.1200
 1019MOL0     C37444   3.467   2.300   7.729  0.3377 -0.3386 -0.3588
 1019MOL0     C37445   3.566   2.326   7.847  0.4642 -0.6913 -0.1404
 1019MOL0     C37446   3.683   2.421   7.818  0.1112 -0.6941  0.0359
 1019MOL0     N37447   3.797   2.337   7.770 -0.1117  0.2108  0.1916
 1019MOL0     C37448   3.804   2.294   7.640 -0.1875  0.6590 -0.8343
 1019MOL0     C37449   3.938   2.287   7.619  0.8802  0.0922 -1.1745
 1019MOL0     C37450   3.988   2.241   7.487  0.2026 -0.6124  0.2975
 1019MOL0     C37451   3.998   2.355   7.389 -0.5738 -0.2194  0.0700
 1019MOL0     C37452   4.111   2.460   7.415 -0.2196  0.4980  0.3792
 1019MOL0     C37453   4.250   2.399   7.450  0.8575  0.2911 -0.0101
 1019MOL0     O37454   4.307   2.355   7.327 -0.1389 -0.3285  0.1132
 1019MOL0     C37455   4.423   2.285   7.343  0.1696 -0.5129  0.0664
 1019MOL0     C37456   4.433   2.151   7.359 -0.2021  0.4858  0.3379
 1019MOL0     C37457   4.541   2.073   7.379 -0.0873 -0.7519 -0.0992
 1019MOL0     C37458   4.517   1.925   7.376 -0.3436 -0.9708 -0.1382
 1019MOL0     C37459   4.666   2.142   7.387  0.3885  0.3533 -0.8250
 1019MOL0     C37460   4.799   2.080   7.417  0.3081  0.3591 -0.2284
 1019MOL0     O37461   4.793   1.951   7.452 -0.4568 -0.5474 -0.0402
 1019MOL0     C37462   4.906   1.893   7.507 -0.1616 -0.8061  0.7063
 1019MOL0     C37463   5.030   1.889   7.443 -0.3164 -0.0831  0.2121
 1019MOL0     C37464   5.152   1.856   7.508  0.7717 -0.4485 -0.3787
 1019MOL0     C37465   5.137   1.822   7.644  0.3278 -0.3348  0.0172
 1019MOL0     O37466   5.241   1.785   7.728  0.0144  0.1560  0.0678
 1019MOL0     C37467   5.326   1.691   7.678  0.0857  0.2681  0.3270
 1019MOL0     C37468   5.436   1.649   7.781  0.2102  0.7313  0.0456
 1019MOL0     C37469   5.532   1.762   7.813  0.0819 -0.1952  0.4732
 1019MOL0     C37470   5.667   1.712   7.857  0.1041  0.4598  0.6803
 1019MOL0     C37471   5.744   1.689   7.717 -0.5320 -0.6916 -0.6054
 1019MOL0     C37472   5.895   1.661   7.747  0.7446 -1.1952 -0.8097
 1019MOL0     C37473   5.949   1.530   7.807  0.6530 -0.0196  0.4844
 1019MOL0     C37474   5.920   1.410   7.724  1.2264  0.8390 -0.4118
 1019MOL0    Cl37475   5.763   1.346   7.773  0.1665  0.2389 -0.4675
 1019MOL0     C37476   5.015   1.834   7.708 -1.0676  0.2748 -0.2291
 1019MOL0     C37477   4.900   1.856   7.641 -0.2688  0.6116 -0.6917
 1019MOL0     O37478   4.895   2.154   7.398 -0.4721 -1.1210  0.5271
 1019MOL0     C37479   4.666   2.285   7.374 -0.4161  0.7654 -0.0503
 1019MOL0     C37480   4.545   2.352   7.354  0.2624 -0.1215 -0.8143
 1019MOL0     N37481   4.010   2.295   7.738 -0.2517  0.2205  0.3487
 1019MOL0     N37482   3.920   2.319   7.828 -0.1262  0.1609 -0.6397
 1019MOL0     C37483   3.646   2.482   7.070  0.0963 -0.2785  0.1145
 1019MOL0     C37484   3.722   2.520   6.963 -0.0726 -0.0723 -1.4325
 1019MOL0     C37485   3.966   2.684   6.670  1.2996 -0.0827  0.4354
 1019MOL0     C37486   3.918   2.683   6.540  0.3524 -1.4727  0.1094
 1019MOL0     C37487   4.013   2.651   6.436  0.0876  0.1520 -0.3280
 1019MOL0     C37488   4.155   2.655   6.455  1.3261  0.6957 -0.5655
 1019MOL0     O37489   4.225   2.637   6.342 -0.1193 -0.2501 -0.8184
 1019MOL0     C37490   4.356   2.589   6.346 -0.4041  0.7121 -0.1295
 1019MOL0     C37491   4.459   2.702   6.369 -0.7651  0.6509 -0.3840
 1019MOL0     C37492   4.615   2.661   6.366 -0.4477 -0.0270 -0.0083
 1019MOL0     C37493   4.702   2.780   6.419 -0.2929  0.4789  0.8082
 1019MOL0     C37494   4.839   2.734   6.435 -0.0873  0.4315  0.2981
 1019MOL0     C37495   4.955   2.688   6.438  0.2337  1.4164 -0.6705
 1019MOL0     C37496   4.197   2.658   6.584 -0.3053 -0.0665  0.6010
 1019MOL0     C37497   4.105   2.662   6.685 -0.6731 -0.6767 -0.0594
 1019MOL0     H37498   3.499   2.716   6.788 -1.2470 -0.2274  0.6012
 1019MOL0     H37499   3.361   2.640   6.976 -0.7073 -1.8543  0.4522
 1019MOL0     H37500   3.284   2.606   7.239  0.4362 -0.0997 -0.4608
 1019MOL0     H37501   3.239   2.484   7.119 -1.9338  0.1368  0.6265
 1019MOL0     H37502   3.137   2.432   7.343  0.2655  1.0454 -0.3996
 1019MOL0     H37503   3.244   2.306   7.303  0.3500 -0.4838 -0.3217
 1019MOL0     H37504   3.423   2.373   7.437 -1.7322 -1.4866 -0.9180
 1019MOL0     H37505   3.377   2.544   7.454  1.0617  0.5972 -0.4006
 1019MOL0     H37506   3.193   2.449   7.611  0.7070 -0.2890  1.3206
 1019MOL0     H37507   3.260   2.288   7.566 -1.5034  1.1063 -3.0284
 1019MOL0     H37508   3.432   2.517   7.667  2.8738 -2.2453 -2.6300
 1019MOL0     H37509   3.331   2.427   7.790  1.0800 -0.3316  0.6759
 1019MOL0     H37510   3.403   2.213   7.741 -1.1036  0.7378  0.0434
 1019MOL0     H37511   3.523   2.273   7.639  0.8611 -3.2187  0.7259
 1019MOL0     H37512   3.504   2.374   7.924  2.1418 -0.0680  0.8919
 1019MOL0     H37513   3.604   2.232   7.888 -1.7758 -0.6971  2.2087
 1019MOL0     H37514   3.702   2.482   7.907  0.4689  0.9567 -1.1277
 1019MOL0     H37515   3.653   2.488   7.738 -0.7017  0.4850  1.2922
 1019MOL0     H37516   3.724   2.265   7.573 -2.2624  1.9471  0.9479
 1019MOL0     H37517   4.079   2.182   7.498  1.3343  0.9807 -0.2083
 1019MOL0     H37518   3.911   2.185   7.433  3.3580 -2.2021 -3.0356
 1019MOL0     H37519   3.901   2.401   7.370 -1.0008 -0.7655  0.8665
 1019MOL0     H37520   4.024   2.304   7.296 -0.8460  2.1399 -1.3781
 1019MOL0     H37521   4.075   2.521   7.498 -0.5059 -0.4447  0.9718
 1019MOL0     H37522   4.129   2.529   7.332 -0.4841 -0.3544 -0.4128
 1019MOL0     H37523   4.250   2.312   7.516  1.5701  0.2797 -0.0193
 1019MOL0     H37524   4.314   2.475   7.497 -2.3884  1.5363  2.7713
 1019MOL0     H37525   4.334   2.106   7.350 -1.7399  2.5955  4.2778
 1019MOL0     H37526   4.561   1.884   7.285  1.2374  0.8645 -0.2793
 1019MOL0     H37527   4.568   1.873   7.458  3.4702  0.0084 -1.6443
 1019MOL0     H37528   4.411   1.900   7.379 -1.0159  1.1071 -2.9242
 1019MOL0     H37529   5.042   1.925   7.341  0.1077 -3.5722 -1.1016
 1019MOL0     H37530   5.248   1.862   7.457  0.5343  0.4539 -0.7330
 1019MOL0     H37531   5.272   1.599   7.652  0.4620  0.0828  0.1928
 1019MOL0     H37532   5.374   1.742   7.594  0.5648  0.8055  0.9257
 1019MOL0     H37533   5.375   1.621   7.868 -0.3581  0.2522 -0.5005
 1019MOL0     H37534   5.504   1.573   7.743  1.6600  1.6278  0.7620
 1019MOL0     H37535   5.489   1.825   7.891  2.6561  0.6329  1.3274
 1019MOL0     H37536   5.546   1.822   7.722 -3.0063  0.4832  0.3418
 1019MOL0     H37537   5.720   1.780   7.925 -0.1824  1.6835 -0.2727
 1019MOL0     H37538   5.659   1.617   7.911 -2.4184 -0.0434 -0.4312
 1019MOL0     H37539   5.731   1.772   7.647  0.0427  0.1286  0.2314
 1019MOL0     H37540   5.712   1.597   7.667  1.6829 -1.6754 -0.3266
 1019MOL0     H37541   5.959   1.688   7.662 -0.3942 -1.1812 -1.6930
 1019MOL0     H37542   5.905   1.744   7.817 -1.2985  0.0654 -1.9003
 1019MOL0     H37543   5.917   1.512   7.910  0.4777  1.5258  0.7207
 1019MOL0     H37544   6.057   1.550   7.809  0.3183  2.0302  0.2690
 1019MOL0     H37545   5.995   1.333   7.745 -0.6354 -0.5074  1.8007
 1019MOL0     H37546   5.930   1.428   7.617 -2.0528  0.1436 -0.9477
 1019MOL0     H37547   5.002   1.804   7.811 -4.6192 -1.1274 -0.9504
 1019MOL0     H37548   4.804   1.849   7.692  0.6032 -0.4473  0.9042
 1019MOL0     H37549   4.754   2.348   7.365 -1.2452  2.2015  1.2943
 1019MOL0     H37550   4.538   2.459   7.336 -0.4107  0.1415  0.7969
 1019MOL0     H37551   3.694   2.424   7.148  1.0631 -0.8819 -0.8937
 1019MOL0     H37552   3.823   2.479   6.966 -1.2280 -3.1580 -1.1382
 1019MOL0     H37553   3.816   2.677   6.502  0.7416 -1.5806 -0.9776
 1019MOL0     H37554   3.978   2.653   6.333 -0.0347 -1.7263 -0.3698
 1019MOL0     H37555   4.369   2.522   6.432  1.5473 -0.6047 -1.3813
 1019MOL0     H37556   4.368   2.536   6.251  0.7127 -1.5095  1.1737
 1019MOL0     H37557   4.431   2.749   6.464  0.9721  0.0473  0.4785
 1019MOL0     H37558   4.451   2.787   6.301  0.3215  2.0824  1.1942
 1019MOL0     H37559   4.644   2.643   6.262 -1.2002  1.4972 -0.5246
 1019MOL0     H37560   4.639   2.575   6.428  1.6312  0.6301  0.1695
 1019MOL0     H37561   4.665   2.813   6.517 -0.3602  1.4140  0.4812
 1019MOL0     H37562   4.690   2.864   6.350 -0.8371  0.3552  0.7411
 1019MOL0     H37563   5.048   2.637   6.451  0.7165  1.2728 -3.8208
 1019MOL0     H37564   4.304   2.650   6.602  0.1703  0.2456 -1.7523
 1019MOL0     H37565   4.137   2.663   6.789  0.4769  1.1935 -0.3707
 1020MOL0     O37566   0.567   8.474   2.795  0.1649  0.1397 -0.0500
 1020MOL0     C37567   0.591   8.458   2.675  1.3541  0.0375  1.0918
 1020MOL0     O37568   0.490   8.442   2.579  0.3355  0.3854 -0.6554
 1020MOL0     C37569   0.365   8.462   2.629  0.5637 -0.0188 -0.5604
 1020MOL0     C37570   0.282   8.363   2.686  0.5253  0.0273 -0.2175
 1020MOL0     C37571   0.154   8.395   2.730  0.4613 -0.0564  0.5530
 1020MOL0     C37572   0.089   8.511   2.695  0.8212  0.2845  0.0736
 1020MOL0     O37573  -0.035   8.546   2.744  0.8829  0.7552  0.0030
 1020MOL0     C37574  -0.134   8.559   2.640  0.2729 -0.2406  0.1726
 1020MOL0     C37575  -0.199   8.699   2.639 -0.9494 -0.0362  0.1874
 1020MOL0     C37576  -0.330   8.708   2.558 -0.7287 -0.6038  0.3940
 1020MOL0     C37577  -0.421   8.823   2.608 -0.2507 -0.5806  0.3064
 1020MOL0     C37578  -0.506   8.885   2.500 -0.2540 -0.6028 -0.1186
 1020MOL0     C37579  -0.630   8.804   2.459 -0.5405  0.3444  0.1009
 1020MOL0     C37580  -0.740   8.788   2.563 -0.6542  0.9193  0.5721
 1020MOL0     C37581  -0.835   8.668   2.529 -0.0160  0.2497  0.0197
 1020MOL0     N37582  -0.951   8.631   2.617 -0.2146  0.3258 -0.9304
 1020MOL0     C37583  -1.082   8.623   2.586  0.4881  0.9553  0.1113
 1020MOL0     C37584  -1.149   8.590   2.696  0.4202 -0.7913 -0.0099
 1020MOL0     C37585  -1.301   8.556   2.687  0.3068 -0.2093  0.8602
 1020MOL0     C37586  -1.362   8.524   2.829 -0.9866  0.0901 -0.8695
 1020MOL0     C37587  -1.331   8.380   2.892  0.1363  0.9858  0.2255
 1020MOL0     C37588  -1.426   8.310   3.000 -0.6049  0.0105 -0.4005
 1020MOL0     O37589  -1.551   8.290   2.945  0.4151 -0.4200  0.1002
 1020MOL0     C37590  -1.659   8.268   3.025  0.1626  0.3410  0.5120
 1020MOL0     C37591  -1.777   8.232   2.957  0.1906  0.4909 -0.0467
 1020MOL0     C37592  -1.896   8.192   3.029 -0.9529 -0.7031  0.7306
 1020MOL0     C37593  -2.018   8.164   2.940 -0.2771  0.1631 -0.0725
 1020MOL0     C37594  -1.881   8.187   3.166  0.9470  0.2442  0.2626
 1020MOL0     C37595  -1.990   8.131   3.252  0.2987 -0.6029  0.1230
 1020MOL0     O37596  -2.010   8.191   3.375  0.0133 -0.2879  0.3383
 1020MOL0     C37597  -2.116   8.163   3.445  0.2795 -0.6029  0.2499
 1020MOL0     C37598  -2.246   8.130   3.397  0.8571 -1.0022  0.7524
 1020MOL0     C37599  -2.356   8.126   3.484 -0.2149 -0.5218  0.3917
 1020MOL0     C37600  -2.348   8.165   3.616 -0.5567 -0.6363 -0.5416
 1020MOL0     O37601  -2.455   8.181   3.701  0.7746  1.2468  0.1598
 1020MOL0     C37602  -2.574   8.121   3.647  0.4107 -1.3842 -0.7536
 1020MOL0     C37603  -2.674   8.102   3.761 -0.4220  0.2717  0.0395
 1020MOL0     C37604  -2.805   8.033   3.707 -0.5308  0.2877 -0.5594
 1020MOL0     C37605  -2.894   8.007   3.830  0.3357  0.1499  0.3436
 1020MOL0     C37606  -3.049   8.019   3.778 -0.3636  0.4918 -0.3877
 1020MOL0     C37607  -3.146   7.984   3.896  1.3000  0.3988  0.3196
 1020MOL0     C37608  -3.300   8.005   3.862 -0.6827  0.1207 -0.1110
 1020MOL0     C37609  -3.385   7.922   3.962  0.2723  0.1156 -1.1753
 1020MOL0    Cl37610  -3.557   7.894   3.902  0.2079 -0.0448  0.0967
 1020MOL0     C37611  -2.218   8.196   3.667 -0.5741  0.0233  0.2413
 1020MOL0     C37612  -2.103   8.194   3.581 -1.0471 -0.7749 -0.7261
 1020MOL0     O37613  -2.048   8.028   3.210 -0.3031  0.2934 -0.0719
 1020MOL0     C37614  -1.766   8.228   3.232 -0.2187  0.6378 -0.1975
 1020MOL0     C37615  -1.654   8.267   3.159 -0.5856  0.7212 -0.2593
 1020MOL0     N37616  -1.057   8.565   2.791 -0.9095  0.2848  0.2505
 1020MOL0     N37617  -0.939   8.585   2.746 -0.3244 -0.9774  0.4549
 1020MOL0     C37618   0.165   8.601   2.625  0.6401 -0.3542  0.3540
 1020MOL0     C37619   0.298   8.573   2.586 -0.2686 -0.1130  0.2902
 1020MOL0     C37620   0.729   8.448   2.639 -0.9227 -0.5070  0.2657
 1020MOL0     C37621   0.780   8.398   2.513  0.3475  0.2864 -0.3858
 1020MOL0     C37622   0.913   8.422   2.464 -0.0619 -0.7523 -0.5048
 1020MOL0     C37623   1.006   8.485   2.552  0.1866 -0.1892 -0.3601
 1020MOL0     O37624   1.136   8.510   2.510  0.3148  0.1531  0.6290
 1020MOL0     C37625   1.219   8.392   2.490 -0.2826 -0.6710  0.4905
 1020MOL0     C37626   1.350   8.406   2.408  0.2922 -0.1234 -0.1070
 1020MOL0     C37627   1.319   8.437   2.257 -0.4275 -0.2963 -0.1744
 1020MOL0     C37628   1.429   8.497   2.170  0.2325  0.1578  0.6125
 1020MOL0     C37629   1.550   8.409   2.168 -0.0917 -0.9863 -0.7894
 1020MOL0     C37630   1.651   8.349   2.163 -0.1068 -0.2182  0.1280
 1020MOL0     C37631   0.963   8.535   2.675  0.1030 -0.8846 -0.5598
 1020MOL0     C37632   0.830   8.520   2.714  0.1497 -0.1343  0.5231
 1020MOL0     H37633   0.308   8.263   2.718  1.3605  0.5306  0.7668
 1020MOL0     H37634   0.100   8.321   2.789 -2.6024  1.2212 -0.4667
 1020MOL0     H37635  -0.088   8.538   2.543  0.5885 -3.0920  0.8509
 1020MOL0     H37636  -0.209   8.482   2.661 -1.5674  0.8345 -2.0083
 1020MOL0     H37637  -0.208   8.741   2.739  3.0068  3.1659 -0.5373
 1020MOL0     H37638  -0.137   8.772   2.586  0.6752 -2.5593 -1.6006
 1020MOL0     H37639  -0.309   8.732   2.453 -1.2504 -0.6379  0.2779
 1020MOL0     H37640  -0.376   8.609   2.563  2.0473 -2.1359 -1.3748
 1020MOL0     H37641  -0.485   8.787   2.688 -0.1173 -1.0849  0.1879
 1020MOL0     H37642  -0.354   8.898   2.653  1.7606 -0.7992 -2.0745
 1020MOL0     H37643  -0.543   8.984   2.528  0.6000 -0.5311  0.7858
 1020MOL0     H37644  -0.447   8.896   2.409  1.6417  2.5808  1.3039
 1020MOL0     H37645  -0.664   8.851   2.366  0.4128 -1.3551 -1.1775
 1020MOL0     H37646  -0.593   8.707   2.424  2.3619  1.7004 -0.8695
 1020MOL0     H37647  -0.687   8.767   2.656  3.1609 -0.1358 -1.6370
 1020MOL0     H37648  -0.788   8.885   2.578  0.0971  1.3412  0.2799
 1020MOL0     H37649  -0.767   8.583   2.538  2.2757  1.9880 -0.0858
 1020MOL0     H37650  -0.871   8.684   2.427 -0.4937 -0.7920  0.0162
 1020MOL0     H37651  -1.119   8.635   2.485 -4.8673 -1.6645  1.4337
 1020MOL0     H37652  -1.351   8.644   2.644  0.0145 -1.2440 -1.0552
 1020MOL0     H37653  -1.306   8.467   2.624 -0.6303  1.3385 -1.4251
 1020MOL0     H37654  -1.471   8.525   2.814 -0.9132  1.2388 -1.4311
 1020MOL0     H37655  -1.336   8.604   2.899 -2.1987  0.2814 -0.6190
 1020MOL0     H37656  -1.234   8.381   2.942  0.0028  2.4944  0.5061
 1020MOL0     H37657  -1.321   8.313   2.806 -1.1780  0.4747  0.4558
 1020MOL0     H37658  -1.430   8.369   3.091  0.7925 -0.8875  0.2656
 1020MOL0     H37659  -1.393   8.212   3.036  0.4931  0.4597 -0.1658
 1020MOL0     H37660  -1.767   8.222   2.849  1.9049  3.3153 -0.2318
 1020MOL0     H37661  -2.026   8.243   2.865 -1.7653 -0.0223 -0.1461
 1020MOL0     H37662  -2.001   8.076   2.877  1.8996  0.7564 -0.3680
 1020MOL0     H37663  -2.112   8.148   2.995  0.0153  0.6131  0.5663
 1020MOL0     H37664  -2.267   8.116   3.292  0.1502  2.2554  0.3526
 1020MOL0     H37665  -2.451   8.096   3.441  0.3813 -0.3839 -1.0828
 1020MOL0     H37666  -2.618   8.193   3.577  0.9922  2.3566  2.3726
 1020MOL0     H37667  -2.575   8.022   3.600 -0.7332 -2.0228  0.5488
 1020MOL0     H37668  -2.623   8.039   3.834  0.3105 -1.9633 -2.2703
 1020MOL0     H37669  -2.690   8.200   3.807 -1.6032 -0.0220  0.2730
 1020MOL0     H37670  -2.790   7.944   3.645  1.3845 -0.5660  0.9882
 1020MOL0     H37671  -2.859   8.098   3.638 -4.4942 -0.8462  1.1583
 1020MOL0     H37672  -2.870   7.912   3.877  0.5006  0.4659  0.9085
 1020MOL0     H37673  -2.870   8.080   3.909  1.0260 -0.1088  0.3788
 1020MOL0     H37674  -3.073   7.958   3.690 -1.9803  1.7115 -0.8298
 1020MOL0     H37675  -3.071   8.123   3.752 -0.3159  0.4493 -0.6019
 1020MOL0     H37676  -3.130   7.878   3.916 -0.4424 -0.0287 -0.4154
 1020MOL0     H37677  -3.115   8.046   3.981 -2.3495  0.8137  1.5099
 1020MOL0     H37678  -3.320   7.969   3.761  1.0921  1.4220 -0.9787
 1020MOL0     H37679  -3.320   8.112   3.876  1.5960  0.6378 -0.4288
 1020MOL0     H37680  -3.378   7.968   4.062  2.3072 -2.9264  0.2279
 1020MOL0     H37681  -3.355   7.817   3.968  2.2458  0.7174  2.0563
 1020MOL0     H37682  -2.201   8.222   3.771  4.0083  2.4647 -0.8654
 1020MOL0     H37683  -2.006   8.211   3.626 -1.4441 -0.5150  0.0374
 1020MOL0     H37684  -1.771   8.223   3.340 -4.1414  0.9150 -0.2528
 1020MOL0     H37685  -1.562   8.287   3.213 -1.1271  3.2555 -0.1421
 1020MOL0     H37686   0.126   8.702   2.616  2.0235  0.0771 -1.2129
 1020MOL0     H37687   0.354   8.652   2.536  0.5749  0.0031  1.3949
 1020MOL0     H37688   0.702   8.367   2.444 -0.4398  3.0822 -0.8877
 1020MOL0     H37689   0.943   8.382   2.368  1.0119 -2.5302  0.5186
 1020MOL0     H37690   1.247   8.359   2.591  0.9061 -2.7470 -0.4508
 1020MOL0     H37691   1.171   8.304   2.447  0.6706 -1.4916  1.0747
 1020MOL0     H37692   1.413   8.318   2.424  2.2631  1.0181 -1.2552
 1020MOL0     H37693   1.404   8.487   2.458  0.8328 -1.9321  2.3921
 1020MOL0     H37694   1.248   8.520   2.269 -3.3861 -2.5049 -1.0603
 1020MOL0     H37695   1.272   8.348   2.213 -2.4825  1.4752 -1.7871
 1020MOL0     H37696   1.458   8.597   2.203 -1.9232  1.0616 -0.0138
 1020MOL0     H37697   1.406   8.504   2.063  3.4851 -0.6281 -0.2378
 1020MOL0     H37698   1.750   8.309   2.169  0.0410  0.3575  3.2711
 1020MOL0     H37699   1.024   8.599   2.738 -2.8129  0.9341  0.6304
 1020MOL0     H37700   0.807   8.555   2.814  1.3681  0.7151  0.5334
 1021MOL0     O37701   3.071   8.113  10.029 -0.7315  0.3454  0.0878
 1021MOL0     C37702   3.141   8.015  10.055 -0.3414 -0.1854  0.5865
 1021MOL0     O37703   3.096   7.890  10.066  0.4376 -0.0044 -0.1279
 1021MOL0     C37704   2.973   7.852  10.018  0.1488  0.2338  0.5419
 1021MOL0     C37705   2.970   7.730   9.948 -0.2021  0.4096 -0.0930
 1021MOL0     C37706   2.847   7.677   9.909  0.6145  0.3162 -0.6318
 1021MOL0     C37707   2.724   7.746   9.941  0.3893  0.8181  0.2547
 1021MOL0     O37708   2.608   7.701   9.884 -0.4765 -0.0172 -0.9350
 1021MOL0     C37709   2.509   7.800   9.848 -0.1376 -0.3214  0.8737
 1021MOL0     C37710   2.391   7.741   9.764 -0.7424 -0.3595 -0.1979
 1021MOL0     C37711   2.246   7.756   9.821 -0.1515  0.6626 -0.0549
 1021MOL0     C37712   2.226   7.904   9.863  0.4149  0.2785 -0.1270
 1021MOL0     C37713   2.078   7.943   9.864  0.0253 -0.3110  0.2520
 1021MOL0     C37714   2.053   8.097   9.864 -0.6577 -0.3859  0.8792
 1021MOL0     C37715   1.922   8.139   9.925 -1.3090  0.5207 -1.4044
 1021MOL0     C37716   1.893   8.288   9.905  0.2393  0.9066 -0.3066
 1021MOL0     N37717   1.764   8.323   9.967 -0.5543 -0.3364 -0.0292
 1021MOL0     C37718   1.709   8.447   9.955  0.2063  0.8040 -0.5837
 1021MOL0     C37719   1.596   8.438  10.028 -1.3276 -0.3262 -0.4086
 1021MOL0     C37720   1.503   8.551  10.047  1.2985 -0.2357  0.4792
 1021MOL0     C37721   1.362   8.494  10.081 -0.2103 -0.1318 -0.3453
 1021MOL0     C37722   1.254   8.584  10.109 -0.0337  0.1881  0.3032
 1021MOL0     C37723   1.205   8.650   9.975  0.0556 -0.6044 -0.0011
 1021MOL0     O37724   1.133   8.578   9.888  0.1352 -0.2460  0.2950
 1021MOL0     C37725   1.031   8.641   9.813 -0.4151 -0.4232 -0.3708
 1021MOL0     C37726   1.062   8.694   9.687 -0.0231  0.4758  0.6319
 1021MOL0     C37727   0.968   8.749   9.607  0.7068 -0.7509 -0.0504
 1021MOL0     C37728   1.005   8.806   9.472  0.2603  0.3528  0.1397
 1021MOL0     C37729   0.835   8.757   9.657  0.0202  0.0584 -0.3025
 1021MOL0     C37730   0.718   8.810   9.568 -0.6855  0.4284  0.3005
 1021MOL0     O37731   0.741   8.868   9.445  0.5088  0.1217 -0.8235
 1021MOL0     C37732   0.635   8.918   9.367 -0.3784  0.8312  0.5939
 1021MOL0     C37733   0.659   8.931   9.232 -0.3622 -1.7520 -0.0284
 1021MOL0     C37734   0.561   8.982   9.138 -0.4767 -0.3397 -0.5373
 1021MOL0     C37735   0.434   9.011   9.187  0.8721 -0.4772 -0.2893
 1021MOL0     O37736   0.346   9.083   9.117  0.1105 -0.4755 -0.5738
 1021MOL0     C37737   0.365   9.068   8.975 -0.6486  0.4711  0.0199
 1021MOL0     C37738   0.243   9.115   8.898  0.2867 -0.4682  0.1925
 1021MOL0     C37739   0.272   9.135   8.747 -0.1815  0.2896 -0.3713
 1021MOL0     C37740   0.157   9.201   8.672  0.6892  0.3849 -0.3035
 1021MOL0     C37741   0.194   9.202   8.520 -0.5468 -0.1286 -0.6472
 1021MOL0     C37742   0.074   9.202   8.423 -0.5356 -0.1466 -0.1364
 1021MOL0     C37743   0.050   9.052   8.388 -0.0840 -0.1633  0.1487
 1021MOL0     C37744  -0.068   9.029   8.291  0.6052 -0.3903 -0.1439
 1021MOL0    Cl37745  -0.219   9.086   8.376  0.2599  0.9891  0.2189
 1021MOL0     C37746   0.410   8.997   9.322  0.4662 -0.4843  0.9762
 1021MOL0     C37747   0.507   8.949   9.407 -0.2720 -0.1806  0.2425
 1021MOL0     O37748   0.605   8.781   9.611 -1.0545  0.4954  0.0200
 1021MOL0     C37749   0.803   8.709   9.782  1.1191  0.5197  0.5615
 1021MOL0     C37750   0.903   8.643   9.856 -0.7830  0.1726  0.6382
 1021MOL0     N37751   1.583   8.307  10.071  1.0298  0.2568  0.4678
 1021MOL0     N37752   1.681   8.239  10.031  0.3678 -0.6296 -0.1844
 1021MOL0     C37753   2.731   7.852  10.026  0.4478 -0.5599  0.0111
 1021MOL0     C37754   2.851   7.910  10.062 -1.2076  0.1203  0.5571
 1021MOL0     C37755   3.288   8.030  10.072 -0.6869 -0.0864 -0.5207
 1021MOL0     C37756   3.369   8.130  10.019 -0.1443 -0.4200  0.2692
 1021MOL0     C37757   3.505   8.128  10.039 -0.3333 -0.6843 -0.4418
 1021MOL0     C37758   3.567   8.027  10.109  0.2882  0.3275  0.0831
 1021MOL0     O37759   3.705   8.032  10.130  0.0904  0.5037 -0.5454
 1021MOL0     C37760   3.782   7.915  10.176  1.2652  1.3725  1.0296
 1021MOL0     C37761   3.764   7.798  10.068  0.5429 -0.7819 -0.3137
 1021MOL0     C37762   3.877   7.695  10.067 -0.0362  0.5065 -0.3102
 1021MOL0     C37763   3.856   7.587  10.179 -0.0480  0.2366 -0.2106
 1021MOL0     C37764   3.891   7.640  10.317 -0.5407  1.4129 -0.1209
 1021MOL0     C37765   3.917   7.666  10.434  0.0212  0.5070  0.6838
 1021MOL0     C37766   3.486   7.933  10.178  0.1339  0.1311  1.1427
 1021MOL0     C37767   3.343   7.937  10.160 -0.4014  0.1744 -0.0554
 1021MOL0     H37768   3.061   7.677   9.923 -0.0256  0.7054 -0.0896
 1021MOL0     H37769   2.836   7.576   9.872 -2.7338  1.2660 -2.7681
 1021MOL0     H37770   2.472   7.851   9.938  0.4017  0.8665  0.4447
 1021MOL0     H37771   2.561   7.871   9.783  0.7090 -2.2689 -0.6897
 1021MOL0     H37772   2.390   7.772   9.659 -3.8309  0.1032 -0.1188
 1021MOL0     H37773   2.417   7.635   9.755 -1.6212 -0.4697 -1.6209
 1021MOL0     H37774   2.179   7.724   9.740 -2.6025  1.5279  1.4926
 1021MOL0     H37775   2.226   7.694   9.908 -1.6508  0.2308 -0.6664
 1021MOL0     H37776   2.262   7.930   9.962 -2.9336  3.1970  0.5213
 1021MOL0     H37777   2.263   7.961   9.777 -5.3829  2.1919 -1.8209
 1021MOL0     H37778   2.028   7.896   9.778  0.4173  0.9534 -0.6849
 1021MOL0     H37779   2.027   7.905   9.953 -2.2911  0.0979 -0.8114
 1021MOL0     H37780   2.141   8.138   9.914  2.7638 -1.2499 -3.6858
 1021MOL0     H37781   2.053   8.125   9.758 -2.2120  1.8153  1.3988
 1021MOL0     H37782   1.828   8.092   9.894 -1.5914 -0.3416  0.6177
 1021MOL0     H37783   1.940   8.104  10.027  3.3863  1.2734 -1.7716
 1021MOL0     H37784   1.898   8.307   9.797  0.5085 -3.7783 -1.2966
 1021MOL0     H37785   1.970   8.341   9.962  0.7640 -0.5392  0.3637
 1021MOL0     H37786   1.740   8.533   9.897  3.1404 -0.2481 -0.7253
 1021MOL0     H37787   1.538   8.612  10.131 -1.1746  0.0993  1.3235
 1021MOL0     H37788   1.512   8.613   9.958  1.6647  1.4330  1.6237
 1021MOL0     H37789   1.363   8.429  10.168  1.9843 -4.6716 -3.3860
 1021MOL0     H37790   1.328   8.431   9.999 -0.3374 -0.9155  0.3017
 1021MOL0     H37791   1.289   8.667  10.172 -0.1776  0.3960  0.1142
 1021MOL0     H37792   1.180   8.520  10.158  0.2159 -0.4486 -0.1563
 1021MOL0     H37793   1.287   8.698   9.920  2.6677 -2.6355  1.8877
 1021MOL0     H37794   1.138   8.730  10.007  1.6351  1.2513 -1.0825
 1021MOL0     H37795   1.164   8.694   9.649 -0.8542  0.4222 -1.7390
 1021MOL0     H37796   0.990   8.914   9.466 -2.3456  0.1524  1.6467
 1021MOL0     H37797   1.110   8.791   9.445  0.1711  2.1293 -1.3812
 1021MOL0     H37798   0.940   8.765   9.394 -0.1927 -2.8546  2.0144
 1021MOL0     H37799   0.759   8.907   9.197  0.4731  0.8552  0.3526
 1021MOL0     H37800   0.592   8.993   9.035  1.3974  0.2005  0.0420
 1021MOL0     H37801   0.447   9.129   8.939 -2.3180  3.0329  0.3277
 1021MOL0     H37802   0.392   8.967   8.943  0.0465  0.8345 -0.5581
 1021MOL0     H37803   0.167   9.038   8.912  0.8768 -0.9251  0.9546
 1021MOL0     H37804   0.205   9.210   8.936 -0.2968 -0.9909  0.9370
 1021MOL0     H37805   0.277   9.033   8.708  0.7220  0.7414 -1.4856
 1021MOL0     H37806   0.373   9.175   8.736 -0.4024  2.0142  2.6863
 1021MOL0     H37807   0.069   9.143   8.699  3.1188 -2.8151  1.4671
 1021MOL0     H37808   0.148   9.305   8.703 -0.6784  0.0396  0.5200
 1021MOL0     H37809   0.261   9.117   8.502  2.0041  1.8214 -1.0188
 1021MOL0     H37810   0.251   9.294   8.506 -0.5111 -0.0585 -0.0572
 1021MOL0     H37811  -0.011   9.246   8.477  0.4806 -0.9949  2.2813
 1021MOL0     H37812   0.105   9.247   8.328  1.0616 -0.2900  0.2952
 1021MOL0     H37813   0.021   8.992   8.475 -1.8559  0.1413 -0.1959
 1021MOL0     H37814   0.136   9.026   8.325 -0.9547 -0.4253 -0.9438
 1021MOL0     H37815  -0.090   8.924   8.269  0.3086 -0.1374 -1.0719
 1021MOL0     H37816  -0.070   9.082   8.196  0.5292 -1.5640 -0.8167
 1021MOL0     H37817   0.309   9.018   9.356  0.1439  2.4582 -1.3217
 1021MOL0     H37818   0.474   8.951   9.511 -1.1316  2.4766 -0.0137
 1021MOL0     H37819   0.708   8.714   9.834  0.0681 -4.1207 -0.4183
 1021MOL0     H37820   0.881   8.597   9.951 -0.3506 -1.7104 -0.1309
 1021MOL0     H37821   2.646   7.912  10.058  0.8603 -1.3368  2.7497
 1021MOL0     H37822   2.844   7.996  10.128 -1.5772 -0.0020  0.6805
 1021MOL0     H37823   3.329   8.209   9.957  0.3961 -0.3566 -0.0035
 1021MOL0     H37824   3.560   8.215  10.004 -2.6614  0.6006 -1.2085
 1021MOL0     H37825   3.889   7.933  10.193  1.6092  0.4694 -0.0186
 1021MOL0     H37826   3.747   7.875  10.272 -0.3210 -0.6879 -0.3247
 1021MOL0     H37827   3.756   7.852   9.974 -0.5350  2.0683  1.2829
 1021MOL0     H37828   3.671   7.739  10.073  1.0239 -1.8095 -2.3883
 1021MOL0     H37829   3.976   7.742  10.075 -0.6767  1.7654  0.5015
 1021MOL0     H37830   3.877   7.639   9.973 -0.7532 -0.6728  0.3628
 1021MOL0     H37831   3.908   7.493  10.157 -0.5074 -1.5899  5.0895
 1021MOL0     H37832   3.750   7.558  10.183  0.3918 -2.1138 -2.6480
 1021MOL0     H37833   3.929   7.687  10.538 -2.6318 -1.0454  1.3699
 1021MOL0     H37834   3.541   7.863  10.240  1.5312  1.3280  1.3096
 1021MOL0     H37835   3.284   7.853  10.197 -1.5089  1.2477  0.7200
 1022MOL0     O37836   3.395   4.240   9.792 -0.3455  0.0302 -0.6141
 1022MOL0     C37837   3.373   4.356   9.773 -0.1128 -0.0373 -0.3959
 1022MOL0     O37838   3.255   4.415   9.785 -0.0272  0.1965  0.3758
 1022MOL0     C37839   3.157   4.324   9.819 -0.3494 -0.9097 -0.2381
 1022MOL0     C37840   3.098   4.244   9.717 -0.4227  0.4382  0.8172
 1022MOL0     C37841   2.975   4.178   9.744  0.6562 -0.1125 -0.8285
 1022MOL0     C37842   2.921   4.181   9.877 -0.4056 -0.8668  0.0883
 1022MOL0     O37843   2.796   4.136   9.910 -0.0069  0.8479 -0.0027
 1022MOL0     C37844   2.796   4.021  10.008  0.2816  0.0593 -0.2406
 1022MOL0     C37845   2.678   4.027  10.107 -1.0407 -0.6952  0.5536
 1022MOL0     C37846   2.691   3.917  10.215 -0.6569 -0.3145  0.1857
 1022MOL0     C37847   2.563   3.908  10.304  0.1071  0.7479  1.1601
 1022MOL0     C37848   2.564   3.773  10.373 -0.1629  0.5746 -0.1225
 1022MOL0     C37849   2.455   3.751  10.484  0.3477 -0.1720 -0.1370
 1022MOL0     C37850   2.478   3.628  10.582  0.1614 -0.0794  0.4082
 1022MOL0     C37851   2.480   3.492  10.511 -0.0904 -0.0412 -0.2450
 1022MOL0     N37852   2.361   3.458  10.433 -0.3218 -0.0344  0.0607
 1022MOL0     C37853   2.229   3.470  10.480 -0.4426  0.6298  0.3578
 1022MOL0     C37854   2.151   3.459  10.371  0.0008 -0.3688 -0.5609
 1022MOL0     C37855   2.000   3.484  10.379  0.1128 -0.3192  0.9720
 1022MOL0     C37856   1.933   3.477  10.526  0.1925  0.3790 -0.4080
 1022MOL0     C37857   1.934   3.342  10.603 -0.6325 -0.0759 -0.0187
 1022MOL0     C37858   1.871   3.233  10.521 -0.1417 -0.4459 -0.0443
 1022MOL0     O37859   1.728   3.277  10.496 -0.2643  0.5012  0.8496
 1022MOL0     C37860   1.640   3.187  10.461 -0.3079  0.1482  0.5101
 1022MOL0     C37861   1.517   3.245  10.444 -0.1334  1.0617 -0.5042
 1022MOL0     C37862   1.403   3.169  10.405 -0.0319  0.5886 -0.2961
 1022MOL0     C37863   1.273   3.238  10.410  0.1263 -1.0917  0.3023
 1022MOL0     C37864   1.416   3.025  10.377  0.2323 -0.2838 -0.0370
 1022MOL0     C37865   1.306   2.933  10.335  0.1348 -0.4773  0.2842
 1022MOL0     O37866   1.223   2.993  10.241  0.7610  0.1915 -0.0755
 1022MOL0     C37867   1.122   2.914  10.197  0.5789 -0.1683  0.5002
 1022MOL0     C37868   1.141   2.830  10.081  1.1672 -0.7019 -0.8117
 1022MOL0     C37869   1.037   2.762  10.008 -0.0494  0.4629  0.0076
 1022MOL0     C37870   0.906   2.776  10.059  0.2019  0.2155 -0.3900
 1022MOL0     O37871   0.795   2.732   9.992 -0.0499  0.1545 -0.5041
 1022MOL0     C37872   0.808   2.691   9.860  0.0682 -0.3812  0.1241
 1022MOL0     C37873   0.670   2.631   9.820 -0.4864 -0.1322 -0.1805
 1022MOL0     C37874   0.621   2.525   9.923  0.0785  1.1361  1.0282
 1022MOL0     C37875   0.538   2.412   9.860  0.1647 -0.5735 -0.4861
 1022MOL0     C37876   0.423   2.363   9.948 -0.8927 -0.1408  0.2413
 1022MOL0     C37877   0.340   2.263   9.872 -0.0213 -0.0983 -0.4194
 1022MOL0     C37878   0.192   2.277   9.922 -0.0166  0.0422 -0.3591
 1022MOL0     C37879   0.094   2.202   9.833  0.2283  0.4287  0.2719
 1022MOL0    Cl37880   0.130   2.193   9.651  0.0865  0.3197  0.3875
 1022MOL0     C37881   0.888   2.850  10.172 -0.8255 -0.6528 -2.1654
 1022MOL0     C37882   0.990   2.924  10.239  0.2139  0.6379 -0.1496
 1022MOL0     O37883   1.297   2.824  10.382  0.0232  0.6369  0.2731
 1022MOL0     C37884   1.548   2.970  10.398 -0.3385 -0.3292  0.7340
 1022MOL0     C37885   1.657   3.048  10.436 -0.1642 -0.3290 -0.4894
 1022MOL0     N37886   2.225   3.438  10.261  0.5788  1.1015 -0.6029
 1022MOL0     N37887   2.352   3.446  10.301 -0.5624  0.5600  0.7275
 1022MOL0     C37888   2.989   4.250   9.975 -0.4899 -0.1038  0.8510
 1022MOL0     C37889   3.105   4.319   9.947 -0.5887  0.0697  0.5835
 1022MOL0     C37890   3.494   4.431   9.738  0.5772 -0.0670 -0.3179
 1022MOL0     C37891   3.471   4.564   9.697 -0.8876  0.3245 -0.7329
 1022MOL0     C37892   3.581   4.642   9.654  0.6350 -0.2771  0.5872
 1022MOL0     C37893   3.707   4.588   9.643 -0.0664  0.4446  0.4284
 1022MOL0     O37894   3.797   4.680   9.595 -0.2679  0.2076  0.8805
 1022MOL0     C37895   3.933   4.631   9.586 -0.4158 -0.2588  0.8519
 1022MOL0     C37896   3.996   4.735   9.487  0.5028 -0.1580 -0.1142
 1022MOL0     C37897   4.138   4.701   9.459  0.7518  0.2495 -0.3933
 1022MOL0     C37898   4.167   4.554   9.399 -0.0350  0.5834 -0.1440
 1022MOL0     C37899   4.259   4.564   9.273  0.8076  0.5900  0.0305
 1022MOL0     C37900   4.329   4.568   9.172  0.0873  1.1218 -1.0347
 1022MOL0     C37901   3.729   4.459   9.686 -0.1283 -0.8086  0.1498
 1022MOL0     C37902   3.625   4.381   9.745  0.4882  0.0473  0.8406
 1022MOL0     H37903   3.140   4.245   9.616 -0.5521 -0.9856  0.7227
 1022MOL0     H37904   2.917   4.117   9.675  0.1230 -0.6030  0.0313
 1022MOL0     H37905   2.810   3.927   9.955  0.8370 -0.0621  0.1172
 1022MOL0     H37906   2.879   4.026  10.078  1.7090 -3.2303 -1.5125
 1022MOL0     H37907   2.678   4.126  10.154 -0.5677 -0.1136 -0.6358
 1022MOL0     H37908   2.585   4.014  10.052 -0.6087 -1.0505 -0.1088
 1022MOL0     H37909   2.705   3.824  10.161  3.4210  1.4089 -2.2090
 1022MOL0     H37910   2.787   3.935  10.265 -0.9953  2.5665 -0.0465
 1022MOL0     H37911   2.549   3.991  10.374  1.5287  2.1530 -0.1246
 1022MOL0     H37912   2.482   3.913  10.231 -0.1948 -2.2855  1.1487
 1022MOL0     H37913   2.539   3.709  10.287 -0.9122  2.4793 -1.3918
 1022MOL0     H37914   2.659   3.746  10.419  0.1623 -1.9837 -2.0872
 1022MOL0     H37915   2.441   3.842  10.543  1.2698 -0.7920  1.0921
 1022MOL0     H37916   2.356   3.743  10.438 -0.1152  3.9001 -0.2617
 1022MOL0     H37917   2.573   3.632  10.636  0.1796  3.0519  0.3359
 1022MOL0     H37918   2.403   3.627  10.662  1.6551 -2.5934  1.9032
 1022MOL0     H37919   2.486   3.410  10.584 -2.4615 -1.6796 -1.7539
 1022MOL0     H37920   2.568   3.498  10.446 -1.6898 -1.0195 -2.6395
 1022MOL0     H37921   2.194   3.487  10.582 -2.0537 -0.1564 -0.0237
 1022MOL0     H37922   1.984   3.576  10.323  3.0870  1.0130  2.0970
 1022MOL0     H37923   1.942   3.400  10.339 -1.2602  0.0736  2.0715
 1022MOL0     H37924   1.833   3.521  10.521  0.5684  1.5531  1.5034
 1022MOL0     H37925   1.989   3.547  10.589  0.3950  0.8438 -1.0880
 1022MOL0     H37926   1.869   3.365  10.689 -2.0801  1.9005 -1.5411
 1022MOL0     H37927   2.033   3.309  10.637 -1.2621 -1.6551  0.3451
 1022MOL0     H37928   1.882   3.144  10.583  0.5334 -0.0257  0.4548
 1022MOL0     H37929   1.927   3.210  10.430  1.5644  1.5673  0.4183
 1022MOL0     H37930   1.508   3.353  10.445 -1.6606  0.9863 -1.7163
 1022MOL0     H37931   1.200   3.194  10.342  0.5676 -1.7255  0.2284
 1022MOL0     H37932   1.232   3.235  10.511  0.5377 -1.3010  0.4643
 1022MOL0     H37933   1.281   3.346  10.396 -0.9958 -1.1402 -0.8834
 1022MOL0     H37934   1.237   2.827  10.030  1.4370  1.0150 -0.4516
 1022MOL0     H37935   1.064   2.720   9.912  2.4544  4.5576 -1.2998
 1022MOL0     H37936   0.834   2.774   9.793 -2.2984  1.0733  0.9125
 1022MOL0     H37937   0.877   2.606   9.861 -2.8043 -3.0665 -3.4066
 1022MOL0     H37938   0.596   2.711   9.815 -1.0248 -0.5437  0.9434
 1022MOL0     H37939   0.678   2.580   9.723 -0.2178 -1.3451  0.4512
 1022MOL0     H37940   0.552   2.580   9.987  0.6121  1.8165  1.0275
 1022MOL0     H37941   0.701   2.480   9.983  1.6480 -0.6172 -2.0719
 1022MOL0     H37942   0.503   2.453   9.765  0.7948 -0.7245 -0.7841
 1022MOL0     H37943   0.609   2.334   9.832  1.0264  0.9515 -2.9495
 1022MOL0     H37944   0.366   2.451   9.979 -0.6878 -0.7771  2.6279
 1022MOL0     H37945   0.469   2.315  10.035 -0.5561 -1.5913 -0.6961
 1022MOL0     H37946   0.352   2.277   9.764 -0.3046  2.5012 -0.1756
 1022MOL0     H37947   0.372   2.160   9.895 -2.2472 -0.5252  1.1158
 1022MOL0     H37948   0.151   2.377   9.906 -1.3525 -0.5542 -0.8432
 1022MOL0     H37949   0.184   2.232  10.021  1.2669 -2.3821 -1.2734
 1022MOL0     H37950   0.003   2.261   9.837 -1.2246 -1.3146 -3.0423
 1022MOL0     H37951   0.082   2.102   9.876 -1.7936  1.5643  2.5514
 1022MOL0     H37952   0.784   2.863  10.203 -0.6390  1.5897 -2.3211
 1022MOL0     H37953   0.953   2.989  10.318 -1.1101 -2.0278  1.5940
 1022MOL0     H37954   1.564   2.863  10.388  0.3445 -0.2148  0.5651
 1022MOL0     H37955   1.756   3.004  10.430 -0.8551 -1.9803 -0.4782
 1022MOL0     H37956   2.943   4.245  10.074  0.4551  0.1552  1.3177
 1022MOL0     H37957   3.140   4.386  10.025 -0.5262 -0.3543  0.9235
 1022MOL0     H37958   3.373   4.608   9.712 -0.7092 -0.0090  1.7036
 1022MOL0     H37959   3.561   4.745   9.624 -2.3031 -0.3926  1.7950
 1022MOL0     H37960   3.983   4.624   9.683  1.4756 -0.3263 -0.1000
 1022MOL0     H37961   3.946   4.532   9.543  3.6997 -0.8850  3.0042
 1022MOL0     H37962   3.987   4.832   9.536 -0.3510 -0.3715  0.1558
 1022MOL0     H37963   3.936   4.744   9.396  2.1515  1.8581 -1.0786
 1022MOL0     H37964   4.207   4.729   9.539 -0.5204  2.9502 -0.1362
 1022MOL0     H37965   4.168   4.776   9.386 -0.0034 -2.0833 -3.3127
 1022MOL0     H37966   4.069   4.515   9.371 -0.1616  2.2440 -2.2553
 1022MOL0     H37967   4.209   4.490   9.477  0.1736  1.0628  0.1396
 1022MOL0     H37968   4.399   4.555   9.092 -1.3291  2.3498 -2.5561
 1022MOL0     H37969   3.829   4.418   9.694 -0.6764 -2.8329 -2.2284
 1022MOL0     H37970   3.654   4.290   9.797 -1.9002 -0.4779  1.3644
 1023MOL0     O37971   2.474   6.021   5.820 -0.1594  0.1425  0.4086
 1023MOL0     C37972   2.581   6.042   5.766  0.0601 -0.5388 -0.7627
 1023MOL0     O37973   2.607   6.157   5.698 -0.1802 -0.3194  0.3041
 1023MOL0     C37974   2.510   6.243   5.669 -0.5096  0.0304  0.0473
 1023MOL0     C37975   2.407   6.203   5.595 -0.5023  0.8125 -0.3063
 1023MOL0     C37976   2.304   6.295   5.552  0.3987 -0.1321 -0.4250
 1023MOL0     C37977   2.312   6.431   5.592 -0.3030 -0.5922  0.2000
 1023MOL0     O37978   2.208   6.527   5.578  0.3822  0.3156  0.7151
 1023MOL0     C37979   2.102   6.491   5.493 -0.7515  0.1167 -0.6331
 1023MOL0     C37980   2.012   6.613   5.479  0.7566  0.4005  0.8408
 1023MOL0     C37981   1.885   6.583   5.410 -0.1734  0.5621  1.1891
 1023MOL0     C37982   1.771   6.682   5.442  0.1722  0.0453  0.5029
 1023MOL0     C37983   1.787   6.805   5.346  0.7677  0.8061 -0.3528
 1023MOL0     C37984   1.683   6.911   5.391 -0.2370  1.5144 -0.1490
 1023MOL0     C37985   1.567   6.926   5.293 -1.0490  0.4669  0.1246
 1023MOL0     C37986   1.483   7.049   5.335  0.0169 -0.1259 -0.2459
 1023MOL0     N37987   1.345   7.031   5.273  0.0422 -0.4889  0.1323
 1023MOL0     C37988   1.235   6.968   5.322  0.3597  0.2806 -0.7596
 1023MOL0     C37989   1.141   6.982   5.221 -0.2311 -0.8932 -0.4071
 1023MOL0     C37990   1.003   6.944   5.249  0.3528  0.7548  0.1986
 1023MOL0     C37991   0.984   6.816   5.168 -0.8361  0.0156 -0.0531
 1023MOL0     C37992   0.837   6.767   5.188 -0.0188 -0.0854 -0.5265
 1023MOL0     C37993   0.740   6.866   5.133 -0.1896 -0.2332 -0.7830
 1023MOL0     O37994   0.613   6.795   5.128 -0.1257  0.0562 -0.2176
 1023MOL0     C37995   0.509   6.845   5.053  1.0288  0.7785  0.0303
 1023MOL0     C37996   0.385   6.765   5.060 -0.1157  0.1182  0.2722
 1023MOL0     C37997   0.276   6.802   4.983 -0.1576  0.6508 -0.5275
 1023MOL0     C37998   0.149   6.720   5.010  0.1528  0.5546 -0.3630
 1023MOL0     C37999   0.273   6.913   4.904  0.1308 -0.0642 -0.6393
 1023MOL0     C38000   0.166   6.963   4.809 -0.6953  0.6062  0.6601
 1023MOL0     O38001   0.136   7.092   4.803 -0.6253  0.8388 -0.1050
 1023MOL0     C38002   0.042   7.129   4.712  0.3198  0.2251  0.1069
 1023MOL0     C38003   0.043   7.150   4.576 -0.1191  0.1401  0.0637
 1023MOL0     C38004  -0.065   7.194   4.495  0.1994  0.2510 -0.5933
 1023MOL0     C38005  -0.192   7.192   4.559 -0.5809 -0.2602  0.6341
 1023MOL0     O38006  -0.314   7.201   4.492  0.6385 -0.7446 -0.4303
 1023MOL0     C38007  -0.318   7.203   4.347 -1.1847  0.1421  0.3127
 1023MOL0     C38008  -0.466   7.222   4.316 -0.4186 -0.9064 -0.0244
 1023MOL0     C38009  -0.476   7.269   4.163  0.6898  0.1709  0.4976
 1023MOL0     C38010  -0.624   7.261   4.129 -0.1549  0.0201 -0.6454
 1023MOL0     C38011  -0.637   7.286   3.974  0.0170  0.5518  0.4225
 1023MOL0     C38012  -0.769   7.262   3.925  0.0145  0.5199 -0.0448
 1023MOL0     C38013  -0.869   7.348   4.000 -0.1796  0.2785  0.4627
 1023MOL0     C38014  -1.000   7.343   3.920  0.0466  0.4379  0.2079
 1023MOL0    Cl38015  -1.018   7.486   3.813 -0.1815 -0.4079  0.1734
 1023MOL0     C38016  -0.202   7.154   4.696  0.2222  0.5754  0.8618
 1023MOL0     C38017  -0.089   7.122   4.768  0.6613  0.1781  0.1293
 1023MOL0     O38018   0.108   6.873   4.753  0.2314 -0.6722  0.5615
 1023MOL0     C38019   0.394   6.985   4.901  0.1928 -0.2417  0.1493
 1023MOL0     C38020   0.511   6.954   4.968  0.2216  0.4982  0.1160
 1023MOL0     N38021   1.207   7.033   5.104 -0.2469 -0.0181 -0.5616
 1023MOL0     N38022   1.331   7.065   5.140  0.7891 -0.1006 -0.5887
 1023MOL0     C38023   2.428   6.476   5.656  0.0430 -0.5450 -0.4404
 1023MOL0     C38024   2.525   6.383   5.697 -0.3775 -0.7959  0.4989
 1023MOL0     C38025   2.692   5.948   5.790  0.0945 -0.3149  0.0373
 1023MOL0     C38026   2.675   5.814   5.845  0.0373 -0.3367  1.1786
 1023MOL0     C38027   2.779   5.734   5.861 -0.3444  0.6029  0.5499
 1023MOL0     C38028   2.908   5.776   5.845  0.8139 -0.4509 -0.2277
 1023MOL0     O38029   3.017   5.704   5.884 -0.2553  0.5850 -0.2151
 1023MOL0     C38030   3.008   5.568   5.925 -0.6682  0.3075 -0.6199
 1023MOL0     C38031   3.111   5.562   6.044 -0.6187 -0.6626  0.4971
 1023MOL0     C38032   3.065   5.644   6.167 -0.1709 -0.1800 -0.6994
 1023MOL0     C38033   3.175   5.641   6.273  0.4582 -0.6280 -0.2961
 1023MOL0     C38034   3.143   5.721   6.392 -0.0844 -0.4971 -0.3617
 1023MOL0     C38035   3.114   5.789   6.491 -0.2957  0.1098  0.6008
 1023MOL0     C38036   2.931   5.907   5.809 -0.5454  0.2384  0.7094
 1023MOL0     C38037   2.831   5.990   5.773 -0.3371  0.3827  0.0189
 1023MOL0     H38038   2.402   6.102   5.555  3.6190  0.2017  0.2483
 1023MOL0     H38039   2.214   6.258   5.505 -0.8635  1.2913  0.7448
 1023MOL0     H38040   2.137   6.435   5.406  1.3804  0.3035  0.0430
 1023MOL0     H38041   2.044   6.413   5.542  1.6269 -1.3041  0.0839
 1023MOL0     H38042   1.990   6.661   5.575  1.2961 -2.4180  2.4863
 1023MOL0     H38043   2.069   6.687   5.422  2.5217 -0.9659  0.7340
 1023MOL0     H38044   1.901   6.567   5.303  2.0015  1.4817  1.3365
 1023MOL0     H38045   1.851   6.490   5.457 -0.1895  0.5380  1.1297
 1023MOL0     H38046   1.679   6.629   5.418  2.0137 -2.4562 -1.6334
 1023MOL0     H38047   1.767   6.705   5.549 -1.6510 -1.7120  0.8672
 1023MOL0     H38048   1.889   6.843   5.360  1.4943 -2.0690  4.3488
 1023MOL0     H38049   1.771   6.784   5.239 -1.3324  3.3228 -0.6560
 1023MOL0     H38050   1.658   6.881   5.493 -2.5221 -0.1848 -1.1307
 1023MOL0     H38051   1.735   7.008   5.389  2.3329  0.2912  1.2693
 1023MOL0     H38052   1.603   6.941   5.191  2.1103 -1.1967  0.8670
 1023MOL0     H38053   1.510   6.833   5.299  0.4646 -0.4810  0.4488
 1023MOL0     H38054   1.537   7.133   5.292 -0.2427 -1.0434 -2.4735
 1023MOL0     H38055   1.470   7.063   5.443 -1.1452  2.3248 -0.6365
 1023MOL0     H38056   1.224   6.928   5.422  0.1293 -1.1386 -1.3153
 1023MOL0     H38057   0.997   6.910   5.353  1.7909 -0.8928 -0.2061
 1023MOL0     H38058   0.930   7.024   5.235 -3.6375 -2.2936  1.5564
 1023MOL0     H38059   1.047   6.735   5.207 -2.4124 -1.4587 -0.3979
 1023MOL0     H38060   1.016   6.832   5.065 -3.1939  0.8420 -0.7189
 1023MOL0     H38061   0.827   6.764   5.297 -3.5933  1.2092 -0.6952
 1023MOL0     H38062   0.821   6.669   5.142  0.9750  0.1758 -1.4858
 1023MOL0     H38063   0.771   6.891   5.031  1.6261 -3.8188 -1.2687
 1023MOL0     H38064   0.731   6.962   5.185  0.2487  0.4574 -1.9297
 1023MOL0     H38065   0.403   6.667   5.103  2.2515 -0.0147 -0.8454
 1023MOL0     H38066   0.171   6.656   5.096  2.3062  0.7045 -0.7375
 1023MOL0     H38067   0.061   6.785   5.020 -0.0525  0.3441 -0.7810
 1023MOL0     H38068   0.121   6.643   4.937 -1.0890  1.0683 -0.4553
 1023MOL0     H38069   0.140   7.145   4.528  0.1036 -2.6643  0.5978
 1023MOL0     H38070  -0.054   7.233   4.394 -0.1119 -0.1620 -0.7903
 1023MOL0     H38071  -0.256   7.284   4.307 -0.1472 -0.9689 -0.3674
 1023MOL0     H38072  -0.279   7.108   4.310  2.2680  0.8298  1.8401
 1023MOL0     H38073  -0.523   7.130   4.333  1.3642 -1.7767  1.6734
 1023MOL0     H38074  -0.504   7.307   4.372  1.7536 -0.0322  0.2124
 1023MOL0     H38075  -0.420   7.202   4.097 -0.4469  1.3365 -1.7774
 1023MOL0     H38076  -0.451   7.375   4.149 -0.1243  0.2509 -0.4748
 1023MOL0     H38077  -0.649   7.157   4.147  1.3963 -0.3236 -0.3434
 1023MOL0     H38078  -0.666   7.329   4.204  1.2485  0.9417 -0.6491
 1023MOL0     H38079  -0.577   7.214   3.918 -3.1293 -2.0278  0.0840
 1023MOL0     H38080  -0.604   7.389   3.959  0.7497  0.7821  3.1240
 1023MOL0     H38081  -0.763   7.280   3.817  1.3205  3.2596  0.3853
 1023MOL0     H38082  -0.793   7.158   3.948  1.0054  0.0746 -0.9150
 1023MOL0     H38083  -0.837   7.449   4.026  0.9723  0.7182 -2.3690
 1023MOL0     H38084  -0.887   7.297   4.095  0.2317 -1.6838 -0.4578
 1023MOL0     H38085  -1.086   7.349   3.989 -0.5464  3.6511 -0.6499
 1023MOL0     H38086  -1.004   7.246   3.869  1.9912  0.8416 -0.8086
 1023MOL0     H38087  -0.290   7.163   4.758  0.0713 -0.8154  0.8669
 1023MOL0     H38088  -0.103   7.110   4.875  4.5435 -3.0229  0.5242
 1023MOL0     H38089   0.404   7.074   4.840 -1.0335  0.2614  0.6610
 1023MOL0     H38090   0.597   7.021   4.960  1.3502 -1.0271 -1.0457
 1023MOL0     H38091   2.439   6.583   5.676 -1.5418 -0.5884  0.8877
 1023MOL0     H38092   2.618   6.411   5.744  0.4594 -2.7478  0.1010
 1023MOL0     H38093   2.573   5.778   5.849  0.2721 -1.0703  0.7107
 1023MOL0     H38094   2.743   5.634   5.884  0.2766 -0.3833 -2.3505
 1023MOL0     H38095   2.913   5.538   5.971 -0.1467  1.9099  1.6895
 1023MOL0     H38096   3.043   5.501   5.846 -0.0604  0.4200 -0.4487
 1023MOL0     H38097   3.201   5.606   5.999 -0.1026 -0.6041  1.5643
 1023MOL0     H38098   3.144   5.462   6.075  2.9589  0.6158  1.3470
 1023MOL0     H38099   2.976   5.599   6.212  0.4198  0.8487  1.6128
 1023MOL0     H38100   3.058   5.750   6.139 -0.2085  0.3669  1.2588
 1023MOL0     H38101   3.269   5.687   6.241  0.7586  0.4971  1.9946
 1023MOL0     H38102   3.192   5.537   6.300  1.3708 -0.2029  0.8211
 1023MOL0     H38103   3.081   5.834   6.581  0.1316  2.9061 -0.5508
 1023MOL0     H38104   3.031   5.948   5.816 -0.9141  1.3431 -0.3117
 1023MOL0     H38105   2.857   6.084   5.726 -0.6116 -0.2571 -1.4394
 1024MOL0     O38106  10.561   5.812   1.889  0.1366  0.9877  0.7184
 1024MOL0     C38107  10.576   5.688   1.863 -0.3540 -0.7280  0.5327
 1024MOL0     O38108  10.483   5.617   1.803 -0.2205  0.8975 -0.0123
 1024MOL0     C38109  10.356   5.664   1.762  0.3543 -0.2146  0.0843
 1024MOL0     C38110  10.241   5.586   1.790 -0.4406  0.0701  0.4331
 1024MOL0     C38111  10.117   5.642   1.759 -0.6123  0.2536  0.3504
 1024MOL0     C38112  10.100   5.753   1.683 -0.4140  0.3057 -0.6591
 1024MOL0     O38113   9.970   5.800   1.663 -0.0383 -0.3862  0.0362
 1024MOL0     C38114   9.970   5.908   1.567 -0.2754 -0.0663 -0.2377
 1024MOL0     C38115   9.818   5.927   1.544 -0.5806  0.4449  0.8585
 1024MOL0     C38116   9.747   5.995   1.660 -0.6050 -0.1112 -0.0086
 1024MOL0     C38117   9.611   6.066   1.617 -0.2417 -0.3479  0.1525
 1024MOL0     C38118   9.505   5.954   1.610  0.3313 -0.1983 -0.0728
 1024MOL0     C38119   9.373   6.010   1.555 -0.7959 -0.4017  1.0905
 1024MOL0     C38120   9.260   5.917   1.605  0.2558  0.2653  0.1203
 1024MOL0     C38121   9.270   5.772   1.557  1.0256 -0.9995 -0.3406
 1024MOL0     N38122   9.273   5.766   1.413  0.6439 -0.4822  0.6528
 1024MOL0     C38123   9.198   5.838   1.333  0.5327  0.4522  0.1181
 1024MOL0     C38124   9.219   5.787   1.207 -0.1364 -0.6319  0.4051
 1024MOL0     C38125   9.163   5.816   1.067 -0.0209  0.4803  0.2070
 1024MOL0     C38126   9.047   5.727   1.034 -0.2136  0.5103 -0.9240
 1024MOL0     C38127   8.962   5.787   0.920 -0.1436  0.0618 -0.5095
 1024MOL0     C38128   8.825   5.722   0.920 -0.2316 -0.4869  0.9211
 1024MOL0     O38129   8.849   5.582   0.879  0.1203  0.1032 -0.0708
 1024MOL0     C38130   8.745   5.491   0.884 -0.2162  0.4428 -0.4647
 1024MOL0     C38131   8.774   5.356   0.872 -0.5899  0.0621 -0.1744
 1024MOL0     C38132   8.671   5.261   0.872  1.1114  0.4504 -0.0468
 1024MOL0     C38133   8.715   5.117   0.877  0.4912 -0.1875 -0.0567
 1024MOL0     C38134   8.533   5.294   0.866 -0.0782 -0.9217 -0.8714
 1024MOL0     C38135   8.417   5.201   0.847  1.0833  0.6097 -0.4263
 1024MOL0     O38136   8.298   5.259   0.869  0.7775 -0.0339  0.1692
 1024MOL0     C38137   8.176   5.200   0.871 -0.8524  0.0923 -1.0607
 1024MOL0     C38138   8.074   5.295   0.905 -0.3734  0.4121  0.6931
 1024MOL0     C38139   7.943   5.251   0.913 -0.9096 -0.6527  0.5212
 1024MOL0     C38140   7.910   5.115   0.892 -0.4766  0.0015  0.8159
 1024MOL0     O38141   7.780   5.081   0.912 -0.5101  0.4160  0.8229
 1024MOL0     C38142   7.731   4.981   0.827 -0.7113  0.0248 -0.6702
 1024MOL0     C38143   7.622   4.888   0.896  0.4781 -0.1593 -0.4772
 1024MOL0     C38144   7.676   4.789   1.005  0.6002 -0.1552 -0.2994
 1024MOL0     C38145   7.577   4.736   1.112  0.2288 -0.6437 -0.3296
 1024MOL0     C38146   7.651   4.686   1.232  0.7931  0.0516 -0.3323
 1024MOL0     C38147   7.554   4.644   1.341 -0.7610  0.0683  0.1785
 1024MOL0     C38148   7.635   4.557   1.433  0.1475  0.4716 -0.3409
 1024MOL0     C38149   7.548   4.450   1.501 -0.5053 -0.7364  0.1518
 1024MOL0    Cl38150   7.521   4.309   1.394 -0.1347 -0.1881 -0.2382
 1024MOL0     C38151   8.019   5.017   0.876  0.1664 -0.6650  0.0106
 1024MOL0     C38152   8.148   5.066   0.867  0.1734  0.3964 -0.3392
 1024MOL0     O38153   8.437   5.082   0.823 -0.9101 -0.0865  0.5007
 1024MOL0     C38154   8.514   5.433   0.870  0.6972 -0.3225 -0.1520
 1024MOL0     C38155   8.616   5.529   0.878 -0.3239  1.1071 -0.4376
 1024MOL0     N38156   9.324   5.697   1.219 -0.1607 -0.4127 -0.0860
 1024MOL0     N38157   9.360   5.682   1.348  0.1283 -0.1818  0.0423
 1024MOL0     C38158  10.218   5.817   1.641  0.8162 -0.2592  0.1684
 1024MOL0     C38159  10.342   5.775   1.688  1.0768 -0.5432  0.0394
 1024MOL0     C38160  10.697   5.626   1.914 -0.3676 -0.1843 -0.3472
 1024MOL0     C38161  10.804   5.699   1.966 -0.0165  0.2866  0.4718
 1024MOL0     C38162  10.918   5.645   2.018  0.0946  0.9117 -0.6047
 1024MOL0     C38163  10.916   5.504   2.029 -1.1222 -0.8201 -0.7384
 1024MOL0     O38164  11.022   5.437   2.072 -0.3189 -0.3234 -0.4863
 1024MOL0     C38165  11.124   5.490   2.160 -0.0866 -0.1044 -0.1539
 1024MOL0     C38166  11.266   5.421   2.156  0.5008  0.3950  0.0496
 1024MOL0     C38167  11.299   5.354   2.295 -0.5873  1.0658 -0.6100
 1024MOL0     C38168  11.196   5.254   2.354 -0.2156 -0.1006  0.3148
 1024MOL0     C38169  11.181   5.149   2.249 -0.6466  0.4484 -0.1639
 1024MOL0     C38170  11.184   5.054   2.170  0.1907  0.9365  0.2965
 1024MOL0     C38171  10.815   5.422   1.971 -0.0673 -0.9380 -0.1615
 1024MOL0     C38172  10.705   5.487   1.920 -0.2900  1.1505  0.4475
 1024MOL0     H38173  10.263   5.502   1.854  4.1743  1.9883  1.8446
 1024MOL0     H38174  10.029   5.590   1.797  0.2741 -1.0283  0.6979
 1024MOL0     H38175  10.025   5.998   1.595  1.0986 -0.8016 -0.4737
 1024MOL0     H38176  10.027   5.875   1.480  2.1573  1.5793  0.6321
 1024MOL0     H38177   9.801   5.972   1.446  1.5186 -3.7382 -1.7306
 1024MOL0     H38178   9.776   5.829   1.517  1.0810 -0.1018  0.1373
 1024MOL0     H38179   9.726   5.929   1.745 -2.1729 -1.3611 -1.3008
 1024MOL0     H38180   9.817   6.072   1.692  1.0487 -2.1049  1.4911
 1024MOL0     H38181   9.581   6.130   1.700 -2.3455 -1.0442 -0.0127
 1024MOL0     H38182   9.620   6.118   1.521  0.9547 -0.8378 -0.0221
 1024MOL0     H38183   9.542   5.868   1.554  1.4261  0.0907  0.1761
 1024MOL0     H38184   9.491   5.914   1.711 -0.0966 -1.7216 -0.7119
 1024MOL0     H38185   9.361   6.111   1.596  1.7669  0.3961  0.0616
 1024MOL0     H38186   9.378   6.040   1.450  0.7084  0.0884  1.2795
 1024MOL0     H38187   9.269   5.910   1.714 -1.3114 -0.9186  0.2192
 1024MOL0     H38188   9.161   5.957   1.580  0.1486  0.4144  0.7578
 1024MOL0     H38189   9.180   5.717   1.586  1.0721 -1.0678 -0.3250
 1024MOL0     H38190   9.362   5.729   1.597  0.9351 -0.0040  1.0062
 1024MOL0     H38191   9.133   5.920   1.361 -1.5354 -1.3529  0.9087
 1024MOL0     H38192   9.129   5.920   1.075 -1.8895 -0.0977  0.2588
 1024MOL0     H38193   9.234   5.814   0.984 -0.5501 -0.2445 -0.2422
 1024MOL0     H38194   8.979   5.714   1.119  0.7316  0.2584 -0.1942
 1024MOL0     H38195   9.078   5.627   1.005  0.0944 -0.2625  1.8232
 1024MOL0     H38196   9.009   5.762   0.825 -0.3396 -1.9614 -0.1142
 1024MOL0     H38197   8.941   5.894   0.932  0.9723  0.2743 -0.3796
 1024MOL0     H38198   8.768   5.783   0.850  2.6533  0.5216 -0.7052
 1024MOL0     H38199   8.774   5.727   1.017  1.3885 -1.2345  1.8399
 1024MOL0     H38200   8.872   5.310   0.871 -1.1583 -1.2969  1.4352
 1024MOL0     H38201   8.813   5.112   0.925 -0.5146 -3.0158  1.9760
 1024MOL0     H38202   8.655   5.073   0.957  2.1297  0.3227  1.5163
 1024MOL0     H38203   8.704   5.054   0.788  1.6022 -0.7495  0.1901
 1024MOL0     H38204   8.115   5.393   0.929 -0.4796  0.0957  2.3029
 1024MOL0     H38205   7.862   5.320   0.934 -0.5637 -0.5876  1.7706
 1024MOL0     H38206   7.689   5.033   0.740 -1.9769 -1.1472 -0.7981
 1024MOL0     H38207   7.815   4.923   0.788  1.5546  1.5422  1.6298
 1024MOL0     H38208   7.541   4.949   0.938  0.7261  1.6036 -2.3682
 1024MOL0     H38209   7.574   4.829   0.817  1.6384 -0.3857 -1.0368
 1024MOL0     H38210   7.759   4.841   1.055  0.1417 -0.0832  0.4006
 1024MOL0     H38211   7.711   4.696   0.958  0.9382 -1.3814  2.2060
 1024MOL0     H38212   7.500   4.810   1.137  0.3663 -0.5099 -0.3022
 1024MOL0     H38213   7.529   4.648   1.068 -2.2006  0.9724 -1.1484
 1024MOL0     H38214   7.712   4.768   1.270 -1.4011  0.5083  2.5709
 1024MOL0     H38215   7.711   4.606   1.188  1.2290  0.4748 -0.5115
 1024MOL0     H38216   7.523   4.740   1.384 -0.6807  0.1161  0.1297
 1024MOL0     H38217   7.469   4.589   1.300 -0.8646  0.9389 -0.8228
 1024MOL0     H38218   7.693   4.614   1.507 -0.1985  1.9695 -1.1921
 1024MOL0     H38219   7.705   4.496   1.375 -0.7191 -0.0874 -0.8224
 1024MOL0     H38220   7.456   4.497   1.535 -2.9044 -4.4150 -0.6033
 1024MOL0     H38221   7.597   4.412   1.591  0.8417  1.6897  0.5353
 1024MOL0     H38222   8.005   4.910   0.886 -0.0339 -0.6197  0.2189
 1024MOL0     H38223   8.225   4.989   0.869 -1.8462 -1.7216  1.4450
 1024MOL0     H38224   8.416   5.480   0.871  0.3002 -1.0631 -1.6379
 1024MOL0     H38225   8.601   5.636   0.874 -0.0102  1.2282  0.8818
 1024MOL0     H38226  10.213   5.905   1.578 -1.5718 -0.0146  0.5979
 1024MOL0     H38227  10.427   5.839   1.666 -1.6505  3.0153 -1.0684
 1024MOL0     H38228  10.801   5.807   1.971  0.7517  0.4584 -1.8857
 1024MOL0     H38229  11.003   5.700   2.057  0.6127  0.4412 -1.0459
 1024MOL0     H38230  11.156   5.587   2.119 -2.5060  0.0316 -1.9482
 1024MOL0     H38231  11.083   5.498   2.261 -2.1594 -2.7182 -0.6935
 1024MOL0     H38232  11.350   5.485   2.129  0.1705  1.0800  0.6146
 1024MOL0     H38233  11.251   5.348   2.076 -1.0225  0.4329  0.2643
 1024MOL0     H38234  11.319   5.440   2.359 -2.1941  0.9569  0.0797
 1024MOL0     H38235  11.400   5.311   2.287  1.1097  4.1342  2.1266
 1024MOL0     H38236  11.107   5.308   2.385 -0.5769  0.5630 -1.7334
 1024MOL0     H38237  11.240   5.215   2.447 -1.0354  1.4367  1.3899
 1024MOL0     H38238  11.189   4.963   2.114  0.9720  1.5762 -0.7156
 1024MOL0     H38239  10.811   5.313   1.980  3.2566 -1.1572 -0.0871
 1024MOL0     H38240  10.620   5.423   1.896  1.6685 -2.7474  2.8326
  11.36485  11.36485  11.36485
